<event>
 8    1  0.2531964E-006  0.9118800E+02  0.7816164E-02  0.1184000E+00
        -11   -1    0    0    0    0  0.00000000000E+00  0.00000000000E+00  0.45593999997E+02  0.45594000000E+02  0.51100000000E-03 0. -1.
         11   -1    0    0    0    0 -0.00000000000E+00 -0.00000000000E+00 -0.45593999997E+02  0.45594000000E+02  0.51100000000E-03 0.  1.
         23    2    1    2    0    0 -0.35527136788E-14  0.00000000000E+00 -0.17763568394E-14  0.91188000000E+02  0.91188000000E+02 0.  0.
    9900012    2    3    3    0    0  0.23900630810E+02 -0.23729700853E+02  0.14880900367E+02  0.54367081333E+02  0.39999993516E+02 0.  0.
        -12    1    3    3    0    0 -0.23900630810E+02  0.23729700853E+02 -0.14880900367E+02  0.36820918667E+02  0.00000000000E+00 0.  1.
         11    1    4    4    0    0  0.18051107918E+02 -0.88219859099E+01 -0.32909985872E+01  0.20359287915E+02  0.51100000000E-03 0. -1.
        -11    1    4    4    0    0 -0.86253348401E+00 -0.13408762289E+02 -0.11624751204E+01  0.13486668188E+02  0.51100000000E-03 0.  1.
         12    1    4    4    0    0  0.67120563762E+01 -0.14989526541E+01  0.19334374074E+02  0.20521125230E+02  0.00000000000E+00 0. -1.
</event>
<event>
 8    1  0.2531964E-006  0.9118800E+02  0.7816164E-02  0.1184000E+00
        -11   -1    0    0    0    0  0.00000000000E+00  0.00000000000E+00  0.45593999997E+02  0.45594000000E+02  0.51100000000E-03 0. -1.
         11   -1    0    0    0    0 -0.00000000000E+00 -0.00000000000E+00 -0.45593999997E+02  0.45594000000E+02  0.51100000000E-03 0.  1.
         23    2    1    2    0    0  0.00000000000E+00  0.00000000000E+00 -0.35527136788E-14  0.91188000000E+02  0.91188000000E+02 0.  0.
    9900012    2    3    3    0    0 -0.18110398397E+02  0.93701301872E+01  0.30659293591E+02  0.54367107109E+02  0.40000052276E+02 0.  0.
        -12    1    3    3    0    0  0.18110398397E+02 -0.93701301872E+01 -0.30659293591E+02  0.36820892891E+02  0.00000000000E+00 0.  1.
         11    1    4    4    0    0 -0.76222502352E+01 -0.17355294047E+01  0.17442824166E+02  0.19114467717E+02  0.51100000000E-03 0. -1.
        -11    1    4    4    0    0 -0.95058401304E+01  0.94686594610E+01  0.22270327109E+02  0.25999691890E+02  0.51100000000E-03 0.  1.
        -12    1    4    4    0    0 -0.98230803166E+00  0.16370001309E+01 -0.90538576843E+01  0.92529475015E+01  0.00000000000E+00 0.  1.
</event>
<event>
 8    1  0.2531964E-006  0.9118800E+02  0.7816164E-02  0.1184000E+00
        -11   -1    0    0    0    0  0.00000000000E+00  0.00000000000E+00  0.45593999997E+02  0.45594000000E+02  0.51100000000E-03 0. -1.
         11   -1    0    0    0    0 -0.00000000000E+00 -0.00000000000E+00 -0.45593999997E+02  0.45594000000E+02  0.51100000000E-03 0.  1.
         23    2    1    2    0    0 -0.55511151231E-15  0.00000000000E+00  0.00000000000E+00  0.91188000000E+02  0.91188000000E+02 0.  0.
    9900012    2    3    3    0    0 -0.24992955711E+00 -0.25333172692E+02  0.26719830052E+02  0.54367062730E+02  0.39999951106E+02 0.  0.
        -12    1    3    3    0    0  0.24992955711E+00  0.25333172692E+02 -0.26719830052E+02  0.36820937270E+02  0.00000000000E+00 0.  1.
         11    1    4    4    0    0 -0.17486002755E+02 -0.10249089571E+02  0.13412798508E+02  0.24304470648E+02  0.51100000000E-03 0. -1.
        -11    1    4    4    0    0  0.15146314511E+02 -0.14212920530E+02  0.48792627856E+01  0.21336006160E+02  0.51100000000E-03 0.  1.
        -12    1    4    4    0    0  0.20897586866E+01 -0.87116259176E+00  0.84277687580E+01  0.87265859227E+01  0.00000000000E+00 0.  1.
</event>
<event>
 8    1  0.2531964E-006  0.9118800E+02  0.7816164E-02  0.1184000E+00
        -11   -1    0    0    0    0  0.00000000000E+00  0.00000000000E+00  0.45593999997E+02  0.45594000000E+02  0.51100000000E-03 0.  1.
         11   -1    0    0    0    0 -0.00000000000E+00 -0.00000000000E+00 -0.45593999997E+02  0.45594000000E+02  0.51100000000E-03 0. -1.
         23    2    1    2    0    0 -0.17763568394E-14  0.00000000000E+00  0.17763568394E-14  0.91188000000E+02  0.91188000000E+02 0.  0.
    9900012    2    3    3    0    0 -0.12287926715E+02  0.33242198300E+02  0.99871323388E+01  0.54367086064E+02  0.40000004300E+02 0.  0.
         12    1    3    3    0    0  0.12287926715E+02 -0.33242198300E+02 -0.99871323388E+01  0.36820913936E+02  0.00000000000E+00 0. -1.
         11    1    4    4    0    0 -0.37910521292E+01  0.14075348534E+00 -0.74283211733E+00  0.38657066114E+01  0.51100000000E-03 0. -1.
        -11    1    4    4    0    0 -0.78005240288E+00 -0.34618853188E+01  0.12595689551E+02  0.13086043223E+02  0.51100000000E-03 0.  1.
        -12    1    4    4    0    0 -0.77168221834E+01  0.36563330133E+02 -0.18657250948E+01  0.37415336229E+02  0.00000000000E+00 0.  1.
</event>
<event>
 8    1  0.2531964E-006  0.9118800E+02  0.7816164E-02  0.1184000E+00
        -11   -1    0    0    0    0  0.00000000000E+00  0.00000000000E+00  0.45593999997E+02  0.45594000000E+02  0.51100000000E-03 0.  1.
         11   -1    0    0    0    0 -0.00000000000E+00 -0.00000000000E+00 -0.45593999997E+02  0.45594000000E+02  0.51100000000E-03 0. -1.
         23    2    1    2    0    0  0.17763568394E-14  0.00000000000E+00  0.35527136788E-14  0.91188000000E+02  0.91188000000E+02 0.  0.
    9900012    2    3    3    0    0  0.59719297112E+01  0.23203710439E+02  0.27958963003E+02  0.54367085634E+02  0.40000003319E+02 0.  0.
         12    1    3    3    0    0 -0.59719297112E+01 -0.23203710439E+02 -0.27958963003E+02  0.36820914366E+02  0.00000000000E+00 0. -1.
         11    1    4    4    0    0 -0.13120717394E+02  0.47398491988E+01 -0.33963407261E+00  0.13954739228E+02  0.51100000000E-03 0. -1.
        -11    1    4    4    0    0  0.17692745536E+02  0.15490098539E+02  0.28697406824E+02  0.37101449514E+02  0.51100000000E-03 0.  1.
         12    1    4    4    0    0  0.13999015699E+01  0.29737627013E+01 -0.39880974906E+00  0.33108968913E+01  0.00000000000E+00 0. -1.
</event>
<event>
 8    1  0.2531964E-006  0.9118800E+02  0.7816164E-02  0.1184000E+00
        -11   -1    0    0    0    0  0.00000000000E+00  0.00000000000E+00  0.45593999997E+02  0.45594000000E+02  0.51100000000E-03 0. -1.
         11   -1    0    0    0    0 -0.00000000000E+00 -0.00000000000E+00 -0.45593999997E+02  0.45594000000E+02  0.51100000000E-03 0.  1.
         23    2    1    2    0    0 -0.58286708793E-15  0.35527136788E-14  0.35527136788E-14  0.91188000000E+02  0.91188000000E+02 0.  0.
    9900012    2    3    3    0    0  0.17113081962E+00 -0.30767326850E+02 -0.20226859114E+02  0.54367034276E+02  0.39999886239E+02 0.  0.
         12    1    3    3    0    0 -0.17113081962E+00  0.30767326850E+02  0.20226859114E+02  0.36820965724E+02  0.00000000000E+00 0. -1.
         11    1    4    4    0    0 -0.12542855198E+02  0.15005196191E+01 -0.92191955099E+01  0.15638680947E+02  0.51100000000E-03 0. -1.
        -11    1    4    4    0    0  0.48773629284E+01 -0.17736037809E+01 -0.37904611063E+01  0.64266581648E+01  0.51100000000E-03 0.  1.
        -12    1    4    4    0    0  0.78366230896E+01 -0.30494242688E+02 -0.72172024975E+01  0.32301695164E+02  0.00000000000E+00 0.  1.
</event>
<event>
 8    1  0.2531964E-006  0.9118800E+02  0.7816164E-02  0.1184000E+00
        -11   -1    0    0    0    0  0.00000000000E+00  0.00000000000E+00  0.45593999997E+02  0.45594000000E+02  0.51100000000E-03 0.  1.
         11   -1    0    0    0    0 -0.00000000000E+00 -0.00000000000E+00 -0.45593999997E+02  0.45594000000E+02  0.51100000000E-03 0. -1.
         23    2    1    2    0    0  0.35527136788E-14  0.31086244690E-14  0.00000000000E+00  0.91188000000E+02  0.91188000000E+02 0.  0.
    9900012    2    3    3    0    0  0.25781615880E+02 -0.20296565922E+01  0.26210085862E+02  0.54367084420E+02  0.40000000553E+02 0.  0.
         12    1    3    3    0    0 -0.25781615880E+02  0.20296565922E+01 -0.26210085862E+02  0.36820915580E+02  0.00000000000E+00 0. -1.
         11    1    4    4    0    0  0.18611385348E+02  0.10254983177E+02  0.26447726021E+02  0.33926841239E+02  0.51100000000E-03 0. -1.
        -11    1    4    4    0    0  0.10633048823E+02 -0.12275589190E+02  0.19303170876E+01  0.16354752874E+02  0.51100000000E-03 0.  1.
         12    1    4    4    0    0 -0.34628182907E+01 -0.90505791754E-02 -0.21679572470E+01  0.40854903074E+01  0.00000000000E+00 0. -1.
</event>
<event>
 8    1  0.2531964E-006  0.9118800E+02  0.7816164E-02  0.1184000E+00
        -11   -1    0    0    0    0  0.00000000000E+00  0.00000000000E+00  0.45593999997E+02  0.45594000000E+02  0.51100000000E-03 0. -1.
         11   -1    0    0    0    0 -0.00000000000E+00 -0.00000000000E+00 -0.45593999997E+02  0.45594000000E+02  0.51100000000E-03 0.  1.
         23    2    1    2    0    0  0.00000000000E+00  0.88817841970E-15  0.00000000000E+00  0.91188000000E+02  0.91188000000E+02 0.  0.
    9900012    2    3    3    0    0 -0.86237720612E+01  0.41159275660E+01 -0.35559404585E+02  0.54367060866E+02  0.39999946857E+02 0.  0.
         12    1    3    3    0    0  0.86237720612E+01 -0.41159275660E+01  0.35559404585E+02  0.36820939134E+02  0.00000000000E+00 0. -1.
         11    1    4    4    0    0 -0.16547797494E+02  0.38842885541E+01 -0.93345331815E+01  0.19392029534E+02  0.51100000000E-03 0. -1.
        -11    1    4    4    0    0  0.46892835537E+01 -0.59304765255E+00 -0.29748235586E+02  0.30121397818E+02  0.51100000000E-03 0.  1.
         12    1    4    4    0    0  0.32347418795E+01  0.82468666452E+00  0.35233641829E+01  0.48536335139E+01  0.00000000000E+00 0. -1.
</event>
<event>
 8    1  0.2531964E-006  0.9118800E+02  0.7816164E-02  0.1184000E+00
        -11   -1    0    0    0    0  0.00000000000E+00  0.00000000000E+00  0.45593999997E+02  0.45594000000E+02  0.51100000000E-03 0.  1.
         11   -1    0    0    0    0 -0.00000000000E+00 -0.00000000000E+00 -0.45593999997E+02  0.45594000000E+02  0.51100000000E-03 0. -1.
         23    2    1    2    0    0  0.35527136788E-14  0.17763568394E-14  0.35527136788E-14  0.91188000000E+02  0.91188000000E+02 0.  0.
    9900012    2    3    3    0    0  0.23569389769E+02 -0.11115645915E+02  0.26013577844E+02  0.54367082705E+02  0.39999996642E+02 0.  0.
         12    1    3    3    0    0 -0.23569389769E+02  0.11115645915E+02 -0.26013577844E+02  0.36820917295E+02  0.00000000000E+00 0. -1.
         11    1    4    4    0    0 -0.50859469742E+00  0.44759889242E+01  0.24268203852E+02  0.24682764511E+02  0.51100000000E-03 0. -1.
        -11    1    4    4    0    0  0.13251125888E+02 -0.59023471729E+01  0.38371534114E+01  0.15005125325E+02  0.51100000000E-03 0.  1.
         12    1    4    4    0    0  0.10826858578E+02 -0.96892876666E+01 -0.20917794192E+01  0.14679192869E+02  0.00000000000E+00 0. -1.
</event>
<event>
 8    1  0.2531964E-006  0.9118800E+02  0.7816164E-02  0.1184000E+00
        -11   -1    0    0    0    0  0.00000000000E+00  0.00000000000E+00  0.45593999997E+02  0.45594000000E+02  0.51100000000E-03 0.  1.
         11   -1    0    0    0    0 -0.00000000000E+00 -0.00000000000E+00 -0.45593999997E+02  0.45594000000E+02  0.51100000000E-03 0. -1.
         23    2    1    2    0    0  0.17763568394E-14  0.66613381478E-15 -0.71054273576E-14  0.91188000000E+02  0.91188000000E+02 0.  0.
    9900012    2    3    3    0    0  0.86130351210E+01 -0.12821535070E+01 -0.35776409360E+02  0.54367085314E+02  0.40000002591E+02 0.  0.
        -12    1    3    3    0    0 -0.86130351210E+01  0.12821535070E+01  0.35776409360E+02  0.36820914686E+02  0.00000000000E+00 0.  1.
         11    1    4    4    0    0  0.12352169428E+02  0.33577777420E+01 -0.23651751367E+02  0.26893421201E+02  0.51100000000E-03 0. -1.
        -11    1    4    4    0    0 -0.87139372727E+01 -0.12276834999E+02 -0.10123660795E+02  0.18142268010E+02  0.51100000000E-03 0.  1.
        -12    1    4    4    0    0  0.49748029658E+01  0.76369037503E+01 -0.20009971979E+01  0.93313961027E+01  0.00000000000E+00 0.  1.
</event>
<event>
 8    1  0.2531964E-006  0.9118800E+02  0.7816164E-02  0.1184000E+00
        -11   -1    0    0    0    0  0.00000000000E+00  0.00000000000E+00  0.45593999997E+02  0.45594000000E+02  0.51100000000E-03 0.  1.
         11   -1    0    0    0    0 -0.00000000000E+00 -0.00000000000E+00 -0.45593999997E+02  0.45594000000E+02  0.51100000000E-03 0. -1.
         23    2    1    2    0    0 -0.11102230246E-14  0.35527136788E-14  0.00000000000E+00  0.91188000000E+02  0.91188000000E+02 0.  0.
    9900012    2    3    3    0    0  0.11458775295E+01 -0.17368146163E+02  0.32447114917E+02  0.54367071130E+02  0.39999970254E+02 0.  0.
         12    1    3    3    0    0 -0.11458775295E+01  0.17368146163E+02 -0.32447114917E+02  0.36820928870E+02  0.00000000000E+00 0. -1.
         11    1    4    4    0    0 -0.70069868058E+01 -0.16526765183E+02  0.14654560012E+02  0.23173000689E+02  0.51100000000E-03 0. -1.
        -11    1    4    4    0    0 -0.15654748274E+01  0.53205479197E+00  0.20848853914E+02  0.20914313365E+02  0.51100000000E-03 0.  1.
         12    1    4    4    0    0  0.97183391627E+01 -0.13734357717E+01 -0.30562990093E+01  0.10279757076E+02  0.00000000000E+00 0. -1.
</event>
<event>
 8    1  0.2531964E-006  0.9118800E+02  0.7816164E-02  0.1184000E+00
        -11   -1    0    0    0    0  0.00000000000E+00  0.00000000000E+00  0.45593999997E+02  0.45594000000E+02  0.51100000000E-03 0.  1.
         11   -1    0    0    0    0 -0.00000000000E+00 -0.00000000000E+00 -0.45593999997E+02  0.45594000000E+02  0.51100000000E-03 0. -1.
         23    2    1    2    0    0 -0.35527136788E-14  0.00000000000E+00  0.00000000000E+00  0.91188000000E+02  0.91188000000E+02 0.  0.
    9900012    2    3    3    0    0 -0.14794068239E+02 -0.17574065508E+02 -0.28776170729E+02  0.54367078836E+02  0.39999987822E+02 0.  0.
        -12    1    3    3    0    0  0.14794068239E+02  0.17574065508E+02  0.28776170729E+02  0.36820921164E+02  0.00000000000E+00 0.  1.
         11    1    4    4    0    0  0.13576402301E+01 -0.12979074610E+01 -0.12075211364E+02  0.12220412453E+02  0.51100000000E-03 0. -1.
        -11    1    4    4    0    0 -0.25361491017E+02 -0.14328632683E+02 -0.10973159210E+02  0.31127562778E+02  0.51100000000E-03 0.  1.
        -12    1    4    4    0    0  0.92097825483E+01 -0.19475253642E+01 -0.57278001549E+01  0.11019103604E+02  0.00000000000E+00 0.  1.
</event>
<event>
 8    1  0.2531964E-006  0.9118800E+02  0.7816164E-02  0.1184000E+00
        -11   -1    0    0    0    0  0.00000000000E+00  0.00000000000E+00  0.45593999997E+02  0.45594000000E+02  0.51100000000E-03 0.  1.
         11   -1    0    0    0    0 -0.00000000000E+00 -0.00000000000E+00 -0.45593999997E+02  0.45594000000E+02  0.51100000000E-03 0. -1.
         23    2    1    2    0    0  0.00000000000E+00 -0.35527136788E-14  0.71054273576E-14  0.91188000000E+02  0.91188000000E+02 0.  0.
    9900012    2    3    3    0    0  0.40935661836E+01 -0.18151348964E+02  0.31773431316E+02  0.54367086229E+02  0.40000004677E+02 0.  0.
         12    1    3    3    0    0 -0.40935661836E+01  0.18151348964E+02 -0.31773431316E+02  0.36820913771E+02  0.00000000000E+00 0. -1.
         11    1    4    4    0    0  0.15380334848E+01  0.60356982782E+01 -0.19999274556E+01  0.65417819281E+01  0.51100000000E-03 0. -1.
        -11    1    4    4    0    0 -0.51271227752E+01 -0.35617961848E-01 -0.55264099576E+00  0.51569437579E+01  0.51100000000E-03 0.  1.
        -12    1    4    4    0    0  0.76826554740E+01 -0.24151429281E+02  0.34325999767E+02  0.42668360543E+02  0.00000000000E+00 0.  1.
</event>
<event>
 8    1  0.2531964E-006  0.9118800E+02  0.7816164E-02  0.1184000E+00
        -11   -1    0    0    0    0  0.00000000000E+00  0.00000000000E+00  0.45593999997E+02  0.45594000000E+02  0.51100000000E-03 0.  1.
         11   -1    0    0    0    0 -0.00000000000E+00 -0.00000000000E+00 -0.45593999997E+02  0.45594000000E+02  0.51100000000E-03 0. -1.
         23    2    1    2    0    0  0.00000000000E+00  0.00000000000E+00  0.00000000000E+00  0.91188000000E+02  0.91188000000E+02 0.  0.
    9900012    2    3    3    0    0  0.22241099630E+02 -0.26009476654E+02  0.13587430499E+02  0.54367113860E+02  0.40000067667E+02 0.  0.
         12    1    3    3    0    0 -0.22241099630E+02  0.26009476654E+02 -0.13587430499E+02  0.36820886140E+02  0.00000000000E+00 0. -1.
         11    1    4    4    0    0  0.97351120508E+01 -0.12131808635E+02  0.15407586107E+02  0.21893992265E+02  0.51100000000E-03 0. -1.
        -11    1    4    4    0    0  0.13007545660E+01 -0.14447706276E+02  0.88476005176E+01  0.16991415899E+02  0.51100000000E-03 0.  1.
         12    1    4    4    0    0  0.11205233013E+02  0.57003825723E+00 -0.10667756126E+02  0.15481705696E+02  0.00000000000E+00 0. -1.
</event>
<event>
 8    1  0.2531964E-006  0.9118800E+02  0.7816164E-02  0.1184000E+00
        -11   -1    0    0    0    0  0.00000000000E+00  0.00000000000E+00  0.45593999997E+02  0.45594000000E+02  0.51100000000E-03 0. -1.
         11   -1    0    0    0    0 -0.00000000000E+00 -0.00000000000E+00 -0.45593999997E+02  0.45594000000E+02  0.51100000000E-03 0.  1.
         23    2    1    2    0    0 -0.35527136788E-14 -0.88817841970E-15  0.00000000000E+00  0.91188000000E+02  0.91188000000E+02 0.  0.
    9900012    2    3    3    0    0 -0.30401138524E+02  0.40105995508E+01 -0.20382989878E+02  0.54367076482E+02  0.39999982457E+02 0.  0.
         12    1    3    3    0    0  0.30401138524E+02 -0.40105995508E+01  0.20382989878E+02  0.36820923518E+02  0.00000000000E+00 0. -1.
         11    1    4    4    0    0 -0.10166314130E+02  0.17101514280E+02 -0.77673063294E+01  0.21357593065E+02  0.51100000000E-03 0. -1.
        -11    1    4    4    0    0 -0.84460536424E+01 -0.16187524127E+02 -0.85443169467E+01  0.20158797381E+02  0.51100000000E-03 0.  1.
         12    1    4    4    0    0 -0.11788770752E+02  0.30966093978E+01 -0.40713666018E+01  0.12850686037E+02  0.00000000000E+00 0. -1.
</event>
<event>
 8    1  0.2531964E-006  0.9118800E+02  0.7816164E-02  0.1184000E+00
        -11   -1    0    0    0    0  0.00000000000E+00  0.00000000000E+00  0.45593999997E+02  0.45594000000E+02  0.51100000000E-03 0.  1.
         11   -1    0    0    0    0 -0.00000000000E+00 -0.00000000000E+00 -0.45593999997E+02  0.45594000000E+02  0.51100000000E-03 0. -1.
         23    2    1    2    0    0  0.00000000000E+00  0.35527136788E-14  0.00000000000E+00  0.91188000000E+02  0.91188000000E+02 0.  0.
    9900012    2    3    3    0    0 -0.18058694141E+02  0.20047762320E+02  0.25054953240E+02  0.54367083526E+02  0.39999998515E+02 0.  0.
         12    1    3    3    0    0  0.18058694141E+02 -0.20047762320E+02 -0.25054953240E+02  0.36820916474E+02  0.00000000000E+00 0. -1.
         11    1    4    4    0    0 -0.22950984600E+02  0.43212708005E+01  0.14185601776E+02  0.27324940502E+02  0.51100000000E-03 0. -1.
        -11    1    4    4    0    0 -0.22664143923E+01  0.16632842365E+02  0.10535029105E+02  0.19818549842E+02  0.51100000000E-03 0.  1.
        -12    1    4    4    0    0  0.71587048519E+01 -0.90635084621E+00  0.33432235901E+00  0.72235931815E+01  0.00000000000E+00 0.  1.
</event>
<event>
 8    1  0.2531964E-006  0.9118800E+02  0.7816164E-02  0.1184000E+00
        -11   -1    0    0    0    0  0.00000000000E+00  0.00000000000E+00  0.45593999997E+02  0.45594000000E+02  0.51100000000E-03 0. -1.
         11   -1    0    0    0    0 -0.00000000000E+00 -0.00000000000E+00 -0.45593999997E+02  0.45594000000E+02  0.51100000000E-03 0.  1.
         23    2    1    2    0    0  0.00000000000E+00  0.35527136788E-14  0.00000000000E+00  0.91188000000E+02  0.91188000000E+02 0.  0.
    9900012    2    3    3    0    0 -0.32205017219E+02 -0.16635106122E+02 -0.64722026373E+01  0.54367091582E+02  0.40000016878E+02 0.  0.
        -12    1    3    3    0    0  0.32205017219E+02  0.16635106122E+02  0.64722026373E+01  0.36820908418E+02  0.00000000000E+00 0.  1.
         11    1    4    4    0    0 -0.11504634882E+02  0.54795862925E+01  0.31687936609E+01  0.13131022171E+02  0.51100000000E-03 0. -1.
        -11    1    4    4    0    0 -0.18826984583E+02 -0.16355846795E+02  0.49611258228E+01  0.25427973623E+02  0.51100000000E-03 0.  1.
        -12    1    4    4    0    0 -0.18733977540E+01 -0.57588456189E+01 -0.14602122121E+02  0.15808095788E+02  0.00000000000E+00 0.  1.
</event>
<event>
 8    1  0.2531964E-006  0.9118800E+02  0.7816164E-02  0.1184000E+00
        -11   -1    0    0    0    0  0.00000000000E+00  0.00000000000E+00  0.45593999997E+02  0.45594000000E+02  0.51100000000E-03 0.  1.
         11   -1    0    0    0    0 -0.00000000000E+00 -0.00000000000E+00 -0.45593999997E+02  0.45594000000E+02  0.51100000000E-03 0. -1.
         23    2    1    2    0    0  0.00000000000E+00 -0.35527136788E-14 -0.35527136788E-14  0.91188000000E+02  0.91188000000E+02 0.  0.
    9900012    2    3    3    0    0  0.14756494412E+02 -0.17354245947E+02 -0.28928458202E+02  0.54367086463E+02  0.40000005210E+02 0.  0.
        -12    1    3    3    0    0 -0.14756494412E+02  0.17354245947E+02  0.28928458202E+02  0.36820913537E+02  0.00000000000E+00 0.  1.
         11    1    4    4    0    0  0.31476687602E+01 -0.67428598525E+00  0.22425355529E+01  0.39231933652E+01  0.51100000000E-03 0. -1.
        -11    1    4    4    0    0 -0.68169712092E+01 -0.14723912522E+02 -0.26618705105E+01  0.16442331079E+02  0.51100000000E-03 0.  1.
         12    1    4    4    0    0  0.18425796861E+02 -0.19560474396E+01 -0.28509123245E+02  0.34001562019E+02  0.00000000000E+00 0. -1.
</event>
<event>
 8    1  0.2531964E-006  0.9118800E+02  0.7816164E-02  0.1184000E+00
        -11   -1    0    0    0    0  0.00000000000E+00  0.00000000000E+00  0.45593999997E+02  0.45594000000E+02  0.51100000000E-03 0.  1.
         11   -1    0    0    0    0 -0.00000000000E+00 -0.00000000000E+00 -0.45593999997E+02  0.45594000000E+02  0.51100000000E-03 0. -1.
         23    2    1    2    0    0  0.00000000000E+00  0.13322676296E-14  0.00000000000E+00  0.91188000000E+02  0.91188000000E+02 0.  0.
    9900012    2    3    3    0    0 -0.21273684874E+02  0.37795445876E+01  0.29814828385E+02  0.54367100812E+02  0.40000037921E+02 0.  0.
         12    1    3    3    0    0  0.21273684874E+02 -0.37795445876E+01 -0.29814828385E+02  0.36820899188E+02  0.00000000000E+00 0. -1.
         11    1    4    4    0    0  0.22607739777E+01  0.11315380237E+01 -0.49049226148E+00  0.25752786639E+01  0.51100000000E-03 0. -1.
        -11    1    4    4    0    0 -0.15192793445E+02  0.18589194580E+02  0.17369776737E+02  0.29632554259E+02  0.51100000000E-03 0.  1.
         12    1    4    4    0    0 -0.83416654069E+01 -0.15941188016E+02  0.12935543910E+02  0.22159267889E+02  0.00000000000E+00 0. -1.
</event>
<event>
 8    1  0.2531964E-006  0.9118800E+02  0.7816164E-02  0.1184000E+00
        -11   -1    0    0    0    0  0.00000000000E+00  0.00000000000E+00  0.45593999997E+02  0.45594000000E+02  0.51100000000E-03 0.  1.
         11   -1    0    0    0    0 -0.00000000000E+00 -0.00000000000E+00 -0.45593999997E+02  0.45594000000E+02  0.51100000000E-03 0. -1.
         23    2    1    2    0    0  0.00000000000E+00  0.17763568394E-14  0.00000000000E+00  0.91188000000E+02  0.91188000000E+02 0.  0.
    9900012    2    3    3    0    0 -0.48978629889E+01  0.13315462585E+02  0.33977707764E+02  0.54367146797E+02  0.40000142752E+02 0.  0.
         12    1    3    3    0    0  0.48978629889E+01 -0.13315462585E+02 -0.33977707764E+02  0.36820853203E+02  0.00000000000E+00 0. -1.
         11    1    4    4    0    0 -0.15870475144E+02 -0.21073919688E+01  0.55573467574E+01  0.16946893092E+02  0.51100000000E-03 0. -1.
        -11    1    4    4    0    0  0.67632292696E+01  0.27719989316E+01  0.20836840131E+02  0.22081647473E+02  0.51100000000E-03 0.  1.
        -12    1    4    4    0    0  0.42093828860E+01  0.12650855623E+02  0.75835208760E+01  0.15338606232E+02  0.00000000000E+00 0.  1.
</event>
<event>
 8    1  0.2531964E-006  0.9118800E+02  0.7816164E-02  0.1184000E+00
        -11   -1    0    0    0    0  0.00000000000E+00  0.00000000000E+00  0.45593999997E+02  0.45594000000E+02  0.51100000000E-03 0.  1.
         11   -1    0    0    0    0 -0.00000000000E+00 -0.00000000000E+00 -0.45593999997E+02  0.45594000000E+02  0.51100000000E-03 0. -1.
         23    2    1    2    0    0  0.35527136788E-14  0.00000000000E+00  0.00000000000E+00  0.91188000000E+02  0.91188000000E+02 0.  0.
    9900012    2    3    3    0    0  0.19946423619E+02  0.24282158474E+02  0.19191111560E+02  0.54367057613E+02  0.39999939440E+02 0.  0.
         12    1    3    3    0    0 -0.19946423619E+02 -0.24282158474E+02 -0.19191111560E+02  0.36820942387E+02  0.00000000000E+00 0. -1.
         11    1    4    4    0    0  0.10464869135E+02  0.17360688590E+02  0.83938251492E+01  0.21939993055E+02  0.51100000000E-03 0. -1.
        -11    1    4    4    0    0  0.16134217780E+02  0.77793109656E+01  0.15937956089E+02  0.23976011074E+02  0.51100000000E-03 0.  1.
         12    1    4    4    0    0 -0.66526632964E+01 -0.85784108127E+00 -0.51406696782E+01  0.84510534844E+01  0.00000000000E+00 0. -1.
</event>
<event>
 8    1  0.2531964E-006  0.9118800E+02  0.7816164E-02  0.1184000E+00
        -11   -1    0    0    0    0  0.00000000000E+00  0.00000000000E+00  0.45593999997E+02  0.45594000000E+02  0.51100000000E-03 0.  1.
         11   -1    0    0    0    0 -0.00000000000E+00 -0.00000000000E+00 -0.45593999997E+02  0.45594000000E+02  0.51100000000E-03 0. -1.
         23    2    1    2    0    0  0.00000000000E+00 -0.17763568394E-14  0.00000000000E+00  0.91188000000E+02  0.91188000000E+02 0.  0.
    9900012    2    3    3    0    0 -0.28223424572E+02 -0.12042768223E+02 -0.20351659354E+02  0.54367082038E+02  0.39999995123E+02 0.  0.
        -12    1    3    3    0    0  0.28223424572E+02  0.12042768223E+02  0.20351659354E+02  0.36820917962E+02  0.00000000000E+00 0.  1.
         11    1    4    4    0    0 -0.94653408543E+01 -0.79330158157E+01 -0.10322733326E+02  0.16096093967E+02  0.51100000000E-03 0. -1.
        -11    1    4    4    0    0 -0.25138778604E+02  0.48108673325E+01 -0.94643207192E+01  0.27288752282E+02  0.51100000000E-03 0.  1.
         12    1    4    4    0    0  0.63806948860E+01 -0.89206197400E+01 -0.56460530926E+00  0.10982235789E+02  0.00000000000E+00 0. -1.
</event>
<event>
 8    1  0.2531964E-006  0.9118800E+02  0.7816164E-02  0.1184000E+00
        -11   -1    0    0    0    0  0.00000000000E+00  0.00000000000E+00  0.45593999997E+02  0.45594000000E+02  0.51100000000E-03 0.  1.
         11   -1    0    0    0    0 -0.00000000000E+00 -0.00000000000E+00 -0.45593999997E+02  0.45594000000E+02  0.51100000000E-03 0. -1.
         23    2    1    2    0    0  0.35527136788E-14  0.00000000000E+00 -0.17763568394E-14  0.91188000000E+02  0.91188000000E+02 0.  0.
    9900012    2    3    3    0    0  0.28568365509E+02 -0.19277237892E+02 -0.12962019737E+02  0.54367117823E+02  0.40000076701E+02 0.  0.
        -12    1    3    3    0    0 -0.28568365509E+02  0.19277237892E+02  0.12962019737E+02  0.36820882177E+02  0.00000000000E+00 0.  1.
         11    1    4    4    0    0  0.36286441363E+01 -0.69211232457E+01 -0.55561672243E+00  0.78343931133E+01  0.51100000000E-03 0. -1.
        -11    1    4    4    0    0 -0.47247426431E+01  0.76145693808E+01 -0.11060160289E+01  0.90292929743E+01  0.51100000000E-03 0.  1.
         12    1    4    4    0    0  0.29664464016E+02 -0.19970684027E+02 -0.11300386986E+02  0.37503431735E+02  0.00000000000E+00 0. -1.
</event>
<event>
 8    1  0.2531964E-006  0.9118800E+02  0.7816164E-02  0.1184000E+00
        -11   -1    0    0    0    0  0.00000000000E+00  0.00000000000E+00  0.45593999997E+02  0.45594000000E+02  0.51100000000E-03 0.  1.
         11   -1    0    0    0    0 -0.00000000000E+00 -0.00000000000E+00 -0.45593999997E+02  0.45594000000E+02  0.51100000000E-03 0. -1.
         23    2    1    2    0    0  0.00000000000E+00  0.17763568394E-14 -0.71054273576E-14  0.91188000000E+02  0.91188000000E+02 0.  0.
    9900012    2    3    3    0    0 -0.61401222255E+01  0.10196033385E+02 -0.34844215979E+02  0.54367087669E+02  0.40000007958E+02 0.  0.
        -12    1    3    3    0    0  0.61401222255E+01 -0.10196033385E+02  0.34844215979E+02  0.36820912331E+02  0.00000000000E+00 0.  1.
         11    1    4    4    0    0 -0.21009506137E+01 -0.66222386118E+01 -0.26727707592E+02  0.27615908298E+02  0.51100000000E-03 0. -1.
        -11    1    4    4    0    0 -0.75988537315E+01  0.15493396718E+02 -0.12231062168E+02  0.21151520085E+02  0.51100000000E-03 0.  1.
        -12    1    4    4    0    0  0.35596821198E+01  0.13248752790E+01  0.41145537812E+01  0.55996592858E+01  0.00000000000E+00 0.  1.
</event>
<event>
 8    1  0.2531964E-006  0.9118800E+02  0.7816164E-02  0.1184000E+00
        -11   -1    0    0    0    0  0.00000000000E+00  0.00000000000E+00  0.45593999997E+02  0.45594000000E+02  0.51100000000E-03 0. -1.
         11   -1    0    0    0    0 -0.00000000000E+00 -0.00000000000E+00 -0.45593999997E+02  0.45594000000E+02  0.51100000000E-03 0.  1.
         23    2    1    2    0    0 -0.12012960071E-15  0.00000000000E+00  0.00000000000E+00  0.91188000000E+02  0.91188000000E+02 0.  0.
    9900012    2    3    3    0    0  0.31273578666E-02  0.21513708307E+02 -0.29882095674E+02  0.54367091581E+02  0.40000016878E+02 0.  0.
         12    1    3    3    0    0 -0.31273578666E-02 -0.21513708307E+02  0.29882095674E+02  0.36820908419E+02  0.00000000000E+00 0. -1.
         11    1    4    4    0    0 -0.10000917170E+01 -0.28617417358E+01  0.69806117917E+01  0.76104330003E+01  0.51100000000E-03 0. -1.
        -11    1    4    4    0    0  0.17299708966E+01 -0.57008211714E+00 -0.97021558215E+01  0.98716574479E+01  0.51100000000E-03 0.  1.
        -12    1    4    4    0    0 -0.72675182173E+00  0.24945532160E+02 -0.27160551645E+02  0.36885001133E+02  0.00000000000E+00 0.  1.
</event>
<event>
 8    1  0.2531964E-006  0.9118800E+02  0.7816164E-02  0.1184000E+00
        -11   -1    0    0    0    0  0.00000000000E+00  0.00000000000E+00  0.45593999997E+02  0.45594000000E+02  0.51100000000E-03 0.  1.
         11   -1    0    0    0    0 -0.00000000000E+00 -0.00000000000E+00 -0.45593999997E+02  0.45594000000E+02  0.51100000000E-03 0. -1.
         23    2    1    2    0    0  0.00000000000E+00  0.00000000000E+00  0.88817841970E-15  0.91188000000E+02  0.91188000000E+02 0.  0.
    9900012    2    3    3    0    0  0.23645749230E+01 -0.36632186635E+02 -0.28760920416E+01  0.54367079077E+02  0.39999988371E+02 0.  0.
        -12    1    3    3    0    0 -0.23645749230E+01  0.36632186635E+02  0.28760920416E+01  0.36820920923E+02  0.00000000000E+00 0.  1.
         11    1    4    4    0    0  0.35668303407E+00 -0.20110499149E+02  0.35379890012E+01  0.20422457375E+02  0.51100000000E-03 0. -1.
        -11    1    4    4    0    0  0.67592817126E+01 -0.49068693226E+01  0.10161966310E+02  0.13154117810E+02  0.51100000000E-03 0.  1.
         12    1    4    4    0    0 -0.47513898236E+01 -0.11614818164E+02 -0.16576047353E+02  0.20790503892E+02  0.00000000000E+00 0. -1.
</event>
<event>
 8    1  0.2531964E-006  0.9118800E+02  0.7816164E-02  0.1184000E+00
        -11   -1    0    0    0    0  0.00000000000E+00  0.00000000000E+00  0.45593999997E+02  0.45594000000E+02  0.51100000000E-03 0.  1.
         11   -1    0    0    0    0 -0.00000000000E+00 -0.00000000000E+00 -0.45593999997E+02  0.45594000000E+02  0.51100000000E-03 0. -1.
         23    2    1    2    0    0  0.44408920985E-15 -0.71054273576E-14  0.35527136788E-14  0.91188000000E+02  0.91188000000E+02 0.  0.
    9900012    2    3    3    0    0 -0.20165911647E+01  0.35577201569E+02 -0.92723181840E+01  0.54367084804E+02  0.40000001427E+02 0.  0.
        -12    1    3    3    0    0  0.20165911647E+01 -0.35577201569E+02  0.92723181840E+01  0.36820915196E+02  0.00000000000E+00 0.  1.
         11    1    4    4    0    0  0.47580117627E+01  0.17462451985E+02 -0.18260068375E+02  0.25710037001E+02  0.51100000000E-03 0. -1.
        -11    1    4    4    0    0 -0.85768602391E+01  0.34172591308E+00 -0.16372551865E+00  0.85852265240E+01  0.51100000000E-03 0.  1.
         12    1    4    4    0    0  0.18022573117E+01  0.17773023670E+02  0.91514757093E+01  0.20071821279E+02  0.00000000000E+00 0. -1.
</event>
<event>
 8    1  0.2531964E-006  0.9118800E+02  0.7816164E-02  0.1184000E+00
        -11   -1    0    0    0    0  0.00000000000E+00  0.00000000000E+00  0.45593999997E+02  0.45594000000E+02  0.51100000000E-03 0.  1.
         11   -1    0    0    0    0 -0.00000000000E+00 -0.00000000000E+00 -0.45593999997E+02  0.45594000000E+02  0.51100000000E-03 0. -1.
         23    2    1    2    0    0  0.22204460493E-15 -0.35527136788E-14  0.00000000000E+00  0.91188000000E+02  0.91188000000E+02 0.  0.
    9900012    2    3    3    0    0 -0.18452621916E+01  0.25811820607E+02 -0.26193979827E+02  0.54367086720E+02  0.40000005795E+02 0.  0.
        -12    1    3    3    0    0  0.18452621916E+01 -0.25811820607E+02  0.26193979827E+02  0.36820913280E+02  0.00000000000E+00 0.  1.
         11    1    4    4    0    0 -0.50491914257E+01  0.25444709634E+02 -0.23626638744E+02  0.35087685034E+02  0.51100000000E-03 0. -1.
        -11    1    4    4    0    0  0.63325106305E+01  0.12739841290E+01 -0.95759201030E+01  0.11550842936E+02  0.51100000000E-03 0.  1.
        -12    1    4    4    0    0 -0.31285813963E+01 -0.90687315531E+00  0.70085790204E+01  0.77285587504E+01  0.00000000000E+00 0.  1.
</event>
<event>
 8    1  0.2531964E-006  0.9118800E+02  0.7816164E-02  0.1184000E+00
        -11   -1    0    0    0    0  0.00000000000E+00  0.00000000000E+00  0.45593999997E+02  0.45594000000E+02  0.51100000000E-03 0.  1.
         11   -1    0    0    0    0 -0.00000000000E+00 -0.00000000000E+00 -0.45593999997E+02  0.45594000000E+02  0.51100000000E-03 0. -1.
         23    2    1    2    0    0 -0.26645352591E-14  0.00000000000E+00  0.35527136788E-14  0.91188000000E+02  0.91188000000E+02 0.  0.
    9900012    2    3    3    0    0  0.52224039691E+01  0.30322423048E+02 -0.20225151432E+02  0.54367087556E+02  0.40000007702E+02 0.  0.
        -12    1    3    3    0    0 -0.52224039691E+01 -0.30322423048E+02  0.20225151432E+02  0.36820912444E+02  0.00000000000E+00 0.  1.
         11    1    4    4    0    0 -0.14224223077E+01  0.33946483663E+02 -0.16910405841E+02  0.37951928334E+02  0.51100000000E-03 0. -1.
        -11    1    4    4    0    0 -0.42415964609E+01 -0.10847666022E+01  0.89763147363E+00  0.44691835543E+01  0.51100000000E-03 0.  1.
        -12    1    4    4    0    0  0.10886422738E+02 -0.25392940131E+01 -0.42123770655E+01  0.11945975668E+02  0.00000000000E+00 0.  1.
</event>
<event>
 8    1  0.2531964E-006  0.9118800E+02  0.7816164E-02  0.1184000E+00
        -11   -1    0    0    0    0  0.00000000000E+00  0.00000000000E+00  0.45593999997E+02  0.45594000000E+02  0.51100000000E-03 0.  1.
         11   -1    0    0    0    0 -0.00000000000E+00 -0.00000000000E+00 -0.45593999997E+02  0.45594000000E+02  0.51100000000E-03 0. -1.
         23    2    1    2    0    0  0.88817841970E-15 -0.88817841970E-15  0.00000000000E+00  0.91188000000E+02  0.91188000000E+02 0.  0.
    9900012    2    3    3    0    0 -0.50506023230E+01 -0.59384245349E+01  0.35986333340E+02  0.54366950897E+02  0.39999696159E+02 0.  0.
         12    1    3    3    0    0  0.50506023230E+01  0.59384245349E+01 -0.35986333340E+02  0.36821049103E+02  0.00000000000E+00 0. -1.
         11    1    4    4    0    0 -0.17459483899E+02  0.50013764892E+00  0.14442661721E+02  0.22664381605E+02  0.51100000000E-03 0. -1.
        -11    1    4    4    0    0  0.32467351235E+01  0.64945218682E+01  0.84744366193E+01  0.11159577928E+02  0.51100000000E-03 0.  1.
        -12    1    4    4    0    0  0.91621464522E+01 -0.12933084052E+02  0.13069234999E+02  0.20542991364E+02  0.00000000000E+00 0.  1.
</event>
<event>
 8    1  0.2531964E-006  0.9118800E+02  0.7816164E-02  0.1184000E+00
        -11   -1    0    0    0    0  0.00000000000E+00  0.00000000000E+00  0.45593999997E+02  0.45594000000E+02  0.51100000000E-03 0. -1.
         11   -1    0    0    0    0 -0.00000000000E+00 -0.00000000000E+00 -0.45593999997E+02  0.45594000000E+02  0.51100000000E-03 0.  1.
         23    2    1    2    0    0  0.71054273576E-14  0.00000000000E+00  0.00000000000E+00  0.91188000000E+02  0.91188000000E+02 0.  0.
    9900012    2    3    3    0    0 -0.34348444935E+02  0.13062020803E+02 -0.23125438665E+01  0.54367083172E+02  0.39999997707E+02 0.  0.
        -12    1    3    3    0    0  0.34348444935E+02 -0.13062020803E+02  0.23125438665E+01  0.36820916828E+02  0.00000000000E+00 0.  1.
         11    1    4    4    0    0  0.45301166851E+01 -0.23104344254E+01  0.12308766327E+01  0.52321240391E+01  0.51100000000E-03 0. -1.
        -11    1    4    4    0    0 -0.34519091722E-01  0.64828651801E+01 -0.64959248847E+01  0.91774600452E+01  0.51100000000E-03 0.  1.
         12    1    4    4    0    0 -0.38844042529E+02  0.88895900482E+01  0.29525043855E+01  0.39957499088E+02  0.00000000000E+00 0. -1.
</event>
<event>
 8    1  0.2531964E-006  0.9118800E+02  0.7816164E-02  0.1184000E+00
        -11   -1    0    0    0    0  0.00000000000E+00  0.00000000000E+00  0.45593999997E+02  0.45594000000E+02  0.51100000000E-03 0. -1.
         11   -1    0    0    0    0 -0.00000000000E+00 -0.00000000000E+00 -0.45593999997E+02  0.45594000000E+02  0.51100000000E-03 0.  1.
         23    2    1    2    0    0  0.35527136788E-14  0.35527136788E-14  0.17763568394E-14  0.91188000000E+02  0.91188000000E+02 0.  0.
    9900012    2    3    3    0    0  0.31133168367E+02 -0.15093481773E+02  0.12597327514E+02  0.54367081692E+02  0.39999994332E+02 0.  0.
        -12    1    3    3    0    0 -0.31133168367E+02  0.15093481773E+02 -0.12597327514E+02  0.36820918308E+02  0.00000000000E+00 0.  1.
         11    1    4    4    0    0  0.17695543183E+02  0.55678978951E+01  0.17469857350E+00  0.18551664491E+02  0.51100000000E-03 0. -1.
        -11    1    4    4    0    0  0.19050126703E+01  0.46906261682E+01  0.47113696056E+01  0.69157827428E+01  0.51100000000E-03 0.  1.
        -12    1    4    4    0    0  0.11532612513E+02 -0.25352005836E+02  0.77112593351E+01  0.28899634458E+02  0.00000000000E+00 0.  1.
</event>
<event>
 8    1  0.2531964E-006  0.9118800E+02  0.7816164E-02  0.1184000E+00
        -11   -1    0    0    0    0  0.00000000000E+00  0.00000000000E+00  0.45593999997E+02  0.45594000000E+02  0.51100000000E-03 0.  1.
         11   -1    0    0    0    0 -0.00000000000E+00 -0.00000000000E+00 -0.45593999997E+02  0.45594000000E+02  0.51100000000E-03 0. -1.
         23    2    1    2    0    0  0.00000000000E+00 -0.35527136788E-14 -0.35527136788E-14  0.91188000000E+02  0.91188000000E+02 0.  0.
    9900012    2    3    3    0    0  0.11906598023E+02  0.25794978094E+02  0.23422904698E+02  0.54367076113E+02  0.39999981615E+02 0.  0.
         12    1    3    3    0    0 -0.11906598023E+02 -0.25794978094E+02 -0.23422904698E+02  0.36820923887E+02  0.00000000000E+00 0. -1.
         11    1    4    4    0    0 -0.24551366956E+01  0.22853550321E+02  0.59467434822E+00  0.22992740078E+02  0.51100000000E-03 0.  1.
        -11    1    4    4    0    0 -0.30570516385E+01  0.15511255585E+00  0.81980018678E+00  0.31688637132E+01  0.51100000000E-03 0. -1.
        -12    1    4    4    0    0  0.17418786358E+02  0.27863152177E+01  0.22008430163E+02  0.28205472322E+02  0.00000000000E+00 0.  1.
</event>
<event>
 8    1  0.2531964E-006  0.9118800E+02  0.7816164E-02  0.1184000E+00
        -11   -1    0    0    0    0  0.00000000000E+00  0.00000000000E+00  0.45593999997E+02  0.45594000000E+02  0.51100000000E-03 0.  1.
         11   -1    0    0    0    0 -0.00000000000E+00 -0.00000000000E+00 -0.45593999997E+02  0.45594000000E+02  0.51100000000E-03 0. -1.
         23    2    1    2    0    0  0.35527136788E-14 -0.17763568394E-14  0.00000000000E+00  0.91188000000E+02  0.91188000000E+02 0.  0.
    9900012    2    3    3    0    0 -0.28053352953E+02  0.67854787202E+01  0.22863648520E+02  0.54367085332E+02  0.40000002631E+02 0.  0.
         12    1    3    3    0    0  0.28053352953E+02 -0.67854787202E+01 -0.22863648520E+02  0.36820914668E+02  0.00000000000E+00 0. -1.
         11    1    4    4    0    0 -0.43774958064E+00 -0.96110733315E+00 -0.26397184437E+01  0.28431436341E+01  0.51100000000E-03 0. -1.
        -11    1    4    4    0    0 -0.14366980216E+02  0.19706871514E+02  0.22959499232E+02  0.33494917684E+02  0.51100000000E-03 0.  1.
        -12    1    4    4    0    0 -0.13248623156E+02 -0.11960285461E+02  0.25438677313E+01  0.18029024013E+02  0.00000000000E+00 0.  1.
</event>
<event>
 8    1  0.2531964E-006  0.9118800E+02  0.7816164E-02  0.1184000E+00
        -11   -1    0    0    0    0  0.00000000000E+00  0.00000000000E+00  0.45593999997E+02  0.45594000000E+02  0.51100000000E-03 0. -1.
         11   -1    0    0    0    0 -0.00000000000E+00 -0.00000000000E+00 -0.45593999997E+02  0.45594000000E+02  0.51100000000E-03 0.  1.
         23    2    1    2    0    0  0.00000000000E+00  0.35527136788E-14  0.00000000000E+00  0.91188000000E+02  0.91188000000E+02 0.  0.
    9900012    2    3    3    0    0 -0.27271065171E+02  0.23469141566E+02 -0.78276477147E+01  0.54367032194E+02  0.39999881492E+02 0.  0.
        -12    1    3    3    0    0  0.27271065171E+02 -0.23469141566E+02  0.78276477147E+01  0.36820967806E+02  0.00000000000E+00 0.  1.
         11    1    4    4    0    0 -0.28071065646E+02  0.31389391066E+02 -0.59464020589E+01  0.42528088315E+02  0.51100000000E-03 0. -1.
        -11    1    4    4    0    0  0.44873898934E+01 -0.25118442081E+01 -0.85598458530E+00  0.52133232445E+01  0.51100000000E-03 0.  1.
        -12    1    4    4    0    0 -0.36873894185E+01 -0.54084052922E+01 -0.10252610705E+01  0.66256206344E+01  0.00000000000E+00 0.  1.
</event>
<event>
 8    1  0.2531964E-006  0.9118800E+02  0.7816164E-02  0.1184000E+00
        -11   -1    0    0    0    0  0.00000000000E+00  0.00000000000E+00  0.45593999997E+02  0.45594000000E+02  0.51100000000E-03 0.  1.
         11   -1    0    0    0    0 -0.00000000000E+00 -0.00000000000E+00 -0.45593999997E+02  0.45594000000E+02  0.51100000000E-03 0. -1.
         23    2    1    2    0    0  0.35527136788E-14 -0.88817841970E-15  0.35527136788E-14  0.91188000000E+02  0.91188000000E+02 0.  0.
    9900012    2    3    3    0    0  0.22778985723E+02 -0.45750872798E+01  0.28565131614E+02  0.54367077167E+02  0.39999984017E+02 0.  0.
         12    1    3    3    0    0 -0.22778985723E+02  0.45750872798E+01 -0.28565131614E+02  0.36820922833E+02  0.00000000000E+00 0. -1.
         11    1    4    4    0    0  0.16358927959E+02 -0.11624947517E+02  0.11533298884E+02  0.23146725733E+02  0.51100000000E-03 0.  1.
        -11    1    4    4    0    0  0.71372575253E+01  0.14297643315E+02  0.42933475892E+01  0.16546778633E+02  0.51100000000E-03 0. -1.
         12    1    4    4    0    0 -0.71719976210E+00 -0.72477830785E+01  0.12738485141E+02  0.14673572801E+02  0.00000000000E+00 0. -1.
</event>
<event>
 8    1  0.2531964E-006  0.9118800E+02  0.7816164E-02  0.1184000E+00
        -11   -1    0    0    0    0  0.00000000000E+00  0.00000000000E+00  0.45593999997E+02  0.45594000000E+02  0.51100000000E-03 0. -1.
         11   -1    0    0    0    0 -0.00000000000E+00 -0.00000000000E+00 -0.45593999997E+02  0.45594000000E+02  0.51100000000E-03 0.  1.
         23    2    1    2    0    0  0.88817841970E-15  0.00000000000E+00  0.00000000000E+00  0.91188000000E+02  0.91188000000E+02 0.  0.
    9900012    2    3    3    0    0 -0.52307720228E+01 -0.34254187678E+02  0.12452666843E+02  0.54367092068E+02  0.40000017987E+02 0.  0.
        -12    1    3    3    0    0  0.52307720228E+01  0.34254187678E+02 -0.12452666843E+02  0.36820907932E+02  0.00000000000E+00 0.  1.
         11    1    4    4    0    0 -0.13304599599E+02 -0.13938072415E+02  0.15112771166E+02  0.24488325498E+02  0.51100000000E-03 0. -1.
        -11    1    4    4    0    0 -0.35128263248E+01 -0.92421283611E+01  0.60959057292E+01  0.11615375687E+02  0.51100000000E-03 0.  1.
        -12    1    4    4    0    0  0.11586653901E+02 -0.11073986902E+02 -0.87560100522E+01  0.18263390883E+02  0.00000000000E+00 0.  1.
</event>
<event>
 8    1  0.2531964E-006  0.9118800E+02  0.7816164E-02  0.1184000E+00
        -11   -1    0    0    0    0  0.00000000000E+00  0.00000000000E+00  0.45593999997E+02  0.45594000000E+02  0.51100000000E-03 0.  1.
         11   -1    0    0    0    0 -0.00000000000E+00 -0.00000000000E+00 -0.45593999997E+02  0.45594000000E+02  0.51100000000E-03 0. -1.
         23    2    1    2    0    0  0.00000000000E+00  0.00000000000E+00  0.00000000000E+00  0.91188000000E+02  0.91188000000E+02 0.  0.
    9900012    2    3    3    0    0  0.10854854349E+02 -0.12838243223E+02 -0.32758683718E+02  0.54367085958E+02  0.40000004058E+02 0.  0.
        -12    1    3    3    0    0 -0.10854854349E+02  0.12838243223E+02  0.32758683718E+02  0.36820914042E+02  0.00000000000E+00 0.  1.
         11    1    4    4    0    0  0.14432731695E+02 -0.25919867379E+01 -0.13890965467E+02  0.20198541068E+02  0.51100000000E-03 0. -1.
        -11    1    4    4    0    0  0.11697712848E+01 -0.17324618959E+01  0.65871969268E+01  0.69109299441E+01  0.51100000000E-03 0.  1.
        -12    1    4    4    0    0 -0.47476486309E+01 -0.85137945888E+01 -0.25454915178E+02  0.27257614946E+02  0.00000000000E+00 0.  1.
</event>
<event>
 8    1  0.2531964E-006  0.9118800E+02  0.7816164E-02  0.1184000E+00
        -11   -1    0    0    0    0  0.00000000000E+00  0.00000000000E+00  0.45593999997E+02  0.45594000000E+02  0.51100000000E-03 0.  1.
         11   -1    0    0    0    0 -0.00000000000E+00 -0.00000000000E+00 -0.45593999997E+02  0.45594000000E+02  0.51100000000E-03 0. -1.
         23    2    1    2    0    0  0.44408920985E-15  0.00000000000E+00  0.00000000000E+00  0.91188000000E+02  0.91188000000E+02 0.  0.
    9900012    2    3    3    0    0 -0.18801826032E+01  0.36432298259E+02  0.49933819692E+01  0.54367064290E+02  0.39999954663E+02 0.  0.
         12    1    3    3    0    0  0.18801826032E+01 -0.36432298259E+02 -0.49933819692E+01  0.36820935710E+02  0.00000000000E+00 0. -1.
         11    1    4    4    0    0  0.32856564960E+01  0.22197448354E+02 -0.12151459422E+02  0.25518233058E+02  0.51100000000E-03 0. -1.
        -11    1    4    4    0    0 -0.53345573866E+00  0.89823500285E+01 -0.13255351944E+01  0.90952861897E+01  0.51100000000E-03 0.  1.
        -12    1    4    4    0    0 -0.46323833605E+01  0.52524998760E+01  0.18470376585E+02  0.19753545043E+02  0.00000000000E+00 0.  1.
</event>
<event>
 8    1  0.2531964E-006  0.9118800E+02  0.7816164E-02  0.1184000E+00
        -11   -1    0    0    0    0  0.00000000000E+00  0.00000000000E+00  0.45593999997E+02  0.45594000000E+02  0.51100000000E-03 0. -1.
         11   -1    0    0    0    0 -0.00000000000E+00 -0.00000000000E+00 -0.45593999997E+02  0.45594000000E+02  0.51100000000E-03 0.  1.
         23    2    1    2    0    0  0.00000000000E+00  0.00000000000E+00 -0.71054273576E-14  0.91188000000E+02  0.91188000000E+02 0.  0.
    9900012    2    3    3    0    0 -0.18800881483E+02  0.20625104737E+01  0.31591956152E+02  0.54367098497E+02  0.40000032644E+02 0.  0.
        -12    1    3    3    0    0  0.18800881483E+02 -0.20625104737E+01 -0.31591956152E+02  0.36820901503E+02  0.00000000000E+00 0.  1.
         11    1    4    4    0    0  0.30133413923E+01 -0.25689926202E+01  0.23202390636E+02  0.23537860585E+02  0.51100000000E-03 0. -1.
        -11    1    4    4    0    0 -0.94958897181E+01 -0.75720918101E+01  0.51369888826E+01  0.13187006899E+02  0.51100000000E-03 0.  1.
        -12    1    4    4    0    0 -0.12318333157E+02  0.12203594904E+02  0.32525766330E+01  0.17642231013E+02  0.00000000000E+00 0.  1.
</event>
<event>
 8    1  0.2531964E-006  0.9118800E+02  0.7816164E-02  0.1184000E+00
        -11   -1    0    0    0    0  0.00000000000E+00  0.00000000000E+00  0.45593999997E+02  0.45594000000E+02  0.51100000000E-03 0.  1.
         11   -1    0    0    0    0 -0.00000000000E+00 -0.00000000000E+00 -0.45593999997E+02  0.45594000000E+02  0.51100000000E-03 0. -1.
         23    2    1    2    0    0  0.00000000000E+00  0.55511151231E-15  0.00000000000E+00  0.91188000000E+02  0.91188000000E+02 0.  0.
    9900012    2    3    3    0    0 -0.72399122940E+01 -0.76926127836E+00  0.36093890442E+02  0.54367122496E+02  0.40000087354E+02 0.  0.
         12    1    3    3    0    0  0.72399122940E+01  0.76926127836E+00 -0.36093890442E+02  0.36820877504E+02  0.00000000000E+00 0. -1.
         11    1    4    4    0    0 -0.10490775375E+02 -0.37798559771E+01  0.28412567570E+01  0.11507233351E+02  0.51100000000E-03 0. -1.
        -11    1    4    4    0    0  0.87002808222E+01  0.12868762161E+02  0.22060725728E+02  0.26981021958E+02  0.51100000000E-03 0.  1.
        -12    1    4    4    0    0 -0.54494177410E+01 -0.98581674625E+01  0.11191907957E+02  0.15878867187E+02  0.00000000000E+00 0.  1.
</event>
<event>
 8    1  0.2531964E-006  0.9118800E+02  0.7816164E-02  0.1184000E+00
        -11   -1    0    0    0    0  0.00000000000E+00  0.00000000000E+00  0.45593999997E+02  0.45594000000E+02  0.51100000000E-03 0.  1.
         11   -1    0    0    0    0 -0.00000000000E+00 -0.00000000000E+00 -0.45593999997E+02  0.45594000000E+02  0.51100000000E-03 0. -1.
         23    2    1    2    0    0  0.17763568394E-14 -0.35527136788E-14  0.35527136788E-14  0.91188000000E+02  0.91188000000E+02 0.  0.
    9900012    2    3    3    0    0  0.12370133218E+02 -0.19732879602E+02  0.28519603366E+02  0.54367156591E+02  0.40000165080E+02 0.  0.
         12    1    3    3    0    0 -0.12370133218E+02  0.19732879602E+02 -0.28519603366E+02  0.36820843409E+02  0.00000000000E+00 0. -1.
         11    1    4    4    0    0  0.10803546006E+02 -0.55834739862E+01  0.28649457576E+02  0.31123675999E+02  0.51100000000E-03 0. -1.
        -11    1    4    4    0    0  0.43128777089E+01 -0.30935790473E+01  0.77490323307E+01  0.93924782553E+01  0.51100000000E-03 0.  1.
         12    1    4    4    0    0 -0.27462904965E+01 -0.11055826568E+02 -0.78788865409E+01  0.13851002336E+02  0.00000000000E+00 0. -1.
</event>
<event>
 8    1  0.2531964E-006  0.9118800E+02  0.7816164E-02  0.1184000E+00
        -11   -1    0    0    0    0  0.00000000000E+00  0.00000000000E+00  0.45593999997E+02  0.45594000000E+02  0.51100000000E-03 0.  1.
         11   -1    0    0    0    0 -0.00000000000E+00 -0.00000000000E+00 -0.45593999997E+02  0.45594000000E+02  0.51100000000E-03 0. -1.
         23    2    1    2    0    0  0.71054273576E-14 -0.35527136788E-14  0.35527136788E-14  0.91188000000E+02  0.91188000000E+02 0.  0.
    9900012    2    3    3    0    0  0.18177347642E+02 -0.24549226267E+02  0.20559664598E+02  0.54367078149E+02  0.39999986255E+02 0.  0.
         12    1    3    3    0    0 -0.18177347642E+02  0.24549226267E+02 -0.20559664598E+02  0.36820921851E+02  0.00000000000E+00 0. -1.
         11    1    4    4    0    0  0.22247507025E+02 -0.45047629252E+01  0.31186549285E+01  0.22912233996E+02  0.51100000000E-03 0. -1.
        -11    1    4    4    0    0 -0.30262474271E+01  0.45272627837E+00  0.85627975801E+01  0.90931093270E+01  0.51100000000E-03 0.  1.
        -12    1    4    4    0    0 -0.10439119566E+01 -0.20497189621E+02  0.88782120893E+01  0.22361734826E+02  0.00000000000E+00 0.  1.
</event>
<event>
 8    1  0.2531964E-006  0.9118800E+02  0.7816164E-02  0.1184000E+00
        -11   -1    0    0    0    0  0.00000000000E+00  0.00000000000E+00  0.45593999997E+02  0.45594000000E+02  0.51100000000E-03 0.  1.
         11   -1    0    0    0    0 -0.00000000000E+00 -0.00000000000E+00 -0.45593999997E+02  0.45594000000E+02  0.51100000000E-03 0. -1.
         23    2    1    2    0    0 -0.88817841970E-15  0.00000000000E+00  0.00000000000E+00  0.91188000000E+02  0.91188000000E+02 0.  0.
    9900012    2    3    3    0    0 -0.75638025940E+01  0.35968726075E+02  0.21953308855E+01  0.54367084167E+02  0.39999999974E+02 0.  0.
         12    1    3    3    0    0  0.75638025940E+01 -0.35968726075E+02 -0.21953308855E+01  0.36820915833E+02  0.00000000000E+00 0. -1.
         11    1    4    4    0    0 -0.81766728411E+01  0.10262460573E+02 -0.15498010246E+02  0.20306757437E+02  0.51100000000E-03 0. -1.
        -11    1    4    4    0    0 -0.33821471487E+01  0.13420828972E+02  0.15798261691E+02  0.21003395972E+02  0.51100000000E-03 0.  1.
         12    1    4    4    0    0  0.39950173957E+01  0.12285436530E+02  0.18950794404E+01  0.13056930758E+02  0.00000000000E+00 0. -1.
</event>
<event>
 8    1  0.2531964E-006  0.9118800E+02  0.7816164E-02  0.1184000E+00
        -11   -1    0    0    0    0  0.00000000000E+00  0.00000000000E+00  0.45593999997E+02  0.45594000000E+02  0.51100000000E-03 0. -1.
         11   -1    0    0    0    0 -0.00000000000E+00 -0.00000000000E+00 -0.45593999997E+02  0.45594000000E+02  0.51100000000E-03 0.  1.
         23    2    1    2    0    0  0.17763568394E-14  0.00000000000E+00  0.17763568394E-14  0.91188000000E+02  0.91188000000E+02 0.  0.
    9900012    2    3    3    0    0 -0.95393415260E+01 -0.35156877703E+02  0.53642339261E+01  0.54367080781E+02  0.39999992256E+02 0.  0.
        -12    1    3    3    0    0  0.95393415260E+01  0.35156877703E+02 -0.53642339261E+01  0.36820919219E+02  0.00000000000E+00 0.  1.
         11    1    4    4    0    0 -0.19493706518E+02 -0.26022701898E+02  0.48876877590E+01  0.32879706504E+02  0.51100000000E-03 0. -1.
        -11    1    4    4    0    0 -0.33783490233E+01 -0.42493316999E+01  0.41351785013E+01  0.68242042406E+01  0.51100000000E-03 0.  1.
        -12    1    4    4    0    0  0.13332714016E+02 -0.48848441045E+01 -0.36586323343E+01  0.14663170036E+02  0.00000000000E+00 0.  1.
</event>
<event>
 8    1  0.2531964E-006  0.9118800E+02  0.7816164E-02  0.1184000E+00
        -11   -1    0    0    0    0  0.00000000000E+00  0.00000000000E+00  0.45593999997E+02  0.45594000000E+02  0.51100000000E-03 0.  1.
         11   -1    0    0    0    0 -0.00000000000E+00 -0.00000000000E+00 -0.45593999997E+02  0.45594000000E+02  0.51100000000E-03 0. -1.
         23    2    1    2    0    0  0.17763568394E-14  0.35527136788E-14  0.00000000000E+00  0.91188000000E+02  0.91188000000E+02 0.  0.
    9900012    2    3    3    0    0  0.15996786671E+02  0.19803376395E+02 -0.26602751394E+02  0.54367118938E+02  0.40000079243E+02 0.  0.
        -12    1    3    3    0    0 -0.15996786671E+02 -0.19803376395E+02  0.26602751394E+02  0.36820881062E+02  0.00000000000E+00 0.  1.
         11    1    4    4    0    0  0.48776013245E+01  0.10720794839E+02  0.29382547823E+01  0.12139183584E+02  0.51100000000E-03 0. -1.
        -11    1    4    4    0    0  0.86175084550E+00  0.15954325181E+02 -0.92108703599E+01  0.18442430413E+02  0.51100000000E-03 0.  1.
        -12    1    4    4    0    0  0.10257434501E+02 -0.68717436244E+01 -0.20330135817E+02  0.23785504941E+02  0.00000000000E+00 0.  1.
</event>
<event>
 8    1  0.2531964E-006  0.9118800E+02  0.7816164E-02  0.1184000E+00
        -11   -1    0    0    0    0  0.00000000000E+00  0.00000000000E+00  0.45593999997E+02  0.45594000000E+02  0.51100000000E-03 0.  1.
         11   -1    0    0    0    0 -0.00000000000E+00 -0.00000000000E+00 -0.45593999997E+02  0.45594000000E+02  0.51100000000E-03 0. -1.
         23    2    1    2    0    0  0.00000000000E+00 -0.13322676296E-14  0.00000000000E+00  0.91188000000E+02  0.91188000000E+02 0.  0.
    9900012    2    3    3    0    0  0.32751606081E+02  0.34855197948E+01 -0.16460908264E+02  0.54367108512E+02  0.40000055474E+02 0.  0.
         12    1    3    3    0    0 -0.32751606081E+02 -0.34855197948E+01  0.16460908264E+02  0.36820891488E+02  0.00000000000E+00 0. -1.
         11    1    4    4    0    0  0.13795487070E+02  0.14097651099E+02  0.28080441593E+01  0.19923462105E+02  0.51100000000E-03 0. -1.
        -11    1    4    4    0    0  0.55663498751E+00  0.39285501640E+01  0.18707062794E+00  0.39721964429E+01  0.51100000000E-03 0.  1.
        -12    1    4    4    0    0  0.18399484024E+02 -0.14540681468E+02 -0.19456023052E+02  0.30471449963E+02  0.00000000000E+00 0.  1.
</event>
<event>
 8    1  0.2531964E-006  0.9118800E+02  0.7816164E-02  0.1184000E+00
        -11   -1    0    0    0    0  0.00000000000E+00  0.00000000000E+00  0.45593999997E+02  0.45594000000E+02  0.51100000000E-03 0.  1.
         11   -1    0    0    0    0 -0.00000000000E+00 -0.00000000000E+00 -0.45593999997E+02  0.45594000000E+02  0.51100000000E-03 0. -1.
         23    2    1    2    0    0  0.00000000000E+00  0.22204460493E-15  0.00000000000E+00  0.91188000000E+02  0.91188000000E+02 0.  0.
    9900012    2    3    3    0    0 -0.35080788695E+02 -0.18342556401E+01  0.11034318937E+02  0.54367049121E+02  0.39999920082E+02 0.  0.
         12    1    3    3    0    0  0.35080788695E+02  0.18342556401E+01 -0.11034318937E+02  0.36820950879E+02  0.00000000000E+00 0. -1.
         11    1    4    4    0    0 -0.35681859767E+01 -0.12770882721E+01  0.77178069610E+01  0.85981073596E+01  0.51100000000E-03 0. -1.
        -11    1    4    4    0    0 -0.29918582270E+02  0.37040291095E+01  0.14678022804E+02  0.33530370567E+02  0.51100000000E-03 0.  1.
         12    1    4    4    0    0 -0.15940204481E+01 -0.42611964775E+01 -0.11361510827E+02  0.12238571195E+02  0.00000000000E+00 0. -1.
</event>
<event>
 8    1  0.2531964E-006  0.9118800E+02  0.7816164E-02  0.1184000E+00
        -11   -1    0    0    0    0  0.00000000000E+00  0.00000000000E+00  0.45593999997E+02  0.45594000000E+02  0.51100000000E-03 0.  1.
         11   -1    0    0    0    0 -0.00000000000E+00 -0.00000000000E+00 -0.45593999997E+02  0.45594000000E+02  0.51100000000E-03 0. -1.
         23    2    1    2    0    0  0.00000000000E+00  0.00000000000E+00  0.00000000000E+00  0.91188000000E+02  0.91188000000E+02 0.  0.
    9900012    2    3    3    0    0  0.25853439364E+02 -0.14753159463E+02  0.21673101262E+02  0.54367090730E+02  0.40000014938E+02 0.  0.
         12    1    3    3    0    0 -0.25853439364E+02  0.14753159463E+02 -0.21673101262E+02  0.36820909270E+02  0.00000000000E+00 0. -1.
         11    1    4    4    0    0  0.34221931796E+00 -0.15054026040E+02  0.47594672355E+01  0.15792192460E+02  0.51100000000E-03 0. -1.
        -11    1    4    4    0    0  0.51714864926E+01 -0.11996202558E+01  0.17381880715E+02  0.18174518942E+02  0.51100000000E-03 0.  1.
         12    1    4    4    0    0  0.20339733554E+02  0.15004868326E+01 -0.46824668848E+00  0.20400379328E+02  0.00000000000E+00 0. -1.
</event>
<event>
 8    1  0.2531964E-006  0.9118800E+02  0.7816164E-02  0.1184000E+00
        -11   -1    0    0    0    0  0.00000000000E+00  0.00000000000E+00  0.45593999997E+02  0.45594000000E+02  0.51100000000E-03 0. -1.
         11   -1    0    0    0    0 -0.00000000000E+00 -0.00000000000E+00 -0.45593999997E+02  0.45594000000E+02  0.51100000000E-03 0.  1.
         23    2    1    2    0    0  0.17763568394E-14  0.00000000000E+00  0.00000000000E+00  0.91188000000E+02  0.91188000000E+02 0.  0.
    9900012    2    3    3    0    0 -0.10490333981E+02 -0.26170618969E+02 -0.23681898556E+02  0.54367072208E+02  0.39999972713E+02 0.  0.
        -12    1    3    3    0    0  0.10490333981E+02  0.26170618969E+02  0.23681898556E+02  0.36820927792E+02  0.00000000000E+00 0.  1.
         11    1    4    4    0    0 -0.28043160703E-01 -0.88967014626E+01  0.45132646658E+01  0.99760534049E+01  0.51100000000E-03 0. -1.
        -11    1    4    4    0    0 -0.95945333224E+01 -0.14009039194E+01  0.23320477330E+01  0.99727653314E+01  0.51100000000E-03 0.  1.
        -12    1    4    4    0    0 -0.86775749768E+00 -0.15873013587E+02 -0.30527210954E+02  0.34418253472E+02  0.00000000000E+00 0.  1.
</event>
<event>
 8    1  0.2531964E-006  0.9118800E+02  0.7816164E-02  0.1184000E+00
        -11   -1    0    0    0    0  0.00000000000E+00  0.00000000000E+00  0.45593999997E+02  0.45594000000E+02  0.51100000000E-03 0.  1.
         11   -1    0    0    0    0 -0.00000000000E+00 -0.00000000000E+00 -0.45593999997E+02  0.45594000000E+02  0.51100000000E-03 0. -1.
         23    2    1    2    0    0  0.00000000000E+00 -0.15543122345E-14 -0.35527136788E-14  0.91188000000E+02  0.91188000000E+02 0.  0.
    9900012    2    3    3    0    0 -0.20587732708E+02  0.12995988963E+01  0.30499750577E+02  0.54367102664E+02  0.40000042143E+02 0.  0.
         12    1    3    3    0    0  0.20587732708E+02 -0.12995988963E+01 -0.30499750577E+02  0.36820897336E+02  0.00000000000E+00 0. -1.
         11    1    4    4    0    0 -0.10552359612E+02 -0.82385635084E+01  0.78150901109E+01  0.15501672676E+02  0.51100000000E-03 0. -1.
        -11    1    4    4    0    0  0.55076327394E+01  0.55436483803E+01  0.21381209159E+02  0.22764493430E+02  0.51100000000E-03 0.  1.
        -12    1    4    4    0    0 -0.15543005836E+02  0.39945140244E+01  0.13034513070E+01  0.16100936557E+02  0.00000000000E+00 0.  1.
</event>
<event>
 8    1  0.2531964E-006  0.9118800E+02  0.7816164E-02  0.1184000E+00
        -11   -1    0    0    0    0  0.00000000000E+00  0.00000000000E+00  0.45593999997E+02  0.45594000000E+02  0.51100000000E-03 0.  1.
         11   -1    0    0    0    0 -0.00000000000E+00 -0.00000000000E+00 -0.45593999997E+02  0.45594000000E+02  0.51100000000E-03 0. -1.
         23    2    1    2    0    0 -0.71054273576E-14  0.17763568394E-14  0.00000000000E+00  0.91188000000E+02  0.91188000000E+02 0.  0.
    9900012    2    3    3    0    0 -0.33284673807E+02  0.15133677138E+02  0.43453859424E+01  0.54367081039E+02  0.39999992844E+02 0.  0.
         12    1    3    3    0    0  0.33284673807E+02 -0.15133677138E+02 -0.43453859424E+01  0.36820918961E+02  0.00000000000E+00 0. -1.
         11    1    4    4    0    0  0.30386563418E+01 -0.47633100716E+01 -0.50153093018E+01  0.75548582287E+01  0.51100000000E-03 0. -1.
        -11    1    4    4    0    0 -0.15416645975E+01  0.26367904947E+01 -0.46240334168E+01  0.55417577667E+01  0.51100000000E-03 0.  1.
        -12    1    4    4    0    0 -0.34781665551E+02  0.17260196715E+02  0.13984728661E+02  0.41270465043E+02  0.00000000000E+00 0.  1.
</event>
<event>
 8    1  0.2531964E-006  0.9118800E+02  0.7816164E-02  0.1184000E+00
        -11   -1    0    0    0    0  0.00000000000E+00  0.00000000000E+00  0.45593999997E+02  0.45594000000E+02  0.51100000000E-03 0.  1.
         11   -1    0    0    0    0 -0.00000000000E+00 -0.00000000000E+00 -0.45593999997E+02  0.45594000000E+02  0.51100000000E-03 0. -1.
         23    2    1    2    0    0  0.00000000000E+00  0.00000000000E+00 -0.35527136788E-14  0.91188000000E+02  0.91188000000E+02 0.  0.
    9900012    2    3    3    0    0  0.17408207384E+02  0.11188122150E+02  0.30455864715E+02  0.54367089404E+02  0.40000011914E+02 0.  0.
         12    1    3    3    0    0 -0.17408207384E+02 -0.11188122150E+02 -0.30455864715E+02  0.36820910596E+02  0.00000000000E+00 0. -1.
         11    1    4    4    0    0 -0.81709948366E+01  0.75931590542E+01 -0.26338760990E+01  0.11461174661E+02  0.51100000000E-03 0. -1.
        -11    1    4    4    0    0  0.16424125261E+02  0.39638166033E+01  0.14849894199E+02  0.22494067899E+02  0.51100000000E-03 0.  1.
         12    1    4    4    0    0  0.91550769594E+01 -0.36885350736E+00  0.18239846615E+02  0.20411846844E+02  0.00000000000E+00 0. -1.
</event>
<event>
 8    1  0.2531964E-006  0.9118800E+02  0.7816164E-02  0.1184000E+00
        -11   -1    0    0    0    0  0.00000000000E+00  0.00000000000E+00  0.45593999997E+02  0.45594000000E+02  0.51100000000E-03 0.  1.
         11   -1    0    0    0    0 -0.00000000000E+00 -0.00000000000E+00 -0.45593999997E+02  0.45594000000E+02  0.51100000000E-03 0. -1.
         23    2    1    2    0    0  0.13322676296E-14  0.00000000000E+00  0.00000000000E+00  0.91188000000E+02  0.91188000000E+02 0.  0.
    9900012    2    3    3    0    0  0.37825059248E+01 -0.12083059221E+02 -0.34575596880E+02  0.54367087860E+02  0.40000008394E+02 0.  0.
        -12    1    3    3    0    0 -0.37825059248E+01  0.12083059221E+02  0.34575596880E+02  0.36820912140E+02  0.00000000000E+00 0.  1.
         11    1    4    4    0    0 -0.51704409115E+01 -0.13145296056E+01 -0.10663623349E+02  0.11923686951E+02  0.51100000000E-03 0. -1.
        -11    1    4    4    0    0 -0.11901546063E+02 -0.14294015727E+01 -0.10580069735E+02  0.15988366502E+02  0.51100000000E-03 0.  1.
         12    1    4    4    0    0  0.20854492899E+02 -0.93391280424E+01 -0.13331903796E+02  0.26455034407E+02  0.00000000000E+00 0. -1.
</event>
<event>
 8    1  0.2531964E-006  0.9118800E+02  0.7816164E-02  0.1184000E+00
        -11   -1    0    0    0    0  0.00000000000E+00  0.00000000000E+00  0.45593999997E+02  0.45594000000E+02  0.51100000000E-03 0.  1.
         11   -1    0    0    0    0 -0.00000000000E+00 -0.00000000000E+00 -0.45593999997E+02  0.45594000000E+02  0.51100000000E-03 0. -1.
         23    2    1    2    0    0  0.71054273576E-14 -0.17763568394E-14  0.35527136788E-14  0.91188000000E+02  0.91188000000E+02 0.  0.
    9900012    2    3    3    0    0 -0.32970921254E+02  0.69579256934E+01 -0.14842000288E+02  0.54367090847E+02  0.40000015204E+02 0.  0.
        -12    1    3    3    0    0  0.32970921254E+02 -0.69579256934E+01  0.14842000288E+02  0.36820909153E+02  0.00000000000E+00 0.  1.
         11    1    4    4    0    0 -0.19168794101E+01 -0.19319647455E+01 -0.82266916013E+01  0.86651814415E+01  0.51100000000E-03 0. -1.
        -11    1    4    4    0    0  0.59554549776E+01  0.22783394302E+01  0.27710299821E+01  0.69524730832E+01  0.51100000000E-03 0.  1.
         12    1    4    4    0    0 -0.37009496821E+02  0.66115510087E+01 -0.93863386689E+01  0.38749436323E+02  0.00000000000E+00 0. -1.
</event>
<event>
 8    1  0.2531964E-006  0.9118800E+02  0.7816164E-02  0.1184000E+00
        -11   -1    0    0    0    0  0.00000000000E+00  0.00000000000E+00  0.45593999997E+02  0.45594000000E+02  0.51100000000E-03 0.  1.
         11   -1    0    0    0    0 -0.00000000000E+00 -0.00000000000E+00 -0.45593999997E+02  0.45594000000E+02  0.51100000000E-03 0. -1.
         23    2    1    2    0    0  0.88817841970E-15 -0.35527136788E-14  0.35527136788E-14  0.91188000000E+02  0.91188000000E+02 0.  0.
    9900012    2    3    3    0    0 -0.70722587807E+01  0.30145669515E+02  0.19924897821E+02  0.54367084912E+02  0.40000001673E+02 0.  0.
         12    1    3    3    0    0  0.70722587807E+01 -0.30145669515E+02 -0.19924897821E+02  0.36820915088E+02  0.00000000000E+00 0. -1.
         11    1    4    4    0    0 -0.13218609081E+02 -0.44582161729E+01  0.76584586559E+01  0.15914122870E+02  0.51100000000E-03 0. -1.
        -11    1    4    4    0    0  0.32620970682E+01  0.32251265856E+02  0.12454701417E+02  0.34726143094E+02  0.51100000000E-03 0.  1.
        -12    1    4    4    0    0  0.28842532325E+01  0.23526198324E+01 -0.18826225206E+00  0.37268189466E+01  0.00000000000E+00 0.  1.
</event>
<event>
 8    1  0.2531964E-006  0.9118800E+02  0.7816164E-02  0.1184000E+00
        -11   -1    0    0    0    0  0.00000000000E+00  0.00000000000E+00  0.45593999997E+02  0.45594000000E+02  0.51100000000E-03 0.  1.
         11   -1    0    0    0    0 -0.00000000000E+00 -0.00000000000E+00 -0.45593999997E+02  0.45594000000E+02  0.51100000000E-03 0. -1.
         23    2    1    2    0    0  0.00000000000E+00  0.00000000000E+00  0.00000000000E+00  0.91188000000E+02  0.91188000000E+02 0.  0.
    9900012    2    3    3    0    0  0.99045182145E+01  0.26156512303E+02 -0.23948226186E+02  0.54367079935E+02  0.39999990328E+02 0.  0.
        -12    1    3    3    0    0 -0.99045182145E+01 -0.26156512303E+02  0.23948226186E+02  0.36820920065E+02  0.00000000000E+00 0.  1.
         11    1    4    4    0    0 -0.84887377635E+01  0.20347515703E+02 -0.22933915361E+02  0.31812647456E+02  0.51100000000E-03 0. -1.
        -11    1    4    4    0    0  0.13694186018E+02 -0.13155225232E+01  0.97259815551E+00  0.13791565452E+02  0.51100000000E-03 0.  1.
        -12    1    4    4    0    0  0.46990699603E+01  0.71245191234E+01 -0.19869089806E+01  0.87628670268E+01  0.00000000000E+00 0.  1.
</event>
<event>
 8    1  0.2531964E-006  0.9118800E+02  0.7816164E-02  0.1184000E+00
        -11   -1    0    0    0    0  0.00000000000E+00  0.00000000000E+00  0.45593999997E+02  0.45594000000E+02  0.51100000000E-03 0. -1.
         11   -1    0    0    0    0 -0.00000000000E+00 -0.00000000000E+00 -0.45593999997E+02  0.45594000000E+02  0.51100000000E-03 0.  1.
         23    2    1    2    0    0  0.17763568394E-14  0.71054273576E-14  0.17763568394E-14  0.91188000000E+02  0.91188000000E+02 0.  0.
    9900012    2    3    3    0    0 -0.63674900952E+01 -0.36199215151E+02  0.22028085621E+01  0.54367075606E+02  0.39999980459E+02 0.  0.
        -12    1    3    3    0    0  0.63674900952E+01  0.36199215151E+02 -0.22028085621E+01  0.36820924394E+02  0.00000000000E+00 0.  1.
         11    1    4    4    0    0 -0.35426507272E+00 -0.46550882374E+01 -0.88390806687E+01  0.99962341693E+01  0.51100000000E-03 0. -1.
        -11    1    4    4    0    0 -0.94187945021E+01 -0.13531491905E+01  0.10238835140E+02  0.13977784084E+02  0.51100000000E-03 0.  1.
         12    1    4    4    0    0  0.34055694797E+01 -0.30190977723E+02  0.80305409056E+00  0.30393057353E+02  0.00000000000E+00 0. -1.
</event>
<event>
 8    1  0.2531964E-006  0.9118800E+02  0.7816164E-02  0.1184000E+00
        -11   -1    0    0    0    0  0.00000000000E+00  0.00000000000E+00  0.45593999997E+02  0.45594000000E+02  0.51100000000E-03 0. -1.
         11   -1    0    0    0    0 -0.00000000000E+00 -0.00000000000E+00 -0.45593999997E+02  0.45594000000E+02  0.51100000000E-03 0.  1.
         23    2    1    2    0    0 -0.35527136788E-14  0.00000000000E+00 -0.88817841970E-15  0.91188000000E+02  0.91188000000E+02 0.  0.
    9900012    2    3    3    0    0 -0.22018909274E+02  0.28679961551E+02 -0.69572751999E+01  0.54367133111E+02  0.40000111554E+02 0.  0.
         12    1    3    3    0    0  0.22018909274E+02 -0.28679961551E+02  0.69572751999E+01  0.36820866889E+02  0.00000000000E+00 0. -1.
         11    1    4    4    0    0  0.29640965917E+01 -0.16981051605E+01  0.38093756559E+01  0.51167150487E+01  0.51100000000E-03 0. -1.
        -11    1    4    4    0    0 -0.87201343174E+01  0.26946069177E+02  0.18514186006E+01  0.28382373715E+02  0.51100000000E-03 0.  1.
         12    1    4    4    0    0 -0.16262871549E+02  0.34319975348E+01 -0.12618069456E+02  0.20868044348E+02  0.00000000000E+00 0. -1.
</event>
<event>
 8    1  0.2531964E-006  0.9118800E+02  0.7816164E-02  0.1184000E+00
        -11   -1    0    0    0    0  0.00000000000E+00  0.00000000000E+00  0.45593999997E+02  0.45594000000E+02  0.51100000000E-03 0.  1.
         11   -1    0    0    0    0 -0.00000000000E+00 -0.00000000000E+00 -0.45593999997E+02  0.45594000000E+02  0.51100000000E-03 0. -1.
         23    2    1    2    0    0  0.00000000000E+00  0.00000000000E+00  0.17763568394E-14  0.91188000000E+02  0.91188000000E+02 0.  0.
    9900012    2    3    3    0    0 -0.21369988350E+02  0.27717122216E+02 -0.11439558027E+02  0.54367098953E+02  0.40000033684E+02 0.  0.
        -12    1    3    3    0    0  0.21369988350E+02 -0.27717122216E+02  0.11439558027E+02  0.36820901047E+02  0.00000000000E+00 0.  1.
         11    1    4    4    0    0 -0.18472832428E+02  0.99368836233E+01 -0.65349984095E+01  0.21970284443E+02  0.51100000000E-03 0. -1.
        -11    1    4    4    0    0  0.60225080233E+01  0.89447720485E+01 -0.13428143863E+02  0.17221922011E+02  0.51100000000E-03 0.  1.
        -12    1    4    4    0    0 -0.89196639457E+01  0.88354665443E+01  0.85235842452E+01  0.15174892499E+02  0.00000000000E+00 0.  1.
</event>
<event>
 8    1  0.2531964E-006  0.9118800E+02  0.7816164E-02  0.1184000E+00
        -11   -1    0    0    0    0  0.00000000000E+00  0.00000000000E+00  0.45593999997E+02  0.45594000000E+02  0.51100000000E-03 0.  1.
         11   -1    0    0    0    0 -0.00000000000E+00 -0.00000000000E+00 -0.45593999997E+02  0.45594000000E+02  0.51100000000E-03 0. -1.
         23    2    1    2    0    0  0.35527136788E-14  0.00000000000E+00  0.00000000000E+00  0.91188000000E+02  0.91188000000E+02 0.  0.
    9900012    2    3    3    0    0  0.27185872177E+02 -0.22149455798E+02  0.11229903005E+02  0.54367071717E+02  0.39999971593E+02 0.  0.
         12    1    3    3    0    0 -0.27185872177E+02  0.22149455798E+02 -0.11229903005E+02  0.36820928283E+02  0.00000000000E+00 0. -1.
         11    1    4    4    0    0  0.28586182154E+01 -0.44505555840E+00 -0.72082645740E+00  0.29815035794E+01  0.51100000000E-03 0. -1.
        -11    1    4    4    0    0 -0.34307931549E+01 -0.21148402500E+02  0.72142077082E+00  0.21437017473E+02  0.51100000000E-03 0.  1.
        -12    1    4    4    0    0  0.27758047116E+02 -0.55599773958E+00  0.11229308692E+02  0.29948550664E+02  0.00000000000E+00 0.  1.
</event>
<event>
 8    1  0.2531964E-006  0.9118800E+02  0.7816164E-02  0.1184000E+00
        -11   -1    0    0    0    0  0.00000000000E+00  0.00000000000E+00  0.45593999997E+02  0.45594000000E+02  0.51100000000E-03 0.  1.
         11   -1    0    0    0    0 -0.00000000000E+00 -0.00000000000E+00 -0.45593999997E+02  0.45594000000E+02  0.51100000000E-03 0. -1.
         23    2    1    2    0    0 -0.71054273576E-14  0.00000000000E+00  0.00000000000E+00  0.91188000000E+02  0.91188000000E+02 0.  0.
    9900012    2    3    3    0    0  0.30564028021E+02 -0.60520643220E+01 -0.19621237066E+02  0.54367078835E+02  0.39999987820E+02 0.  0.
        -12    1    3    3    0    0 -0.30564028021E+02  0.60520643220E+01  0.19621237066E+02  0.36820921165E+02  0.00000000000E+00 0.  1.
         11    1    4    4    0    0  0.23705888075E+02 -0.56660630116E+01 -0.13179593251E+02  0.27708754537E+02  0.51100000000E-03 0. -1.
        -11    1    4    4    0    0  0.25838623425E+01 -0.10571923851E+02 -0.10273521546E+02  0.14966200711E+02  0.51100000000E-03 0.  1.
        -12    1    4    4    0    0  0.42742776040E+01  0.10185922540E+02  0.38318777308E+01  0.11692123587E+02  0.00000000000E+00 0.  1.
</event>
<event>
 8    1  0.2531964E-006  0.9118800E+02  0.7816164E-02  0.1184000E+00
        -11   -1    0    0    0    0  0.00000000000E+00  0.00000000000E+00  0.45593999997E+02  0.45594000000E+02  0.51100000000E-03 0.  1.
         11   -1    0    0    0    0 -0.00000000000E+00 -0.00000000000E+00 -0.45593999997E+02  0.45594000000E+02  0.51100000000E-03 0. -1.
         23    2    1    2    0    0  0.71054273576E-14  0.00000000000E+00 -0.16653345369E-14  0.91188000000E+02  0.91188000000E+02 0.  0.
    9900012    2    3    3    0    0  0.32229566678E+02 -0.17778750559E+02  0.97480852577E+00  0.54367093013E+02  0.40000020141E+02 0.  0.
        -12    1    3    3    0    0 -0.32229566678E+02  0.17778750559E+02 -0.97480852577E+00  0.36820906987E+02  0.00000000000E+00 0.  1.
         11    1    4    4    0    0  0.97359651786E+01 -0.13662415020E+02 -0.66307703839E+01  0.18039338078E+02  0.51100000000E-03 0. -1.
        -11    1    4    4    0    0  0.13207627080E+02 -0.13823027928E+02  0.11538680551E+02  0.22330666432E+02  0.51100000000E-03 0.  1.
         12    1    4    4    0    0  0.92859744190E+01  0.97066923882E+01 -0.39331016418E+01  0.13997088503E+02  0.00000000000E+00 0. -1.
</event>
<event>
 8    1  0.2531964E-006  0.9118800E+02  0.7816164E-02  0.1184000E+00
        -11   -1    0    0    0    0  0.00000000000E+00  0.00000000000E+00  0.45593999997E+02  0.45594000000E+02  0.51100000000E-03 0.  1.
         11   -1    0    0    0    0 -0.00000000000E+00 -0.00000000000E+00 -0.45593999997E+02  0.45594000000E+02  0.51100000000E-03 0. -1.
         23    2    1    2    0    0  0.35527136788E-14  0.88817841970E-15 -0.35527136788E-14  0.91188000000E+02  0.91188000000E+02 0.  0.
    9900012    2    3    3    0    0 -0.30734703468E+02 -0.40925668855E+01  0.19859762448E+02  0.54367064848E+02  0.39999955933E+02 0.  0.
         12    1    3    3    0    0  0.30734703468E+02  0.40925668855E+01 -0.19859762448E+02  0.36820935152E+02  0.00000000000E+00 0. -1.
         11    1    4    4    0    0 -0.15571868104E+02  0.75008670379E+01  0.13879599749E+02  0.22167304122E+02  0.51100000000E-03 0. -1.
        -11    1    4    4    0    0 -0.15286749606E+02  0.83222813712E+00  0.10943887384E+02  0.18818766924E+02  0.51100000000E-03 0.  1.
         12    1    4    4    0    0  0.12391424153E+00 -0.12425662061E+02 -0.49637246855E+01  0.13380993802E+02  0.00000000000E+00 0. -1.
</event>
<event>
 8    1  0.2531964E-006  0.9118800E+02  0.7816164E-02  0.1184000E+00
        -11   -1    0    0    0    0  0.00000000000E+00  0.00000000000E+00  0.45593999997E+02  0.45594000000E+02  0.51100000000E-03 0.  1.
         11   -1    0    0    0    0 -0.00000000000E+00 -0.00000000000E+00 -0.45593999997E+02  0.45594000000E+02  0.51100000000E-03 0. -1.
         23    2    1    2    0    0  0.00000000000E+00  0.00000000000E+00 -0.35527136788E-14  0.91188000000E+02  0.91188000000E+02 0.  0.
    9900012    2    3    3    0    0 -0.20741763361E+02 -0.13901364593E+02  0.27061264767E+02  0.54367072043E+02  0.39999972335E+02 0.  0.
         12    1    3    3    0    0  0.20741763361E+02  0.13901364593E+02 -0.27061264767E+02  0.36820927957E+02  0.00000000000E+00 0. -1.
         11    1    4    4    0    0  0.36328141096E+01  0.28949589747E+01  0.78279282132E+01  0.91024494612E+01  0.51100000000E-03 0. -1.
        -11    1    4    4    0    0 -0.56541080397E+01  0.77955836878E+01  0.18547816937E+01  0.98071544370E+01  0.51100000000E-03 0.  1.
        -12    1    4    4    0    0 -0.18720469431E+02 -0.24591907256E+02  0.17378554860E+02  0.35457468144E+02  0.00000000000E+00 0.  1.
</event>
<event>
 8    1  0.2531964E-006  0.9118800E+02  0.7816164E-02  0.1184000E+00
        -11   -1    0    0    0    0  0.00000000000E+00  0.00000000000E+00  0.45593999997E+02  0.45594000000E+02  0.51100000000E-03 0.  1.
         11   -1    0    0    0    0 -0.00000000000E+00 -0.00000000000E+00 -0.45593999997E+02  0.45594000000E+02  0.51100000000E-03 0. -1.
         23    2    1    2    0    0  0.44408920985E-15  0.88817841970E-15  0.00000000000E+00  0.91188000000E+02  0.91188000000E+02 0.  0.
    9900012    2    3    3    0    0 -0.13076157817E+01  0.62207652444E+01 -0.36268063884E+02  0.54367078812E+02  0.39999987767E+02 0.  0.
        -12    1    3    3    0    0  0.13076157817E+01 -0.62207652444E+01  0.36268063884E+02  0.36820921188E+02  0.00000000000E+00 0.  1.
         11    1    4    4    0    0  0.79144382899E+01  0.15590335117E+01 -0.32198357896E+01  0.86854050976E+01  0.51100000000E-03 0. -1.
        -11    1    4    4    0    0 -0.50261103923E+01 -0.10680626180E+02 -0.38218284157E+01  0.12407414476E+02  0.51100000000E-03 0.  1.
        -12    1    4    4    0    0 -0.41959436793E+01  0.15342357913E+02 -0.29226399679E+02  0.33274259238E+02  0.00000000000E+00 0.  1.
</event>
<event>
 8    1  0.2531964E-006  0.9118800E+02  0.7816164E-02  0.1184000E+00
        -11   -1    0    0    0    0  0.00000000000E+00  0.00000000000E+00  0.45593999997E+02  0.45594000000E+02  0.51100000000E-03 0. -1.
         11   -1    0    0    0    0 -0.00000000000E+00 -0.00000000000E+00 -0.45593999997E+02  0.45594000000E+02  0.51100000000E-03 0.  1.
         23    2    1    2    0    0  0.00000000000E+00  0.00000000000E+00  0.17763568394E-14  0.91188000000E+02  0.91188000000E+02 0.  0.
    9900012    2    3    3    0    0  0.34946792678E+02 -0.38996742781E+01 -0.10922241565E+02  0.54367066568E+02  0.39999959856E+02 0.  0.
        -12    1    3    3    0    0 -0.34946792678E+02  0.38996742781E+01  0.10922241565E+02  0.36820933432E+02  0.00000000000E+00 0.  1.
         11    1    4    4    0    0  0.25708773763E+01 -0.70144889914E+01  0.50894619478E+01  0.90396398974E+01  0.51100000000E-03 0. -1.
        -11    1    4    4    0    0  0.20517213401E+02 -0.19404820396E+01  0.45063704526E+01  0.21095707886E+02  0.51100000000E-03 0.  1.
        -12    1    4    4    0    0  0.11858701901E+02  0.50552967530E+01 -0.20518073965E+02  0.24231718785E+02  0.00000000000E+00 0.  1.
</event>
<event>
 8    1  0.2531964E-006  0.9118800E+02  0.7816164E-02  0.1184000E+00
        -11   -1    0    0    0    0  0.00000000000E+00  0.00000000000E+00  0.45593999997E+02  0.45594000000E+02  0.51100000000E-03 0.  1.
         11   -1    0    0    0    0 -0.00000000000E+00 -0.00000000000E+00 -0.45593999997E+02  0.45594000000E+02  0.51100000000E-03 0. -1.
         23    2    1    2    0    0  0.00000000000E+00 -0.71054273576E-14  0.17763568394E-14  0.91188000000E+02  0.91188000000E+02 0.  0.
    9900012    2    3    3    0    0  0.82806010524E+01 -0.32525091031E+02  0.15143633093E+02  0.54367088501E+02  0.40000009855E+02 0.  0.
         12    1    3    3    0    0 -0.82806010524E+01  0.32525091031E+02 -0.15143633093E+02  0.36820911499E+02  0.00000000000E+00 0. -1.
         11    1    4    4    0    0  0.15693619224E+02 -0.29464631979E+02  0.13800083066E+02  0.36123351380E+02  0.51100000000E-03 0. -1.
        -11    1    4    4    0    0  0.13698048773E+01  0.43980742679E+01  0.43497026278E+01  0.63355612127E+01  0.51100000000E-03 0.  1.
         12    1    4    4    0    0 -0.87828230490E+01 -0.74585333198E+01 -0.30061526007E+01  0.11908175908E+02  0.00000000000E+00 0. -1.
</event>
<event>
 8    1  0.2531964E-006  0.9118800E+02  0.7816164E-02  0.1184000E+00
        -11   -1    0    0    0    0  0.00000000000E+00  0.00000000000E+00  0.45593999997E+02  0.45594000000E+02  0.51100000000E-03 0.  1.
         11   -1    0    0    0    0 -0.00000000000E+00 -0.00000000000E+00 -0.45593999997E+02  0.45594000000E+02  0.51100000000E-03 0. -1.
         23    2    1    2    0    0  0.00000000000E+00  0.00000000000E+00  0.71054273576E-14  0.91188000000E+02  0.91188000000E+02 0.  0.
    9900012    2    3    3    0    0  0.27908590114E+01 -0.81613991732E+01  0.35796418093E+02  0.54367070099E+02  0.39999967905E+02 0.  0.
         12    1    3    3    0    0 -0.27908590114E+01  0.81613991732E+01 -0.35796418093E+02  0.36820929901E+02  0.00000000000E+00 0. -1.
         11    1    4    4    0    0 -0.84415005057E+01 -0.64767965751E+01 -0.37657155925E+01  0.11286648699E+02  0.51100000000E-03 0. -1.
        -11    1    4    4    0    0 -0.52010828777E+00  0.17575223239E+01  0.19429744763E+02  0.19516003156E+02  0.51100000000E-03 0.  1.
        -12    1    4    4    0    0  0.11752467805E+02 -0.34421249221E+01  0.20132388922E+02  0.23564418244E+02  0.00000000000E+00 0.  1.
</event>
<event>
 8    1  0.2531964E-006  0.9118800E+02  0.7816164E-02  0.1184000E+00
        -11   -1    0    0    0    0  0.00000000000E+00  0.00000000000E+00  0.45593999997E+02  0.45594000000E+02  0.51100000000E-03 0. -1.
         11   -1    0    0    0    0 -0.00000000000E+00 -0.00000000000E+00 -0.45593999997E+02  0.45594000000E+02  0.51100000000E-03 0.  1.
         23    2    1    2    0    0  0.00000000000E+00  0.00000000000E+00  0.00000000000E+00  0.91188000000E+02  0.91188000000E+02 0.  0.
    9900012    2    3    3    0    0  0.19020884758E+02  0.19887668995E+02  0.24463539984E+02  0.54367106154E+02  0.40000050100E+02 0.  0.
        -12    1    3    3    0    0 -0.19020884758E+02 -0.19887668995E+02 -0.24463539984E+02  0.36820893846E+02  0.00000000000E+00 0.  1.
         11    1    4    4    0    0  0.51636618078E+01 -0.87965042294E+00 -0.11036312784E+01  0.53530543049E+01  0.51100000000E-03 0. -1.
        -11    1    4    4    0    0  0.13269868252E+02  0.18749079056E+02 -0.38869662536E+00  0.22973211665E+02  0.51100000000E-03 0.  1.
         12    1    4    4    0    0  0.58735469891E+00  0.20182403614E+01  0.25955867888E+02  0.26040840184E+02  0.00000000000E+00 0. -1.
</event>
<event>
 8    1  0.2531964E-006  0.9118800E+02  0.7816164E-02  0.1184000E+00
        -11   -1    0    0    0    0  0.00000000000E+00  0.00000000000E+00  0.45593999997E+02  0.45594000000E+02  0.51100000000E-03 0. -1.
         11   -1    0    0    0    0 -0.00000000000E+00 -0.00000000000E+00 -0.45593999997E+02  0.45594000000E+02  0.51100000000E-03 0.  1.
         23    2    1    2    0    0 -0.35527136788E-14  0.00000000000E+00  0.35527136788E-14  0.91188000000E+02  0.91188000000E+02 0.  0.
    9900012    2    3    3    0    0 -0.27362814824E+02 -0.20137763631E+02  0.14196026271E+02  0.54367077672E+02  0.39999985170E+02 0.  0.
        -12    1    3    3    0    0  0.27362814824E+02  0.20137763631E+02 -0.14196026271E+02  0.36820922328E+02  0.00000000000E+00 0.  1.
         11    1    4    4    0    0 -0.41084319169E+01  0.64817752972E+01  0.11238118499E+02  0.13608377253E+02  0.51100000000E-03 0. -1.
        -11    1    4    4    0    0 -0.62187400591E+01  0.24986730075E+01 -0.10582816585E+01  0.67849874761E+01  0.51100000000E-03 0.  1.
        -12    1    4    4    0    0 -0.17035642848E+02 -0.29118211936E+02  0.40161894312E+01  0.33973712943E+02  0.00000000000E+00 0.  1.
</event>
<event>
 8    1  0.2531964E-006  0.9118800E+02  0.7816164E-02  0.1184000E+00
        -11   -1    0    0    0    0  0.00000000000E+00  0.00000000000E+00  0.45593999997E+02  0.45594000000E+02  0.51100000000E-03 0.  1.
         11   -1    0    0    0    0 -0.00000000000E+00 -0.00000000000E+00 -0.45593999997E+02  0.45594000000E+02  0.51100000000E-03 0. -1.
         23    2    1    2    0    0  0.35527136788E-14  0.35527136788E-14  0.00000000000E+00  0.91188000000E+02  0.91188000000E+02 0.  0.
    9900012    2    3    3    0    0  0.17814812533E+02 -0.31612709093E+02  0.62489193523E+01  0.54367083188E+02  0.39999997744E+02 0.  0.
        -12    1    3    3    0    0 -0.17814812533E+02  0.31612709093E+02 -0.62489193523E+01  0.36820916812E+02  0.00000000000E+00 0.  1.
         11    1    4    4    0    0  0.85410827181E+01 -0.26484446501E+01  0.81780816861E+01  0.12117977281E+02  0.51100000000E-03 0. -1.
        -11    1    4    4    0    0  0.19320609513E+02 -0.14099711119E+02 -0.37693926863E+01  0.24213552549E+02  0.51100000000E-03 0.  1.
         12    1    4    4    0    0 -0.10046879697E+02 -0.14864553324E+02  0.18402303525E+01  0.18035553358E+02  0.00000000000E+00 0. -1.
</event>
<event>
 8    1  0.2531964E-006  0.9118800E+02  0.7816164E-02  0.1184000E+00
        -11   -1    0    0    0    0  0.00000000000E+00  0.00000000000E+00  0.45593999997E+02  0.45594000000E+02  0.51100000000E-03 0. -1.
         11   -1    0    0    0    0 -0.00000000000E+00 -0.00000000000E+00 -0.45593999997E+02  0.45594000000E+02  0.51100000000E-03 0.  1.
         23    2    1    2    0    0 -0.35527136788E-14  0.35527136788E-14 -0.17763568394E-14  0.91188000000E+02  0.91188000000E+02 0.  0.
    9900012    2    3    3    0    0  0.27664867818E+02 -0.23715635363E+02  0.52918263391E+01  0.54367086133E+02  0.40000004457E+02 0.  0.
        -12    1    3    3    0    0 -0.27664867818E+02  0.23715635363E+02 -0.52918263391E+01  0.36820913867E+02  0.00000000000E+00 0.  1.
         11    1    4    4    0    0  0.20437600334E+02 -0.15665260265E+02  0.68186755098E+01  0.26638134743E+02  0.51100000000E-03 0. -1.
        -11    1    4    4    0    0  0.14327346800E+02 -0.30344055073E+01 -0.81866094445E+01  0.16777993252E+02  0.51100000000E-03 0.  1.
        -12    1    4    4    0    0 -0.71000793167E+01 -0.50159695903E+01  0.66597602737E+01  0.10950958138E+02  0.00000000000E+00 0.  1.
</event>
<event>
 8    1  0.2531964E-006  0.9118800E+02  0.7816164E-02  0.1184000E+00
        -11   -1    0    0    0    0  0.00000000000E+00  0.00000000000E+00  0.45593999997E+02  0.45594000000E+02  0.51100000000E-03 0.  1.
         11   -1    0    0    0    0 -0.00000000000E+00 -0.00000000000E+00 -0.45593999997E+02  0.45594000000E+02  0.51100000000E-03 0. -1.
         23    2    1    2    0    0  0.00000000000E+00  0.00000000000E+00  0.35527136788E-14  0.91188000000E+02  0.91188000000E+02 0.  0.
    9900012    2    3    3    0    0 -0.69958426372E+01 -0.18279495287E+02  0.31188119876E+02  0.54367074108E+02  0.39999977043E+02 0.  0.
         12    1    3    3    0    0  0.69958426372E+01  0.18279495287E+02 -0.31188119876E+02  0.36820925892E+02  0.00000000000E+00 0. -1.
         11    1    4    4    0    0 -0.11055505611E+02 -0.41468918555E+01 -0.26872158301E+01  0.12109584863E+02  0.51100000000E-03 0. -1.
        -11    1    4    4    0    0  0.13663275970E+01 -0.18672171420E+02  0.19919756209E+02  0.27337035763E+02  0.51100000000E-03 0.  1.
         12    1    4    4    0    0  0.26933353766E+01  0.45395679886E+01  0.13955579498E+02  0.14920453482E+02  0.00000000000E+00 0. -1.
</event>
<event>
 8    1  0.2531964E-006  0.9118800E+02  0.7816164E-02  0.1184000E+00
        -11   -1    0    0    0    0  0.00000000000E+00  0.00000000000E+00  0.45593999997E+02  0.45594000000E+02  0.51100000000E-03 0.  1.
         11   -1    0    0    0    0 -0.00000000000E+00 -0.00000000000E+00 -0.45593999997E+02  0.45594000000E+02  0.51100000000E-03 0. -1.
         23    2    1    2    0    0  0.00000000000E+00 -0.17763568394E-14 -0.35527136788E-14  0.91188000000E+02  0.91188000000E+02 0.  0.
    9900012    2    3    3    0    0  0.21579174098E+02  0.15524884891E+02  0.25477384864E+02  0.54367082777E+02  0.39999996806E+02 0.  0.
         12    1    3    3    0    0 -0.21579174098E+02 -0.15524884891E+02 -0.25477384864E+02  0.36820917223E+02  0.00000000000E+00 0. -1.
         11    1    4    4    0    0 -0.43110231710E+01 -0.19326817853E+01 -0.51443291045E+01  0.69845759972E+01  0.51100000000E-03 0. -1.
        -11    1    4    4    0    0  0.28401301403E+01  0.11587047657E+02  0.13841720161E+02  0.18273456977E+02  0.51100000000E-03 0.  1.
        -12    1    4    4    0    0  0.23050067129E+02  0.58705190198E+01  0.16779993808E+02  0.29109049802E+02  0.00000000000E+00 0.  1.
</event>
<event>
 8    1  0.2531964E-006  0.9118800E+02  0.7816164E-02  0.1184000E+00
        -11   -1    0    0    0    0  0.00000000000E+00  0.00000000000E+00  0.45593999997E+02  0.45594000000E+02  0.51100000000E-03 0.  1.
         11   -1    0    0    0    0 -0.00000000000E+00 -0.00000000000E+00 -0.45593999997E+02  0.45594000000E+02  0.51100000000E-03 0. -1.
         23    2    1    2    0    0  0.17763568394E-14  0.00000000000E+00  0.00000000000E+00  0.91188000000E+02  0.91188000000E+02 0.  0.
    9900012    2    3    3    0    0 -0.66857860504E+01  0.92061093949E+01  0.35018962834E+02  0.54367082802E+02  0.39999996864E+02 0.  0.
         12    1    3    3    0    0  0.66857860504E+01 -0.92061093949E+01 -0.35018962834E+02  0.36820917198E+02  0.00000000000E+00 0. -1.
         11    1    4    4    0    0  0.57727461423E+01  0.10878168643E+02  0.44176390278E+00  0.12322917944E+02  0.51100000000E-03 0. -1.
        -11    1    4    4    0    0  0.43931563085E+01 -0.50823495391E+01  0.10209243305E+02  0.12221241685E+02  0.51100000000E-03 0.  1.
         12    1    4    4    0    0 -0.16851688501E+02  0.34102902909E+01  0.24367955626E+02  0.29822923173E+02  0.00000000000E+00 0. -1.
</event>
<event>
 8    1  0.2531964E-006  0.9118800E+02  0.7816164E-02  0.1184000E+00
        -11   -1    0    0    0    0  0.00000000000E+00  0.00000000000E+00  0.45593999997E+02  0.45594000000E+02  0.51100000000E-03 0.  1.
         11   -1    0    0    0    0 -0.00000000000E+00 -0.00000000000E+00 -0.45593999997E+02  0.45594000000E+02  0.51100000000E-03 0. -1.
         23    2    1    2    0    0  0.35527136788E-14  0.35527136788E-14  0.00000000000E+00  0.91188000000E+02  0.91188000000E+02 0.  0.
    9900012    2    3    3    0    0 -0.24560268935E+02  0.26870437696E+02 -0.55284568955E+01  0.54366931740E+02  0.39999652487E+02 0.  0.
        -12    1    3    3    0    0  0.24560268935E+02 -0.26870437696E+02  0.55284568955E+01  0.36821068260E+02  0.00000000000E+00 0.  1.
         11    1    4    4    0    0 -0.23272033103E+02  0.26475899645E+02  0.16643449690E+01  0.35289245263E+02  0.51100000000E-03 0.  1.
        -11    1    4    4    0    0  0.43373729858E+01 -0.70468654568E+01 -0.25573164351E+01  0.86608882220E+01  0.51100000000E-03 0. -1.
        -12    1    4    4    0    0 -0.56256088182E+01  0.74414035073E+01 -0.46354854293E+01  0.10416798256E+02  0.00000000000E+00 0.  1.
</event>
<event>
 8    1  0.2531964E-006  0.9118800E+02  0.7816164E-02  0.1184000E+00
        -11   -1    0    0    0    0  0.00000000000E+00  0.00000000000E+00  0.45593999997E+02  0.45594000000E+02  0.51100000000E-03 0.  1.
         11   -1    0    0    0    0 -0.00000000000E+00 -0.00000000000E+00 -0.45593999997E+02  0.45594000000E+02  0.51100000000E-03 0. -1.
         23    2    1    2    0    0  0.88817841970E-15  0.00000000000E+00 -0.35527136788E-14  0.91188000000E+02  0.91188000000E+02 0.  0.
    9900012    2    3    3    0    0  0.63946178692E+01  0.24142035000E+02  0.27056431256E+02  0.54367089311E+02  0.40000011703E+02 0.  0.
         12    1    3    3    0    0 -0.63946178692E+01 -0.24142035000E+02 -0.27056431256E+02  0.36820910689E+02  0.00000000000E+00 0. -1.
         11    1    4    4    0    0  0.80447789894E+01  0.32578485655E+01  0.19212343702E+01  0.88894987502E+01  0.51100000000E-03 0. -1.
        -11    1    4    4    0    0 -0.10824263872E+02  0.83682384437E+01 -0.23807385741E+01  0.13887405065E+02  0.51100000000E-03 0.  1.
        -12    1    4    4    0    0  0.91741027521E+01  0.12515947991E+02  0.27515935460E+02  0.31590185496E+02  0.00000000000E+00 0.  1.
</event>
<event>
 8    1  0.2531964E-006  0.9118800E+02  0.7816164E-02  0.1184000E+00
        -11   -1    0    0    0    0  0.00000000000E+00  0.00000000000E+00  0.45593999997E+02  0.45594000000E+02  0.51100000000E-03 0. -1.
         11   -1    0    0    0    0 -0.00000000000E+00 -0.00000000000E+00 -0.45593999997E+02  0.45594000000E+02  0.51100000000E-03 0.  1.
         23    2    1    2    0    0 -0.35527136788E-14  0.35527136788E-14  0.00000000000E+00  0.91188000000E+02  0.91188000000E+02 0.  0.
    9900012    2    3    3    0    0  0.23969657539E+02  0.24996678396E+02 -0.12506073843E+02  0.54367078008E+02  0.39999985935E+02 0.  0.
         12    1    3    3    0    0 -0.23969657539E+02 -0.24996678396E+02  0.12506073843E+02  0.36820921992E+02  0.00000000000E+00 0. -1.
         11    1    4    4    0    0  0.38426771527E+01 -0.25888110398E+01 -0.79118810254E+01  0.91687497469E+01  0.51100000000E-03 0. -1.
        -11    1    4    4    0    0 -0.31650017218E+01 -0.15082612211E+01 -0.70240219959E+01  0.78504122866E+01  0.51100000000E-03 0.  1.
        -12    1    4    4    0    0  0.23291982108E+02  0.29093750657E+02  0.24298291783E+01  0.37347915975E+02  0.00000000000E+00 0.  1.
</event>
<event>
 8    1  0.2531964E-006  0.9118800E+02  0.7816164E-02  0.1184000E+00
        -11   -1    0    0    0    0  0.00000000000E+00  0.00000000000E+00  0.45593999997E+02  0.45594000000E+02  0.51100000000E-03 0.  1.
         11   -1    0    0    0    0 -0.00000000000E+00 -0.00000000000E+00 -0.45593999997E+02  0.45594000000E+02  0.51100000000E-03 0. -1.
         23    2    1    2    0    0  0.00000000000E+00  0.17763568394E-14  0.00000000000E+00  0.91188000000E+02  0.91188000000E+02 0.  0.
    9900012    2    3    3    0    0 -0.27187866079E+02 -0.77957522781E+01  0.23575805511E+02  0.54367184950E+02  0.40000229729E+02 0.  0.
         12    1    3    3    0    0  0.27187866079E+02  0.77957522781E+01 -0.23575805511E+02  0.36820815050E+02  0.00000000000E+00 0. -1.
         11    1    4    4    0    0 -0.14809137291E+01 -0.13164619012E+02  0.11287892603E+02  0.17404505707E+02  0.51100000000E-03 0.  1.
        -11    1    4    4    0    0 -0.11084611981E+02  0.13275395283E+02  0.10527172502E+02  0.20246631914E+02  0.51100000000E-03 0. -1.
         12    1    4    4    0    0 -0.14622340368E+02 -0.79065285493E+01  0.17607404059E+01  0.16716047330E+02  0.00000000000E+00 0. -1.
</event>
<event>
 8    1  0.2531964E-006  0.9118800E+02  0.7816164E-02  0.1184000E+00
        -11   -1    0    0    0    0  0.00000000000E+00  0.00000000000E+00  0.45593999997E+02  0.45594000000E+02  0.51100000000E-03 0. -1.
         11   -1    0    0    0    0 -0.00000000000E+00 -0.00000000000E+00 -0.45593999997E+02  0.45594000000E+02  0.51100000000E-03 0.  1.
         23    2    1    2    0    0  0.00000000000E+00 -0.17763568394E-14  0.00000000000E+00  0.91188000000E+02  0.91188000000E+02 0.  0.
    9900012    2    3    3    0    0  0.57466449624E+01  0.95978733747E+01  0.35080443390E+02  0.54367073747E+02  0.39999976222E+02 0.  0.
        -12    1    3    3    0    0 -0.57466449624E+01 -0.95978733747E+01 -0.35080443390E+02  0.36820926253E+02  0.00000000000E+00 0.  1.
         11    1    4    4    0    0  0.34044631014E+01  0.23874838572E+02  0.20869685228E+02  0.31892664480E+02  0.51100000000E-03 0. -1.
        -11    1    4    4    0    0  0.30365168247E+01 -0.53344709817E+01  0.11614626249E+02  0.13136839736E+02  0.51100000000E-03 0.  1.
         12    1    4    4    0    0 -0.69433496379E+00 -0.89424942158E+01  0.25961319131E+01  0.93375695313E+01  0.00000000000E+00 0. -1.
</event>
<event>
 8    1  0.2531964E-006  0.9118800E+02  0.7816164E-02  0.1184000E+00
        -11   -1    0    0    0    0  0.00000000000E+00  0.00000000000E+00  0.45593999997E+02  0.45594000000E+02  0.51100000000E-03 0.  1.
         11   -1    0    0    0    0 -0.00000000000E+00 -0.00000000000E+00 -0.45593999997E+02  0.45594000000E+02  0.51100000000E-03 0. -1.
         23    2    1    2    0    0  0.00000000000E+00 -0.35527136788E-14  0.00000000000E+00  0.91188000000E+02  0.91188000000E+02 0.  0.
    9900012    2    3    3    0    0  0.20091545021E+02 -0.26055164343E+02  0.16529918787E+02  0.54367082230E+02  0.39999995560E+02 0.  0.
         12    1    3    3    0    0 -0.20091545021E+02  0.26055164343E+02 -0.16529918787E+02  0.36820917770E+02  0.00000000000E+00 0. -1.
         11    1    4    4    0    0 -0.58010031311E+01 -0.68186723351E+00  0.85027020058E+01  0.10315644522E+02  0.51100000000E-03 0. -1.
        -11    1    4    4    0    0  0.90639206896E+01 -0.81930619302E+01  0.14679736516E+02  0.19099099102E+02  0.51100000000E-03 0.  1.
        -12    1    4    4    0    0  0.16828627463E+02 -0.17180235180E+02 -0.66525197345E+01  0.24952338606E+02  0.00000000000E+00 0.  1.
</event>
<event>
 8    1  0.2531964E-006  0.9118800E+02  0.7816164E-02  0.1184000E+00
        -11   -1    0    0    0    0  0.00000000000E+00  0.00000000000E+00  0.45593999997E+02  0.45594000000E+02  0.51100000000E-03 0.  1.
         11   -1    0    0    0    0 -0.00000000000E+00 -0.00000000000E+00 -0.45593999997E+02  0.45594000000E+02  0.51100000000E-03 0. -1.
         23    2    1    2    0    0  0.26645352591E-14 -0.88817841970E-15  0.00000000000E+00  0.91188000000E+02  0.91188000000E+02 0.  0.
    9900012    2    3    3    0    0  0.48469015128E+01 -0.39097205879E+01 -0.36290294909E+02  0.54367301012E+02  0.40000494315E+02 0.  0.
        -12    1    3    3    0    0 -0.48469015128E+01  0.39097205879E+01  0.36290294909E+02  0.36820698988E+02  0.00000000000E+00 0.  1.
         11    1    4    4    0    0 -0.85478337200E+01 -0.75939244092E+01 -0.19846640568E+01  0.11604828345E+02  0.51100000000E-03 0.  1.
        -11    1    4    4    0    0  0.77344078516E+01  0.10704556799E+02 -0.92235010201E+01  0.16108431718E+02  0.51100000000E-03 0. -1.
         12    1    4    4    0    0  0.56603273811E+01 -0.70203529781E+01 -0.25082129832E+02  0.26654040949E+02  0.00000000000E+00 0. -1.
</event>
<event>
 8    1  0.2531964E-006  0.9118800E+02  0.7816164E-02  0.1184000E+00
        -11   -1    0    0    0    0  0.00000000000E+00  0.00000000000E+00  0.45593999997E+02  0.45594000000E+02  0.51100000000E-03 0.  1.
         11   -1    0    0    0    0 -0.00000000000E+00 -0.00000000000E+00 -0.45593999997E+02  0.45594000000E+02  0.51100000000E-03 0. -1.
         23    2    1    2    0    0  0.00000000000E+00  0.00000000000E+00  0.88817841970E-15  0.91188000000E+02  0.91188000000E+02 0.  0.
    9900012    2    3    3    0    0 -0.17123150086E+02  0.32295890613E+02  0.44217228847E+01  0.54367103045E+02  0.40000043011E+02 0.  0.
         12    1    3    3    0    0  0.17123150086E+02 -0.32295890613E+02 -0.44217228847E+01  0.36820896955E+02  0.00000000000E+00 0. -1.
         11    1    4    4    0    0  0.34630339660E+01 -0.39913552999E+01  0.32935732802E+01  0.62266481026E+01  0.51100000000E-03 0. -1.
        -11    1    4    4    0    0  0.48826008280E+01  0.16908194609E+01  0.10150995967E+00  0.51680717708E+01  0.51100000000E-03 0.  1.
        -12    1    4    4    0    0 -0.25468784880E+02  0.34596426452E+02  0.10266396448E+01  0.42972383171E+02  0.00000000000E+00 0.  1.
</event>
<event>
 8    1  0.2531964E-006  0.9118800E+02  0.7816164E-02  0.1184000E+00
        -11   -1    0    0    0    0  0.00000000000E+00  0.00000000000E+00  0.45593999997E+02  0.45594000000E+02  0.51100000000E-03 0. -1.
         11   -1    0    0    0    0 -0.00000000000E+00 -0.00000000000E+00 -0.45593999997E+02  0.45594000000E+02  0.51100000000E-03 0.  1.
         23    2    1    2    0    0 -0.35527136788E-14  0.00000000000E+00 -0.35527136788E-14  0.91188000000E+02  0.91188000000E+02 0.  0.
    9900012    2    3    3    0    0 -0.21875785998E+02 -0.58175097166E+01 -0.29041119614E+02  0.54367081207E+02  0.39999993227E+02 0.  0.
         12    1    3    3    0    0  0.21875785998E+02  0.58175097166E+01  0.29041119614E+02  0.36820918793E+02  0.00000000000E+00 0. -1.
         11    1    4    4    0    0 -0.20588332517E+01  0.79803403088E+01 -0.21387588314E+02  0.22920592486E+02  0.51100000000E-03 0. -1.
        -11    1    4    4    0    0 -0.86124589022E+01  0.33481801556E+01 -0.57327959812E+01  0.10874268192E+02  0.51100000000E-03 0.  1.
         12    1    4    4    0    0 -0.11204493845E+02 -0.17146030181E+02 -0.19207353192E+01  0.20572220528E+02  0.00000000000E+00 0. -1.
</event>
<event>
 8    1  0.2531964E-006  0.9118800E+02  0.7816164E-02  0.1184000E+00
        -11   -1    0    0    0    0  0.00000000000E+00  0.00000000000E+00  0.45593999997E+02  0.45594000000E+02  0.51100000000E-03 0.  1.
         11   -1    0    0    0    0 -0.00000000000E+00 -0.00000000000E+00 -0.45593999997E+02  0.45594000000E+02  0.51100000000E-03 0. -1.
         23    2    1    2    0    0 -0.35527136788E-14  0.35527136788E-14  0.00000000000E+00  0.91188000000E+02  0.91188000000E+02 0.  0.
    9900012    2    3    3    0    0 -0.18265119787E+02  0.26979588627E+02  0.17154298641E+02  0.54367044483E+02  0.39999909508E+02 0.  0.
         12    1    3    3    0    0  0.18265119787E+02 -0.26979588627E+02 -0.17154298641E+02  0.36820955517E+02  0.00000000000E+00 0. -1.
         11    1    4    4    0    0 -0.10257781595E+02  0.71748890433E+01 -0.10962782365E+02  0.16639823121E+02  0.51100000000E-03 0. -1.
        -11    1    4    4    0    0  0.50157654499E+00  0.15314973597E+02  0.19593529341E+02  0.24873809270E+02  0.51100000000E-03 0.  1.
        -12    1    4    4    0    0 -0.85089147365E+01  0.44897259863E+01  0.85235516654E+01  0.12853412092E+02  0.00000000000E+00 0.  1.
</event>
<event>
 8    1  0.2531964E-006  0.9118800E+02  0.7816164E-02  0.1184000E+00
        -11   -1    0    0    0    0  0.00000000000E+00  0.00000000000E+00  0.45593999997E+02  0.45594000000E+02  0.51100000000E-03 0.  1.
         11   -1    0    0    0    0 -0.00000000000E+00 -0.00000000000E+00 -0.45593999997E+02  0.45594000000E+02  0.51100000000E-03 0. -1.
         23    2    1    2    0    0  0.00000000000E+00  0.29976021665E-14  0.71054273576E-14  0.91188000000E+02  0.91188000000E+02 0.  0.
    9900012    2    3    3    0    0  0.80147340220E+01  0.50983109639E+00  0.35934435624E+02  0.54367088105E+02  0.40000008952E+02 0.  0.
         12    1    3    3    0    0 -0.80147340220E+01 -0.50983109639E+00 -0.35934435624E+02  0.36820911895E+02  0.00000000000E+00 0. -1.
         11    1    4    4    0    0 -0.82391871512E+01  0.13115604809E+02  0.15313062242E+02  0.21780568632E+02  0.51100000000E-03 0.  1.
        -11    1    4    4    0    0  0.15879281250E+02 -0.13295055067E+02  0.22482071104E+02  0.30567197837E+02  0.51100000000E-03 0. -1.
        -12    1    4    4    0    0  0.37463992339E+00  0.68928135429E+00 -0.18606977215E+01  0.20193216357E+01  0.00000000000E+00 0.  1.
</event>
<event>
 8    1  0.2531964E-006  0.9118800E+02  0.7816164E-02  0.1184000E+00
        -11   -1    0    0    0    0  0.00000000000E+00  0.00000000000E+00  0.45593999997E+02  0.45594000000E+02  0.51100000000E-03 0.  1.
         11   -1    0    0    0    0 -0.00000000000E+00 -0.00000000000E+00 -0.45593999997E+02  0.45594000000E+02  0.51100000000E-03 0. -1.
         23    2    1    2    0    0  0.00000000000E+00 -0.17763568394E-14  0.35527136788E-14  0.91188000000E+02  0.91188000000E+02 0.  0.
    9900012    2    3    3    0    0 -0.28073353480E+02  0.13222096305E+02  0.19820260519E+02  0.54367085653E+02  0.40000003364E+02 0.  0.
         12    1    3    3    0    0  0.28073353480E+02 -0.13222096305E+02 -0.19820260519E+02  0.36820914347E+02  0.00000000000E+00 0. -1.
         11    1    4    4    0    0  0.11788702382E+01  0.40716444140E+01  0.38338462223E+00  0.42561728469E+01  0.51100000000E-03 0. -1.
        -11    1    4    4    0    0  0.29128355265E+01 -0.87991022351E+01  0.27125146791E+01  0.96574606959E+01  0.51100000000E-03 0.  1.
        -12    1    4    4    0    0 -0.32165059244E+02  0.17949554126E+02  0.16724361217E+02  0.40453452110E+02  0.00000000000E+00 0.  1.
</event>
<event>
 8    1  0.2531964E-006  0.9118800E+02  0.7816164E-02  0.1184000E+00
        -11   -1    0    0    0    0  0.00000000000E+00  0.00000000000E+00  0.45593999997E+02  0.45594000000E+02  0.51100000000E-03 0.  1.
         11   -1    0    0    0    0 -0.00000000000E+00 -0.00000000000E+00 -0.45593999997E+02  0.45594000000E+02  0.51100000000E-03 0. -1.
         23    2    1    2    0    0 -0.44408920985E-15  0.17763568394E-14  0.00000000000E+00  0.91188000000E+02  0.91188000000E+02 0.  0.
    9900012    2    3    3    0    0 -0.21049661743E+01  0.13425867661E+02  0.34221306445E+02  0.54367046456E+02  0.39999914007E+02 0.  0.
         12    1    3    3    0    0  0.21049661743E+01 -0.13425867661E+02 -0.34221306445E+02  0.36820953544E+02  0.00000000000E+00 0. -1.
         11    1    4    4    0    0 -0.37290112619E+01 -0.71567009907E+01  0.49567385844E+01  0.94706468479E+01  0.51100000000E-03 0. -1.
        -11    1    4    4    0    0 -0.96344633867E+01  0.19159126921E+02  0.13045180388E+02  0.25101230263E+02  0.51100000000E-03 0.  1.
        -12    1    4    4    0    0  0.11258508474E+02  0.14234417314E+01  0.16219387472E+02  0.19795169345E+02  0.00000000000E+00 0.  1.
</event>
<event>
 8    1  0.2531964E-006  0.9118800E+02  0.7816164E-02  0.1184000E+00
        -11   -1    0    0    0    0  0.00000000000E+00  0.00000000000E+00  0.45593999997E+02  0.45594000000E+02  0.51100000000E-03 0.  1.
         11   -1    0    0    0    0 -0.00000000000E+00 -0.00000000000E+00 -0.45593999997E+02  0.45594000000E+02  0.51100000000E-03 0. -1.
         23    2    1    2    0    0  0.44408920985E-15 -0.55511151231E-15  0.00000000000E+00  0.91188000000E+02  0.91188000000E+02 0.  0.
    9900012    2    3    3    0    0 -0.35807669392E+01  0.86300663826E+00 -0.36636216753E+02  0.54367094928E+02  0.40000024508E+02 0.  0.
        -12    1    3    3    0    0  0.35807669392E+01 -0.86300663826E+00  0.36636216753E+02  0.36820905072E+02  0.00000000000E+00 0.  1.
         11    1    4    4    0    0  0.55147731240E+00  0.17784165767E+01 -0.46632566870E+00  0.19194667585E+01  0.51100000000E-03 0. -1.
        -11    1    4    4    0    0  0.16830014710E+01  0.35180951512E+01  0.73484408724E+01  0.83191989374E+01  0.51100000000E-03 0.  1.
         12    1    4    4    0    0 -0.58152457227E+01 -0.44335050897E+01 -0.43518331957E+02  0.44128429232E+02  0.00000000000E+00 0. -1.
</event>
<event>
 8    1  0.2531964E-006  0.9118800E+02  0.7816164E-02  0.1184000E+00
        -11   -1    0    0    0    0  0.00000000000E+00  0.00000000000E+00  0.45593999997E+02  0.45594000000E+02  0.51100000000E-03 0.  1.
         11   -1    0    0    0    0 -0.00000000000E+00 -0.00000000000E+00 -0.45593999997E+02  0.45594000000E+02  0.51100000000E-03 0. -1.
         23    2    1    2    0    0 -0.44408920985E-15  0.88817841970E-15 -0.71054273576E-14  0.91188000000E+02  0.91188000000E+02 0.  0.
    9900012    2    3    3    0    0  0.38324993040E+01 -0.46139665165E+01  0.36328995679E+02  0.54367181637E+02  0.40000222176E+02 0.  0.
         12    1    3    3    0    0 -0.38324993040E+01  0.46139665165E+01 -0.36328995679E+02  0.36820818363E+02  0.00000000000E+00 0. -1.
         11    1    4    4    0    0  0.98519431726E+01  0.75785274539E+01 -0.71181695539E+00  0.12449961698E+02  0.51100000000E-03 0. -1.
        -11    1    4    4    0    0 -0.10216514892E+02 -0.93693732349E+01  0.21568527587E+02  0.25639105169E+02  0.51100000000E-03 0.  1.
         12    1    4    4    0    0  0.41970710234E+01 -0.28231207355E+01  0.15472285047E+02  0.16278114769E+02  0.00000000000E+00 0. -1.
</event>
<event>
 8    1  0.2531964E-006  0.9118800E+02  0.7816164E-02  0.1184000E+00
        -11   -1    0    0    0    0  0.00000000000E+00  0.00000000000E+00  0.45593999997E+02  0.45594000000E+02  0.51100000000E-03 0.  1.
         11   -1    0    0    0    0 -0.00000000000E+00 -0.00000000000E+00 -0.45593999997E+02  0.45594000000E+02  0.51100000000E-03 0. -1.
         23    2    1    2    0    0  0.00000000000E+00  0.00000000000E+00 -0.71054273576E-14  0.91188000000E+02  0.91188000000E+02 0.  0.
    9900012    2    3    3    0    0 -0.32397888506E+02 -0.93804822154E+01  0.14770108754E+02  0.54367180633E+02  0.40000219889E+02 0.  0.
        -12    1    3    3    0    0  0.32397888506E+02  0.93804822154E+01 -0.14770108754E+02  0.36820819367E+02  0.00000000000E+00 0.  1.
         11    1    4    4    0    0 -0.14610446740E+02 -0.14647207909E+02  0.20703642487E+02  0.29268526884E+02  0.51100000000E-03 0. -1.
        -11    1    4    4    0    0 -0.18000612013E+02 -0.70841713801E+00 -0.24539893919E+01  0.18180922746E+02  0.51100000000E-03 0.  1.
        -12    1    4    4    0    0  0.21317024710E+00  0.59751428321E+01 -0.34795443403E+01  0.69177310033E+01  0.00000000000E+00 0.  1.
</event>
<event>
 8    1  0.2531964E-006  0.9118800E+02  0.7816164E-02  0.1184000E+00
        -11   -1    0    0    0    0  0.00000000000E+00  0.00000000000E+00  0.45593999997E+02  0.45594000000E+02  0.51100000000E-03 0.  1.
         11   -1    0    0    0    0 -0.00000000000E+00 -0.00000000000E+00 -0.45593999997E+02  0.45594000000E+02  0.51100000000E-03 0. -1.
         23    2    1    2    0    0  0.17347234760E-15  0.00000000000E+00 -0.35527136788E-14  0.91188000000E+02  0.91188000000E+02 0.  0.
    9900012    2    3    3    0    0 -0.33212518191E-01 -0.32524876818E+02  0.17260126995E+02  0.54367072541E+02  0.39999973471E+02 0.  0.
         12    1    3    3    0    0  0.33212518191E-01  0.32524876818E+02 -0.17260126995E+02  0.36820927459E+02  0.00000000000E+00 0. -1.
         11    1    4    4    0    0 -0.25856283210E+01 -0.31814278429E+02  0.17814525338E+02  0.36553947790E+02  0.51100000000E-03 0.  1.
        -11    1    4    4    0    0 -0.60136764483E+01 -0.42637222694E+01  0.28932389283E+01  0.79192464144E+01  0.51100000000E-03 0. -1.
         12    1    4    4    0    0  0.85660922511E+01  0.35531238806E+01 -0.34476372718E+01  0.98938783357E+01  0.00000000000E+00 0. -1.
</event>
<event>
 8    1  0.2531964E-006  0.9118800E+02  0.7816164E-02  0.1184000E+00
        -11   -1    0    0    0    0  0.00000000000E+00  0.00000000000E+00  0.45593999997E+02  0.45594000000E+02  0.51100000000E-03 0.  1.
         11   -1    0    0    0    0 -0.00000000000E+00 -0.00000000000E+00 -0.45593999997E+02  0.45594000000E+02  0.51100000000E-03 0. -1.
         23    2    1    2    0    0  0.00000000000E+00 -0.17763568394E-14  0.00000000000E+00  0.91188000000E+02  0.91188000000E+02 0.  0.
    9900012    2    3    3    0    0 -0.33696015613E+02 -0.94926874944E+01 -0.11412599171E+02  0.54367081979E+02  0.39999994988E+02 0.  0.
        -12    1    3    3    0    0  0.33696015613E+02  0.94926874944E+01  0.11412599171E+02  0.36820918021E+02  0.00000000000E+00 0.  1.
         11    1    4    4    0    0 -0.29297769422E+02 -0.12410738805E+02 -0.16651837714E+02  0.35911967786E+02  0.51100000000E-03 0. -1.
        -11    1    4    4    0    0  0.26858481364E+01 -0.57194275704E+01  0.55903883797E+00  0.63433553131E+01  0.51100000000E-03 0.  1.
        -12    1    4    4    0    0 -0.70840943280E+01  0.86374788812E+01  0.46801997056E+01  0.12111758879E+02  0.00000000000E+00 0.  1.
</event>
<event>
 8    1  0.2531964E-006  0.9118800E+02  0.7816164E-02  0.1184000E+00
        -11   -1    0    0    0    0  0.00000000000E+00  0.00000000000E+00  0.45593999997E+02  0.45594000000E+02  0.51100000000E-03 0. -1.
         11   -1    0    0    0    0 -0.00000000000E+00 -0.00000000000E+00 -0.45593999997E+02  0.45594000000E+02  0.51100000000E-03 0.  1.
         23    2    1    2    0    0  0.00000000000E+00  0.00000000000E+00  0.00000000000E+00  0.91188000000E+02  0.91188000000E+02 0.  0.
    9900012    2    3    3    0    0  0.82634610285E+01  0.36528010575E+01 -0.35695258211E+02  0.54367092862E+02  0.40000019798E+02 0.  0.
         12    1    3    3    0    0 -0.82634610285E+01 -0.36528010575E+01  0.35695258211E+02  0.36820907138E+02  0.00000000000E+00 0. -1.
         11    1    4    4    0    0 -0.10841825368E+01  0.36795504838E+01  0.35762216814E+01  0.52444165845E+01  0.51100000000E-03 0. -1.
        -11    1    4    4    0    0  0.57967767074E+01  0.12243758697E+02 -0.31195616125E+02  0.34009979608E+02  0.51100000000E-03 0.  1.
        -12    1    4    4    0    0  0.35508668579E+01 -0.12270508124E+02 -0.80758637671E+01  0.15112696670E+02  0.00000000000E+00 0.  1.
</event>
<event>
 8    1  0.2531964E-006  0.9118800E+02  0.7816164E-02  0.1184000E+00
        -11   -1    0    0    0    0  0.00000000000E+00  0.00000000000E+00  0.45593999997E+02  0.45594000000E+02  0.51100000000E-03 0. -1.
         11   -1    0    0    0    0 -0.00000000000E+00 -0.00000000000E+00 -0.45593999997E+02  0.45594000000E+02  0.51100000000E-03 0.  1.
         23    2    1    2    0    0 -0.22204460493E-15  0.00000000000E+00  0.71054273576E-14  0.91188000000E+02  0.91188000000E+02 0.  0.
    9900012    2    3    3    0    0 -0.16876390062E+01 -0.35557283239E+01  0.36609946240E+02  0.54367088916E+02  0.40000010802E+02 0.  0.
        -12    1    3    3    0    0  0.16876390062E+01  0.35557283239E+01 -0.36609946240E+02  0.36820911084E+02  0.00000000000E+00 0.  1.
         11    1    4    4    0    0  0.55572625683E+01 -0.12221387467E+02  0.56230126720E+01  0.14555540204E+02  0.51100000000E-03 0. -1.
        -11    1    4    4    0    0  0.59014263578E+01  0.78886488626E+01  0.59141610287E+01  0.11490644667E+02  0.51100000000E-03 0.  1.
         12    1    4    4    0    0 -0.13146327932E+02  0.77701028031E+00  0.25072772540E+02  0.28320904045E+02  0.00000000000E+00 0. -1.
</event>
<event>
 8    1  0.2531964E-006  0.9118800E+02  0.7816164E-02  0.1184000E+00
        -11   -1    0    0    0    0  0.00000000000E+00  0.00000000000E+00  0.45593999997E+02  0.45594000000E+02  0.51100000000E-03 0.  1.
         11   -1    0    0    0    0 -0.00000000000E+00 -0.00000000000E+00 -0.45593999997E+02  0.45594000000E+02  0.51100000000E-03 0. -1.
         23    2    1    2    0    0 -0.88817841970E-15 -0.17763568394E-14  0.00000000000E+00  0.91188000000E+02  0.91188000000E+02 0.  0.
    9900012    2    3    3    0    0  0.62084679194E+01 -0.59085174053E+01  0.35809561060E+02  0.54367077753E+02  0.39999985353E+02 0.  0.
         12    1    3    3    0    0 -0.62084679194E+01  0.59085174053E+01 -0.35809561060E+02  0.36820922247E+02  0.00000000000E+00 0. -1.
         11    1    4    4    0    0 -0.69023421624E+01  0.87025834538E+01  0.14797355010E+02  0.18502405294E+02  0.51100000000E-03 0. -1.
        -11    1    4    4    0    0 -0.50010231743E+00 -0.14491417852E+02  0.62638482349E+01  0.15795160293E+02  0.51100000000E-03 0.  1.
        -12    1    4    4    0    0  0.13610912399E+02 -0.11968300666E+00  0.14748357815E+02  0.20069512166E+02  0.00000000000E+00 0.  1.
</event>
<event>
 8    1  0.2531964E-006  0.9118800E+02  0.7816164E-02  0.1184000E+00
        -11   -1    0    0    0    0  0.00000000000E+00  0.00000000000E+00  0.45593999997E+02  0.45594000000E+02  0.51100000000E-03 0. -1.
         11   -1    0    0    0    0 -0.00000000000E+00 -0.00000000000E+00 -0.45593999997E+02  0.45594000000E+02  0.51100000000E-03 0.  1.
         23    2    1    2    0    0  0.00000000000E+00  0.35527136788E-14  0.35527136788E-14  0.91188000000E+02  0.91188000000E+02 0.  0.
    9900012    2    3    3    0    0  0.90731008375E+01  0.18312029839E+02  0.30628875003E+02  0.54367087741E+02  0.40000008123E+02 0.  0.
         12    1    3    3    0    0 -0.90731008375E+01 -0.18312029839E+02 -0.30628875003E+02  0.36820912259E+02  0.00000000000E+00 0. -1.
         11    1    4    4    0    0  0.68914661038E+01 -0.71926400073E+01  0.83447822926E+01  0.12994682263E+02  0.51100000000E-03 0. -1.
        -11    1    4    4    0    0  0.40461744091E+01  0.10976068531E+02 -0.30673234313E+01  0.12093555351E+02  0.51100000000E-03 0.  1.
         12    1    4    4    0    0 -0.18645396753E+01  0.14528601316E+02  0.25351416141E+02  0.29278850127E+02  0.00000000000E+00 0. -1.
</event>
<event>
 8    1  0.2531964E-006  0.9118800E+02  0.7816164E-02  0.1184000E+00
        -11   -1    0    0    0    0  0.00000000000E+00  0.00000000000E+00  0.45593999997E+02  0.45594000000E+02  0.51100000000E-03 0.  1.
         11   -1    0    0    0    0 -0.00000000000E+00 -0.00000000000E+00 -0.45593999997E+02  0.45594000000E+02  0.51100000000E-03 0. -1.
         23    2    1    2    0    0  0.17763568394E-14  0.71054273576E-14  0.35527136788E-14  0.91188000000E+02  0.91188000000E+02 0.  0.
    9900012    2    3    3    0    0 -0.15422207169E+02 -0.32104730096E+02 -0.93392762202E+01  0.54367078654E+02  0.39999987407E+02 0.  0.
        -12    1    3    3    0    0  0.15422207169E+02  0.32104730096E+02  0.93392762202E+01  0.36820921346E+02  0.00000000000E+00 0.  1.
         11    1    4    4    0    0 -0.21026617572E+02 -0.17784929047E+02 -0.19622671007E+02  0.33815256401E+02  0.51100000000E-03 0. -1.
        -11    1    4    4    0    0 -0.14874892838E+01 -0.83518882073E+01  0.56196834650E+01  0.10175829377E+02  0.51100000000E-03 0.  1.
        -12    1    4    4    0    0  0.70918996877E+01 -0.59679128417E+01  0.46637113221E+01  0.10375992876E+02  0.00000000000E+00 0.  1.
</event>
<event>
 8    1  0.2531964E-006  0.9118800E+02  0.7816164E-02  0.1184000E+00
        -11   -1    0    0    0    0  0.00000000000E+00  0.00000000000E+00  0.45593999997E+02  0.45594000000E+02  0.51100000000E-03 0.  1.
         11   -1    0    0    0    0 -0.00000000000E+00 -0.00000000000E+00 -0.45593999997E+02  0.45594000000E+02  0.51100000000E-03 0. -1.
         23    2    1    2    0    0 -0.17763568394E-14  0.00000000000E+00  0.00000000000E+00  0.91188000000E+02  0.91188000000E+02 0.  0.
    9900012    2    3    3    0    0  0.58439761861E+01 -0.32542747833E+02 -0.16204862031E+02  0.54367081385E+02  0.39999993634E+02 0.  0.
        -12    1    3    3    0    0 -0.58439761861E+01  0.32542747833E+02  0.16204862031E+02  0.36820918615E+02  0.00000000000E+00 0.  1.
         11    1    4    4    0    0 -0.13119233612E+02 -0.14951238594E+02 -0.12788948943E+02  0.23647643464E+02  0.51100000000E-03 0. -1.
        -11    1    4    4    0    0  0.49840060590E+01  0.28460561906E+01 -0.12617761300E+00  0.57407554631E+01  0.51100000000E-03 0.  1.
         12    1    4    4    0    0  0.13979203739E+02 -0.20437565430E+02 -0.32897354747E+01  0.24978682458E+02  0.00000000000E+00 0. -1.
</event>
<event>
 8    1  0.2531964E-006  0.9118800E+02  0.7816164E-02  0.1184000E+00
        -11   -1    0    0    0    0  0.00000000000E+00  0.00000000000E+00  0.45593999997E+02  0.45594000000E+02  0.51100000000E-03 0. -1.
         11   -1    0    0    0    0 -0.00000000000E+00 -0.00000000000E+00 -0.45593999997E+02  0.45594000000E+02  0.51100000000E-03 0.  1.
         23    2    1    2    0    0  0.00000000000E+00  0.17763568394E-14 -0.35527136788E-14  0.91188000000E+02  0.91188000000E+02 0.  0.
    9900012    2    3    3    0    0 -0.20087698573E+02 -0.12704646606E+02  0.28122198470E+02  0.54367058593E+02  0.39999941674E+02 0.  0.
        -12    1    3    3    0    0  0.20087698573E+02  0.12704646606E+02 -0.28122198470E+02  0.36820941407E+02  0.00000000000E+00 0.  1.
         11    1    4    4    0    0  0.49586775510E+01  0.24970441848E+01  0.15544212143E+02  0.16505945721E+02  0.51100000000E-03 0. -1.
        -11    1    4    4    0    0 -0.41766337607E+01 -0.13975211048E+02  0.31224524338E+01  0.14916450746E+02  0.51100000000E-03 0.  1.
         12    1    4    4    0    0 -0.20869742364E+02 -0.12264797429E+01  0.94555338928E+01  0.22944662126E+02  0.00000000000E+00 0. -1.
</event>
<event>
 8    1  0.2531964E-006  0.9118800E+02  0.7816164E-02  0.1184000E+00
        -11   -1    0    0    0    0  0.00000000000E+00  0.00000000000E+00  0.45593999997E+02  0.45594000000E+02  0.51100000000E-03 0.  1.
         11   -1    0    0    0    0 -0.00000000000E+00 -0.00000000000E+00 -0.45593999997E+02  0.45594000000E+02  0.51100000000E-03 0. -1.
         23    2    1    2    0    0  0.00000000000E+00  0.33306690739E-15  0.17763568394E-14  0.91188000000E+02  0.91188000000E+02 0.  0.
    9900012    2    3    3    0    0 -0.34422517875E+02 -0.68628924654E+00  0.13053770127E+02  0.54367059703E+02  0.39999944205E+02 0.  0.
         12    1    3    3    0    0  0.34422517875E+02  0.68628924654E+00 -0.13053770127E+02  0.36820940297E+02  0.00000000000E+00 0. -1.
         11    1    4    4    0    0 -0.19101891982E+01  0.11285492527E+01  0.81337390393E+00  0.23630538625E+01  0.51100000000E-03 0. -1.
        -11    1    4    4    0    0 -0.36477941776E+02  0.73252264857E+01  0.13314669941E+01  0.37229987697E+02  0.51100000000E-03 0.  1.
        -12    1    4    4    0    0  0.39656130988E+01 -0.91400649850E+01  0.10908929229E+02  0.14774018144E+02  0.00000000000E+00 0.  1.
</event>
<event>
 8    1  0.2531964E-006  0.9118800E+02  0.7816164E-02  0.1184000E+00
        -11   -1    0    0    0    0  0.00000000000E+00  0.00000000000E+00  0.45593999997E+02  0.45594000000E+02  0.51100000000E-03 0. -1.
         11   -1    0    0    0    0 -0.00000000000E+00 -0.00000000000E+00 -0.45593999997E+02  0.45594000000E+02  0.51100000000E-03 0.  1.
         23    2    1    2    0    0  0.00000000000E+00 -0.88817841970E-15 -0.17763568394E-14  0.91188000000E+02  0.91188000000E+02 0.  0.
    9900012    2    3    3    0    0 -0.35079392046E+02  0.27338617921E+01  0.10850984596E+02  0.54367060125E+02  0.39999945166E+02 0.  0.
        -12    1    3    3    0    0  0.35079392046E+02 -0.27338617921E+01 -0.10850984596E+02  0.36820939875E+02  0.00000000000E+00 0.  1.
         11    1    4    4    0    0 -0.62698903621E+01 -0.55522285292E+01 -0.95599624242E+01  0.12709510164E+02  0.51100000000E-03 0. -1.
        -11    1    4    4    0    0 -0.48276121584E+01  0.95979931511E+01  0.10254681574E+01  0.10792538945E+02  0.51100000000E-03 0.  1.
        -12    1    4    4    0    0 -0.23981889526E+02 -0.13119028298E+01  0.19385478862E+02  0.30865011015E+02  0.00000000000E+00 0.  1.
</event>
<event>
 8    1  0.2531964E-006  0.9118800E+02  0.7816164E-02  0.1184000E+00
        -11   -1    0    0    0    0  0.00000000000E+00  0.00000000000E+00  0.45593999997E+02  0.45594000000E+02  0.51100000000E-03 0.  1.
         11   -1    0    0    0    0 -0.00000000000E+00 -0.00000000000E+00 -0.45593999997E+02  0.45594000000E+02  0.51100000000E-03 0. -1.
         23    2    1    2    0    0  0.17763568394E-14 -0.71054273576E-14  0.71054273576E-14  0.91188000000E+02  0.91188000000E+02 0.  0.
    9900012    2    3    3    0    0  0.12075350060E+02 -0.24822480041E+02  0.24368219315E+02  0.54367086011E+02  0.40000004178E+02 0.  0.
         12    1    3    3    0    0 -0.12075350060E+02  0.24822480041E+02 -0.24368219315E+02  0.36820913989E+02  0.00000000000E+00 0. -1.
         11    1    4    4    0    0 -0.93733339026E+01 -0.11444019552E+02  0.11626018798E+02  0.18814602980E+02  0.51100000000E-03 0. -1.
        -11    1    4    4    0    0  0.47339674628E+00 -0.41063018561E+01  0.11906920958E+02  0.12603990891E+02  0.51100000000E-03 0.  1.
        -12    1    4    4    0    0  0.20975287216E+02 -0.92721586327E+01  0.83527955862E+00  0.22948492139E+02  0.00000000000E+00 0.  1.
</event>
<event>
 8    1  0.2531964E-006  0.9118800E+02  0.7816164E-02  0.1184000E+00
        -11   -1    0    0    0    0  0.00000000000E+00  0.00000000000E+00  0.45593999997E+02  0.45594000000E+02  0.51100000000E-03 0. -1.
         11   -1    0    0    0    0 -0.00000000000E+00 -0.00000000000E+00 -0.45593999997E+02  0.45594000000E+02  0.51100000000E-03 0.  1.
         23    2    1    2    0    0  0.00000000000E+00  0.00000000000E+00  0.00000000000E+00  0.91188000000E+02  0.91188000000E+02 0.  0.
    9900012    2    3    3    0    0 -0.13905073864E+02  0.16130705768E+02 -0.30037129617E+02  0.54367083344E+02  0.39999998100E+02 0.  0.
         12    1    3    3    0    0  0.13905073864E+02 -0.16130705768E+02  0.30037129617E+02  0.36820916656E+02  0.00000000000E+00 0. -1.
         11    1    4    4    0    0 -0.13336157203E+02  0.19191722992E+02 -0.82209974337E+01  0.24774182518E+02  0.51100000000E-03 0. -1.
        -11    1    4    4    0    0 -0.73521625567E+01 -0.77107219820E+01 -0.73197944875E+01  0.12926287918E+02  0.51100000000E-03 0.  1.
         12    1    4    4    0    0  0.67832458963E+01  0.46497047575E+01 -0.14496337696E+02  0.16666612908E+02  0.00000000000E+00 0. -1.
</event>
<event>
 8    1  0.2531964E-006  0.9118800E+02  0.7816164E-02  0.1184000E+00
        -11   -1    0    0    0    0  0.00000000000E+00  0.00000000000E+00  0.45593999997E+02  0.45594000000E+02  0.51100000000E-03 0. -1.
         11   -1    0    0    0    0 -0.00000000000E+00 -0.00000000000E+00 -0.45593999997E+02  0.45594000000E+02  0.51100000000E-03 0.  1.
         23    2    1    2    0    0  0.00000000000E+00  0.00000000000E+00  0.00000000000E+00  0.91188000000E+02  0.91188000000E+02 0.  0.
    9900012    2    3    3    0    0 -0.11639678829E+02 -0.88392300981E+01  0.33795906927E+02  0.54367116836E+02  0.40000074451E+02 0.  0.
        -12    1    3    3    0    0  0.11639678829E+02  0.88392300981E+01 -0.33795906927E+02  0.36820883164E+02  0.00000000000E+00 0.  1.
         11    1    4    4    0    0 -0.16202682705E+02 -0.50093707665E+00  0.44062232896E+01  0.16798591272E+02  0.51100000000E-03 0. -1.
        -11    1    4    4    0    0  0.74002567127E+01 -0.10913432983E+02  0.71469725019E+01  0.14998201062E+02  0.51100000000E-03 0.  1.
         12    1    4    4    0    0 -0.28372528372E+01  0.25751399615E+01  0.22242711135E+02  0.22570324502E+02  0.00000000000E+00 0. -1.
</event>
<event>
 8    1  0.2531964E-006  0.9118800E+02  0.7816164E-02  0.1184000E+00
        -11   -1    0    0    0    0  0.00000000000E+00  0.00000000000E+00  0.45593999997E+02  0.45594000000E+02  0.51100000000E-03 0. -1.
         11   -1    0    0    0    0 -0.00000000000E+00 -0.00000000000E+00 -0.45593999997E+02  0.45594000000E+02  0.51100000000E-03 0.  1.
         23    2    1    2    0    0 -0.88817841970E-15  0.17763568394E-14  0.71054273576E-14  0.91188000000E+02  0.91188000000E+02 0.  0.
    9900012    2    3    3    0    0 -0.38063799111E+01  0.79703969479E+01  0.35745801821E+02  0.54367107787E+02  0.40000053821E+02 0.  0.
        -12    1    3    3    0    0  0.38063799111E+01 -0.79703969479E+01 -0.35745801821E+02  0.36820892213E+02  0.00000000000E+00 0.  1.
         11    1    4    4    0    0 -0.44507045427E+01  0.40762536100E+00  0.13345455912E+02  0.14073951937E+02  0.51100000000E-03 0. -1.
        -11    1    4    4    0    0 -0.42601944540E+01 -0.11648108904E+02  0.14154951212E+02  0.18819945321E+02  0.51100000000E-03 0.  1.
         12    1    4    4    0    0  0.49045190856E+01  0.19210880491E+02  0.82453946969E+01  0.21473210528E+02  0.00000000000E+00 0. -1.
</event>
<event>
 8    1  0.2531964E-006  0.9118800E+02  0.7816164E-02  0.1184000E+00
        -11   -1    0    0    0    0  0.00000000000E+00  0.00000000000E+00  0.45593999997E+02  0.45594000000E+02  0.51100000000E-03 0. -1.
         11   -1    0    0    0    0 -0.00000000000E+00 -0.00000000000E+00 -0.45593999997E+02  0.45594000000E+02  0.51100000000E-03 0.  1.
         23    2    1    2    0    0  0.00000000000E+00  0.88817841970E-15  0.00000000000E+00  0.91188000000E+02  0.91188000000E+02 0.  0.
    9900012    2    3    3    0    0  0.21638812581E+02 -0.42292135973E+01 -0.29489924049E+02  0.54367080973E+02  0.39999992694E+02 0.  0.
         12    1    3    3    0    0 -0.21638812581E+02  0.42292135973E+01  0.29489924049E+02  0.36820919027E+02  0.00000000000E+00 0. -1.
         11    1    4    4    0    0  0.10653176773E+02 -0.12486102109E+02 -0.13140619848E+02  0.21025432492E+02  0.51100000000E-03 0. -1.
        -11    1    4    4    0    0  0.81606263868E+01  0.20869810566E+01 -0.22598096000E+02  0.24116908095E+02  0.51100000000E-03 0.  1.
         12    1    4    4    0    0  0.28250094211E+01  0.61699074556E+01  0.62487917988E+01  0.92247403857E+01  0.00000000000E+00 0. -1.
</event>
<event>
 8    1  0.2531964E-006  0.9118800E+02  0.7816164E-02  0.1184000E+00
        -11   -1    0    0    0    0  0.00000000000E+00  0.00000000000E+00  0.45593999997E+02  0.45594000000E+02  0.51100000000E-03 0. -1.
         11   -1    0    0    0    0 -0.00000000000E+00 -0.00000000000E+00 -0.45593999997E+02  0.45594000000E+02  0.51100000000E-03 0.  1.
         23    2    1    2    0    0  0.35527136788E-14  0.00000000000E+00 -0.35527136788E-14  0.91188000000E+02  0.91188000000E+02 0.  0.
    9900012    2    3    3    0    0 -0.26958223429E+02  0.16419641065E+02  0.18958648655E+02  0.54367071413E+02  0.39999970901E+02 0.  0.
        -12    1    3    3    0    0  0.26958223429E+02 -0.16419641065E+02 -0.18958648655E+02  0.36820928587E+02  0.00000000000E+00 0.  1.
         11    1    4    4    0    0 -0.86862633259E+01  0.11200867574E+02  0.11396058458E+02  0.18187378965E+02  0.51100000000E-03 0. -1.
        -11    1    4    4    0    0  0.25092459143E+01  0.36333627540E+01  0.13747918411E+02  0.14439629526E+02  0.51100000000E-03 0.  1.
        -12    1    4    4    0    0 -0.20781206018E+02  0.15854107366E+01 -0.61853282138E+01  0.21740062922E+02  0.00000000000E+00 0.  1.
</event>
<event>
 8    1  0.2531964E-006  0.9118800E+02  0.7816164E-02  0.1184000E+00
        -11   -1    0    0    0    0  0.00000000000E+00  0.00000000000E+00  0.45593999997E+02  0.45594000000E+02  0.51100000000E-03 0.  1.
         11   -1    0    0    0    0 -0.00000000000E+00 -0.00000000000E+00 -0.45593999997E+02  0.45594000000E+02  0.51100000000E-03 0. -1.
         23    2    1    2    0    0  0.00000000000E+00  0.00000000000E+00  0.00000000000E+00  0.91188000000E+02  0.91188000000E+02 0.  0.
    9900012    2    3    3    0    0 -0.10682652785E+02  0.18832391244E+02 -0.29782568318E+02  0.54367090096E+02  0.40000013493E+02 0.  0.
        -12    1    3    3    0    0  0.10682652785E+02 -0.18832391244E+02  0.29782568318E+02  0.36820909904E+02  0.00000000000E+00 0.  1.
         11    1    4    4    0    0 -0.14326378154E+01  0.13092905886E+02 -0.53697992788E+01  0.14223620503E+02  0.51100000000E-03 0. -1.
        -11    1    4    4    0    0 -0.11490713964E+02 -0.56814819743E+01  0.30548348004E+00  0.12822209842E+02  0.51100000000E-03 0.  1.
         12    1    4    4    0    0  0.22406989944E+01  0.11420967332E+02 -0.24718252520E+02  0.27321259752E+02  0.00000000000E+00 0. -1.
</event>
<event>
 8    1  0.2531964E-006  0.9118800E+02  0.7816164E-02  0.1184000E+00
        -11   -1    0    0    0    0  0.00000000000E+00  0.00000000000E+00  0.45593999997E+02  0.45594000000E+02  0.51100000000E-03 0.  1.
         11   -1    0    0    0    0 -0.00000000000E+00 -0.00000000000E+00 -0.45593999997E+02  0.45594000000E+02  0.51100000000E-03 0. -1.
         23    2    1    2    0    0  0.00000000000E+00  0.17763568394E-14 -0.35527136788E-14  0.91188000000E+02  0.91188000000E+02 0.  0.
    9900012    2    3    3    0    0 -0.18224165149E+02  0.10534374220E+01  0.31977131251E+02  0.54367260615E+02  0.40000402223E+02 0.  0.
         12    1    3    3    0    0  0.18224165149E+02 -0.10534374220E+01 -0.31977131251E+02  0.36820739385E+02  0.00000000000E+00 0. -1.
         11    1    4    4    0    0 -0.36066854970E+01  0.47958826087E+01  0.20691604646E+02  0.21544167966E+02  0.51100000000E-03 0. -1.
        -11    1    4    4    0    0 -0.61204235954E+01  0.11693695460E+02  0.50635750755E+01  0.14136544532E+02  0.51100000000E-03 0.  1.
         12    1    4    4    0    0 -0.84970560563E+01 -0.15436140647E+02  0.62219515298E+01  0.18686548117E+02  0.00000000000E+00 0. -1.
</event>
<event>
 8    1  0.2531964E-006  0.9118800E+02  0.7816164E-02  0.1184000E+00
        -11   -1    0    0    0    0  0.00000000000E+00  0.00000000000E+00  0.45593999997E+02  0.45594000000E+02  0.51100000000E-03 0.  1.
         11   -1    0    0    0    0 -0.00000000000E+00 -0.00000000000E+00 -0.45593999997E+02  0.45594000000E+02  0.51100000000E-03 0. -1.
         23    2    1    2    0    0  0.00000000000E+00  0.17763568394E-14  0.00000000000E+00  0.91188000000E+02  0.91188000000E+02 0.  0.
    9900012    2    3    3    0    0  0.15238664749E+02  0.11411774050E+02  0.31517257377E+02  0.54367041255E+02  0.39999902150E+02 0.  0.
         12    1    3    3    0    0 -0.15238664749E+02 -0.11411774050E+02 -0.31517257377E+02  0.36820958745E+02  0.00000000000E+00 0. -1.
         11    1    4    4    0    0  0.67710718348E+01  0.13627841533E+02 -0.40633471380E+01  0.15750437101E+02  0.51100000000E-03 0. -1.
        -11    1    4    4    0    0 -0.30755647354E+01 -0.76823107062E+00  0.52682693223E+01  0.61484908175E+01  0.51100000000E-03 0.  1.
         12    1    4    4    0    0  0.11543157650E+02 -0.14478364125E+01  0.30312335193E+02  0.32468113337E+02  0.00000000000E+00 0. -1.
</event>
<event>
 8    1  0.2531964E-006  0.9118800E+02  0.7816164E-02  0.1184000E+00
        -11   -1    0    0    0    0  0.00000000000E+00  0.00000000000E+00  0.45593999997E+02  0.45594000000E+02  0.51100000000E-03 0. -1.
         11   -1    0    0    0    0 -0.00000000000E+00 -0.00000000000E+00 -0.45593999997E+02  0.45594000000E+02  0.51100000000E-03 0.  1.
         23    2    1    2    0    0  0.35527136788E-14 -0.88817841970E-15  0.00000000000E+00  0.91188000000E+02  0.91188000000E+02 0.  0.
    9900012    2    3    3    0    0  0.30788343813E+02 -0.24993118589E+01  0.20039846004E+02  0.54367297910E+02  0.40000487244E+02 0.  0.
        -12    1    3    3    0    0 -0.30788343813E+02  0.24993118589E+01 -0.20039846004E+02  0.36820702090E+02  0.00000000000E+00 0.  1.
         11    1    4    4    0    0  0.42829536588E+01  0.48255485185E+01  0.94164909280E+01  0.11414898695E+02  0.51100000000E-03 0. -1.
        -11    1    4    4    0    0  0.11226056601E+00  0.62044296457E+01 -0.62686356733E+01  0.88206203369E+01  0.51100000000E-03 0.  1.
         12    1    4    4    0    0  0.26393129588E+02 -0.13529290023E+02  0.16891990749E+02  0.34131778879E+02  0.00000000000E+00 0. -1.
</event>
<event>
 8    1  0.2531964E-006  0.9118800E+02  0.7816164E-02  0.1184000E+00
        -11   -1    0    0    0    0  0.00000000000E+00  0.00000000000E+00  0.45593999997E+02  0.45594000000E+02  0.51100000000E-03 0.  1.
         11   -1    0    0    0    0 -0.00000000000E+00 -0.00000000000E+00 -0.45593999997E+02  0.45594000000E+02  0.51100000000E-03 0. -1.
         23    2    1    2    0    0  0.71054273576E-14  0.00000000000E+00  0.00000000000E+00  0.91188000000E+02  0.91188000000E+02 0.  0.
    9900012    2    3    3    0    0  0.32805800999E+02  0.11925550719E+02  0.11719212393E+02  0.54367091833E+02  0.40000017452E+02 0.  0.
         12    1    3    3    0    0 -0.32805800999E+02 -0.11925550719E+02 -0.11719212393E+02  0.36820908167E+02  0.00000000000E+00 0. -1.
         11    1    4    4    0    0  0.18715134542E+02  0.23839200154E+01 -0.68686709193E+01  0.20077798087E+02  0.51100000000E-03 0. -1.
        -11    1    4    4    0    0  0.63419673364E+01 -0.49561719471E+01 -0.16500648402E+01  0.82162585343E+01  0.51100000000E-03 0.  1.
        -12    1    4    4    0    0  0.77486991206E+01  0.14497802651E+02  0.20237948152E+02  0.26073035212E+02  0.00000000000E+00 0.  1.
</event>
<event>
 8    1  0.2531964E-006  0.9118800E+02  0.7816164E-02  0.1184000E+00
        -11   -1    0    0    0    0  0.00000000000E+00  0.00000000000E+00  0.45593999997E+02  0.45594000000E+02  0.51100000000E-03 0. -1.
         11   -1    0    0    0    0 -0.00000000000E+00 -0.00000000000E+00 -0.45593999997E+02  0.45594000000E+02  0.51100000000E-03 0.  1.
         23    2    1    2    0    0  0.17763568394E-14  0.00000000000E+00  0.00000000000E+00  0.91188000000E+02  0.91188000000E+02 0.  0.
    9900012    2    3    3    0    0 -0.83477443350E+01  0.28950008253E+02  0.21165907677E+02  0.54367035033E+02  0.39999887965E+02 0.  0.
         12    1    3    3    0    0  0.83477443350E+01 -0.28950008253E+02 -0.21165907677E+02  0.36820964967E+02  0.00000000000E+00 0. -1.
         11    1    4    4    0    0  0.18834343659E+01  0.81781187959E+01  0.16405379785E+02  0.18427301436E+02  0.51100000000E-03 0. -1.
        -11    1    4    4    0    0 -0.85883696759E+01  0.27229879219E+02  0.16885483792E+01  0.28602056077E+02  0.51100000000E-03 0.  1.
         12    1    4    4    0    0 -0.16428090250E+01 -0.64579897621E+01  0.30719795124E+01  0.73376775198E+01  0.00000000000E+00 0. -1.
</event>
<event>
 8    1  0.2531964E-006  0.9118800E+02  0.7816164E-02  0.1184000E+00
        -11   -1    0    0    0    0  0.00000000000E+00  0.00000000000E+00  0.45593999997E+02  0.45594000000E+02  0.51100000000E-03 0. -1.
         11   -1    0    0    0    0 -0.00000000000E+00 -0.00000000000E+00 -0.45593999997E+02  0.45594000000E+02  0.51100000000E-03 0.  1.
         23    2    1    2    0    0  0.88817841970E-15 -0.17763568394E-14  0.00000000000E+00  0.91188000000E+02  0.91188000000E+02 0.  0.
    9900012    2    3    3    0    0 -0.21211770617E+01  0.14757170674E+02  0.33667586667E+02  0.54367083792E+02  0.39999999120E+02 0.  0.
        -12    1    3    3    0    0  0.21211770617E+01 -0.14757170674E+02 -0.33667586667E+02  0.36820916208E+02  0.00000000000E+00 0.  1.
         11    1    4    4    0    0  0.93153067849E+01  0.59217900722E+01 -0.63697893771E+00  0.11056594439E+02  0.51100000000E-03 0. -1.
        -11    1    4    4    0    0 -0.18044672480E+02  0.56321795692E+01  0.26938309787E+02  0.32909028944E+02  0.51100000000E-03 0.  1.
        -12    1    4    4    0    0  0.66081886332E+01  0.32032010328E+01  0.73662558174E+01  0.10401460409E+02  0.00000000000E+00 0.  1.
</event>
<event>
 8    1  0.2531964E-006  0.9118800E+02  0.7816164E-02  0.1184000E+00
        -11   -1    0    0    0    0  0.00000000000E+00  0.00000000000E+00  0.45593999997E+02  0.45594000000E+02  0.51100000000E-03 0. -1.
         11   -1    0    0    0    0 -0.00000000000E+00 -0.00000000000E+00 -0.45593999997E+02  0.45594000000E+02  0.51100000000E-03 0.  1.
         23    2    1    2    0    0  0.00000000000E+00  0.00000000000E+00  0.00000000000E+00  0.91188000000E+02  0.91188000000E+02 0.  0.
    9900012    2    3    3    0    0 -0.19100052964E+02  0.31048606894E+02  0.51915498963E+01  0.54367079267E+02  0.39999988806E+02 0.  0.
        -12    1    3    3    0    0  0.19100052964E+02 -0.31048606894E+02 -0.51915498963E+01  0.36820920733E+02  0.00000000000E+00 0.  1.
         11    1    4    4    0    0 -0.25185062150E+02  0.58820213119E+01  0.63269817676E+00  0.25870559280E+02  0.51100000000E-03 0. -1.
        -11    1    4    4    0    0  0.17934621167E+01  0.13905165695E+01  0.36760607872E+01  0.43201233624E+01  0.51100000000E-03 0.  1.
         12    1    4    4    0    0  0.42915470693E+01  0.23776069012E+02  0.88279093231E+00  0.24176396625E+02  0.00000000000E+00 0. -1.
</event>
<event>
 8    1  0.2531964E-006  0.9118800E+02  0.7816164E-02  0.1184000E+00
        -11   -1    0    0    0    0  0.00000000000E+00  0.00000000000E+00  0.45593999997E+02  0.45594000000E+02  0.51100000000E-03 0. -1.
         11   -1    0    0    0    0 -0.00000000000E+00 -0.00000000000E+00 -0.45593999997E+02  0.45594000000E+02  0.51100000000E-03 0.  1.
         23    2    1    2    0    0  0.35527136788E-14  0.35527136788E-14  0.00000000000E+00  0.91188000000E+02  0.91188000000E+02 0.  0.
    9900012    2    3    3    0    0  0.31545463523E+02  0.16539276289E+02  0.93335785244E+01  0.54367087231E+02  0.40000006961E+02 0.  0.
        -12    1    3    3    0    0 -0.31545463523E+02 -0.16539276289E+02 -0.93335785244E+01  0.36820912769E+02  0.00000000000E+00 0.  1.
         11    1    4    4    0    0  0.33905924374E+02  0.21894461288E+01  0.37515192591E+01  0.34183026183E+02  0.51100000000E-03 0. -1.
        -11    1    4    4    0    0  0.30103619532E+01  0.13434135356E+02  0.27335929936E+01  0.14036053675E+02  0.51100000000E-03 0.  1.
         12    1    4    4    0    0 -0.53708228042E+01  0.91569480462E+00  0.28484662717E+01  0.61480073740E+01  0.00000000000E+00 0. -1.
</event>
<event>
 8    1  0.2531964E-006  0.9118800E+02  0.7816164E-02  0.1184000E+00
        -11   -1    0    0    0    0  0.00000000000E+00  0.00000000000E+00  0.45593999997E+02  0.45594000000E+02  0.51100000000E-03 0.  1.
         11   -1    0    0    0    0 -0.00000000000E+00 -0.00000000000E+00 -0.45593999997E+02  0.45594000000E+02  0.51100000000E-03 0. -1.
         23    2    1    2    0    0 -0.44408920985E-15  0.00000000000E+00  0.00000000000E+00  0.91188000000E+02  0.91188000000E+02 0.  0.
    9900012    2    3    3    0    0  0.26804923724E+01  0.19554177314E+02  0.31084240214E+02  0.54367070090E+02  0.39999967883E+02 0.  0.
         12    1    3    3    0    0 -0.26804923724E+01 -0.19554177314E+02 -0.31084240214E+02  0.36820929910E+02  0.00000000000E+00 0. -1.
         11    1    4    4    0    0 -0.47840192007E+01  0.24774410792E+01  0.14905005076E+01  0.55898252242E+01  0.51100000000E-03 0. -1.
        -11    1    4    4    0    0  0.21440149043E+01 -0.93830696541E+01  0.15715569962E+02  0.18428725825E+02  0.51100000000E-03 0.  1.
        -12    1    4    4    0    0  0.53204966688E+01  0.26459805889E+02  0.13878169745E+02  0.30348519040E+02  0.00000000000E+00 0.  1.
</event>
<event>
 8    1  0.2531964E-006  0.9118800E+02  0.7816164E-02  0.1184000E+00
        -11   -1    0    0    0    0  0.00000000000E+00  0.00000000000E+00  0.45593999997E+02  0.45594000000E+02  0.51100000000E-03 0. -1.
         11   -1    0    0    0    0 -0.00000000000E+00 -0.00000000000E+00 -0.45593999997E+02  0.45594000000E+02  0.51100000000E-03 0.  1.
         23    2    1    2    0    0  0.71054273576E-14  0.17763568394E-14 -0.88817841970E-15  0.91188000000E+02  0.91188000000E+02 0.  0.
    9900012    2    3    3    0    0 -0.33711559821E+02 -0.14648223565E+02 -0.21745339825E+01  0.54367240676E+02  0.40000356766E+02 0.  0.
        -12    1    3    3    0    0  0.33711559821E+02  0.14648223565E+02  0.21745339825E+01  0.36820759324E+02  0.00000000000E+00 0.  1.
         11    1    4    4    0    0 -0.25427359966E+02 -0.40681663115E+01  0.78612661648E+01  0.26923969208E+02  0.51100000000E-03 0. -1.
        -11    1    4    4    0    0  0.93027495448E+00 -0.64786770333E+01  0.57488701844E+01  0.87113819944E+01  0.51100000000E-03 0.  1.
        -12    1    4    4    0    0 -0.92144748100E+01 -0.41013802203E+01 -0.15784670332E+02  0.18731889473E+02  0.00000000000E+00 0.  1.
</event>
<event>
 8    1  0.2531964E-006  0.9118800E+02  0.7816164E-02  0.1184000E+00
        -11   -1    0    0    0    0  0.00000000000E+00  0.00000000000E+00  0.45593999997E+02  0.45594000000E+02  0.51100000000E-03 0.  1.
         11   -1    0    0    0    0 -0.00000000000E+00 -0.00000000000E+00 -0.45593999997E+02  0.45594000000E+02  0.51100000000E-03 0. -1.
         23    2    1    2    0    0 -0.35527136788E-14  0.35527136788E-14  0.35527136788E-14  0.91188000000E+02  0.91188000000E+02 0.  0.
    9900012    2    3    3    0    0 -0.31318502780E+02 -0.18932772563E+02 -0.40597655734E+01  0.54367079454E+02  0.39999989232E+02 0.  0.
         12    1    3    3    0    0  0.31318502780E+02  0.18932772563E+02  0.40597655734E+01  0.36820920546E+02  0.00000000000E+00 0. -1.
         11    1    4    4    0    0 -0.35239513909E+01 -0.83699963454E+00 -0.16229226980E+02  0.16628487918E+02  0.51100000000E-03 0. -1.
        -11    1    4    4    0    0 -0.30049976618E+01 -0.83014466399E+01  0.11775017744E+01  0.89067692208E+01  0.51100000000E-03 0.  1.
         12    1    4    4    0    0 -0.24789553728E+02 -0.97943262884E+01  0.10991959633E+02  0.28831822315E+02  0.00000000000E+00 0. -1.
</event>
<event>
 8    1  0.2531964E-006  0.9118800E+02  0.7816164E-02  0.1184000E+00
        -11   -1    0    0    0    0  0.00000000000E+00  0.00000000000E+00  0.45593999997E+02  0.45594000000E+02  0.51100000000E-03 0.  1.
         11   -1    0    0    0    0 -0.00000000000E+00 -0.00000000000E+00 -0.45593999997E+02  0.45594000000E+02  0.51100000000E-03 0. -1.
         23    2    1    2    0    0  0.00000000000E+00  0.35527136788E-14  0.00000000000E+00  0.91188000000E+02  0.91188000000E+02 0.  0.
    9900012    2    3    3    0    0 -0.12848010379E+02 -0.31295046822E+02 -0.14537140473E+02  0.54367085027E+02  0.40000001936E+02 0.  0.
        -12    1    3    3    0    0  0.12848010379E+02  0.31295046822E+02  0.14537140473E+02  0.36820914973E+02  0.00000000000E+00 0.  1.
         11    1    4    4    0    0 -0.19159474761E+02 -0.51700246400E+01 -0.11869564027E+02  0.23123606517E+02  0.51100000000E-03 0. -1.
        -11    1    4    4    0    0 -0.45980689277E+01 -0.55775636759E+01  0.20337090955E+01  0.75091562354E+01  0.51100000000E-03 0.  1.
         12    1    4    4    0    0  0.10909533309E+02 -0.20547458506E+02 -0.47012855419E+01  0.23734322275E+02  0.00000000000E+00 0. -1.
</event>
<event>
 8    1  0.2531964E-006  0.9118800E+02  0.7816164E-02  0.1184000E+00
        -11   -1    0    0    0    0  0.00000000000E+00  0.00000000000E+00  0.45593999997E+02  0.45594000000E+02  0.51100000000E-03 0. -1.
         11   -1    0    0    0    0 -0.00000000000E+00 -0.00000000000E+00 -0.45593999997E+02  0.45594000000E+02  0.51100000000E-03 0.  1.
         23    2    1    2    0    0  0.00000000000E+00  0.35527136788E-14  0.00000000000E+00  0.91188000000E+02  0.91188000000E+02 0.  0.
    9900012    2    3    3    0    0 -0.20318175661E+02  0.17061671966E+02 -0.25531378688E+02  0.54367079178E+02  0.39999988603E+02 0.  0.
         12    1    3    3    0    0  0.20318175661E+02 -0.17061671966E+02  0.25531378688E+02  0.36820920822E+02  0.00000000000E+00 0. -1.
         11    1    4    4    0    0  0.43199871719E+00  0.51507201971E+00 -0.10764152351E+02  0.10785123929E+02  0.51100000000E-03 0. -1.
        -11    1    4    4    0    0 -0.24728820022E+02  0.60240913396E+01 -0.18788125131E+02  0.31635389398E+02  0.51100000000E-03 0.  1.
         12    1    4    4    0    0  0.39786456441E+01  0.10522508606E+02  0.40208987939E+01  0.11946565851E+02  0.00000000000E+00 0. -1.
</event>
<event>
 8    1  0.2531964E-006  0.9118800E+02  0.7816164E-02  0.1184000E+00
        -11   -1    0    0    0    0  0.00000000000E+00  0.00000000000E+00  0.45593999997E+02  0.45594000000E+02  0.51100000000E-03 0. -1.
         11   -1    0    0    0    0 -0.00000000000E+00 -0.00000000000E+00 -0.45593999997E+02  0.45594000000E+02  0.51100000000E-03 0.  1.
         23    2    1    2    0    0  0.00000000000E+00  0.00000000000E+00  0.00000000000E+00  0.91188000000E+02  0.91188000000E+02 0.  0.
    9900012    2    3    3    0    0  0.49964256161E+01 -0.18750253423E+02 -0.31292865228E+02  0.54367086288E+02  0.40000004812E+02 0.  0.
         12    1    3    3    0    0 -0.49964256161E+01  0.18750253423E+02  0.31292865228E+02  0.36820913712E+02  0.00000000000E+00 0. -1.
         11    1    4    4    0    0  0.74996021072E+01 -0.85648748002E+01 -0.20616173474E+02  0.23550535474E+02  0.51100000000E-03 0.  1.
        -11    1    4    4    0    0 -0.14750178658E+01 -0.10025472125E+02  0.75019633616E+01  0.12608141163E+02  0.51100000000E-03 0. -1.
        -12    1    4    4    0    0 -0.10281586253E+01 -0.15990649728E+00 -0.18178655116E+02  0.18208409652E+02  0.00000000000E+00 0.  1.
</event>
<event>
 8    1  0.2531964E-006  0.9118800E+02  0.7816164E-02  0.1184000E+00
        -11   -1    0    0    0    0  0.00000000000E+00  0.00000000000E+00  0.45593999997E+02  0.45594000000E+02  0.51100000000E-03 0. -1.
         11   -1    0    0    0    0 -0.00000000000E+00 -0.00000000000E+00 -0.45593999997E+02  0.45594000000E+02  0.51100000000E-03 0.  1.
         23    2    1    2    0    0  0.00000000000E+00  0.00000000000E+00 -0.35527136788E-14  0.91188000000E+02  0.91188000000E+02 0.  0.
    9900012    2    3    3    0    0 -0.31429185420E+02 -0.10950317272E+02 -0.15750454005E+02  0.54367082767E+02  0.39999996785E+02 0.  0.
         12    1    3    3    0    0  0.31429185420E+02  0.10950317272E+02  0.15750454005E+02  0.36820917233E+02  0.00000000000E+00 0. -1.
         11    1    4    4    0    0  0.32610674248E+00  0.70386242028E+01  0.34569504710E+01  0.78485083357E+01  0.51100000000E-03 0. -1.
        -11    1    4    4    0    0 -0.96194816877E+01 -0.15774024581E+02 -0.23876108292E+01  0.18629411294E+02  0.51100000000E-03 0.  1.
        -12    1    4    4    0    0 -0.22135810474E+02 -0.22149168930E+01 -0.16819793646E+02  0.27889163138E+02  0.00000000000E+00 0.  1.
</event>
<event>
 8    1  0.2531964E-006  0.9118800E+02  0.7816164E-02  0.1184000E+00
        -11   -1    0    0    0    0  0.00000000000E+00  0.00000000000E+00  0.45593999997E+02  0.45594000000E+02  0.51100000000E-03 0. -1.
         11   -1    0    0    0    0 -0.00000000000E+00 -0.00000000000E+00 -0.45593999997E+02  0.45594000000E+02  0.51100000000E-03 0.  1.
         23    2    1    2    0    0  0.35527136788E-14  0.00000000000E+00  0.00000000000E+00  0.91188000000E+02  0.91188000000E+02 0.  0.
    9900012    2    3    3    0    0  0.22004007713E+02  0.19080843424E+02  0.22528316102E+02  0.54367082472E+02  0.39999996112E+02 0.  0.
        -12    1    3    3    0    0 -0.22004007713E+02 -0.19080843424E+02 -0.22528316102E+02  0.36820917528E+02  0.00000000000E+00 0.  1.
         11    1    4    4    0    0  0.12409900813E+02  0.14245447259E+02  0.32498109073E+02  0.37590763485E+02  0.51100000000E-03 0. -1.
        -11    1    4    4    0    0  0.11079967176E+02  0.45486121578E+01 -0.87604371972E+01  0.14839164576E+02  0.51100000000E-03 0.  1.
        -12    1    4    4    0    0 -0.14858602754E+01  0.28678400633E+00 -0.12093557734E+01  0.19371544108E+01  0.00000000000E+00 0.  1.
</event>
<event>
 8    1  0.2531964E-006  0.9118800E+02  0.7816164E-02  0.1184000E+00
        -11   -1    0    0    0    0  0.00000000000E+00  0.00000000000E+00  0.45593999997E+02  0.45594000000E+02  0.51100000000E-03 0. -1.
         11   -1    0    0    0    0 -0.00000000000E+00 -0.00000000000E+00 -0.45593999997E+02  0.45594000000E+02  0.51100000000E-03 0.  1.
         23    2    1    2    0    0  0.00000000000E+00  0.00000000000E+00  0.00000000000E+00  0.91188000000E+02  0.91188000000E+02 0.  0.
    9900012    2    3    3    0    0 -0.17983001289E+02 -0.20473868900E+02 -0.24763034573E+02  0.54367142808E+02  0.40000133658E+02 0.  0.
         12    1    3    3    0    0  0.17983001289E+02  0.20473868900E+02  0.24763034573E+02  0.36820857192E+02  0.00000000000E+00 0. -1.
         11    1    4    4    0    0  0.83853158728E+01 -0.38187370849E+01 -0.50282737990E+01  0.10496657224E+02  0.51100000000E-03 0. -1.
        -11    1    4    4    0    0 -0.17069639086E+02 -0.21980202915E+02 -0.10567425264E+02  0.29768647529E+02  0.51100000000E-03 0.  1.
        -12    1    4    4    0    0 -0.92986780760E+01  0.53250711002E+01 -0.91673355102E+01  0.14101838055E+02  0.00000000000E+00 0.  1.
</event>
<event>
 8    1  0.2531964E-006  0.9118800E+02  0.7816164E-02  0.1184000E+00
        -11   -1    0    0    0    0  0.00000000000E+00  0.00000000000E+00  0.45593999997E+02  0.45594000000E+02  0.51100000000E-03 0. -1.
         11   -1    0    0    0    0 -0.00000000000E+00 -0.00000000000E+00 -0.45593999997E+02  0.45594000000E+02  0.51100000000E-03 0.  1.
         23    2    1    2    0    0  0.00000000000E+00  0.00000000000E+00  0.00000000000E+00  0.91188000000E+02  0.91188000000E+02 0.  0.
    9900012    2    3    3    0    0 -0.23408254702E+02 -0.15879946526E+02  0.23572460666E+02  0.54367082145E+02  0.39999995366E+02 0.  0.
         12    1    3    3    0    0  0.23408254702E+02  0.15879946526E+02 -0.23572460666E+02  0.36820917855E+02  0.00000000000E+00 0. -1.
         11    1    4    4    0    0 -0.16893853986E+02 -0.14108986162E+01  0.59774789359E+01  0.17975627724E+02  0.51100000000E-03 0. -1.
        -11    1    4    4    0    0 -0.73238991441E+01 -0.30708622944E+01 -0.61470326646E+01  0.10042694098E+02  0.51100000000E-03 0.  1.
         12    1    4    4    0    0  0.80949842817E+00 -0.11398185615E+02  0.23742014394E+02  0.26348760323E+02  0.00000000000E+00 0. -1.
</event>
<event>
 8    1  0.2531964E-006  0.9118800E+02  0.7816164E-02  0.1184000E+00
        -11   -1    0    0    0    0  0.00000000000E+00  0.00000000000E+00  0.45593999997E+02  0.45594000000E+02  0.51100000000E-03 0. -1.
         11   -1    0    0    0    0 -0.00000000000E+00 -0.00000000000E+00 -0.45593999997E+02  0.45594000000E+02  0.51100000000E-03 0.  1.
         23    2    1    2    0    0  0.00000000000E+00  0.44408920985E-15  0.00000000000E+00  0.91188000000E+02  0.91188000000E+02 0.  0.
    9900012    2    3    3    0    0 -0.11094344632E+02  0.18611452751E+01 -0.35060402863E+02  0.54367079405E+02  0.39999989119E+02 0.  0.
         12    1    3    3    0    0  0.11094344632E+02 -0.18611452751E+01  0.35060402863E+02  0.36820920595E+02  0.00000000000E+00 0. -1.
         11    1    4    4    0    0  0.10318955336E+02 -0.28803229445E+01 -0.26689712349E+02  0.28759656553E+02  0.51100000000E-03 0. -1.
        -11    1    4    4    0    0 -0.82208855590E+01  0.32598165552E+00 -0.83124655533E+01  0.11695567846E+02  0.51100000000E-03 0.  1.
         12    1    4    4    0    0 -0.13192414409E+02  0.44154865641E+01 -0.58224960468E-01  0.13911855006E+02  0.00000000000E+00 0. -1.
</event>
<event>
 8    1  0.2531964E-006  0.9118800E+02  0.7816164E-02  0.1184000E+00
        -11   -1    0    0    0    0  0.00000000000E+00  0.00000000000E+00  0.45593999997E+02  0.45594000000E+02  0.51100000000E-03 0.  1.
         11   -1    0    0    0    0 -0.00000000000E+00 -0.00000000000E+00 -0.45593999997E+02  0.45594000000E+02  0.51100000000E-03 0. -1.
         23    2    1    2    0    0  0.35527136788E-14 -0.35527136788E-14  0.35527136788E-14  0.91188000000E+02  0.91188000000E+02 0.  0.
    9900012    2    3    3    0    0  0.17000588077E+02 -0.25807265673E+02  0.20018644419E+02  0.54367067355E+02  0.39999961650E+02 0.  0.
         12    1    3    3    0    0 -0.17000588077E+02  0.25807265673E+02 -0.20018644419E+02  0.36820932645E+02  0.00000000000E+00 0. -1.
         11    1    4    4    0    0  0.14514917944E+02 -0.14296806502E+01  0.47929661689E+01  0.15352503204E+02  0.51100000000E-03 0. -1.
        -11    1    4    4    0    0  0.98868989452E+01 -0.43936690958E+01  0.13966612750E+02  0.17666957035E+02  0.51100000000E-03 0.  1.
         12    1    4    4    0    0 -0.74012288119E+01 -0.19983915927E+02  0.12590654993E+01  0.21347607117E+02  0.00000000000E+00 0. -1.
</event>
<event>
 8    1  0.2531964E-006  0.9118800E+02  0.7816164E-02  0.1184000E+00
        -11   -1    0    0    0    0  0.00000000000E+00  0.00000000000E+00  0.45593999997E+02  0.45594000000E+02  0.51100000000E-03 0.  1.
         11   -1    0    0    0    0 -0.00000000000E+00 -0.00000000000E+00 -0.45593999997E+02  0.45594000000E+02  0.51100000000E-03 0. -1.
         23    2    1    2    0    0  0.00000000000E+00 -0.11102230246E-15  0.00000000000E+00  0.91188000000E+02  0.91188000000E+02 0.  0.
    9900012    2    3    3    0    0 -0.10541144687E+02  0.94318560524E+00  0.35266959410E+02  0.54367302609E+02  0.40000497954E+02 0.  0.
         12    1    3    3    0    0  0.10541144687E+02 -0.94318560524E+00 -0.35266959410E+02  0.36820697391E+02  0.00000000000E+00 0. -1.
         11    1    4    4    0    0 -0.50529121048E+01  0.20452040536E+01 -0.85517088469E+00  0.55177982803E+01  0.51100000000E-03 0. -1.
        -11    1    4    4    0    0 -0.20010565754E+01 -0.31835973130E+01  0.41744640851E+02  0.41913656000E+02  0.51100000000E-03 0.  1.
         12    1    4    4    0    0 -0.34871760064E+01  0.20815788646E+01 -0.56225105566E+01  0.69358483279E+01  0.00000000000E+00 0. -1.
</event>
<event>
 8    1  0.2531964E-006  0.9118800E+02  0.7816164E-02  0.1184000E+00
        -11   -1    0    0    0    0  0.00000000000E+00  0.00000000000E+00  0.45593999997E+02  0.45594000000E+02  0.51100000000E-03 0.  1.
         11   -1    0    0    0    0 -0.00000000000E+00 -0.00000000000E+00 -0.45593999997E+02  0.45594000000E+02  0.51100000000E-03 0. -1.
         23    2    1    2    0    0  0.00000000000E+00  0.35527136788E-14  0.00000000000E+00  0.91188000000E+02  0.91188000000E+02 0.  0.
    9900012    2    3    3    0    0 -0.24107112555E+02 -0.20991727363E+02  0.18274901754E+02  0.54367115606E+02  0.40000071647E+02 0.  0.
         12    1    3    3    0    0  0.24107112555E+02  0.20991727363E+02 -0.18274901754E+02  0.36820884394E+02  0.00000000000E+00 0. -1.
         11    1    4    4    0    0 -0.48550235608E+01 -0.48596699921E+01  0.18441305493E+02  0.19679161435E+02  0.51100000000E-03 0. -1.
        -11    1    4    4    0    0 -0.95800306850E+01  0.39180975658E+01  0.54945861377E+01  0.11718317010E+02  0.51100000000E-03 0.  1.
         12    1    4    4    0    0 -0.96720583094E+01 -0.20050154937E+02 -0.56609898776E+01  0.22969637162E+02  0.00000000000E+00 0. -1.
</event>
<event>
 8    1  0.2531964E-006  0.9118800E+02  0.7816164E-02  0.1184000E+00
        -11   -1    0    0    0    0  0.00000000000E+00  0.00000000000E+00  0.45593999997E+02  0.45594000000E+02  0.51100000000E-03 0. -1.
         11   -1    0    0    0    0 -0.00000000000E+00 -0.00000000000E+00 -0.45593999997E+02  0.45594000000E+02  0.51100000000E-03 0.  1.
         23    2    1    2    0    0  0.00000000000E+00  0.00000000000E+00  0.00000000000E+00  0.91188000000E+02  0.91188000000E+02 0.  0.
    9900012    2    3    3    0    0  0.35409499124E+02  0.40075629494E+01 -0.92674501393E+01  0.54367098041E+02  0.40000031603E+02 0.  0.
         12    1    3    3    0    0 -0.35409499124E+02 -0.40075629494E+01  0.92674501393E+01  0.36820901959E+02  0.00000000000E+00 0. -1.
         11    1    4    4    0    0  0.60641063203E+01 -0.48192871992E+01 -0.14023600930E+02  0.16020621020E+02  0.51100000000E-03 0. -1.
        -11    1    4    4    0    0  0.13329446114E+02  0.78112768251E+01 -0.84084811100E+01  0.17589563217E+02  0.51100000000E-03 0.  1.
         12    1    4    4    0    0  0.16015946690E+02  0.10155733235E+01  0.13164631900E+02  0.20756913803E+02  0.00000000000E+00 0. -1.
</event>
<event>
 8    1  0.2531964E-006  0.9118800E+02  0.7816164E-02  0.1184000E+00
        -11   -1    0    0    0    0  0.00000000000E+00  0.00000000000E+00  0.45593999997E+02  0.45594000000E+02  0.51100000000E-03 0. -1.
         11   -1    0    0    0    0 -0.00000000000E+00 -0.00000000000E+00 -0.45593999997E+02  0.45594000000E+02  0.51100000000E-03 0.  1.
         23    2    1    2    0    0  0.00000000000E+00 -0.17763568394E-14  0.88817841970E-15  0.91188000000E+02  0.91188000000E+02 0.  0.
    9900012    2    3    3    0    0 -0.32733356495E+02  0.15013966823E+02  0.76739162768E+01  0.54367070922E+02  0.39999969780E+02 0.  0.
        -12    1    3    3    0    0  0.32733356495E+02 -0.15013966823E+02 -0.76739162768E+01  0.36820929078E+02  0.00000000000E+00 0.  1.
         11    1    4    4    0    0 -0.69744778971E+01  0.12430925530E+02  0.11928899460E+02  0.18586820440E+02  0.51100000000E-03 0. -1.
        -11    1    4    4    0    0  0.45246388973E+01  0.15897143930E+00 -0.28859954712E+01  0.53690408073E+01  0.51100000000E-03 0.  1.
        -12    1    4    4    0    0 -0.30283517495E+02  0.24240698540E+01 -0.13689877123E+01  0.30411209675E+02  0.00000000000E+00 0.  1.
</event>
<event>
 8    1  0.2531964E-006  0.9118800E+02  0.7816164E-02  0.1184000E+00
        -11   -1    0    0    0    0  0.00000000000E+00  0.00000000000E+00  0.45593999997E+02  0.45594000000E+02  0.51100000000E-03 0. -1.
         11   -1    0    0    0    0 -0.00000000000E+00 -0.00000000000E+00 -0.45593999997E+02  0.45594000000E+02  0.51100000000E-03 0.  1.
         23    2    1    2    0    0 -0.71054273576E-14  0.88817841970E-15  0.00000000000E+00  0.91188000000E+02  0.91188000000E+02 0.  0.
    9900012    2    3    3    0    0  0.35325061100E+02 -0.75806750580E+01  0.71031102735E+01  0.54367071826E+02  0.39999971841E+02 0.  0.
        -12    1    3    3    0    0 -0.35325061100E+02  0.75806750580E+01 -0.71031102735E+01  0.36820928174E+02  0.00000000000E+00 0.  1.
         11    1    4    4    0    0  0.11465940016E+02  0.44203228017E+01  0.13967387213E+02  0.18603627064E+02  0.51100000000E-03 0. -1.
        -11    1    4    4    0    0 -0.26666135938E+01  0.10678243771E+00  0.38622804449E+01  0.46946183065E+01  0.51100000000E-03 0.  1.
         12    1    4    4    0    0  0.26525734678E+02 -0.12107780297E+02 -0.10726557385E+02  0.31068826455E+02  0.00000000000E+00 0. -1.
</event>
<event>
 8    1  0.2531964E-006  0.9118800E+02  0.7816164E-02  0.1184000E+00
        -11   -1    0    0    0    0  0.00000000000E+00  0.00000000000E+00  0.45593999997E+02  0.45594000000E+02  0.51100000000E-03 0.  1.
         11   -1    0    0    0    0 -0.00000000000E+00 -0.00000000000E+00 -0.45593999997E+02  0.45594000000E+02  0.51100000000E-03 0. -1.
         23    2    1    2    0    0  0.00000000000E+00  0.00000000000E+00  0.00000000000E+00  0.91188000000E+02  0.91188000000E+02 0.  0.
    9900012    2    3    3    0    0  0.22185356863E+02 -0.27724525249E+02  0.97439669185E+01  0.54367024310E+02  0.39999863520E+02 0.  0.
        -12    1    3    3    0    0 -0.22185356863E+02  0.27724525249E+02 -0.97439669185E+01  0.36820975690E+02  0.00000000000E+00 0.  1.
         11    1    4    4    0    0  0.24266880434E+01 -0.15623231241E+02 -0.84627481869E+01  0.17932994072E+02  0.51100000000E-03 0. -1.
        -11    1    4    4    0    0  0.21205648436E+02 -0.16033533339E+02  0.18245842969E+02  0.32243828911E+02  0.51100000000E-03 0.  1.
        -12    1    4    4    0    0 -0.14469796165E+01  0.39322393313E+01 -0.39127863382E-01  0.41902013268E+01  0.00000000000E+00 0.  1.
</event>
<event>
 8    1  0.2531964E-006  0.9118800E+02  0.7816164E-02  0.1184000E+00
        -11   -1    0    0    0    0  0.00000000000E+00  0.00000000000E+00  0.45593999997E+02  0.45594000000E+02  0.51100000000E-03 0. -1.
         11   -1    0    0    0    0 -0.00000000000E+00 -0.00000000000E+00 -0.45593999997E+02  0.45594000000E+02  0.51100000000E-03 0.  1.
         23    2    1    2    0    0  0.00000000000E+00  0.17763568394E-14  0.00000000000E+00  0.91188000000E+02  0.91188000000E+02 0.  0.
    9900012    2    3    3    0    0  0.31651831237E+02  0.81520066885E+01  0.16955468065E+02  0.54367061242E+02  0.39999947713E+02 0.  0.
         12    1    3    3    0    0 -0.31651831237E+02 -0.81520066885E+01 -0.16955468065E+02  0.36820938758E+02  0.00000000000E+00 0. -1.
         11    1    4    4    0    0  0.82640449089E+01  0.98415202992E+01  0.12833641191E+02  0.18161836541E+02  0.51100000000E-03 0. -1.
        -11    1    4    4    0    0  0.95376280276E+01 -0.97532346750E+01 -0.82647945318E+01  0.15949882881E+02  0.51100000000E-03 0.  1.
        -12    1    4    4    0    0  0.13850158301E+02  0.80637210643E+01  0.12386621406E+02  0.20255341819E+02  0.00000000000E+00 0.  1.
</event>
<event>
 8    1  0.2531964E-006  0.9118800E+02  0.7816164E-02  0.1184000E+00
        -11   -1    0    0    0    0  0.00000000000E+00  0.00000000000E+00  0.45593999997E+02  0.45594000000E+02  0.51100000000E-03 0. -1.
         11   -1    0    0    0    0 -0.00000000000E+00 -0.00000000000E+00 -0.45593999997E+02  0.45594000000E+02  0.51100000000E-03 0.  1.
         23    2    1    2    0    0 -0.35527136788E-14 -0.71054273576E-14  0.00000000000E+00  0.91188000000E+02  0.91188000000E+02 0.  0.
    9900012    2    3    3    0    0  0.25166057446E+02 -0.23611899524E+02  0.12842324374E+02  0.54367115412E+02  0.40000071205E+02 0.  0.
         12    1    3    3    0    0 -0.25166057446E+02  0.23611899524E+02 -0.12842324374E+02  0.36820884588E+02  0.00000000000E+00 0. -1.
         11    1    4    4    0    0  0.42020397062E+01  0.51265901670E+01  0.11695626265E+00  0.66296865281E+01  0.51100000000E-03 0. -1.
        -11    1    4    4    0    0 -0.35824841128E+01 -0.32318892696E+01  0.11325443168E+02  0.12310360023E+02  0.51100000000E-03 0.  1.
         12    1    4    4    0    0  0.24546501853E+02 -0.25506600421E+02  0.13999249427E+01  0.35427068861E+02  0.00000000000E+00 0. -1.
</event>
<event>
 8    1  0.2531964E-006  0.9118800E+02  0.7816164E-02  0.1184000E+00
        -11   -1    0    0    0    0  0.00000000000E+00  0.00000000000E+00  0.45593999997E+02  0.45594000000E+02  0.51100000000E-03 0.  1.
         11   -1    0    0    0    0 -0.00000000000E+00 -0.00000000000E+00 -0.45593999997E+02  0.45594000000E+02  0.51100000000E-03 0. -1.
         23    2    1    2    0    0 -0.14210854715E-13  0.88817841970E-15  0.00000000000E+00  0.91188000000E+02  0.91188000000E+02 0.  0.
    9900012    2    3    3    0    0  0.35359362590E+02  0.79765048723E+01  0.64707094213E+01  0.54367092445E+02  0.40000018847E+02 0.  0.
        -12    1    3    3    0    0 -0.35359362590E+02 -0.79765048723E+01 -0.64707094213E+01  0.36820907555E+02  0.00000000000E+00 0.  1.
         11    1    4    4    0    0  0.37893538445E+02  0.90915770356E+00  0.15474057088E+01  0.37936015714E+02  0.51100000000E-03 0. -1.
        -11    1    4    4    0    0 -0.73270115236E+01  0.78298454524E+01  0.42350478934E+01  0.11529406255E+02  0.51100000000E-03 0.  1.
        -12    1    4    4    0    0  0.47928356690E+01 -0.76249828360E+00  0.68825581922E+00  0.49016704759E+01  0.00000000000E+00 0.  1.
</event>
<event>
 8    1  0.2531964E-006  0.9118800E+02  0.7816164E-02  0.1184000E+00
        -11   -1    0    0    0    0  0.00000000000E+00  0.00000000000E+00  0.45593999997E+02  0.45594000000E+02  0.51100000000E-03 0. -1.
         11   -1    0    0    0    0 -0.00000000000E+00 -0.00000000000E+00 -0.45593999997E+02  0.45594000000E+02  0.51100000000E-03 0.  1.
         23    2    1    2    0    0 -0.17763568394E-14 -0.35527136788E-14 -0.17763568394E-14  0.91188000000E+02  0.91188000000E+02 0.  0.
    9900012    2    3    3    0    0  0.13105527668E+02 -0.30985180392E+02  0.14964775563E+02  0.54367071616E+02  0.39999971364E+02 0.  0.
        -12    1    3    3    0    0 -0.13105527668E+02  0.30985180392E+02 -0.14964775563E+02  0.36820928384E+02  0.00000000000E+00 0.  1.
         11    1    4    4    0    0 -0.57786168648E+01 -0.11422948504E+02  0.87606026768E+01  0.15512070297E+02  0.51100000000E-03 0. -1.
        -11    1    4    4    0    0  0.81268918837E+01  0.50249594777E+01  0.72547531053E+01  0.11997000972E+02  0.51100000000E-03 0.  1.
         12    1    4    4    0    0  0.10757252649E+02 -0.24587191366E+02 -0.10505802195E+01  0.26858000347E+02  0.00000000000E+00 0. -1.
</event>
<event>
 8    1  0.2531964E-006  0.9118800E+02  0.7816164E-02  0.1184000E+00
        -11   -1    0    0    0    0  0.00000000000E+00  0.00000000000E+00  0.45593999997E+02  0.45594000000E+02  0.51100000000E-03 0.  1.
         11   -1    0    0    0    0 -0.00000000000E+00 -0.00000000000E+00 -0.45593999997E+02  0.45594000000E+02  0.51100000000E-03 0. -1.
         23    2    1    2    0    0  0.00000000000E+00  0.00000000000E+00  0.35527136788E-14  0.91188000000E+02  0.91188000000E+02 0.  0.
    9900012    2    3    3    0    0 -0.21411669881E+02  0.16472428112E+02  0.25019584745E+02  0.54367080460E+02  0.39999991524E+02 0.  0.
         12    1    3    3    0    0  0.21411669881E+02 -0.16472428112E+02 -0.25019584745E+02  0.36820919540E+02  0.00000000000E+00 0. -1.
         11    1    4    4    0    0 -0.12653547757E+01 -0.54199381198E+01 -0.33240954572E+01  0.64827820263E+01  0.51100000000E-03 0. -1.
        -11    1    4    4    0    0  0.16063976687E+01 -0.54170326664E+00 -0.31130812234E+01  0.35447469393E+01  0.51100000000E-03 0.  1.
        -12    1    4    4    0    0 -0.21752712774E+02  0.22434069499E+02  0.31456761426E+02  0.44339551494E+02  0.00000000000E+00 0.  1.
</event>
<event>
 8    1  0.2531964E-006  0.9118800E+02  0.7816164E-02  0.1184000E+00
        -11   -1    0    0    0    0  0.00000000000E+00  0.00000000000E+00  0.45593999997E+02  0.45594000000E+02  0.51100000000E-03 0.  1.
         11   -1    0    0    0    0 -0.00000000000E+00 -0.00000000000E+00 -0.45593999997E+02  0.45594000000E+02  0.51100000000E-03 0. -1.
         23    2    1    2    0    0  0.00000000000E+00 -0.35527136788E-14  0.00000000000E+00  0.91188000000E+02  0.91188000000E+02 0.  0.
    9900012    2    3    3    0    0  0.17967740567E+02  0.26275744675E+02 -0.18507475868E+02  0.54367066792E+02  0.39999960365E+02 0.  0.
        -12    1    3    3    0    0 -0.17967740567E+02 -0.26275744675E+02  0.18507475868E+02  0.36820933208E+02  0.00000000000E+00 0.  1.
         11    1    4    4    0    0 -0.51411706977E+01  0.52859673594E+01  0.24758569808E+01  0.77783645529E+01  0.51100000000E-03 0. -1.
        -11    1    4    4    0    0 -0.35416595242E+01 -0.69387234798E+00  0.29961678110E+01  0.46906111364E+01  0.51100000000E-03 0.  1.
         12    1    4    4    0    0  0.26650570789E+02  0.21683649664E+02 -0.23979500659E+02  0.41898091102E+02  0.00000000000E+00 0. -1.
</event>
<event>
 8    1  0.2531964E-006  0.9118800E+02  0.7816164E-02  0.1184000E+00
        -11   -1    0    0    0    0  0.00000000000E+00  0.00000000000E+00  0.45593999997E+02  0.45594000000E+02  0.51100000000E-03 0.  1.
         11   -1    0    0    0    0 -0.00000000000E+00 -0.00000000000E+00 -0.45593999997E+02  0.45594000000E+02  0.51100000000E-03 0. -1.
         23    2    1    2    0    0 -0.35527136788E-14  0.44408920985E-15 -0.35527136788E-14  0.91188000000E+02  0.91188000000E+02 0.  0.
    9900012    2    3    3    0    0  0.22295496569E+02 -0.25820647332E+01  0.29189438302E+02  0.54367088361E+02  0.40000009537E+02 0.  0.
         12    1    3    3    0    0 -0.22295496569E+02  0.25820647332E+01 -0.29189438302E+02  0.36820911639E+02  0.00000000000E+00 0. -1.
         11    1    4    4    0    0  0.30482397997E+02  0.38105768316E+00  0.31544581634E+02  0.43867783433E+02  0.51100000000E-03 0. -1.
        -11    1    4    4    0    0 -0.38233490978E+00 -0.20762318297E+01  0.45013403407E+00  0.21585966514E+01  0.51100000000E-03 0.  1.
         12    1    4    4    0    0 -0.78045665181E+01 -0.88689058666E+00 -0.28052773664E+01  0.83407082763E+01  0.00000000000E+00 0. -1.
</event>
<event>
 8    1  0.2531964E-006  0.9118800E+02  0.7816164E-02  0.1184000E+00
        -11   -1    0    0    0    0  0.00000000000E+00  0.00000000000E+00  0.45593999997E+02  0.45594000000E+02  0.51100000000E-03 0. -1.
         11   -1    0    0    0    0 -0.00000000000E+00 -0.00000000000E+00 -0.45593999997E+02  0.45594000000E+02  0.51100000000E-03 0.  1.
         23    2    1    2    0    0 -0.17763568394E-14 -0.17763568394E-14  0.00000000000E+00  0.91188000000E+02  0.91188000000E+02 0.  0.
    9900012    2    3    3    0    0  0.11088657130E+02  0.11396180552E+02  0.33210671723E+02  0.54367082515E+02  0.39999996210E+02 0.  0.
        -12    1    3    3    0    0 -0.11088657130E+02 -0.11396180552E+02 -0.33210671723E+02  0.36820917485E+02  0.00000000000E+00 0.  1.
         11    1    4    4    0    0  0.13704400421E+02  0.15165569906E+01  0.47663897286E+00  0.13796293741E+02  0.51100000000E-03 0.  1.
        -11    1    4    4    0    0  0.44361307004E+01  0.11287587808E+02  0.73354651396E+01  0.14173847156E+02  0.51100000000E-03 0. -1.
        -12    1    4    4    0    0 -0.70518739919E+01 -0.14079642474E+01  0.25398567611E+02  0.26396941618E+02  0.00000000000E+00 0.  1.
</event>
<event>
 8    1  0.2531964E-006  0.9118800E+02  0.7816164E-02  0.1184000E+00
        -11   -1    0    0    0    0  0.00000000000E+00  0.00000000000E+00  0.45593999997E+02  0.45594000000E+02  0.51100000000E-03 0.  1.
         11   -1    0    0    0    0 -0.00000000000E+00 -0.00000000000E+00 -0.45593999997E+02  0.45594000000E+02  0.51100000000E-03 0. -1.
         23    2    1    2    0    0  0.35527136788E-14 -0.17763568394E-14 -0.35527136788E-14  0.91188000000E+02  0.91188000000E+02 0.  0.
    9900012    2    3    3    0    0  0.28599529348E+02 -0.14534220955E+02  0.18072169165E+02  0.54367082630E+02  0.39999996471E+02 0.  0.
         12    1    3    3    0    0 -0.28599529348E+02  0.14534220955E+02 -0.18072169165E+02  0.36820917370E+02  0.00000000000E+00 0. -1.
         11    1    4    4    0    0 -0.32299657553E+01  0.35452919988E+01  0.16045149685E-01  0.47960433532E+01  0.51100000000E-03 0. -1.
        -11    1    4    4    0    0  0.18254547195E+01  0.68651567155E+01  0.35649454688E+01  0.79480499569E+01  0.51100000000E-03 0.  1.
         12    1    4    4    0    0  0.30004040383E+02 -0.24944669669E+02  0.14491178546E+02  0.41622989320E+02  0.00000000000E+00 0. -1.
</event>
<event>
 8    1  0.2531964E-006  0.9118800E+02  0.7816164E-02  0.1184000E+00
        -11   -1    0    0    0    0  0.00000000000E+00  0.00000000000E+00  0.45593999997E+02  0.45594000000E+02  0.51100000000E-03 0. -1.
         11   -1    0    0    0    0 -0.00000000000E+00 -0.00000000000E+00 -0.45593999997E+02  0.45594000000E+02  0.51100000000E-03 0.  1.
         23    2    1    2    0    0 -0.44408920985E-15 -0.35527136788E-14  0.00000000000E+00  0.91188000000E+02  0.91188000000E+02 0.  0.
    9900012    2    3    3    0    0 -0.33543650098E+01  0.17390493654E+02 -0.32281420880E+02  0.54367201962E+02  0.40000268512E+02 0.  0.
         12    1    3    3    0    0  0.33543650098E+01 -0.17390493654E+02  0.32281420880E+02  0.36820798038E+02  0.00000000000E+00 0. -1.
         11    1    4    4    0    0  0.83976801735E+01 -0.52667780754E+01 -0.62256440815E+01  0.11705495636E+02  0.51100000000E-03 0. -1.
        -11    1    4    4    0    0 -0.16903649006E+02  0.22963420688E+02 -0.20788127969E+02  0.35287367486E+02  0.51100000000E-03 0.  1.
        -12    1    4    4    0    0  0.51516038230E+01 -0.30614895815E+00 -0.52676488294E+01  0.73743388397E+01  0.00000000000E+00 0.  1.
</event>
<event>
 8    1  0.2531964E-006  0.9118800E+02  0.7816164E-02  0.1184000E+00
        -11   -1    0    0    0    0  0.00000000000E+00  0.00000000000E+00  0.45593999997E+02  0.45594000000E+02  0.51100000000E-03 0. -1.
         11   -1    0    0    0    0 -0.00000000000E+00 -0.00000000000E+00 -0.45593999997E+02  0.45594000000E+02  0.51100000000E-03 0.  1.
         23    2    1    2    0    0  0.26645352591E-14  0.00000000000E+00  0.33306690739E-15  0.91188000000E+02  0.91188000000E+02 0.  0.
    9900012    2    3    3    0    0  0.61035733709E+01  0.36310617041E+02 -0.25303272946E+00  0.54367101812E+02  0.40000040201E+02 0.  0.
         12    1    3    3    0    0 -0.61035733709E+01 -0.36310617041E+02  0.25303272946E+00  0.36820898188E+02  0.00000000000E+00 0. -1.
         11    1    4    4    0    0 -0.54788562655E+01  0.12173758016E+01  0.90752189174E+01  0.10670495231E+02  0.51100000000E-03 0. -1.
        -11    1    4    4    0    0 -0.36302201323E+01  0.11366459855E+02 -0.99024628208E+01  0.15505923966E+02  0.51100000000E-03 0.  1.
        -12    1    4    4    0    0  0.15212649769E+02  0.23726781384E+02  0.57421117401E+00  0.28190682615E+02  0.00000000000E+00 0.  1.
</event>
<event>
 8    1  0.2531964E-006  0.9118800E+02  0.7816164E-02  0.1184000E+00
        -11   -1    0    0    0    0  0.00000000000E+00  0.00000000000E+00  0.45593999997E+02  0.45594000000E+02  0.51100000000E-03 0.  1.
         11   -1    0    0    0    0 -0.00000000000E+00 -0.00000000000E+00 -0.45593999997E+02  0.45594000000E+02  0.51100000000E-03 0. -1.
         23    2    1    2    0    0  0.00000000000E+00  0.00000000000E+00  0.00000000000E+00  0.91188000000E+02  0.91188000000E+02 0.  0.
    9900012    2    3    3    0    0 -0.31826798387E+02  0.11013555034E+02 -0.14884105567E+02  0.54367080829E+02  0.39999992367E+02 0.  0.
        -12    1    3    3    0    0  0.31826798387E+02 -0.11013555034E+02  0.14884105567E+02  0.36820919171E+02  0.00000000000E+00 0.  1.
         11    1    4    4    0    0 -0.13655752510E+02  0.42972200416E+01 -0.14041135770E+02  0.20052410595E+02  0.51100000000E-03 0. -1.
        -11    1    4    4    0    0 -0.20842031604E+02  0.13804343151E+02 -0.52598915921E+01  0.25546362384E+02  0.51100000000E-03 0.  1.
         12    1    4    4    0    0  0.26709857272E+01 -0.70880081589E+01  0.44169217954E+01  0.87683078506E+01  0.00000000000E+00 0. -1.
</event>
<event>
 8    1  0.2531964E-006  0.9118800E+02  0.7816164E-02  0.1184000E+00
        -11   -1    0    0    0    0  0.00000000000E+00  0.00000000000E+00  0.45593999997E+02  0.45594000000E+02  0.51100000000E-03 0. -1.
         11   -1    0    0    0    0 -0.00000000000E+00 -0.00000000000E+00 -0.45593999997E+02  0.45594000000E+02  0.51100000000E-03 0.  1.
         23    2    1    2    0    0  0.00000000000E+00  0.00000000000E+00  0.71054273576E-14  0.91188000000E+02  0.91188000000E+02 0.  0.
    9900012    2    3    3    0    0 -0.25546597311E+02  0.16989558112E+02  0.20359462588E+02  0.54367062534E+02  0.39999950659E+02 0.  0.
        -12    1    3    3    0    0  0.25546597311E+02 -0.16989558112E+02 -0.20359462588E+02  0.36820937466E+02  0.00000000000E+00 0.  1.
         11    1    4    4    0    0 -0.14452991809E+02  0.18770425414E+01  0.19088357647E+02  0.24016195762E+02  0.51100000000E-03 0. -1.
        -11    1    4    4    0    0  0.23936123994E+01  0.15052053802E+02 -0.41793747315E+01  0.15803824771E+02  0.51100000000E-03 0.  1.
        -12    1    4    4    0    0 -0.13487217901E+02  0.60461768544E-01  0.54504796720E+01  0.14547042001E+02  0.00000000000E+00 0.  1.
</event>
<event>
 8    1  0.2531964E-006  0.9118800E+02  0.7816164E-02  0.1184000E+00
        -11   -1    0    0    0    0  0.00000000000E+00  0.00000000000E+00  0.45593999997E+02  0.45594000000E+02  0.51100000000E-03 0.  1.
         11   -1    0    0    0    0 -0.00000000000E+00 -0.00000000000E+00 -0.45593999997E+02  0.45594000000E+02  0.51100000000E-03 0. -1.
         23    2    1    2    0    0  0.00000000000E+00  0.00000000000E+00  0.00000000000E+00  0.91188000000E+02  0.91188000000E+02 0.  0.
    9900012    2    3    3    0    0  0.11789532146E+02 -0.49404629906E+01 -0.34530832448E+02  0.54367087025E+02  0.40000006491E+02 0.  0.
        -12    1    3    3    0    0 -0.11789532146E+02  0.49404629906E+01  0.34530832448E+02  0.36820912975E+02  0.00000000000E+00 0.  1.
         11    1    4    4    0    0  0.10323087980E+02  0.33021907893E+01 -0.26617902486E+02  0.28739925930E+02  0.51100000000E-03 0. -1.
        -11    1    4    4    0    0  0.12057893730E+02 -0.43418089184E+01 -0.61076566495E+01  0.14196745257E+02  0.51100000000E-03 0.  1.
        -12    1    4    4    0    0 -0.10591449564E+02 -0.39008448614E+01 -0.18052733125E+01  0.11430415838E+02  0.00000000000E+00 0.  1.
</event>
<event>
 8    1  0.2531964E-006  0.9118800E+02  0.7816164E-02  0.1184000E+00
        -11   -1    0    0    0    0  0.00000000000E+00  0.00000000000E+00  0.45593999997E+02  0.45594000000E+02  0.51100000000E-03 0.  1.
         11   -1    0    0    0    0 -0.00000000000E+00 -0.00000000000E+00 -0.45593999997E+02  0.45594000000E+02  0.51100000000E-03 0. -1.
         23    2    1    2    0    0  0.00000000000E+00  0.94368957093E-15  0.00000000000E+00  0.91188000000E+02  0.91188000000E+02 0.  0.
    9900012    2    3    3    0    0 -0.29690191856E+02  0.31747885726E+00 -0.21775496437E+02  0.54367074831E+02  0.39999978691E+02 0.  0.
        -12    1    3    3    0    0  0.29690191856E+02 -0.31747885726E+00  0.21775496437E+02  0.36820925169E+02  0.00000000000E+00 0.  1.
         11    1    4    4    0    0  0.51391754022E+01  0.54347544094E+01 -0.66039751497E+01  0.99779841323E+01  0.51100000000E-03 0. -1.
        -11    1    4    4    0    0 -0.16567691437E+02 -0.66231127817E+01  0.35505207543E+01  0.18192312122E+02  0.51100000000E-03 0.  1.
        -12    1    4    4    0    0 -0.18261675821E+02  0.15058372295E+01 -0.18722042041E+02  0.26196778576E+02  0.00000000000E+00 0.  1.
</event>
<event>
 8    1  0.2531964E-006  0.9118800E+02  0.7816164E-02  0.1184000E+00
        -11   -1    0    0    0    0  0.00000000000E+00  0.00000000000E+00  0.45593999997E+02  0.45594000000E+02  0.51100000000E-03 0.  1.
         11   -1    0    0    0    0 -0.00000000000E+00 -0.00000000000E+00 -0.45593999997E+02  0.45594000000E+02  0.51100000000E-03 0. -1.
         23    2    1    2    0    0  0.00000000000E+00  0.35527136788E-14  0.00000000000E+00  0.91188000000E+02  0.91188000000E+02 0.  0.
    9900012    2    3    3    0    0 -0.20864216998E+02 -0.24978141893E+02 -0.17220784418E+02  0.54367101867E+02  0.40000040326E+02 0.  0.
         12    1    3    3    0    0  0.20864216998E+02  0.24978141893E+02  0.17220784418E+02  0.36820898133E+02  0.00000000000E+00 0. -1.
         11    1    4    4    0    0  0.76545984366E+01 -0.11084497945E+02 -0.61474486874E+01  0.14807096189E+02  0.51100000000E-03 0. -1.
        -11    1    4    4    0    0 -0.15359972180E+01  0.48737027697E+01 -0.13972711151E+01  0.52976063435E+01  0.51100000000E-03 0.  1.
         12    1    4    4    0    0 -0.26982818217E+02 -0.18767346717E+02 -0.96760646152E+01  0.34262399335E+02  0.00000000000E+00 0. -1.
</event>
<event>
 8    1  0.2531964E-006  0.9118800E+02  0.7816164E-02  0.1184000E+00
        -11   -1    0    0    0    0  0.00000000000E+00  0.00000000000E+00  0.45593999997E+02  0.45594000000E+02  0.51100000000E-03 0.  1.
         11   -1    0    0    0    0 -0.00000000000E+00 -0.00000000000E+00 -0.45593999997E+02  0.45594000000E+02  0.51100000000E-03 0. -1.
         23    2    1    2    0    0  0.00000000000E+00  0.00000000000E+00  0.00000000000E+00  0.91188000000E+02  0.91188000000E+02 0.  0.
    9900012    2    3    3    0    0 -0.34648126296E+02 -0.85580687099E+01 -0.90579630567E+01  0.54367083518E+02  0.39999998495E+02 0.  0.
        -12    1    3    3    0    0  0.34648126296E+02  0.85580687099E+01  0.90579630567E+01  0.36820916482E+02  0.00000000000E+00 0.  1.
         11    1    4    4    0    0 -0.14785425951E+02  0.55036477623E+01 -0.55769461197E+01  0.16733239003E+02  0.51100000000E-03 0. -1.
        -11    1    4    4    0    0 -0.64921107152E+01  0.71409631057E+01  0.53776692278E+01  0.11048085002E+02  0.51100000000E-03 0.  1.
         12    1    4    4    0    0 -0.13370589630E+02 -0.21202679578E+02 -0.88586861648E+01  0.26585759513E+02  0.00000000000E+00 0. -1.
</event>
<event>
 8    1  0.2531964E-006  0.9118800E+02  0.7816164E-02  0.1184000E+00
        -11   -1    0    0    0    0  0.00000000000E+00  0.00000000000E+00  0.45593999997E+02  0.45594000000E+02  0.51100000000E-03 0.  1.
         11   -1    0    0    0    0 -0.00000000000E+00 -0.00000000000E+00 -0.45593999997E+02  0.45594000000E+02  0.51100000000E-03 0. -1.
         23    2    1    2    0    0  0.00000000000E+00  0.00000000000E+00  0.17763568394E-14  0.91188000000E+02  0.91188000000E+02 0.  0.
    9900012    2    3    3    0    0 -0.33849949553E+02 -0.86508020427E+01  0.11624022219E+02  0.54367172290E+02  0.40000200869E+02 0.  0.
        -12    1    3    3    0    0  0.33849949553E+02  0.86508020427E+01 -0.11624022219E+02  0.36820827710E+02  0.00000000000E+00 0.  1.
         11    1    4    4    0    0  0.19649097315E+01 -0.20781973993E+01 -0.26067453764E+01  0.38697411285E+01  0.51100000000E-03 0. -1.
        -11    1    4    4    0    0 -0.41233795464E+02 -0.49934972040E+01  0.16107920200E+02  0.44549141363E+02  0.51100000000E-03 0.  1.
        -12    1    4    4    0    0  0.54189361799E+01 -0.15791074394E+01 -0.18771526051E+01  0.59482897988E+01  0.00000000000E+00 0.  1.
</event>
<event>
 8    1  0.2531964E-006  0.9118800E+02  0.7816164E-02  0.1184000E+00
        -11   -1    0    0    0    0  0.00000000000E+00  0.00000000000E+00  0.45593999997E+02  0.45594000000E+02  0.51100000000E-03 0.  1.
         11   -1    0    0    0    0 -0.00000000000E+00 -0.00000000000E+00 -0.45593999997E+02  0.45594000000E+02  0.51100000000E-03 0. -1.
         23    2    1    2    0    0  0.35527136788E-14  0.00000000000E+00  0.00000000000E+00  0.91188000000E+02  0.91188000000E+02 0.  0.
    9900012    2    3    3    0    0  0.25545871431E+02  0.25523148888E+02 -0.71942086223E+01  0.54367091347E+02  0.40000016345E+02 0.  0.
        -12    1    3    3    0    0 -0.25545871431E+02 -0.25523148888E+02  0.71942086223E+01  0.36820908653E+02  0.00000000000E+00 0.  1.
         11    1    4    4    0    0  0.60732707541E+01  0.43529450850E+01  0.88455767907E+01  0.11579161351E+02  0.51100000000E-03 0. -1.
        -11    1    4    4    0    0 -0.52759884124E+01 -0.17243658042E+01 -0.24200531749E+00  0.55559029859E+01  0.51100000000E-03 0.  1.
         12    1    4    4    0    0  0.24748589089E+02  0.22894569607E+02 -0.15797780096E+02  0.37232027011E+02  0.00000000000E+00 0. -1.
</event>
<event>
 8    1  0.2531964E-006  0.9118800E+02  0.7816164E-02  0.1184000E+00
        -11   -1    0    0    0    0  0.00000000000E+00  0.00000000000E+00  0.45593999997E+02  0.45594000000E+02  0.51100000000E-03 0. -1.
         11   -1    0    0    0    0 -0.00000000000E+00 -0.00000000000E+00 -0.45593999997E+02  0.45594000000E+02  0.51100000000E-03 0.  1.
         23    2    1    2    0    0  0.35527136788E-14  0.00000000000E+00 -0.53290705182E-14  0.91188000000E+02  0.91188000000E+02 0.  0.
    9900012    2    3    3    0    0  0.27595154225E+02 -0.21964413817E+02 -0.10576009776E+02  0.54367082116E+02  0.39999995300E+02 0.  0.
        -12    1    3    3    0    0 -0.27595154225E+02  0.21964413817E+02  0.10576009776E+02  0.36820917884E+02  0.00000000000E+00 0.  1.
         11    1    4    4    0    0  0.10425811770E+02  0.21825005348E+00  0.60938794774E+01  0.12078102148E+02  0.51100000000E-03 0. -1.
        -11    1    4    4    0    0 -0.11792496543E+00  0.35196523459E+01 -0.10002589127E+02  0.10604416460E+02  0.51100000000E-03 0.  1.
         12    1    4    4    0    0  0.17287267421E+02 -0.25702316216E+02 -0.66673001260E+01  0.31684563508E+02  0.00000000000E+00 0. -1.
</event>
<event>
 8    1  0.2531964E-006  0.9118800E+02  0.7816164E-02  0.1184000E+00
        -11   -1    0    0    0    0  0.00000000000E+00  0.00000000000E+00  0.45593999997E+02  0.45594000000E+02  0.51100000000E-03 0.  1.
         11   -1    0    0    0    0 -0.00000000000E+00 -0.00000000000E+00 -0.45593999997E+02  0.45594000000E+02  0.51100000000E-03 0. -1.
         23    2    1    2    0    0 -0.17763568394E-14  0.35527136788E-14  0.00000000000E+00  0.91188000000E+02  0.91188000000E+02 0.  0.
    9900012    2    3    3    0    0 -0.10804294678E+02  0.15800488652E+02 -0.31454596707E+02  0.54367083674E+02  0.39999998851E+02 0.  0.
        -12    1    3    3    0    0  0.10804294678E+02 -0.15800488652E+02  0.31454596707E+02  0.36820916326E+02  0.00000000000E+00 0.  1.
         11    1    4    4    0    0 -0.17229025003E+02  0.49046363162E+01 -0.28965037297E+02  0.34056836991E+02  0.51100000000E-03 0. -1.
        -11    1    4    4    0    0  0.10200037977E+01  0.35825630907E+01 -0.85879711213E+01  0.93610049828E+01  0.51100000000E-03 0.  1.
        -12    1    4    4    0    0  0.54047265272E+01  0.73132892447E+01  0.60984117113E+01  0.10949241700E+02  0.00000000000E+00 0.  1.
</event>
<event>
 8    1  0.2531964E-006  0.9118800E+02  0.7816164E-02  0.1184000E+00
        -11   -1    0    0    0    0  0.00000000000E+00  0.00000000000E+00  0.45593999997E+02  0.45594000000E+02  0.51100000000E-03 0.  1.
         11   -1    0    0    0    0 -0.00000000000E+00 -0.00000000000E+00 -0.45593999997E+02  0.45594000000E+02  0.51100000000E-03 0. -1.
         23    2    1    2    0    0  0.00000000000E+00  0.35527136788E-14  0.00000000000E+00  0.91188000000E+02  0.91188000000E+02 0.  0.
    9900012    2    3    3    0    0 -0.16374579975E+02  0.22956840776E+02  0.23677718155E+02  0.54367112656E+02  0.40000064922E+02 0.  0.
         12    1    3    3    0    0  0.16374579975E+02 -0.22956840776E+02 -0.23677718155E+02  0.36820887344E+02  0.00000000000E+00 0. -1.
         11    1    4    4    0    0 -0.13550212799E+02  0.48758316205E+01  0.15102616703E+02  0.20867942698E+02  0.51100000000E-03 0. -1.
        -11    1    4    4    0    0 -0.10409380473E+01  0.21615181789E+02 -0.24561038928E+01  0.21779166246E+02  0.51100000000E-03 0.  1.
         12    1    4    4    0    0 -0.17834291288E+01 -0.35341726336E+01  0.11031205345E+02  0.11720003712E+02  0.00000000000E+00 0. -1.
</event>
<event>
 8    1  0.2531964E-006  0.9118800E+02  0.7816164E-02  0.1184000E+00
        -11   -1    0    0    0    0  0.00000000000E+00  0.00000000000E+00  0.45593999997E+02  0.45594000000E+02  0.51100000000E-03 0. -1.
         11   -1    0    0    0    0 -0.00000000000E+00 -0.00000000000E+00 -0.45593999997E+02  0.45594000000E+02  0.51100000000E-03 0.  1.
         23    2    1    2    0    0 -0.44408920985E-15  0.00000000000E+00 -0.35527136788E-14  0.91188000000E+02  0.91188000000E+02 0.  0.
    9900012    2    3    3    0    0  0.28035245195E+01 -0.19856847648E+02  0.30880822088E+02  0.54367091251E+02  0.40000016125E+02 0.  0.
        -12    1    3    3    0    0 -0.28035245195E+01  0.19856847648E+02 -0.30880822088E+02  0.36820908749E+02  0.00000000000E+00 0.  1.
         11    1    4    4    0    0  0.57608970826E+01 -0.22931559708E+01  0.22809503537E+02  0.23637257695E+02  0.51100000000E-03 0. -1.
        -11    1    4    4    0    0 -0.11232922137E+01  0.58158678067E+01  0.33596934695E+01  0.68098196902E+01  0.51100000000E-03 0.  1.
         12    1    4    4    0    0 -0.18340803494E+01 -0.23379559484E+02  0.47116250822E+01  0.23920013866E+02  0.00000000000E+00 0. -1.
</event>
<event>
 8    1  0.2531964E-006  0.9118800E+02  0.7816164E-02  0.1184000E+00
        -11   -1    0    0    0    0  0.00000000000E+00  0.00000000000E+00  0.45593999997E+02  0.45594000000E+02  0.51100000000E-03 0. -1.
         11   -1    0    0    0    0 -0.00000000000E+00 -0.00000000000E+00 -0.45593999997E+02  0.45594000000E+02  0.51100000000E-03 0.  1.
         23    2    1    2    0    0  0.35527136788E-14  0.00000000000E+00  0.00000000000E+00  0.91188000000E+02  0.91188000000E+02 0.  0.
    9900012    2    3    3    0    0 -0.17696041892E+02  0.25804486051E+02 -0.19410004913E+02  0.54367222038E+02  0.40000314279E+02 0.  0.
        -12    1    3    3    0    0  0.17696041892E+02 -0.25804486051E+02  0.19410004913E+02  0.36820777962E+02  0.00000000000E+00 0.  1.
         11    1    4    4    0    0 -0.60292159727E+01 -0.47686913197E+01 -0.62047956074E+01  0.98788334807E+01  0.51100000000E-03 0. -1.
        -11    1    4    4    0    0  0.35945533543E+01  0.91387407216E+01 -0.15204478660E+02  0.18100098546E+02  0.51100000000E-03 0.  1.
         12    1    4    4    0    0 -0.15261379273E+02  0.21434436649E+02  0.19992693541E+01  0.26388290012E+02  0.00000000000E+00 0. -1.
</event>
<event>
 8    1  0.2531964E-006  0.9118800E+02  0.7816164E-02  0.1184000E+00
        -11   -1    0    0    0    0  0.00000000000E+00  0.00000000000E+00  0.45593999997E+02  0.45594000000E+02  0.51100000000E-03 0. -1.
         11   -1    0    0    0    0 -0.00000000000E+00 -0.00000000000E+00 -0.45593999997E+02  0.45594000000E+02  0.51100000000E-03 0.  1.
         23    2    1    2    0    0  0.35527136788E-14  0.00000000000E+00  0.00000000000E+00  0.91188000000E+02  0.91188000000E+02 0.  0.
    9900012    2    3    3    0    0  0.22083650534E+02 -0.36689929055E+01  0.29234054665E+02  0.54367094497E+02  0.40000023526E+02 0.  0.
        -12    1    3    3    0    0 -0.22083650534E+02  0.36689929055E+01 -0.29234054665E+02  0.36820905503E+02  0.00000000000E+00 0.  1.
         11    1    4    4    0    0  0.73054106756E+01  0.15554607792E+02  0.13816113134E+02  0.22049939481E+02  0.51100000000E-03 0. -1.
        -11    1    4    4    0    0  0.13394192246E+01 -0.93847394727E+01  0.12037357616E+02  0.15322054610E+02  0.51100000000E-03 0.  1.
        -12    1    4    4    0    0  0.13438820634E+02 -0.98388612248E+01  0.33805839150E+01  0.16995100407E+02  0.00000000000E+00 0.  1.
</event>
<event>
 8    1  0.2531964E-006  0.9118800E+02  0.7816164E-02  0.1184000E+00
        -11   -1    0    0    0    0  0.00000000000E+00  0.00000000000E+00  0.45593999997E+02  0.45594000000E+02  0.51100000000E-03 0.  1.
         11   -1    0    0    0    0 -0.00000000000E+00 -0.00000000000E+00 -0.45593999997E+02  0.45594000000E+02  0.51100000000E-03 0. -1.
         23    2    1    2    0    0  0.00000000000E+00  0.88817841970E-15 -0.11102230246E-15  0.91188000000E+02  0.91188000000E+02 0.  0.
    9900012    2    3    3    0    0  0.36759556044E+02 -0.20544625044E+01 -0.54125418865E+00  0.54367099239E+02  0.40000034336E+02 0.  0.
        -12    1    3    3    0    0 -0.36759556044E+02  0.20544625044E+01  0.54125418865E+00  0.36820900761E+02  0.00000000000E+00 0.  1.
         11    1    4    4    0    0 -0.29637491523E+01  0.40375062290E+01 -0.76776029245E+00  0.50670229637E+01  0.51100000000E-03 0. -1.
        -11    1    4    4    0    0  0.29551747425E+02 -0.15070865596E+02 -0.70362289057E+01  0.33910843150E+02  0.51100000000E-03 0.  1.
        -12    1    4    4    0    0  0.10171557771E+02  0.89788968630E+01  0.72627350095E+01  0.15389233126E+02  0.00000000000E+00 0.  1.
</event>
<event>
 8    1  0.2531964E-006  0.9118800E+02  0.7816164E-02  0.1184000E+00
        -11   -1    0    0    0    0  0.00000000000E+00  0.00000000000E+00  0.45593999997E+02  0.45594000000E+02  0.51100000000E-03 0.  1.
         11   -1    0    0    0    0 -0.00000000000E+00 -0.00000000000E+00 -0.45593999997E+02  0.45594000000E+02  0.51100000000E-03 0. -1.
         23    2    1    2    0    0  0.00000000000E+00  0.00000000000E+00  0.35527136788E-14  0.91188000000E+02  0.91188000000E+02 0.  0.
    9900012    2    3    3    0    0 -0.20733215552E+02 -0.27583728414E+02 -0.12847304703E+02  0.54367061140E+02  0.39999947482E+02 0.  0.
        -12    1    3    3    0    0  0.20733215552E+02  0.27583728414E+02  0.12847304703E+02  0.36820938860E+02  0.00000000000E+00 0.  1.
         11    1    4    4    0    0  0.50487299897E+01 -0.10977737383E+02 -0.16350305685E+01  0.12193183250E+02  0.51100000000E-03 0. -1.
        -11    1    4    4    0    0 -0.18388039477E+02 -0.47582667169E+01  0.60830331559E+01  0.19944031453E+02  0.51100000000E-03 0.  1.
        -12    1    4    4    0    0 -0.73939060646E+01 -0.11847724315E+02 -0.17295307290E+02  0.22229846437E+02  0.00000000000E+00 0.  1.
</event>
<event>
 8    1  0.2531964E-006  0.9118800E+02  0.7816164E-02  0.1184000E+00
        -11   -1    0    0    0    0  0.00000000000E+00  0.00000000000E+00  0.45593999997E+02  0.45594000000E+02  0.51100000000E-03 0. -1.
         11   -1    0    0    0    0 -0.00000000000E+00 -0.00000000000E+00 -0.45593999997E+02  0.45594000000E+02  0.51100000000E-03 0.  1.
         23    2    1    2    0    0 -0.17763568394E-14  0.00000000000E+00 -0.88817841970E-15  0.91188000000E+02  0.91188000000E+02 0.  0.
    9900012    2    3    3    0    0 -0.12725727559E+02 -0.33906468397E+02  0.66472959084E+01  0.54367091756E+02  0.40000017275E+02 0.  0.
         12    1    3    3    0    0  0.12725727559E+02  0.33906468397E+02 -0.66472959084E+01  0.36820908244E+02  0.00000000000E+00 0. -1.
         11    1    4    4    0    0  0.57391374705E+01 -0.23096922706E+02  0.62466976940E+01  0.24605421552E+02  0.51100000000E-03 0. -1.
        -11    1    4    4    0    0  0.14640764231E+01 -0.42843882571E+01 -0.62901222063E+01  0.77501703298E+01  0.51100000000E-03 0.  1.
         12    1    4    4    0    0 -0.19928941452E+02 -0.65251574333E+01  0.66907204208E+01  0.22011499874E+02  0.00000000000E+00 0. -1.
</event>
<event>
 8    1  0.2531964E-006  0.9118800E+02  0.7816164E-02  0.1184000E+00
        -11   -1    0    0    0    0  0.00000000000E+00  0.00000000000E+00  0.45593999997E+02  0.45594000000E+02  0.51100000000E-03 0. -1.
         11   -1    0    0    0    0 -0.00000000000E+00 -0.00000000000E+00 -0.45593999997E+02  0.45594000000E+02  0.51100000000E-03 0.  1.
         23    2    1    2    0    0  0.00000000000E+00  0.71054273576E-14 -0.17763568394E-14  0.91188000000E+02  0.91188000000E+02 0.  0.
    9900012    2    3    3    0    0 -0.16817141362E+02  0.32193422272E+02 -0.60451369868E+01  0.54367131429E+02  0.40000107718E+02 0.  0.
        -12    1    3    3    0    0  0.16817141362E+02 -0.32193422272E+02  0.60451369868E+01  0.36820868571E+02  0.00000000000E+00 0.  1.
         11    1    4    4    0    0 -0.49957274815E+01  0.30561449848E+02  0.39258855756E+00  0.30969559828E+02  0.51100000000E-03 0. -1.
        -11    1    4    4    0    0 -0.39347279784E+01  0.47905572626E+01  0.58069634424E+01  0.84942538126E+01  0.51100000000E-03 0.  1.
        -12    1    4    4    0    0 -0.78866859024E+01 -0.31585848392E+01 -0.12244688987E+02  0.14903317788E+02  0.00000000000E+00 0.  1.
</event>
<event>
 8    1  0.2531964E-006  0.9118800E+02  0.7816164E-02  0.1184000E+00
        -11   -1    0    0    0    0  0.00000000000E+00  0.00000000000E+00  0.45593999997E+02  0.45594000000E+02  0.51100000000E-03 0.  1.
         11   -1    0    0    0    0 -0.00000000000E+00 -0.00000000000E+00 -0.45593999997E+02  0.45594000000E+02  0.51100000000E-03 0. -1.
         23    2    1    2    0    0  0.00000000000E+00  0.17763568394E-14  0.00000000000E+00  0.91188000000E+02  0.91188000000E+02 0.  0.
    9900012    2    3    3    0    0  0.34814486575E+02  0.11709752907E+02  0.25704763434E+01  0.54367161643E+02  0.40000176598E+02 0.  0.
        -12    1    3    3    0    0 -0.34814486575E+02 -0.11709752907E+02 -0.25704763434E+01  0.36820838357E+02  0.00000000000E+00 0.  1.
         11    1    4    4    0    0  0.13236865612E+02  0.20576637306E+02 -0.46301806193E+01  0.24900827033E+02  0.51100000000E-03 0. -1.
        -11    1    4    4    0    0  0.75707850257E+01 -0.28984623531E+01  0.11104179040E+02  0.13748478546E+02  0.51100000000E-03 0.  1.
         12    1    4    4    0    0  0.14006835937E+02 -0.59684220457E+01 -0.39035220768E+01  0.15717856065E+02  0.00000000000E+00 0. -1.
</event>
<event>
 8    1  0.2531964E-006  0.9118800E+02  0.7816164E-02  0.1184000E+00
        -11   -1    0    0    0    0  0.00000000000E+00  0.00000000000E+00  0.45593999997E+02  0.45594000000E+02  0.51100000000E-03 0.  1.
         11   -1    0    0    0    0 -0.00000000000E+00 -0.00000000000E+00 -0.45593999997E+02  0.45594000000E+02  0.51100000000E-03 0. -1.
         23    2    1    2    0    0  0.88817841970E-15  0.00000000000E+00  0.00000000000E+00  0.91188000000E+02  0.91188000000E+02 0.  0.
    9900012    2    3    3    0    0  0.65221982151E+01  0.25116493649E+02 -0.26122830388E+02  0.54367087596E+02  0.40000007792E+02 0.  0.
         12    1    3    3    0    0 -0.65221982151E+01 -0.25116493649E+02  0.26122830388E+02  0.36820912404E+02  0.00000000000E+00 0. -1.
         11    1    4    4    0    0  0.18362625307E+02  0.22661267871E+02 -0.14500738494E+02  0.32572848921E+02  0.51100000000E-03 0. -1.
        -11    1    4    4    0    0 -0.48186220191E+01  0.80728888248E+01 -0.66811107753E+01  0.11533771872E+02  0.51100000000E-03 0.  1.
         12    1    4    4    0    0 -0.70218050732E+01 -0.56176630467E+01 -0.49409811196E+01  0.10260466803E+02  0.00000000000E+00 0. -1.
</event>
<event>
 8    1  0.2531964E-006  0.9118800E+02  0.7816164E-02  0.1184000E+00
        -11   -1    0    0    0    0  0.00000000000E+00  0.00000000000E+00  0.45593999997E+02  0.45594000000E+02  0.51100000000E-03 0.  1.
         11   -1    0    0    0    0 -0.00000000000E+00 -0.00000000000E+00 -0.45593999997E+02  0.45594000000E+02  0.51100000000E-03 0. -1.
         23    2    1    2    0    0  0.88817841970E-15  0.00000000000E+00  0.00000000000E+00  0.91188000000E+02  0.91188000000E+02 0.  0.
    9900012    2    3    3    0    0 -0.45716506390E+01 -0.31468185677E+02 -0.18564293661E+02  0.54367086127E+02  0.40000004443E+02 0.  0.
        -12    1    3    3    0    0  0.45716506390E+01  0.31468185677E+02  0.18564293661E+02  0.36820913873E+02  0.00000000000E+00 0.  1.
         11    1    4    4    0    0  0.12440151018E+02 -0.26673112378E+02 -0.10771126573E+02  0.31340540027E+02  0.51100000000E-03 0. -1.
        -11    1    4    4    0    0 -0.10069182459E+02 -0.25402540180E+01  0.22355209649E+01  0.10622564667E+02  0.51100000000E-03 0.  1.
         12    1    4    4    0    0 -0.69426191979E+01 -0.22548192809E+01 -0.10028688053E+02  0.12403981433E+02  0.00000000000E+00 0. -1.
</event>
<event>
 8    1  0.2531964E-006  0.9118800E+02  0.7816164E-02  0.1184000E+00
        -11   -1    0    0    0    0  0.00000000000E+00  0.00000000000E+00  0.45593999997E+02  0.45594000000E+02  0.51100000000E-03 0. -1.
         11   -1    0    0    0    0 -0.00000000000E+00 -0.00000000000E+00 -0.45593999997E+02  0.45594000000E+02  0.51100000000E-03 0.  1.
         23    2    1    2    0    0  0.00000000000E+00  0.17763568394E-14 -0.35527136788E-14  0.91188000000E+02  0.91188000000E+02 0.  0.
    9900012    2    3    3    0    0  0.19774806410E+02  0.10326537701E+02 -0.29293323386E+02  0.54367093650E+02  0.40000021594E+02 0.  0.
         12    1    3    3    0    0 -0.19774806410E+02 -0.10326537701E+02  0.29293323386E+02  0.36820906350E+02  0.00000000000E+00 0. -1.
         11    1    4    4    0    0  0.20587735924E+01  0.11370795615E+02 -0.94114614333E+01  0.14903326749E+02  0.51100000000E-03 0. -1.
        -11    1    4    4    0    0  0.23590296912E+02 -0.56072123626E+01 -0.81651335321E+01  0.25585393191E+02  0.51100000000E-03 0.  1.
        -12    1    4    4    0    0 -0.58742640945E+01  0.45629544481E+01 -0.11716728421E+02  0.13878373710E+02  0.00000000000E+00 0.  1.
</event>
<event>
 8    1  0.2531964E-006  0.9118800E+02  0.7816164E-02  0.1184000E+00
        -11   -1    0    0    0    0  0.00000000000E+00  0.00000000000E+00  0.45593999997E+02  0.45594000000E+02  0.51100000000E-03 0. -1.
         11   -1    0    0    0    0 -0.00000000000E+00 -0.00000000000E+00 -0.45593999997E+02  0.45594000000E+02  0.51100000000E-03 0.  1.
         23    2    1    2    0    0  0.35527136788E-14  0.17763568394E-14 -0.71054273576E-14  0.91188000000E+02  0.91188000000E+02 0.  0.
    9900012    2    3    3    0    0 -0.20432759854E+02 -0.87449589271E+01  0.29356570767E+02  0.54367078921E+02  0.39999988016E+02 0.  0.
        -12    1    3    3    0    0  0.20432759854E+02  0.87449589271E+01 -0.29356570767E+02  0.36820921079E+02  0.00000000000E+00 0.  1.
         11    1    4    4    0    0 -0.26653124595E+02  0.63347060978E+01  0.18062372033E+02  0.32814125552E+02  0.51100000000E-03 0. -1.
        -11    1    4    4    0    0 -0.19295613104E+01 -0.52173055763E+01  0.34016294348E+01  0.65203195781E+01  0.51100000000E-03 0.  1.
         12    1    4    4    0    0  0.81499260516E+01 -0.98623594485E+01  0.78925692993E+01  0.15032633791E+02  0.00000000000E+00 0. -1.
</event>
<event>
 8    1  0.2531964E-006  0.9118800E+02  0.7816164E-02  0.1184000E+00
        -11   -1    0    0    0    0  0.00000000000E+00  0.00000000000E+00  0.45593999997E+02  0.45594000000E+02  0.51100000000E-03 0. -1.
         11   -1    0    0    0    0 -0.00000000000E+00 -0.00000000000E+00 -0.45593999997E+02  0.45594000000E+02  0.51100000000E-03 0.  1.
         23    2    1    2    0    0 -0.88817841970E-15  0.00000000000E+00 -0.71054273576E-14  0.91188000000E+02  0.91188000000E+02 0.  0.
    9900012    2    3    3    0    0 -0.70018043223E+01  0.14574884977E+02  0.33080625695E+02  0.54367077520E+02  0.39999984823E+02 0.  0.
        -12    1    3    3    0    0  0.70018043223E+01 -0.14574884977E+02 -0.33080625695E+02  0.36820922480E+02  0.00000000000E+00 0.  1.
         11    1    4    4    0    0 -0.38802161998E+01 -0.10656823708E+02  0.32013902910E+01  0.11784433349E+02  0.51100000000E-03 0. -1.
        -11    1    4    4    0    0  0.40777659857E+01  0.10960352378E+02  0.21644662430E+02  0.24601807081E+02  0.51100000000E-03 0.  1.
        -12    1    4    4    0    0 -0.71993541082E+01  0.14271356307E+02  0.82345729744E+01  0.17980837091E+02  0.00000000000E+00 0.  1.
</event>
<event>
 8    1  0.2531964E-006  0.9118800E+02  0.7816164E-02  0.1184000E+00
        -11   -1    0    0    0    0  0.00000000000E+00  0.00000000000E+00  0.45593999997E+02  0.45594000000E+02  0.51100000000E-03 0.  1.
         11   -1    0    0    0    0 -0.00000000000E+00 -0.00000000000E+00 -0.45593999997E+02  0.45594000000E+02  0.51100000000E-03 0. -1.
         23    2    1    2    0    0  0.00000000000E+00 -0.17763568394E-14  0.71054273576E-14  0.91188000000E+02  0.91188000000E+02 0.  0.
    9900012    2    3    3    0    0  0.28918360620E+01  0.84012149916E+01 -0.35732856619E+02  0.54367079706E+02  0.39999989805E+02 0.  0.
        -12    1    3    3    0    0 -0.28918360620E+01 -0.84012149916E+01  0.35732856619E+02  0.36820920294E+02  0.00000000000E+00 0.  1.
         11    1    4    4    0    0  0.11321533378E+02 -0.66856422373E+01 -0.84236714066E+01  0.15615158353E+02  0.51100000000E-03 0. -1.
        -11    1    4    4    0    0  0.23550374439E+01  0.82259195096E+01  0.47326491123E-01  0.85565292729E+01  0.51100000000E-03 0.  1.
        -12    1    4    4    0    0 -0.10784734760E+02  0.68609377193E+01 -0.27356511704E+02  0.30195392080E+02  0.00000000000E+00 0.  1.
</event>
<event>
 8    1  0.2531964E-006  0.9118800E+02  0.7816164E-02  0.1184000E+00
        -11   -1    0    0    0    0  0.00000000000E+00  0.00000000000E+00  0.45593999997E+02  0.45594000000E+02  0.51100000000E-03 0.  1.
         11   -1    0    0    0    0 -0.00000000000E+00 -0.00000000000E+00 -0.45593999997E+02  0.45594000000E+02  0.51100000000E-03 0. -1.
         23    2    1    2    0    0  0.00000000000E+00 -0.26645352591E-14  0.00000000000E+00  0.91188000000E+02  0.91188000000E+02 0.  0.
    9900012    2    3    3    0    0  0.20613279015E+02 -0.25652475202E+01  0.30402215192E+02  0.54367048693E+02  0.39999919105E+02 0.  0.
         12    1    3    3    0    0 -0.20613279015E+02  0.25652475202E+01 -0.30402215192E+02  0.36820951307E+02  0.00000000000E+00 0. -1.
         11    1    4    4    0    0  0.16694732914E+01  0.75890763640E+01  0.10859911149E+02  0.13353609682E+02  0.51100000000E-03 0. -1.
        -11    1    4    4    0    0  0.74560312184E+01  0.74899099138E+01  0.16706918237E+02  0.19768972388E+02  0.51100000000E-03 0.  1.
         12    1    4    4    0    0  0.11487774505E+02 -0.17644233798E+02  0.28353858063E+01  0.21244466623E+02  0.00000000000E+00 0. -1.
</event>
<event>
 8    1  0.2531964E-006  0.9118800E+02  0.7816164E-02  0.1184000E+00
        -11   -1    0    0    0    0  0.00000000000E+00  0.00000000000E+00  0.45593999997E+02  0.45594000000E+02  0.51100000000E-03 0.  1.
         11   -1    0    0    0    0 -0.00000000000E+00 -0.00000000000E+00 -0.45593999997E+02  0.45594000000E+02  0.51100000000E-03 0. -1.
         23    2    1    2    0    0  0.72164496601E-15  0.00000000000E+00  0.00000000000E+00  0.91188000000E+02  0.91188000000E+02 0.  0.
    9900012    2    3    3    0    0  0.38656824183E+00  0.48917443843E+01  0.36492522246E+02  0.54367044309E+02  0.39999909110E+02 0.  0.
         12    1    3    3    0    0 -0.38656824183E+00 -0.48917443843E+01 -0.36492522246E+02  0.36820955691E+02  0.00000000000E+00 0. -1.
         11    1    4    4    0    0  0.96395761093E+01 -0.14691713686E+02  0.16403940406E+02  0.24038659275E+02  0.51100000000E-03 0. -1.
        -11    1    4    4    0    0 -0.41780697262E+01  0.47787646247E+01  0.95258520262E+01  0.11447039576E+02  0.51100000000E-03 0.  1.
         12    1    4    4    0    0 -0.50749381413E+01  0.14804693446E+02  0.10562729814E+02  0.18881345458E+02  0.00000000000E+00 0. -1.
</event>
<event>
 8    1  0.2531964E-006  0.9118800E+02  0.7816164E-02  0.1184000E+00
        -11   -1    0    0    0    0  0.00000000000E+00  0.00000000000E+00  0.45593999997E+02  0.45594000000E+02  0.51100000000E-03 0.  1.
         11   -1    0    0    0    0 -0.00000000000E+00 -0.00000000000E+00 -0.45593999997E+02  0.45594000000E+02  0.51100000000E-03 0. -1.
         23    2    1    2    0    0 -0.17763568394E-14  0.17763568394E-14 -0.71054273576E-14  0.91188000000E+02  0.91188000000E+02 0.  0.
    9900012    2    3    3    0    0 -0.11895138811E+02  0.10097167594E+02 -0.33351651396E+02  0.54367085134E+02  0.40000002179E+02 0.  0.
        -12    1    3    3    0    0  0.11895138811E+02 -0.10097167594E+02  0.33351651396E+02  0.36820914866E+02  0.00000000000E+00 0.  1.
         11    1    4    4    0    0  0.64973557591E+01  0.24142242608E+01 -0.37125097496E+01  0.78630044859E+01  0.51100000000E-03 0. -1.
        -11    1    4    4    0    0 -0.10213704311E+02  0.18114826576E+02 -0.24864319944E+02  0.32414519959E+02  0.51100000000E-03 0.  1.
        -12    1    4    4    0    0 -0.81787902591E+01 -0.10431883243E+02 -0.47748217026E+01  0.14089560689E+02  0.00000000000E+00 0.  1.
</event>
<event>
 8    1  0.2531964E-006  0.9118800E+02  0.7816164E-02  0.1184000E+00
        -11   -1    0    0    0    0  0.00000000000E+00  0.00000000000E+00  0.45593999997E+02  0.45594000000E+02  0.51100000000E-03 0.  1.
         11   -1    0    0    0    0 -0.00000000000E+00 -0.00000000000E+00 -0.45593999997E+02  0.45594000000E+02  0.51100000000E-03 0. -1.
         23    2    1    2    0    0  0.35527136788E-14  0.17763568394E-14  0.00000000000E+00  0.91188000000E+02  0.91188000000E+02 0.  0.
    9900012    2    3    3    0    0  0.26385936285E+02  0.12906754792E+02  0.22203112679E+02  0.54367079785E+02  0.39999989985E+02 0.  0.
         12    1    3    3    0    0 -0.26385936285E+02 -0.12906754792E+02 -0.22203112679E+02  0.36820920215E+02  0.00000000000E+00 0. -1.
         11    1    4    4    0    0  0.19329708212E+02  0.31295586065E+01 -0.30423515340E+01  0.19816348295E+02  0.51100000000E-03 0. -1.
        -11    1    4    4    0    0  0.13296062648E+02  0.10352550817E+02  0.21243864536E+02  0.27115721842E+02  0.51100000000E-03 0.  1.
         12    1    4    4    0    0 -0.62398345753E+01 -0.57535463119E+00  0.40015996771E+01  0.74350096473E+01  0.00000000000E+00 0. -1.
</event>
<event>
 8    1  0.2531964E-006  0.9118800E+02  0.7816164E-02  0.1184000E+00
        -11   -1    0    0    0    0  0.00000000000E+00  0.00000000000E+00  0.45593999997E+02  0.45594000000E+02  0.51100000000E-03 0. -1.
         11   -1    0    0    0    0 -0.00000000000E+00 -0.00000000000E+00 -0.45593999997E+02  0.45594000000E+02  0.51100000000E-03 0.  1.
         23    2    1    2    0    0  0.00000000000E+00  0.00000000000E+00 -0.35527136788E-14  0.91188000000E+02  0.91188000000E+02 0.  0.
    9900012    2    3    3    0    0 -0.22756255964E+02  0.17172318846E+02  0.23303303944E+02  0.54367086177E+02  0.40000004558E+02 0.  0.
        -12    1    3    3    0    0  0.22756255964E+02 -0.17172318846E+02 -0.23303303944E+02  0.36820913823E+02  0.00000000000E+00 0.  1.
         11    1    4    4    0    0 -0.25640384365E+02  0.19883205841E+02  0.27686561484E+02  0.42653450880E+02  0.51100000000E-03 0. -1.
        -11    1    4    4    0    0  0.11106692515E+01  0.35520283615E+01 -0.35643404248E+01  0.51531557897E+01  0.51100000000E-03 0.  1.
         12    1    4    4    0    0  0.17734591495E+01 -0.62629153569E+01 -0.81891711586E+00  0.65604795073E+01  0.00000000000E+00 0. -1.
</event>
<event>
 8    1  0.2531964E-006  0.9118800E+02  0.7816164E-02  0.1184000E+00
        -11   -1    0    0    0    0  0.00000000000E+00  0.00000000000E+00  0.45593999997E+02  0.45594000000E+02  0.51100000000E-03 0. -1.
         11   -1    0    0    0    0 -0.00000000000E+00 -0.00000000000E+00 -0.45593999997E+02  0.45594000000E+02  0.51100000000E-03 0.  1.
         23    2    1    2    0    0  0.26645352591E-14  0.00000000000E+00 -0.35527136788E-14  0.91188000000E+02  0.91188000000E+02 0.  0.
    9900012    2    3    3    0    0 -0.10986390796E+01  0.22578460754E+02 -0.29065233582E+02  0.54367058933E+02  0.39999942451E+02 0.  0.
         12    1    3    3    0    0  0.10986390796E+01 -0.22578460754E+02  0.29065233582E+02  0.36820941067E+02  0.00000000000E+00 0. -1.
         11    1    4    4    0    0 -0.79118525680E+01 -0.16801879942E+01 -0.65401265801E+00  0.81146888771E+01  0.51100000000E-03 0. -1.
        -11    1    4    4    0    0  0.94373333930E+01  0.34998741811E+01 -0.22280747364E+02  0.24448805374E+02  0.51100000000E-03 0.  1.
        -12    1    4    4    0    0 -0.26241199046E+01  0.20758774567E+02 -0.61304735604E+01  0.21803564683E+02  0.00000000000E+00 0.  1.
</event>
<event>
 8    1  0.2531964E-006  0.9118800E+02  0.7816164E-02  0.1184000E+00
        -11   -1    0    0    0    0  0.00000000000E+00  0.00000000000E+00  0.45593999997E+02  0.45594000000E+02  0.51100000000E-03 0.  1.
         11   -1    0    0    0    0 -0.00000000000E+00 -0.00000000000E+00 -0.45593999997E+02  0.45594000000E+02  0.51100000000E-03 0. -1.
         23    2    1    2    0    0  0.00000000000E+00  0.00000000000E+00  0.00000000000E+00  0.91188000000E+02  0.91188000000E+02 0.  0.
    9900012    2    3    3    0    0 -0.26356418223E+02 -0.13422705668E+02 -0.21930928287E+02  0.54366872579E+02  0.39999517616E+02 0.  0.
        -12    1    3    3    0    0  0.26356418223E+02  0.13422705668E+02  0.21930928287E+02  0.36821127421E+02  0.00000000000E+00 0.  1.
         11    1    4    4    0    0 -0.91264868820E+01 -0.74944261250E+01 -0.56663991002E+00  0.11822870497E+02  0.51100000000E-03 0. -1.
        -11    1    4    4    0    0 -0.21429835067E+02  0.70889893065E+01 -0.16752616295E+02  0.28109460212E+02  0.51100000000E-03 0.  1.
        -12    1    4    4    0    0  0.41999037259E+01 -0.13017268850E+02 -0.46116720814E+01  0.14434541870E+02  0.00000000000E+00 0.  1.
</event>
<event>
 8    1  0.2531964E-006  0.9118800E+02  0.7816164E-02  0.1184000E+00
        -11   -1    0    0    0    0  0.00000000000E+00  0.00000000000E+00  0.45593999997E+02  0.45594000000E+02  0.51100000000E-03 0. -1.
         11   -1    0    0    0    0 -0.00000000000E+00 -0.00000000000E+00 -0.45593999997E+02  0.45594000000E+02  0.51100000000E-03 0.  1.
         23    2    1    2    0    0  0.35527136788E-14  0.00000000000E+00  0.00000000000E+00  0.91188000000E+02  0.91188000000E+02 0.  0.
    9900012    2    3    3    0    0  0.28445830299E+02 -0.20813635041E+02  0.10649260446E+02  0.54367090002E+02  0.40000013278E+02 0.  0.
        -12    1    3    3    0    0 -0.28445830299E+02  0.20813635041E+02 -0.10649260446E+02  0.36820909998E+02  0.00000000000E+00 0.  1.
         11    1    4    4    0    0  0.14218188983E+00 -0.81120943092E+00 -0.44007935797E+00  0.93378077355E+00  0.51100000000E-03 0.  1.
        -11    1    4    4    0    0 -0.60820800756E+00 -0.17525459044E+02 -0.73916004046E+01  0.19030170479E+02  0.51100000000E-03 0. -1.
         12    1    4    4    0    0  0.28911856417E+02 -0.24769665663E+01  0.18480940208E+02  0.34403138749E+02  0.00000000000E+00 0. -1.
</event>
<event>
 8    1  0.2531964E-006  0.9118800E+02  0.7816164E-02  0.1184000E+00
        -11   -1    0    0    0    0  0.00000000000E+00  0.00000000000E+00  0.45593999997E+02  0.45594000000E+02  0.51100000000E-03 0.  1.
         11   -1    0    0    0    0 -0.00000000000E+00 -0.00000000000E+00 -0.45593999997E+02  0.45594000000E+02  0.51100000000E-03 0. -1.
         23    2    1    2    0    0  0.00000000000E+00  0.00000000000E+00  0.00000000000E+00  0.91188000000E+02  0.91188000000E+02 0.  0.
    9900012    2    3    3    0    0 -0.16871082715E+02 -0.32714440223E+02 -0.95560713958E+00  0.54367065519E+02  0.39999957463E+02 0.  0.
         12    1    3    3    0    0  0.16871082715E+02  0.32714440223E+02  0.95560713958E+00  0.36820934481E+02  0.00000000000E+00 0. -1.
         11    1    4    4    0    0 -0.35794287858E-01 -0.23183869835E+02 -0.25449738162E+01  0.23323164317E+02  0.51100000000E-03 0. -1.
        -11    1    4    4    0    0 -0.60344861339E+01  0.52845241855E+01 -0.71389391757E+01  0.10738047848E+02  0.51100000000E-03 0.  1.
        -12    1    4    4    0    0 -0.10800802293E+02 -0.14815094573E+02  0.87283058523E+01  0.20305853354E+02  0.00000000000E+00 0.  1.
</event>
<event>
 8    1  0.2531964E-006  0.9118800E+02  0.7816164E-02  0.1184000E+00
        -11   -1    0    0    0    0  0.00000000000E+00  0.00000000000E+00  0.45593999997E+02  0.45594000000E+02  0.51100000000E-03 0.  1.
         11   -1    0    0    0    0 -0.00000000000E+00 -0.00000000000E+00 -0.45593999997E+02  0.45594000000E+02  0.51100000000E-03 0. -1.
         23    2    1    2    0    0  0.17763568394E-14 -0.88817841970E-15  0.00000000000E+00  0.91188000000E+02  0.91188000000E+02 0.  0.
    9900012    2    3    3    0    0  0.15806636964E+02  0.70563938719E+01  0.32498273525E+02  0.54367078655E+02  0.39999987409E+02 0.  0.
         12    1    3    3    0    0 -0.15806636964E+02 -0.70563938719E+01 -0.32498273525E+02  0.36820921345E+02  0.00000000000E+00 0. -1.
         11    1    4    4    0    0  0.14978375615E+02  0.97415651468E+00  0.76480043326E+00  0.15029492238E+02  0.51100000000E-03 0. -1.
        -11    1    4    4    0    0 -0.39835010254E+00 -0.26103925025E+01 -0.27154611187E+01  0.37876854634E+01  0.51100000000E-03 0.  1.
        -12    1    4    4    0    0  0.12266114517E+01  0.86926298597E+01  0.34448934211E+02  0.35549900953E+02  0.00000000000E+00 0.  1.
</event>
<event>
 8    1  0.2531964E-006  0.9118800E+02  0.7816164E-02  0.1184000E+00
        -11   -1    0    0    0    0  0.00000000000E+00  0.00000000000E+00  0.45593999997E+02  0.45594000000E+02  0.51100000000E-03 0.  1.
         11   -1    0    0    0    0 -0.00000000000E+00 -0.00000000000E+00 -0.45593999997E+02  0.45594000000E+02  0.51100000000E-03 0. -1.
         23    2    1    2    0    0  0.00000000000E+00  0.00000000000E+00  0.35527136788E-14  0.91188000000E+02  0.91188000000E+02 0.  0.
    9900012    2    3    3    0    0  0.56013520949E+01  0.18151086653E+02  0.31542713831E+02  0.54367083556E+02  0.39999998582E+02 0.  0.
         12    1    3    3    0    0 -0.56013520949E+01 -0.18151086653E+02 -0.31542713831E+02  0.36820916444E+02  0.00000000000E+00 0. -1.
         11    1    4    4    0    0  0.14331031587E+02 -0.28502465461E+01  0.47864553775E+01  0.15375712245E+02  0.51100000000E-03 0. -1.
        -11    1    4    4    0    0 -0.72565435467E+01  0.13889659520E+02  0.27540102705E+02  0.31686547983E+02  0.51100000000E-03 0.  1.
         12    1    4    4    0    0 -0.14731359451E+01  0.71116736794E+01 -0.78384425099E+00  0.73048233274E+01  0.00000000000E+00 0. -1.
</event>
<event>
 8    1  0.2531964E-006  0.9118800E+02  0.7816164E-02  0.1184000E+00
        -11   -1    0    0    0    0  0.00000000000E+00  0.00000000000E+00  0.45593999997E+02  0.45594000000E+02  0.51100000000E-03 0.  1.
         11   -1    0    0    0    0 -0.00000000000E+00 -0.00000000000E+00 -0.45593999997E+02  0.45594000000E+02  0.51100000000E-03 0. -1.
         23    2    1    2    0    0  0.00000000000E+00 -0.22204460493E-14  0.71054273576E-14  0.91188000000E+02  0.91188000000E+02 0.  0.
    9900012    2    3    3    0    0  0.10881447224E+02 -0.16082231213E+01 -0.35139580333E+02  0.54367049696E+02  0.39999921392E+02 0.  0.
        -12    1    3    3    0    0 -0.10881447224E+02  0.16082231213E+01  0.35139580333E+02  0.36820950304E+02  0.00000000000E+00 0.  1.
         11    1    4    4    0    0 -0.34283412028E+01  0.15509303835E+01 -0.59281305504E+01  0.70215126960E+01  0.51100000000E-03 0. -1.
        -11    1    4    4    0    0  0.47727417866E+01 -0.18517033927E+02 -0.16349923498E+02  0.25159085998E+02  0.51100000000E-03 0.  1.
         12    1    4    4    0    0  0.95370466401E+01  0.15357880422E+02 -0.12861526285E+02  0.22186451002E+02  0.00000000000E+00 0. -1.
</event>
<event>
 8    1  0.2531964E-006  0.9118800E+02  0.7816164E-02  0.1184000E+00
        -11   -1    0    0    0    0  0.00000000000E+00  0.00000000000E+00  0.45593999997E+02  0.45594000000E+02  0.51100000000E-03 0.  1.
         11   -1    0    0    0    0 -0.00000000000E+00 -0.00000000000E+00 -0.45593999997E+02  0.45594000000E+02  0.51100000000E-03 0. -1.
         23    2    1    2    0    0  0.00000000000E+00  0.00000000000E+00  0.00000000000E+00  0.91188000000E+02  0.91188000000E+02 0.  0.
    9900012    2    3    3    0    0 -0.29086294365E+02 -0.20878039012E+02  0.85951499482E+01  0.54367059824E+02  0.39999944480E+02 0.  0.
         12    1    3    3    0    0  0.29086294365E+02  0.20878039012E+02 -0.85951499482E+01  0.36820940176E+02  0.00000000000E+00 0. -1.
         11    1    4    4    0    0 -0.14867598794E+01  0.76879216551E+01  0.18171747294E+01  0.80384524986E+01  0.51100000000E-03 0. -1.
        -11    1    4    4    0    0  0.55515412771E+00  0.28859678819E+01  0.25746859201E+01  0.39071747554E+01  0.51100000000E-03 0.  1.
        -12    1    4    4    0    0 -0.28154688613E+02 -0.31451928549E+02  0.42032892987E+01  0.42421432570E+02  0.00000000000E+00 0.  1.
</event>
<event>
 8    1  0.2531964E-006  0.9118800E+02  0.7816164E-02  0.1184000E+00
        -11   -1    0    0    0    0  0.00000000000E+00  0.00000000000E+00  0.45593999997E+02  0.45594000000E+02  0.51100000000E-03 0.  1.
         11   -1    0    0    0    0 -0.00000000000E+00 -0.00000000000E+00 -0.45593999997E+02  0.45594000000E+02  0.51100000000E-03 0. -1.
         23    2    1    2    0    0  0.00000000000E+00  0.00000000000E+00  0.00000000000E+00  0.91188000000E+02  0.91188000000E+02 0.  0.
    9900012    2    3    3    0    0 -0.25647641105E+02  0.24057396897E+02  0.10918638273E+02  0.54367129540E+02  0.40000103412E+02 0.  0.
        -12    1    3    3    0    0  0.25647641105E+02 -0.24057396897E+02 -0.10918638273E+02  0.36820870460E+02  0.00000000000E+00 0.  1.
         11    1    4    4    0    0  0.27958276438E+01  0.39156001788E+01 -0.33049095854E+01  0.58370373139E+01  0.51100000000E-03 0. -1.
        -11    1    4    4    0    0 -0.36697051036E+01  0.27480829927E+01 -0.91843859184E+01  0.10265068955E+02  0.51100000000E-03 0.  1.
        -12    1    4    4    0    0 -0.24773763645E+02  0.17393713726E+02  0.23407933777E+02  0.38265023272E+02  0.00000000000E+00 0.  1.
</event>
<event>
 8    1  0.2531964E-006  0.9118800E+02  0.7816164E-02  0.1184000E+00
        -11   -1    0    0    0    0  0.00000000000E+00  0.00000000000E+00  0.45593999997E+02  0.45594000000E+02  0.51100000000E-03 0.  1.
         11   -1    0    0    0    0 -0.00000000000E+00 -0.00000000000E+00 -0.45593999997E+02  0.45594000000E+02  0.51100000000E-03 0. -1.
         23    2    1    2    0    0  0.00000000000E+00 -0.71054273576E-14 -0.17763568394E-14  0.91188000000E+02  0.91188000000E+02 0.  0.
    9900012    2    3    3    0    0  0.59753745070E+01 -0.34400847441E+02 -0.11690003954E+02  0.54367087496E+02  0.40000007565E+02 0.  0.
         12    1    3    3    0    0 -0.59753745070E+01  0.34400847441E+02  0.11690003954E+02  0.36820912504E+02  0.00000000000E+00 0. -1.
         11    1    4    4    0    0 -0.49473821839E+01  0.31626006004E+01  0.42680587591E+01  0.72591293461E+01  0.51100000000E-03 0. -1.
        -11    1    4    4    0    0  0.20514043563E+01 -0.26383577596E+02 -0.10711198037E+01  0.26484877279E+02  0.51100000000E-03 0.  1.
         12    1    4    4    0    0  0.88713523346E+01 -0.11179870446E+02 -0.14886942910E+02  0.20623080871E+02  0.00000000000E+00 0. -1.
</event>
<event>
 8    1  0.2531964E-006  0.9118800E+02  0.7816164E-02  0.1184000E+00
        -11   -1    0    0    0    0  0.00000000000E+00  0.00000000000E+00  0.45593999997E+02  0.45594000000E+02  0.51100000000E-03 0.  1.
         11   -1    0    0    0    0 -0.00000000000E+00 -0.00000000000E+00 -0.45593999997E+02  0.45594000000E+02  0.51100000000E-03 0. -1.
         23    2    1    2    0    0 -0.71054273576E-14  0.97144514655E-16 -0.31086244690E-14  0.91188000000E+02  0.91188000000E+02 0.  0.
    9900012    2    3    3    0    0  0.36685716851E+02 -0.83054745140E-01  0.31514202491E+01  0.54367079743E+02  0.39999989891E+02 0.  0.
        -12    1    3    3    0    0 -0.36685716851E+02  0.83054745140E-01 -0.31514202491E+01  0.36820920257E+02  0.00000000000E+00 0.  1.
         11    1    4    4    0    0  0.48856817327E+01  0.24622029776E+01  0.48014937546E+01  0.72791944632E+01  0.51100000000E-03 0. -1.
        -11    1    4    4    0    0 -0.15075265877E+01 -0.36126442961E+01  0.10820103310E+02  0.11506453455E+02  0.51100000000E-03 0.  1.
        -12    1    4    4    0    0  0.33307561706E+02  0.10673865734E+01 -0.12470176815E+02  0.35581431825E+02  0.00000000000E+00 0.  1.
</event>
<event>
 8    1  0.2531964E-006  0.9118800E+02  0.7816164E-02  0.1184000E+00
        -11   -1    0    0    0    0  0.00000000000E+00  0.00000000000E+00  0.45593999997E+02  0.45594000000E+02  0.51100000000E-03 0. -1.
         11   -1    0    0    0    0 -0.00000000000E+00 -0.00000000000E+00 -0.45593999997E+02  0.45594000000E+02  0.51100000000E-03 0.  1.
         23    2    1    2    0    0  0.88817841970E-15  0.00000000000E+00 -0.35527136788E-14  0.91188000000E+02  0.91188000000E+02 0.  0.
    9900012    2    3    3    0    0 -0.37573148712E+01  0.34478851634E+02  0.12364104980E+02  0.54367085875E+02  0.40000003869E+02 0.  0.
        -12    1    3    3    0    0  0.37573148712E+01 -0.34478851634E+02 -0.12364104980E+02  0.36820914125E+02  0.00000000000E+00 0.  1.
         11    1    4    4    0    0 -0.12445066300E+02  0.14716184117E+01 -0.51120837411E+01  0.13534353934E+02  0.51100000000E-03 0. -1.
        -11    1    4    4    0    0 -0.28047484764E+01  0.63840758407E+01  0.73153771617E+01  0.10106323844E+02  0.51100000000E-03 0.  1.
         12    1    4    4    0    0  0.11492499905E+02  0.26623157382E+02  0.10160811559E+02  0.30726408098E+02  0.00000000000E+00 0. -1.
</event>
<event>
 8    1  0.2531964E-006  0.9118800E+02  0.7816164E-02  0.1184000E+00
        -11   -1    0    0    0    0  0.00000000000E+00  0.00000000000E+00  0.45593999997E+02  0.45594000000E+02  0.51100000000E-03 0.  1.
         11   -1    0    0    0    0 -0.00000000000E+00 -0.00000000000E+00 -0.45593999997E+02  0.45594000000E+02  0.51100000000E-03 0. -1.
         23    2    1    2    0    0  0.17763568394E-14  0.00000000000E+00  0.00000000000E+00  0.91188000000E+02  0.91188000000E+02 0.  0.
    9900012    2    3    3    0    0  0.12053469058E+02 -0.10102181183E+02 -0.33293244071E+02  0.54367078206E+02  0.39999986387E+02 0.  0.
        -12    1    3    3    0    0 -0.12053469058E+02  0.10102181183E+02  0.33293244071E+02  0.36820921794E+02  0.00000000000E+00 0.  1.
         11    1    4    4    0    0 -0.65956548410E+01 -0.75239137185E+00 -0.31421574019E+02  0.32115168840E+02  0.51100000000E-03 0. -1.
        -11    1    4    4    0    0  0.12915507416E+02 -0.23700081773E+01 -0.79577222476E+00  0.13155247024E+02  0.51100000000E-03 0.  1.
         12    1    4    4    0    0  0.57336164833E+01 -0.69797816335E+01 -0.10758978271E+01  0.90966623419E+01  0.00000000000E+00 0. -1.
</event>
<event>
 8    1  0.2531964E-006  0.9118800E+02  0.7816164E-02  0.1184000E+00
        -11   -1    0    0    0    0  0.00000000000E+00  0.00000000000E+00  0.45593999997E+02  0.45594000000E+02  0.51100000000E-03 0.  1.
         11   -1    0    0    0    0 -0.00000000000E+00 -0.00000000000E+00 -0.45593999997E+02  0.45594000000E+02  0.51100000000E-03 0. -1.
         23    2    1    2    0    0  0.19984014443E-14  0.00000000000E+00  0.00000000000E+00  0.91188000000E+02  0.91188000000E+02 0.  0.
    9900012    2    3    3    0    0 -0.67492274333E+00  0.10390158888E+02 -0.35318111863E+02  0.54367082738E+02  0.39999996718E+02 0.  0.
        -12    1    3    3    0    0  0.67492274333E+00 -0.10390158888E+02  0.35318111863E+02  0.36820917262E+02  0.00000000000E+00 0.  1.
         11    1    4    4    0    0 -0.32358963440E+01 -0.43561121544E+01 -0.43305272070E+01  0.69426367039E+01  0.51100000000E-03 0. -1.
        -11    1    4    4    0    0  0.96724846708E+01 -0.45878415502E+01 -0.61290979913E+00  0.10722915111E+02  0.51100000000E-03 0.  1.
        -12    1    4    4    0    0 -0.71115110701E+01  0.19334112593E+02 -0.30374674857E+02  0.36701530923E+02  0.00000000000E+00 0.  1.
</event>
<event>
 8    1  0.2531964E-006  0.9118800E+02  0.7816164E-02  0.1184000E+00
        -11   -1    0    0    0    0  0.00000000000E+00  0.00000000000E+00  0.45593999997E+02  0.45594000000E+02  0.51100000000E-03 0.  1.
         11   -1    0    0    0    0 -0.00000000000E+00 -0.00000000000E+00 -0.45593999997E+02  0.45594000000E+02  0.51100000000E-03 0. -1.
         23    2    1    2    0    0  0.44408920985E-15 -0.88817841970E-15  0.71054273576E-14  0.91188000000E+02  0.91188000000E+02 0.  0.
    9900012    2    3    3    0    0  0.21313852447E+01  0.78023945711E+01 -0.35921578713E+02  0.54367082286E+02  0.39999995687E+02 0.  0.
        -12    1    3    3    0    0 -0.21313852447E+01 -0.78023945711E+01  0.35921578713E+02  0.36820917714E+02  0.00000000000E+00 0.  1.
         11    1    4    4    0    0  0.65250689101E+01  0.27704485115E+01 -0.32115460694E+02  0.32888519655E+02  0.51100000000E-03 0. -1.
        -11    1    4    4    0    0  0.54866592579E+01  0.14311126775E+00 -0.79849938241E+01  0.96893775486E+01  0.51100000000E-03 0.  1.
        -12    1    4    4    0    0 -0.98803429233E+01  0.48888347918E+01  0.41788758056E+01  0.11789185082E+02  0.00000000000E+00 0.  1.
</event>
<event>
 8    1  0.2531964E-006  0.9118800E+02  0.7816164E-02  0.1184000E+00
        -11   -1    0    0    0    0  0.00000000000E+00  0.00000000000E+00  0.45593999997E+02  0.45594000000E+02  0.51100000000E-03 0.  1.
         11   -1    0    0    0    0 -0.00000000000E+00 -0.00000000000E+00 -0.45593999997E+02  0.45594000000E+02  0.51100000000E-03 0. -1.
         23    2    1    2    0    0  0.88817841970E-15  0.00000000000E+00 -0.71054273576E-14  0.91188000000E+02  0.91188000000E+02 0.  0.
    9900012    2    3    3    0    0  0.59656960244E+01  0.16462513460E+02 -0.32390981932E+02  0.54367087613E+02  0.40000007832E+02 0.  0.
        -12    1    3    3    0    0 -0.59656960244E+01 -0.16462513460E+02  0.32390981932E+02  0.36820912387E+02  0.00000000000E+00 0.  1.
         11    1    4    4    0    0 -0.33471983924E+01  0.69213714804E+01  0.52370369084E+01  0.93024553796E+01  0.51100000000E-03 0. -1.
        -11    1    4    4    0    0  0.86076033105E+01 -0.47531895212E+01 -0.20560623997E+02  0.22790851340E+02  0.51100000000E-03 0.  1.
         12    1    4    4    0    0  0.70529110634E+00  0.14294331501E+02 -0.17067394843E+02  0.22273780894E+02  0.00000000000E+00 0. -1.
</event>
<event>
 8    1  0.2531964E-006  0.9118800E+02  0.7816164E-02  0.1184000E+00
        -11   -1    0    0    0    0  0.00000000000E+00  0.00000000000E+00  0.45593999997E+02  0.45594000000E+02  0.51100000000E-03 0. -1.
         11   -1    0    0    0    0 -0.00000000000E+00 -0.00000000000E+00 -0.45593999997E+02  0.45594000000E+02  0.51100000000E-03 0.  1.
         23    2    1    2    0    0  0.00000000000E+00  0.00000000000E+00  0.17763568394E-14  0.91188000000E+02  0.91188000000E+02 0.  0.
    9900012    2    3    3    0    0 -0.31705709313E+02 -0.14275272340E+02 -0.12113831977E+02  0.54367077570E+02  0.39999984936E+02 0.  0.
         12    1    3    3    0    0  0.31705709313E+02  0.14275272340E+02  0.12113831977E+02  0.36820922430E+02  0.00000000000E+00 0. -1.
         11    1    4    4    0    0 -0.15561398620E+02  0.68464521882E+01 -0.76681636782E+01  0.18650248498E+02  0.51100000000E-03 0. -1.
        -11    1    4    4    0    0 -0.44117058741E+01 -0.17096549909E+02 -0.11856161003E+02  0.21267903553E+02  0.51100000000E-03 0.  1.
         12    1    4    4    0    0 -0.11732604819E+02 -0.40251746185E+01  0.74104927041E+01  0.14448925519E+02  0.00000000000E+00 0. -1.
</event>
<event>
 8    1  0.2531964E-006  0.9118800E+02  0.7816164E-02  0.1184000E+00
        -11   -1    0    0    0    0  0.00000000000E+00  0.00000000000E+00  0.45593999997E+02  0.45594000000E+02  0.51100000000E-03 0. -1.
         11   -1    0    0    0    0 -0.00000000000E+00 -0.00000000000E+00 -0.45593999997E+02  0.45594000000E+02  0.51100000000E-03 0.  1.
         23    2    1    2    0    0  0.00000000000E+00  0.00000000000E+00  0.00000000000E+00  0.91188000000E+02  0.91188000000E+02 0.  0.
    9900012    2    3    3    0    0 -0.14189820066E+02 -0.31529931791E+02  0.12660664329E+02  0.54367081849E+02  0.39999994690E+02 0.  0.
        -12    1    3    3    0    0  0.14189820066E+02  0.31529931791E+02 -0.12660664329E+02  0.36820918151E+02  0.00000000000E+00 0.  1.
         11    1    4    4    0    0  0.13392597838E+02 -0.85085346099E+01  0.68023958440E+01  0.17263528827E+02  0.51100000000E-03 0. -1.
        -11    1    4    4    0    0  0.16882207077E+00  0.17858078706E+00 -0.32501004909E+00  0.40746016028E+00  0.51100000000E-03 0.  1.
         12    1    4    4    0    0 -0.27751239975E+02 -0.23199977968E+02  0.61832785339E+01  0.36696092862E+02  0.00000000000E+00 0. -1.
</event>
<event>
 8    1  0.2531964E-006  0.9118800E+02  0.7816164E-02  0.1184000E+00
        -11   -1    0    0    0    0  0.00000000000E+00  0.00000000000E+00  0.45593999997E+02  0.45594000000E+02  0.51100000000E-03 0.  1.
         11   -1    0    0    0    0 -0.00000000000E+00 -0.00000000000E+00 -0.45593999997E+02  0.45594000000E+02  0.51100000000E-03 0. -1.
         23    2    1    2    0    0  0.11102230246E-15  0.88817841970E-15  0.00000000000E+00  0.91188000000E+02  0.91188000000E+02 0.  0.
    9900012    2    3    3    0    0  0.76396397638E+00  0.74320649423E+01 -0.36054983554E+02  0.54367067511E+02  0.39999962006E+02 0.  0.
        -12    1    3    3    0    0 -0.76396397638E+00 -0.74320649423E+01  0.36054983554E+02  0.36820932489E+02  0.00000000000E+00 0.  1.
         11    1    4    4    0    0  0.12971330650E+02  0.18935889595E+01 -0.25013637837E+02  0.28240452830E+02  0.51100000000E-03 0. -1.
        -11    1    4    4    0    0 -0.12192902162E+02  0.74044070689E+01 -0.15637230117E+02  0.21166366556E+02  0.51100000000E-03 0.  1.
         12    1    4    4    0    0 -0.14464511114E-01 -0.18659310861E+01  0.45958844004E+01  0.49602481251E+01  0.00000000000E+00 0. -1.
</event>
<event>
 8    1  0.2531964E-006  0.9118800E+02  0.7816164E-02  0.1184000E+00
        -11   -1    0    0    0    0  0.00000000000E+00  0.00000000000E+00  0.45593999997E+02  0.45594000000E+02  0.51100000000E-03 0.  1.
         11   -1    0    0    0    0 -0.00000000000E+00 -0.00000000000E+00 -0.45593999997E+02  0.45594000000E+02  0.51100000000E-03 0. -1.
         23    2    1    2    0    0  0.35527136788E-14  0.00000000000E+00  0.00000000000E+00  0.91188000000E+02  0.91188000000E+02 0.  0.
    9900012    2    3    3    0    0  0.17580398255E+02 -0.18392824943E+02 -0.26616077420E+02  0.54367055017E+02  0.39999933523E+02 0.  0.
         12    1    3    3    0    0 -0.17580398255E+02  0.18392824943E+02  0.26616077420E+02  0.36820944983E+02  0.00000000000E+00 0. -1.
         11    1    4    4    0    0 -0.61084816464E+01 -0.70172331249E+01 -0.10074290263E+02  0.13713002345E+02  0.51100000000E-03 0. -1.
        -11    1    4    4    0    0  0.90830477746E+01 -0.15031187007E+02  0.93350307257E+00  0.17587204666E+02  0.51100000000E-03 0.  1.
         12    1    4    4    0    0  0.14605832127E+02  0.36555951893E+01 -0.17475290230E+02  0.23066848006E+02  0.00000000000E+00 0. -1.
</event>
<event>
 8    1  0.2531964E-006  0.9118800E+02  0.7816164E-02  0.1184000E+00
        -11   -1    0    0    0    0  0.00000000000E+00  0.00000000000E+00  0.45593999997E+02  0.45594000000E+02  0.51100000000E-03 0. -1.
         11   -1    0    0    0    0 -0.00000000000E+00 -0.00000000000E+00 -0.45593999997E+02  0.45594000000E+02  0.51100000000E-03 0.  1.
         23    2    1    2    0    0  0.00000000000E+00  0.44408920985E-15  0.00000000000E+00  0.91188000000E+02  0.91188000000E+02 0.  0.
    9900012    2    3    3    0    0  0.17571965778E+02  0.37193359889E+01  0.32142981697E+02  0.54367099497E+02  0.40000034923E+02 0.  0.
        -12    1    3    3    0    0 -0.17571965778E+02 -0.37193359889E+01 -0.32142981697E+02  0.36820900503E+02  0.00000000000E+00 0.  1.
         11    1    4    4    0    0  0.99652285738E-01  0.40617080354E+01 -0.64311917167E+00  0.41135149535E+01  0.51100000000E-03 0. -1.
        -11    1    4    4    0    0 -0.81514583826E+01 -0.42208805983E+01  0.18521681472E+02  0.20671593833E+02  0.51100000000E-03 0.  1.
         12    1    4    4    0    0  0.25623771875E+02  0.38785085519E+01  0.14264419396E+02  0.29581990710E+02  0.00000000000E+00 0. -1.
</event>
<event>
 8    1  0.2531964E-006  0.9118800E+02  0.7816164E-02  0.1184000E+00
        -11   -1    0    0    0    0  0.00000000000E+00  0.00000000000E+00  0.45593999997E+02  0.45594000000E+02  0.51100000000E-03 0. -1.
         11   -1    0    0    0    0 -0.00000000000E+00 -0.00000000000E+00 -0.45593999997E+02  0.45594000000E+02  0.51100000000E-03 0.  1.
         23    2    1    2    0    0  0.00000000000E+00  0.17763568394E-14 -0.17763568394E-14  0.91188000000E+02  0.91188000000E+02 0.  0.
    9900012    2    3    3    0    0 -0.32491121194E+02  0.11265914964E+02  0.13160052357E+02  0.54367071516E+02  0.39999971134E+02 0.  0.
        -12    1    3    3    0    0  0.32491121194E+02 -0.11265914964E+02 -0.13160052357E+02  0.36820928484E+02  0.00000000000E+00 0.  1.
         11    1    4    4    0    0 -0.11947868260E+02 -0.56812896344E+01  0.44145893815E+01  0.13946942588E+02  0.51100000000E-03 0. -1.
        -11    1    4    4    0    0 -0.18368434177E+02  0.20684139872E+02  0.16013314165E+02  0.31963404812E+02  0.51100000000E-03 0.  1.
         12    1    4    4    0    0 -0.21748187562E+01 -0.37369352739E+01 -0.72678511891E+01  0.84567241158E+01  0.00000000000E+00 0. -1.
</event>
<event>
 8    1  0.2531964E-006  0.9118800E+02  0.7816164E-02  0.1184000E+00
        -11   -1    0    0    0    0  0.00000000000E+00  0.00000000000E+00  0.45593999997E+02  0.45594000000E+02  0.51100000000E-03 0.  1.
         11   -1    0    0    0    0 -0.00000000000E+00 -0.00000000000E+00 -0.45593999997E+02  0.45594000000E+02  0.51100000000E-03 0. -1.
         23    2    1    2    0    0  0.35527136788E-14  0.22204460493E-15  0.00000000000E+00  0.91188000000E+02  0.91188000000E+02 0.  0.
    9900012    2    3    3    0    0 -0.10597923166E+02 -0.16770588466E+01  0.35222884975E+02  0.54367080296E+02  0.39999991152E+02 0.  0.
         12    1    3    3    0    0  0.10597923166E+02  0.16770588466E+01 -0.35222884975E+02  0.36820919704E+02  0.00000000000E+00 0. -1.
         11    1    4    4    0    0  0.11329857952E+02  0.21281187659E+01  0.13333836085E+01  0.11604847383E+02  0.51100000000E-03 0. -1.
        -11    1    4    4    0    0 -0.94908144352E+01 -0.81793636734E+01  0.12956480449E+02  0.18023538349E+02  0.51100000000E-03 0.  1.
         12    1    4    4    0    0 -0.12436966683E+02  0.43741860609E+01  0.20933020918E+02  0.24738694564E+02  0.00000000000E+00 0. -1.
</event>
<event>
 8    1  0.2531964E-006  0.9118800E+02  0.7816164E-02  0.1184000E+00
        -11   -1    0    0    0    0  0.00000000000E+00  0.00000000000E+00  0.45593999997E+02  0.45594000000E+02  0.51100000000E-03 0.  1.
         11   -1    0    0    0    0 -0.00000000000E+00 -0.00000000000E+00 -0.45593999997E+02  0.45594000000E+02  0.51100000000E-03 0. -1.
         23    2    1    2    0    0  0.00000000000E+00  0.35527136788E-14 -0.35527136788E-14  0.91188000000E+02  0.91188000000E+02 0.  0.
    9900012    2    3    3    0    0 -0.18881536483E+02 -0.26610714707E+02  0.17062753655E+02  0.54367080410E+02  0.39999991410E+02 0.  0.
         12    1    3    3    0    0  0.18881536483E+02  0.26610714707E+02 -0.17062753655E+02  0.36820919590E+02  0.00000000000E+00 0. -1.
         11    1    4    4    0    0 -0.76856347601E+01 -0.26724689995E+01 -0.39101361236E+01  0.90277481680E+01  0.51100000000E-03 0. -1.
        -11    1    4    4    0    0 -0.14019933302E+02 -0.28579822277E+02  0.10464136282E+02  0.33509146805E+02  0.51100000000E-03 0.  1.
         12    1    4    4    0    0  0.28240315790E+01  0.46415765700E+01  0.10508753497E+02  0.11830185437E+02  0.00000000000E+00 0. -1.
</event>
<event>
 8    1  0.2531964E-006  0.9118800E+02  0.7816164E-02  0.1184000E+00
        -11   -1    0    0    0    0  0.00000000000E+00  0.00000000000E+00  0.45593999997E+02  0.45594000000E+02  0.51100000000E-03 0.  1.
         11   -1    0    0    0    0 -0.00000000000E+00 -0.00000000000E+00 -0.45593999997E+02  0.45594000000E+02  0.51100000000E-03 0. -1.
         23    2    1    2    0    0  0.00000000000E+00  0.00000000000E+00  0.00000000000E+00  0.91188000000E+02  0.91188000000E+02 0.  0.
    9900012    2    3    3    0    0  0.10805488046E+02 -0.32486657567E+02  0.13551286784E+02  0.54367097441E+02  0.40000030236E+02 0.  0.
        -12    1    3    3    0    0 -0.10805488046E+02  0.32486657567E+02 -0.13551286784E+02  0.36820902559E+02  0.00000000000E+00 0.  1.
         11    1    4    4    0    0  0.61526063124E+01 -0.18931776769E+02 -0.73229623889E+01  0.21210669826E+02  0.51100000000E-03 0. -1.
        -11    1    4    4    0    0  0.12157835709E+02 -0.12275620641E+02  0.18180901459E+02  0.25080849454E+02  0.51100000000E-03 0.  1.
        -12    1    4    4    0    0 -0.75049539749E+01 -0.12792601565E+01  0.26933477143E+01  0.80755781603E+01  0.00000000000E+00 0.  1.
</event>
<event>
 8    1  0.2531964E-006  0.9118800E+02  0.7816164E-02  0.1184000E+00
        -11   -1    0    0    0    0  0.00000000000E+00  0.00000000000E+00  0.45593999997E+02  0.45594000000E+02  0.51100000000E-03 0. -1.
         11   -1    0    0    0    0 -0.00000000000E+00 -0.00000000000E+00 -0.45593999997E+02  0.45594000000E+02  0.51100000000E-03 0.  1.
         23    2    1    2    0    0  0.00000000000E+00 -0.44408920985E-15 -0.71054273576E-14  0.91188000000E+02  0.91188000000E+02 0.  0.
    9900012    2    3    3    0    0 -0.17923978967E+02  0.28178550177E+01  0.32040150385E+02  0.54367074352E+02  0.39999977600E+02 0.  0.
        -12    1    3    3    0    0  0.17923978967E+02 -0.28178550177E+01 -0.32040150385E+02  0.36820925648E+02  0.00000000000E+00 0.  1.
         11    1    4    4    0    0  0.55812960763E+01 -0.52787302892E+01  0.23626225180E+01  0.80372784437E+01  0.51100000000E-03 0. -1.
        -11    1    4    4    0    0  0.53751304649E+01 -0.18263112896E+00  0.61506698482E+01  0.81704419394E+01  0.51100000000E-03 0.  1.
        -12    1    4    4    0    0 -0.28880405508E+02  0.82792164359E+01  0.23526858019E+02  0.38159353969E+02  0.00000000000E+00 0.  1.
</event>
<event>
 8    1  0.2531964E-006  0.9118800E+02  0.7816164E-02  0.1184000E+00
        -11   -1    0    0    0    0  0.00000000000E+00  0.00000000000E+00  0.45593999997E+02  0.45594000000E+02  0.51100000000E-03 0.  1.
         11   -1    0    0    0    0 -0.00000000000E+00 -0.00000000000E+00 -0.45593999997E+02  0.45594000000E+02  0.51100000000E-03 0. -1.
         23    2    1    2    0    0  0.00000000000E+00  0.00000000000E+00 -0.44408920985E-15  0.91188000000E+02  0.91188000000E+02 0.  0.
    9900012    2    3    3    0    0 -0.19524734485E+02  0.30998102781E+02  0.36988870002E+01  0.54367090210E+02  0.40000013751E+02 0.  0.
         12    1    3    3    0    0  0.19524734485E+02 -0.30998102781E+02 -0.36988870002E+01  0.36820909790E+02  0.00000000000E+00 0. -1.
         11    1    4    4    0    0 -0.18127625083E+01 -0.46266489843E+01  0.11356722266E+02  0.12396254661E+02  0.51100000000E-03 0. -1.
        -11    1    4    4    0    0 -0.13338151033E+02  0.15308690025E+02 -0.18241845509E+01  0.20386022486E+02  0.51100000000E-03 0.  1.
         12    1    4    4    0    0 -0.43738209433E+01  0.20316061741E+02 -0.58336507144E+01  0.21584813063E+02  0.00000000000E+00 0. -1.
</event>
<event>
 8    1  0.2531964E-006  0.9118800E+02  0.7816164E-02  0.1184000E+00
        -11   -1    0    0    0    0  0.00000000000E+00  0.00000000000E+00  0.45593999997E+02  0.45594000000E+02  0.51100000000E-03 0.  1.
         11   -1    0    0    0    0 -0.00000000000E+00 -0.00000000000E+00 -0.45593999997E+02  0.45594000000E+02  0.51100000000E-03 0. -1.
         23    2    1    2    0    0  0.00000000000E+00  0.00000000000E+00 -0.88817841970E-15  0.91188000000E+02  0.91188000000E+02 0.  0.
    9900012    2    3    3    0    0 -0.35728384543E+02 -0.85119928032E+01 -0.26094405216E+01  0.54367073024E+02  0.39999974572E+02 0.  0.
         12    1    3    3    0    0  0.35728384543E+02  0.85119928032E+01  0.26094405216E+01  0.36820926976E+02  0.00000000000E+00 0. -1.
         11    1    4    4    0    0  0.34911615897E+01 -0.57923985761E+01 -0.82904529130E+01  0.10699144838E+02  0.51100000000E-03 0. -1.
        -11    1    4    4    0    0 -0.16421555391E+02  0.85240277250E+00  0.11256952258E+02  0.19927695461E+02  0.51100000000E-03 0.  1.
        -12    1    4    4    0    0 -0.22797990742E+02 -0.35719969997E+01 -0.55759398672E+01  0.23740232725E+02  0.00000000000E+00 0.  1.
</event>
<event>
 8    1  0.2531964E-006  0.9118800E+02  0.7816164E-02  0.1184000E+00
        -11   -1    0    0    0    0  0.00000000000E+00  0.00000000000E+00  0.45593999997E+02  0.45594000000E+02  0.51100000000E-03 0.  1.
         11   -1    0    0    0    0 -0.00000000000E+00 -0.00000000000E+00 -0.45593999997E+02  0.45594000000E+02  0.51100000000E-03 0. -1.
         23    2    1    2    0    0 -0.26645352591E-14  0.00000000000E+00  0.26645352591E-14  0.91188000000E+02  0.91188000000E+02 0.  0.
    9900012    2    3    3    0    0  0.73654483889E+01  0.35363065211E+02 -0.71403169430E+01  0.54367077454E+02  0.39999984671E+02 0.  0.
         12    1    3    3    0    0 -0.73654483889E+01 -0.35363065211E+02  0.71403169430E+01  0.36820922546E+02  0.00000000000E+00 0. -1.
         11    1    4    4    0    0 -0.37385454801E+00 -0.27329886294E+01 -0.43729388993E+01  0.51702600467E+01  0.51100000000E-03 0. -1.
        -11    1    4    4    0    0 -0.94309228621E+01  0.16968314701E+02  0.64458304809E+01  0.20455188600E+02  0.51100000000E-03 0.  1.
        -12    1    4    4    0    0  0.17170225799E+02  0.21127739140E+02 -0.92132085246E+01  0.28741628807E+02  0.00000000000E+00 0.  1.
</event>
<event>
 8    1  0.2531964E-006  0.9118800E+02  0.7816164E-02  0.1184000E+00
        -11   -1    0    0    0    0  0.00000000000E+00  0.00000000000E+00  0.45593999997E+02  0.45594000000E+02  0.51100000000E-03 0. -1.
         11   -1    0    0    0    0 -0.00000000000E+00 -0.00000000000E+00 -0.45593999997E+02  0.45594000000E+02  0.51100000000E-03 0.  1.
         23    2    1    2    0    0 -0.35527136788E-14  0.00000000000E+00 -0.35527136788E-14  0.91188000000E+02  0.91188000000E+02 0.  0.
    9900012    2    3    3    0    0 -0.23251673086E+02 -0.79040317978E+01  0.27434591532E+02  0.54367206520E+02  0.40000278903E+02 0.  0.
        -12    1    3    3    0    0  0.23251673086E+02  0.79040317978E+01 -0.27434591532E+02  0.36820793480E+02  0.00000000000E+00 0.  1.
         11    1    4    4    0    0  0.95154186233E+01 -0.43291561750E+01  0.73248673281E+01  0.12764735266E+02  0.51100000000E-03 0. -1.
        -11    1    4    4    0    0 -0.36278847649E+01  0.19027428700E+01 -0.20557682482E+01  0.45834661173E+01  0.51100000000E-03 0.  1.
         12    1    4    4    0    0 -0.29139206945E+02 -0.54776184928E+01  0.22165492452E+02  0.37019005137E+02  0.00000000000E+00 0. -1.
</event>
<event>
 8    1  0.2531964E-006  0.9118800E+02  0.7816164E-02  0.1184000E+00
        -11   -1    0    0    0    0  0.00000000000E+00  0.00000000000E+00  0.45593999997E+02  0.45594000000E+02  0.51100000000E-03 0. -1.
         11   -1    0    0    0    0 -0.00000000000E+00 -0.00000000000E+00 -0.45593999997E+02  0.45594000000E+02  0.51100000000E-03 0.  1.
         23    2    1    2    0    0 -0.35527136788E-14  0.00000000000E+00  0.00000000000E+00  0.91188000000E+02  0.91188000000E+02 0.  0.
    9900012    2    3    3    0    0  0.27383875597E+02  0.11675515948E+02 -0.21669912328E+02  0.54367089967E+02  0.40000013198E+02 0.  0.
         12    1    3    3    0    0 -0.27383875597E+02 -0.11675515948E+02  0.21669912328E+02  0.36820910033E+02  0.00000000000E+00 0. -1.
         11    1    4    4    0    0  0.24988707195E+02  0.13104951864E+02  0.16199332793E+01  0.28263040083E+02  0.51100000000E-03 0. -1.
        -11    1    4    4    0    0  0.86248746125E+00  0.50523998096E+01 -0.97942410858E+01  0.11054310796E+02  0.51100000000E-03 0.  1.
         12    1    4    4    0    0  0.15326809406E+01 -0.64818357251E+01 -0.13495604521E+02  0.15049739088E+02  0.00000000000E+00 0. -1.
</event>
<event>
 8    1  0.2531964E-006  0.9118800E+02  0.7816164E-02  0.1184000E+00
        -11   -1    0    0    0    0  0.00000000000E+00  0.00000000000E+00  0.45593999997E+02  0.45594000000E+02  0.51100000000E-03 0.  1.
         11   -1    0    0    0    0 -0.00000000000E+00 -0.00000000000E+00 -0.45593999997E+02  0.45594000000E+02  0.51100000000E-03 0. -1.
         23    2    1    2    0    0  0.00000000000E+00 -0.17763568394E-14  0.35527136788E-14  0.91188000000E+02  0.91188000000E+02 0.  0.
    9900012    2    3    3    0    0  0.26159039266E+02  0.13622879384E+02 -0.22043182315E+02  0.54367081155E+02  0.39999993110E+02 0.  0.
        -12    1    3    3    0    0 -0.26159039266E+02 -0.13622879384E+02  0.22043182315E+02  0.36820918845E+02  0.00000000000E+00 0.  1.
         11    1    4    4    0    0  0.19952466558E+02  0.15841663656E+02 -0.19459824743E+01  0.25550852768E+02  0.51100000000E-03 0.  1.
        -11    1    4    4    0    0  0.91801791210E+01 -0.83348956527E+01 -0.17688478022E+02  0.21601583952E+02  0.51100000000E-03 0. -1.
         12    1    4    4    0    0 -0.29736064138E+01  0.61161113809E+01 -0.24087218188E+01  0.72146444353E+01  0.00000000000E+00 0. -1.
</event>
<event>
 8    1  0.2531964E-006  0.9118800E+02  0.7816164E-02  0.1184000E+00
        -11   -1    0    0    0    0  0.00000000000E+00  0.00000000000E+00  0.45593999997E+02  0.45594000000E+02  0.51100000000E-03 0. -1.
         11   -1    0    0    0    0 -0.00000000000E+00 -0.00000000000E+00 -0.45593999997E+02  0.45594000000E+02  0.51100000000E-03 0.  1.
         23    2    1    2    0    0  0.00000000000E+00 -0.11102230246E-14  0.53290705182E-14  0.91188000000E+02  0.91188000000E+02 0.  0.
    9900012    2    3    3    0    0 -0.36386637412E+02 -0.18038937712E+01 -0.53421070258E+01  0.54367088518E+02  0.40000009894E+02 0.  0.
         12    1    3    3    0    0  0.36386637412E+02  0.18038937712E+01  0.53421070258E+01  0.36820911482E+02  0.00000000000E+00 0. -1.
         11    1    4    4    0    0 -0.76827648102E+01 -0.80170929588E+01 -0.85894222810E+00  0.11137164659E+02  0.51100000000E-03 0.  1.
        -11    1    4    4    0    0 -0.24008264941E+02  0.16912041152E+01  0.10976051673E+02  0.26452422714E+02  0.51100000000E-03 0. -1.
        -12    1    4    4    0    0 -0.46956076608E+01  0.45219950723E+01 -0.15459216471E+02  0.16777501144E+02  0.00000000000E+00 0.  1.
</event>
<event>
 8    1  0.2531964E-006  0.9118800E+02  0.7816164E-02  0.1184000E+00
        -11   -1    0    0    0    0  0.00000000000E+00  0.00000000000E+00  0.45593999997E+02  0.45594000000E+02  0.51100000000E-03 0. -1.
         11   -1    0    0    0    0 -0.00000000000E+00 -0.00000000000E+00 -0.45593999997E+02  0.45594000000E+02  0.51100000000E-03 0.  1.
         23    2    1    2    0    0  0.17763568394E-14  0.35527136788E-14  0.00000000000E+00  0.91188000000E+02  0.91188000000E+02 0.  0.
    9900012    2    3    3    0    0 -0.14217190721E+02  0.24539299990E+02  0.23483494421E+02  0.54367078417E+02  0.39999986868E+02 0.  0.
        -12    1    3    3    0    0  0.14217190721E+02 -0.24539299990E+02 -0.23483494421E+02  0.36820921583E+02  0.00000000000E+00 0.  1.
         11    1    4    4    0    0  0.31563159428E+01  0.46426973594E+01  0.19930727074E+02  0.20706299792E+02  0.51100000000E-03 0. -1.
        -11    1    4    4    0    0 -0.44670718931E+01 -0.49892168303E+00 -0.61752976006E+01  0.76379287023E+01  0.51100000000E-03 0.  1.
         12    1    4    4    0    0 -0.12906434770E+02  0.20395524314E+02  0.97280649479E+01  0.26022849923E+02  0.00000000000E+00 0. -1.
</event>
<event>
 8    1  0.2531964E-006  0.9118800E+02  0.7816164E-02  0.1184000E+00
        -11   -1    0    0    0    0  0.00000000000E+00  0.00000000000E+00  0.45593999997E+02  0.45594000000E+02  0.51100000000E-03 0. -1.
         11   -1    0    0    0    0 -0.00000000000E+00 -0.00000000000E+00 -0.45593999997E+02  0.45594000000E+02  0.51100000000E-03 0.  1.
         23    2    1    2    0    0  0.17763568394E-14  0.88817841970E-15  0.00000000000E+00  0.91188000000E+02  0.91188000000E+02 0.  0.
    9900012    2    3    3    0    0 -0.10710767293E+02  0.44720732900E+01  0.34943702632E+02  0.54367050404E+02  0.39999923006E+02 0.  0.
        -12    1    3    3    0    0  0.10710767293E+02 -0.44720732900E+01 -0.34943702632E+02  0.36820949596E+02  0.00000000000E+00 0.  1.
         11    1    4    4    0    0 -0.74240774046E+00 -0.54994767702E+01 -0.36192840554E+01  0.66253023579E+01  0.51100000000E-03 0. -1.
        -11    1    4    4    0    0  0.23676308894E+01 -0.49283447839E+01  0.10966216808E+01  0.55764538651E+01  0.51100000000E-03 0.  1.
         12    1    4    4    0    0 -0.12335990442E+02  0.14899894844E+02  0.37466365007E+02  0.42165294181E+02  0.00000000000E+00 0. -1.
</event>
<event>
 8    1  0.2531964E-006  0.9118800E+02  0.7816164E-02  0.1184000E+00
        -11   -1    0    0    0    0  0.00000000000E+00  0.00000000000E+00  0.45593999997E+02  0.45594000000E+02  0.51100000000E-03 0. -1.
         11   -1    0    0    0    0 -0.00000000000E+00 -0.00000000000E+00 -0.45593999997E+02  0.45594000000E+02  0.51100000000E-03 0.  1.
         23    2    1    2    0    0 -0.71054273576E-14  0.00000000000E+00  0.00000000000E+00  0.91188000000E+02  0.91188000000E+02 0.  0.
    9900012    2    3    3    0    0  0.28625210039E+02  0.16474790848E+02 -0.16277478071E+02  0.54367113595E+02  0.40000067063E+02 0.  0.
         12    1    3    3    0    0 -0.28625210039E+02 -0.16474790848E+02  0.16277478071E+02  0.36820886405E+02  0.00000000000E+00 0. -1.
         11    1    4    4    0    0 -0.41640160647E+01 -0.19693210491E+01  0.15761962867E+00  0.46089152075E+01  0.51100000000E-03 0. -1.
        -11    1    4    4    0    0  0.37966009638E+02  0.16226534557E+02 -0.13737026044E+02  0.43513494417E+02  0.51100000000E-03 0.  1.
        -12    1    4    4    0    0 -0.51767835343E+01  0.22175773407E+01 -0.26980716555E+01  0.62447039707E+01  0.00000000000E+00 0.  1.
</event>
<event>
 8    1  0.2531964E-006  0.9118800E+02  0.7816164E-02  0.1184000E+00
        -11   -1    0    0    0    0  0.00000000000E+00  0.00000000000E+00  0.45593999997E+02  0.45594000000E+02  0.51100000000E-03 0.  1.
         11   -1    0    0    0    0 -0.00000000000E+00 -0.00000000000E+00 -0.45593999997E+02  0.45594000000E+02  0.51100000000E-03 0. -1.
         23    2    1    2    0    0  0.00000000000E+00  0.88817841970E-15  0.71054273576E-14  0.91188000000E+02  0.91188000000E+02 0.  0.
    9900012    2    3    3    0    0 -0.22231982818E+02 -0.60081297782E+01 -0.28730136610E+02  0.54367089730E+02  0.40000012658E+02 0.  0.
        -12    1    3    3    0    0  0.22231982818E+02  0.60081297782E+01  0.28730136610E+02  0.36820910270E+02  0.00000000000E+00 0.  1.
         11    1    4    4    0    0 -0.86025427676E+01  0.12345199848E+02 -0.16204548313E+02  0.22113233315E+02  0.51100000000E-03 0. -1.
        -11    1    4    4    0    0 -0.16833414058E+02 -0.19801032736E+02 -0.96899233001E+01  0.27736967031E+02  0.51100000000E-03 0.  1.
        -12    1    4    4    0    0  0.32039740072E+01  0.14477031104E+01 -0.28356649970E+01  0.45168893843E+01  0.00000000000E+00 0.  1.
</event>
<event>
 8    1  0.2531964E-006  0.9118800E+02  0.7816164E-02  0.1184000E+00
        -11   -1    0    0    0    0  0.00000000000E+00  0.00000000000E+00  0.45593999997E+02  0.45594000000E+02  0.51100000000E-03 0.  1.
         11   -1    0    0    0    0 -0.00000000000E+00 -0.00000000000E+00 -0.45593999997E+02  0.45594000000E+02  0.51100000000E-03 0. -1.
         23    2    1    2    0    0  0.00000000000E+00 -0.44408920985E-15  0.00000000000E+00  0.91188000000E+02  0.91188000000E+02 0.  0.
    9900012    2    3    3    0    0 -0.35914927438E+02  0.12282622189E+01  0.80242263045E+01  0.54367097665E+02  0.40000030747E+02 0.  0.
        -12    1    3    3    0    0  0.35914927438E+02 -0.12282622189E+01 -0.80242263045E+01  0.36820902335E+02  0.00000000000E+00 0.  1.
         11    1    4    4    0    0 -0.34576803646E+02  0.38567149062E+01 -0.82970543227E+01  0.35766894063E+02  0.51100000000E-03 0. -1.
        -11    1    4    4    0    0 -0.22697384336E+00 -0.56502573853E+01  0.11289139189E+02  0.12626226259E+02  0.51100000000E-03 0.  1.
        -12    1    4    4    0    0 -0.11111499487E+01  0.30218046980E+01  0.50321414379E+01  0.59739773428E+01  0.00000000000E+00 0.  1.
</event>
<event>
 8    1  0.2531964E-006  0.9118800E+02  0.7816164E-02  0.1184000E+00
        -11   -1    0    0    0    0  0.00000000000E+00  0.00000000000E+00  0.45593999997E+02  0.45594000000E+02  0.51100000000E-03 0. -1.
         11   -1    0    0    0    0 -0.00000000000E+00 -0.00000000000E+00 -0.45593999997E+02  0.45594000000E+02  0.51100000000E-03 0.  1.
         23    2    1    2    0    0  0.00000000000E+00 -0.47184478547E-15  0.00000000000E+00  0.91188000000E+02  0.91188000000E+02 0.  0.
    9900012    2    3    3    0    0  0.15074191220E+02  0.24778266871E+00 -0.33592967522E+02  0.54367080618E+02  0.39999991886E+02 0.  0.
         12    1    3    3    0    0 -0.15074191220E+02 -0.24778266871E+00  0.33592967522E+02  0.36820919382E+02  0.00000000000E+00 0. -1.
         11    1    4    4    0    0 -0.61040640281E+01  0.20736815758E+01 -0.22003544177E+00  0.64504394264E+01  0.51100000000E-03 0. -1.
        -11    1    4    4    0    0  0.14233602225E+02  0.10136435827E+02 -0.28147611234E+02  0.33130511345E+02  0.51100000000E-03 0.  1.
         12    1    4    4    0    0  0.69446530230E+01 -0.11962334734E+02 -0.52253208463E+01  0.14786129847E+02  0.00000000000E+00 0. -1.
</event>
<event>
 8    1  0.2531964E-006  0.9118800E+02  0.7816164E-02  0.1184000E+00
        -11   -1    0    0    0    0  0.00000000000E+00  0.00000000000E+00  0.45593999997E+02  0.45594000000E+02  0.51100000000E-03 0. -1.
         11   -1    0    0    0    0 -0.00000000000E+00 -0.00000000000E+00 -0.45593999997E+02  0.45594000000E+02  0.51100000000E-03 0.  1.
         23    2    1    2    0    0  0.35527136788E-14 -0.17763568394E-14  0.00000000000E+00  0.91188000000E+02  0.91188000000E+02 0.  0.
    9900012    2    3    3    0    0 -0.27013000221E+02 -0.90047110139E+01 -0.23345075929E+02  0.54367087851E+02  0.40000008374E+02 0.  0.
         12    1    3    3    0    0  0.27013000221E+02  0.90047110139E+01  0.23345075929E+02  0.36820912149E+02  0.00000000000E+00 0. -1.
         11    1    4    4    0    0 -0.15721792705E+02 -0.69109041675E+01 -0.24231468750E+01  0.17343788609E+02  0.51100000000E-03 0. -1.
        -11    1    4    4    0    0 -0.17516266973E+02  0.38469667113E+01 -0.45096353801E+01  0.18492040803E+02  0.51100000000E-03 0.  1.
         12    1    4    4    0    0  0.62250594572E+01 -0.59407735577E+01 -0.16412293674E+02  0.18531258439E+02  0.00000000000E+00 0. -1.
</event>
<event>
 8    1  0.2531964E-006  0.9118800E+02  0.7816164E-02  0.1184000E+00
        -11   -1    0    0    0    0  0.00000000000E+00  0.00000000000E+00  0.45593999997E+02  0.45594000000E+02  0.51100000000E-03 0.  1.
         11   -1    0    0    0    0 -0.00000000000E+00 -0.00000000000E+00 -0.45593999997E+02  0.45594000000E+02  0.51100000000E-03 0. -1.
         23    2    1    2    0    0  0.00000000000E+00  0.00000000000E+00  0.00000000000E+00  0.91188000000E+02  0.91188000000E+02 0.  0.
    9900012    2    3    3    0    0  0.18172827992E+02  0.30173597714E+02 -0.10727651112E+02  0.54367079661E+02  0.39999989703E+02 0.  0.
        -12    1    3    3    0    0 -0.18172827992E+02 -0.30173597714E+02  0.10727651112E+02  0.36820920339E+02  0.00000000000E+00 0.  1.
         11    1    4    4    0    0  0.20759195736E+02  0.30861233007E+02 -0.10235510554E+01  0.37207627811E+02  0.51100000000E-03 0. -1.
        -11    1    4    4    0    0 -0.66204200150E+00  0.29469910907E+01  0.27247608348E+01  0.40678468467E+01  0.51100000000E-03 0.  1.
         12    1    4    4    0    0 -0.19243257429E+01 -0.36346263832E+01 -0.12428860891E+02  0.13091605003E+02  0.00000000000E+00 0. -1.
</event>
<event>
 8    1  0.2531964E-006  0.9118800E+02  0.7816164E-02  0.1184000E+00
        -11   -1    0    0    0    0  0.00000000000E+00  0.00000000000E+00  0.45593999997E+02  0.45594000000E+02  0.51100000000E-03 0. -1.
         11   -1    0    0    0    0 -0.00000000000E+00 -0.00000000000E+00 -0.45593999997E+02  0.45594000000E+02  0.51100000000E-03 0.  1.
         23    2    1    2    0    0 -0.35527136788E-14 -0.44408920985E-15  0.00000000000E+00  0.91188000000E+02  0.91188000000E+02 0.  0.
    9900012    2    3    3    0    0 -0.27664597289E+02  0.30000282515E+01 -0.24113253339E+02  0.54367094263E+02  0.40000022992E+02 0.  0.
         12    1    3    3    0    0  0.27664597289E+02 -0.30000282515E+01  0.24113253339E+02  0.36820905737E+02  0.00000000000E+00 0. -1.
         11    1    4    4    0    0 -0.29582422378E+02 -0.53409905343E+01 -0.61374923214E+01  0.30680852431E+02  0.51100000000E-03 0.  1.
        -11    1    4    4    0    0  0.11409546372E+01  0.84839247418E+01 -0.35962140522E+01  0.92850154701E+01  0.51100000000E-03 0. -1.
         12    1    4    4    0    0  0.77687045154E+00 -0.14290595596E+00 -0.14379546965E+02  0.14401226362E+02  0.00000000000E+00 0. -1.
</event>
<event>
 8    1  0.2531964E-006  0.9118800E+02  0.7816164E-02  0.1184000E+00
        -11   -1    0    0    0    0  0.00000000000E+00  0.00000000000E+00  0.45593999997E+02  0.45594000000E+02  0.51100000000E-03 0.  1.
         11   -1    0    0    0    0 -0.00000000000E+00 -0.00000000000E+00 -0.45593999997E+02  0.45594000000E+02  0.51100000000E-03 0. -1.
         23    2    1    2    0    0 -0.35527136788E-14 -0.44408920985E-15  0.00000000000E+00  0.91188000000E+02  0.91188000000E+02 0.  0.
    9900012    2    3    3    0    0 -0.26450117805E+02 -0.34919516826E+01 -0.25376699908E+02  0.54367090768E+02  0.40000015024E+02 0.  0.
        -12    1    3    3    0    0  0.26450117805E+02  0.34919516826E+01  0.25376699908E+02  0.36820909232E+02  0.00000000000E+00 0.  1.
         11    1    4    4    0    0 -0.17858069806E+02 -0.97199448743E+01 -0.74944649137E+01  0.21669217571E+02  0.51100000000E-03 0. -1.
        -11    1    4    4    0    0  0.25425195649E+01 -0.79233765512E+01 -0.17105130854E+01  0.84953020538E+01  0.51100000000E-03 0.  1.
        -12    1    4    4    0    0 -0.11134567564E+02  0.14151369743E+02 -0.16171721909E+02  0.24202571143E+02  0.00000000000E+00 0.  1.
</event>
<event>
 8    1  0.2531964E-006  0.9118800E+02  0.7816164E-02  0.1184000E+00
        -11   -1    0    0    0    0  0.00000000000E+00  0.00000000000E+00  0.45593999997E+02  0.45594000000E+02  0.51100000000E-03 0. -1.
         11   -1    0    0    0    0 -0.00000000000E+00 -0.00000000000E+00 -0.45593999997E+02  0.45594000000E+02  0.51100000000E-03 0.  1.
         23    2    1    2    0    0  0.35527136788E-14  0.00000000000E+00  0.00000000000E+00  0.91188000000E+02  0.91188000000E+02 0.  0.
    9900012    2    3    3    0    0  0.89325294539E+01 -0.24814638602E+02  0.25694800180E+02  0.54367093877E+02  0.40000022112E+02 0.  0.
        -12    1    3    3    0    0 -0.89325294539E+01  0.24814638602E+02 -0.25694800180E+02  0.36820906123E+02  0.00000000000E+00 0.  1.
         11    1    4    4    0    0  0.14280979271E+01 -0.12878819616E+02 -0.12797442522E+01  0.13020798900E+02  0.51100000000E-03 0. -1.
        -11    1    4    4    0    0 -0.97289045853E+01 -0.10020314701E+02  0.11147656062E+02  0.17869765725E+02  0.51100000000E-03 0.  1.
        -12    1    4    4    0    0  0.17233336112E+02 -0.19155042846E+01  0.15826888371E+02  0.23476529252E+02  0.00000000000E+00 0.  1.
</event>
<event>
 8    1  0.2531964E-006  0.9118800E+02  0.7816164E-02  0.1184000E+00
        -11   -1    0    0    0    0  0.00000000000E+00  0.00000000000E+00  0.45593999997E+02  0.45594000000E+02  0.51100000000E-03 0. -1.
         11   -1    0    0    0    0 -0.00000000000E+00 -0.00000000000E+00 -0.45593999997E+02  0.45594000000E+02  0.51100000000E-03 0.  1.
         23    2    1    2    0    0 -0.44408920985E-15  0.71054273576E-14  0.22204460493E-15  0.91188000000E+02  0.91188000000E+02 0.  0.
    9900012    2    3    3    0    0  0.30274870568E+00 -0.36775501408E+02 -0.18029973190E+01  0.54367082576E+02  0.39999996348E+02 0.  0.
         12    1    3    3    0    0 -0.30274870568E+00  0.36775501408E+02  0.18029973190E+01  0.36820917424E+02  0.00000000000E+00 0. -1.
         11    1    4    4    0    0 -0.15431166086E+01 -0.80045120108E+01  0.11817438197E+02  0.14356366783E+02  0.51100000000E-03 0. -1.
        -11    1    4    4    0    0  0.78327156138E+01  0.87116820048E-01 -0.50399233328E+01  0.93144968028E+01  0.51100000000E-03 0.  1.
        -12    1    4    4    0    0 -0.59868502996E+01 -0.28858106218E+02 -0.85805121833E+01  0.30696218990E+02  0.00000000000E+00 0.  1.
</event>
<event>
 8    1  0.2531964E-006  0.9118800E+02  0.7816164E-02  0.1184000E+00
        -11   -1    0    0    0    0  0.00000000000E+00  0.00000000000E+00  0.45593999997E+02  0.45594000000E+02  0.51100000000E-03 0. -1.
         11   -1    0    0    0    0 -0.00000000000E+00 -0.00000000000E+00 -0.45593999997E+02  0.45594000000E+02  0.51100000000E-03 0.  1.
         23    2    1    2    0    0  0.00000000000E+00 -0.88817841970E-15  0.00000000000E+00  0.91188000000E+02  0.91188000000E+02 0.  0.
    9900012    2    3    3    0    0  0.28794401923E+02  0.54228538272E+01 -0.22299225331E+02  0.54367076925E+02  0.39999983466E+02 0.  0.
         12    1    3    3    0    0 -0.28794401923E+02 -0.54228538272E+01  0.22299225331E+02  0.36820923075E+02  0.00000000000E+00 0. -1.
         11    1    4    4    0    0  0.94921347185E+01 -0.10044163091E+01  0.25910271431E+01  0.98905457663E+01  0.51100000000E-03 0. -1.
        -11    1    4    4    0    0  0.11869997469E+02  0.16954852045E+02 -0.23804805235E+02  0.31544137337E+02  0.51100000000E-03 0.  1.
        -12    1    4    4    0    0  0.74322697355E+01 -0.10527581908E+02 -0.10854472390E+01  0.12932393822E+02  0.00000000000E+00 0.  1.
</event>
<event>
 8    1  0.2531964E-006  0.9118800E+02  0.7816164E-02  0.1184000E+00
        -11   -1    0    0    0    0  0.00000000000E+00  0.00000000000E+00  0.45593999997E+02  0.45594000000E+02  0.51100000000E-03 0. -1.
         11   -1    0    0    0    0 -0.00000000000E+00 -0.00000000000E+00 -0.45593999997E+02  0.45594000000E+02  0.51100000000E-03 0.  1.
         23    2    1    2    0    0  0.00000000000E+00 -0.26645352591E-14  0.35527136788E-14  0.91188000000E+02  0.91188000000E+02 0.  0.
    9900012    2    3    3    0    0  0.30989320103E+02 -0.56397580070E+01  0.19069048313E+02  0.54367171188E+02  0.40000198358E+02 0.  0.
        -12    1    3    3    0    0 -0.30989320103E+02  0.56397580070E+01 -0.19069048313E+02  0.36820828812E+02  0.00000000000E+00 0.  1.
         11    1    4    4    0    0  0.11994035286E+02 -0.70501285233E+01  0.13568951345E+02  0.19433930007E+02  0.51100000000E-03 0. -1.
        -11    1    4    4    0    0  0.10872267023E+02  0.14022532254E+02 -0.25209555290E+01  0.17921853086E+02  0.51100000000E-03 0.  1.
        -12    1    4    4    0    0  0.81230177939E+01 -0.12612161737E+02  0.80210524968E+01  0.17011388095E+02  0.00000000000E+00 0.  1.
</event>
<event>
 8    1  0.2531964E-006  0.9118800E+02  0.7816164E-02  0.1184000E+00
        -11   -1    0    0    0    0  0.00000000000E+00  0.00000000000E+00  0.45593999997E+02  0.45594000000E+02  0.51100000000E-03 0. -1.
         11   -1    0    0    0    0 -0.00000000000E+00 -0.00000000000E+00 -0.45593999997E+02  0.45594000000E+02  0.51100000000E-03 0.  1.
         23    2    1    2    0    0  0.00000000000E+00  0.00000000000E+00  0.00000000000E+00  0.91188000000E+02  0.91188000000E+02 0.  0.
    9900012    2    3    3    0    0 -0.32611486314E+02  0.68596877463E+01 -0.15659713249E+02  0.54366933006E+02  0.39999655371E+02 0.  0.
         12    1    3    3    0    0  0.32611486314E+02 -0.68596877463E+01  0.15659713249E+02  0.36821066994E+02  0.00000000000E+00 0. -1.
         11    1    4    4    0    0  0.38096475780E+00 -0.42412811122E+01 -0.61535604808E+00  0.43025879359E+01  0.51100000000E-03 0. -1.
        -11    1    4    4    0    0 -0.54005303779E+01  0.15473902219E+02 -0.14866679939E+02  0.22127484062E+02  0.51100000000E-03 0.  1.
        -12    1    4    4    0    0 -0.27591920693E+02 -0.43729333610E+01 -0.17767726202E+00  0.27936861007E+02  0.00000000000E+00 0.  1.
</event>
<event>
 8    1  0.2531964E-006  0.9118800E+02  0.7816164E-02  0.1184000E+00
        -11   -1    0    0    0    0  0.00000000000E+00  0.00000000000E+00  0.45593999997E+02  0.45594000000E+02  0.51100000000E-03 0. -1.
         11   -1    0    0    0    0 -0.00000000000E+00 -0.00000000000E+00 -0.45593999997E+02  0.45594000000E+02  0.51100000000E-03 0.  1.
         23    2    1    2    0    0 -0.26645352591E-14  0.00000000000E+00  0.17763568394E-14  0.91188000000E+02  0.91188000000E+02 0.  0.
    9900012    2    3    3    0    0  0.76613266337E+01  0.33494658060E+02 -0.13235917451E+02  0.54367115231E+02  0.40000070793E+02 0.  0.
         12    1    3    3    0    0 -0.76613266337E+01 -0.33494658060E+02  0.13235917451E+02  0.36820884769E+02  0.00000000000E+00 0. -1.
         11    1    4    4    0    0 -0.25533403161E+01  0.19173143311E+02  0.96597253478E+01  0.21620343782E+02  0.51100000000E-03 0. -1.
        -11    1    4    4    0    0 -0.66465731196E+00  0.47751457988E+01 -0.16006880046E+02  0.16717176670E+02  0.51100000000E-03 0.  1.
        -12    1    4    4    0    0  0.10879324262E+02  0.95463689505E+01 -0.68887627526E+01  0.16029594779E+02  0.00000000000E+00 0.  1.
</event>
<event>
 8    1  0.2531964E-006  0.9118800E+02  0.7816164E-02  0.1184000E+00
        -11   -1    0    0    0    0  0.00000000000E+00  0.00000000000E+00  0.45593999997E+02  0.45594000000E+02  0.51100000000E-03 0. -1.
         11   -1    0    0    0    0 -0.00000000000E+00 -0.00000000000E+00 -0.45593999997E+02  0.45594000000E+02  0.51100000000E-03 0.  1.
         23    2    1    2    0    0  0.00000000000E+00  0.00000000000E+00  0.00000000000E+00  0.91188000000E+02  0.91188000000E+02 0.  0.
    9900012    2    3    3    0    0 -0.28296216449E+02 -0.43720622023E+01  0.23151470763E+02  0.54367063134E+02  0.39999952026E+02 0.  0.
        -12    1    3    3    0    0  0.28296216449E+02  0.43720622023E+01 -0.23151470763E+02  0.36820936866E+02  0.00000000000E+00 0.  1.
         11    1    4    4    0    0 -0.36736061322E+02  0.42902899122E+01  0.17240626928E+02  0.40806666197E+02  0.51100000000E-03 0. -1.
        -11    1    4    4    0    0  0.11244545505E+01 -0.88131386659E+00  0.17968034238E+00  0.14399296699E+01  0.51100000000E-03 0.  1.
         12    1    4    4    0    0  0.73153903224E+01 -0.77810382479E+01  0.57311634924E+01  0.12120467267E+02  0.00000000000E+00 0. -1.
</event>
<event>
 8    1  0.2531964E-006  0.9118800E+02  0.7816164E-02  0.1184000E+00
        -11   -1    0    0    0    0  0.00000000000E+00  0.00000000000E+00  0.45593999997E+02  0.45594000000E+02  0.51100000000E-03 0. -1.
         11   -1    0    0    0    0 -0.00000000000E+00 -0.00000000000E+00 -0.45593999997E+02  0.45594000000E+02  0.51100000000E-03 0.  1.
         23    2    1    2    0    0 -0.17763568394E-14 -0.17763568394E-14  0.71054273576E-14  0.91188000000E+02  0.91188000000E+02 0.  0.
    9900012    2    3    3    0    0 -0.85793567229E+01 -0.14008602360E+02  0.32953536189E+02  0.54367056921E+02  0.39999937862E+02 0.  0.
        -12    1    3    3    0    0  0.85793567229E+01  0.14008602360E+02 -0.32953536189E+02  0.36820943079E+02  0.00000000000E+00 0.  1.
         11    1    4    4    0    0  0.67836053312E+00  0.16931602676E+01 -0.25588888977E+00  0.18418588681E+01  0.51100000000E-03 0. -1.
        -11    1    4    4    0    0 -0.92084796690E+01 -0.91875143271E+01 -0.48721519684E+01  0.13890442124E+02  0.51100000000E-03 0.  1.
         12    1    4    4    0    0 -0.49237587090E-01 -0.65142483006E+01  0.38081577048E+02  0.38634755929E+02  0.00000000000E+00 0. -1.
</event>
<event>
 8    1  0.2531964E-006  0.9118800E+02  0.7816164E-02  0.1184000E+00
        -11   -1    0    0    0    0  0.00000000000E+00  0.00000000000E+00  0.45593999997E+02  0.45594000000E+02  0.51100000000E-03 0.  1.
         11   -1    0    0    0    0 -0.00000000000E+00 -0.00000000000E+00 -0.45593999997E+02  0.45594000000E+02  0.51100000000E-03 0. -1.
         23    2    1    2    0    0  0.00000000000E+00  0.00000000000E+00  0.00000000000E+00  0.91188000000E+02  0.91188000000E+02 0.  0.
    9900012    2    3    3    0    0  0.17850514056E+02 -0.26484399000E+02  0.18322534798E+02  0.54367088497E+02  0.40000009847E+02 0.  0.
         12    1    3    3    0    0 -0.17850514056E+02  0.26484399000E+02 -0.18322534798E+02  0.36820911503E+02  0.00000000000E+00 0. -1.
         11    1    4    4    0    0  0.16188407991E+02 -0.14875214249E+02  0.74779817844E+01  0.23221902680E+02  0.51100000000E-03 0. -1.
        -11    1    4    4    0    0 -0.88158871996E+01 -0.10882370593E+02  0.14370168549E+02  0.20066080864E+02  0.51100000000E-03 0.  1.
        -12    1    4    4    0    0  0.10477993265E+02 -0.72681415811E+00 -0.35256155353E+01  0.11079104954E+02  0.00000000000E+00 0.  1.
</event>
<event>
 8    1  0.2531964E-006  0.9118800E+02  0.7816164E-02  0.1184000E+00
        -11   -1    0    0    0    0  0.00000000000E+00  0.00000000000E+00  0.45593999997E+02  0.45594000000E+02  0.51100000000E-03 0.  1.
         11   -1    0    0    0    0 -0.00000000000E+00 -0.00000000000E+00 -0.45593999997E+02  0.45594000000E+02  0.51100000000E-03 0. -1.
         23    2    1    2    0    0  0.00000000000E+00  0.00000000000E+00  0.00000000000E+00  0.91188000000E+02  0.91188000000E+02 0.  0.
    9900012    2    3    3    0    0 -0.24413038556E+02 -0.17695006773E+02  0.21134512598E+02  0.54367118167E+02  0.40000077485E+02 0.  0.
         12    1    3    3    0    0  0.24413038556E+02  0.17695006773E+02 -0.21134512598E+02  0.36820881833E+02  0.00000000000E+00 0. -1.
         11    1    4    4    0    0  0.48109682482E+01  0.21317087117E+01  0.52285184515E+01  0.74180188039E+01  0.51100000000E-03 0. -1.
        -11    1    4    4    0    0 -0.29470248087E+02 -0.60456785128E+01  0.13428552351E+02  0.32944980946E+02  0.51100000000E-03 0.  1.
        -12    1    4    4    0    0  0.24624128288E+00 -0.13781036972E+02  0.24774417947E+01  0.14004118417E+02  0.00000000000E+00 0.  1.
</event>
<event>
 8    1  0.2531964E-006  0.9118800E+02  0.7816164E-02  0.1184000E+00
        -11   -1    0    0    0    0  0.00000000000E+00  0.00000000000E+00  0.45593999997E+02  0.45594000000E+02  0.51100000000E-03 0. -1.
         11   -1    0    0    0    0 -0.00000000000E+00 -0.00000000000E+00 -0.45593999997E+02  0.45594000000E+02  0.51100000000E-03 0.  1.
         23    2    1    2    0    0 -0.35527136788E-14  0.35527136788E-14  0.35527136788E-14  0.91188000000E+02  0.91188000000E+02 0.  0.
    9900012    2    3    3    0    0 -0.18930389290E+02 -0.19334497722E+02 -0.24971937833E+02  0.54367080403E+02  0.39999991395E+02 0.  0.
         12    1    3    3    0    0  0.18930389290E+02  0.19334497722E+02  0.24971937833E+02  0.36820919597E+02  0.00000000000E+00 0. -1.
         11    1    4    4    0    0  0.22647141494E+01  0.73225033062E+01 -0.12670416940E+02  0.14808357456E+02  0.51100000000E-03 0. -1.
        -11    1    4    4    0    0 -0.22653055475E+02 -0.26081963447E+02 -0.13975247594E+02  0.37265765593E+02  0.51100000000E-03 0.  1.
         12    1    4    4    0    0  0.14579520362E+01 -0.57503758072E+00  0.16737267009E+01  0.22929573542E+01  0.00000000000E+00 0. -1.
</event>
<event>
 8    1  0.2531964E-006  0.9118800E+02  0.7816164E-02  0.1184000E+00
        -11   -1    0    0    0    0  0.00000000000E+00  0.00000000000E+00  0.45593999997E+02  0.45594000000E+02  0.51100000000E-03 0.  1.
         11   -1    0    0    0    0 -0.00000000000E+00 -0.00000000000E+00 -0.45593999997E+02  0.45594000000E+02  0.51100000000E-03 0. -1.
         23    2    1    2    0    0  0.35527136788E-14  0.35527136788E-14  0.00000000000E+00  0.91188000000E+02  0.91188000000E+02 0.  0.
    9900012    2    3    3    0    0 -0.27023691208E+02 -0.24469215387E+02  0.51727050371E+01  0.54367092005E+02  0.40000017844E+02 0.  0.
         12    1    3    3    0    0  0.27023691208E+02  0.24469215387E+02 -0.51727050371E+01  0.36820907995E+02  0.00000000000E+00 0. -1.
         11    1    4    4    0    0 -0.18605733318E+02  0.80903611236E+00  0.66151298435E+01  0.19763294129E+02  0.51100000000E-03 0. -1.
        -11    1    4    4    0    0 -0.15693254251E+02 -0.16758581063E+02  0.15382077670E+01  0.23010744265E+02  0.51100000000E-03 0.  1.
         12    1    4    4    0    0  0.72752963612E+01 -0.85196704363E+01 -0.29806325735E+01  0.11593053611E+02  0.00000000000E+00 0. -1.
</event>
<event>
 8    1  0.2531964E-006  0.9118800E+02  0.7816164E-02  0.1184000E+00
        -11   -1    0    0    0    0  0.00000000000E+00  0.00000000000E+00  0.45593999997E+02  0.45594000000E+02  0.51100000000E-03 0.  1.
         11   -1    0    0    0    0 -0.00000000000E+00 -0.00000000000E+00 -0.45593999997E+02  0.45594000000E+02  0.51100000000E-03 0. -1.
         23    2    1    2    0    0  0.00000000000E+00  0.00000000000E+00  0.00000000000E+00  0.91188000000E+02  0.91188000000E+02 0.  0.
    9900012    2    3    3    0    0 -0.16700419910E+02 -0.26880114399E+02 -0.18823794250E+02  0.54367084676E+02  0.40000001137E+02 0.  0.
        -12    1    3    3    0    0  0.16700419910E+02  0.26880114399E+02  0.18823794250E+02  0.36820915324E+02  0.00000000000E+00 0.  1.
         11    1    4    4    0    0 -0.99855228435E+01 -0.75957249694E+01 -0.26201422033E+02  0.29050305009E+02  0.51100000000E-03 0. -1.
        -11    1    4    4    0    0 -0.95475894420E+01 -0.15522109298E+02  0.22616459385E+01  0.18363207341E+02  0.51100000000E-03 0.  1.
         12    1    4    4    0    0  0.28326923751E+01 -0.37622801313E+01  0.51159818445E+01  0.69535723273E+01  0.00000000000E+00 0. -1.
</event>
<event>
 8    1  0.2531964E-006  0.9118800E+02  0.7816164E-02  0.1184000E+00
        -11   -1    0    0    0    0  0.00000000000E+00  0.00000000000E+00  0.45593999997E+02  0.45594000000E+02  0.51100000000E-03 0. -1.
         11   -1    0    0    0    0 -0.00000000000E+00 -0.00000000000E+00 -0.45593999997E+02  0.45594000000E+02  0.51100000000E-03 0.  1.
         23    2    1    2    0    0  0.00000000000E+00  0.00000000000E+00  0.00000000000E+00  0.91188000000E+02  0.91188000000E+02 0.  0.
    9900012    2    3    3    0    0  0.15598765360E+02  0.20345936325E+02 -0.26429193135E+02  0.54367070415E+02  0.39999968626E+02 0.  0.
         12    1    3    3    0    0 -0.15598765360E+02 -0.20345936325E+02  0.26429193135E+02  0.36820929585E+02  0.00000000000E+00 0. -1.
         11    1    4    4    0    0  0.98365712725E+01 -0.52431682889E+01 -0.73329927281E+01  0.13342478432E+02  0.51100000000E-03 0. -1.
        -11    1    4    4    0    0 -0.24014334612E+01  0.20563824245E+02 -0.22754702847E+02  0.30763846511E+02  0.51100000000E-03 0.  1.
        -12    1    4    4    0    0  0.81636275489E+01  0.50252803691E+01  0.36585024396E+01  0.10260745472E+02  0.00000000000E+00 0.  1.
</event>
<event>
 8    1  0.2531964E-006  0.9118800E+02  0.7816164E-02  0.1184000E+00
        -11   -1    0    0    0    0  0.00000000000E+00  0.00000000000E+00  0.45593999997E+02  0.45594000000E+02  0.51100000000E-03 0.  1.
         11   -1    0    0    0    0 -0.00000000000E+00 -0.00000000000E+00 -0.45593999997E+02  0.45594000000E+02  0.51100000000E-03 0. -1.
         23    2    1    2    0    0  0.35527136788E-14 -0.17763568394E-14  0.35527136788E-14  0.91188000000E+02  0.91188000000E+02 0.  0.
    9900012    2    3    3    0    0  0.19159584427E+02 -0.11186234019E+02  0.29386352749E+02  0.54367092422E+02  0.40000018795E+02 0.  0.
         12    1    3    3    0    0 -0.19159584427E+02  0.11186234019E+02 -0.29386352749E+02  0.36820907578E+02  0.00000000000E+00 0. -1.
         11    1    4    4    0    0  0.62526631002E+01  0.40182742322E+01  0.10559477545E+02  0.12912973706E+02  0.51100000000E-03 0. -1.
        -11    1    4    4    0    0  0.17445837234E+02  0.10139900606E+01  0.19036318467E+01  0.17578658285E+02  0.51100000000E-03 0.  1.
         12    1    4    4    0    0 -0.45389159063E+01 -0.16218498312E+02  0.16923243357E+02  0.23875460431E+02  0.00000000000E+00 0. -1.
</event>
<event>
 8    1  0.2531964E-006  0.9118800E+02  0.7816164E-02  0.1184000E+00
        -11   -1    0    0    0    0  0.00000000000E+00  0.00000000000E+00  0.45593999997E+02  0.45594000000E+02  0.51100000000E-03 0. -1.
         11   -1    0    0    0    0 -0.00000000000E+00 -0.00000000000E+00 -0.45593999997E+02  0.45594000000E+02  0.51100000000E-03 0.  1.
         23    2    1    2    0    0  0.17763568394E-14  0.00000000000E+00 -0.71054273576E-14  0.91188000000E+02  0.91188000000E+02 0.  0.
    9900012    2    3    3    0    0 -0.11540507077E+02 -0.12528785570E+02  0.32643922304E+02  0.54367089706E+02  0.40000012603E+02 0.  0.
        -12    1    3    3    0    0  0.11540507077E+02  0.12528785570E+02 -0.32643922304E+02  0.36820910294E+02  0.00000000000E+00 0.  1.
         11    1    4    4    0    0  0.10648441778E+02  0.13370340761E+01  0.47305744937E+01  0.11728397492E+02  0.51100000000E-03 0.  1.
        -11    1    4    4    0    0 -0.74558621177E+01 -0.15704472236E+02  0.14988033684E+02  0.22953463401E+02  0.51100000000E-03 0. -1.
         12    1    4    4    0    0 -0.14733086738E+02  0.18386525891E+01  0.12925314126E+02  0.19685228813E+02  0.00000000000E+00 0. -1.
</event>
<event>
 8    1  0.2531964E-006  0.9118800E+02  0.7816164E-02  0.1184000E+00
        -11   -1    0    0    0    0  0.00000000000E+00  0.00000000000E+00  0.45593999997E+02  0.45594000000E+02  0.51100000000E-03 0.  1.
         11   -1    0    0    0    0 -0.00000000000E+00 -0.00000000000E+00 -0.45593999997E+02  0.45594000000E+02  0.51100000000E-03 0. -1.
         23    2    1    2    0    0  0.00000000000E+00  0.00000000000E+00  0.00000000000E+00  0.91188000000E+02  0.91188000000E+02 0.  0.
    9900012    2    3    3    0    0 -0.80455753644E+01  0.34916333005E+02  0.84793449039E+01  0.54367070035E+02  0.39999967759E+02 0.  0.
         12    1    3    3    0    0  0.80455753644E+01 -0.34916333005E+02 -0.84793449039E+01  0.36820929965E+02  0.00000000000E+00 0. -1.
         11    1    4    4    0    0 -0.66811445655E+01  0.18816893671E+02 -0.78731922687E+01  0.21463931068E+02  0.51100000000E-03 0. -1.
        -11    1    4    4    0    0  0.10100446429E+02  0.61522297467E+01  0.19640890954E+01  0.11988602719E+02  0.51100000000E-03 0.  1.
         12    1    4    4    0    0 -0.11464877227E+02  0.99472095873E+01  0.14388448077E+02  0.20914536248E+02  0.00000000000E+00 0. -1.
</event>
<event>
 8    1  0.2531964E-006  0.9118800E+02  0.7816164E-02  0.1184000E+00
        -11   -1    0    0    0    0  0.00000000000E+00  0.00000000000E+00  0.45593999997E+02  0.45594000000E+02  0.51100000000E-03 0.  1.
         11   -1    0    0    0    0 -0.00000000000E+00 -0.00000000000E+00 -0.45593999997E+02  0.45594000000E+02  0.51100000000E-03 0. -1.
         23    2    1    2    0    0 -0.71054273576E-14  0.00000000000E+00 -0.17763568394E-14  0.91188000000E+02  0.91188000000E+02 0.  0.
    9900012    2    3    3    0    0 -0.33777893795E+02 -0.63258323179E+01 -0.13221822080E+02  0.54367097746E+02  0.40000030930E+02 0.  0.
        -12    1    3    3    0    0  0.33777893795E+02  0.63258323179E+01  0.13221822080E+02  0.36820902254E+02  0.00000000000E+00 0.  1.
         11    1    4    4    0    0 -0.87321540623E+01 -0.14804446046E+02 -0.13883033174E+02  0.22094360087E+02  0.51100000000E-03 0. -1.
        -11    1    4    4    0    0 -0.76614033095E+01  0.12259818278E+02 -0.24431265036E+00  0.14458905000E+02  0.51100000000E-03 0.  1.
         12    1    4    4    0    0 -0.17384336423E+02 -0.37812045497E+01  0.90552374455E+00  0.17813832658E+02  0.00000000000E+00 0. -1.
</event>
<event>
 8    1  0.2531964E-006  0.9118800E+02  0.7816164E-02  0.1184000E+00
        -11   -1    0    0    0    0  0.00000000000E+00  0.00000000000E+00  0.45593999997E+02  0.45594000000E+02  0.51100000000E-03 0. -1.
         11   -1    0    0    0    0 -0.00000000000E+00 -0.00000000000E+00 -0.45593999997E+02  0.45594000000E+02  0.51100000000E-03 0.  1.
         23    2    1    2    0    0  0.35527136788E-14 -0.35527136788E-14 -0.35527136788E-14  0.91188000000E+02  0.91188000000E+02 0.  0.
    9900012    2    3    3    0    0 -0.15746954443E+02 -0.19747275653E+02 -0.26792849098E+02  0.54367106030E+02  0.40000049817E+02 0.  0.
         12    1    3    3    0    0  0.15746954443E+02  0.19747275653E+02  0.26792849098E+02  0.36820893970E+02  0.00000000000E+00 0. -1.
         11    1    4    4    0    0 -0.97239738401E+01 -0.85122157844E+01 -0.47121022462E+01  0.13755631307E+02  0.51100000000E-03 0.  1.
        -11    1    4    4    0    0  0.12173351465E+02 -0.13819688954E+01 -0.33523092272E+01  0.12701901485E+02  0.51100000000E-03 0. -1.
        -12    1    4    4    0    0 -0.18196332069E+02 -0.98530909733E+01 -0.18728437625E+02  0.27909573238E+02  0.00000000000E+00 0.  1.
</event>
<event>
 8    1  0.2531964E-006  0.9118800E+02  0.7816164E-02  0.1184000E+00
        -11   -1    0    0    0    0  0.00000000000E+00  0.00000000000E+00  0.45593999997E+02  0.45594000000E+02  0.51100000000E-03 0. -1.
         11   -1    0    0    0    0 -0.00000000000E+00 -0.00000000000E+00 -0.45593999997E+02  0.45594000000E+02  0.51100000000E-03 0.  1.
         23    2    1    2    0    0  0.17763568394E-14  0.00000000000E+00 -0.66613381478E-15  0.91188000000E+02  0.91188000000E+02 0.  0.
    9900012    2    3    3    0    0 -0.82328406436E+01  0.35858924028E+02  0.14618651400E+01  0.54367093612E+02  0.40000021508E+02 0.  0.
        -12    1    3    3    0    0  0.82328406436E+01 -0.35858924028E+02 -0.14618651400E+01  0.36820906388E+02  0.00000000000E+00 0.  1.
         11    1    4    4    0    0  0.20706568739E+01  0.22108165303E+02  0.47097327648E+01  0.22698902527E+02  0.51100000000E-03 0. -1.
        -11    1    4    4    0    0 -0.87799905355E+01 -0.46548298898E+01  0.53613756789E+01  0.11291590877E+02  0.51100000000E-03 0.  1.
        -12    1    4    4    0    0 -0.15235069819E+01  0.18405588614E+02 -0.86092433037E+01  0.20376600208E+02  0.00000000000E+00 0.  1.
</event>
<event>
 8    1  0.2531964E-006  0.9118800E+02  0.7816164E-02  0.1184000E+00
        -11   -1    0    0    0    0  0.00000000000E+00  0.00000000000E+00  0.45593999997E+02  0.45594000000E+02  0.51100000000E-03 0. -1.
         11   -1    0    0    0    0 -0.00000000000E+00 -0.00000000000E+00 -0.45593999997E+02  0.45594000000E+02  0.51100000000E-03 0.  1.
         23    2    1    2    0    0  0.00000000000E+00  0.00000000000E+00  0.00000000000E+00  0.91188000000E+02  0.91188000000E+02 0.  0.
    9900012    2    3    3    0    0 -0.17066004572E+02  0.31978395041E+02  0.64740978047E+01  0.54367079264E+02  0.39999988799E+02 0.  0.
        -12    1    3    3    0    0  0.17066004572E+02 -0.31978395041E+02 -0.64740978047E+01  0.36820920736E+02  0.00000000000E+00 0.  1.
         11    1    4    4    0    0 -0.48089613548E+01  0.56412065107E+01  0.16062007224E+02  0.17690036646E+02  0.51100000000E-03 0. -1.
        -11    1    4    4    0    0  0.41716853556E+01  0.95569750154E+00  0.14075313978E+01  0.45052703934E+01  0.51100000000E-03 0.  1.
        -12    1    4    4    0    0 -0.16428728573E+02  0.25381491029E+02 -0.10995440817E+02  0.32171772225E+02  0.00000000000E+00 0.  1.
</event>
<event>
 8    1  0.2531964E-006  0.9118800E+02  0.7816164E-02  0.1184000E+00
        -11   -1    0    0    0    0  0.00000000000E+00  0.00000000000E+00  0.45593999997E+02  0.45594000000E+02  0.51100000000E-03 0. -1.
         11   -1    0    0    0    0 -0.00000000000E+00 -0.00000000000E+00 -0.45593999997E+02  0.45594000000E+02  0.51100000000E-03 0.  1.
         23    2    1    2    0    0  0.88817841970E-15  0.00000000000E+00  0.00000000000E+00  0.91188000000E+02  0.91188000000E+02 0.  0.
    9900012    2    3    3    0    0  0.21659487210E+01 -0.36318246665E+02 -0.56633887413E+01  0.54367077324E+02  0.39999984376E+02 0.  0.
         12    1    3    3    0    0 -0.21659487210E+01  0.36318246665E+02  0.56633887413E+01  0.36820922676E+02  0.00000000000E+00 0. -1.
         11    1    4    4    0    0  0.11387627541E+02 -0.19620087522E+02  0.65789323703E+01  0.23620081430E+02  0.51100000000E-03 0. -1.
        -11    1    4    4    0    0 -0.15132741322E+02 -0.14945455218E+02 -0.12323165935E+02  0.24581027451E+02  0.51100000000E-03 0.  1.
        -12    1    4    4    0    0  0.59110625026E+01 -0.17527039251E+01  0.80844823708E-01  0.61659684433E+01  0.00000000000E+00 0.  1.
</event>
<event>
 8    1  0.2531964E-006  0.9118800E+02  0.7816164E-02  0.1184000E+00
        -11   -1    0    0    0    0  0.00000000000E+00  0.00000000000E+00  0.45593999997E+02  0.45594000000E+02  0.51100000000E-03 0.  1.
         11   -1    0    0    0    0 -0.00000000000E+00 -0.00000000000E+00 -0.45593999997E+02  0.45594000000E+02  0.51100000000E-03 0. -1.
         23    2    1    2    0    0 -0.35527136788E-14 -0.88817841970E-15  0.00000000000E+00  0.91188000000E+02  0.91188000000E+02 0.  0.
    9900012    2    3    3    0    0  0.27065753362E+02  0.67551218568E+01  0.24033178608E+02  0.54367077275E+02  0.39999984264E+02 0.  0.
         12    1    3    3    0    0 -0.27065753362E+02 -0.67551218568E+01 -0.24033178608E+02  0.36820922725E+02  0.00000000000E+00 0. -1.
         11    1    4    4    0    0  0.10693944333E+02 -0.13132423299E+02  0.16236896846E+02  0.23461837237E+02  0.51100000000E-03 0.  1.
        -11    1    4    4    0    0  0.11937992514E+02  0.14896235356E+02  0.12428888699E+02  0.22779173989E+02  0.51100000000E-03 0. -1.
        -12    1    4    4    0    0  0.44338165148E+01  0.49913097997E+01 -0.46326069369E+01  0.81260660492E+01  0.00000000000E+00 0.  1.
</event>
<event>
 8    1  0.2531964E-006  0.9118800E+02  0.7816164E-02  0.1184000E+00
        -11   -1    0    0    0    0  0.00000000000E+00  0.00000000000E+00  0.45593999997E+02  0.45594000000E+02  0.51100000000E-03 0. -1.
         11   -1    0    0    0    0 -0.00000000000E+00 -0.00000000000E+00 -0.45593999997E+02  0.45594000000E+02  0.51100000000E-03 0.  1.
         23    2    1    2    0    0  0.35527136788E-14 -0.17763568394E-14  0.00000000000E+00  0.91188000000E+02  0.91188000000E+02 0.  0.
    9900012    2    3    3    0    0 -0.24292555351E+02  0.15986958803E+02  0.22584699359E+02  0.54367085530E+02  0.40000003083E+02 0.  0.
        -12    1    3    3    0    0  0.24292555351E+02 -0.15986958803E+02 -0.22584699359E+02  0.36820914470E+02  0.00000000000E+00 0.  1.
         11    1    4    4    0    0 -0.28328203246E+01 -0.43954573325E+01  0.10511452756E+01  0.53338375308E+01  0.51100000000E-03 0. -1.
        -11    1    4    4    0    0 -0.24530809932E+02  0.23486435802E+01  0.17704340820E+02  0.30343375665E+02  0.51100000000E-03 0.  1.
        -12    1    4    4    0    0  0.30710749057E+01  0.18033772556E+02  0.38292132637E+01  0.18689872335E+02  0.00000000000E+00 0.  1.
</event>
<event>
 8    1  0.2531964E-006  0.9118800E+02  0.7816164E-02  0.1184000E+00
        -11   -1    0    0    0    0  0.00000000000E+00  0.00000000000E+00  0.45593999997E+02  0.45594000000E+02  0.51100000000E-03 0.  1.
         11   -1    0    0    0    0 -0.00000000000E+00 -0.00000000000E+00 -0.45593999997E+02  0.45594000000E+02  0.51100000000E-03 0. -1.
         23    2    1    2    0    0 -0.71054273576E-14  0.00000000000E+00 -0.22204460493E-14  0.91188000000E+02  0.91188000000E+02 0.  0.
    9900012    2    3    3    0    0  0.35347135804E+02  0.95627101973E+01 -0.38617908444E+01  0.54367097453E+02  0.40000030264E+02 0.  0.
         12    1    3    3    0    0 -0.35347135804E+02 -0.95627101973E+01  0.38617908444E+01  0.36820902547E+02  0.00000000000E+00 0. -1.
         11    1    4    4    0    0  0.28380113758E+00 -0.78990283693E+01 -0.10918374259E+02  0.13479098226E+02  0.51100000000E-03 0. -1.
        -11    1    4    4    0    0  0.14692764128E+02  0.24549454314E+01  0.14012454729E+01  0.14962204514E+02  0.51100000000E-03 0.  1.
         12    1    4    4    0    0  0.20370570538E+02  0.15006793135E+02  0.56553379418E+01  0.25925794713E+02  0.00000000000E+00 0. -1.
</event>
<event>
 8    1  0.2531964E-006  0.9118800E+02  0.7816164E-02  0.1184000E+00
        -11   -1    0    0    0    0  0.00000000000E+00  0.00000000000E+00  0.45593999997E+02  0.45594000000E+02  0.51100000000E-03 0.  1.
         11   -1    0    0    0    0 -0.00000000000E+00 -0.00000000000E+00 -0.45593999997E+02  0.45594000000E+02  0.51100000000E-03 0. -1.
         23    2    1    2    0    0  0.00000000000E+00 -0.17763568394E-14  0.35527136788E-14  0.91188000000E+02  0.91188000000E+02 0.  0.
    9900012    2    3    3    0    0  0.17859721135E+02 -0.10368881423E+02  0.30484370467E+02  0.54367079537E+02  0.39999989421E+02 0.  0.
         12    1    3    3    0    0 -0.17859721135E+02  0.10368881423E+02 -0.30484370467E+02  0.36820920463E+02  0.00000000000E+00 0. -1.
         11    1    4    4    0    0  0.71312920897E+01  0.11076106998E+02  0.53201004330E+01  0.14207003272E+02  0.51100000000E-03 0. -1.
        -11    1    4    4    0    0 -0.38820668885E+01  0.14175473850E+01  0.39744207517E+01  0.57337513452E+01  0.51100000000E-03 0.  1.
        -12    1    4    4    0    0  0.14610495934E+02 -0.22862535806E+02  0.21189849282E+02  0.34426324920E+02  0.00000000000E+00 0.  1.
</event>
<event>
 8    1  0.2531964E-006  0.9118800E+02  0.7816164E-02  0.1184000E+00
        -11   -1    0    0    0    0  0.00000000000E+00  0.00000000000E+00  0.45593999997E+02  0.45594000000E+02  0.51100000000E-03 0. -1.
         11   -1    0    0    0    0 -0.00000000000E+00 -0.00000000000E+00 -0.45593999997E+02  0.45594000000E+02  0.51100000000E-03 0.  1.
         23    2    1    2    0    0 -0.66613381478E-15  0.00000000000E+00  0.00000000000E+00  0.91188000000E+02  0.91188000000E+02 0.  0.
    9900012    2    3    3    0    0  0.11696307578E+00 -0.99359204946E+01  0.35454833319E+02  0.54367062993E+02  0.39999951704E+02 0.  0.
        -12    1    3    3    0    0 -0.11696307578E+00  0.99359204946E+01 -0.35454833319E+02  0.36820937007E+02  0.00000000000E+00 0.  1.
         11    1    4    4    0    0  0.71979437401E+01 -0.74390838740E+01  0.38354289065E+02  0.39726588740E+02  0.51100000000E-03 0. -1.
        -11    1    4    4    0    0 -0.72296948892E+01 -0.68348518859E+01 -0.26338810623E+01  0.10291793731E+02  0.51100000000E-03 0.  1.
         12    1    4    4    0    0  0.14871422484E+00  0.43380152653E+01 -0.26557468425E+00  0.43486805212E+01  0.00000000000E+00 0. -1.
</event>
<event>
 8    1  0.2531964E-006  0.9118800E+02  0.7816164E-02  0.1184000E+00
        -11   -1    0    0    0    0  0.00000000000E+00  0.00000000000E+00  0.45593999997E+02  0.45594000000E+02  0.51100000000E-03 0. -1.
         11   -1    0    0    0    0 -0.00000000000E+00 -0.00000000000E+00 -0.45593999997E+02  0.45594000000E+02  0.51100000000E-03 0.  1.
         23    2    1    2    0    0  0.00000000000E+00  0.88817841970E-15  0.71054273576E-14  0.91188000000E+02  0.91188000000E+02 0.  0.
    9900012    2    3    3    0    0 -0.12453867241E+02 -0.63476807140E+01 -0.34064365907E+02  0.54367178657E+02  0.40000215384E+02 0.  0.
         12    1    3    3    0    0  0.12453867241E+02  0.63476807140E+01  0.34064365907E+02  0.36820821343E+02  0.00000000000E+00 0. -1.
         11    1    4    4    0    0  0.39867749892E+01 -0.93695662016E+01 -0.80538692464E+01  0.12982602040E+02  0.51100000000E-03 0. -1.
        -11    1    4    4    0    0 -0.22195900325E+02  0.28621666237E+01 -0.27482377424E+02  0.35441939255E+02  0.51100000000E-03 0.  1.
         12    1    4    4    0    0  0.57552580944E+01  0.15971886388E+00  0.14718807631E+01  0.59426373631E+01  0.00000000000E+00 0. -1.
</event>
<event>
 8    1  0.2531964E-006  0.9118800E+02  0.7816164E-02  0.1184000E+00
        -11   -1    0    0    0    0  0.00000000000E+00  0.00000000000E+00  0.45593999997E+02  0.45594000000E+02  0.51100000000E-03 0.  1.
         11   -1    0    0    0    0 -0.00000000000E+00 -0.00000000000E+00 -0.45593999997E+02  0.45594000000E+02  0.51100000000E-03 0. -1.
         23    2    1    2    0    0 -0.71054273576E-14  0.00000000000E+00  0.00000000000E+00  0.91188000000E+02  0.91188000000E+02 0.  0.
    9900012    2    3    3    0    0 -0.32532931833E+02  0.79975232106E+01  0.15278317672E+02  0.54367095312E+02  0.40000025383E+02 0.  0.
         12    1    3    3    0    0  0.32532931833E+02 -0.79975232106E+01 -0.15278317672E+02  0.36820904688E+02  0.00000000000E+00 0. -1.
         11    1    4    4    0    0 -0.15681544753E+02  0.24437192723E+01 -0.11469265256E+01  0.15912198164E+02  0.51100000000E-03 0. -1.
        -11    1    4    4    0    0  0.81287509192E+01 -0.11592611922E+01  0.83478055663E+00  0.82533227767E+01  0.51100000000E-03 0.  1.
        -12    1    4    4    0    0 -0.24980138000E+02  0.67130651306E+01  0.15590463641E+02  0.30201574371E+02  0.00000000000E+00 0.  1.
</event>
<event>
 8    1  0.2531964E-006  0.9118800E+02  0.7816164E-02  0.1184000E+00
        -11   -1    0    0    0    0  0.00000000000E+00  0.00000000000E+00  0.45593999997E+02  0.45594000000E+02  0.51100000000E-03 0.  1.
         11   -1    0    0    0    0 -0.00000000000E+00 -0.00000000000E+00 -0.45593999997E+02  0.45594000000E+02  0.51100000000E-03 0. -1.
         23    2    1    2    0    0  0.00000000000E+00  0.00000000000E+00  0.00000000000E+00  0.91188000000E+02  0.91188000000E+02 0.  0.
    9900012    2    3    3    0    0  0.16359348635E+02 -0.19495479226E+02  0.26609729370E+02  0.54367086171E+02  0.40000004544E+02 0.  0.
         12    1    3    3    0    0 -0.16359348635E+02  0.19495479226E+02 -0.26609729370E+02  0.36820913829E+02  0.00000000000E+00 0. -1.
         11    1    4    4    0    0  0.26080580994E+01 -0.42995801282E+01 -0.22964095743E+01  0.55282776272E+01  0.51100000000E-03 0. -1.
        -11    1    4    4    0    0  0.14332671887E+02 -0.12014583727E+02 -0.10279590892E+01  0.18730520700E+02  0.51100000000E-03 0.  1.
        -12    1    4    4    0    0 -0.58138135200E+00 -0.31813153712E+01  0.29934098034E+02  0.30108287844E+02  0.00000000000E+00 0.  1.
</event>
<event>
 8    1  0.2652969E-006  0.9118800E+02  0.7816164E-02  0.1184000E+00
        -11   -1    0    0    0    0  0.00000000000E+00  0.00000000000E+00  0.45593999997E+02  0.45594000000E+02  0.51100000000E-03 0.  1.
         11   -1    0    0    0    0 -0.00000000000E+00 -0.00000000000E+00 -0.45593999997E+02  0.45594000000E+02  0.51100000000E-03 0. -1.
         23    2    1    2    0    0  0.00000000000E+00  0.00000000000E+00  0.71054273576E-14  0.91188000000E+02  0.91188000000E+02 0.  0.
    9900012    2    3    3    0    0  0.17118832413E+01 -0.15568477496E+02  0.33323749579E+02  0.54367077663E+02  0.39999985148E+02 0.  0.
         12    1    3    3    0    0 -0.17118832413E+01  0.15568477496E+02 -0.33323749579E+02  0.36820922337E+02  0.00000000000E+00 0. -1.
         11    1    4    4    0    0  0.26921046103E+01 -0.47947482839E+01 -0.54533810774E+01  0.77444434129E+01  0.51100000000E-03 0. -1.
        -11    1    4    4    0    0  0.26532483436E+01  0.11253932434E+01 -0.23097236793E+01  0.36933806277E+01  0.51100000000E-03 0.  1.
        -12    1    4    4    0    0 -0.36334697127E+01 -0.11899122456E+02  0.41086854335E+02  0.42929253622E+02  0.00000000000E+00 0.  1.
</event>
<event>
 8    1  0.2531964E-006  0.9118800E+02  0.7816164E-02  0.1184000E+00
        -11   -1    0    0    0    0  0.00000000000E+00  0.00000000000E+00  0.45593999997E+02  0.45594000000E+02  0.51100000000E-03 0.  1.
         11   -1    0    0    0    0 -0.00000000000E+00 -0.00000000000E+00 -0.45593999997E+02  0.45594000000E+02  0.51100000000E-03 0. -1.
         23    2    1    2    0    0  0.35527136788E-14  0.00000000000E+00 -0.17763568394E-14  0.91188000000E+02  0.91188000000E+02 0.  0.
    9900012    2    3    3    0    0  0.30847835011E+02  0.18153770399E+02 -0.86389210562E+01  0.54367092059E+02  0.40000017967E+02 0.  0.
        -12    1    3    3    0    0 -0.30847835011E+02 -0.18153770399E+02  0.86389210562E+01  0.36820907941E+02  0.00000000000E+00 0.  1.
         11    1    4    4    0    0  0.10677474344E+02  0.87310742758E+01 -0.18965861411E+02  0.23450885179E+02  0.51100000000E-03 0. -1.
        -11    1    4    4    0    0 -0.28201541057E+01 -0.19018996919E+01  0.21101577600E+01  0.40029061507E+01  0.51100000000E-03 0.  1.
        -12    1    4    4    0    0  0.22990514774E+02  0.11324595815E+02  0.82167825949E+01  0.26913300729E+02  0.00000000000E+00 0.  1.
</event>
<event>
 8    1  0.2531964E-006  0.9118800E+02  0.7816164E-02  0.1184000E+00
        -11   -1    0    0    0    0  0.00000000000E+00  0.00000000000E+00  0.45593999997E+02  0.45594000000E+02  0.51100000000E-03 0.  1.
         11   -1    0    0    0    0 -0.00000000000E+00 -0.00000000000E+00 -0.45593999997E+02  0.45594000000E+02  0.51100000000E-03 0. -1.
         23    2    1    2    0    0 -0.35527136788E-14  0.00000000000E+00  0.35527136788E-14  0.91188000000E+02  0.91188000000E+02 0.  0.
    9900012    2    3    3    0    0 -0.17893609026E+02  0.20704073868E+02  0.24636153156E+02  0.54367082561E+02  0.39999996315E+02 0.  0.
         12    1    3    3    0    0  0.17893609026E+02 -0.20704073868E+02 -0.24636153156E+02  0.36820917439E+02  0.00000000000E+00 0. -1.
         11    1    4    4    0    0 -0.16170735531E+01  0.91319409423E+01 -0.56566458465E+01  0.10863006708E+02  0.51100000000E-03 0. -1.
        -11    1    4    4    0    0 -0.30178091465E+01  0.15499995988E+02  0.22919843208E+02  0.27833006675E+02  0.51100000000E-03 0.  1.
        -12    1    4    4    0    0 -0.13258726326E+02 -0.39278630620E+01  0.73729557948E+01  0.15671069178E+02  0.00000000000E+00 0.  1.
</event>
<event>
 8    1  0.2531964E-006  0.9118800E+02  0.7816164E-02  0.1184000E+00
        -11   -1    0    0    0    0  0.00000000000E+00  0.00000000000E+00  0.45593999997E+02  0.45594000000E+02  0.51100000000E-03 0.  1.
         11   -1    0    0    0    0 -0.00000000000E+00 -0.00000000000E+00 -0.45593999997E+02  0.45594000000E+02  0.51100000000E-03 0. -1.
         23    2    1    2    0    0  0.00000000000E+00  0.44408920985E-15  0.00000000000E+00  0.91188000000E+02  0.91188000000E+02 0.  0.
    9900012    2    3    3    0    0 -0.11617486854E+02  0.35829768497E+01  0.34755943904E+02  0.54367090715E+02  0.40000014902E+02 0.  0.
         12    1    3    3    0    0  0.11617486854E+02 -0.35829768497E+01 -0.34755943904E+02  0.36820909285E+02  0.00000000000E+00 0. -1.
         11    1    4    4    0    0 -0.40549344178E+01 -0.28108097985E+00 -0.23052956465E+01  0.46728886065E+01  0.51100000000E-03 0. -1.
        -11    1    4    4    0    0 -0.19029651596E+02  0.77990333454E+01  0.19398652799E+02  0.28271191904E+02  0.51100000000E-03 0.  1.
         12    1    4    4    0    0  0.11467099160E+02 -0.39349755158E+01  0.17662586752E+02  0.21423010204E+02  0.00000000000E+00 0. -1.
</event>
<event>
 8    1  0.2531964E-006  0.9118800E+02  0.7816164E-02  0.1184000E+00
        -11   -1    0    0    0    0  0.00000000000E+00  0.00000000000E+00  0.45593999997E+02  0.45594000000E+02  0.51100000000E-03 0. -1.
         11   -1    0    0    0    0 -0.00000000000E+00 -0.00000000000E+00 -0.45593999997E+02  0.45594000000E+02  0.51100000000E-03 0.  1.
         23    2    1    2    0    0  0.35527136788E-14  0.15543122345E-14 -0.35527136788E-14  0.91188000000E+02  0.91188000000E+02 0.  0.
    9900012    2    3    3    0    0 -0.30697945700E+02 -0.17897687000E+01  0.20253668732E+02  0.54367105941E+02  0.40000049613E+02 0.  0.
        -12    1    3    3    0    0  0.30697945700E+02  0.17897687000E+01 -0.20253668732E+02  0.36820894059E+02  0.00000000000E+00 0.  1.
         11    1    4    4    0    0 -0.16113006308E+02  0.11080041144E+01  0.22645309743E+01  0.16309038788E+02  0.51100000000E-03 0. -1.
        -11    1    4    4    0    0 -0.25911431195E+01  0.11041877379E+02  0.15928259764E+02  0.19553683492E+02  0.51100000000E-03 0.  1.
         12    1    4    4    0    0 -0.11993796273E+02 -0.13939650193E+02  0.20608779934E+01  0.18504383661E+02  0.00000000000E+00 0. -1.
</event>
<event>
 8    1  0.2531964E-006  0.9118800E+02  0.7816164E-02  0.1184000E+00
        -11   -1    0    0    0    0  0.00000000000E+00  0.00000000000E+00  0.45593999997E+02  0.45594000000E+02  0.51100000000E-03 0.  1.
         11   -1    0    0    0    0 -0.00000000000E+00 -0.00000000000E+00 -0.45593999997E+02  0.45594000000E+02  0.51100000000E-03 0. -1.
         23    2    1    2    0    0 -0.35527136788E-14 -0.88817841970E-15 -0.35527136788E-14  0.91188000000E+02  0.91188000000E+02 0.  0.
    9900012    2    3    3    0    0 -0.19228110034E+02  0.70656392167E+01  0.30596344841E+02  0.54367084874E+02  0.40000001588E+02 0.  0.
         12    1    3    3    0    0  0.19228110034E+02 -0.70656392167E+01 -0.30596344841E+02  0.36820915126E+02  0.00000000000E+00 0. -1.
         11    1    4    4    0    0 -0.43785720001E+01  0.14518069819E+01  0.35620371523E+02  0.35917829890E+02  0.51100000000E-03 0.  1.
        -11    1    4    4    0    0 -0.92188709242E+01  0.44302890623E+01  0.80382361860E+00  0.10259686884E+02  0.51100000000E-03 0. -1.
         12    1    4    4    0    0 -0.56306671099E+01  0.11835431726E+01 -0.58278503005E+01  0.81895681003E+01  0.00000000000E+00 0. -1.
</event>
<event>
 8    1  0.2531964E-006  0.9118800E+02  0.7816164E-02  0.1184000E+00
        -11   -1    0    0    0    0  0.00000000000E+00  0.00000000000E+00  0.45593999997E+02  0.45594000000E+02  0.51100000000E-03 0.  1.
         11   -1    0    0    0    0 -0.00000000000E+00 -0.00000000000E+00 -0.45593999997E+02  0.45594000000E+02  0.51100000000E-03 0. -1.
         23    2    1    2    0    0  0.17763568394E-14  0.00000000000E+00  0.44408920985E-15  0.91188000000E+02  0.91188000000E+02 0.  0.
    9900012    2    3    3    0    0  0.10620933093E+02 -0.35176939525E+02  0.23578205242E+01  0.54367073725E+02  0.39999976170E+02 0.  0.
         12    1    3    3    0    0 -0.10620933093E+02  0.35176939525E+02 -0.23578205242E+01  0.36820926275E+02  0.00000000000E+00 0. -1.
         11    1    4    4    0    0 -0.18705036654E+01 -0.71284147058E+00 -0.35637946561E+01  0.40874881696E+01  0.51100000000E-03 0. -1.
        -11    1    4    4    0    0 -0.53347023580E+01 -0.28009575022E+02 -0.41470841041E+01  0.28813081213E+02  0.51100000000E-03 0.  1.
         12    1    4    4    0    0  0.17826139117E+02 -0.64545230329E+01  0.10068699284E+02  0.21466504342E+02  0.00000000000E+00 0. -1.
</event>
<event>
 8    1  0.2531964E-006  0.9118800E+02  0.7816164E-02  0.1184000E+00
        -11   -1    0    0    0    0  0.00000000000E+00  0.00000000000E+00  0.45593999997E+02  0.45594000000E+02  0.51100000000E-03 0. -1.
         11   -1    0    0    0    0 -0.00000000000E+00 -0.00000000000E+00 -0.45593999997E+02  0.45594000000E+02  0.51100000000E-03 0.  1.
         23    2    1    2    0    0 -0.17763568394E-14  0.00000000000E+00  0.00000000000E+00  0.91188000000E+02  0.91188000000E+02 0.  0.
    9900012    2    3    3    0    0  0.10293342043E+02  0.34172135944E+02 -0.90604982518E+01  0.54367076683E+02  0.39999982914E+02 0.  0.
        -12    1    3    3    0    0 -0.10293342043E+02 -0.34172135944E+02  0.90604982518E+01  0.36820923317E+02  0.00000000000E+00 0.  1.
         11    1    4    4    0    0  0.68161363078E+00 -0.26398971830E+01  0.33442475798E+01  0.43148170778E+01  0.51100000000E-03 0. -1.
        -11    1    4    4    0    0  0.42112285259E+01  0.95681691239E+01 -0.18836828703E+02  0.21543222180E+02  0.51100000000E-03 0.  1.
         12    1    4    4    0    0  0.54004998867E+01  0.27243864003E+02  0.64320828709E+01  0.28509037425E+02  0.00000000000E+00 0. -1.
</event>
<event>
 8    1  0.2531964E-006  0.9118800E+02  0.7816164E-02  0.1184000E+00
        -11   -1    0    0    0    0  0.00000000000E+00  0.00000000000E+00  0.45593999997E+02  0.45594000000E+02  0.51100000000E-03 0. -1.
         11   -1    0    0    0    0 -0.00000000000E+00 -0.00000000000E+00 -0.45593999997E+02  0.45594000000E+02  0.51100000000E-03 0.  1.
         23    2    1    2    0    0  0.00000000000E+00 -0.17763568394E-14 -0.35527136788E-14  0.91188000000E+02  0.91188000000E+02 0.  0.
    9900012    2    3    3    0    0 -0.15020535775E+02  0.14182175077E+02 -0.30479937936E+02  0.54367120034E+02  0.40000081743E+02 0.  0.
         12    1    3    3    0    0  0.15020535775E+02 -0.14182175077E+02  0.30479937936E+02  0.36820879966E+02  0.00000000000E+00 0. -1.
         11    1    4    4    0    0 -0.59546410532E+01  0.12571713396E+02  0.21512890477E+01  0.14075999879E+02  0.51100000000E-03 0. -1.
        -11    1    4    4    0    0 -0.76762276995E+01  0.10667257090E+02 -0.25474216474E+02  0.28664447504E+02  0.51100000000E-03 0.  1.
        -12    1    4    4    0    0 -0.13896670218E+01 -0.90567954080E+01 -0.71570105094E+01  0.11626672651E+02  0.00000000000E+00 0.  1.
</event>
<event>
 8    1  0.2531964E-006  0.9118800E+02  0.7816164E-02  0.1184000E+00
        -11   -1    0    0    0    0  0.00000000000E+00  0.00000000000E+00  0.45593999997E+02  0.45594000000E+02  0.51100000000E-03 0. -1.
         11   -1    0    0    0    0 -0.00000000000E+00 -0.00000000000E+00 -0.45593999997E+02  0.45594000000E+02  0.51100000000E-03 0.  1.
         23    2    1    2    0    0  0.00000000000E+00  0.00000000000E+00  0.00000000000E+00  0.91188000000E+02  0.91188000000E+02 0.  0.
    9900012    2    3    3    0    0 -0.24031734612E+02 -0.23956291584E+02  0.14295238159E+02  0.54367054752E+02  0.39999932919E+02 0.  0.
        -12    1    3    3    0    0  0.24031734612E+02  0.23956291584E+02 -0.14295238159E+02  0.36820945248E+02  0.00000000000E+00 0.  1.
         11    1    4    4    0    0 -0.41803050715E+01  0.52345794875E+00  0.39104777864E+01  0.57481123418E+01  0.51100000000E-03 0.  1.
        -11    1    4    4    0    0  0.16627751743E+01  0.14500024050E+01  0.14507887179E+02  0.14674676109E+02  0.51100000000E-03 0. -1.
        -12    1    4    4    0    0 -0.21514204715E+02 -0.25929751938E+02 -0.41231268066E+01  0.33944266301E+02  0.00000000000E+00 0.  1.
</event>
<event>
 8    1  0.2531964E-006  0.9118800E+02  0.7816164E-02  0.1184000E+00
        -11   -1    0    0    0    0  0.00000000000E+00  0.00000000000E+00  0.45593999997E+02  0.45594000000E+02  0.51100000000E-03 0. -1.
         11   -1    0    0    0    0 -0.00000000000E+00 -0.00000000000E+00 -0.45593999997E+02  0.45594000000E+02  0.51100000000E-03 0.  1.
         23    2    1    2    0    0  0.00000000000E+00 -0.88817841970E-15 -0.88817841970E-15  0.91188000000E+02  0.91188000000E+02 0.  0.
    9900012    2    3    3    0    0  0.35299453855E+02  0.77915354738E+01  0.70014480226E+01  0.54367085537E+02  0.40000003098E+02 0.  0.
        -12    1    3    3    0    0 -0.35299453855E+02 -0.77915354738E+01 -0.70014480226E+01  0.36820914463E+02  0.00000000000E+00 0.  1.
         11    1    4    4    0    0  0.44965681881E+01 -0.19781974804E+01  0.10503786254E+01  0.50235133382E+01  0.51100000000E-03 0. -1.
        -11    1    4    4    0    0  0.28875370920E+02 -0.69470727457E+01 -0.37256614406E+01  0.29932080097E+02  0.51100000000E-03 0.  1.
         12    1    4    4    0    0  0.19275147474E+01  0.16716805700E+02  0.96767308379E+01  0.19411492102E+02  0.00000000000E+00 0. -1.
</event>
<event>
 8    1  0.2531964E-006  0.9118800E+02  0.7816164E-02  0.1184000E+00
        -11   -1    0    0    0    0  0.00000000000E+00  0.00000000000E+00  0.45593999997E+02  0.45594000000E+02  0.51100000000E-03 0. -1.
         11   -1    0    0    0    0 -0.00000000000E+00 -0.00000000000E+00 -0.45593999997E+02  0.45594000000E+02  0.51100000000E-03 0.  1.
         23    2    1    2    0    0 -0.35527136788E-14  0.00000000000E+00  0.35527136788E-14  0.91188000000E+02  0.91188000000E+02 0.  0.
    9900012    2    3    3    0    0 -0.23773633917E+02  0.11804345747E+02  0.25519615470E+02  0.54367095314E+02  0.40000025388E+02 0.  0.
        -12    1    3    3    0    0  0.23773633917E+02 -0.11804345747E+02 -0.25519615470E+02  0.36820904686E+02  0.00000000000E+00 0.  1.
         11    1    4    4    0    0 -0.12204682805E+02  0.25752988652E+01  0.23963676053E+02  0.27015629122E+02  0.51100000000E-03 0. -1.
        -11    1    4    4    0    0 -0.10401283127E+02  0.11385927116E+02 -0.80787146315E+01  0.17409527775E+02  0.51100000000E-03 0.  1.
        -12    1    4    4    0    0 -0.11676679853E+01 -0.21568802342E+01  0.96346540483E+01  0.99419384175E+01  0.00000000000E+00 0.  1.
</event>
<event>
 8    1  0.2531964E-006  0.9118800E+02  0.7816164E-02  0.1184000E+00
        -11   -1    0    0    0    0  0.00000000000E+00  0.00000000000E+00  0.45593999997E+02  0.45594000000E+02  0.51100000000E-03 0.  1.
         11   -1    0    0    0    0 -0.00000000000E+00 -0.00000000000E+00 -0.45593999997E+02  0.45594000000E+02  0.51100000000E-03 0. -1.
         23    2    1    2    0    0  0.00000000000E+00  0.00000000000E+00  0.35527136788E-14  0.91188000000E+02  0.91188000000E+02 0.  0.
    9900012    2    3    3    0    0  0.13814231101E+02 -0.16153662130E+02 -0.30066695509E+02  0.54367082576E+02  0.39999996348E+02 0.  0.
        -12    1    3    3    0    0 -0.13814231101E+02  0.16153662130E+02  0.30066695509E+02  0.36820917424E+02  0.00000000000E+00 0.  1.
         11    1    4    4    0    0 -0.98710997564E+01 -0.11055488535E+02 -0.22473636065E+02  0.26920749532E+02  0.51100000000E-03 0. -1.
        -11    1    4    4    0    0  0.14049103136E+02 -0.67770721803E+01 -0.95957184558E+00  0.15627756866E+02  0.51100000000E-03 0.  1.
        -12    1    4    4    0    0  0.96362277210E+01  0.16788985852E+01 -0.66334875985E+01  0.11818576178E+02  0.00000000000E+00 0.  1.
</event>
<event>
 8    1  0.2531964E-006  0.9118800E+02  0.7816164E-02  0.1184000E+00
        -11   -1    0    0    0    0  0.00000000000E+00  0.00000000000E+00  0.45593999997E+02  0.45594000000E+02  0.51100000000E-03 0.  1.
         11   -1    0    0    0    0 -0.00000000000E+00 -0.00000000000E+00 -0.45593999997E+02  0.45594000000E+02  0.51100000000E-03 0. -1.
         23    2    1    2    0    0  0.71054273576E-14  0.35527136788E-14  0.00000000000E+00  0.91188000000E+02  0.91188000000E+02 0.  0.
    9900012    2    3    3    0    0  0.24837438407E+02  0.16445865109E+02 -0.21642908270E+02  0.54367077901E+02  0.39999985691E+02 0.  0.
        -12    1    3    3    0    0 -0.24837438407E+02 -0.16445865109E+02  0.21642908270E+02  0.36820922099E+02  0.00000000000E+00 0.  1.
         11    1    4    4    0    0  0.14361306116E+02 -0.40309481676E+01 -0.16930690677E+02  0.22564218212E+02  0.51100000000E-03 0. -1.
        -11    1    4    4    0    0 -0.80348269449E+00  0.12417872952E+02 -0.10973980109E+02  0.16591485551E+02  0.51100000000E-03 0.  1.
         12    1    4    4    0    0  0.11279614986E+02  0.80589403243E+01  0.62617625149E+01  0.15211374138E+02  0.00000000000E+00 0. -1.
</event>
<event>
 8    1  0.2531964E-006  0.9118800E+02  0.7816164E-02  0.1184000E+00
        -11   -1    0    0    0    0  0.00000000000E+00  0.00000000000E+00  0.45593999997E+02  0.45594000000E+02  0.51100000000E-03 0. -1.
         11   -1    0    0    0    0 -0.00000000000E+00 -0.00000000000E+00 -0.45593999997E+02  0.45594000000E+02  0.51100000000E-03 0.  1.
         23    2    1    2    0    0  0.17763568394E-14  0.17763568394E-14  0.00000000000E+00  0.91188000000E+02  0.91188000000E+02 0.  0.
    9900012    2    3    3    0    0 -0.89795752937E+01 -0.14959557408E+02  0.32424667390E+02  0.54367079511E+02  0.39999989362E+02 0.  0.
        -12    1    3    3    0    0  0.89795752937E+01  0.14959557408E+02 -0.32424667390E+02  0.36820920489E+02  0.00000000000E+00 0.  1.
         11    1    4    4    0    0  0.80780785943E+00 -0.17739130919E+02  0.16026698831E+02  0.23920376146E+02  0.51100000000E-03 0. -1.
        -11    1    4    4    0    0 -0.14632215196E+02 -0.50768642173E+01  0.61754916426E+01  0.16673720914E+02  0.51100000000E-03 0.  1.
         12    1    4    4    0    0  0.48448320428E+01  0.78564377280E+01  0.10222476916E+02  0.13772982451E+02  0.00000000000E+00 0. -1.
</event>
<event>
 8    1  0.2531964E-006  0.9118800E+02  0.7816164E-02  0.1184000E+00
        -11   -1    0    0    0    0  0.00000000000E+00  0.00000000000E+00  0.45593999997E+02  0.45594000000E+02  0.51100000000E-03 0. -1.
         11   -1    0    0    0    0 -0.00000000000E+00 -0.00000000000E+00 -0.45593999997E+02  0.45594000000E+02  0.51100000000E-03 0.  1.
         23    2    1    2    0    0  0.00000000000E+00  0.00000000000E+00 -0.66613381478E-15  0.91188000000E+02  0.91188000000E+02 0.  0.
    9900012    2    3    3    0    0  0.16319812270E+02  0.32981583925E+02 -0.12884980665E+01  0.54367063320E+02  0.39999952451E+02 0.  0.
        -12    1    3    3    0    0 -0.16319812270E+02 -0.32981583925E+02  0.12884980665E+01  0.36820936680E+02  0.00000000000E+00 0.  1.
         11    1    4    4    0    0  0.72541411664E+01  0.11221279365E+02  0.13561303860E+02  0.19038083866E+02  0.51100000000E-03 0. -1.
        -11    1    4    4    0    0  0.65817366435E+01  0.25117172289E+02 -0.77586732116E+01  0.27099605372E+02  0.51100000000E-03 0.  1.
        -12    1    4    4    0    0  0.24839344597E+01 -0.33568677288E+01 -0.70911287145E+01  0.82293740828E+01  0.00000000000E+00 0.  1.
</event>
<event>
 8    1  0.2531964E-006  0.9118800E+02  0.7816164E-02  0.1184000E+00
        -11   -1    0    0    0    0  0.00000000000E+00  0.00000000000E+00  0.45593999997E+02  0.45594000000E+02  0.51100000000E-03 0.  1.
         11   -1    0    0    0    0 -0.00000000000E+00 -0.00000000000E+00 -0.45593999997E+02  0.45594000000E+02  0.51100000000E-03 0. -1.
         23    2    1    2    0    0  0.35527136788E-14 -0.35527136788E-14 -0.35527136788E-14  0.91188000000E+02  0.91188000000E+02 0.  0.
    9900012    2    3    3    0    0  0.24189412864E+02 -0.16027396155E+02 -0.22666547235E+02  0.54367116174E+02  0.40000072941E+02 0.  0.
        -12    1    3    3    0    0 -0.24189412864E+02  0.16027396155E+02  0.22666547235E+02  0.36820883826E+02  0.00000000000E+00 0.  1.
         11    1    4    4    0    0  0.10847938521E+02 -0.11616624604E+02 -0.23311267917E+01  0.16064180332E+02  0.51100000000E-03 0. -1.
        -11    1    4    4    0    0  0.13192930319E+02 -0.16002423674E+02 -0.11399303509E+02  0.23665905742E+02  0.51100000000E-03 0.  1.
        -12    1    4    4    0    0  0.14854402468E+00  0.11591652124E+02 -0.89361169343E+01  0.14637030100E+02  0.00000000000E+00 0.  1.
</event>
<event>
 8    1  0.2531964E-006  0.9118800E+02  0.7816164E-02  0.1184000E+00
        -11   -1    0    0    0    0  0.00000000000E+00  0.00000000000E+00  0.45593999997E+02  0.45594000000E+02  0.51100000000E-03 0.  1.
         11   -1    0    0    0    0 -0.00000000000E+00 -0.00000000000E+00 -0.45593999997E+02  0.45594000000E+02  0.51100000000E-03 0. -1.
         23    2    1    2    0    0  0.38857805862E-15  0.88817841970E-15  0.00000000000E+00  0.91188000000E+02  0.91188000000E+02 0.  0.
    9900012    2    3    3    0    0  0.35779064155E+00  0.24037405454E+01  0.36740626923E+02  0.54367086793E+02  0.40000005961E+02 0.  0.
         12    1    3    3    0    0 -0.35779064155E+00 -0.24037405454E+01 -0.36740626923E+02  0.36820913207E+02  0.00000000000E+00 0. -1.
         11    1    4    4    0    0  0.84709326364E+01 -0.66920253433E+01  0.13848815961E+02  0.17559316806E+02  0.51100000000E-03 0. -1.
        -11    1    4    4    0    0 -0.32683151464E+01  0.96489295835E+01 -0.28736183981E+01  0.10584961453E+02  0.51100000000E-03 0.  1.
         12    1    4    4    0    0 -0.48448268484E+01 -0.55316369483E+00  0.25765429360E+02  0.26222808533E+02  0.00000000000E+00 0. -1.
</event>
<event>
 8    1  0.2531964E-006  0.9118800E+02  0.7816164E-02  0.1184000E+00
        -11   -1    0    0    0    0  0.00000000000E+00  0.00000000000E+00  0.45593999997E+02  0.45594000000E+02  0.51100000000E-03 0.  1.
         11   -1    0    0    0    0 -0.00000000000E+00 -0.00000000000E+00 -0.45593999997E+02  0.45594000000E+02  0.51100000000E-03 0. -1.
         23    2    1    2    0    0 -0.17763568394E-14  0.35527136788E-14  0.71054273576E-14  0.91188000000E+02  0.91188000000E+02 0.  0.
    9900012    2    3    3    0    0  0.95360990029E+01 -0.14327238813E+02 -0.32551039069E+02  0.54367121403E+02  0.40000084862E+02 0.  0.
        -12    1    3    3    0    0 -0.95360990029E+01  0.14327238813E+02  0.32551039069E+02  0.36820878597E+02  0.00000000000E+00 0.  1.
         11    1    4    4    0    0 -0.35094394022E+00 -0.20988702794E+02 -0.79362359577E+01  0.22441761252E+02  0.51100000000E-03 0. -1.
        -11    1    4    4    0    0  0.99251328193E+01 -0.24043590804E+01 -0.79036561940E+01  0.12913442049E+02  0.51100000000E-03 0.  1.
        -12    1    4    4    0    0 -0.38089876171E-01  0.90658230617E+01 -0.16711146917E+02  0.19011918102E+02  0.00000000000E+00 0.  1.
</event>
<event>
 8    1  0.2531964E-006  0.9118800E+02  0.7816164E-02  0.1184000E+00
        -11   -1    0    0    0    0  0.00000000000E+00  0.00000000000E+00  0.45593999997E+02  0.45594000000E+02  0.51100000000E-03 0.  1.
         11   -1    0    0    0    0 -0.00000000000E+00 -0.00000000000E+00 -0.45593999997E+02  0.45594000000E+02  0.51100000000E-03 0. -1.
         23    2    1    2    0    0  0.17763568394E-14  0.00000000000E+00  0.00000000000E+00  0.91188000000E+02  0.91188000000E+02 0.  0.
    9900012    2    3    3    0    0  0.44113769021E+01 -0.19179680230E+01  0.36505355377E+02  0.54367084494E+02  0.40000000720E+02 0.  0.
         12    1    3    3    0    0 -0.44113769021E+01  0.19179680230E+01 -0.36505355377E+02  0.36820915506E+02  0.00000000000E+00 0. -1.
         11    1    4    4    0    0 -0.67862408279E+01 -0.26423950335E+00  0.11447755091E+01  0.68871908872E+01  0.51100000000E-03 0. -1.
        -11    1    4    4    0    0 -0.51451473036E+01  0.60429813342E+00  0.29531402011E+02  0.29982351842E+02  0.51100000000E-03 0.  1.
         12    1    4    4    0    0  0.16342765034E+02 -0.22580266531E+01  0.58291778573E+01  0.17497541764E+02  0.00000000000E+00 0. -1.
</event>
<event>
 8    1  0.2531964E-006  0.9118800E+02  0.7816164E-02  0.1184000E+00
        -11   -1    0    0    0    0  0.00000000000E+00  0.00000000000E+00  0.45593999997E+02  0.45594000000E+02  0.51100000000E-03 0.  1.
         11   -1    0    0    0    0 -0.00000000000E+00 -0.00000000000E+00 -0.45593999997E+02  0.45594000000E+02  0.51100000000E-03 0. -1.
         23    2    1    2    0    0  0.17763568394E-14  0.00000000000E+00  0.00000000000E+00  0.91188000000E+02  0.91188000000E+02 0.  0.
    9900012    2    3    3    0    0  0.80422112449E+01  0.20122800055E+02 -0.29768692363E+02  0.54367091690E+02  0.40000017126E+02 0.  0.
        -12    1    3    3    0    0 -0.80422112449E+01 -0.20122800055E+02  0.29768692363E+02  0.36820908310E+02  0.00000000000E+00 0.  1.
         11    1    4    4    0    0  0.30476230392E+01  0.67833848091E+01 -0.26899392086E+02  0.27908414690E+02  0.51100000000E-03 0. -1.
        -11    1    4    4    0    0  0.44358265217E+01  0.18612332327E+02 -0.62988983431E+01  0.20143773037E+02  0.51100000000E-03 0.  1.
        -12    1    4    4    0    0  0.55876168395E+00 -0.52729170806E+01  0.34295980663E+01  0.63149039624E+01  0.00000000000E+00 0.  1.
</event>
<event>
 8    1  0.2531964E-006  0.9118800E+02  0.7816164E-02  0.1184000E+00
        -11   -1    0    0    0    0  0.00000000000E+00  0.00000000000E+00  0.45593999997E+02  0.45594000000E+02  0.51100000000E-03 0. -1.
         11   -1    0    0    0    0 -0.00000000000E+00 -0.00000000000E+00 -0.45593999997E+02  0.45594000000E+02  0.51100000000E-03 0.  1.
         23    2    1    2    0    0  0.00000000000E+00  0.00000000000E+00  0.00000000000E+00  0.91188000000E+02  0.91188000000E+02 0.  0.
    9900012    2    3    3    0    0  0.30347582537E+02 -0.13896090404E+02 -0.15546802738E+02  0.54367079727E+02  0.39999989854E+02 0.  0.
         12    1    3    3    0    0 -0.30347582537E+02  0.13896090404E+02  0.15546802738E+02  0.36820920273E+02  0.00000000000E+00 0. -1.
         11    1    4    4    0    0  0.30068954089E+02 -0.76242747622E+01  0.32095750199E+01  0.31186101676E+02  0.51100000000E-03 0. -1.
        -11    1    4    4    0    0 -0.10394283316E+01 -0.97988991184E+01 -0.13362415870E+02  0.16602800768E+02  0.51100000000E-03 0.  1.
         12    1    4    4    0    0  0.13180567797E+01  0.35270834766E+01 -0.53939618875E+01  0.65781772833E+01  0.00000000000E+00 0. -1.
</event>
<event>
 8    1  0.2531964E-006  0.9118800E+02  0.7816164E-02  0.1184000E+00
        -11   -1    0    0    0    0  0.00000000000E+00  0.00000000000E+00  0.45593999997E+02  0.45594000000E+02  0.51100000000E-03 0.  1.
         11   -1    0    0    0    0 -0.00000000000E+00 -0.00000000000E+00 -0.45593999997E+02  0.45594000000E+02  0.51100000000E-03 0. -1.
         23    2    1    2    0    0  0.00000000000E+00  0.71054273576E-14  0.35527136788E-14  0.91188000000E+02  0.91188000000E+02 0.  0.
    9900012    2    3    3    0    0  0.61922183115E+01  0.26013767390E+02  0.25312427534E+02  0.54367100377E+02  0.40000036929E+02 0.  0.
         12    1    3    3    0    0 -0.61922183115E+01 -0.26013767390E+02 -0.25312427534E+02  0.36820899623E+02  0.00000000000E+00 0. -1.
         11    1    4    4    0    0  0.11234389995E+02  0.11957598672E+02  0.10149098836E+02  0.19292482785E+02  0.51100000000E-03 0.  1.
        -11    1    4    4    0    0 -0.56075337809E+01 -0.64660082180E+01 -0.14297880535E+01  0.86774415307E+01  0.51100000000E-03 0. -1.
         12    1    4    4    0    0  0.56536209725E+00  0.20522176936E+02  0.16593116751E+02  0.26397176061E+02  0.00000000000E+00 0. -1.
</event>
<event>
 8    1  0.2531964E-006  0.9118800E+02  0.7816164E-02  0.1184000E+00
        -11   -1    0    0    0    0  0.00000000000E+00  0.00000000000E+00  0.45593999997E+02  0.45594000000E+02  0.51100000000E-03 0. -1.
         11   -1    0    0    0    0 -0.00000000000E+00 -0.00000000000E+00 -0.45593999997E+02  0.45594000000E+02  0.51100000000E-03 0.  1.
         23    2    1    2    0    0  0.13322676296E-14 -0.17763568394E-14  0.00000000000E+00  0.91188000000E+02  0.91188000000E+02 0.  0.
    9900012    2    3    3    0    0 -0.35174314345E+01  0.53641642705E+01  0.36257874897E+02  0.54367081023E+02  0.39999992809E+02 0.  0.
        -12    1    3    3    0    0  0.35174314345E+01 -0.53641642705E+01 -0.36257874897E+02  0.36820918977E+02  0.00000000000E+00 0.  1.
         11    1    4    4    0    0  0.32415307540E+01 -0.15432821696E+02  0.20369713012E+02  0.25760526306E+02  0.51100000000E-03 0. -1.
        -11    1    4    4    0    0 -0.49051974158E+01  0.30993263098E+01  0.24058440336E+01  0.62813112515E+01  0.51100000000E-03 0.  1.
         12    1    4    4    0    0 -0.18537647727E+01  0.17697659656E+02  0.13482317852E+02  0.22325243466E+02  0.00000000000E+00 0. -1.
</event>
<event>
 8    1  0.2531964E-006  0.9118800E+02  0.7816164E-02  0.1184000E+00
        -11   -1    0    0    0    0  0.00000000000E+00  0.00000000000E+00  0.45593999997E+02  0.45594000000E+02  0.51100000000E-03 0. -1.
         11   -1    0    0    0    0 -0.00000000000E+00 -0.00000000000E+00 -0.45593999997E+02  0.45594000000E+02  0.51100000000E-03 0.  1.
         23    2    1    2    0    0  0.17763568394E-14 -0.35527136788E-14 -0.35527136788E-14  0.91188000000E+02  0.91188000000E+02 0.  0.
    9900012    2    3    3    0    0  0.99250854361E+01 -0.19136609003E+02  0.29850677601E+02  0.54367080969E+02  0.39999992686E+02 0.  0.
        -12    1    3    3    0    0 -0.99250854361E+01  0.19136609003E+02 -0.29850677601E+02  0.36820919031E+02  0.00000000000E+00 0.  1.
         11    1    4    4    0    0  0.11080919463E+02 -0.86589590947E+01  0.34848353978E+02  0.37578878695E+02  0.51100000000E-03 0. -1.
        -11    1    4    4    0    0  0.54371293764E+01 -0.37490667085E+01 -0.22041381594E+01  0.69624781743E+01  0.51100000000E-03 0.  1.
        -12    1    4    4    0    0 -0.65929634033E+01 -0.67285831996E+01 -0.27935382178E+01  0.98257240998E+01  0.00000000000E+00 0.  1.
</event>
<event>
 8    1  0.2531964E-006  0.9118800E+02  0.7816164E-02  0.1184000E+00
        -11   -1    0    0    0    0  0.00000000000E+00  0.00000000000E+00  0.45593999997E+02  0.45594000000E+02  0.51100000000E-03 0. -1.
         11   -1    0    0    0    0 -0.00000000000E+00 -0.00000000000E+00 -0.45593999997E+02  0.45594000000E+02  0.51100000000E-03 0.  1.
         23    2    1    2    0    0  0.00000000000E+00  0.17763568394E-14  0.00000000000E+00  0.91188000000E+02  0.91188000000E+02 0.  0.
    9900012    2    3    3    0    0  0.17561538394E+02  0.44367501983E+01  0.32057597688E+02  0.54367055517E+02  0.39999934662E+02 0.  0.
        -12    1    3    3    0    0 -0.17561538394E+02 -0.44367501983E+01 -0.32057597688E+02  0.36820944483E+02  0.00000000000E+00 0.  1.
         11    1    4    4    0    0  0.83966453935E+01 -0.71296932979E+01  0.15668265120E+02  0.19152825184E+02  0.51100000000E-03 0. -1.
        -11    1    4    4    0    0  0.14761358537E+02 -0.21165675180E+01  0.28796357950E+01  0.15187819676E+02  0.51100000000E-03 0.  1.
        -12    1    4    4    0    0 -0.55964655368E+01  0.13683011014E+02  0.13509696773E+02  0.20026410657E+02  0.00000000000E+00 0.  1.
</event>
<event>
 8    1  0.2531964E-006  0.9118800E+02  0.7816164E-02  0.1184000E+00
        -11   -1    0    0    0    0  0.00000000000E+00  0.00000000000E+00  0.45593999997E+02  0.45594000000E+02  0.51100000000E-03 0.  1.
         11   -1    0    0    0    0 -0.00000000000E+00 -0.00000000000E+00 -0.45593999997E+02  0.45594000000E+02  0.51100000000E-03 0. -1.
         23    2    1    2    0    0  0.17763568394E-14  0.35527136788E-14  0.00000000000E+00  0.91188000000E+02  0.91188000000E+02 0.  0.
    9900012    2    3    3    0    0  0.90468012033E+01  0.14965800355E+02 -0.32403078303E+02  0.54367091866E+02  0.40000017527E+02 0.  0.
        -12    1    3    3    0    0 -0.90468012033E+01 -0.14965800355E+02  0.32403078303E+02  0.36820908134E+02  0.00000000000E+00 0.  1.
         11    1    4    4    0    0  0.58771180045E+01 -0.66102606199E-01 -0.22081526319E+02  0.22850354273E+02  0.51100000000E-03 0. -1.
        -11    1    4    4    0    0  0.67173859672E+01 -0.63607219944E+00 -0.13544397938E+02  0.15132038126E+02  0.51100000000E-03 0.  1.
        -12    1    4    4    0    0 -0.35477027684E+01  0.15667975161E+02  0.32228459535E+01  0.16384699467E+02  0.00000000000E+00 0.  1.
</event>
<event>
 8    1  0.2531964E-006  0.9118800E+02  0.7816164E-02  0.1184000E+00
        -11   -1    0    0    0    0  0.00000000000E+00  0.00000000000E+00  0.45593999997E+02  0.45594000000E+02  0.51100000000E-03 0.  1.
         11   -1    0    0    0    0 -0.00000000000E+00 -0.00000000000E+00 -0.45593999997E+02  0.45594000000E+02  0.51100000000E-03 0. -1.
         23    2    1    2    0    0 -0.17763568394E-14  0.35527136788E-14  0.00000000000E+00  0.91188000000E+02  0.91188000000E+02 0.  0.
    9900012    2    3    3    0    0 -0.15778337270E+02 -0.17695193835E+02 -0.28172777615E+02  0.54367065596E+02  0.39999957639E+02 0.  0.
        -12    1    3    3    0    0  0.15778337270E+02  0.17695193835E+02  0.28172777615E+02  0.36820934404E+02  0.00000000000E+00 0.  1.
         11    1    4    4    0    0 -0.20155892243E+01 -0.20109092211E+02 -0.60041796433E+01  0.21082892661E+02  0.51100000000E-03 0. -1.
        -11    1    4    4    0    0  0.37941910783E+01  0.30961657920E+01 -0.12053582254E+02  0.13010417901E+02  0.51100000000E-03 0.  1.
         12    1    4    4    0    0 -0.17556939124E+02 -0.68226741552E+00 -0.10115015717E+02  0.20273755034E+02  0.00000000000E+00 0. -1.
</event>
<event>
 8    1  0.2531964E-006  0.9118800E+02  0.7816164E-02  0.1184000E+00
        -11   -1    0    0    0    0  0.00000000000E+00  0.00000000000E+00  0.45593999997E+02  0.45594000000E+02  0.51100000000E-03 0.  1.
         11   -1    0    0    0    0 -0.00000000000E+00 -0.00000000000E+00 -0.45593999997E+02  0.45594000000E+02  0.51100000000E-03 0. -1.
         23    2    1    2    0    0  0.00000000000E+00  0.00000000000E+00  0.35527136788E-14  0.91188000000E+02  0.91188000000E+02 0.  0.
    9900012    2    3    3    0    0 -0.20063050184E+02  0.19422538532E+02 -0.24000396984E+02  0.54367081473E+02  0.39999993835E+02 0.  0.
         12    1    3    3    0    0  0.20063050184E+02 -0.19422538532E+02  0.24000396984E+02  0.36820918527E+02  0.00000000000E+00 0. -1.
         11    1    4    4    0    0 -0.42024364068E+01 -0.88365898672E+01 -0.26329833889E+01  0.10133034788E+02  0.51100000000E-03 0. -1.
        -11    1    4    4    0    0 -0.81189767683E+00  0.76484443382E+01  0.36353525748E+01  0.85072714331E+01  0.51100000000E-03 0.  1.
         12    1    4    4    0    0 -0.15048716101E+02  0.20610684061E+02 -0.25002766170E+02  0.35726775252E+02  0.00000000000E+00 0. -1.
</event>
<event>
 8    1  0.2531964E-006  0.9118800E+02  0.7816164E-02  0.1184000E+00
        -11   -1    0    0    0    0  0.00000000000E+00  0.00000000000E+00  0.45593999997E+02  0.45594000000E+02  0.51100000000E-03 0.  1.
         11   -1    0    0    0    0 -0.00000000000E+00 -0.00000000000E+00 -0.45593999997E+02  0.45594000000E+02  0.51100000000E-03 0. -1.
         23    2    1    2    0    0  0.00000000000E+00  0.00000000000E+00 -0.88817841970E-15  0.91188000000E+02  0.91188000000E+02 0.  0.
    9900012    2    3    3    0    0 -0.12355830172E+02 -0.34448134841E+02 -0.40545849525E+01  0.54367079420E+02  0.39999989153E+02 0.  0.
        -12    1    3    3    0    0  0.12355830172E+02  0.34448134841E+02  0.40545849525E+01  0.36820920580E+02  0.00000000000E+00 0.  1.
         11    1    4    4    0    0 -0.55476229763E+01 -0.26121988811E+02 -0.23845752251E+01  0.26810830263E+02  0.51100000000E-03 0. -1.
        -11    1    4    4    0    0 -0.16880389506E+01 -0.15858784829E+02  0.44807544703E+01  0.16565859248E+02  0.51100000000E-03 0.  1.
        -12    1    4    4    0    0 -0.51201682450E+01  0.75326387989E+01 -0.61507641977E+01  0.10990389909E+02  0.00000000000E+00 0.  1.
</event>
<event>
 8    1  0.2531964E-006  0.9118800E+02  0.7816164E-02  0.1184000E+00
        -11   -1    0    0    0    0  0.00000000000E+00  0.00000000000E+00  0.45593999997E+02  0.45594000000E+02  0.51100000000E-03 0. -1.
         11   -1    0    0    0    0 -0.00000000000E+00 -0.00000000000E+00 -0.45593999997E+02  0.45594000000E+02  0.51100000000E-03 0.  1.
         23    2    1    2    0    0  0.00000000000E+00  0.17763568394E-14  0.17763568394E-14  0.91188000000E+02  0.91188000000E+02 0.  0.
    9900012    2    3    3    0    0  0.34025289592E+02 -0.82542347896E+01 -0.11398612709E+02  0.54367067157E+02  0.39999961197E+02 0.  0.
         12    1    3    3    0    0 -0.34025289592E+02  0.82542347896E+01  0.11398612709E+02  0.36820932843E+02  0.00000000000E+00 0. -1.
         11    1    4    4    0    0 -0.22724405910E+01  0.62209034739E+01  0.38163494753E+01  0.76438308360E+01  0.51100000000E-03 0. -1.
        -11    1    4    4    0    0  0.21282971295E+02 -0.18951497259E+02 -0.10313167988E+02  0.30306526520E+02  0.51100000000E-03 0.  1.
         12    1    4    4    0    0  0.15014758888E+02  0.44763589960E+01 -0.49017941970E+01  0.16416709800E+02  0.00000000000E+00 0. -1.
</event>
<event>
 8    1  0.2531964E-006  0.9118800E+02  0.7816164E-02  0.1184000E+00
        -11   -1    0    0    0    0  0.00000000000E+00  0.00000000000E+00  0.45593999997E+02  0.45594000000E+02  0.51100000000E-03 0. -1.
         11   -1    0    0    0    0 -0.00000000000E+00 -0.00000000000E+00 -0.45593999997E+02  0.45594000000E+02  0.51100000000E-03 0.  1.
         23    2    1    2    0    0  0.00000000000E+00  0.00000000000E+00  0.00000000000E+00  0.91188000000E+02  0.91188000000E+02 0.  0.
    9900012    2    3    3    0    0  0.14481139292E+02  0.24462131022E+02  0.23402596299E+02  0.54367071673E+02  0.39999971492E+02 0.  0.
        -12    1    3    3    0    0 -0.14481139292E+02 -0.24462131022E+02 -0.23402596299E+02  0.36820928327E+02  0.00000000000E+00 0.  1.
         11    1    4    4    0    0  0.42471842042E+01  0.13981440113E+02  0.48975235820E+01  0.15411196540E+02  0.51100000000E-03 0. -1.
        -11    1    4    4    0    0  0.43204867674E+01  0.53630556635E+01 -0.84432400876E+01  0.10895745748E+02  0.51100000000E-03 0.  1.
         12    1    4    4    0    0  0.59134683206E+01  0.51176352456E+01  0.26948312804E+02  0.28060129385E+02  0.00000000000E+00 0. -1.
</event>
<event>
 8    1  0.2531964E-006  0.9118800E+02  0.7816164E-02  0.1184000E+00
        -11   -1    0    0    0    0  0.00000000000E+00  0.00000000000E+00  0.45593999997E+02  0.45594000000E+02  0.51100000000E-03 0.  1.
         11   -1    0    0    0    0 -0.00000000000E+00 -0.00000000000E+00 -0.45593999997E+02  0.45594000000E+02  0.51100000000E-03 0. -1.
         23    2    1    2    0    0  0.00000000000E+00  0.00000000000E+00  0.00000000000E+00  0.91188000000E+02  0.91188000000E+02 0.  0.
    9900012    2    3    3    0    0  0.29275968694E+02  0.48307168558E+01  0.21802787831E+02  0.54367085760E+02  0.40000003606E+02 0.  0.
         12    1    3    3    0    0 -0.29275968694E+02 -0.48307168558E+01 -0.21802787831E+02  0.36820914240E+02  0.00000000000E+00 0. -1.
         11    1    4    4    0    0 -0.80171317490E+01  0.44487889772E+01  0.19305110167E+01  0.93697917742E+01  0.51100000000E-03 0.  1.
        -11    1    4    4    0    0  0.27231231773E+02  0.70149771689E+01  0.15921359542E+02  0.32314696014E+02  0.51100000000E-03 0. -1.
        -12    1    4    4    0    0  0.10061868670E+02 -0.66330492903E+01  0.39509172725E+01  0.12682597972E+02  0.00000000000E+00 0.  1.
</event>
<event>
 8    1  0.2531964E-006  0.9118800E+02  0.7816164E-02  0.1184000E+00
        -11   -1    0    0    0    0  0.00000000000E+00  0.00000000000E+00  0.45593999997E+02  0.45594000000E+02  0.51100000000E-03 0.  1.
         11   -1    0    0    0    0 -0.00000000000E+00 -0.00000000000E+00 -0.45593999997E+02  0.45594000000E+02  0.51100000000E-03 0. -1.
         23    2    1    2    0    0  0.00000000000E+00  0.00000000000E+00  0.00000000000E+00  0.91188000000E+02  0.91188000000E+02 0.  0.
    9900012    2    3    3    0    0  0.90885109090E+01  0.12823424755E+02 -0.33297726665E+02  0.54367084014E+02  0.39999999626E+02 0.  0.
        -12    1    3    3    0    0 -0.90885109090E+01 -0.12823424755E+02  0.33297726665E+02  0.36820915986E+02  0.00000000000E+00 0.  1.
         11    1    4    4    0    0  0.33436407193E+01  0.64647560556E+01 -0.23117710872E+02  0.24236368547E+02  0.51100000000E-03 0. -1.
        -11    1    4    4    0    0  0.88663007865E+01  0.76266838904E+01  0.63176838436E+01  0.13292506393E+02  0.51100000000E-03 0.  1.
         12    1    4    4    0    0 -0.31214305968E+01 -0.12680151912E+01 -0.16497699637E+02  0.16838209074E+02  0.00000000000E+00 0. -1.
</event>
<event>
 8    1  0.2531964E-006  0.9118800E+02  0.7816164E-02  0.1184000E+00
        -11   -1    0    0    0    0  0.00000000000E+00  0.00000000000E+00  0.45593999997E+02  0.45594000000E+02  0.51100000000E-03 0.  1.
         11   -1    0    0    0    0 -0.00000000000E+00 -0.00000000000E+00 -0.45593999997E+02  0.45594000000E+02  0.51100000000E-03 0. -1.
         23    2    1    2    0    0 -0.17763568394E-14  0.00000000000E+00 -0.35527136788E-14  0.91188000000E+02  0.91188000000E+02 0.  0.
    9900012    2    3    3    0    0  0.15939002365E+02  0.23229970999E+02 -0.23708587692E+02  0.54367075523E+02  0.39999980269E+02 0.  0.
        -12    1    3    3    0    0 -0.15939002365E+02 -0.23229970999E+02  0.23708587692E+02  0.36820924477E+02  0.00000000000E+00 0.  1.
         11    1    4    4    0    0  0.37829472420E+00  0.12448512812E+02  0.43998418151E+00  0.12462028906E+02  0.51100000000E-03 0. -1.
        -11    1    4    4    0    0  0.40739668659E+01  0.10722787170E+00  0.63882403360E+01  0.75774876240E+01  0.51100000000E-03 0.  1.
        -12    1    4    4    0    0  0.11486740775E+02  0.10674230316E+02 -0.30536812209E+02  0.34327558992E+02  0.00000000000E+00 0.  1.
</event>
<event>
 8    1  0.2531964E-006  0.9118800E+02  0.7816164E-02  0.1184000E+00
        -11   -1    0    0    0    0  0.00000000000E+00  0.00000000000E+00  0.45593999997E+02  0.45594000000E+02  0.51100000000E-03 0.  1.
         11   -1    0    0    0    0 -0.00000000000E+00 -0.00000000000E+00 -0.45593999997E+02  0.45594000000E+02  0.51100000000E-03 0. -1.
         23    2    1    2    0    0 -0.13322676296E-14  0.00000000000E+00  0.71054273576E-14  0.91188000000E+02  0.91188000000E+02 0.  0.
    9900012    2    3    3    0    0 -0.37565741672E+01  0.26395391246E+02  0.25395894077E+02  0.54367082514E+02  0.39999996208E+02 0.  0.
         12    1    3    3    0    0  0.37565741672E+01 -0.26395391246E+02 -0.25395894077E+02  0.36820917486E+02  0.00000000000E+00 0. -1.
         11    1    4    4    0    0  0.49118446929E+00 -0.98692837784E+00 -0.62157544094E+01  0.63127563667E+01  0.51100000000E-03 0. -1.
        -11    1    4    4    0    0 -0.94635606912E+01  0.18090708559E+02  0.76009504909E+01  0.21785480618E+02  0.51100000000E-03 0.  1.
        -12    1    4    4    0    0  0.52158020547E+01  0.92916110653E+01  0.24010697995E+02  0.26268845530E+02  0.00000000000E+00 0.  1.
</event>
<event>
 8    1  0.2531964E-006  0.9118800E+02  0.7816164E-02  0.1184000E+00
        -11   -1    0    0    0    0  0.00000000000E+00  0.00000000000E+00  0.45593999997E+02  0.45594000000E+02  0.51100000000E-03 0.  1.
         11   -1    0    0    0    0 -0.00000000000E+00 -0.00000000000E+00 -0.45593999997E+02  0.45594000000E+02  0.51100000000E-03 0. -1.
         23    2    1    2    0    0 -0.35527136788E-14  0.00000000000E+00  0.35527136788E-14  0.91188000000E+02  0.91188000000E+02 0.  0.
    9900012    2    3    3    0    0 -0.19817789332E+02 -0.10804722151E+02 -0.29091114072E+02  0.54367085933E+02  0.40000004001E+02 0.  0.
        -12    1    3    3    0    0  0.19817789332E+02  0.10804722151E+02  0.29091114072E+02  0.36820914067E+02  0.00000000000E+00 0.  1.
         11    1    4    4    0    0 -0.18605302822E+02  0.78239802043E+00 -0.34562028475E+02  0.39259435201E+02  0.51100000000E-03 0. -1.
        -11    1    4    4    0    0 -0.25392587508E+01 -0.11047432792E+02  0.22140026127E+01  0.11549693248E+02  0.51100000000E-03 0.  1.
         12    1    4    4    0    0  0.13267722408E+01 -0.53968737924E+00  0.32569117896E+01  0.35579574831E+01  0.00000000000E+00 0. -1.
</event>
<event>
 8    1  0.2531964E-006  0.9118800E+02  0.7816164E-02  0.1184000E+00
        -11   -1    0    0    0    0  0.00000000000E+00  0.00000000000E+00  0.45593999997E+02  0.45594000000E+02  0.51100000000E-03 0. -1.
         11   -1    0    0    0    0 -0.00000000000E+00 -0.00000000000E+00 -0.45593999997E+02  0.45594000000E+02  0.51100000000E-03 0.  1.
         23    2    1    2    0    0  0.00000000000E+00  0.00000000000E+00  0.35527136788E-14  0.91188000000E+02  0.91188000000E+02 0.  0.
    9900012    2    3    3    0    0  0.22725348437E+01 -0.18110671470E+02 -0.31978409036E+02  0.54367089091E+02  0.40000011200E+02 0.  0.
         12    1    3    3    0    0 -0.22725348437E+01  0.18110671470E+02  0.31978409036E+02  0.36820910909E+02  0.00000000000E+00 0. -1.
         11    1    4    4    0    0 -0.25380082922E+01 -0.11823860154E+02 -0.26357887701E+02  0.28999713780E+02  0.51100000000E-03 0. -1.
        -11    1    4    4    0    0 -0.41621586699E+01 -0.11926566488E+02 -0.73718845807E+01  0.14625704616E+02  0.51100000000E-03 0.  1.
         12    1    4    4    0    0  0.89727018057E+01  0.56397551717E+01  0.17513632452E+01  0.10741670694E+02  0.00000000000E+00 0. -1.
</event>
<event>
 8    1  0.2531964E-006  0.9118800E+02  0.7816164E-02  0.1184000E+00
        -11   -1    0    0    0    0  0.00000000000E+00  0.00000000000E+00  0.45593999997E+02  0.45594000000E+02  0.51100000000E-03 0.  1.
         11   -1    0    0    0    0 -0.00000000000E+00 -0.00000000000E+00 -0.45593999997E+02  0.45594000000E+02  0.51100000000E-03 0. -1.
         23    2    1    2    0    0 -0.11102230246E-14  0.00000000000E+00 -0.11102230246E-14  0.91188000000E+02  0.91188000000E+02 0.  0.
    9900012    2    3    3    0    0  0.15382389389E+01 -0.36744022103E+02  0.18139279470E+01  0.54367086460E+02  0.40000005203E+02 0.  0.
        -12    1    3    3    0    0 -0.15382389389E+01  0.36744022103E+02 -0.18139279470E+01  0.36820913540E+02  0.00000000000E+00 0.  1.
         11    1    4    4    0    0 -0.15826742241E+02 -0.18276145589E+02  0.86283171720E+01  0.25670043340E+02  0.51100000000E-03 0. -1.
        -11    1    4    4    0    0  0.14043028543E+02 -0.19564765305E+02 -0.44927243936E+01  0.24498393107E+02  0.51100000000E-03 0.  1.
         12    1    4    4    0    0  0.33219526373E+01  0.10968887915E+01 -0.23216648313E+01  0.41986500133E+01  0.00000000000E+00 0. -1.
</event>
<event>
 8    1  0.2531964E-006  0.9118800E+02  0.7816164E-02  0.1184000E+00
        -11   -1    0    0    0    0  0.00000000000E+00  0.00000000000E+00  0.45593999997E+02  0.45594000000E+02  0.51100000000E-03 0.  1.
         11   -1    0    0    0    0 -0.00000000000E+00 -0.00000000000E+00 -0.45593999997E+02  0.45594000000E+02  0.51100000000E-03 0. -1.
         23    2    1    2    0    0 -0.35527136788E-14  0.00000000000E+00  0.88817841970E-15  0.91188000000E+02  0.91188000000E+02 0.  0.
    9900012    2    3    3    0    0  0.25343116581E+02 -0.26263510502E+02 -0.48718377601E+01  0.54367077346E+02  0.39999984426E+02 0.  0.
        -12    1    3    3    0    0 -0.25343116581E+02  0.26263510502E+02  0.48718377601E+01  0.36820922654E+02  0.00000000000E+00 0.  1.
         11    1    4    4    0    0  0.39046563106E+01 -0.24683935452E+01 -0.12560573459E+02  0.13383098053E+02  0.51100000000E-03 0. -1.
        -11    1    4    4    0    0 -0.44500589733E+00 -0.85648216699E+01  0.11184306966E+02  0.14094074041E+02  0.51100000000E-03 0.  1.
        -12    1    4    4    0    0  0.21883466167E+02 -0.15230295287E+02 -0.34955712668E+01  0.26889905253E+02  0.00000000000E+00 0.  1.
</event>
<event>
 8    1  0.2531964E-006  0.9118800E+02  0.7816164E-02  0.1184000E+00
        -11   -1    0    0    0    0  0.00000000000E+00  0.00000000000E+00  0.45593999997E+02  0.45594000000E+02  0.51100000000E-03 0. -1.
         11   -1    0    0    0    0 -0.00000000000E+00 -0.00000000000E+00 -0.45593999997E+02  0.45594000000E+02  0.51100000000E-03 0.  1.
         23    2    1    2    0    0  0.35527136788E-14  0.17763568394E-14 -0.35527136788E-14  0.91188000000E+02  0.91188000000E+02 0.  0.
    9900012    2    3    3    0    0 -0.29862695475E+02 -0.12758647814E+02  0.17355575606E+02  0.54367086382E+02  0.40000005024E+02 0.  0.
        -12    1    3    3    0    0  0.29862695475E+02  0.12758647814E+02 -0.17355575606E+02  0.36820913618E+02  0.00000000000E+00 0.  1.
         11    1    4    4    0    0 -0.41042799324E+01  0.10910645787E+01  0.65506550873E+01  0.78068314963E+01  0.51100000000E-03 0. -1.
        -11    1    4    4    0    0  0.65856401192E+01 -0.99120128472E+01  0.68690116409E+01  0.13740523121E+02  0.51100000000E-03 0.  1.
         12    1    4    4    0    0 -0.32344055662E+02 -0.39376995458E+01  0.39359088778E+01  0.32819731764E+02  0.00000000000E+00 0. -1.
</event>
<event>
 8    1  0.2531964E-006  0.9118800E+02  0.7816164E-02  0.1184000E+00
        -11   -1    0    0    0    0  0.00000000000E+00  0.00000000000E+00  0.45593999997E+02  0.45594000000E+02  0.51100000000E-03 0.  1.
         11   -1    0    0    0    0 -0.00000000000E+00 -0.00000000000E+00 -0.45593999997E+02  0.45594000000E+02  0.51100000000E-03 0. -1.
         23    2    1    2    0    0 -0.44408920985E-15  0.00000000000E+00  0.00000000000E+00  0.91188000000E+02  0.91188000000E+02 0.  0.
    9900012    2    3    3    0    0  0.11193458447E+01  0.21673116051E+02 -0.29745655502E+02  0.54367069597E+02  0.39999966761E+02 0.  0.
        -12    1    3    3    0    0 -0.11193458447E+01 -0.21673116051E+02  0.29745655502E+02  0.36820930403E+02  0.00000000000E+00 0.  1.
         11    1    4    4    0    0  0.46983300249E+01  0.10632865590E+02 -0.14602048714E+02  0.18664189310E+02  0.51100000000E-03 0. -1.
        -11    1    4    4    0    0  0.34711002260E+01  0.10644041387E+02  0.64936119956E+01  0.12942609893E+02  0.51100000000E-03 0.  1.
         12    1    4    4    0    0 -0.70500844062E+01  0.39620907391E+00 -0.21637218783E+02  0.22760270395E+02  0.00000000000E+00 0. -1.
</event>
<event>
 8    1  0.2531964E-006  0.9118800E+02  0.7816164E-02  0.1184000E+00
        -11   -1    0    0    0    0  0.00000000000E+00  0.00000000000E+00  0.45593999997E+02  0.45594000000E+02  0.51100000000E-03 0. -1.
         11   -1    0    0    0    0 -0.00000000000E+00 -0.00000000000E+00 -0.45593999997E+02  0.45594000000E+02  0.51100000000E-03 0.  1.
         23    2    1    2    0    0  0.17763568394E-14  0.00000000000E+00  0.00000000000E+00  0.91188000000E+02  0.91188000000E+02 0.  0.
    9900012    2    3    3    0    0 -0.14148866641E+02 -0.30414046791E+02  0.15184692148E+02  0.54367088209E+02  0.40000009191E+02 0.  0.
        -12    1    3    3    0    0  0.14148866641E+02  0.30414046791E+02 -0.15184692148E+02  0.36820911791E+02  0.00000000000E+00 0.  1.
         11    1    4    4    0    0  0.10356402957E+02 -0.54979624722E+01 -0.25898448594E+01  0.12007912816E+02  0.51100000000E-03 0. -1.
        -11    1    4    4    0    0  0.11471842823E+01 -0.36915021124E+01  0.58131862768E+01  0.69811427842E+01  0.51100000000E-03 0.  1.
         12    1    4    4    0    0 -0.25652453880E+02 -0.21224582207E+02  0.11961350731E+02  0.35378032609E+02  0.00000000000E+00 0. -1.
</event>
<event>
 8    1  0.2531964E-006  0.9118800E+02  0.7816164E-02  0.1184000E+00
        -11   -1    0    0    0    0  0.00000000000E+00  0.00000000000E+00  0.45593999997E+02  0.45594000000E+02  0.51100000000E-03 0.  1.
         11   -1    0    0    0    0 -0.00000000000E+00 -0.00000000000E+00 -0.45593999997E+02  0.45594000000E+02  0.51100000000E-03 0. -1.
         23    2    1    2    0    0  0.35527136788E-14  0.00000000000E+00  0.35527136788E-14  0.91188000000E+02  0.91188000000E+02 0.  0.
    9900012    2    3    3    0    0  0.20928060399E+02 -0.28750483450E+02 -0.95501970637E+01  0.54367078303E+02  0.39999986607E+02 0.  0.
         12    1    3    3    0    0 -0.20928060399E+02  0.28750483450E+02  0.95501970637E+01  0.36820921697E+02  0.00000000000E+00 0. -1.
         11    1    4    4    0    0  0.65309814015E+01 -0.57286659102E+01 -0.21069530133E+02  0.22790270543E+02  0.51100000000E-03 0. -1.
        -11    1    4    4    0    0  0.13156768496E+02 -0.22460589753E+02  0.71415440132E+01  0.26992226668E+02  0.51100000000E-03 0.  1.
         12    1    4    4    0    0  0.12403105015E+01 -0.56122778672E+00  0.43777890557E+01  0.45845810915E+01  0.00000000000E+00 0. -1.
</event>
<event>
 8    1  0.2531964E-006  0.9118800E+02  0.7816164E-02  0.1184000E+00
        -11   -1    0    0    0    0  0.00000000000E+00  0.00000000000E+00  0.45593999997E+02  0.45594000000E+02  0.51100000000E-03 0.  1.
         11   -1    0    0    0    0 -0.00000000000E+00 -0.00000000000E+00 -0.45593999997E+02  0.45594000000E+02  0.51100000000E-03 0. -1.
         23    2    1    2    0    0 -0.88817841970E-15 -0.55511151231E-16  0.71054273576E-14  0.91188000000E+02  0.91188000000E+02 0.  0.
    9900012    2    3    3    0    0  0.21962606984E+01  0.29350854936E+00  0.36754180493E+02  0.54367088930E+02  0.40000010834E+02 0.  0.
         12    1    3    3    0    0 -0.21962606984E+01 -0.29350854936E+00 -0.36754180493E+02  0.36820911070E+02  0.00000000000E+00 0. -1.
         11    1    4    4    0    0  0.10669546695E+01  0.70000990575E+00 -0.50500777336E+01  0.52088090301E+01  0.51100000000E-03 0. -1.
        -11    1    4    4    0    0 -0.75166138220E+01 -0.10205976993E+02  0.22953608748E+02  0.26220785735E+02  0.51100000000E-03 0.  1.
         12    1    4    4    0    0  0.86459198509E+01  0.97994756369E+01  0.18850649478E+02  0.22937494165E+02  0.00000000000E+00 0. -1.
</event>
<event>
 8    1  0.2531964E-006  0.9118800E+02  0.7816164E-02  0.1184000E+00
        -11   -1    0    0    0    0  0.00000000000E+00  0.00000000000E+00  0.45593999997E+02  0.45594000000E+02  0.51100000000E-03 0.  1.
         11   -1    0    0    0    0 -0.00000000000E+00 -0.00000000000E+00 -0.45593999997E+02  0.45594000000E+02  0.51100000000E-03 0. -1.
         23    2    1    2    0    0  0.00000000000E+00  0.35527136788E-14 -0.35527136788E-14  0.91188000000E+02  0.91188000000E+02 0.  0.
    9900012    2    3    3    0    0  0.11000927895E+02  0.31016992511E+02 -0.16513827319E+02  0.54367072096E+02  0.39999972458E+02 0.  0.
        -12    1    3    3    0    0 -0.11000927895E+02 -0.31016992511E+02  0.16513827319E+02  0.36820927904E+02  0.00000000000E+00 0.  1.
         11    1    4    4    0    0  0.12080797732E+02 -0.13476700151E+01 -0.60280271559E+01  0.13568308662E+02  0.51100000000E-03 0. -1.
        -11    1    4    4    0    0  0.92528401986E+01  0.58793450378E+01 -0.37037562438E+01  0.11571497759E+02  0.51100000000E-03 0.  1.
        -12    1    4    4    0    0 -0.10332710035E+02  0.26485317488E+02 -0.67820439194E+01  0.29227265675E+02  0.00000000000E+00 0.  1.
</event>
<event>
 8    1  0.2531964E-006  0.9118800E+02  0.7816164E-02  0.1184000E+00
        -11   -1    0    0    0    0  0.00000000000E+00  0.00000000000E+00  0.45593999997E+02  0.45594000000E+02  0.51100000000E-03 0. -1.
         11   -1    0    0    0    0 -0.00000000000E+00 -0.00000000000E+00 -0.45593999997E+02  0.45594000000E+02  0.51100000000E-03 0.  1.
         23    2    1    2    0    0 -0.22204460493E-15 -0.44408920985E-15  0.00000000000E+00  0.91188000000E+02  0.91188000000E+02 0.  0.
    9900012    2    3    3    0    0  0.19894779523E+01 -0.34311445452E+01  0.36606636597E+02  0.54367127952E+02  0.40000099792E+02 0.  0.
        -12    1    3    3    0    0 -0.19894779523E+01  0.34311445452E+01 -0.36606636597E+02  0.36820872048E+02  0.00000000000E+00 0.  1.
         11    1    4    4    0    0 -0.25291457546E+01 -0.13749781775E+02  0.11895146251E+01  0.14030966553E+02  0.51100000000E-03 0.  1.
        -11    1    4    4    0    0  0.67577148760E+01 -0.16790561406E+01  0.10636465101E+02  0.12712998465E+02  0.51100000000E-03 0. -1.
        -12    1    4    4    0    0 -0.22390911691E+01  0.11997693371E+02  0.24780656871E+02  0.27623162934E+02  0.00000000000E+00 0.  1.
</event>
<event>
 8    1  0.2531964E-006  0.9118800E+02  0.7816164E-02  0.1184000E+00
        -11   -1    0    0    0    0  0.00000000000E+00  0.00000000000E+00  0.45593999997E+02  0.45594000000E+02  0.51100000000E-03 0.  1.
         11   -1    0    0    0    0 -0.00000000000E+00 -0.00000000000E+00 -0.45593999997E+02  0.45594000000E+02  0.51100000000E-03 0. -1.
         23    2    1    2    0    0  0.00000000000E+00  0.17763568394E-14 -0.35527136788E-14  0.91188000000E+02  0.91188000000E+02 0.  0.
    9900012    2    3    3    0    0  0.18731515226E+02 -0.70685620626E+01  0.30902210800E+02  0.54367070291E+02  0.39999968343E+02 0.  0.
         12    1    3    3    0    0 -0.18731515226E+02  0.70685620626E+01 -0.30902210800E+02  0.36820929709E+02  0.00000000000E+00 0. -1.
         11    1    4    4    0    0  0.11985966608E+02 -0.89326147785E+01  0.16864907941E+02  0.22536195829E+02  0.51100000000E-03 0.  1.
        -11    1    4    4    0    0  0.14630344120E+02  0.61181198238E+01  0.84061101489E+00  0.15880333321E+02  0.51100000000E-03 0. -1.
        -12    1    4    4    0    0 -0.78847955025E+01 -0.42540671080E+01  0.13196691844E+02  0.15950541141E+02  0.00000000000E+00 0.  1.
</event>
<event>
 8    1  0.2531964E-006  0.9118800E+02  0.7816164E-02  0.1184000E+00
        -11   -1    0    0    0    0  0.00000000000E+00  0.00000000000E+00  0.45593999997E+02  0.45594000000E+02  0.51100000000E-03 0.  1.
         11   -1    0    0    0    0 -0.00000000000E+00 -0.00000000000E+00 -0.45593999997E+02  0.45594000000E+02  0.51100000000E-03 0. -1.
         23    2    1    2    0    0 -0.35527136788E-14  0.35527136788E-14  0.35527136788E-14  0.91188000000E+02  0.91188000000E+02 0.  0.
    9900012    2    3    3    0    0  0.18239628411E+02  0.21848063116E+02  0.23361526507E+02  0.54367043641E+02  0.39999907588E+02 0.  0.
         12    1    3    3    0    0 -0.18239628411E+02 -0.21848063116E+02 -0.23361526507E+02  0.36820956359E+02  0.00000000000E+00 0. -1.
         11    1    4    4    0    0  0.33638247314E+01  0.13231284300E+02  0.19857346450E+01  0.13795845150E+02  0.51100000000E-03 0. -1.
        -11    1    4    4    0    0 -0.52133515425E+01 -0.59003306747E+01  0.49640130458E-01  0.78737158178E+01  0.51100000000E-03 0.  1.
        -12    1    4    4    0    0  0.20089155222E+02  0.14517109490E+02  0.21326151731E+02  0.32697482673E+02  0.00000000000E+00 0.  1.
</event>
<event>
 8    1  0.2531964E-006  0.9118800E+02  0.7816164E-02  0.1184000E+00
        -11   -1    0    0    0    0  0.00000000000E+00  0.00000000000E+00  0.45593999997E+02  0.45594000000E+02  0.51100000000E-03 0.  1.
         11   -1    0    0    0    0 -0.00000000000E+00 -0.00000000000E+00 -0.45593999997E+02  0.45594000000E+02  0.51100000000E-03 0. -1.
         23    2    1    2    0    0 -0.11102230246E-14  0.00000000000E+00  0.00000000000E+00  0.91188000000E+02  0.91188000000E+02 0.  0.
    9900012    2    3    3    0    0 -0.16999854030E+01 -0.16178265467E+02  0.33032609254E+02  0.54367088849E+02  0.40000010648E+02 0.  0.
         12    1    3    3    0    0  0.16999854030E+01  0.16178265467E+02 -0.33032609254E+02  0.36820911151E+02  0.00000000000E+00 0. -1.
         11    1    4    4    0    0  0.99391731551E+01 -0.15921590148E+02  0.12691313403E+02  0.22657308578E+02  0.51100000000E-03 0. -1.
        -11    1    4    4    0    0 -0.81160665645E+01  0.30103041620E+01 -0.19777602439E+01  0.88794145905E+01  0.51100000000E-03 0.  1.
        -12    1    4    4    0    0 -0.35230919937E+01 -0.32669794811E+01  0.22319056095E+02  0.22830365680E+02  0.00000000000E+00 0.  1.
</event>
<event>
 8    1  0.2531964E-006  0.9118800E+02  0.7816164E-02  0.1184000E+00
        -11   -1    0    0    0    0  0.00000000000E+00  0.00000000000E+00  0.45593999997E+02  0.45594000000E+02  0.51100000000E-03 0.  1.
         11   -1    0    0    0    0 -0.00000000000E+00 -0.00000000000E+00 -0.45593999997E+02  0.45594000000E+02  0.51100000000E-03 0. -1.
         23    2    1    2    0    0  0.00000000000E+00  0.00000000000E+00  0.00000000000E+00  0.91188000000E+02  0.91188000000E+02 0.  0.
    9900012    2    3    3    0    0  0.72987790405E+01 -0.82306884826E+01  0.35139200438E+02  0.54367084533E+02  0.40000000810E+02 0.  0.
         12    1    3    3    0    0 -0.72987790405E+01  0.82306884826E+01 -0.35139200438E+02  0.36820915467E+02  0.00000000000E+00 0. -1.
         11    1    4    4    0    0  0.26320107120E+01  0.16190890806E+01  0.24224609615E+02  0.24420905820E+02  0.51100000000E-03 0.  1.
        -11    1    4    4    0    0 -0.87545692672E+00  0.83412660679E+01  0.84887755839E+00  0.84299310683E+01  0.51100000000E-03 0. -1.
         12    1    4    4    0    0  0.55422252553E+01 -0.18191043631E+02  0.10065713265E+02  0.21516247645E+02  0.00000000000E+00 0. -1.
</event>
<event>
 8    1  0.2531964E-006  0.9118800E+02  0.7816164E-02  0.1184000E+00
        -11   -1    0    0    0    0  0.00000000000E+00  0.00000000000E+00  0.45593999997E+02  0.45594000000E+02  0.51100000000E-03 0. -1.
         11   -1    0    0    0    0 -0.00000000000E+00 -0.00000000000E+00 -0.45593999997E+02  0.45594000000E+02  0.51100000000E-03 0.  1.
         23    2    1    2    0    0  0.00000000000E+00  0.00000000000E+00  0.00000000000E+00  0.91188000000E+02  0.91188000000E+02 0.  0.
    9900012    2    3    3    0    0 -0.31910011018E+02  0.95071606773E+01 -0.15720707979E+02  0.54367142234E+02  0.40000132350E+02 0.  0.
         12    1    3    3    0    0  0.31910011018E+02 -0.95071606773E+01  0.15720707979E+02  0.36820857766E+02  0.00000000000E+00 0. -1.
         11    1    4    4    0    0 -0.72855941316E+01  0.63258425895E+01 -0.10881259886E+02  0.14542970236E+02  0.51100000000E-03 0. -1.
        -11    1    4    4    0    0 -0.71883854087E+01  0.36171449694E+01 -0.16832562662E+02  0.18657218135E+02  0.51100000000E-03 0.  1.
         12    1    4    4    0    0 -0.17436031478E+02 -0.43582688154E+00  0.11993114569E+02  0.21166953863E+02  0.00000000000E+00 0. -1.
</event>
<event>
 8    1  0.2531964E-006  0.9118800E+02  0.7816164E-02  0.1184000E+00
        -11   -1    0    0    0    0  0.00000000000E+00  0.00000000000E+00  0.45593999997E+02  0.45594000000E+02  0.51100000000E-03 0. -1.
         11   -1    0    0    0    0 -0.00000000000E+00 -0.00000000000E+00 -0.45593999997E+02  0.45594000000E+02  0.51100000000E-03 0.  1.
         23    2    1    2    0    0  0.00000000000E+00  0.00000000000E+00 -0.88817841970E-15  0.91188000000E+02  0.91188000000E+02 0.  0.
    9900012    2    3    3    0    0 -0.19139703357E+02 -0.30644904153E+02 -0.70951777082E+01  0.54367082822E+02  0.39999996909E+02 0.  0.
        -12    1    3    3    0    0  0.19139703357E+02  0.30644904153E+02  0.70951777082E+01  0.36820917178E+02  0.00000000000E+00 0.  1.
         11    1    4    4    0    0 -0.89026571185E+01 -0.24198110739E+02 -0.28147836908E+01  0.25937017458E+02  0.51100000000E-03 0. -1.
        -11    1    4    4    0    0  0.62156033274E+01 -0.95178183072E+01 -0.18788352100E+01  0.11521831975E+02  0.51100000000E-03 0.  1.
        -12    1    4    4    0    0 -0.16452649566E+02  0.30710248933E+01 -0.24015588074E+01  0.16908233389E+02  0.00000000000E+00 0.  1.
</event>
<event>
 8    1  0.2531964E-006  0.9118800E+02  0.7816164E-02  0.1184000E+00
        -11   -1    0    0    0    0  0.00000000000E+00  0.00000000000E+00  0.45593999997E+02  0.45594000000E+02  0.51100000000E-03 0. -1.
         11   -1    0    0    0    0 -0.00000000000E+00 -0.00000000000E+00 -0.45593999997E+02  0.45594000000E+02  0.51100000000E-03 0.  1.
         23    2    1    2    0    0  0.14210854715E-13  0.88817841970E-15 -0.55511151231E-15  0.91188000000E+02  0.91188000000E+02 0.  0.
    9900012    2    3    3    0    0 -0.36818158195E+02  0.29687968204E+00  0.33686826641E+00  0.54367103886E+02  0.40000044929E+02 0.  0.
        -12    1    3    3    0    0  0.36818158195E+02 -0.29687968204E+00 -0.33686826641E+00  0.36820896114E+02  0.00000000000E+00 0.  1.
         11    1    4    4    0    0 -0.41879742321E+01  0.33900717566E+01  0.50407564848E+00  0.54116362779E+01  0.51100000000E-03 0. -1.
        -11    1    4    4    0    0  0.44035315344E+00  0.74921874401E+01 -0.10336344519E+02  0.12773676128E+02  0.51100000000E-03 0.  1.
         12    1    4    4    0    0 -0.33070537116E+02 -0.10585379515E+02  0.10169137137E+02  0.36181791480E+02  0.00000000000E+00 0. -1.
</event>
<event>
 8    1  0.2531964E-006  0.9118800E+02  0.7816164E-02  0.1184000E+00
        -11   -1    0    0    0    0  0.00000000000E+00  0.00000000000E+00  0.45593999997E+02  0.45594000000E+02  0.51100000000E-03 0. -1.
         11   -1    0    0    0    0 -0.00000000000E+00 -0.00000000000E+00 -0.45593999997E+02  0.45594000000E+02  0.51100000000E-03 0.  1.
         23    2    1    2    0    0  0.17763568394E-14  0.00000000000E+00  0.00000000000E+00  0.91188000000E+02  0.91188000000E+02 0.  0.
    9900012    2    3    3    0    0 -0.14066846687E+02 -0.56101948116E+01 -0.33562319712E+02  0.54367085210E+02  0.40000002353E+02 0.  0.
         12    1    3    3    0    0  0.14066846687E+02  0.56101948116E+01  0.33562319712E+02  0.36820914790E+02  0.00000000000E+00 0. -1.
         11    1    4    4    0    0 -0.24761982905E+02 -0.47465909650E+01 -0.81007618112E+01  0.26482225460E+02  0.51100000000E-03 0. -1.
        -11    1    4    4    0    0  0.73219443253E+01  0.83647465647E-01 -0.20814908971E+02  0.22065318972E+02  0.51100000000E-03 0.  1.
         12    1    4    4    0    0  0.33731918922E+01 -0.94725131219E+00 -0.46466489292E+01  0.58195407775E+01  0.00000000000E+00 0. -1.
</event>
<event>
 8    1  0.2531964E-006  0.9118800E+02  0.7816164E-02  0.1184000E+00
        -11   -1    0    0    0    0  0.00000000000E+00  0.00000000000E+00  0.45593999997E+02  0.45594000000E+02  0.51100000000E-03 0.  1.
         11   -1    0    0    0    0 -0.00000000000E+00 -0.00000000000E+00 -0.45593999997E+02  0.45594000000E+02  0.51100000000E-03 0. -1.
         23    2    1    2    0    0  0.00000000000E+00  0.00000000000E+00 -0.35527136788E-14  0.91188000000E+02  0.91188000000E+02 0.  0.
    9900012    2    3    3    0    0 -0.31996593212E+02 -0.15937552651E+02  0.88311972128E+01  0.54367114543E+02  0.40000069223E+02 0.  0.
         12    1    3    3    0    0  0.31996593212E+02  0.15937552651E+02 -0.88311972128E+01  0.36820885457E+02  0.00000000000E+00 0. -1.
         11    1    4    4    0    0 -0.10791423895E+02  0.11179493940E+01  0.15060968339E+02  0.18561718888E+02  0.51100000000E-03 0. -1.
        -11    1    4    4    0    0 -0.66071380537E+01 -0.14240569030E+02 -0.12100838564E+02  0.19821159748E+02  0.51100000000E-03 0.  1.
        -12    1    4    4    0    0 -0.14598031263E+02 -0.28149330145E+01  0.58710674379E+01  0.15984235906E+02  0.00000000000E+00 0.  1.
</event>
<event>
 8    1  0.2531964E-006  0.9118800E+02  0.7816164E-02  0.1184000E+00
        -11   -1    0    0    0    0  0.00000000000E+00  0.00000000000E+00  0.45593999997E+02  0.45594000000E+02  0.51100000000E-03 0.  1.
         11   -1    0    0    0    0 -0.00000000000E+00 -0.00000000000E+00 -0.45593999997E+02  0.45594000000E+02  0.51100000000E-03 0. -1.
         23    2    1    2    0    0 -0.17763568394E-14 -0.71054273576E-14  0.35527136788E-14  0.91188000000E+02  0.91188000000E+02 0.  0.
    9900012    2    3    3    0    0 -0.13702439916E+02  0.19043388097E+02 -0.28379076511E+02  0.54367089182E+02  0.40000011407E+02 0.  0.
        -12    1    3    3    0    0  0.13702439916E+02 -0.19043388097E+02  0.28379076511E+02  0.36820910818E+02  0.00000000000E+00 0.  1.
         11    1    4    4    0    0 -0.10881907618E+02  0.68564812585E+01 -0.80214098628E+01  0.15158174860E+02  0.51100000000E-03 0. -1.
        -11    1    4    4    0    0  0.57254477606E+01 -0.86316290416E+01 -0.29859937817E+01  0.10779699954E+02  0.51100000000E-03 0.  1.
        -12    1    4    4    0    0 -0.85459800587E+01  0.20818535880E+02 -0.17371672867E+02  0.28429214367E+02  0.00000000000E+00 0.  1.
</event>
<event>
 8    1  0.2531964E-006  0.9118800E+02  0.7816164E-02  0.1184000E+00
        -11   -1    0    0    0    0  0.00000000000E+00  0.00000000000E+00  0.45593999997E+02  0.45594000000E+02  0.51100000000E-03 0.  1.
         11   -1    0    0    0    0 -0.00000000000E+00 -0.00000000000E+00 -0.45593999997E+02  0.45594000000E+02  0.51100000000E-03 0. -1.
         23    2    1    2    0    0  0.00000000000E+00  0.00000000000E+00 -0.17763568394E-14  0.91188000000E+02  0.91188000000E+02 0.  0.
    9900012    2    3    3    0    0  0.34063941960E+02  0.63027839813E+01 -0.12477832412E+02  0.54367169897E+02  0.40000195414E+02 0.  0.
        -12    1    3    3    0    0 -0.34063941960E+02 -0.63027839813E+01  0.12477832412E+02  0.36820830103E+02  0.00000000000E+00 0.  1.
         11    1    4    4    0    0  0.12445682229E+02 -0.54521470058E+01 -0.11349058025E+02  0.17703729309E+02  0.51100000000E-03 0. -1.
        -11    1    4    4    0    0  0.94476311514E+01  0.10172582048E+02  0.12245070796E+02  0.18511642794E+02  0.51100000000E-03 0.  1.
         12    1    4    4    0    0  0.12170628580E+02  0.15823489396E+01 -0.13373845182E+02  0.18151797794E+02  0.00000000000E+00 0. -1.
</event>
<event>
 8    1  0.2531964E-006  0.9118800E+02  0.7816164E-02  0.1184000E+00
        -11   -1    0    0    0    0  0.00000000000E+00  0.00000000000E+00  0.45593999997E+02  0.45594000000E+02  0.51100000000E-03 0.  1.
         11   -1    0    0    0    0 -0.00000000000E+00 -0.00000000000E+00 -0.45593999997E+02  0.45594000000E+02  0.51100000000E-03 0. -1.
         23    2    1    2    0    0  0.00000000000E+00 -0.17763568394E-14 -0.35527136788E-14  0.91188000000E+02  0.91188000000E+02 0.  0.
    9900012    2    3    3    0    0 -0.24245794698E+02  0.51984168073E+01  0.27219404144E+02  0.54367108379E+02  0.40000055171E+02 0.  0.
         12    1    3    3    0    0  0.24245794698E+02 -0.51984168073E+01 -0.27219404144E+02  0.36820891621E+02  0.00000000000E+00 0. -1.
         11    1    4    4    0    0 -0.15853917515E+02 -0.11825649477E+02  0.72847968823E+01  0.21077498713E+02  0.51100000000E-03 0. -1.
        -11    1    4    4    0    0 -0.62413282176E+01  0.47362541915E+01 -0.19728045747E+01  0.80794950236E+01  0.51100000000E-03 0.  1.
         12    1    4    4    0    0 -0.21505489654E+01  0.12287812093E+02  0.21907411836E+02  0.25210114642E+02  0.00000000000E+00 0. -1.
</event>
<event>
 8    1  0.2531964E-006  0.9118800E+02  0.7816164E-02  0.1184000E+00
        -11   -1    0    0    0    0  0.00000000000E+00  0.00000000000E+00  0.45593999997E+02  0.45594000000E+02  0.51100000000E-03 0. -1.
         11   -1    0    0    0    0 -0.00000000000E+00 -0.00000000000E+00 -0.45593999997E+02  0.45594000000E+02  0.51100000000E-03 0.  1.
         23    2    1    2    0    0  0.00000000000E+00 -0.71054273576E-14 -0.17763568394E-14  0.91188000000E+02  0.91188000000E+02 0.  0.
    9900012    2    3    3    0    0 -0.92271477928E+01  0.33982682399E+02  0.10761741304E+02  0.54367108711E+02  0.40000055929E+02 0.  0.
        -12    1    3    3    0    0  0.92271477928E+01 -0.33982682399E+02 -0.10761741304E+02  0.36820891289E+02  0.00000000000E+00 0.  1.
         11    1    4    4    0    0 -0.35930938368E+01 -0.16057884718E+01  0.95952353746E+01  0.10370989446E+02  0.51100000000E-03 0. -1.
        -11    1    4    4    0    0  0.34376456161E+01  0.12819585427E+02 -0.10431261821E+02  0.16881066356E+02  0.51100000000E-03 0.  1.
         12    1    4    4    0    0 -0.90716995721E+01  0.22768885444E+02  0.11597767750E+02  0.27115052909E+02  0.00000000000E+00 0. -1.
</event>
<event>
 8    1  0.2531964E-006  0.9118800E+02  0.7816164E-02  0.1184000E+00
        -11   -1    0    0    0    0  0.00000000000E+00  0.00000000000E+00  0.45593999997E+02  0.45594000000E+02  0.51100000000E-03 0. -1.
         11   -1    0    0    0    0 -0.00000000000E+00 -0.00000000000E+00 -0.45593999997E+02  0.45594000000E+02  0.51100000000E-03 0.  1.
         23    2    1    2    0    0  0.00000000000E+00  0.00000000000E+00 -0.35527136788E-14  0.91188000000E+02  0.91188000000E+02 0.  0.
    9900012    2    3    3    0    0 -0.16080332073E+02 -0.25600290893E+02  0.21019711565E+02  0.54367078669E+02  0.39999987441E+02 0.  0.
        -12    1    3    3    0    0  0.16080332073E+02  0.25600290893E+02 -0.21019711565E+02  0.36820921331E+02  0.00000000000E+00 0.  1.
         11    1    4    4    0    0 -0.19722017109E+02 -0.28022750809E+01  0.93744722815E+01  0.22015708831E+02  0.51100000000E-03 0. -1.
        -11    1    4    4    0    0  0.11052855282E+02 -0.82968686545E+01  0.41965182688E+01  0.14443490063E+02  0.51100000000E-03 0.  1.
        -12    1    4    4    0    0 -0.74111702454E+01 -0.14501147158E+02  0.74487210148E+01  0.17907879776E+02  0.00000000000E+00 0.  1.
</event>
<event>
 8    1  0.2531964E-006  0.9118800E+02  0.7816164E-02  0.1184000E+00
        -11   -1    0    0    0    0  0.00000000000E+00  0.00000000000E+00  0.45593999997E+02  0.45594000000E+02  0.51100000000E-03 0.  1.
         11   -1    0    0    0    0 -0.00000000000E+00 -0.00000000000E+00 -0.45593999997E+02  0.45594000000E+02  0.51100000000E-03 0. -1.
         23    2    1    2    0    0  0.00000000000E+00  0.00000000000E+00  0.00000000000E+00  0.91188000000E+02  0.91188000000E+02 0.  0.
    9900012    2    3    3    0    0 -0.34970511182E+02 -0.23081938067E+01  0.11292257833E+02  0.54367088849E+02  0.40000010650E+02 0.  0.
         12    1    3    3    0    0  0.34970511182E+02  0.23081938067E+01 -0.11292257833E+02  0.36820911151E+02  0.00000000000E+00 0. -1.
         11    1    4    4    0    0  0.40050633167E+01  0.22269182323E+01  0.28499574156E+01  0.53964761202E+01  0.51100000000E-03 0. -1.
        -11    1    4    4    0    0 -0.42200913290E+02 -0.50823123893E+01  0.29883638968E+01  0.42610765081E+02  0.51100000000E-03 0.  1.
        -12    1    4    4    0    0  0.32253387907E+01  0.54720035026E+00  0.54539365209E+01  0.63598476485E+01  0.00000000000E+00 0.  1.
</event>
<event>
 8    1  0.2531964E-006  0.9118800E+02  0.7816164E-02  0.1184000E+00
        -11   -1    0    0    0    0  0.00000000000E+00  0.00000000000E+00  0.45593999997E+02  0.45594000000E+02  0.51100000000E-03 0.  1.
         11   -1    0    0    0    0 -0.00000000000E+00 -0.00000000000E+00 -0.45593999997E+02  0.45594000000E+02  0.51100000000E-03 0. -1.
         23    2    1    2    0    0 -0.35527136788E-14 -0.35527136788E-14  0.17763568394E-14  0.91188000000E+02  0.91188000000E+02 0.  0.
    9900012    2    3    3    0    0  0.20686973200E+02  0.27946345320E+02  0.12117400994E+02  0.54367075463E+02  0.39999980132E+02 0.  0.
         12    1    3    3    0    0 -0.20686973200E+02 -0.27946345320E+02 -0.12117400994E+02  0.36820924537E+02  0.00000000000E+00 0. -1.
         11    1    4    4    0    0 -0.36669194059E+01  0.14523809335E+02  0.19452918896E+02  0.24552054687E+02  0.51100000000E-03 0.  1.
        -11    1    4    4    0    0  0.31697680226E+00  0.21219892381E+01  0.32869865121E+00  0.21705657521E+01  0.51100000000E-03 0. -1.
        -12    1    4    4    0    0  0.24036915804E+02  0.11300546747E+02 -0.76642165536E+01  0.27644455023E+02  0.00000000000E+00 0.  1.
</event>
<event>
 8    1  0.2531964E-006  0.9118800E+02  0.7816164E-02  0.1184000E+00
        -11   -1    0    0    0    0  0.00000000000E+00  0.00000000000E+00  0.45593999997E+02  0.45594000000E+02  0.51100000000E-03 0.  1.
         11   -1    0    0    0    0 -0.00000000000E+00 -0.00000000000E+00 -0.45593999997E+02  0.45594000000E+02  0.51100000000E-03 0. -1.
         23    2    1    2    0    0  0.35527136788E-14  0.17208456882E-14 -0.71054273576E-14  0.91188000000E+02  0.91188000000E+02 0.  0.
    9900012    2    3    3    0    0 -0.12437196632E+02 -0.30710894564E+00  0.34655474490E+02  0.54367080836E+02  0.39999992382E+02 0.  0.
         12    1    3    3    0    0  0.12437196632E+02  0.30710894564E+00 -0.34655474490E+02  0.36820919164E+02  0.00000000000E+00 0. -1.
         11    1    4    4    0    0 -0.95324651372E+01  0.52117545095E+01  0.62446208543E+01  0.12530984260E+02  0.51100000000E-03 0. -1.
        -11    1    4    4    0    0  0.66216127516E+01  0.10262912399E+02  0.12633890654E+02  0.17572373763E+02  0.51100000000E-03 0.  1.
        -12    1    4    4    0    0 -0.95263442462E+01 -0.15781775855E+02  0.15776962981E+02  0.24263722813E+02  0.00000000000E+00 0.  1.
</event>
<event>
 8    1  0.2531964E-006  0.9118800E+02  0.7816164E-02  0.1184000E+00
        -11   -1    0    0    0    0  0.00000000000E+00  0.00000000000E+00  0.45593999997E+02  0.45594000000E+02  0.51100000000E-03 0. -1.
         11   -1    0    0    0    0 -0.00000000000E+00 -0.00000000000E+00 -0.45593999997E+02  0.45594000000E+02  0.51100000000E-03 0.  1.
         23    2    1    2    0    0  0.00000000000E+00  0.00000000000E+00  0.00000000000E+00  0.91188000000E+02  0.91188000000E+02 0.  0.
    9900012    2    3    3    0    0 -0.19735292176E+02  0.18790214619E+02  0.24763417530E+02  0.54367071570E+02  0.39999971258E+02 0.  0.
        -12    1    3    3    0    0  0.19735292176E+02 -0.18790214619E+02 -0.24763417530E+02  0.36820928430E+02  0.00000000000E+00 0.  1.
         11    1    4    4    0    0  0.10591744004E+01  0.41140208347E+01  0.10101451176E+02  0.10958391030E+02  0.51100000000E-03 0. -1.
        -11    1    4    4    0    0 -0.20756896073E+02  0.53987172664E+00  0.19482564840E+02  0.28472978929E+02  0.51100000000E-03 0.  1.
        -12    1    4    4    0    0 -0.37570503347E-01  0.14136322057E+02 -0.48205984859E+01  0.14935701611E+02  0.00000000000E+00 0.  1.
</event>
<event>
 8    1  0.2531964E-006  0.9118800E+02  0.7816164E-02  0.1184000E+00
        -11   -1    0    0    0    0  0.00000000000E+00  0.00000000000E+00  0.45593999997E+02  0.45594000000E+02  0.51100000000E-03 0.  1.
         11   -1    0    0    0    0 -0.00000000000E+00 -0.00000000000E+00 -0.45593999997E+02  0.45594000000E+02  0.51100000000E-03 0. -1.
         23    2    1    2    0    0  0.00000000000E+00  0.00000000000E+00  0.00000000000E+00  0.91188000000E+02  0.91188000000E+02 0.  0.
    9900012    2    3    3    0    0  0.18729195395E+02  0.24898142714E+02 -0.19623462136E+02  0.54367074741E+02  0.39999978486E+02 0.  0.
        -12    1    3    3    0    0 -0.18729195395E+02 -0.24898142714E+02  0.19623462136E+02  0.36820925259E+02  0.00000000000E+00 0.  1.
         11    1    4    4    0    0  0.15123557461E+02  0.12219353704E+01 -0.77276244067E+00  0.15192507311E+02  0.51100000000E-03 0.  1.
        -11    1    4    4    0    0 -0.28561869614E+01  0.25855851508E+02 -0.97012411403E+01  0.27763230019E+02  0.51100000000E-03 0. -1.
         12    1    4    4    0    0  0.64618248954E+01 -0.21796441642E+01 -0.91494585548E+01  0.11411337411E+02  0.00000000000E+00 0. -1.
</event>
<event>
 8    1  0.2531964E-006  0.9118800E+02  0.7816164E-02  0.1184000E+00
        -11   -1    0    0    0    0  0.00000000000E+00  0.00000000000E+00  0.45593999997E+02  0.45594000000E+02  0.51100000000E-03 0. -1.
         11   -1    0    0    0    0 -0.00000000000E+00 -0.00000000000E+00 -0.45593999997E+02  0.45594000000E+02  0.51100000000E-03 0.  1.
         23    2    1    2    0    0  0.17763568394E-14  0.00000000000E+00  0.00000000000E+00  0.91188000000E+02  0.91188000000E+02 0.  0.
    9900012    2    3    3    0    0  0.87555303678E+01 -0.11811262003E+02 -0.33758223414E+02  0.54367043057E+02  0.39999906257E+02 0.  0.
         12    1    3    3    0    0 -0.87555303678E+01  0.11811262003E+02  0.33758223414E+02  0.36820956943E+02  0.00000000000E+00 0. -1.
         11    1    4    4    0    0  0.21904926144E+01  0.96215958802E+01 -0.77182603954E+01  0.12527765522E+02  0.51100000000E-03 0. -1.
        -11    1    4    4    0    0 -0.17103538851E+01 -0.20050432504E+02 -0.74754635116E+01  0.21466897982E+02  0.51100000000E-03 0.  1.
        -12    1    4    4    0    0  0.82753916386E+01 -0.13824253793E+01 -0.18564499507E+02  0.20372379553E+02  0.00000000000E+00 0.  1.
</event>
<event>
 8    1  0.2531964E-006  0.9118800E+02  0.7816164E-02  0.1184000E+00
        -11   -1    0    0    0    0  0.00000000000E+00  0.00000000000E+00  0.45593999997E+02  0.45594000000E+02  0.51100000000E-03 0.  1.
         11   -1    0    0    0    0 -0.00000000000E+00 -0.00000000000E+00 -0.45593999997E+02  0.45594000000E+02  0.51100000000E-03 0. -1.
         23    2    1    2    0    0 -0.17763568394E-14  0.00000000000E+00  0.00000000000E+00  0.91188000000E+02  0.91188000000E+02 0.  0.
    9900012    2    3    3    0    0  0.59036397993E+01 -0.43764983439E+01  0.36080091908E+02  0.54367085662E+02  0.40000003383E+02 0.  0.
         12    1    3    3    0    0 -0.59036397993E+01  0.43764983439E+01 -0.36080091908E+02  0.36820914338E+02  0.00000000000E+00 0. -1.
         11    1    4    4    0    0 -0.68750583553E+01  0.28517789260E+01  0.16486053818E+01  0.76234487207E+01  0.51100000000E-03 0.  1.
        -11    1    4    4    0    0  0.11686682873E+02 -0.11390102282E+02  0.50988608083E+01  0.17097115791E+02  0.51100000000E-03 0. -1.
         12    1    4    4    0    0  0.10920152821E+01  0.41618250123E+01  0.29332625718E+02  0.29646521150E+02  0.00000000000E+00 0. -1.
</event>
<event>
 8    1  0.2531964E-006  0.9118800E+02  0.7816164E-02  0.1184000E+00
        -11   -1    0    0    0    0  0.00000000000E+00  0.00000000000E+00  0.45593999997E+02  0.45594000000E+02  0.51100000000E-03 0. -1.
         11   -1    0    0    0    0 -0.00000000000E+00 -0.00000000000E+00 -0.45593999997E+02  0.45594000000E+02  0.51100000000E-03 0.  1.
         23    2    1    2    0    0  0.35527136788E-14 -0.17763568394E-14  0.00000000000E+00  0.91188000000E+02  0.91188000000E+02 0.  0.
    9900012    2    3    3    0    0  0.26538726188E+02 -0.80531678161E+01  0.24220272725E+02  0.54367094112E+02  0.40000022648E+02 0.  0.
        -12    1    3    3    0    0 -0.26538726188E+02  0.80531678161E+01 -0.24220272725E+02  0.36820905888E+02  0.00000000000E+00 0.  1.
         11    1    4    4    0    0 -0.77546752349E+01 -0.81648674457E+01  0.12867025837E+02  0.17098549721E+02  0.51100000000E-03 0. -1.
        -11    1    4    4    0    0  0.23279741685E+02  0.25941736591E+01  0.39155925506E+01  0.23748852081E+02  0.51100000000E-03 0.  1.
         12    1    4    4    0    0  0.11013659737E+02 -0.24824740295E+01  0.74376543370E+01  0.13519692310E+02  0.00000000000E+00 0. -1.
</event>
<event>
 8    1  0.2531964E-006  0.9118800E+02  0.7816164E-02  0.1184000E+00
        -11   -1    0    0    0    0  0.00000000000E+00  0.00000000000E+00  0.45593999997E+02  0.45594000000E+02  0.51100000000E-03 0.  1.
         11   -1    0    0    0    0 -0.00000000000E+00 -0.00000000000E+00 -0.45593999997E+02  0.45594000000E+02  0.51100000000E-03 0. -1.
         23    2    1    2    0    0  0.00000000000E+00 -0.35527136788E-14  0.53290705182E-14  0.91188000000E+02  0.91188000000E+02 0.  0.
    9900012    2    3    3    0    0 -0.16189365662E+02  0.30679624666E+02 -0.12346858401E+02  0.54367084170E+02  0.39999999982E+02 0.  0.
        -12    1    3    3    0    0  0.16189365662E+02 -0.30679624666E+02  0.12346858401E+02  0.36820915830E+02  0.00000000000E+00 0.  1.
         11    1    4    4    0    0  0.13439212702E+01  0.20881087492E+02  0.78024068027E+01  0.22331670143E+02  0.51100000000E-03 0. -1.
        -11    1    4    4    0    0 -0.73639294629E+01 -0.30876395222E+01 -0.97525155916E+01  0.12604464906E+02  0.51100000000E-03 0.  1.
         12    1    4    4    0    0 -0.10169357469E+02  0.12886176697E+02 -0.10396749612E+02  0.19430949120E+02  0.00000000000E+00 0. -1.
</event>
<event>
 8    1  0.2531964E-006  0.9118800E+02  0.7816164E-02  0.1184000E+00
        -11   -1    0    0    0    0  0.00000000000E+00  0.00000000000E+00  0.45593999997E+02  0.45594000000E+02  0.51100000000E-03 0.  1.
         11   -1    0    0    0    0 -0.00000000000E+00 -0.00000000000E+00 -0.45593999997E+02  0.45594000000E+02  0.51100000000E-03 0. -1.
         23    2    1    2    0    0 -0.88817841970E-15  0.00000000000E+00  0.35527136788E-14  0.91188000000E+02  0.91188000000E+02 0.  0.
    9900012    2    3    3    0    0  0.27189497684E+01  0.22432635082E+02 -0.29071620236E+02  0.54367151181E+02  0.40000152747E+02 0.  0.
        -12    1    3    3    0    0 -0.27189497684E+01 -0.22432635082E+02  0.29071620236E+02  0.36820848819E+02  0.00000000000E+00 0.  1.
         11    1    4    4    0    0  0.76575342041E+01  0.37449337431E+01 -0.29760578769E+02  0.30957299749E+02  0.51100000000E-03 0. -1.
        -11    1    4    4    0    0  0.86689433696E+00 -0.17090748751E+01 -0.95156089621E+00  0.21396053656E+01  0.51100000000E-03 0.  1.
        -12    1    4    4    0    0 -0.58054787726E+01  0.20396776214E+02  0.16405194291E+01  0.21270246066E+02  0.00000000000E+00 0.  1.
</event>
<event>
 8    1  0.2531964E-006  0.9118800E+02  0.7816164E-02  0.1184000E+00
        -11   -1    0    0    0    0  0.00000000000E+00  0.00000000000E+00  0.45593999997E+02  0.45594000000E+02  0.51100000000E-03 0. -1.
         11   -1    0    0    0    0 -0.00000000000E+00 -0.00000000000E+00 -0.45593999997E+02  0.45594000000E+02  0.51100000000E-03 0.  1.
         23    2    1    2    0    0 -0.17763568394E-14  0.00000000000E+00  0.00000000000E+00  0.91188000000E+02  0.91188000000E+02 0.  0.
    9900012    2    3    3    0    0 -0.13092229040E+02 -0.29878160825E+02  0.17078311745E+02  0.54367086274E+02  0.40000004780E+02 0.  0.
         12    1    3    3    0    0  0.13092229040E+02  0.29878160825E+02 -0.17078311745E+02  0.36820913726E+02  0.00000000000E+00 0. -1.
         11    1    4    4    0    0 -0.10946956219E+02 -0.91704046063E+01  0.77111536668E+01  0.16229419652E+02  0.51100000000E-03 0. -1.
        -11    1    4    4    0    0 -0.12201196195E+02 -0.22295854505E+02  0.11232786121E+02  0.27787583576E+02  0.51100000000E-03 0.  1.
        -12    1    4    4    0    0  0.10055923374E+02  0.15880982861E+01 -0.18656280430E+01  0.10350083046E+02  0.00000000000E+00 0.  1.
</event>
<event>
 8    1  0.2531964E-006  0.9118800E+02  0.7816164E-02  0.1184000E+00
        -11   -1    0    0    0    0  0.00000000000E+00  0.00000000000E+00  0.45593999997E+02  0.45594000000E+02  0.51100000000E-03 0. -1.
         11   -1    0    0    0    0 -0.00000000000E+00 -0.00000000000E+00 -0.45593999997E+02  0.45594000000E+02  0.51100000000E-03 0.  1.
         23    2    1    2    0    0  0.00000000000E+00 -0.35527136788E-14  0.00000000000E+00  0.91188000000E+02  0.91188000000E+02 0.  0.
    9900012    2    3    3    0    0 -0.22344263778E+02 -0.23177516627E+02  0.17869396027E+02  0.54367099479E+02  0.40000034883E+02 0.  0.
        -12    1    3    3    0    0  0.22344263778E+02  0.23177516627E+02 -0.17869396027E+02  0.36820900521E+02  0.00000000000E+00 0.  1.
         11    1    4    4    0    0 -0.45592968716E+00 -0.88079230152E+01  0.56070387533E+01  0.10451136951E+02  0.51100000000E-03 0. -1.
        -11    1    4    4    0    0 -0.76451901788E+01 -0.63858123838E+01  0.22525806864E+02  0.24630052939E+02  0.51100000000E-03 0.  1.
        -12    1    4    4    0    0 -0.14243143912E+02 -0.79837812280E+01 -0.10263449590E+02  0.19285909589E+02  0.00000000000E+00 0.  1.
</event>
<event>
 8    1  0.2531964E-006  0.9118800E+02  0.7816164E-02  0.1184000E+00
        -11   -1    0    0    0    0  0.00000000000E+00  0.00000000000E+00  0.45593999997E+02  0.45594000000E+02  0.51100000000E-03 0.  1.
         11   -1    0    0    0    0 -0.00000000000E+00 -0.00000000000E+00 -0.45593999997E+02  0.45594000000E+02  0.51100000000E-03 0. -1.
         23    2    1    2    0    0 -0.35527136788E-14  0.00000000000E+00 -0.35527136788E-14  0.91188000000E+02  0.91188000000E+02 0.  0.
    9900012    2    3    3    0    0 -0.30458634954E+02  0.94614858320E+01 -0.18399233176E+02  0.54367082862E+02  0.39999997000E+02 0.  0.
        -12    1    3    3    0    0  0.30458634954E+02 -0.94614858320E+01  0.18399233176E+02  0.36820917138E+02  0.00000000000E+00 0.  1.
         11    1    4    4    0    0 -0.92997136979E-01  0.46326298563E+01  0.36845984577E+00  0.46481900533E+01  0.51100000000E-03 0. -1.
        -11    1    4    4    0    0 -0.10217974468E+02  0.15559982175E+02  0.21730791487E+01  0.18741459942E+02  0.51100000000E-03 0.  1.
         12    1    4    4    0    0 -0.20147663349E+02 -0.10731126199E+02 -0.20940772170E+02  0.30977432867E+02  0.00000000000E+00 0. -1.
</event>
<event>
 8    1  0.2531964E-006  0.9118800E+02  0.7816164E-02  0.1184000E+00
        -11   -1    0    0    0    0  0.00000000000E+00  0.00000000000E+00  0.45593999997E+02  0.45594000000E+02  0.51100000000E-03 0.  1.
         11   -1    0    0    0    0 -0.00000000000E+00 -0.00000000000E+00 -0.45593999997E+02  0.45594000000E+02  0.51100000000E-03 0. -1.
         23    2    1    2    0    0  0.00000000000E+00  0.00000000000E+00  0.88817841970E-15  0.91188000000E+02  0.91188000000E+02 0.  0.
    9900012    2    3    3    0    0 -0.16684821107E+02 -0.32712863790E+02 -0.26953508407E+01  0.54367087072E+02  0.40000006598E+02 0.  0.
         12    1    3    3    0    0  0.16684821107E+02  0.32712863790E+02  0.26953508407E+01  0.36820912928E+02  0.00000000000E+00 0. -1.
         11    1    4    4    0    0  0.48390160951E+01 -0.13713956940E+02  0.10546486711E+02  0.17964327817E+02  0.51100000000E-03 0. -1.
        -11    1    4    4    0    0 -0.42502368123E+01 -0.28081208465E+00  0.38397960967E+01  0.57347539366E+01  0.51100000000E-03 0.  1.
         12    1    4    4    0    0 -0.17273600390E+02 -0.18718094765E+02 -0.17081633649E+02  0.30668005318E+02  0.00000000000E+00 0. -1.
</event>
<event>
 8    1  0.2531964E-006  0.9118800E+02  0.7816164E-02  0.1184000E+00
        -11   -1    0    0    0    0  0.00000000000E+00  0.00000000000E+00  0.45593999997E+02  0.45594000000E+02  0.51100000000E-03 0.  1.
         11   -1    0    0    0    0 -0.00000000000E+00 -0.00000000000E+00 -0.45593999997E+02  0.45594000000E+02  0.51100000000E-03 0. -1.
         23    2    1    2    0    0  0.88817841970E-15  0.71054273576E-14  0.00000000000E+00  0.91188000000E+02  0.91188000000E+02 0.  0.
    9900012    2    3    3    0    0  0.75611947518E+01  0.35542986465E+02  0.59416843009E+01  0.54367093367E+02  0.40000020949E+02 0.  0.
         12    1    3    3    0    0 -0.75611947518E+01 -0.35542986465E+02 -0.59416843009E+01  0.36820906633E+02  0.00000000000E+00 0. -1.
         11    1    4    4    0    0  0.29702305791E+01  0.24007147643E+02 -0.21617354471E+01  0.24286591116E+02  0.51100000000E-03 0. -1.
        -11    1    4    4    0    0  0.94824845832E+00  0.19371482969E+02  0.90227706300E+01  0.21390743738E+02  0.51100000000E-03 0.  1.
        -12    1    4    4    0    0  0.36427157143E+01 -0.78356441465E+01 -0.91935088199E+00  0.86897585128E+01  0.00000000000E+00 0.  1.
</event>
<event>
 8    1  0.2531964E-006  0.9118800E+02  0.7816164E-02  0.1184000E+00
        -11   -1    0    0    0    0  0.00000000000E+00  0.00000000000E+00  0.45593999997E+02  0.45594000000E+02  0.51100000000E-03 0. -1.
         11   -1    0    0    0    0 -0.00000000000E+00 -0.00000000000E+00 -0.45593999997E+02  0.45594000000E+02  0.51100000000E-03 0.  1.
         23    2    1    2    0    0  0.00000000000E+00  0.00000000000E+00  0.35527136788E-14  0.91188000000E+02  0.91188000000E+02 0.  0.
    9900012    2    3    3    0    0 -0.20616834823E+02  0.10882243080E+02 -0.28500938810E+02  0.54367073809E+02  0.39999976362E+02 0.  0.
         12    1    3    3    0    0  0.20616834823E+02 -0.10882243080E+02  0.28500938810E+02  0.36820926191E+02  0.00000000000E+00 0. -1.
         11    1    4    4    0    0 -0.18629745571E+02 -0.37558968050E+01 -0.21963183126E+02  0.29044028546E+02  0.51100000000E-03 0. -1.
        -11    1    4    4    0    0  0.12639881938E+01  0.60486575211E+01 -0.12795614005E+02  0.14209562343E+02  0.51100000000E-03 0.  1.
         12    1    4    4    0    0 -0.32510774450E+01  0.85894823643E+01  0.62578583214E+01  0.11113482920E+02  0.00000000000E+00 0. -1.
</event>
<event>
 8    1  0.2531964E-006  0.9118800E+02  0.7816164E-02  0.1184000E+00
        -11   -1    0    0    0    0  0.00000000000E+00  0.00000000000E+00  0.45593999997E+02  0.45594000000E+02  0.51100000000E-03 0.  1.
         11   -1    0    0    0    0 -0.00000000000E+00 -0.00000000000E+00 -0.45593999997E+02  0.45594000000E+02  0.51100000000E-03 0. -1.
         23    2    1    2    0    0  0.14210854715E-13  0.00000000000E+00  0.00000000000E+00  0.91188000000E+02  0.91188000000E+02 0.  0.
    9900012    2    3    3    0    0 -0.35398395664E+02 -0.40569161500E+01  0.92884367566E+01  0.54367081467E+02  0.39999993821E+02 0.  0.
         12    1    3    3    0    0  0.35398395664E+02  0.40569161500E+01 -0.92884367566E+01  0.36820918533E+02  0.00000000000E+00 0. -1.
         11    1    4    4    0    0 -0.18381888188E+02  0.30425517906E+01  0.10664150802E+02  0.21468000543E+02  0.51100000000E-03 0.  1.
        -11    1    4    4    0    0 -0.11883658187E+01 -0.33998861571E+01 -0.12626744908E+02  0.13130351345E+02  0.51100000000E-03 0. -1.
        -12    1    4    4    0    0 -0.15828141657E+02 -0.36995817835E+01  0.11251030863E+02  0.19768729579E+02  0.00000000000E+00 0.  1.
</event>
<event>
 8    1  0.2531964E-006  0.9118800E+02  0.7816164E-02  0.1184000E+00
        -11   -1    0    0    0    0  0.00000000000E+00  0.00000000000E+00  0.45593999997E+02  0.45594000000E+02  0.51100000000E-03 0.  1.
         11   -1    0    0    0    0 -0.00000000000E+00 -0.00000000000E+00 -0.45593999997E+02  0.45594000000E+02  0.51100000000E-03 0. -1.
         23    2    1    2    0    0  0.00000000000E+00  0.00000000000E+00  0.00000000000E+00  0.91188000000E+02  0.91188000000E+02 0.  0.
    9900012    2    3    3    0    0  0.33612758477E+02 -0.32612159425E+01 -0.14674004006E+02  0.54367089427E+02  0.40000011967E+02 0.  0.
        -12    1    3    3    0    0 -0.33612758477E+02  0.32612159425E+01  0.14674004006E+02  0.36820910573E+02  0.00000000000E+00 0.  1.
         11    1    4    4    0    0  0.15731736646E+01  0.50877378455E+01 -0.52882323659E+01  0.75050218907E+01  0.51100000000E-03 0. -1.
        -11    1    4    4    0    0  0.37832229163E+02 -0.79403355347E+01 -0.38645208887E+01  0.38849208664E+02  0.51100000000E-03 0.  1.
        -12    1    4    4    0    0 -0.57926443510E+01 -0.40861825320E+00 -0.55212507513E+01  0.80128588727E+01  0.00000000000E+00 0.  1.
</event>
<event>
 8    1  0.2531964E-006  0.9118800E+02  0.7816164E-02  0.1184000E+00
        -11   -1    0    0    0    0  0.00000000000E+00  0.00000000000E+00  0.45593999997E+02  0.45594000000E+02  0.51100000000E-03 0. -1.
         11   -1    0    0    0    0 -0.00000000000E+00 -0.00000000000E+00 -0.45593999997E+02  0.45594000000E+02  0.51100000000E-03 0.  1.
         23    2    1    2    0    0  0.00000000000E+00  0.00000000000E+00  0.00000000000E+00  0.91188000000E+02  0.91188000000E+02 0.  0.
    9900012    2    3    3    0    0  0.40460551984E+01 -0.19565219177E+02 -0.30929151345E+02  0.54367071616E+02  0.39999971364E+02 0.  0.
         12    1    3    3    0    0 -0.40460551984E+01  0.19565219177E+02  0.30929151345E+02  0.36820928384E+02  0.00000000000E+00 0. -1.
         11    1    4    4    0    0  0.30373501761E+01 -0.24453759559E+02 -0.23368314674E+01  0.24752224834E+02  0.51100000000E-03 0. -1.
        -11    1    4    4    0    0 -0.17414064914E+01  0.27960886149E+00 -0.31270633204E+01  0.35901536115E+01  0.51100000000E-03 0.  1.
         12    1    4    4    0    0  0.27501115137E+01  0.46089315208E+01 -0.25465256558E+02  0.26024693171E+02  0.00000000000E+00 0. -1.
</event>
<event>
 8    1  0.2531964E-006  0.9118800E+02  0.7816164E-02  0.1184000E+00
        -11   -1    0    0    0    0  0.00000000000E+00  0.00000000000E+00  0.45593999997E+02  0.45594000000E+02  0.51100000000E-03 0.  1.
         11   -1    0    0    0    0 -0.00000000000E+00 -0.00000000000E+00 -0.45593999997E+02  0.45594000000E+02  0.51100000000E-03 0. -1.
         23    2    1    2    0    0  0.00000000000E+00 -0.88817841970E-15  0.00000000000E+00  0.91188000000E+02  0.91188000000E+02 0.  0.
    9900012    2    3    3    0    0 -0.24970162081E+01  0.57155822906E+01 -0.36288734758E+02  0.54367146653E+02  0.40000142424E+02 0.  0.
        -12    1    3    3    0    0  0.24970162081E+01 -0.57155822906E+01  0.36288734758E+02  0.36820853347E+02  0.00000000000E+00 0.  1.
         11    1    4    4    0    0  0.10287687949E+02  0.14755512096E+02 -0.31948700575E+02  0.36664439574E+02  0.51100000000E-03 0. -1.
        -11    1    4    4    0    0 -0.10095205650E+02 -0.73972927304E+01 -0.22215558923E+00  0.12517286856E+02  0.51100000000E-03 0.  1.
         12    1    4    4    0    0 -0.26894985069E+01 -0.16426370753E+01 -0.41178785934E+01  0.51854202230E+01  0.00000000000E+00 0. -1.
</event>
<event>
 8    1  0.2531964E-006  0.9118800E+02  0.7816164E-02  0.1184000E+00
        -11   -1    0    0    0    0  0.00000000000E+00  0.00000000000E+00  0.45593999997E+02  0.45594000000E+02  0.51100000000E-03 0. -1.
         11   -1    0    0    0    0 -0.00000000000E+00 -0.00000000000E+00 -0.45593999997E+02  0.45594000000E+02  0.51100000000E-03 0.  1.
         23    2    1    2    0    0 -0.17763568394E-14  0.00000000000E+00  0.00000000000E+00  0.91188000000E+02  0.91188000000E+02 0.  0.
    9900012    2    3    3    0    0 -0.11587412072E+02 -0.10016984624E+02 -0.33483899290E+02  0.54367087312E+02  0.40000007146E+02 0.  0.
         12    1    3    3    0    0  0.11587412072E+02  0.10016984624E+02  0.33483899290E+02  0.36820912688E+02  0.00000000000E+00 0. -1.
         11    1    4    4    0    0 -0.64220267943E+01 -0.20916381512E+01 -0.34119806238E+01  0.75669670503E+01  0.51100000000E-03 0. -1.
        -11    1    4    4    0    0 -0.85376394464E+01 -0.75886609379E+01  0.43416916730E+01  0.12220038829E+02  0.51100000000E-03 0.  1.
        -12    1    4    4    0    0  0.33722541684E+01 -0.33668553472E+00 -0.34413610339E+02  0.34580081433E+02  0.00000000000E+00 0.  1.
</event>
<event>
 8    1  0.2531964E-006  0.9118800E+02  0.7816164E-02  0.1184000E+00
        -11   -1    0    0    0    0  0.00000000000E+00  0.00000000000E+00  0.45593999997E+02  0.45594000000E+02  0.51100000000E-03 0.  1.
         11   -1    0    0    0    0 -0.00000000000E+00 -0.00000000000E+00 -0.45593999997E+02  0.45594000000E+02  0.51100000000E-03 0. -1.
         23    2    1    2    0    0  0.00000000000E+00  0.00000000000E+00  0.00000000000E+00  0.91188000000E+02  0.91188000000E+02 0.  0.
    9900012    2    3    3    0    0  0.13286002733E+02 -0.26505972437E+02 -0.21833328537E+02  0.54367099977E+02  0.40000036019E+02 0.  0.
        -12    1    3    3    0    0 -0.13286002733E+02  0.26505972437E+02  0.21833328537E+02  0.36820900023E+02  0.00000000000E+00 0.  1.
         11    1    4    4    0    0 -0.11547947679E+00 -0.26999743584E+02 -0.78771781219E+01  0.28125600875E+02  0.51100000000E-03 0. -1.
        -11    1    4    4    0    0  0.55617832158E+01 -0.71703110880E+01 -0.12095644735E+02  0.15121224007E+02  0.51100000000E-03 0.  1.
        -12    1    4    4    0    0  0.78396989944E+01  0.76640822352E+01 -0.18605056797E+01  0.11120275096E+02  0.00000000000E+00 0.  1.
</event>
<event>
 8    1  0.2531964E-006  0.9118800E+02  0.7816164E-02  0.1184000E+00
        -11   -1    0    0    0    0  0.00000000000E+00  0.00000000000E+00  0.45593999997E+02  0.45594000000E+02  0.51100000000E-03 0. -1.
         11   -1    0    0    0    0 -0.00000000000E+00 -0.00000000000E+00 -0.45593999997E+02  0.45594000000E+02  0.51100000000E-03 0.  1.
         23    2    1    2    0    0  0.00000000000E+00  0.35527136788E-14  0.00000000000E+00  0.91188000000E+02  0.91188000000E+02 0.  0.
    9900012    2    3    3    0    0  0.99301651649E+01  0.30308868394E+02 -0.18399576868E+02  0.54367080505E+02  0.39999991628E+02 0.  0.
         12    1    3    3    0    0 -0.99301651649E+01 -0.30308868394E+02  0.18399576868E+02  0.36820919495E+02  0.00000000000E+00 0. -1.
         11    1    4    4    0    0  0.14199196438E+01 -0.74856959733E+01  0.10917996983E+01  0.76970021984E+01  0.51100000000E-03 0. -1.
        -11    1    4    4    0    0  0.97660260681E+01  0.13645908118E+02 -0.14046030935E+02  0.21883259785E+02  0.51100000000E-03 0.  1.
        -12    1    4    4    0    0 -0.12557805470E+01  0.24148656249E+02 -0.54453456317E+01  0.24786818523E+02  0.00000000000E+00 0.  1.
</event>
<event>
 8    1  0.2531964E-006  0.9118800E+02  0.7816164E-02  0.1184000E+00
        -11   -1    0    0    0    0  0.00000000000E+00  0.00000000000E+00  0.45593999997E+02  0.45594000000E+02  0.51100000000E-03 0. -1.
         11   -1    0    0    0    0 -0.00000000000E+00 -0.00000000000E+00 -0.45593999997E+02  0.45594000000E+02  0.51100000000E-03 0.  1.
         23    2    1    2    0    0  0.00000000000E+00  0.00000000000E+00  0.00000000000E+00  0.91188000000E+02  0.91188000000E+02 0.  0.
    9900012    2    3    3    0    0  0.14743197774E+02 -0.16331904750E+02 -0.29524344303E+02  0.54367083392E+02  0.39999998208E+02 0.  0.
         12    1    3    3    0    0 -0.14743197774E+02  0.16331904750E+02  0.29524344303E+02  0.36820916608E+02  0.00000000000E+00 0. -1.
         11    1    4    4    0    0  0.15282748077E+02 -0.68099991147E+01  0.33045537512E+01  0.17054575705E+02  0.51100000000E-03 0. -1.
        -11    1    4    4    0    0  0.22351717211E+01 -0.62017676949E+01 -0.31255936191E+01  0.72957008502E+01  0.51100000000E-03 0.  1.
         12    1    4    4    0    0 -0.27747220246E+01 -0.33201379410E+01 -0.29703304435E+02  0.30016806836E+02  0.00000000000E+00 0. -1.
</event>
<event>
 8    1  0.2531964E-006  0.9118800E+02  0.7816164E-02  0.1184000E+00
        -11   -1    0    0    0    0  0.00000000000E+00  0.00000000000E+00  0.45593999997E+02  0.45594000000E+02  0.51100000000E-03 0.  1.
         11   -1    0    0    0    0 -0.00000000000E+00 -0.00000000000E+00 -0.45593999997E+02  0.45594000000E+02  0.51100000000E-03 0. -1.
         23    2    1    2    0    0  0.00000000000E+00  0.17763568394E-14  0.88817841970E-15  0.91188000000E+02  0.91188000000E+02 0.  0.
    9900012    2    3    3    0    0  0.33221955143E+02 -0.14685223069E+02  0.60352234372E+01  0.54367109163E+02  0.40000056959E+02 0.  0.
         12    1    3    3    0    0 -0.33221955143E+02  0.14685223069E+02 -0.60352234372E+01  0.36820890837E+02  0.00000000000E+00 0. -1.
         11    1    4    4    0    0  0.10648181495E+02  0.68175139104E+01 -0.59157195119E+01  0.13959154798E+02  0.51100000000E-03 0. -1.
        -11    1    4    4    0    0  0.16172551405E+01  0.38479499988E+01 -0.20626595046E+01  0.46558348205E+01  0.51100000000E-03 0.  1.
        -12    1    4    4    0    0  0.20956518508E+02 -0.25350686978E+02  0.14013602454E+02  0.35752119545E+02  0.00000000000E+00 0.  1.
</event>
<event>
 8    1  0.2531964E-006  0.9118800E+02  0.7816164E-02  0.1184000E+00
        -11   -1    0    0    0    0  0.00000000000E+00  0.00000000000E+00  0.45593999997E+02  0.45594000000E+02  0.51100000000E-03 0. -1.
         11   -1    0    0    0    0 -0.00000000000E+00 -0.00000000000E+00 -0.45593999997E+02  0.45594000000E+02  0.51100000000E-03 0.  1.
         23    2    1    2    0    0  0.00000000000E+00  0.00000000000E+00  0.71054273576E-14  0.91188000000E+02  0.91188000000E+02 0.  0.
    9900012    2    3    3    0    0  0.15866504137E+02  0.16524924363E+02  0.28826386268E+02  0.54367087138E+02  0.40000006748E+02 0.  0.
        -12    1    3    3    0    0 -0.15866504137E+02 -0.16524924363E+02 -0.28826386268E+02  0.36820912862E+02  0.00000000000E+00 0.  1.
         11    1    4    4    0    0 -0.56896213265E+01  0.66281212110E+01  0.10300261213E+02  0.13505523423E+02  0.51100000000E-03 0. -1.
        -11    1    4    4    0    0  0.12987628906E+02  0.75257534990E+01 -0.49121200017E+01  0.15793808708E+02  0.51100000000E-03 0.  1.
        -12    1    4    4    0    0  0.85684965574E+01  0.23710496531E+01  0.23438245057E+02  0.25067755006E+02  0.00000000000E+00 0.  1.
</event>
<event>
 8    1  0.2531964E-006  0.9118800E+02  0.7816164E-02  0.1184000E+00
        -11   -1    0    0    0    0  0.00000000000E+00  0.00000000000E+00  0.45593999997E+02  0.45594000000E+02  0.51100000000E-03 0.  1.
         11   -1    0    0    0    0 -0.00000000000E+00 -0.00000000000E+00 -0.45593999997E+02  0.45594000000E+02  0.51100000000E-03 0. -1.
         23    2    1    2    0    0 -0.17763568394E-14 -0.17763568394E-14  0.00000000000E+00  0.91188000000E+02  0.91188000000E+02 0.  0.
    9900012    2    3    3    0    0 -0.11000331763E+02 -0.11831657216E+02  0.33087521524E+02  0.54367088931E+02  0.40000010836E+02 0.  0.
         12    1    3    3    0    0  0.11000331763E+02  0.11831657216E+02 -0.33087521524E+02  0.36820911069E+02  0.00000000000E+00 0. -1.
         11    1    4    4    0    0  0.14378802736E+01 -0.83209399321E-01  0.12280664073E+01  0.18927680384E+01  0.51100000000E-03 0. -1.
        -11    1    4    4    0    0  0.74000784953E+01 -0.61052436236E+01  0.30308735818E+02  0.31790794715E+02  0.51100000000E-03 0.  1.
         12    1    4    4    0    0 -0.19838290532E+02 -0.56432041933E+01  0.15507192980E+01  0.20683526178E+02  0.00000000000E+00 0. -1.
</event>
<event>
 8    1  0.2531964E-006  0.9118800E+02  0.7816164E-02  0.1184000E+00
        -11   -1    0    0    0    0  0.00000000000E+00  0.00000000000E+00  0.45593999997E+02  0.45594000000E+02  0.51100000000E-03 0. -1.
         11   -1    0    0    0    0 -0.00000000000E+00 -0.00000000000E+00 -0.45593999997E+02  0.45594000000E+02  0.51100000000E-03 0.  1.
         23    2    1    2    0    0  0.44408920985E-15 -0.71054273576E-14  0.00000000000E+00  0.91188000000E+02  0.91188000000E+02 0.  0.
    9900012    2    3    3    0    0 -0.53651180965E+00 -0.34790923715E+02 -0.12045142910E+02  0.54367059144E+02  0.39999942930E+02 0.  0.
        -12    1    3    3    0    0  0.53651180965E+00  0.34790923715E+02  0.12045142910E+02  0.36820940856E+02  0.00000000000E+00 0.  1.
         11    1    4    4    0    0 -0.13902547400E+01 -0.38097269542E+02 -0.48619960651E+01  0.38431416326E+02  0.51100000000E-03 0. -1.
        -11    1    4    4    0    0 -0.63673126848E+01  0.26432745874E+01 -0.26621253796E+01  0.73902965548E+01  0.51100000000E-03 0.  1.
         12    1    4    4    0    0  0.72210556152E+01  0.66307124024E+00 -0.45210214650E+01  0.85453462630E+01  0.00000000000E+00 0. -1.
</event>
<event>
 8    1  0.2531964E-006  0.9118800E+02  0.7816164E-02  0.1184000E+00
        -11   -1    0    0    0    0  0.00000000000E+00  0.00000000000E+00  0.45593999997E+02  0.45594000000E+02  0.51100000000E-03 0.  1.
         11   -1    0    0    0    0 -0.00000000000E+00 -0.00000000000E+00 -0.45593999997E+02  0.45594000000E+02  0.51100000000E-03 0. -1.
         23    2    1    2    0    0  0.00000000000E+00  0.22204460493E-15 -0.35527136788E-14  0.91188000000E+02  0.91188000000E+02 0.  0.
    9900012    2    3    3    0    0 -0.31869171737E+02  0.18014427962E+01 -0.18354603262E+02  0.54367071653E+02  0.39999971448E+02 0.  0.
        -12    1    3    3    0    0  0.31869171737E+02 -0.18014427962E+01  0.18354603262E+02  0.36820928347E+02  0.00000000000E+00 0.  1.
         11    1    4    4    0    0 -0.18104711195E+02 -0.39484059732E+01 -0.72667198089E+00  0.18544501331E+02  0.51100000000E-03 0. -1.
        -11    1    4    4    0    0  0.22276585869E+01  0.49531976056E+01  0.54759986469E+01  0.77125346510E+01  0.51100000000E-03 0.  1.
         12    1    4    4    0    0 -0.15992119130E+02  0.79665116381E+00 -0.23103929929E+02  0.28110035672E+02  0.00000000000E+00 0. -1.
</event>
<event>
 8    1  0.2531964E-006  0.9118800E+02  0.7816164E-02  0.1184000E+00
        -11   -1    0    0    0    0  0.00000000000E+00  0.00000000000E+00  0.45593999997E+02  0.45594000000E+02  0.51100000000E-03 0. -1.
         11   -1    0    0    0    0 -0.00000000000E+00 -0.00000000000E+00 -0.45593999997E+02  0.45594000000E+02  0.51100000000E-03 0.  1.
         23    2    1    2    0    0 -0.35527136788E-14  0.00000000000E+00 -0.35527136788E-14  0.91188000000E+02  0.91188000000E+02 0.  0.
    9900012    2    3    3    0    0  0.24290559308E+02 -0.19739123759E+02 -0.19393693978E+02  0.54367086861E+02  0.40000006116E+02 0.  0.
        -12    1    3    3    0    0 -0.24290559308E+02  0.19739123759E+02  0.19393693978E+02  0.36820913139E+02  0.00000000000E+00 0.  1.
         11    1    4    4    0    0  0.24260740346E+02 -0.17978033861E+02 -0.99832454565E+01  0.31803433993E+02  0.51100000000E-03 0. -1.
        -11    1    4    4    0    0 -0.57004629979E+01  0.29754708200E+01 -0.12852272742E+02  0.14371138434E+02  0.51100000000E-03 0.  1.
        -12    1    4    4    0    0  0.57302819599E+01 -0.47365607182E+01  0.34418242202E+01  0.81925144333E+01  0.00000000000E+00 0.  1.
</event>
<event>
 8    1  0.2531964E-006  0.9118800E+02  0.7816164E-02  0.1184000E+00
        -11   -1    0    0    0    0  0.00000000000E+00  0.00000000000E+00  0.45593999997E+02  0.45594000000E+02  0.51100000000E-03 0.  1.
         11   -1    0    0    0    0 -0.00000000000E+00 -0.00000000000E+00 -0.45593999997E+02  0.45594000000E+02  0.51100000000E-03 0. -1.
         23    2    1    2    0    0  0.00000000000E+00  0.40245584643E-15  0.00000000000E+00  0.91188000000E+02  0.91188000000E+02 0.  0.
    9900012    2    3    3    0    0 -0.59279632567E+01  0.64755759185E-01 -0.36340555447E+02  0.54367069649E+02  0.39999966879E+02 0.  0.
        -12    1    3    3    0    0  0.59279632567E+01 -0.64755759185E-01  0.36340555447E+02  0.36820930351E+02  0.00000000000E+00 0.  1.
         11    1    4    4    0    0 -0.12885120420E+02  0.14637240577E+01 -0.73965584083E+01  0.14929095515E+02  0.51100000000E-03 0. -1.
        -11    1    4    4    0    0  0.10002545255E+02  0.90368205914E+01 -0.75750638978E+01  0.15462749797E+02  0.51100000000E-03 0.  1.
         12    1    4    4    0    0 -0.30453880915E+01 -0.10435788890E+02 -0.21368933141E+02  0.23975224336E+02  0.00000000000E+00 0. -1.
</event>
<event>
 8    1  0.2531964E-006  0.9118800E+02  0.7816164E-02  0.1184000E+00
        -11   -1    0    0    0    0  0.00000000000E+00  0.00000000000E+00  0.45593999997E+02  0.45594000000E+02  0.51100000000E-03 0.  1.
         11   -1    0    0    0    0 -0.00000000000E+00 -0.00000000000E+00 -0.45593999997E+02  0.45594000000E+02  0.51100000000E-03 0. -1.
         23    2    1    2    0    0  0.00000000000E+00  0.00000000000E+00  0.35527136788E-14  0.91188000000E+02  0.91188000000E+02 0.  0.
    9900012    2    3    3    0    0  0.10867940204E+02  0.16210352126E+02 -0.31223365931E+02  0.54366997563E+02  0.39999802545E+02 0.  0.
        -12    1    3    3    0    0 -0.10867940204E+02 -0.16210352126E+02  0.31223365931E+02  0.36821002437E+02  0.00000000000E+00 0.  1.
         11    1    4    4    0    0  0.97737530456E+01  0.64061369887E+01 -0.88794454711E+01  0.14676831806E+02  0.51100000000E-03 0. -1.
        -11    1    4    4    0    0  0.11302120664E+02  0.12596909076E+02 -0.23591209860E+02  0.29033863551E+02  0.51100000000E-03 0.  1.
        -12    1    4    4    0    0 -0.10207933506E+02 -0.27926939380E+01  0.12472893994E+01  0.10656302207E+02  0.00000000000E+00 0.  1.
</event>
<event>
 8    1  0.2531964E-006  0.9118800E+02  0.7816164E-02  0.1184000E+00
        -11   -1    0    0    0    0  0.00000000000E+00  0.00000000000E+00  0.45593999997E+02  0.45594000000E+02  0.51100000000E-03 0.  1.
         11   -1    0    0    0    0 -0.00000000000E+00 -0.00000000000E+00 -0.45593999997E+02  0.45594000000E+02  0.51100000000E-03 0. -1.
         23    2    1    2    0    0 -0.71054273576E-14  0.24424906542E-14  0.00000000000E+00  0.91188000000E+02  0.91188000000E+02 0.  0.
    9900012    2    3    3    0    0 -0.35391587098E+02  0.45059792556E+00  0.10149514737E+02  0.54367080332E+02  0.39999991233E+02 0.  0.
        -12    1    3    3    0    0  0.35391587098E+02 -0.45059792556E+00 -0.10149514737E+02  0.36820919668E+02  0.00000000000E+00 0.  1.
         11    1    4    4    0    0 -0.32485930580E+01 -0.76708874745E+00 -0.70430703822E+01  0.77940119754E+01  0.51100000000E-03 0. -1.
        -11    1    4    4    0    0 -0.22953570515E+02 -0.75503918007E+01 -0.12318180932E+01  0.24194879454E+02  0.51100000000E-03 0.  1.
        -12    1    4    4    0    0 -0.91894235248E+01  0.87680784737E+01  0.18424403212E+02  0.22378188903E+02  0.00000000000E+00 0.  1.
</event>
<event>
 8    1  0.2531964E-006  0.9118800E+02  0.7816164E-02  0.1184000E+00
        -11   -1    0    0    0    0  0.00000000000E+00  0.00000000000E+00  0.45593999997E+02  0.45594000000E+02  0.51100000000E-03 0. -1.
         11   -1    0    0    0    0 -0.00000000000E+00 -0.00000000000E+00 -0.45593999997E+02  0.45594000000E+02  0.51100000000E-03 0.  1.
         23    2    1    2    0    0  0.00000000000E+00  0.35527136788E-14  0.00000000000E+00  0.91188000000E+02  0.91188000000E+02 0.  0.
    9900012    2    3    3    0    0  0.19258059924E+02 -0.22381674244E+02 -0.21999264283E+02  0.54367084164E+02  0.39999999969E+02 0.  0.
         12    1    3    3    0    0 -0.19258059924E+02  0.22381674244E+02  0.21999264283E+02  0.36820915836E+02  0.00000000000E+00 0. -1.
         11    1    4    4    0    0 -0.48295938722E+01  0.77112645806E+00 -0.30331302919E+01  0.57549537456E+01  0.51100000000E-03 0. -1.
        -11    1    4    4    0    0 -0.69017798203E+01 -0.49359818943E+01 -0.60242140016E+01  0.10406230660E+02  0.51100000000E-03 0.  1.
        -12    1    4    4    0    0  0.30989433617E+02 -0.18216818807E+02 -0.12941919990E+02  0.38205899759E+02  0.00000000000E+00 0.  1.
</event>
<event>
 8    1  0.2531964E-006  0.9118800E+02  0.7816164E-02  0.1184000E+00
        -11   -1    0    0    0    0  0.00000000000E+00  0.00000000000E+00  0.45593999997E+02  0.45594000000E+02  0.51100000000E-03 0. -1.
         11   -1    0    0    0    0 -0.00000000000E+00 -0.00000000000E+00 -0.45593999997E+02  0.45594000000E+02  0.51100000000E-03 0.  1.
         23    2    1    2    0    0 -0.11102230246E-15 -0.88817841970E-15  0.71054273576E-14  0.91188000000E+02  0.91188000000E+02 0.  0.
    9900012    2    3    3    0    0 -0.52150366082E+00  0.64632046020E+01 -0.36245470570E+02  0.54367094028E+02  0.40000022455E+02 0.  0.
         12    1    3    3    0    0  0.52150366082E+00 -0.64632046020E+01  0.36245470570E+02  0.36820905972E+02  0.00000000000E+00 0. -1.
         11    1    4    4    0    0 -0.41705952002E+01  0.81259952200E+01 -0.21532119347E+02  0.23389267335E+02  0.51100000000E-03 0. -1.
        -11    1    4    4    0    0  0.63225009745E+01 -0.12390963038E+01 -0.22147845674E+02  0.23065915253E+02  0.51100000000E-03 0.  1.
         12    1    4    4    0    0 -0.26734094351E+01 -0.42369431416E+00  0.74344944512E+01  0.79119114393E+01  0.00000000000E+00 0. -1.
</event>
<event>
 8    1  0.2531964E-006  0.9118800E+02  0.7816164E-02  0.1184000E+00
        -11   -1    0    0    0    0  0.00000000000E+00  0.00000000000E+00  0.45593999997E+02  0.45594000000E+02  0.51100000000E-03 0.  1.
         11   -1    0    0    0    0 -0.00000000000E+00 -0.00000000000E+00 -0.45593999997E+02  0.45594000000E+02  0.51100000000E-03 0. -1.
         23    2    1    2    0    0  0.00000000000E+00  0.88817841970E-15  0.00000000000E+00  0.91188000000E+02  0.91188000000E+02 0.  0.
    9900012    2    3    3    0    0 -0.84880834934E+01 -0.44863642409E+01  0.35547217695E+02  0.54367085952E+02  0.40000004044E+02 0.  0.
         12    1    3    3    0    0  0.84880834934E+01  0.44863642409E+01 -0.35547217695E+02  0.36820914048E+02  0.00000000000E+00 0. -1.
         11    1    4    4    0    0  0.63115916849E+01  0.43088582802E+01 -0.13416423881E+01  0.77590240259E+01  0.51100000000E-03 0. -1.
        -11    1    4    4    0    0 -0.18015097211E+02 -0.13640889505E+02  0.30646327005E+02  0.38076435668E+02  0.51100000000E-03 0.  1.
        -12    1    4    4    0    0  0.32154220330E+01  0.48456669838E+01  0.62425330783E+01  0.85316262577E+01  0.00000000000E+00 0.  1.
</event>
<event>
 8    1  0.2531964E-006  0.9118800E+02  0.7816164E-02  0.1184000E+00
        -11   -1    0    0    0    0  0.00000000000E+00  0.00000000000E+00  0.45593999997E+02  0.45594000000E+02  0.51100000000E-03 0. -1.
         11   -1    0    0    0    0 -0.00000000000E+00 -0.00000000000E+00 -0.45593999997E+02  0.45594000000E+02  0.51100000000E-03 0.  1.
         23    2    1    2    0    0 -0.35527136788E-14  0.00000000000E+00 -0.35527136788E-14  0.91188000000E+02  0.91188000000E+02 0.  0.
    9900012    2    3    3    0    0 -0.23821845544E+02  0.21340255226E+02 -0.18245178432E+02  0.54367172277E+02  0.40000200839E+02 0.  0.
         12    1    3    3    0    0  0.23821845544E+02 -0.21340255226E+02  0.18245178432E+02  0.36820827723E+02  0.00000000000E+00 0. -1.
         11    1    4    4    0    0 -0.79573777085E+01  0.33537831499E+01 -0.12999845895E+02  0.15606527960E+02  0.51100000000E-03 0. -1.
        -11    1    4    4    0    0 -0.22033963598E+02  0.38770977666E+01  0.35321562039E+00  0.22375258668E+02  0.51100000000E-03 0.  1.
         12    1    4    4    0    0  0.61694957629E+01  0.14109374310E+02 -0.55985481569E+01  0.16385385648E+02  0.00000000000E+00 0. -1.
</event>
<event>
 8    1  0.2531964E-006  0.9118800E+02  0.7816164E-02  0.1184000E+00
        -11   -1    0    0    0    0  0.00000000000E+00  0.00000000000E+00  0.45593999997E+02  0.45594000000E+02  0.51100000000E-03 0. -1.
         11   -1    0    0    0    0 -0.00000000000E+00 -0.00000000000E+00 -0.45593999997E+02  0.45594000000E+02  0.51100000000E-03 0.  1.
         23    2    1    2    0    0  0.00000000000E+00 -0.35527136788E-14  0.00000000000E+00  0.91188000000E+02  0.91188000000E+02 0.  0.
    9900012    2    3    3    0    0  0.13872619083E+02  0.23383203976E+02  0.24830666712E+02  0.54367003303E+02  0.39999815630E+02 0.  0.
        -12    1    3    3    0    0 -0.13872619083E+02 -0.23383203976E+02 -0.24830666712E+02  0.36820996697E+02  0.00000000000E+00 0.  1.
         11    1    4    4    0    0 -0.49128073630E+01  0.12848692782E+02  0.11014506153E+02  0.17622256622E+02  0.51100000000E-03 0. -1.
        -11    1    4    4    0    0  0.12004503387E+02  0.27866076207E+00  0.19733745581E+02  0.23099923556E+02  0.51100000000E-03 0.  1.
        -12    1    4    4    0    0  0.67809230594E+01  0.10255850431E+02 -0.59175850225E+01  0.13644823125E+02  0.00000000000E+00 0.  1.
</event>
<event>
 8    1  0.2531964E-006  0.9118800E+02  0.7816164E-02  0.1184000E+00
        -11   -1    0    0    0    0  0.00000000000E+00  0.00000000000E+00  0.45593999997E+02  0.45594000000E+02  0.51100000000E-03 0.  1.
         11   -1    0    0    0    0 -0.00000000000E+00 -0.00000000000E+00 -0.45593999997E+02  0.45594000000E+02  0.51100000000E-03 0. -1.
         23    2    1    2    0    0  0.35527136788E-14  0.00000000000E+00  0.35527136788E-14  0.91188000000E+02  0.91188000000E+02 0.  0.
    9900012    2    3    3    0    0 -0.26052275117E+02 -0.10318888224E+02 -0.23886811325E+02  0.54367078661E+02  0.39999987425E+02 0.  0.
        -12    1    3    3    0    0  0.26052275117E+02  0.10318888224E+02  0.23886811325E+02  0.36820921339E+02  0.00000000000E+00 0.  1.
         11    1    4    4    0    0 -0.27551992369E+01  0.83982944729E+01 -0.20184068884E+02  0.22034498176E+02  0.51100000000E-03 0. -1.
        -11    1    4    4    0    0 -0.16799616790E+02 -0.13389775489E+02 -0.79639675021E+01  0.22911525278E+02  0.51100000000E-03 0.  1.
        -12    1    4    4    0    0 -0.64974590908E+01 -0.53274072078E+01  0.42612250619E+01  0.94210552075E+01  0.00000000000E+00 0.  1.
</event>
<event>
 8    1  0.2531964E-006  0.9118800E+02  0.7816164E-02  0.1184000E+00
        -11   -1    0    0    0    0  0.00000000000E+00  0.00000000000E+00  0.45593999997E+02  0.45594000000E+02  0.51100000000E-03 0.  1.
         11   -1    0    0    0    0 -0.00000000000E+00 -0.00000000000E+00 -0.45593999997E+02  0.45594000000E+02  0.51100000000E-03 0. -1.
         23    2    1    2    0    0  0.35527136788E-14  0.35527136788E-14  0.35527136788E-14  0.91188000000E+02  0.91188000000E+02 0.  0.
    9900012    2    3    3    0    0 -0.19099468446E+02 -0.24092737172E+02 -0.20261573150E+02  0.54367068102E+02  0.39999963351E+02 0.  0.
        -12    1    3    3    0    0  0.19099468446E+02  0.24092737172E+02  0.20261573150E+02  0.36820931898E+02  0.00000000000E+00 0.  1.
         11    1    4    4    0    0 -0.18758699754E+02 -0.24330040617E+02 -0.23265532032E+02  0.38537315344E+02  0.51100000000E-03 0. -1.
        -11    1    4    4    0    0  0.61622845609E+01  0.35308779246E+01 -0.15029830801E+01  0.72594633636E+01  0.51100000000E-03 0.  1.
         12    1    4    4    0    0 -0.65030532522E+01 -0.32935744794E+01  0.45069419619E+01  0.85702893942E+01  0.00000000000E+00 0. -1.
</event>
<event>
 8    1  0.2531964E-006  0.9118800E+02  0.7816164E-02  0.1184000E+00
        -11   -1    0    0    0    0  0.00000000000E+00  0.00000000000E+00  0.45593999997E+02  0.45594000000E+02  0.51100000000E-03 0. -1.
         11   -1    0    0    0    0 -0.00000000000E+00 -0.00000000000E+00 -0.45593999997E+02  0.45594000000E+02  0.51100000000E-03 0.  1.
         23    2    1    2    0    0  0.00000000000E+00 -0.44408920985E-15 -0.88817841970E-15  0.91188000000E+02  0.91188000000E+02 0.  0.
    9900012    2    3    3    0    0  0.36283002591E+02  0.23359335497E+01 -0.58196062563E+01  0.54367072805E+02  0.39999974073E+02 0.  0.
        -12    1    3    3    0    0 -0.36283002591E+02 -0.23359335497E+01  0.58196062563E+01  0.36820927195E+02  0.00000000000E+00 0.  1.
         11    1    4    4    0    0  0.45170188820E+01 -0.31821292165E+01  0.95046657337E+00  0.56064955987E+01  0.51100000000E-03 0. -1.
        -11    1    4    4    0    0 -0.47237909524E+01  0.95019992888E+01 -0.56840946891E+01  0.12037903644E+02  0.51100000000E-03 0.  1.
        -12    1    4    4    0    0  0.36489774661E+02 -0.39839365226E+01 -0.10859781405E+01  0.36722673562E+02  0.00000000000E+00 0.  1.
</event>
<event>
 8    1  0.2531964E-006  0.9118800E+02  0.7816164E-02  0.1184000E+00
        -11   -1    0    0    0    0  0.00000000000E+00  0.00000000000E+00  0.45593999997E+02  0.45594000000E+02  0.51100000000E-03 0. -1.
         11   -1    0    0    0    0 -0.00000000000E+00 -0.00000000000E+00 -0.45593999997E+02  0.45594000000E+02  0.51100000000E-03 0.  1.
         23    2    1    2    0    0  0.00000000000E+00  0.00000000000E+00  0.00000000000E+00  0.91188000000E+02  0.91188000000E+02 0.  0.
    9900012    2    3    3    0    0 -0.53648352992E+01  0.21397349836E+02 -0.29481378323E+02  0.54367086030E+02  0.40000004222E+02 0.  0.
         12    1    3    3    0    0  0.53648352992E+01 -0.21397349836E+02  0.29481378323E+02  0.36820913970E+02  0.00000000000E+00 0. -1.
         11    1    4    4    0    0 -0.28507229739E+01 -0.34100752556E+01 -0.25864955141E+02  0.26244068653E+02  0.51100000000E-03 0. -1.
        -11    1    4    4    0    0  0.50663424835E+01  0.82940054591E+01 -0.13275858707E+01  0.98092220497E+01  0.51100000000E-03 0.  1.
         12    1    4    4    0    0 -0.75804548088E+01  0.16513419632E+02 -0.22888373110E+01  0.18313795327E+02  0.00000000000E+00 0. -1.
</event>
<event>
 8    1  0.2531964E-006  0.9118800E+02  0.7816164E-02  0.1184000E+00
        -11   -1    0    0    0    0  0.00000000000E+00  0.00000000000E+00  0.45593999997E+02  0.45594000000E+02  0.51100000000E-03 0.  1.
         11   -1    0    0    0    0 -0.00000000000E+00 -0.00000000000E+00 -0.45593999997E+02  0.45594000000E+02  0.51100000000E-03 0. -1.
         23    2    1    2    0    0  0.00000000000E+00  0.00000000000E+00  0.17763568394E-14  0.91188000000E+02  0.91188000000E+02 0.  0.
    9900012    2    3    3    0    0 -0.32559857274E+02  0.66423648146E+01 -0.15859259834E+02  0.54367062498E+02  0.39999950576E+02 0.  0.
         12    1    3    3    0    0  0.32559857274E+02 -0.66423648146E+01  0.15859259834E+02  0.36820937502E+02  0.00000000000E+00 0. -1.
         11    1    4    4    0    0 -0.17184757029E+01 -0.94692054207E+01 -0.22213995703E+01  0.98769239318E+01  0.51100000000E-03 0. -1.
        -11    1    4    4    0    0 -0.21462113440E+02  0.90683655640E+01  0.36656117408E+01  0.23585891482E+02  0.51100000000E-03 0.  1.
         12    1    4    4    0    0 -0.93792681314E+01  0.70432046713E+01 -0.17303472005E+02  0.20904247084E+02  0.00000000000E+00 0. -1.
</event>
<event>
 8    1  0.2531964E-006  0.9118800E+02  0.7816164E-02  0.1184000E+00
        -11   -1    0    0    0    0  0.00000000000E+00  0.00000000000E+00  0.45593999997E+02  0.45594000000E+02  0.51100000000E-03 0. -1.
         11   -1    0    0    0    0 -0.00000000000E+00 -0.00000000000E+00 -0.45593999997E+02  0.45594000000E+02  0.51100000000E-03 0.  1.
         23    2    1    2    0    0  0.00000000000E+00  0.00000000000E+00 -0.13322676296E-14  0.91188000000E+02  0.91188000000E+02 0.  0.
    9900012    2    3    3    0    0  0.20420807744E+02  0.30626461919E+02  0.88906392405E+00  0.54367082124E+02  0.39999995319E+02 0.  0.
         12    1    3    3    0    0 -0.20420807744E+02 -0.30626461919E+02 -0.88906392405E+00  0.36820917876E+02  0.00000000000E+00 0. -1.
         11    1    4    4    0    0 -0.41562047339E+01  0.38696765818E+01 -0.68822282215E+00  0.57203221546E+01  0.51100000000E-03 0. -1.
        -11    1    4    4    0    0  0.55321189280E+01  0.24331161363E+02 -0.92427128448E+01  0.26608973939E+02  0.51100000000E-03 0.  1.
        -12    1    4    4    0    0  0.19044893549E+02  0.24256239736E+01  0.10819999591E+02  0.22037786030E+02  0.00000000000E+00 0.  1.
</event>
<event>
 8    1  0.2531964E-006  0.9118800E+02  0.7816164E-02  0.1184000E+00
        -11   -1    0    0    0    0  0.00000000000E+00  0.00000000000E+00  0.45593999997E+02  0.45594000000E+02  0.51100000000E-03 0.  1.
         11   -1    0    0    0    0 -0.00000000000E+00 -0.00000000000E+00 -0.45593999997E+02  0.45594000000E+02  0.51100000000E-03 0. -1.
         23    2    1    2    0    0  0.17763568394E-14  0.71054273576E-14  0.00000000000E+00  0.91188000000E+02  0.91188000000E+02 0.  0.
    9900012    2    3    3    0    0 -0.14680600628E+02 -0.31637824956E+02  0.11803107026E+02  0.54367009544E+02  0.39999829856E+02 0.  0.
         12    1    3    3    0    0  0.14680600628E+02  0.31637824956E+02 -0.11803107026E+02  0.36820990456E+02  0.00000000000E+00 0. -1.
         11    1    4    4    0    0 -0.12119372550E+02 -0.24686449703E+02  0.12738977457E+02  0.30308110084E+02  0.51100000000E-03 0. -1.
        -11    1    4    4    0    0 -0.24993643372E+01 -0.50935122797E+01  0.10787774586E+02  0.12188796914E+02  0.51100000000E-03 0.  1.
         12    1    4    4    0    0 -0.61863739887E-01 -0.18578629726E+01 -0.11723645017E+02  0.11870102545E+02  0.00000000000E+00 0. -1.
</event>
<event>
 8    1  0.2531964E-006  0.9118800E+02  0.7816164E-02  0.1184000E+00
        -11   -1    0    0    0    0  0.00000000000E+00  0.00000000000E+00  0.45593999997E+02  0.45594000000E+02  0.51100000000E-03 0. -1.
         11   -1    0    0    0    0 -0.00000000000E+00 -0.00000000000E+00 -0.45593999997E+02  0.45594000000E+02  0.51100000000E-03 0.  1.
         23    2    1    2    0    0  0.17763568394E-14  0.35527136788E-14  0.00000000000E+00  0.91188000000E+02  0.91188000000E+02 0.  0.
    9900012    2    3    3    0    0 -0.15885976619E+02 -0.17044621431E+02  0.28511325375E+02  0.54367094966E+02  0.40000024594E+02 0.  0.
        -12    1    3    3    0    0  0.15885976619E+02  0.17044621431E+02 -0.28511325375E+02  0.36820905034E+02  0.00000000000E+00 0.  1.
         11    1    4    4    0    0 -0.11716247707E+02 -0.23292253747E+01  0.13569711395E+02  0.18078518158E+02  0.51100000000E-03 0. -1.
        -11    1    4    4    0    0 -0.11228277413E+02 -0.30683092099E+01 -0.45607836910E+01  0.12501579228E+02  0.51100000000E-03 0.  1.
        -12    1    4    4    0    0  0.70585485009E+01 -0.11647086846E+02  0.19502397671E+02  0.23786997580E+02  0.00000000000E+00 0.  1.
</event>
<event>
 8    1  0.2531964E-006  0.9118800E+02  0.7816164E-02  0.1184000E+00
        -11   -1    0    0    0    0  0.00000000000E+00  0.00000000000E+00  0.45593999997E+02  0.45594000000E+02  0.51100000000E-03 0.  1.
         11   -1    0    0    0    0 -0.00000000000E+00 -0.00000000000E+00 -0.45593999997E+02  0.45594000000E+02  0.51100000000E-03 0. -1.
         23    2    1    2    0    0  0.35527136788E-14 -0.17763568394E-14  0.00000000000E+00  0.91188000000E+02  0.91188000000E+02 0.  0.
    9900012    2    3    3    0    0 -0.19938069630E+02 -0.13017689933E+02 -0.28085461782E+02  0.54367081553E+02  0.39999994016E+02 0.  0.
        -12    1    3    3    0    0  0.19938069630E+02  0.13017689933E+02  0.28085461782E+02  0.36820918447E+02  0.00000000000E+00 0.  1.
         11    1    4    4    0    0 -0.93851437784E+01 -0.10484707216E+01 -0.51709165945E+01  0.10766549739E+02  0.51100000000E-03 0. -1.
        -11    1    4    4    0    0 -0.14290260835E+01  0.11461664002E+02 -0.43382468891E+01  0.12338243132E+02  0.51100000000E-03 0.  1.
        -12    1    4    4    0    0 -0.91238997685E+01 -0.23430883213E+02 -0.18576298299E+02  0.31262288682E+02  0.00000000000E+00 0.  1.
</event>
<event>
 8    1  0.2531964E-006  0.9118800E+02  0.7816164E-02  0.1184000E+00
        -11   -1    0    0    0    0  0.00000000000E+00  0.00000000000E+00  0.45593999997E+02  0.45594000000E+02  0.51100000000E-03 0. -1.
         11   -1    0    0    0    0 -0.00000000000E+00 -0.00000000000E+00 -0.45593999997E+02  0.45594000000E+02  0.51100000000E-03 0.  1.
         23    2    1    2    0    0  0.35527136788E-14  0.35527136788E-14  0.35527136788E-14  0.91188000000E+02  0.91188000000E+02 0.  0.
    9900012    2    3    3    0    0  0.18888122285E+02 -0.26984171250E+02  0.16458239174E+02  0.54367077983E+02  0.39999985877E+02 0.  0.
        -12    1    3    3    0    0 -0.18888122285E+02  0.26984171250E+02 -0.16458239174E+02  0.36820922017E+02  0.00000000000E+00 0.  1.
         11    1    4    4    0    0  0.85423866515E+01 -0.26237400721E+02  0.26865539767E+02  0.38511437178E+02  0.51100000000E-03 0. -1.
        -11    1    4    4    0    0  0.18207552814E+01 -0.25899639690E+01 -0.35819853909E+01  0.47805525578E+01  0.51100000000E-03 0.  1.
         12    1    4    4    0    0  0.85249803526E+01  0.18431934397E+01 -0.68253152023E+01  0.11075088247E+02  0.00000000000E+00 0. -1.
</event>
<event>
 8    1  0.2531964E-006  0.9118800E+02  0.7816164E-02  0.1184000E+00
        -11   -1    0    0    0    0  0.00000000000E+00  0.00000000000E+00  0.45593999997E+02  0.45594000000E+02  0.51100000000E-03 0. -1.
         11   -1    0    0    0    0 -0.00000000000E+00 -0.00000000000E+00 -0.45593999997E+02  0.45594000000E+02  0.51100000000E-03 0.  1.
         23    2    1    2    0    0 -0.35527136788E-14  0.00000000000E+00 -0.17763568394E-14  0.91188000000E+02  0.91188000000E+02 0.  0.
    9900012    2    3    3    0    0 -0.10590965803E+02 -0.33907728219E+02  0.96890971600E+01  0.54367065826E+02  0.39999958165E+02 0.  0.
         12    1    3    3    0    0  0.10590965803E+02  0.33907728219E+02 -0.96890971600E+01  0.36820934174E+02  0.00000000000E+00 0. -1.
         11    1    4    4    0    0  0.59578712114E+01 -0.37374736783E+01  0.46765394875E+01  0.84460026466E+01  0.51100000000E-03 0. -1.
        -11    1    4    4    0    0 -0.59213534476E+01 -0.17419606838E+02  0.17311319233E+02  0.25262361388E+02  0.51100000000E-03 0.  1.
         12    1    4    4    0    0 -0.10627483567E+02 -0.12750647703E+02 -0.12298761560E+02  0.20658701792E+02  0.00000000000E+00 0. -1.
</event>
<event>
 8    1  0.2531964E-006  0.9118800E+02  0.7816164E-02  0.1184000E+00
        -11   -1    0    0    0    0  0.00000000000E+00  0.00000000000E+00  0.45593999997E+02  0.45594000000E+02  0.51100000000E-03 0.  1.
         11   -1    0    0    0    0 -0.00000000000E+00 -0.00000000000E+00 -0.45593999997E+02  0.45594000000E+02  0.51100000000E-03 0. -1.
         23    2    1    2    0    0  0.17763568394E-14  0.00000000000E+00  0.00000000000E+00  0.91188000000E+02  0.91188000000E+02 0.  0.
    9900012    2    3    3    0    0 -0.10300739770E+02  0.34789701616E+02 -0.62730378098E+01  0.54367087713E+02  0.40000008059E+02 0.  0.
         12    1    3    3    0    0  0.10300739770E+02 -0.34789701616E+02  0.62730378098E+01  0.36820912287E+02  0.00000000000E+00 0. -1.
         11    1    4    4    0    0  0.66819924175E+00  0.69076401438E+01 -0.68470464075E+01  0.97490526386E+01  0.51100000000E-03 0. -1.
        -11    1    4    4    0    0 -0.16486890061E+02  0.33121668177E+02  0.18055228287E+00  0.36998581676E+02  0.51100000000E-03 0.  1.
        -12    1    4    4    0    0  0.55179510496E+01 -0.52396067048E+01  0.39345631482E+00  0.76194533976E+01  0.00000000000E+00 0.  1.
</event>
<event>
 8    1  0.2531964E-006  0.9118800E+02  0.7816164E-02  0.1184000E+00
        -11   -1    0    0    0    0  0.00000000000E+00  0.00000000000E+00  0.45593999997E+02  0.45594000000E+02  0.51100000000E-03 0. -1.
         11   -1    0    0    0    0 -0.00000000000E+00 -0.00000000000E+00 -0.45593999997E+02  0.45594000000E+02  0.51100000000E-03 0.  1.
         23    2    1    2    0    0  0.00000000000E+00  0.00000000000E+00  0.00000000000E+00  0.91188000000E+02  0.91188000000E+02 0.  0.
    9900012    2    3    3    0    0 -0.12075957168E+02 -0.27408193929E+02  0.21418278964E+02  0.54367075110E+02  0.39999979329E+02 0.  0.
        -12    1    3    3    0    0  0.12075957168E+02  0.27408193929E+02 -0.21418278964E+02  0.36820924890E+02  0.00000000000E+00 0.  1.
         11    1    4    4    0    0  0.36874195154E+01 -0.10298011813E+02  0.49480370342E+00  0.10949472177E+02  0.51100000000E-03 0. -1.
        -11    1    4    4    0    0 -0.98046166283E-01 -0.20102933372E+02  0.46540621105E+01  0.20634869459E+02  0.51100000000E-03 0.  1.
        -12    1    4    4    0    0 -0.15665330517E+02  0.29927512565E+01  0.16269413150E+02  0.22782733474E+02  0.00000000000E+00 0.  1.
</event>
<event>
 8    1  0.2531964E-006  0.9118800E+02  0.7816164E-02  0.1184000E+00
        -11   -1    0    0    0    0  0.00000000000E+00  0.00000000000E+00  0.45593999997E+02  0.45594000000E+02  0.51100000000E-03 0.  1.
         11   -1    0    0    0    0 -0.00000000000E+00 -0.00000000000E+00 -0.45593999997E+02  0.45594000000E+02  0.51100000000E-03 0. -1.
         23    2    1    2    0    0 -0.17763568394E-14 -0.44408920985E-15  0.00000000000E+00  0.91188000000E+02  0.91188000000E+02 0.  0.
    9900012    2    3    3    0    0 -0.11412026128E+02 -0.22370076393E+01 -0.34936247995E+02  0.54367082474E+02  0.39999996116E+02 0.  0.
        -12    1    3    3    0    0  0.11412026128E+02  0.22370076393E+01  0.34936247995E+02  0.36820917526E+02  0.00000000000E+00 0.  1.
         11    1    4    4    0    0 -0.61246712878E+01 -0.11445117120E+02 -0.41577231142E+01  0.13630442621E+02  0.51100000000E-03 0. -1.
        -11    1    4    4    0    0 -0.60453879828E+01 -0.28502831108E+01  0.98221334040E+00  0.67554106450E+01  0.51100000000E-03 0.  1.
         12    1    4    4    0    0  0.75803314300E+00  0.12058392592E+02 -0.31760738221E+02  0.33981229208E+02  0.00000000000E+00 0. -1.
</event>
<event>
 8    1  0.2531964E-006  0.9118800E+02  0.7816164E-02  0.1184000E+00
        -11   -1    0    0    0    0  0.00000000000E+00  0.00000000000E+00  0.45593999997E+02  0.45594000000E+02  0.51100000000E-03 0.  1.
         11   -1    0    0    0    0 -0.00000000000E+00 -0.00000000000E+00 -0.45593999997E+02  0.45594000000E+02  0.51100000000E-03 0. -1.
         23    2    1    2    0    0 -0.71054273576E-14 -0.88817841970E-15  0.13322676296E-14  0.91188000000E+02  0.91188000000E+02 0.  0.
    9900012    2    3    3    0    0 -0.36080904418E+02 -0.66808018398E+01 -0.30519773562E+01  0.54367090959E+02  0.40000015459E+02 0.  0.
         12    1    3    3    0    0  0.36080904418E+02  0.66808018398E+01  0.30519773562E+01  0.36820909041E+02  0.00000000000E+00 0. -1.
         11    1    4    4    0    0  0.21361646014E+01 -0.12168296605E+01 -0.35822245017E+01  0.43446756229E+01  0.51100000000E-03 0. -1.
        -11    1    4    4    0    0 -0.31257769708E+02  0.70400566315E+01 -0.84392361039E+01  0.33133536949E+02  0.51100000000E-03 0.  1.
         12    1    4    4    0    0 -0.69592993112E+01 -0.12504028811E+02  0.89694832494E+01  0.16888878387E+02  0.00000000000E+00 0. -1.
</event>
<event>
 8    1  0.2531964E-006  0.9118800E+02  0.7816164E-02  0.1184000E+00
        -11   -1    0    0    0    0  0.00000000000E+00  0.00000000000E+00  0.45593999997E+02  0.45594000000E+02  0.51100000000E-03 0.  1.
         11   -1    0    0    0    0 -0.00000000000E+00 -0.00000000000E+00 -0.45593999997E+02  0.45594000000E+02  0.51100000000E-03 0. -1.
         23    2    1    2    0    0  0.00000000000E+00  0.00000000000E+00 -0.35527136788E-14  0.91188000000E+02  0.91188000000E+02 0.  0.
    9900012    2    3    3    0    0  0.61796003446E+01 -0.19808741795E+02 -0.30417187837E+02  0.54367095234E+02  0.40000025205E+02 0.  0.
        -12    1    3    3    0    0 -0.61796003446E+01  0.19808741795E+02  0.30417187837E+02  0.36820904766E+02  0.00000000000E+00 0.  1.
         11    1    4    4    0    0  0.53836963456E+01 -0.78719561473E+01 -0.32967594512E+02  0.34319297314E+02  0.51100000000E-03 0. -1.
        -11    1    4    4    0    0 -0.57319257961E-01 -0.18107569643E+01  0.82158982616E+01  0.84132699224E+01  0.51100000000E-03 0.  1.
         12    1    4    4    0    0  0.85322325698E+00 -0.10126028683E+02 -0.56654915859E+01  0.11634527998E+02  0.00000000000E+00 0. -1.
</event>
<event>
 8    1  0.2531964E-006  0.9118800E+02  0.7816164E-02  0.1184000E+00
        -11   -1    0    0    0    0  0.00000000000E+00  0.00000000000E+00  0.45593999997E+02  0.45594000000E+02  0.51100000000E-03 0. -1.
         11   -1    0    0    0    0 -0.00000000000E+00 -0.00000000000E+00 -0.45593999997E+02  0.45594000000E+02  0.51100000000E-03 0.  1.
         23    2    1    2    0    0  0.00000000000E+00  0.00000000000E+00  0.00000000000E+00  0.91188000000E+02  0.91188000000E+02 0.  0.
    9900012    2    3    3    0    0  0.22812257582E+02 -0.22937827996E+02  0.17585135523E+02  0.54367081482E+02  0.39999993854E+02 0.  0.
        -12    1    3    3    0    0 -0.22812257582E+02  0.22937827996E+02 -0.17585135523E+02  0.36820918518E+02  0.00000000000E+00 0.  1.
         11    1    4    4    0    0  0.15748907602E+02 -0.15488911596E+02  0.19759271284E+02  0.29637194115E+02  0.51100000000E-03 0. -1.
        -11    1    4    4    0    0  0.11918457825E+02  0.36606880537E+01 -0.38057539085E+00  0.12473776968E+02  0.51100000000E-03 0.  1.
        -12    1    4    4    0    0 -0.48551078448E+01 -0.11109604454E+02 -0.17935603708E+01  0.12256110399E+02  0.00000000000E+00 0.  1.
</event>
<event>
 8    1  0.2531964E-006  0.9118800E+02  0.7816164E-02  0.1184000E+00
        -11   -1    0    0    0    0  0.00000000000E+00  0.00000000000E+00  0.45593999997E+02  0.45594000000E+02  0.51100000000E-03 0.  1.
         11   -1    0    0    0    0 -0.00000000000E+00 -0.00000000000E+00 -0.45593999997E+02  0.45594000000E+02  0.51100000000E-03 0. -1.
         23    2    1    2    0    0  0.00000000000E+00  0.00000000000E+00  0.00000000000E+00  0.91188000000E+02  0.91188000000E+02 0.  0.
    9900012    2    3    3    0    0  0.17245642876E+02  0.12679746233E+02 -0.29959836048E+02  0.54367082863E+02  0.39999997004E+02 0.  0.
        -12    1    3    3    0    0 -0.17245642876E+02 -0.12679746233E+02  0.29959836048E+02  0.36820917137E+02  0.00000000000E+00 0.  1.
         11    1    4    4    0    0  0.81889307274E+01  0.99517105110E+01 -0.74938486733E+01  0.14908148669E+02  0.51100000000E-03 0. -1.
        -11    1    4    4    0    0  0.15731945497E+02  0.12187581110E+02 -0.18636352292E+02  0.27264351624E+02  0.51100000000E-03 0.  1.
        -12    1    4    4    0    0 -0.66752333482E+01 -0.94595453877E+01 -0.38296350823E+01  0.12194582570E+02  0.00000000000E+00 0.  1.
</event>
<event>
 8    1  0.2531964E-006  0.9118800E+02  0.7816164E-02  0.1184000E+00
        -11   -1    0    0    0    0  0.00000000000E+00  0.00000000000E+00  0.45593999997E+02  0.45594000000E+02  0.51100000000E-03 0.  1.
         11   -1    0    0    0    0 -0.00000000000E+00 -0.00000000000E+00 -0.45593999997E+02  0.45594000000E+02  0.51100000000E-03 0. -1.
         23    2    1    2    0    0 -0.35527136788E-14  0.71054273576E-14 -0.71054273576E-14  0.91188000000E+02  0.91188000000E+02 0.  0.
    9900012    2    3    3    0    0  0.20200594708E+02 -0.13215835059E+02  0.27803868476E+02  0.54367116997E+02  0.40000074818E+02 0.  0.
         12    1    3    3    0    0 -0.20200594708E+02  0.13215835059E+02 -0.27803868476E+02  0.36820883003E+02  0.00000000000E+00 0. -1.
         11    1    4    4    0    0  0.52452675408E+00  0.10830688814E+02  0.83740372076E-01  0.10843706064E+02  0.51100000000E-03 0. -1.
        -11    1    4    4    0    0  0.22871554311E+01  0.88265491801E+00  0.99623443316E-01  0.24535861024E+01  0.51100000000E-03 0.  1.
        -12    1    4    4    0    0  0.17388912523E+02 -0.24929178791E+02  0.27620504661E+02  0.41069824831E+02  0.00000000000E+00 0.  1.
</event>
<event>
 8    1  0.2531964E-006  0.9118800E+02  0.7816164E-02  0.1184000E+00
        -11   -1    0    0    0    0  0.00000000000E+00  0.00000000000E+00  0.45593999997E+02  0.45594000000E+02  0.51100000000E-03 0.  1.
         11   -1    0    0    0    0 -0.00000000000E+00 -0.00000000000E+00 -0.45593999997E+02  0.45594000000E+02  0.51100000000E-03 0. -1.
         23    2    1    2    0    0  0.00000000000E+00  0.00000000000E+00  0.44408920985E-15  0.91188000000E+02  0.91188000000E+02 0.  0.
    9900012    2    3    3    0    0  0.26913360280E+02  0.24816520352E+02 -0.39481778840E+01  0.54367126130E+02  0.40000095638E+02 0.  0.
         12    1    3    3    0    0 -0.26913360280E+02 -0.24816520352E+02  0.39481778840E+01  0.36820873870E+02  0.00000000000E+00 0. -1.
         11    1    4    4    0    0  0.28274087555E+02  0.13697727509E+02 -0.84724974201E+01  0.32539744603E+02  0.51100000000E-03 0. -1.
        -11    1    4    4    0    0  0.31188588493E+01 -0.14144473522E+01  0.74504247543E+01  0.81998031144E+01  0.51100000000E-03 0.  1.
         12    1    4    4    0    0 -0.44795861251E+01  0.12533240196E+02 -0.29261052181E+01  0.13627578413E+02  0.00000000000E+00 0. -1.
</event>
<event>
 8    1  0.2531964E-006  0.9118800E+02  0.7816164E-02  0.1184000E+00
        -11   -1    0    0    0    0  0.00000000000E+00  0.00000000000E+00  0.45593999997E+02  0.45594000000E+02  0.51100000000E-03 0. -1.
         11   -1    0    0    0    0 -0.00000000000E+00 -0.00000000000E+00 -0.45593999997E+02  0.45594000000E+02  0.51100000000E-03 0.  1.
         23    2    1    2    0    0  0.00000000000E+00  0.00000000000E+00 -0.35527136788E-14  0.91188000000E+02  0.91188000000E+02 0.  0.
    9900012    2    3    3    0    0 -0.19441399783E+02 -0.20247279097E+01  0.31204406750E+02  0.54367047416E+02  0.39999916193E+02 0.  0.
        -12    1    3    3    0    0  0.19441399783E+02  0.20247279097E+01 -0.31204406750E+02  0.36820952584E+02  0.00000000000E+00 0.  1.
         11    1    4    4    0    0 -0.66405973424E+01  0.10632569384E+01  0.14449182113E+02  0.15937594310E+02  0.51100000000E-03 0. -1.
        -11    1    4    4    0    0 -0.50361084509E+00  0.11551571961E+02  0.15406741656E+02  0.19262921050E+02  0.51100000000E-03 0.  1.
         12    1    4    4    0    0 -0.12297191595E+02 -0.14639556809E+02  0.13484829801E+01  0.19166532056E+02  0.00000000000E+00 0. -1.
</event>
<event>
 8    1  0.2531964E-006  0.9118800E+02  0.7816164E-02  0.1184000E+00
        -11   -1    0    0    0    0  0.00000000000E+00  0.00000000000E+00  0.45593999997E+02  0.45594000000E+02  0.51100000000E-03 0.  1.
         11   -1    0    0    0    0 -0.00000000000E+00 -0.00000000000E+00 -0.45593999997E+02  0.45594000000E+02  0.51100000000E-03 0. -1.
         23    2    1    2    0    0 -0.71054273576E-14  0.00000000000E+00  0.00000000000E+00  0.91188000000E+02  0.91188000000E+02 0.  0.
    9900012    2    3    3    0    0  0.19583136280E+02  0.23820036875E+02  0.20121800777E+02  0.54367078640E+02  0.39999987376E+02 0.  0.
         12    1    3    3    0    0 -0.19583136280E+02 -0.23820036875E+02 -0.20121800777E+02  0.36820921360E+02  0.00000000000E+00 0. -1.
         11    1    4    4    0    0 -0.94825147394E+01  0.10506628763E+00  0.11418410906E+02  0.14842817542E+02  0.51100000000E-03 0. -1.
        -11    1    4    4    0    0  0.67952050435E+01  0.10195039721E+02  0.71037748505E+00  0.12272664051E+02  0.51100000000E-03 0.  1.
         12    1    4    4    0    0  0.22270445976E+02  0.13519930866E+02  0.79930123861E+01  0.27251597047E+02  0.00000000000E+00 0. -1.
</event>
<event>
 8    1  0.2531964E-006  0.9118800E+02  0.7816164E-02  0.1184000E+00
        -11   -1    0    0    0    0  0.00000000000E+00  0.00000000000E+00  0.45593999997E+02  0.45594000000E+02  0.51100000000E-03 0.  1.
         11   -1    0    0    0    0 -0.00000000000E+00 -0.00000000000E+00 -0.45593999997E+02  0.45594000000E+02  0.51100000000E-03 0. -1.
         23    2    1    2    0    0  0.88817841970E-15  0.00000000000E+00  0.00000000000E+00  0.91188000000E+02  0.91188000000E+02 0.  0.
    9900012    2    3    3    0    0  0.24058023506E+01 -0.16945734101E+02  0.32601107660E+02  0.54367109057E+02  0.40000056717E+02 0.  0.
         12    1    3    3    0    0 -0.24058023506E+01  0.16945734101E+02 -0.32601107660E+02  0.36820890943E+02  0.00000000000E+00 0. -1.
         11    1    4    4    0    0 -0.12499527962E+02 -0.69648372170E+01  0.90898384650E+01  0.16952059471E+02  0.51100000000E-03 0. -1.
        -11    1    4    4    0    0  0.12314190957E+02  0.47701319027E+01  0.63992475747E+01  0.14674598021E+02  0.51100000000E-03 0.  1.
        -12    1    4    4    0    0  0.25911393550E+01 -0.14751028787E+02  0.17112021621E+02  0.22740451565E+02  0.00000000000E+00 0.  1.
</event>
<event>
 8    1  0.2531964E-006  0.9118800E+02  0.7816164E-02  0.1184000E+00
        -11   -1    0    0    0    0  0.00000000000E+00  0.00000000000E+00  0.45593999997E+02  0.45594000000E+02  0.51100000000E-03 0. -1.
         11   -1    0    0    0    0 -0.00000000000E+00 -0.00000000000E+00 -0.45593999997E+02  0.45594000000E+02  0.51100000000E-03 0.  1.
         23    2    1    2    0    0  0.00000000000E+00  0.00000000000E+00 -0.35527136788E-14  0.91188000000E+02  0.91188000000E+02 0.  0.
    9900012    2    3    3    0    0 -0.25383938014E+02 -0.18639855305E+02 -0.19078548638E+02  0.54367088374E+02  0.40000009565E+02 0.  0.
        -12    1    3    3    0    0  0.25383938014E+02  0.18639855305E+02  0.19078548638E+02  0.36820911626E+02  0.00000000000E+00 0.  1.
         11    1    4    4    0    0 -0.54050992005E+01 -0.10061686567E+01  0.60438024536E+01  0.81703745993E+01  0.51100000000E-03 0. -1.
        -11    1    4    4    0    0 -0.78855942145E+01 -0.23886492726E+02 -0.16317817218E+02  0.29983633700E+02  0.51100000000E-03 0.  1.
        -12    1    4    4    0    0 -0.12093244599E+02  0.62528060771E+01 -0.88045338731E+01  0.16213080074E+02  0.00000000000E+00 0.  1.
</event>
<event>
 8    1  0.2531964E-006  0.9118800E+02  0.7816164E-02  0.1184000E+00
        -11   -1    0    0    0    0  0.00000000000E+00  0.00000000000E+00  0.45593999997E+02  0.45594000000E+02  0.51100000000E-03 0. -1.
         11   -1    0    0    0    0 -0.00000000000E+00 -0.00000000000E+00 -0.45593999997E+02  0.45594000000E+02  0.51100000000E-03 0.  1.
         23    2    1    2    0    0 -0.35527136788E-14  0.00000000000E+00  0.00000000000E+00  0.91188000000E+02  0.91188000000E+02 0.  0.
    9900012    2    3    3    0    0  0.21902354230E+02  0.26991133020E+02 -0.12146699446E+02  0.54367126980E+02  0.40000097575E+02 0.  0.
         12    1    3    3    0    0 -0.21902354230E+02 -0.26991133020E+02  0.12146699446E+02  0.36820873020E+02  0.00000000000E+00 0. -1.
         11    1    4    4    0    0  0.99035072341E+01 -0.28459667263E+01 -0.14860470262E+01  0.10410923022E+02  0.51100000000E-03 0. -1.
        -11    1    4    4    0    0 -0.47387765471E+01  0.22686279278E+02 -0.11214502290E+02  0.25746617885E+02  0.51100000000E-03 0.  1.
        -12    1    4    4    0    0  0.16737623543E+02  0.71508204684E+01  0.55384987027E+00  0.18209586072E+02  0.00000000000E+00 0.  1.
</event>
<event>
 8    1  0.2531964E-006  0.9118800E+02  0.7816164E-02  0.1184000E+00
        -11   -1    0    0    0    0  0.00000000000E+00  0.00000000000E+00  0.45593999997E+02  0.45594000000E+02  0.51100000000E-03 0.  1.
         11   -1    0    0    0    0 -0.00000000000E+00 -0.00000000000E+00 -0.45593999997E+02  0.45594000000E+02  0.51100000000E-03 0. -1.
         23    2    1    2    0    0 -0.88817841970E-15  0.00000000000E+00  0.00000000000E+00  0.91188000000E+02  0.91188000000E+02 0.  0.
    9900012    2    3    3    0    0 -0.44009478683E+01 -0.43293334381E+01  0.36299697343E+02  0.54367088858E+02  0.40000010670E+02 0.  0.
         12    1    3    3    0    0  0.44009478683E+01  0.43293334381E+01 -0.36299697343E+02  0.36820911142E+02  0.00000000000E+00 0. -1.
         11    1    4    4    0    0 -0.10064251083E+02 -0.65996179575E+01 -0.22042434827E+01  0.12235309421E+02  0.51100000000E-03 0. -1.
        -11    1    4    4    0    0  0.14794663643E+01  0.84651564919E+01  0.27635099978E+02  0.28940394714E+02  0.51100000000E-03 0.  1.
        -12    1    4    4    0    0  0.41838368499E+01 -0.61948719725E+01  0.10868840847E+02  0.13191384723E+02  0.00000000000E+00 0.  1.
</event>
<event>
 8    1  0.2531964E-006  0.9118800E+02  0.7816164E-02  0.1184000E+00
        -11   -1    0    0    0    0  0.00000000000E+00  0.00000000000E+00  0.45593999997E+02  0.45594000000E+02  0.51100000000E-03 0.  1.
         11   -1    0    0    0    0 -0.00000000000E+00 -0.00000000000E+00 -0.45593999997E+02  0.45594000000E+02  0.51100000000E-03 0. -1.
         23    2    1    2    0    0 -0.35527136788E-14  0.00000000000E+00  0.00000000000E+00  0.91188000000E+02  0.91188000000E+02 0.  0.
    9900012    2    3    3    0    0  0.31037082179E+02 -0.87808639325E+01  0.17758834033E+02  0.54367078939E+02  0.39999988057E+02 0.  0.
         12    1    3    3    0    0 -0.31037082179E+02  0.87808639325E+01 -0.17758834033E+02  0.36820921061E+02  0.00000000000E+00 0. -1.
         11    1    4    4    0    0 -0.52032353789E+01 -0.35804460618E+01  0.13269145591E+02  0.14695695880E+02  0.51100000000E-03 0. -1.
        -11    1    4    4    0    0  0.27901077217E+02 -0.86818299377E+01 -0.74091393266E+00  0.29230005724E+02  0.51100000000E-03 0.  1.
         12    1    4    4    0    0  0.83392403408E+01  0.34814120670E+01  0.52306023747E+01  0.10441377335E+02  0.00000000000E+00 0. -1.
</event>
<event>
 8    1  0.2531964E-006  0.9118800E+02  0.7816164E-02  0.1184000E+00
        -11   -1    0    0    0    0  0.00000000000E+00  0.00000000000E+00  0.45593999997E+02  0.45594000000E+02  0.51100000000E-03 0.  1.
         11   -1    0    0    0    0 -0.00000000000E+00 -0.00000000000E+00 -0.45593999997E+02  0.45594000000E+02  0.51100000000E-03 0. -1.
         23    2    1    2    0    0  0.00000000000E+00  0.00000000000E+00 -0.35527136788E-14  0.91188000000E+02  0.91188000000E+02 0.  0.
    9900012    2    3    3    0    0  0.28185274132E+02 -0.50745639314E+01  0.23143459297E+02  0.54367074085E+02  0.39999976992E+02 0.  0.
         12    1    3    3    0    0 -0.28185274132E+02  0.50745639314E+01 -0.23143459297E+02  0.36820925915E+02  0.00000000000E+00 0. -1.
         11    1    4    4    0    0 -0.56766655244E+01 -0.42624068223E+00 -0.48531432221E+01  0.74805890136E+01  0.51100000000E-03 0. -1.
        -11    1    4    4    0    0  0.20564374789E+02 -0.26795348019E+01  0.68713095736E+01  0.21846929138E+02  0.51100000000E-03 0.  1.
        -12    1    4    4    0    0  0.13297564867E+02 -0.19687884474E+01  0.21125292945E+02  0.25039555934E+02  0.00000000000E+00 0.  1.
</event>
<event>
 8    1  0.2531964E-006  0.9118800E+02  0.7816164E-02  0.1184000E+00
        -11   -1    0    0    0    0  0.00000000000E+00  0.00000000000E+00  0.45593999997E+02  0.45594000000E+02  0.51100000000E-03 0. -1.
         11   -1    0    0    0    0 -0.00000000000E+00 -0.00000000000E+00 -0.45593999997E+02  0.45594000000E+02  0.51100000000E-03 0.  1.
         23    2    1    2    0    0  0.00000000000E+00  0.00000000000E+00  0.00000000000E+00  0.91188000000E+02  0.91188000000E+02 0.  0.
    9900012    2    3    3    0    0  0.19841844465E+02  0.29175101881E+02  0.10530628213E+02  0.54367088929E+02  0.40000010832E+02 0.  0.
        -12    1    3    3    0    0 -0.19841844465E+02 -0.29175101881E+02 -0.10530628213E+02  0.36820911071E+02  0.00000000000E+00 0.  1.
         11    1    4    4    0    0  0.20809040860E+02  0.17229513362E+02 -0.87667244153E+01  0.28402953534E+02  0.51100000000E-03 0. -1.
        -11    1    4    4    0    0 -0.43230382332E+01  0.20179923737E+01  0.99428366864E+00  0.48733513172E+01  0.51100000000E-03 0.  1.
         12    1    4    4    0    0  0.33558418379E+01  0.99275961451E+01  0.18303068960E+02  0.21090784078E+02  0.00000000000E+00 0. -1.
</event>
<event>
 8    1  0.2531964E-006  0.9118800E+02  0.7816164E-02  0.1184000E+00
        -11   -1    0    0    0    0  0.00000000000E+00  0.00000000000E+00  0.45593999997E+02  0.45594000000E+02  0.51100000000E-03 0. -1.
         11   -1    0    0    0    0 -0.00000000000E+00 -0.00000000000E+00 -0.45593999997E+02  0.45594000000E+02  0.51100000000E-03 0.  1.
         23    2    1    2    0    0  0.00000000000E+00  0.00000000000E+00  0.00000000000E+00  0.91188000000E+02  0.91188000000E+02 0.  0.
    9900012    2    3    3    0    0 -0.23590599221E+02 -0.18072553168E+02  0.21740448570E+02  0.54367073156E+02  0.39999974874E+02 0.  0.
         12    1    3    3    0    0  0.23590599221E+02  0.18072553168E+02 -0.21740448570E+02  0.36820926844E+02  0.00000000000E+00 0. -1.
         11    1    4    4    0    0 -0.14176510892E+01 -0.15720640119E+01  0.15629504073E+02  0.15772207128E+02  0.51100000000E-03 0. -1.
        -11    1    4    4    0    0 -0.15404557198E+02 -0.16939328757E+02  0.15030809509E+02  0.27389167128E+02  0.51100000000E-03 0.  1.
        -12    1    4    4    0    0 -0.67683909335E+01  0.43883960148E+00 -0.89198650111E+01  0.11205698900E+02  0.00000000000E+00 0.  1.
</event>
<event>
 8    1  0.2531964E-006  0.9118800E+02  0.7816164E-02  0.1184000E+00
        -11   -1    0    0    0    0  0.00000000000E+00  0.00000000000E+00  0.45593999997E+02  0.45594000000E+02  0.51100000000E-03 0.  1.
         11   -1    0    0    0    0 -0.00000000000E+00 -0.00000000000E+00 -0.45593999997E+02  0.45594000000E+02  0.51100000000E-03 0. -1.
         23    2    1    2    0    0  0.00000000000E+00  0.00000000000E+00  0.00000000000E+00  0.91188000000E+02  0.91188000000E+02 0.  0.
    9900012    2    3    3    0    0 -0.16579287593E+02  0.32811013142E+02  0.20848280260E+01  0.54367056660E+02  0.39999937269E+02 0.  0.
         12    1    3    3    0    0  0.16579287593E+02 -0.32811013142E+02 -0.20848280260E+01  0.36820943340E+02  0.00000000000E+00 0. -1.
         11    1    4    4    0    0 -0.10278436406E+02  0.83973547195E+01 -0.72385252966E+00  0.13292320489E+02  0.51100000000E-03 0. -1.
        -11    1    4    4    0    0 -0.87941053442E+00  0.21985518510E+00  0.13888382658E+02  0.13917933478E+02  0.51100000000E-03 0.  1.
        -12    1    4    4    0    0 -0.54214406526E+01  0.24193803238E+02 -0.11079702102E+02  0.27156802693E+02  0.00000000000E+00 0.  1.
</event>
<event>
 8    1  0.2531964E-006  0.9118800E+02  0.7816164E-02  0.1184000E+00
        -11   -1    0    0    0    0  0.00000000000E+00  0.00000000000E+00  0.45593999997E+02  0.45594000000E+02  0.51100000000E-03 0. -1.
         11   -1    0    0    0    0 -0.00000000000E+00 -0.00000000000E+00 -0.45593999997E+02  0.45594000000E+02  0.51100000000E-03 0.  1.
         23    2    1    2    0    0 -0.17763568394E-14  0.00000000000E+00 -0.35527136788E-14  0.91188000000E+02  0.91188000000E+02 0.  0.
    9900012    2    3    3    0    0 -0.11366975971E+02 -0.14528200232E+02 -0.31867205311E+02  0.54366871296E+02  0.39999514691E+02 0.  0.
         12    1    3    3    0    0  0.11366975971E+02  0.14528200232E+02  0.31867205311E+02  0.36821128704E+02  0.00000000000E+00 0. -1.
         11    1    4    4    0    0 -0.95617401246E+01 -0.84753134485E+01 -0.17509698414E+00  0.12778437756E+02  0.51100000000E-03 0. -1.
        -11    1    4    4    0    0 -0.95253256585E+01 -0.76175766191E+01 -0.40587362634E+01  0.12854284996E+02  0.51100000000E-03 0.  1.
        -12    1    4    4    0    0  0.77200898123E+01  0.15646898353E+01 -0.27633372063E+02  0.28734148544E+02  0.00000000000E+00 0.  1.
</event>
<event>
 8    1  0.2531964E-006  0.9118800E+02  0.7816164E-02  0.1184000E+00
        -11   -1    0    0    0    0  0.00000000000E+00  0.00000000000E+00  0.45593999997E+02  0.45594000000E+02  0.51100000000E-03 0.  1.
         11   -1    0    0    0    0 -0.00000000000E+00 -0.00000000000E+00 -0.45593999997E+02  0.45594000000E+02  0.51100000000E-03 0. -1.
         23    2    1    2    0    0 -0.17763568394E-14  0.71054273576E-14  0.35527136788E-14  0.91188000000E+02  0.91188000000E+02 0.  0.
    9900012    2    3    3    0    0 -0.72939963525E+01 -0.24160206195E+02 -0.26811589888E+02  0.54367091558E+02  0.40000016825E+02 0.  0.
        -12    1    3    3    0    0  0.72939963525E+01  0.24160206195E+02  0.26811589888E+02  0.36820908442E+02  0.00000000000E+00 0.  1.
         11    1    4    4    0    0  0.21501150389E+01  0.18826381522E+01 -0.24031639506E+02  0.24200971442E+02  0.51100000000E-03 0. -1.
        -11    1    4    4    0    0  0.96041970548E+00 -0.39284854365E+01 -0.40103496131E+01  0.56954638192E+01  0.51100000000E-03 0.  1.
        -12    1    4    4    0    0 -0.10404531097E+02 -0.22114358910E+02  0.12303992317E+01  0.24470656297E+02  0.00000000000E+00 0.  1.
</event>
<event>
 8    1  0.2531964E-006  0.9118800E+02  0.7816164E-02  0.1184000E+00
        -11   -1    0    0    0    0  0.00000000000E+00  0.00000000000E+00  0.45593999997E+02  0.45594000000E+02  0.51100000000E-03 0.  1.
         11   -1    0    0    0    0 -0.00000000000E+00 -0.00000000000E+00 -0.45593999997E+02  0.45594000000E+02  0.51100000000E-03 0. -1.
         23    2    1    2    0    0  0.00000000000E+00  0.00000000000E+00 -0.71054273576E-14  0.91188000000E+02  0.91188000000E+02 0.  0.
    9900012    2    3    3    0    0 -0.83431328365E+01  0.69986191497E+01 -0.35173772495E+02  0.54367043914E+02  0.39999908212E+02 0.  0.
        -12    1    3    3    0    0  0.83431328365E+01 -0.69986191497E+01  0.35173772495E+02  0.36820956086E+02  0.00000000000E+00 0.  1.
         11    1    4    4    0    0 -0.19900139360E+02  0.25469005386E+01 -0.19221550389E+02  0.27784352584E+02  0.51100000000E-03 0. -1.
        -11    1    4    4    0    0  0.67620434354E+01 -0.64206743027E+01 -0.60562356887E+01  0.11118825518E+02  0.51100000000E-03 0.  1.
         12    1    4    4    0    0  0.47949630881E+01  0.10872392914E+02 -0.98959864169E+01  0.15463865812E+02  0.00000000000E+00 0. -1.
</event>
<event>
 8    1  0.2531964E-006  0.9118800E+02  0.7816164E-02  0.1184000E+00
        -11   -1    0    0    0    0  0.00000000000E+00  0.00000000000E+00  0.45593999997E+02  0.45594000000E+02  0.51100000000E-03 0.  1.
         11   -1    0    0    0    0 -0.00000000000E+00 -0.00000000000E+00 -0.45593999997E+02  0.45594000000E+02  0.51100000000E-03 0. -1.
         23    2    1    2    0    0  0.17763568394E-14  0.35527136788E-14 -0.71054273576E-14  0.91188000000E+02  0.91188000000E+02 0.  0.
    9900012    2    3    3    0    0 -0.11113644540E+02  0.23832776213E+02  0.25773338074E+02  0.54367091912E+02  0.40000017631E+02 0.  0.
         12    1    3    3    0    0  0.11113644540E+02 -0.23832776213E+02 -0.25773338074E+02  0.36820908088E+02  0.00000000000E+00 0. -1.
         11    1    4    4    0    0  0.56646071853E+01  0.15501593198E+01  0.60104298780E+01  0.84033348179E+01  0.51100000000E-03 0. -1.
        -11    1    4    4    0    0  0.95922431727E+00  0.19315945155E+02  0.13143122310E+00  0.19340194491E+02  0.51100000000E-03 0.  1.
        -12    1    4    4    0    0 -0.17737476042E+02  0.29666717384E+01  0.19631476973E+02  0.26623562603E+02  0.00000000000E+00 0.  1.
</event>
<event>
 8    1  0.2531964E-006  0.9118800E+02  0.7816164E-02  0.1184000E+00
        -11   -1    0    0    0    0  0.00000000000E+00  0.00000000000E+00  0.45593999997E+02  0.45594000000E+02  0.51100000000E-03 0. -1.
         11   -1    0    0    0    0 -0.00000000000E+00 -0.00000000000E+00 -0.45593999997E+02  0.45594000000E+02  0.51100000000E-03 0.  1.
         23    2    1    2    0    0  0.35527136788E-14  0.00000000000E+00  0.00000000000E+00  0.91188000000E+02  0.91188000000E+02 0.  0.
    9900012    2    3    3    0    0 -0.25503854585E+02  0.16686363536E+02  0.20661597494E+02  0.54367042139E+02  0.39999904165E+02 0.  0.
        -12    1    3    3    0    0  0.25503854585E+02 -0.16686363536E+02 -0.20661597494E+02  0.36820957861E+02  0.00000000000E+00 0.  1.
         11    1    4    4    0    0 -0.12979882482E+02  0.15688074558E+00 -0.55708395238E+01  0.14125728798E+02  0.51100000000E-03 0. -1.
        -11    1    4    4    0    0 -0.32355843460E+01 -0.55660480997E+01  0.70012831632E+01  0.95114595989E+01  0.51100000000E-03 0.  1.
         12    1    4    4    0    0 -0.92883877573E+01  0.22095530890E+02  0.19231153855E+02  0.30729853742E+02  0.00000000000E+00 0. -1.
</event>
<event>
 8    1  0.2531964E-006  0.9118800E+02  0.7816164E-02  0.1184000E+00
        -11   -1    0    0    0    0  0.00000000000E+00  0.00000000000E+00  0.45593999997E+02  0.45594000000E+02  0.51100000000E-03 0.  1.
         11   -1    0    0    0    0 -0.00000000000E+00 -0.00000000000E+00 -0.45593999997E+02  0.45594000000E+02  0.51100000000E-03 0. -1.
         23    2    1    2    0    0  0.35527136788E-14  0.00000000000E+00  0.00000000000E+00  0.91188000000E+02  0.91188000000E+02 0.  0.
    9900012    2    3    3    0    0  0.28781403590E+02 -0.22174948842E+02 -0.59733687174E+01  0.54367099922E+02  0.40000035892E+02 0.  0.
         12    1    3    3    0    0 -0.28781403590E+02  0.22174948842E+02  0.59733687174E+01  0.36820900078E+02  0.00000000000E+00 0. -1.
         11    1    4    4    0    0  0.23264939655E+01  0.72518961265E+01  0.21231551054E+01  0.79063493133E+01  0.51100000000E-03 0. -1.
        -11    1    4    4    0    0  0.15179779575E+02 -0.11067100376E+01 -0.36985916101E+01  0.15663016798E+02  0.51100000000E-03 0.  1.
        -12    1    4    4    0    0  0.11275130049E+02 -0.28320134931E+02 -0.43979322127E+01  0.30797733810E+02  0.00000000000E+00 0.  1.
</event>
<event>
 8    1  0.2531964E-006  0.9118800E+02  0.7816164E-02  0.1184000E+00
        -11   -1    0    0    0    0  0.00000000000E+00  0.00000000000E+00  0.45593999997E+02  0.45594000000E+02  0.51100000000E-03 0.  1.
         11   -1    0    0    0    0 -0.00000000000E+00 -0.00000000000E+00 -0.45593999997E+02  0.45594000000E+02  0.51100000000E-03 0. -1.
         23    2    1    2    0    0  0.35527136788E-14  0.88817841970E-15 -0.35527136788E-14  0.91188000000E+02  0.91188000000E+02 0.  0.
    9900012    2    3    3    0    0  0.21530154982E+02 -0.54724631988E+01 -0.29364666166E+02  0.54367094986E+02  0.40000024640E+02 0.  0.
         12    1    3    3    0    0 -0.21530154982E+02  0.54724631988E+01  0.29364666166E+02  0.36820905014E+02  0.00000000000E+00 0. -1.
         11    1    4    4    0    0 -0.13142282991E+01  0.42874147835E+01 -0.14637672637E+02  0.15309166602E+02  0.51100000000E-03 0. -1.
        -11    1    4    4    0    0 -0.46784241292E+01 -0.12415612424E+01 -0.81920857567E+01  0.95152191755E+01  0.51100000000E-03 0.  1.
        -12    1    4    4    0    0  0.27522807410E+02 -0.85183167399E+01 -0.65349077723E+01  0.29542709209E+02  0.00000000000E+00 0.  1.
</event>
<event>
 8    1  0.2531964E-006  0.9118800E+02  0.7816164E-02  0.1184000E+00
        -11   -1    0    0    0    0  0.00000000000E+00  0.00000000000E+00  0.45593999997E+02  0.45594000000E+02  0.51100000000E-03 0.  1.
         11   -1    0    0    0    0 -0.00000000000E+00 -0.00000000000E+00 -0.45593999997E+02  0.45594000000E+02  0.51100000000E-03 0. -1.
         23    2    1    2    0    0  0.35527136788E-14  0.00000000000E+00 -0.88817841970E-15  0.91188000000E+02  0.91188000000E+02 0.  0.
    9900012    2    3    3    0    0 -0.27516287704E+02  0.23404205615E+02  0.71323537177E+01  0.54367171669E+02  0.40000199452E+02 0.  0.
         12    1    3    3    0    0  0.27516287704E+02 -0.23404205615E+02 -0.71323537177E+01  0.36820828331E+02  0.00000000000E+00 0. -1.
         11    1    4    4    0    0  0.38143678632E+01 -0.13634170490E+01 -0.12329543018E+01  0.42342041539E+01  0.51100000000E-03 0. -1.
        -11    1    4    4    0    0 -0.28855366386E+01  0.19717043524E+02  0.73039073903E+01  0.21223458494E+02  0.51100000000E-03 0.  1.
         12    1    4    4    0    0 -0.28445118928E+02  0.50505791393E+01  0.10614006292E+01  0.28909509020E+02  0.00000000000E+00 0. -1.
</event>
<event>
 8    1  0.2531964E-006  0.9118800E+02  0.7816164E-02  0.1184000E+00
        -11   -1    0    0    0    0  0.00000000000E+00  0.00000000000E+00  0.45593999997E+02  0.45594000000E+02  0.51100000000E-03 0.  1.
         11   -1    0    0    0    0 -0.00000000000E+00 -0.00000000000E+00 -0.45593999997E+02  0.45594000000E+02  0.51100000000E-03 0. -1.
         23    2    1    2    0    0  0.00000000000E+00  0.00000000000E+00 -0.17763568394E-14  0.91188000000E+02  0.91188000000E+02 0.  0.
    9900012    2    3    3    0    0  0.28113229914E+02  0.22989796818E+02  0.60741200595E+01  0.54367090337E+02  0.40000014042E+02 0.  0.
         12    1    3    3    0    0 -0.28113229914E+02 -0.22989796818E+02 -0.60741200595E+01  0.36820909663E+02  0.00000000000E+00 0. -1.
         11    1    4    4    0    0  0.27620178888E+01  0.62939601566E+01 -0.59551512511E+01  0.90943116263E+01  0.51100000000E-03 0. -1.
        -11    1    4    4    0    0  0.17088644535E+00  0.34557939097E+01 -0.91652817263E+01  0.97966373367E+01  0.51100000000E-03 0.  1.
        -12    1    4    4    0    0  0.25180325580E+02  0.13240042751E+02  0.21194553037E+02  0.35476141374E+02  0.00000000000E+00 0.  1.
</event>
<event>
 8    1  0.2531964E-006  0.9118800E+02  0.7816164E-02  0.1184000E+00
        -11   -1    0    0    0    0  0.00000000000E+00  0.00000000000E+00  0.45593999997E+02  0.45594000000E+02  0.51100000000E-03 0. -1.
         11   -1    0    0    0    0 -0.00000000000E+00 -0.00000000000E+00 -0.45593999997E+02  0.45594000000E+02  0.51100000000E-03 0.  1.
         23    2    1    2    0    0  0.71054273576E-14  0.00000000000E+00  0.17763568394E-14  0.91188000000E+02  0.91188000000E+02 0.  0.
    9900012    2    3    3    0    0 -0.34391227463E+02  0.68525706159E+01 -0.11227876465E+02  0.54367089359E+02  0.40000011812E+02 0.  0.
         12    1    3    3    0    0  0.34391227463E+02 -0.68525706159E+01  0.11227876465E+02  0.36820910641E+02  0.00000000000E+00 0. -1.
         11    1    4    4    0    0 -0.11826041892E+02 -0.69747180878E+00  0.12445597114E+02  0.17182392777E+02  0.51100000000E-03 0. -1.
        -11    1    4    4    0    0 -0.22630373627E+02  0.50113044375E+01 -0.13769011349E+02  0.26959834133E+02  0.51100000000E-03 0.  1.
        -12    1    4    4    0    0  0.65188055879E-01  0.25387379871E+01 -0.99044622299E+01  0.10224862450E+02  0.00000000000E+00 0.  1.
</event>
<event>
 8    1  0.2531964E-006  0.9118800E+02  0.7816164E-02  0.1184000E+00
        -11   -1    0    0    0    0  0.00000000000E+00  0.00000000000E+00  0.45593999997E+02  0.45594000000E+02  0.51100000000E-03 0.  1.
         11   -1    0    0    0    0 -0.00000000000E+00 -0.00000000000E+00 -0.45593999997E+02  0.45594000000E+02  0.51100000000E-03 0. -1.
         23    2    1    2    0    0  0.00000000000E+00  0.35527136788E-14  0.00000000000E+00  0.91188000000E+02  0.91188000000E+02 0.  0.
    9900012    2    3    3    0    0  0.13484323372E+02 -0.27512464252E+02  0.20420990081E+02  0.54367088796E+02  0.40000010529E+02 0.  0.
         12    1    3    3    0    0 -0.13484323372E+02  0.27512464252E+02 -0.20420990081E+02  0.36820911204E+02  0.00000000000E+00 0. -1.
         11    1    4    4    0    0 -0.54667936543E+01  0.82817276725E+00  0.17725274079E+01  0.58063376292E+01  0.51100000000E-03 0. -1.
        -11    1    4    4    0    0 -0.17079110850E+00 -0.79149711847E+01 -0.70272796386E+01  0.10585773370E+02  0.51100000000E-03 0.  1.
         12    1    4    4    0    0  0.19121908134E+02 -0.20425665834E+02  0.25675742311E+02  0.37974977797E+02  0.00000000000E+00 0. -1.
</event>
<event>
 8    1  0.2531964E-006  0.9118800E+02  0.7816164E-02  0.1184000E+00
        -11   -1    0    0    0    0  0.00000000000E+00  0.00000000000E+00  0.45593999997E+02  0.45594000000E+02  0.51100000000E-03 0.  1.
         11   -1    0    0    0    0 -0.00000000000E+00 -0.00000000000E+00 -0.45593999997E+02  0.45594000000E+02  0.51100000000E-03 0. -1.
         23    2    1    2    0    0  0.00000000000E+00  0.00000000000E+00  0.00000000000E+00  0.91188000000E+02  0.91188000000E+02 0.  0.
    9900012    2    3    3    0    0 -0.29298393344E+02 -0.18275051090E+02 -0.12783013029E+02  0.54367098776E+02  0.40000033279E+02 0.  0.
         12    1    3    3    0    0  0.29298393344E+02  0.18275051090E+02  0.12783013029E+02  0.36820901224E+02  0.00000000000E+00 0. -1.
         11    1    4    4    0    0  0.31171256935E-01 -0.89550902885E+01 -0.13306758801E+02  0.16039465196E+02  0.51100000000E-03 0. -1.
        -11    1    4    4    0    0 -0.20454192580E+02 -0.36696992257E+01 -0.10334037663E+02  0.23208468738E+02  0.51100000000E-03 0.  1.
        -12    1    4    4    0    0 -0.88753720211E+01 -0.56502615757E+01  0.10857783435E+02  0.15119164841E+02  0.00000000000E+00 0.  1.
</event>
<event>
 8    1  0.2531964E-006  0.9118800E+02  0.7816164E-02  0.1184000E+00
        -11   -1    0    0    0    0  0.00000000000E+00  0.00000000000E+00  0.45593999997E+02  0.45594000000E+02  0.51100000000E-03 0.  1.
         11   -1    0    0    0    0 -0.00000000000E+00 -0.00000000000E+00 -0.45593999997E+02  0.45594000000E+02  0.51100000000E-03 0. -1.
         23    2    1    2    0    0  0.00000000000E+00  0.00000000000E+00  0.00000000000E+00  0.91188000000E+02  0.91188000000E+02 0.  0.
    9900012    2    3    3    0    0 -0.19035538444E+02  0.44748488904E+01  0.31199413389E+02  0.54367090285E+02  0.40000013922E+02 0.  0.
         12    1    3    3    0    0  0.19035538444E+02 -0.44748488904E+01 -0.31199413389E+02  0.36820909715E+02  0.00000000000E+00 0. -1.
         11    1    4    4    0    0 -0.14848719782E+02  0.43531143469E+01  0.96936382422E+01  0.18259263576E+02  0.51100000000E-03 0. -1.
        -11    1    4    4    0    0 -0.90639127664E+01  0.70650551916E+01  0.24539174521E+02  0.27096874468E+02  0.51100000000E-03 0.  1.
         12    1    4    4    0    0  0.48770941045E+01 -0.69433206482E+01 -0.30333993745E+01  0.90109522412E+01  0.00000000000E+00 0. -1.
</event>
<event>
 8    1  0.2531964E-006  0.9118800E+02  0.7816164E-02  0.1184000E+00
        -11   -1    0    0    0    0  0.00000000000E+00  0.00000000000E+00  0.45593999997E+02  0.45594000000E+02  0.51100000000E-03 0. -1.
         11   -1    0    0    0    0 -0.00000000000E+00 -0.00000000000E+00 -0.45593999997E+02  0.45594000000E+02  0.51100000000E-03 0.  1.
         23    2    1    2    0    0  0.00000000000E+00  0.17763568394E-14  0.17763568394E-14  0.91188000000E+02  0.91188000000E+02 0.  0.
    9900012    2    3    3    0    0  0.33227148371E+02 -0.12037243374E+02 -0.10336348104E+02  0.54367099563E+02  0.40000035073E+02 0.  0.
         12    1    3    3    0    0 -0.33227148371E+02  0.12037243374E+02  0.10336348104E+02  0.36820900437E+02  0.00000000000E+00 0. -1.
         11    1    4    4    0    0  0.32961877141E+02 -0.10632879853E+01  0.58612807114E+01  0.33495828663E+02  0.51100000000E-03 0. -1.
        -11    1    4    4    0    0  0.34561624032E+01 -0.41116379564E+01 -0.48835576206E+01  0.72594600720E+01  0.51100000000E-03 0.  1.
         12    1    4    4    0    0 -0.31908911733E+01 -0.68623174323E+01 -0.11314071195E+02  0.13611810828E+02  0.00000000000E+00 0. -1.
</event>
<event>
 8    1  0.2531964E-006  0.9118800E+02  0.7816164E-02  0.1184000E+00
        -11   -1    0    0    0    0  0.00000000000E+00  0.00000000000E+00  0.45593999997E+02  0.45594000000E+02  0.51100000000E-03 0. -1.
         11   -1    0    0    0    0 -0.00000000000E+00 -0.00000000000E+00 -0.45593999997E+02  0.45594000000E+02  0.51100000000E-03 0.  1.
         23    2    1    2    0    0  0.00000000000E+00  0.53290705182E-14 -0.14210854715E-13  0.91188000000E+02  0.91188000000E+02 0.  0.
    9900012    2    3    3    0    0 -0.12192224610E+02 -0.14305254918E+02  0.31662102232E+02  0.54367090493E+02  0.40000014396E+02 0.  0.
        -12    1    3    3    0    0  0.12192224610E+02  0.14305254918E+02 -0.31662102232E+02  0.36820909507E+02  0.00000000000E+00 0.  1.
         11    1    4    4    0    0 -0.12942078981E+02 -0.13200247415E+02  0.35146456392E+02  0.39711677594E+02  0.51100000000E-03 0. -1.
        -11    1    4    4    0    0 -0.66573294433E+01 -0.13579686635E+01 -0.11976491711E+01  0.68991650223E+01  0.51100000000E-03 0.  1.
        -12    1    4    4    0    0  0.74071838146E+01  0.25296116139E+00 -0.22867049885E+01  0.77562478762E+01  0.00000000000E+00 0.  1.
</event>
<event>
 8    1  0.2531964E-006  0.9118800E+02  0.7816164E-02  0.1184000E+00
        -11   -1    0    0    0    0  0.00000000000E+00  0.00000000000E+00  0.45593999997E+02  0.45594000000E+02  0.51100000000E-03 0. -1.
         11   -1    0    0    0    0 -0.00000000000E+00 -0.00000000000E+00 -0.45593999997E+02  0.45594000000E+02  0.51100000000E-03 0.  1.
         23    2    1    2    0    0  0.35527136788E-14 -0.17763568394E-14  0.00000000000E+00  0.91188000000E+02  0.91188000000E+02 0.  0.
    9900012    2    3    3    0    0 -0.19003486186E+02  0.12250718386E+02 -0.29061455140E+02  0.54367071670E+02  0.39999971486E+02 0.  0.
         12    1    3    3    0    0  0.19003486186E+02 -0.12250718386E+02  0.29061455140E+02  0.36820928330E+02  0.00000000000E+00 0. -1.
         11    1    4    4    0    0  0.24566133913E+01 -0.52696690994E+01 -0.69375500645E+01  0.90517381165E+01  0.51100000000E-03 0.  1.
        -11    1    4    4    0    0  0.17845293701E+01  0.83102582538E+01  0.37896763234E+01  0.93062658577E+01  0.51100000000E-03 0. -1.
        -12    1    4    4    0    0 -0.23244628948E+02  0.92101292314E+01 -0.25913581399E+02  0.36009067696E+02  0.00000000000E+00 0.  1.
</event>
<event>
 8    1  0.2531964E-006  0.9118800E+02  0.7816164E-02  0.1184000E+00
        -11   -1    0    0    0    0  0.00000000000E+00  0.00000000000E+00  0.45593999997E+02  0.45594000000E+02  0.51100000000E-03 0.  1.
         11   -1    0    0    0    0 -0.00000000000E+00 -0.00000000000E+00 -0.45593999997E+02  0.45594000000E+02  0.51100000000E-03 0. -1.
         23    2    1    2    0    0  0.44408920985E-15  0.00000000000E+00  0.71054273576E-14  0.91188000000E+02  0.91188000000E+02 0.  0.
    9900012    2    3    3    0    0 -0.14381237797E+01 -0.89907469736E+01  0.35677402897E+02  0.54367098210E+02  0.40000031990E+02 0.  0.
         12    1    3    3    0    0  0.14381237797E+01  0.89907469736E+01 -0.35677402897E+02  0.36820901790E+02  0.00000000000E+00 0. -1.
         11    1    4    4    0    0  0.87512802923E+01 -0.12768943813E+01  0.11406154995E+01  0.89171951865E+01  0.51100000000E-03 0. -1.
        -11    1    4    4    0    0 -0.15421423010E+02 -0.91361493340E+01  0.10424335297E+02  0.20735387118E+02  0.51100000000E-03 0.  1.
        -12    1    4    4    0    0  0.52320189377E+01  0.14222967417E+01  0.24112452100E+02  0.24714515906E+02  0.00000000000E+00 0.  1.
</event>
<event>
 8    1  0.2531964E-006  0.9118800E+02  0.7816164E-02  0.1184000E+00
        -11   -1    0    0    0    0  0.00000000000E+00  0.00000000000E+00  0.45593999997E+02  0.45594000000E+02  0.51100000000E-03 0. -1.
         11   -1    0    0    0    0 -0.00000000000E+00 -0.00000000000E+00 -0.45593999997E+02  0.45594000000E+02  0.51100000000E-03 0.  1.
         23    2    1    2    0    0 -0.17763568394E-14  0.00000000000E+00  0.00000000000E+00  0.91188000000E+02  0.91188000000E+02 0.  0.
    9900012    2    3    3    0    0  0.12378635953E+02 -0.69351027217E+01  0.33977217193E+02  0.54367115084E+02  0.40000070457E+02 0.  0.
        -12    1    3    3    0    0 -0.12378635953E+02  0.69351027217E+01 -0.33977217193E+02  0.36820884916E+02  0.00000000000E+00 0.  1.
         11    1    4    4    0    0 -0.67852245020E+01  0.10766216284E+02  0.18282553720E+02  0.22275602246E+02  0.51100000000E-03 0.  1.
        -11    1    4    4    0    0  0.14117662170E+02 -0.86264300305E+01  0.52350396451E+01  0.17353078130E+02  0.51100000000E-03 0. -1.
        -12    1    4    4    0    0  0.50461982843E+01 -0.90748889756E+01  0.10459623828E+02  0.14738434709E+02  0.00000000000E+00 0.  1.
</event>
<event>
 8    1  0.2531964E-006  0.9118800E+02  0.7816164E-02  0.1184000E+00
        -11   -1    0    0    0    0  0.00000000000E+00  0.00000000000E+00  0.45593999997E+02  0.45594000000E+02  0.51100000000E-03 0. -1.
         11   -1    0    0    0    0 -0.00000000000E+00 -0.00000000000E+00 -0.45593999997E+02  0.45594000000E+02  0.51100000000E-03 0.  1.
         23    2    1    2    0    0  0.00000000000E+00 -0.35527136788E-14  0.00000000000E+00  0.91188000000E+02  0.91188000000E+02 0.  0.
    9900012    2    3    3    0    0  0.26947088067E+02 -0.17766856613E+02  0.17719306127E+02  0.54367074444E+02  0.39999977810E+02 0.  0.
        -12    1    3    3    0    0 -0.26947088067E+02  0.17766856613E+02 -0.17719306127E+02  0.36820925556E+02  0.00000000000E+00 0.  1.
         11    1    4    4    0    0  0.26179752828E+02 -0.17174242381E+02  0.22231285064E+02  0.38400053325E+02  0.51100000000E-03 0. -1.
        -11    1    4    4    0    0 -0.66337939775E+01 -0.32962635650E+01 -0.16944256588E+01  0.75989245687E+01  0.51100000000E-03 0.  1.
         12    1    4    4    0    0  0.74011292161E+01  0.27036493327E+01 -0.28175532790E+01  0.83680965498E+01  0.00000000000E+00 0. -1.
</event>
<event>
 8    1  0.2531964E-006  0.9118800E+02  0.7816164E-02  0.1184000E+00
        -11   -1    0    0    0    0  0.00000000000E+00  0.00000000000E+00  0.45593999997E+02  0.45594000000E+02  0.51100000000E-03 0.  1.
         11   -1    0    0    0    0 -0.00000000000E+00 -0.00000000000E+00 -0.45593999997E+02  0.45594000000E+02  0.51100000000E-03 0. -1.
         23    2    1    2    0    0 -0.44408920985E-15  0.00000000000E+00  0.00000000000E+00  0.91188000000E+02  0.91188000000E+02 0.  0.
    9900012    2    3    3    0    0 -0.14280359114E+01 -0.14297973228E+02  0.33901441630E+02  0.54367094667E+02  0.40000023912E+02 0.  0.
         12    1    3    3    0    0  0.14280359114E+01  0.14297973228E+02 -0.33901441630E+02  0.36820905333E+02  0.00000000000E+00 0. -1.
         11    1    4    4    0    0  0.10786587364E+01 -0.20375094639E+02  0.24002100484E+01  0.20544317822E+02  0.51100000000E-03 0. -1.
        -11    1    4    4    0    0  0.34281443473E+01  0.46731811392E+01  0.10997072659E+02  0.12430864932E+02  0.51100000000E-03 0.  1.
         12    1    4    4    0    0 -0.59348389951E+01  0.14039402722E+01  0.20504158922E+02  0.21391911913E+02  0.00000000000E+00 0. -1.
</event>
<event>
 8    1  0.2531964E-006  0.9118800E+02  0.7816164E-02  0.1184000E+00
        -11   -1    0    0    0    0  0.00000000000E+00  0.00000000000E+00  0.45593999997E+02  0.45594000000E+02  0.51100000000E-03 0. -1.
         11   -1    0    0    0    0 -0.00000000000E+00 -0.00000000000E+00 -0.45593999997E+02  0.45594000000E+02  0.51100000000E-03 0.  1.
         23    2    1    2    0    0  0.00000000000E+00  0.00000000000E+00  0.00000000000E+00  0.91188000000E+02  0.91188000000E+02 0.  0.
    9900012    2    3    3    0    0  0.20077055871E+02  0.21854905854E+02  0.21795750282E+02  0.54367084576E+02  0.40000000907E+02 0.  0.
        -12    1    3    3    0    0 -0.20077055871E+02 -0.21854905854E+02 -0.21795750282E+02  0.36820915424E+02  0.00000000000E+00 0.  1.
         11    1    4    4    0    0  0.10099681573E+02  0.27507443234E+02  0.15001626007E+02  0.32919778011E+02  0.51100000000E-03 0. -1.
        -11    1    4    4    0    0 -0.32244439271E+01  0.32775499669E+00  0.61357937867E+01  0.69391950276E+01  0.51100000000E-03 0.  1.
         12    1    4    4    0    0  0.13201818225E+02 -0.59802923767E+01  0.65833048840E+00  0.14508111537E+02  0.00000000000E+00 0. -1.
</event>
<event>
 8    1  0.2531964E-006  0.9118800E+02  0.7816164E-02  0.1184000E+00
        -11   -1    0    0    0    0  0.00000000000E+00  0.00000000000E+00  0.45593999997E+02  0.45594000000E+02  0.51100000000E-03 0.  1.
         11   -1    0    0    0    0 -0.00000000000E+00 -0.00000000000E+00 -0.45593999997E+02  0.45594000000E+02  0.51100000000E-03 0. -1.
         23    2    1    2    0    0  0.00000000000E+00  0.35527136788E-14 -0.88817841970E-15  0.91188000000E+02  0.91188000000E+02 0.  0.
    9900012    2    3    3    0    0 -0.21501691254E+02 -0.29090403221E+02  0.68706408427E+01  0.54367082142E+02  0.39999995359E+02 0.  0.
         12    1    3    3    0    0  0.21501691254E+02  0.29090403221E+02 -0.68706408427E+01  0.36820917858E+02  0.00000000000E+00 0. -1.
         11    1    4    4    0    0 -0.11373271242E+02 -0.84734249029E+01 -0.63703823383E+01  0.15547732945E+02  0.51100000000E-03 0. -1.
        -11    1    4    4    0    0 -0.14568564429E+02 -0.14604131430E+02 -0.30906595066E+01  0.20858473117E+02  0.51100000000E-03 0.  1.
         12    1    4    4    0    0  0.44401444175E+01 -0.60128468883E+01  0.16331682688E+02  0.17960876080E+02  0.00000000000E+00 0. -1.
</event>
<event>
 8    1  0.2531964E-006  0.9118800E+02  0.7816164E-02  0.1184000E+00
        -11   -1    0    0    0    0  0.00000000000E+00  0.00000000000E+00  0.45593999997E+02  0.45594000000E+02  0.51100000000E-03 0. -1.
         11   -1    0    0    0    0 -0.00000000000E+00 -0.00000000000E+00 -0.45593999997E+02  0.45594000000E+02  0.51100000000E-03 0.  1.
         23    2    1    2    0    0 -0.35527136788E-14  0.00000000000E+00  0.00000000000E+00  0.91188000000E+02  0.91188000000E+02 0.  0.
    9900012    2    3    3    0    0  0.29456357191E+02  0.13536151510E+02 -0.17460408417E+02  0.54367214582E+02  0.40000297282E+02 0.  0.
         12    1    3    3    0    0 -0.29456357191E+02 -0.13536151510E+02  0.17460408417E+02  0.36820785418E+02  0.00000000000E+00 0. -1.
         11    1    4    4    0    0  0.27717236615E+02  0.24522001053E+02 -0.20340740661E+02  0.42229367413E+02  0.51100000000E-03 0. -1.
        -11    1    4    4    0    0 -0.54233620853E-01 -0.91801039159E+00 -0.85012897818E+00  0.12523593356E+01  0.51100000000E-03 0.  1.
         12    1    4    4    0    0  0.17933541965E+01 -0.10067839151E+02  0.37304612223E+01  0.10885487833E+02  0.00000000000E+00 0. -1.
</event>
<event>
 8    1  0.2531964E-006  0.9118800E+02  0.7816164E-02  0.1184000E+00
        -11   -1    0    0    0    0  0.00000000000E+00  0.00000000000E+00  0.45593999997E+02  0.45594000000E+02  0.51100000000E-03 0.  1.
         11   -1    0    0    0    0 -0.00000000000E+00 -0.00000000000E+00 -0.45593999997E+02  0.45594000000E+02  0.51100000000E-03 0. -1.
         23    2    1    2    0    0  0.35527136788E-14  0.80491169285E-15  0.71054273576E-14  0.91188000000E+02  0.91188000000E+02 0.  0.
    9900012    2    3    3    0    0  0.75127124358E+01  0.20412545755E+00  0.36045745942E+02  0.54367104901E+02  0.40000047243E+02 0.  0.
         12    1    3    3    0    0 -0.75127124358E+01 -0.20412545755E+00 -0.36045745942E+02  0.36820895099E+02  0.00000000000E+00 0. -1.
         11    1    4    4    0    0 -0.18983030101E+01  0.43087475741E+01  0.19682508699E+02  0.20237836073E+02  0.51100000000E-03 0. -1.
        -11    1    4    4    0    0 -0.77768958388E+01  0.53107777946E+01  0.15072330909E+01  0.95370971224E+01  0.51100000000E-03 0.  1.
        -12    1    4    4    0    0  0.17187911285E+02 -0.94153999112E+01  0.14856004153E+02  0.24592171706E+02  0.00000000000E+00 0.  1.
</event>
<event>
 8    1  0.2531964E-006  0.9118800E+02  0.7816164E-02  0.1184000E+00
        -11   -1    0    0    0    0  0.00000000000E+00  0.00000000000E+00  0.45593999997E+02  0.45594000000E+02  0.51100000000E-03 0. -1.
         11   -1    0    0    0    0 -0.00000000000E+00 -0.00000000000E+00 -0.45593999997E+02  0.45594000000E+02  0.51100000000E-03 0.  1.
         23    2    1    2    0    0  0.17763568394E-14  0.00000000000E+00  0.00000000000E+00  0.91188000000E+02  0.91188000000E+02 0.  0.
    9900012    2    3    3    0    0  0.55113286355E+01  0.82138819541E+01  0.35467394379E+02  0.54367100172E+02  0.40000036462E+02 0.  0.
        -12    1    3    3    0    0 -0.55113286355E+01 -0.82138819541E+01 -0.35467394379E+02  0.36820899828E+02  0.00000000000E+00 0.  1.
         11    1    4    4    0    0 -0.25429544649E+00  0.11393285186E+02  0.92435758273E+01  0.14673626267E+02  0.51100000000E-03 0. -1.
        -11    1    4    4    0    0  0.12903195963E+02 -0.12401444937E+02  0.18287947338E+02  0.25587835405E+02  0.51100000000E-03 0.  1.
        -12    1    4    4    0    0 -0.71375718809E+01  0.92220417051E+01  0.79358712138E+01  0.14105638500E+02  0.00000000000E+00 0.  1.
</event>
<event>
 8    1  0.2531964E-006  0.9118800E+02  0.7816164E-02  0.1184000E+00
        -11   -1    0    0    0    0  0.00000000000E+00  0.00000000000E+00  0.45593999997E+02  0.45594000000E+02  0.51100000000E-03 0.  1.
         11   -1    0    0    0    0 -0.00000000000E+00 -0.00000000000E+00 -0.45593999997E+02  0.45594000000E+02  0.51100000000E-03 0. -1.
         23    2    1    2    0    0  0.00000000000E+00  0.00000000000E+00  0.00000000000E+00  0.91188000000E+02  0.91188000000E+02 0.  0.
    9900012    2    3    3    0    0  0.10421421746E+02 -0.11888228582E+02 -0.33254217530E+02  0.54367095699E+02  0.40000026266E+02 0.  0.
        -12    1    3    3    0    0 -0.10421421746E+02  0.11888228582E+02  0.33254217530E+02  0.36820904301E+02  0.00000000000E+00 0.  1.
         11    1    4    4    0    0  0.66710560234E+01 -0.54384659546E+01 -0.29231820527E+02  0.30472598051E+02  0.51100000000E-03 0. -1.
        -11    1    4    4    0    0 -0.62861045978E+00 -0.96891058452E+01  0.67486846899E+01  0.11824494429E+02  0.51100000000E-03 0.  1.
        -12    1    4    4    0    0  0.43789761822E+01  0.32393432179E+01 -0.10771081692E+02  0.12070003219E+02  0.00000000000E+00 0.  1.
</event>
<event>
 8    1  0.2531964E-006  0.9118800E+02  0.7816164E-02  0.1184000E+00
        -11   -1    0    0    0    0  0.00000000000E+00  0.00000000000E+00  0.45593999997E+02  0.45594000000E+02  0.51100000000E-03 0.  1.
         11   -1    0    0    0    0 -0.00000000000E+00 -0.00000000000E+00 -0.45593999997E+02  0.45594000000E+02  0.51100000000E-03 0. -1.
         23    2    1    2    0    0  0.17763568394E-14 -0.35527136788E-14  0.00000000000E+00  0.91188000000E+02  0.91188000000E+02 0.  0.
    9900012    2    3    3    0    0  0.15850293158E+02 -0.83720302668E+01  0.32162991738E+02  0.54367072235E+02  0.39999972773E+02 0.  0.
         12    1    3    3    0    0 -0.15850293158E+02  0.83720302668E+01 -0.32162991738E+02  0.36820927765E+02  0.00000000000E+00 0. -1.
         11    1    4    4    0    0  0.83427775924E+01  0.83444232336E+01 -0.28529730126E+01  0.12139637240E+02  0.51100000000E-03 0. -1.
        -11    1    4    4    0    0  0.76367698170E+01 -0.96789220262E+00  0.13843402764E+02  0.15839724395E+02  0.51100000000E-03 0.  1.
         12    1    4    4    0    0 -0.12925425172E+00 -0.15748561298E+02  0.21172561987E+02  0.26387710600E+02  0.00000000000E+00 0. -1.
</event>
<event>
 8    1  0.2531964E-006  0.9118800E+02  0.7816164E-02  0.1184000E+00
        -11   -1    0    0    0    0  0.00000000000E+00  0.00000000000E+00  0.45593999997E+02  0.45594000000E+02  0.51100000000E-03 0.  1.
         11   -1    0    0    0    0 -0.00000000000E+00 -0.00000000000E+00 -0.45593999997E+02  0.45594000000E+02  0.51100000000E-03 0. -1.
         23    2    1    2    0    0  0.00000000000E+00  0.17763568394E-14  0.00000000000E+00  0.91188000000E+02  0.91188000000E+02 0.  0.
    9900012    2    3    3    0    0  0.16332091599E+02 -0.15504089243E+02 -0.29131868570E+02  0.54367085214E+02  0.40000002363E+02 0.  0.
        -12    1    3    3    0    0 -0.16332091599E+02  0.15504089243E+02  0.29131868570E+02  0.36820914786E+02  0.00000000000E+00 0.  1.
         11    1    4    4    0    0  0.46650018095E+01  0.10191520043E+02 -0.20367369720E+02  0.23247775640E+02  0.51100000000E-03 0. -1.
        -11    1    4    4    0    0  0.70164576223E+00 -0.64738490351E+01 -0.59331124517E+01  0.88093615961E+01  0.51100000000E-03 0.  1.
         12    1    4    4    0    0  0.10965444028E+02 -0.19221760250E+02 -0.28313863986E+01  0.22309947978E+02  0.00000000000E+00 0. -1.
</event>
<event>
 8    1  0.2531964E-006  0.9118800E+02  0.7816164E-02  0.1184000E+00
        -11   -1    0    0    0    0  0.00000000000E+00  0.00000000000E+00  0.45593999997E+02  0.45594000000E+02  0.51100000000E-03 0.  1.
         11   -1    0    0    0    0 -0.00000000000E+00 -0.00000000000E+00 -0.45593999997E+02  0.45594000000E+02  0.51100000000E-03 0. -1.
         23    2    1    2    0    0  0.35527136788E-14  0.00000000000E+00 -0.11102230246E-14  0.91188000000E+02  0.91188000000E+02 0.  0.
    9900012    2    3    3    0    0 -0.22516999655E+02 -0.29082480926E+02  0.17256691447E+01  0.54367029015E+02  0.39999874245E+02 0.  0.
        -12    1    3    3    0    0  0.22516999655E+02  0.29082480926E+02 -0.17256691447E+01  0.36820970985E+02  0.00000000000E+00 0.  1.
         11    1    4    4    0    0 -0.12375351468E+02 -0.30339098885E+02  0.10820207488E+02  0.34506334715E+02  0.51100000000E-03 0. -1.
        -11    1    4    4    0    0 -0.11905651029E+02  0.11495557382E+01 -0.11687247329E+02  0.16722970885E+02  0.51100000000E-03 0.  1.
        -12    1    4    4    0    0  0.17640028424E+01  0.10706222039E+00  0.25927089858E+01  0.31377234155E+01  0.00000000000E+00 0.  1.
</event>
<event>
 8    1  0.2531964E-006  0.9118800E+02  0.7816164E-02  0.1184000E+00
        -11   -1    0    0    0    0  0.00000000000E+00  0.00000000000E+00  0.45593999997E+02  0.45594000000E+02  0.51100000000E-03 0. -1.
         11   -1    0    0    0    0 -0.00000000000E+00 -0.00000000000E+00 -0.45593999997E+02  0.45594000000E+02  0.51100000000E-03 0.  1.
         23    2    1    2    0    0  0.00000000000E+00  0.00000000000E+00  0.00000000000E+00  0.91188000000E+02  0.91188000000E+02 0.  0.
    9900012    2    3    3    0    0  0.15401853166E+02  0.29354512310E+02 -0.16027798668E+02  0.54366881005E+02  0.39999536824E+02 0.  0.
         12    1    3    3    0    0 -0.15401853166E+02 -0.29354512310E+02  0.16027798668E+02  0.36821118995E+02  0.00000000000E+00 0. -1.
         11    1    4    4    0    0  0.41072090782E+01 -0.59068502027E+01 -0.27884669425E+00  0.71998473227E+01  0.51100000000E-03 0. -1.
        -11    1    4    4    0    0  0.62214937507E-03  0.70442966288E+01 -0.15217670495E+02  0.16769007453E+02  0.51100000000E-03 0.  1.
         12    1    4    4    0    0  0.11294021938E+02  0.28217065884E+02 -0.53128147838E+00  0.30398026230E+02  0.00000000000E+00 0. -1.
</event>
<event>
 8    1  0.2531964E-006  0.9118800E+02  0.7816164E-02  0.1184000E+00
        -11   -1    0    0    0    0  0.00000000000E+00  0.00000000000E+00  0.45593999997E+02  0.45594000000E+02  0.51100000000E-03 0.  1.
         11   -1    0    0    0    0 -0.00000000000E+00 -0.00000000000E+00 -0.45593999997E+02  0.45594000000E+02  0.51100000000E-03 0. -1.
         23    2    1    2    0    0  0.00000000000E+00  0.00000000000E+00  0.00000000000E+00  0.91188000000E+02  0.91188000000E+02 0.  0.
    9900012    2    3    3    0    0 -0.18219397466E+02  0.27668011937E+02 -0.16072175756E+02  0.54367079831E+02  0.39999990091E+02 0.  0.
        -12    1    3    3    0    0  0.18219397466E+02 -0.27668011937E+02  0.16072175756E+02  0.36820920169E+02  0.00000000000E+00 0.  1.
         11    1    4    4    0    0 -0.14486461570E+02  0.24392722620E+02 -0.15594509879E+01  0.28412926165E+02  0.51100000000E-03 0. -1.
        -11    1    4    4    0    0 -0.11773872856E+01  0.51344408177E+01  0.43480844997E+01  0.68304145122E+01  0.51100000000E-03 0.  1.
         12    1    4    4    0    0 -0.25555486099E+01 -0.18591515003E+01 -0.18860809268E+02  0.19123739154E+02  0.00000000000E+00 0. -1.
</event>
<event>
 8    1  0.2531964E-006  0.9118800E+02  0.7816164E-02  0.1184000E+00
        -11   -1    0    0    0    0  0.00000000000E+00  0.00000000000E+00  0.45593999997E+02  0.45594000000E+02  0.51100000000E-03 0. -1.
         11   -1    0    0    0    0 -0.00000000000E+00 -0.00000000000E+00 -0.45593999997E+02  0.45594000000E+02  0.51100000000E-03 0.  1.
         23    2    1    2    0    0  0.35527136788E-14  0.00000000000E+00  0.00000000000E+00  0.91188000000E+02  0.91188000000E+02 0.  0.
    9900012    2    3    3    0    0 -0.19510076949E+02 -0.25616814956E+02 -0.17858194552E+02  0.54367089858E+02  0.40000012949E+02 0.  0.
         12    1    3    3    0    0  0.19510076949E+02  0.25616814956E+02  0.17858194552E+02  0.36820910142E+02  0.00000000000E+00 0. -1.
         11    1    4    4    0    0  0.27463205647E+01 -0.91298464564E+01  0.51966196602E+01  0.10858233241E+02  0.51100000000E-03 0. -1.
        -11    1    4    4    0    0 -0.35588767717E+01 -0.16892150459E+02 -0.15948135182E+02  0.23502199196E+02  0.51100000000E-03 0.  1.
        -12    1    4    4    0    0 -0.18697520742E+02  0.40518195929E+00 -0.71066790296E+01  0.20006657421E+02  0.00000000000E+00 0.  1.
</event>
<event>
 8    1  0.2531964E-006  0.9118800E+02  0.7816164E-02  0.1184000E+00
        -11   -1    0    0    0    0  0.00000000000E+00  0.00000000000E+00  0.45593999997E+02  0.45594000000E+02  0.51100000000E-03 0.  1.
         11   -1    0    0    0    0 -0.00000000000E+00 -0.00000000000E+00 -0.45593999997E+02  0.45594000000E+02  0.51100000000E-03 0. -1.
         23    2    1    2    0    0  0.35527136788E-14 -0.35527136788E-14  0.00000000000E+00  0.91188000000E+02  0.91188000000E+02 0.  0.
    9900012    2    3    3    0    0  0.20646766092E+02 -0.25894332243E+02  0.16092700334E+02  0.54367076650E+02  0.39999982838E+02 0.  0.
         12    1    3    3    0    0 -0.20646766092E+02  0.25894332243E+02 -0.16092700334E+02  0.36820923350E+02  0.00000000000E+00 0. -1.
         11    1    4    4    0    0 -0.30029361468E+01 -0.31684902153E+01  0.91398171875E+01  0.10128830842E+02  0.51100000000E-03 0. -1.
        -11    1    4    4    0    0  0.29533915967E+02 -0.14180320931E+02  0.82431383942E+01  0.33782880648E+02  0.51100000000E-03 0.  1.
        -12    1    4    4    0    0 -0.58842137281E+01 -0.85455210965E+01 -0.12902552480E+01  0.10455365159E+02  0.00000000000E+00 0.  1.
</event>
<event>
 8    1  0.2531964E-006  0.9118800E+02  0.7816164E-02  0.1184000E+00
        -11   -1    0    0    0    0  0.00000000000E+00  0.00000000000E+00  0.45593999997E+02  0.45594000000E+02  0.51100000000E-03 0.  1.
         11   -1    0    0    0    0 -0.00000000000E+00 -0.00000000000E+00 -0.45593999997E+02  0.45594000000E+02  0.51100000000E-03 0. -1.
         23    2    1    2    0    0  0.00000000000E+00 -0.22204460493E-14 -0.44408920985E-15  0.91188000000E+02  0.91188000000E+02 0.  0.
    9900012    2    3    3    0    0 -0.36546439382E+02  0.31828307411E+01  0.31632747547E+01  0.54367096288E+02  0.40000027607E+02 0.  0.
        -12    1    3    3    0    0  0.36546439382E+02 -0.31828307411E+01 -0.31632747547E+01  0.36820903712E+02  0.00000000000E+00 0.  1.
         11    1    4    4    0    0 -0.20500477866E+01 -0.51608363315E+01  0.52274791935E+01  0.76264976593E+01  0.51100000000E-03 0. -1.
        -11    1    4    4    0    0 -0.15917098050E+02  0.19380225123E+02 -0.73229708311E+00  0.25089507676E+02  0.51100000000E-03 0.  1.
         12    1    4    4    0    0 -0.18579293546E+02 -0.11036558050E+02 -0.13319073556E+01  0.21651090953E+02  0.00000000000E+00 0. -1.
</event>
<event>
 8    1  0.2531964E-006  0.9118800E+02  0.7816164E-02  0.1184000E+00
        -11   -1    0    0    0    0  0.00000000000E+00  0.00000000000E+00  0.45593999997E+02  0.45594000000E+02  0.51100000000E-03 0. -1.
         11   -1    0    0    0    0 -0.00000000000E+00 -0.00000000000E+00 -0.45593999997E+02  0.45594000000E+02  0.51100000000E-03 0.  1.
         23    2    1    2    0    0  0.88817841970E-15  0.00000000000E+00 -0.35527136788E-14  0.91188000000E+02  0.91188000000E+02 0.  0.
    9900012    2    3    3    0    0 -0.22079643203E+01 -0.25423813314E+02 -0.26543062427E+02  0.54367088104E+02  0.40000008951E+02 0.  0.
         12    1    3    3    0    0  0.22079643203E+01  0.25423813314E+02  0.26543062427E+02  0.36820911896E+02  0.00000000000E+00 0. -1.
         11    1    4    4    0    0  0.10545251139E+02 -0.20638436379E+02 -0.24660602825E+02  0.33842173537E+02  0.51100000000E-03 0. -1.
        -11    1    4    4    0    0 -0.87901049700E+01 -0.38378200328E+01 -0.84587795859E+01  0.12788501098E+02  0.51100000000E-03 0.  1.
         12    1    4    4    0    0 -0.39631104894E+01 -0.94755690254E+00  0.65763199841E+01  0.77364134693E+01  0.00000000000E+00 0. -1.
</event>
<event>
 8    1  0.2531964E-006  0.9118800E+02  0.7816164E-02  0.1184000E+00
        -11   -1    0    0    0    0  0.00000000000E+00  0.00000000000E+00  0.45593999997E+02  0.45594000000E+02  0.51100000000E-03 0.  1.
         11   -1    0    0    0    0 -0.00000000000E+00 -0.00000000000E+00 -0.45593999997E+02  0.45594000000E+02  0.51100000000E-03 0. -1.
         23    2    1    2    0    0  0.00000000000E+00  0.71054273576E-14  0.00000000000E+00  0.91188000000E+02  0.91188000000E+02 0.  0.
    9900012    2    3    3    0    0 -0.10955812687E+02 -0.34070208846E+02  0.86585587824E+01  0.54367087429E+02  0.40000007411E+02 0.  0.
         12    1    3    3    0    0  0.10955812687E+02  0.34070208846E+02 -0.86585587824E+01  0.36820912571E+02  0.00000000000E+00 0. -1.
         11    1    4    4    0    0 -0.33029773089E+01 -0.15260745900E+02  0.12943195635E+02  0.20281181870E+02  0.51100000000E-03 0. -1.
        -11    1    4    4    0    0 -0.16847457330E+02 -0.62859456155E+01 -0.45446367901E+01  0.18547335511E+02  0.51100000000E-03 0.  1.
         12    1    4    4    0    0  0.91946219516E+01 -0.12523517330E+02  0.25999993731E+00  0.15538570047E+02  0.00000000000E+00 0. -1.
</event>
<event>
 8    1  0.2531964E-006  0.9118800E+02  0.7816164E-02  0.1184000E+00
        -11   -1    0    0    0    0  0.00000000000E+00  0.00000000000E+00  0.45593999997E+02  0.45594000000E+02  0.51100000000E-03 0. -1.
         11   -1    0    0    0    0 -0.00000000000E+00 -0.00000000000E+00 -0.45593999997E+02  0.45594000000E+02  0.51100000000E-03 0.  1.
         23    2    1    2    0    0  0.00000000000E+00  0.35527136788E-14  0.00000000000E+00  0.91188000000E+02  0.91188000000E+02 0.  0.
    9900012    2    3    3    0    0 -0.18061966835E+02  0.28671060307E+02 -0.14405401387E+02  0.54367082926E+02  0.39999997146E+02 0.  0.
         12    1    3    3    0    0  0.18061966835E+02 -0.28671060307E+02  0.14405401387E+02  0.36820917074E+02  0.00000000000E+00 0. -1.
         11    1    4    4    0    0 -0.40123867704E+01 -0.37772118286E+00  0.37146405044E+01  0.54809191953E+01  0.51100000000E-03 0. -1.
        -11    1    4    4    0    0 -0.24175120640E+02  0.20143969012E+02 -0.94532742164E+01  0.32856967894E+02  0.51100000000E-03 0.  1.
         12    1    4    4    0    0  0.10125540576E+02  0.89048124777E+01 -0.86667676754E+01  0.16029195836E+02  0.00000000000E+00 0. -1.
</event>
<event>
 8    1  0.2531964E-006  0.9118800E+02  0.7816164E-02  0.1184000E+00
        -11   -1    0    0    0    0  0.00000000000E+00  0.00000000000E+00  0.45593999997E+02  0.45594000000E+02  0.51100000000E-03 0.  1.
         11   -1    0    0    0    0 -0.00000000000E+00 -0.00000000000E+00 -0.45593999997E+02  0.45594000000E+02  0.51100000000E-03 0. -1.
         23    2    1    2    0    0  0.35527136788E-14  0.71054273576E-14  0.66613381478E-15  0.91188000000E+02  0.91188000000E+02 0.  0.
    9900012    2    3    3    0    0 -0.90285637278E+01 -0.35682503396E+02 -0.10132002915E+01  0.54367046911E+02  0.39999915043E+02 0.  0.
        -12    1    3    3    0    0  0.90285637278E+01  0.35682503396E+02  0.10132002915E+01  0.36820953089E+02  0.00000000000E+00 0.  1.
         11    1    4    4    0    0 -0.24562322689E+01 -0.10825894026E+02 -0.42276910047E+01  0.11878822750E+02  0.51100000000E-03 0. -1.
        -11    1    4    4    0    0  0.10585253749E+02 -0.12701172430E+01 -0.55682510188E+01  0.12027726901E+02  0.51100000000E-03 0.  1.
         12    1    4    4    0    0 -0.17157585208E+02 -0.23586492126E+02  0.87827417320E+01  0.30460497260E+02  0.00000000000E+00 0. -1.
</event>
<event>
 8    1  0.2531964E-006  0.9118800E+02  0.7816164E-02  0.1184000E+00
        -11   -1    0    0    0    0  0.00000000000E+00  0.00000000000E+00  0.45593999997E+02  0.45594000000E+02  0.51100000000E-03 0. -1.
         11   -1    0    0    0    0 -0.00000000000E+00 -0.00000000000E+00 -0.45593999997E+02  0.45594000000E+02  0.51100000000E-03 0.  1.
         23    2    1    2    0    0  0.00000000000E+00  0.00000000000E+00  0.35527136788E-14  0.91188000000E+02  0.91188000000E+02 0.  0.
    9900012    2    3    3    0    0  0.90504576562E+01 -0.19258938656E+02 -0.30049326294E+02  0.54367088650E+02  0.40000010196E+02 0.  0.
         12    1    3    3    0    0 -0.90504576562E+01  0.19258938656E+02  0.30049326294E+02  0.36820911350E+02  0.00000000000E+00 0. -1.
         11    1    4    4    0    0  0.78569332176E+01 -0.26334264426E+01  0.68355145489E+01  0.10742001388E+02  0.51100000000E-03 0. -1.
        -11    1    4    4    0    0  0.44714295161E+01 -0.18662846866E+02 -0.32826036438E+02  0.38024258093E+02  0.51100000000E-03 0.  1.
        -12    1    4    4    0    0 -0.32779050775E+01  0.20373346525E+01 -0.40588044042E+01  0.56008291685E+01  0.00000000000E+00 0.  1.
</event>
<event>
 8    1  0.2531964E-006  0.9118800E+02  0.7816164E-02  0.1184000E+00
        -11   -1    0    0    0    0  0.00000000000E+00  0.00000000000E+00  0.45593999997E+02  0.45594000000E+02  0.51100000000E-03 0. -1.
         11   -1    0    0    0    0 -0.00000000000E+00 -0.00000000000E+00 -0.45593999997E+02  0.45594000000E+02  0.51100000000E-03 0.  1.
         23    2    1    2    0    0 -0.35527136788E-14  0.00000000000E+00  0.00000000000E+00  0.91188000000E+02  0.91188000000E+02 0.  0.
    9900012    2    3    3    0    0  0.23607290558E+02  0.27798206732E+02 -0.50730084449E+01  0.54367083666E+02  0.39999998833E+02 0.  0.
         12    1    3    3    0    0 -0.23607290558E+02 -0.27798206732E+02  0.50730084449E+01  0.36820916334E+02  0.00000000000E+00 0. -1.
         11    1    4    4    0    0  0.26507348998E+02  0.19127666252E+02 -0.85203161218E+01  0.33780215426E+02  0.51100000000E-03 0. -1.
        -11    1    4    4    0    0 -0.24868534368E+01 -0.54557201424E+01 -0.17282337054E+00  0.59982656216E+01  0.51100000000E-03 0.  1.
         12    1    4    4    0    0 -0.41320500326E+00  0.14126260623E+02  0.36201310475E+01  0.14588602618E+02  0.00000000000E+00 0. -1.
</event>
<event>
 8    1  0.2531964E-006  0.9118800E+02  0.7816164E-02  0.1184000E+00
        -11   -1    0    0    0    0  0.00000000000E+00  0.00000000000E+00  0.45593999997E+02  0.45594000000E+02  0.51100000000E-03 0.  1.
         11   -1    0    0    0    0 -0.00000000000E+00 -0.00000000000E+00 -0.45593999997E+02  0.45594000000E+02  0.51100000000E-03 0. -1.
         23    2    1    2    0    0 -0.25535129566E-14  0.00000000000E+00  0.00000000000E+00  0.91188000000E+02  0.91188000000E+02 0.  0.
    9900012    2    3    3    0    0 -0.93176558914E+00 -0.14746518512E+01  0.36779570818E+02  0.54367087263E+02  0.40000007034E+02 0.  0.
         12    1    3    3    0    0  0.93176558914E+00  0.14746518512E+01 -0.36779570818E+02  0.36820912737E+02  0.00000000000E+00 0. -1.
         11    1    4    4    0    0 -0.10382083355E+02  0.24328237027E+01  0.19537824804E+02  0.22258321686E+02  0.51100000000E-03 0. -1.
        -11    1    4    4    0    0  0.16850866101E+02 -0.70004347000E+01  0.81495856090E+01  0.19984331868E+02  0.51100000000E-03 0.  1.
        -12    1    4    4    0    0 -0.74005483352E+01  0.30929591461E+01  0.90921604054E+01  0.12124433710E+02  0.00000000000E+00 0.  1.
</event>
<event>
 8    1  0.2531964E-006  0.9118800E+02  0.7816164E-02  0.1184000E+00
        -11   -1    0    0    0    0  0.00000000000E+00  0.00000000000E+00  0.45593999997E+02  0.45594000000E+02  0.51100000000E-03 0.  1.
         11   -1    0    0    0    0 -0.00000000000E+00 -0.00000000000E+00 -0.45593999997E+02  0.45594000000E+02  0.51100000000E-03 0. -1.
         23    2    1    2    0    0  0.00000000000E+00 -0.35527136788E-14 -0.17763568394E-14  0.91188000000E+02  0.91188000000E+02 0.  0.
    9900012    2    3    3    0    0 -0.28302933923E+02  0.18003199031E+02 -0.15185772763E+02  0.54367096448E+02  0.40000027972E+02 0.  0.
        -12    1    3    3    0    0  0.28302933923E+02 -0.18003199031E+02  0.15185772763E+02  0.36820903552E+02  0.00000000000E+00 0.  1.
         11    1    4    4    0    0 -0.95748868631E+01 -0.25797698935E+01 -0.18017708750E+01  0.10078692856E+02  0.51100000000E-03 0. -1.
        -11    1    4    4    0    0 -0.10941298923E+02  0.28045078749E+02 -0.47566815493E+01  0.30477278156E+02  0.51100000000E-03 0.  1.
        -12    1    4    4    0    0 -0.77867481369E+01 -0.74621098242E+01 -0.86273203383E+01  0.13811125436E+02  0.00000000000E+00 0.  1.
</event>
<event>
 8    1  0.2531964E-006  0.9118800E+02  0.7816164E-02  0.1184000E+00
        -11   -1    0    0    0    0  0.00000000000E+00  0.00000000000E+00  0.45593999997E+02  0.45594000000E+02  0.51100000000E-03 0.  1.
         11   -1    0    0    0    0 -0.00000000000E+00 -0.00000000000E+00 -0.45593999997E+02  0.45594000000E+02  0.51100000000E-03 0. -1.
         23    2    1    2    0    0  0.00000000000E+00  0.71054273576E-14 -0.35527136788E-14  0.91188000000E+02  0.91188000000E+02 0.  0.
    9900012    2    3    3    0    0  0.19707804026E+02  0.21608602548E+02 -0.22370767461E+02  0.54367075509E+02  0.39999980237E+02 0.  0.
        -12    1    3    3    0    0 -0.19707804026E+02 -0.21608602548E+02  0.22370767461E+02  0.36820924491E+02  0.00000000000E+00 0.  1.
         11    1    4    4    0    0  0.14831904180E+02  0.59688209595E+01 -0.22907196158E+02  0.27934778347E+02  0.51100000000E-03 0. -1.
        -11    1    4    4    0    0  0.91164205392E+01  0.11616633563E+01 -0.48770931549E+01  0.10404067623E+02  0.51100000000E-03 0.  1.
        -12    1    4    4    0    0 -0.42405206925E+01  0.14478118232E+02  0.54135218518E+01  0.16028229538E+02  0.00000000000E+00 0.  1.
</event>
<event>
 8    1  0.2531964E-006  0.9118800E+02  0.7816164E-02  0.1184000E+00
        -11   -1    0    0    0    0  0.00000000000E+00  0.00000000000E+00  0.45593999997E+02  0.45594000000E+02  0.51100000000E-03 0. -1.
         11   -1    0    0    0    0 -0.00000000000E+00 -0.00000000000E+00 -0.45593999997E+02  0.45594000000E+02  0.51100000000E-03 0.  1.
         23    2    1    2    0    0 -0.35527136788E-14  0.88817841970E-15  0.00000000000E+00  0.91188000000E+02  0.91188000000E+02 0.  0.
    9900012    2    3    3    0    0 -0.26862152766E+02  0.73213153083E+01 -0.24095708985E+02  0.54367080667E+02  0.39999991997E+02 0.  0.
         12    1    3    3    0    0  0.26862152766E+02 -0.73213153083E+01  0.24095708985E+02  0.36820919333E+02  0.00000000000E+00 0. -1.
         11    1    4    4    0    0  0.40410060753E+01  0.35298263964E+01 -0.22009182785E+00  0.53700880033E+01  0.51100000000E-03 0. -1.
        -11    1    4    4    0    0 -0.31568956643E+02  0.85467039565E+01 -0.98261097803E+01  0.34149635513E+02  0.51100000000E-03 0.  1.
        -12    1    4    4    0    0  0.66579780162E+00 -0.47552150446E+01 -0.14049507376E+02  0.14847357151E+02  0.00000000000E+00 0.  1.
</event>
<event>
 8    1  0.2531964E-006  0.9118800E+02  0.7816164E-02  0.1184000E+00
        -11   -1    0    0    0    0  0.00000000000E+00  0.00000000000E+00  0.45593999997E+02  0.45594000000E+02  0.51100000000E-03 0.  1.
         11   -1    0    0    0    0 -0.00000000000E+00 -0.00000000000E+00 -0.45593999997E+02  0.45594000000E+02  0.51100000000E-03 0. -1.
         23    2    1    2    0    0  0.00000000000E+00  0.35527136788E-14 -0.35527136788E-14  0.91188000000E+02  0.91188000000E+02 0.  0.
    9900012    2    3    3    0    0  0.41305438203E+01 -0.28813114703E+02 -0.22550460487E+02  0.54367078782E+02  0.39999987700E+02 0.  0.
        -12    1    3    3    0    0 -0.41305438203E+01  0.28813114703E+02  0.22550460487E+02  0.36820921218E+02  0.00000000000E+00 0.  1.
         11    1    4    4    0    0 -0.50496901331E+01 -0.17539548943E+02 -0.20155225349E+02  0.27191326866E+02  0.51100000000E-03 0. -1.
        -11    1    4    4    0    0  0.68410655572E+00  0.34107843601E+01 -0.84694429097E+01  0.91560316291E+01  0.51100000000E-03 0.  1.
        -12    1    4    4    0    0  0.84961273977E+01 -0.14684350120E+02  0.60742077717E+01  0.18019720288E+02  0.00000000000E+00 0.  1.
</event>
<event>
 8    1  0.2531964E-006  0.9118800E+02  0.7816164E-02  0.1184000E+00
        -11   -1    0    0    0    0  0.00000000000E+00  0.00000000000E+00  0.45593999997E+02  0.45594000000E+02  0.51100000000E-03 0. -1.
         11   -1    0    0    0    0 -0.00000000000E+00 -0.00000000000E+00 -0.45593999997E+02  0.45594000000E+02  0.51100000000E-03 0.  1.
         23    2    1    2    0    0  0.44408920985E-15  0.00000000000E+00  0.00000000000E+00  0.91188000000E+02  0.91188000000E+02 0.  0.
    9900012    2    3    3    0    0  0.11888604065E+01  0.98850972910E+01  0.35449220052E+02  0.54367139882E+02  0.40000126988E+02 0.  0.
        -12    1    3    3    0    0 -0.11888604065E+01 -0.98850972910E+01 -0.35449220052E+02  0.36820860118E+02  0.00000000000E+00 0.  1.
         11    1    4    4    0    0 -0.11794735827E+02  0.15064582386E+02  0.15053974397E+02  0.24345011421E+02  0.51100000000E-03 0. -1.
        -11    1    4    4    0    0  0.15483292009E+02 -0.63304666571E+01  0.10496586131E+02  0.19748049528E+02  0.51100000000E-03 0.  1.
        -12    1    4    4    0    0 -0.24996957752E+01  0.11509815621E+01  0.98986595242E+01  0.10274078932E+02  0.00000000000E+00 0.  1.
</event>
<event>
 8    1  0.2531964E-006  0.9118800E+02  0.7816164E-02  0.1184000E+00
        -11   -1    0    0    0    0  0.00000000000E+00  0.00000000000E+00  0.45593999997E+02  0.45594000000E+02  0.51100000000E-03 0. -1.
         11   -1    0    0    0    0 -0.00000000000E+00 -0.00000000000E+00 -0.45593999997E+02  0.45594000000E+02  0.51100000000E-03 0.  1.
         23    2    1    2    0    0 -0.71054273576E-14  0.35527136788E-14 -0.17763568394E-14  0.91188000000E+02  0.91188000000E+02 0.  0.
    9900012    2    3    3    0    0  0.31086780838E+02 -0.13825215398E+02  0.14080320404E+02  0.54367082761E+02  0.39999996769E+02 0.  0.
        -12    1    3    3    0    0 -0.31086780838E+02  0.13825215398E+02 -0.14080320404E+02  0.36820917239E+02  0.00000000000E+00 0.  1.
         11    1    4    4    0    0  0.68102749076E+01  0.51657082091E+01  0.45752360177E+01  0.96952137933E+01  0.51100000000E-03 0. -1.
        -11    1    4    4    0    0  0.52436650915E+01  0.66163058304E+01  0.95759760317E+01  0.12766003433E+02  0.51100000000E-03 0.  1.
        -12    1    4    4    0    0  0.19032840839E+02 -0.25607229437E+02 -0.70891645461E-01  0.31905865534E+02  0.00000000000E+00 0.  1.
</event>
<event>
 8    1  0.2531964E-006  0.9118800E+02  0.7816164E-02  0.1184000E+00
        -11   -1    0    0    0    0  0.00000000000E+00  0.00000000000E+00  0.45593999997E+02  0.45594000000E+02  0.51100000000E-03 0. -1.
         11   -1    0    0    0    0 -0.00000000000E+00 -0.00000000000E+00 -0.45593999997E+02  0.45594000000E+02  0.51100000000E-03 0.  1.
         23    2    1    2    0    0 -0.44408920985E-15 -0.35527136788E-14 -0.35527136788E-14  0.91188000000E+02  0.91188000000E+02 0.  0.
    9900012    2    3    3    0    0 -0.33335789574E+01 -0.19975450308E+02 -0.30751402742E+02  0.54367080209E+02  0.39999990952E+02 0.  0.
         12    1    3    3    0    0  0.33335789574E+01  0.19975450308E+02  0.30751402742E+02  0.36820919791E+02  0.00000000000E+00 0. -1.
         11    1    4    4    0    0 -0.10497299919E+02  0.17698241539E+01 -0.53987681256E+01  0.11936175294E+02  0.51100000000E-03 0. -1.
        -11    1    4    4    0    0  0.97364189375E+01 -0.16403602851E+02 -0.29546102319E+02  0.35168852736E+02  0.51100000000E-03 0.  1.
         12    1    4    4    0    0 -0.25726979764E+01 -0.53416716105E+01  0.41934677030E+01  0.72620521788E+01  0.00000000000E+00 0. -1.
</event>
<event>
 8    1  0.2531964E-006  0.9118800E+02  0.7816164E-02  0.1184000E+00
        -11   -1    0    0    0    0  0.00000000000E+00  0.00000000000E+00  0.45593999997E+02  0.45594000000E+02  0.51100000000E-03 0.  1.
         11   -1    0    0    0    0 -0.00000000000E+00 -0.00000000000E+00 -0.45593999997E+02  0.45594000000E+02  0.51100000000E-03 0. -1.
         23    2    1    2    0    0  0.35527136788E-14  0.35527136788E-14  0.00000000000E+00  0.91188000000E+02  0.91188000000E+02 0.  0.
    9900012    2    3    3    0    0 -0.21361699966E+02 -0.23889376742E+02 -0.18131612075E+02  0.54367083350E+02  0.39999998112E+02 0.  0.
        -12    1    3    3    0    0  0.21361699966E+02  0.23889376742E+02  0.18131612075E+02  0.36820916650E+02  0.00000000000E+00 0.  1.
         11    1    4    4    0    0 -0.25227343002E+02 -0.15217276915E+02 -0.14148971777E+02  0.32682988759E+02  0.51100000000E-03 0. -1.
        -11    1    4    4    0    0 -0.68101610978E+01 -0.16555391256E+01 -0.53763425059E+01  0.88331287195E+01  0.51100000000E-03 0.  1.
        -12    1    4    4    0    0  0.10675804134E+02 -0.70165607014E+01  0.13937022078E+01  0.12850965871E+02  0.00000000000E+00 0.  1.
</event>
<event>
 8    1  0.2531964E-006  0.9118800E+02  0.7816164E-02  0.1184000E+00
        -11   -1    0    0    0    0  0.00000000000E+00  0.00000000000E+00  0.45593999997E+02  0.45594000000E+02  0.51100000000E-03 0. -1.
         11   -1    0    0    0    0 -0.00000000000E+00 -0.00000000000E+00 -0.45593999997E+02  0.45594000000E+02  0.51100000000E-03 0.  1.
         23    2    1    2    0    0  0.00000000000E+00 -0.35527136788E-14  0.00000000000E+00  0.91188000000E+02  0.91188000000E+02 0.  0.
    9900012    2    3    3    0    0  0.24022376799E+02  0.25899264457E+02  0.10389110600E+02  0.54367080599E+02  0.39999991841E+02 0.  0.
         12    1    3    3    0    0 -0.24022376799E+02 -0.25899264457E+02 -0.10389110600E+02  0.36820919401E+02  0.00000000000E+00 0. -1.
         11    1    4    4    0    0  0.75707661532E+01  0.82514098549E+01 -0.61320442385E+01  0.12767311054E+02  0.51100000000E-03 0. -1.
        -11    1    4    4    0    0  0.23676595664E+02  0.65315885614E+01  0.13403304002E+02  0.27980196386E+02  0.51100000000E-03 0.  1.
         12    1    4    4    0    0 -0.72249850178E+01  0.11116266041E+02  0.31178508370E+01  0.13619573159E+02  0.00000000000E+00 0. -1.
</event>
<event>
 8    1  0.2531964E-006  0.9118800E+02  0.7816164E-02  0.1184000E+00
        -11   -1    0    0    0    0  0.00000000000E+00  0.00000000000E+00  0.45593999997E+02  0.45594000000E+02  0.51100000000E-03 0.  1.
         11   -1    0    0    0    0 -0.00000000000E+00 -0.00000000000E+00 -0.45593999997E+02  0.45594000000E+02  0.51100000000E-03 0. -1.
         23    2    1    2    0    0  0.00000000000E+00  0.00000000000E+00  0.00000000000E+00  0.91188000000E+02  0.91188000000E+02 0.  0.
    9900012    2    3    3    0    0 -0.29269384730E+02  0.19863367601E+02 -0.10223902323E+02  0.54367103303E+02  0.40000043599E+02 0.  0.
        -12    1    3    3    0    0  0.29269384730E+02 -0.19863367601E+02  0.10223902323E+02  0.36820896697E+02  0.00000000000E+00 0.  1.
         11    1    4    4    0    0 -0.47266419785E+01  0.19364850716E+02  0.38148075780E+01  0.20295106424E+02  0.51100000000E-03 0. -1.
        -11    1    4    4    0    0 -0.19337143375E+02  0.80231022495E+01 -0.57123761524E+01  0.21700841577E+02  0.51100000000E-03 0.  1.
        -12    1    4    4    0    0 -0.52055993766E+01 -0.75245853651E+01 -0.83263337486E+01  0.12371155301E+02  0.00000000000E+00 0.  1.
</event>
<event>
 8    1  0.2531964E-006  0.9118800E+02  0.7816164E-02  0.1184000E+00
        -11   -1    0    0    0    0  0.00000000000E+00  0.00000000000E+00  0.45593999997E+02  0.45594000000E+02  0.51100000000E-03 0.  1.
         11   -1    0    0    0    0 -0.00000000000E+00 -0.00000000000E+00 -0.45593999997E+02  0.45594000000E+02  0.51100000000E-03 0. -1.
         23    2    1    2    0    0  0.00000000000E+00  0.00000000000E+00  0.00000000000E+00  0.91188000000E+02  0.91188000000E+02 0.  0.
    9900012    2    3    3    0    0 -0.22970497231E+02  0.11373639143E+02  0.26434377386E+02  0.54367085859E+02  0.40000003833E+02 0.  0.
         12    1    3    3    0    0  0.22970497231E+02 -0.11373639143E+02 -0.26434377386E+02  0.36820914141E+02  0.00000000000E+00 0. -1.
         11    1    4    4    0    0 -0.66010701052E+01 -0.22609562294E+01 -0.35132822259E+01  0.78121189101E+01  0.51100000000E-03 0. -1.
        -11    1    4    4    0    0 -0.21508931175E+02  0.18643510423E+02  0.23664396704E+02  0.37016459486E+02  0.51100000000E-03 0.  1.
        -12    1    4    4    0    0  0.51395040496E+01 -0.50089150508E+01  0.62832629076E+01  0.95385074633E+01  0.00000000000E+00 0.  1.
</event>
<event>
 8    1  0.2531964E-006  0.9118800E+02  0.7816164E-02  0.1184000E+00
        -11   -1    0    0    0    0  0.00000000000E+00  0.00000000000E+00  0.45593999997E+02  0.45594000000E+02  0.51100000000E-03 0. -1.
         11   -1    0    0    0    0 -0.00000000000E+00 -0.00000000000E+00 -0.45593999997E+02  0.45594000000E+02  0.51100000000E-03 0.  1.
         23    2    1    2    0    0  0.00000000000E+00  0.00000000000E+00  0.00000000000E+00  0.91188000000E+02  0.91188000000E+02 0.  0.
    9900012    2    3    3    0    0 -0.10509423207E+02  0.20427520255E+02  0.28775827906E+02  0.54367084319E+02  0.40000000323E+02 0.  0.
        -12    1    3    3    0    0  0.10509423207E+02 -0.20427520255E+02 -0.28775827906E+02  0.36820915681E+02  0.00000000000E+00 0.  1.
         11    1    4    4    0    0 -0.15687314858E+02  0.52282810251E+01  0.13805592642E+02  0.21541150350E+02  0.51100000000E-03 0. -1.
        -11    1    4    4    0    0 -0.20926707118E+01 -0.33378836271E+01 -0.37912603923E+01  0.54675765600E+01  0.51100000000E-03 0.  1.
         12    1    4    4    0    0  0.72705623635E+01  0.18537122857E+02  0.18761495656E+02  0.27358357410E+02  0.00000000000E+00 0. -1.
</event>
<event>
 8    1  0.2531964E-006  0.9118800E+02  0.7816164E-02  0.1184000E+00
        -11   -1    0    0    0    0  0.00000000000E+00  0.00000000000E+00  0.45593999997E+02  0.45594000000E+02  0.51100000000E-03 0.  1.
         11   -1    0    0    0    0 -0.00000000000E+00 -0.00000000000E+00 -0.45593999997E+02  0.45594000000E+02  0.51100000000E-03 0. -1.
         23    2    1    2    0    0  0.00000000000E+00  0.55511151231E-15 -0.35527136788E-14  0.91188000000E+02  0.91188000000E+02 0.  0.
    9900012    2    3    3    0    0 -0.18962248870E+02 -0.52363202967E+00 -0.31558505134E+02  0.54367077700E+02  0.39999985234E+02 0.  0.
        -12    1    3    3    0    0  0.18962248870E+02  0.52363202967E+00  0.31558505134E+02  0.36820922300E+02  0.00000000000E+00 0.  1.
         11    1    4    4    0    0 -0.13568060022E+02  0.70859177588E+01 -0.27080651781E+02  0.31107301143E+02  0.51100000000E-03 0. -1.
        -11    1    4    4    0    0  0.35403038118E+01 -0.11545969120E+02  0.90601102629E+00  0.12110491742E+02  0.51100000000E-03 0.  1.
         12    1    4    4    0    0 -0.89344926597E+01  0.39364193314E+01 -0.53838643788E+01  0.11149284815E+02  0.00000000000E+00 0. -1.
</event>
<event>
 8    1  0.2531964E-006  0.9118800E+02  0.7816164E-02  0.1184000E+00
        -11   -1    0    0    0    0  0.00000000000E+00  0.00000000000E+00  0.45593999997E+02  0.45594000000E+02  0.51100000000E-03 0. -1.
         11   -1    0    0    0    0 -0.00000000000E+00 -0.00000000000E+00 -0.45593999997E+02  0.45594000000E+02  0.51100000000E-03 0.  1.
         23    2    1    2    0    0  0.00000000000E+00  0.00000000000E+00  0.00000000000E+00  0.91188000000E+02  0.91188000000E+02 0.  0.
    9900012    2    3    3    0    0  0.25732787722E+02 -0.16154629459E+02 -0.20799794691E+02  0.54367083715E+02  0.39999998945E+02 0.  0.
         12    1    3    3    0    0 -0.25732787722E+02  0.16154629459E+02  0.20799794691E+02  0.36820916285E+02  0.00000000000E+00 0. -1.
         11    1    4    4    0    0  0.43418573445E+01 -0.12562751094E+02 -0.15841958904E+02  0.20679509240E+02  0.51100000000E-03 0. -1.
        -11    1    4    4    0    0  0.60562616796E+01  0.10626688780E+02 -0.16136710415E+00  0.12232369335E+02  0.51100000000E-03 0.  1.
        -12    1    4    4    0    0  0.15334668698E+02 -0.14218567145E+02 -0.47964686828E+01  0.21455205139E+02  0.00000000000E+00 0.  1.
</event>
<event>
 8    1  0.2531964E-006  0.9118800E+02  0.7816164E-02  0.1184000E+00
        -11   -1    0    0    0    0  0.00000000000E+00  0.00000000000E+00  0.45593999997E+02  0.45594000000E+02  0.51100000000E-03 0.  1.
         11   -1    0    0    0    0 -0.00000000000E+00 -0.00000000000E+00 -0.45593999997E+02  0.45594000000E+02  0.51100000000E-03 0. -1.
         23    2    1    2    0    0  0.00000000000E+00 -0.17763568394E-14  0.00000000000E+00  0.91188000000E+02  0.91188000000E+02 0.  0.
    9900012    2    3    3    0    0  0.33267171740E+02  0.96450089640E+01 -0.12491942387E+02  0.54367088305E+02  0.40000009408E+02 0.  0.
        -12    1    3    3    0    0 -0.33267171740E+02 -0.96450089640E+01  0.12491942387E+02  0.36820911695E+02  0.00000000000E+00 0.  1.
         11    1    4    4    0    0  0.13142081913E+02  0.14491293786E+02 -0.19126641247E+02  0.27359464875E+02  0.51100000000E-03 0. -1.
        -11    1    4    4    0    0  0.94198208925E+01 -0.86364197549E+01 -0.17394629724E+01  0.12897538661E+02  0.51100000000E-03 0.  1.
         12    1    4    4    0    0  0.10705268935E+02  0.37901349327E+01  0.83741618321E+01  0.14110084768E+02  0.00000000000E+00 0. -1.
</event>
<event>
 8    1  0.2531964E-006  0.9118800E+02  0.7816164E-02  0.1184000E+00
        -11   -1    0    0    0    0  0.00000000000E+00  0.00000000000E+00  0.45593999997E+02  0.45594000000E+02  0.51100000000E-03 0.  1.
         11   -1    0    0    0    0 -0.00000000000E+00 -0.00000000000E+00 -0.45593999997E+02  0.45594000000E+02  0.51100000000E-03 0. -1.
         23    2    1    2    0    0  0.00000000000E+00  0.00000000000E+00 -0.17763568394E-14  0.91188000000E+02  0.91188000000E+02 0.  0.
    9900012    2    3    3    0    0 -0.24677001419E+02 -0.22997878897E+02  0.14762190519E+02  0.54367094231E+02  0.40000022917E+02 0.  0.
         12    1    3    3    0    0  0.24677001419E+02  0.22997878897E+02 -0.14762190519E+02  0.36820905769E+02  0.00000000000E+00 0. -1.
         11    1    4    4    0    0 -0.13855018035E+02  0.76521855455E+00 -0.87732953136E+01  0.16416997140E+02  0.51100000000E-03 0. -1.
        -11    1    4    4    0    0 -0.26815760634E+01 -0.17863345933E+02  0.20764091669E+02  0.27521582099E+02  0.51100000000E-03 0.  1.
         12    1    4    4    0    0 -0.81404073205E+01 -0.58997515180E+01  0.27713941631E+01  0.10428514991E+02  0.00000000000E+00 0. -1.
</event>
<event>
 8    1  0.2531964E-006  0.9118800E+02  0.7816164E-02  0.1184000E+00
        -11   -1    0    0    0    0  0.00000000000E+00  0.00000000000E+00  0.45593999997E+02  0.45594000000E+02  0.51100000000E-03 0.  1.
         11   -1    0    0    0    0 -0.00000000000E+00 -0.00000000000E+00 -0.45593999997E+02  0.45594000000E+02  0.51100000000E-03 0. -1.
         23    2    1    2    0    0  0.00000000000E+00  0.00000000000E+00  0.00000000000E+00  0.91188000000E+02  0.91188000000E+02 0.  0.
    9900012    2    3    3    0    0  0.18923286881E+02  0.19599737750E+02 -0.24769730280E+02  0.54367081429E+02  0.39999993734E+02 0.  0.
         12    1    3    3    0    0 -0.18923286881E+02 -0.19599737750E+02  0.24769730280E+02  0.36820918571E+02  0.00000000000E+00 0. -1.
         11    1    4    4    0    0  0.21337374849E+02  0.17224320199E+02 -0.26096594535E+02  0.37854894246E+02  0.51100000000E-03 0. -1.
        -11    1    4    4    0    0  0.32684137117E+01  0.71453115537E+01  0.37514530025E+01  0.87069745194E+01  0.51100000000E-03 0.  1.
         12    1    4    4    0    0 -0.56825016798E+01 -0.47698940026E+01 -0.24245887479E+01  0.78052126642E+01  0.00000000000E+00 0. -1.
</event>
<event>
 8    1  0.2531964E-006  0.9118800E+02  0.7816164E-02  0.1184000E+00
        -11   -1    0    0    0    0  0.00000000000E+00  0.00000000000E+00  0.45593999997E+02  0.45594000000E+02  0.51100000000E-03 0.  1.
         11   -1    0    0    0    0 -0.00000000000E+00 -0.00000000000E+00 -0.45593999997E+02  0.45594000000E+02  0.51100000000E-03 0. -1.
         23    2    1    2    0    0  0.00000000000E+00  0.00000000000E+00  0.00000000000E+00  0.91188000000E+02  0.91188000000E+02 0.  0.
    9900012    2    3    3    0    0 -0.26929458447E+01  0.15360036760E+02 -0.33355596155E+02  0.54367102653E+02  0.40000042119E+02 0.  0.
        -12    1    3    3    0    0  0.26929458447E+01 -0.15360036760E+02  0.33355596155E+02  0.36820897347E+02  0.00000000000E+00 0.  1.
         11    1    4    4    0    0  0.11010845916E+02 -0.87194914603E+01 -0.89061185672E+01  0.16630911199E+02  0.51100000000E-03 0.  1.
        -11    1    4    4    0    0 -0.10960817970E+01  0.88488794868E+01 -0.65263871563E+01  0.11049787014E+02  0.51100000000E-03 0. -1.
        -12    1    4    4    0    0 -0.12607709964E+02  0.15230648733E+02 -0.17923090431E+02  0.26686404441E+02  0.00000000000E+00 0.  1.
</event>
<event>
 8    1  0.2531964E-006  0.9118800E+02  0.7816164E-02  0.1184000E+00
        -11   -1    0    0    0    0  0.00000000000E+00  0.00000000000E+00  0.45593999997E+02  0.45594000000E+02  0.51100000000E-03 0.  1.
         11   -1    0    0    0    0 -0.00000000000E+00 -0.00000000000E+00 -0.45593999997E+02  0.45594000000E+02  0.51100000000E-03 0. -1.
         23    2    1    2    0    0  0.00000000000E+00  0.00000000000E+00 -0.71054273576E-14  0.91188000000E+02  0.91188000000E+02 0.  0.
    9900012    2    3    3    0    0 -0.26817807561E+01  0.86454213952E+01  0.35690952611E+02  0.54367090758E+02  0.40000015002E+02 0.  0.
         12    1    3    3    0    0  0.26817807561E+01 -0.86454213952E+01 -0.35690952611E+02  0.36820909242E+02  0.00000000000E+00 0. -1.
         11    1    4    4    0    0 -0.18372684478E+00  0.16544178292E+02  0.31323372142E+02  0.35424528698E+02  0.51100000000E-03 0. -1.
        -11    1    4    4    0    0 -0.49123506199E+01 -0.32117026152E+01  0.97677712121E+01  0.11395419124E+02  0.51100000000E-03 0.  1.
         12    1    4    4    0    0  0.24142967086E+01 -0.46870542816E+01 -0.54001907428E+01  0.75471429359E+01  0.00000000000E+00 0. -1.
</event>
<event>
 8    1  0.2531964E-006  0.9118800E+02  0.7816164E-02  0.1184000E+00
        -11   -1    0    0    0    0  0.00000000000E+00  0.00000000000E+00  0.45593999997E+02  0.45594000000E+02  0.51100000000E-03 0. -1.
         11   -1    0    0    0    0 -0.00000000000E+00 -0.00000000000E+00 -0.45593999997E+02  0.45594000000E+02  0.51100000000E-03 0.  1.
         23    2    1    2    0    0  0.00000000000E+00 -0.35527136788E-14  0.00000000000E+00  0.91188000000E+02  0.91188000000E+02 0.  0.
    9900012    2    3    3    0    0  0.86642852007E+01  0.24593711994E+02  0.25997317414E+02  0.54367068176E+02  0.39999963521E+02 0.  0.
        -12    1    3    3    0    0 -0.86642852007E+01 -0.24593711994E+02 -0.25997317414E+02  0.36820931824E+02  0.00000000000E+00 0.  1.
         11    1    4    4    0    0 -0.14112040695E+02  0.72012196673E+01  0.15960861901E+02  0.22489027772E+02  0.51100000000E-03 0. -1.
        -11    1    4    4    0    0  0.74843705784E+01  0.11287237065E+02  0.25102515456E+01  0.13773847923E+02  0.51100000000E-03 0.  1.
         12    1    4    4    0    0  0.15291955317E+02  0.61052552613E+01  0.75262039674E+01  0.18104192481E+02  0.00000000000E+00 0. -1.
</event>
<event>
 8    1  0.2531964E-006  0.9118800E+02  0.7816164E-02  0.1184000E+00
        -11   -1    0    0    0    0  0.00000000000E+00  0.00000000000E+00  0.45593999997E+02  0.45594000000E+02  0.51100000000E-03 0.  1.
         11   -1    0    0    0    0 -0.00000000000E+00 -0.00000000000E+00 -0.45593999997E+02  0.45594000000E+02  0.51100000000E-03 0. -1.
         23    2    1    2    0    0  0.88817841970E-15 -0.55511151231E-15  0.00000000000E+00  0.91188000000E+02  0.91188000000E+02 0.  0.
    9900012    2    3    3    0    0 -0.14797146955E+01 -0.51629300729E+00  0.36787548428E+02  0.54367084294E+02  0.40000000266E+02 0.  0.
         12    1    3    3    0    0  0.14797146955E+01  0.51629300729E+00 -0.36787548428E+02  0.36820915706E+02  0.00000000000E+00 0. -1.
         11    1    4    4    0    0  0.14059782977E+01 -0.64012423329E+01  0.24214429941E+01  0.69868494197E+01  0.51100000000E-03 0. -1.
        -11    1    4    4    0    0  0.32768188088E+01 -0.57904667701E+00  0.37700628299E+02  0.37847195550E+02  0.51100000000E-03 0.  1.
        -12    1    4    4    0    0 -0.61625118021E+01  0.64639960026E+01 -0.33345228650E+01  0.95330393249E+01  0.00000000000E+00 0.  1.
</event>
<event>
 8    1  0.2531964E-006  0.9118800E+02  0.7816164E-02  0.1184000E+00
        -11   -1    0    0    0    0  0.00000000000E+00  0.00000000000E+00  0.45593999997E+02  0.45594000000E+02  0.51100000000E-03 0. -1.
         11   -1    0    0    0    0 -0.00000000000E+00 -0.00000000000E+00 -0.45593999997E+02  0.45594000000E+02  0.51100000000E-03 0.  1.
         23    2    1    2    0    0  0.17763568394E-14  0.00000000000E+00  0.35527136788E-14  0.91188000000E+02  0.91188000000E+02 0.  0.
    9900012    2    3    3    0    0 -0.56517114485E+01  0.23699960459E+02 -0.27607060296E+02  0.54367085478E+02  0.40000002964E+02 0.  0.
         12    1    3    3    0    0  0.56517114485E+01 -0.23699960459E+02  0.27607060296E+02  0.36820914522E+02  0.00000000000E+00 0. -1.
         11    1    4    4    0    0 -0.12648010478E+02  0.15239895397E+02 -0.84762416193E+01  0.21542359504E+02  0.51100000000E-03 0. -1.
        -11    1    4    4    0    0  0.45210617547E+01  0.62736187170E+01 -0.24957004259E+02  0.26127578400E+02  0.51100000000E-03 0.  1.
        -12    1    4    4    0    0  0.24752372747E+01  0.21864463451E+01  0.58261855825E+01  0.66971475739E+01  0.00000000000E+00 0.  1.
</event>
<event>
 8    1  0.2531964E-006  0.9118800E+02  0.7816164E-02  0.1184000E+00
        -11   -1    0    0    0    0  0.00000000000E+00  0.00000000000E+00  0.45593999997E+02  0.45594000000E+02  0.51100000000E-03 0. -1.
         11   -1    0    0    0    0 -0.00000000000E+00 -0.00000000000E+00 -0.45593999997E+02  0.45594000000E+02  0.51100000000E-03 0.  1.
         23    2    1    2    0    0  0.00000000000E+00  0.00000000000E+00  0.35527136788E-14  0.91188000000E+02  0.91188000000E+02 0.  0.
    9900012    2    3    3    0    0  0.20107362229E+02 -0.20531097137E+02  0.23020594871E+02  0.54367085377E+02  0.40000002734E+02 0.  0.
        -12    1    3    3    0    0 -0.20107362229E+02  0.20531097137E+02 -0.23020594871E+02  0.36820914623E+02  0.00000000000E+00 0.  1.
         11    1    4    4    0    0  0.18476001549E+02 -0.11578255360E+02  0.11793701881E+02  0.24789312914E+02  0.51100000000E-03 0.  1.
        -11    1    4    4    0    0  0.11556795308E+02 -0.11251916257E+02  0.10739537003E+02  0.19377894430E+02  0.51100000000E-03 0. -1.
        -12    1    4    4    0    0 -0.99254346283E+01  0.22990744800E+01  0.48735598706E+00  0.10199878033E+02  0.00000000000E+00 0.  1.
</event>
<event>
 8    1  0.2531964E-006  0.9118800E+02  0.7816164E-02  0.1184000E+00
        -11   -1    0    0    0    0  0.00000000000E+00  0.00000000000E+00  0.45593999997E+02  0.45594000000E+02  0.51100000000E-03 0. -1.
         11   -1    0    0    0    0 -0.00000000000E+00 -0.00000000000E+00 -0.45593999997E+02  0.45594000000E+02  0.51100000000E-03 0.  1.
         23    2    1    2    0    0  0.00000000000E+00 -0.88817841970E-15 -0.35527136788E-14  0.91188000000E+02  0.91188000000E+02 0.  0.
    9900012    2    3    3    0    0 -0.23822745821E+02  0.57189883067E+01  0.27487275768E+02  0.54367076942E+02  0.39999983504E+02 0.  0.
        -12    1    3    3    0    0  0.23822745821E+02 -0.57189883067E+01 -0.27487275768E+02  0.36820923058E+02  0.00000000000E+00 0.  1.
         11    1    4    4    0    0 -0.10330573826E+02 -0.21585794465E+01  0.33082993129E+02  0.34725561989E+02  0.51100000000E-03 0. -1.
        -11    1    4    4    0    0 -0.10881532057E+02  0.69986683996E+00 -0.15969942286E+01  0.11020342296E+02  0.51100000000E-03 0.  1.
         12    1    4    4    0    0 -0.26106399383E+01  0.71777009133E+01 -0.39987231325E+01  0.86211726568E+01  0.00000000000E+00 0. -1.
</event>
<event>
 8    1  0.2531964E-006  0.9118800E+02  0.7816164E-02  0.1184000E+00
        -11   -1    0    0    0    0  0.00000000000E+00  0.00000000000E+00  0.45593999997E+02  0.45594000000E+02  0.51100000000E-03 0.  1.
         11   -1    0    0    0    0 -0.00000000000E+00 -0.00000000000E+00 -0.45593999997E+02  0.45594000000E+02  0.51100000000E-03 0. -1.
         23    2    1    2    0    0  0.00000000000E+00 -0.35527136788E-14 -0.35527136788E-14  0.91188000000E+02  0.91188000000E+02 0.  0.
    9900012    2    3    3    0    0 -0.22591285795E+02 -0.21104983366E+02 -0.19999825501E+02  0.54367088322E+02  0.40000009447E+02 0.  0.
        -12    1    3    3    0    0  0.22591285795E+02  0.21104983366E+02  0.19999825501E+02  0.36820911678E+02  0.00000000000E+00 0.  1.
         11    1    4    4    0    0  0.95144707113E+00 -0.14958929509E+02 -0.21903922295E+02  0.26541601981E+02  0.51100000000E-03 0. -1.
        -11    1    4    4    0    0 -0.49664919359E+01  0.88324499021E+00 -0.46999557019E+01  0.68946173007E+01  0.51100000000E-03 0.  1.
        -12    1    4    4    0    0 -0.18576240930E+02 -0.70292988474E+01  0.66040524955E+01  0.20930869040E+02  0.00000000000E+00 0.  1.
</event>
<event>
 8    1  0.2531964E-006  0.9118800E+02  0.7816164E-02  0.1184000E+00
        -11   -1    0    0    0    0  0.00000000000E+00  0.00000000000E+00  0.45593999997E+02  0.45594000000E+02  0.51100000000E-03 0. -1.
         11   -1    0    0    0    0 -0.00000000000E+00 -0.00000000000E+00 -0.45593999997E+02  0.45594000000E+02  0.51100000000E-03 0.  1.
         23    2    1    2    0    0  0.17763568394E-14  0.35527136788E-14 -0.17763568394E-14  0.91188000000E+02  0.91188000000E+02 0.  0.
    9900012    2    3    3    0    0 -0.15348017265E+02  0.31800124350E+02 -0.10438815014E+02  0.54367103738E+02  0.40000044592E+02 0.  0.
         12    1    3    3    0    0  0.15348017265E+02 -0.31800124350E+02  0.10438815014E+02  0.36820896262E+02  0.00000000000E+00 0. -1.
         11    1    4    4    0    0  0.33511263300E+01  0.45498623550E+01  0.59238603600E+01  0.81867830650E+01  0.51100000000E-03 0. -1.
        -11    1    4    4    0    0 -0.18493939653E+02  0.74690559062E+01  0.84223399146E+00  0.19963014762E+02  0.51100000000E-03 0.  1.
        -12    1    4    4    0    0 -0.20520394218E+00  0.19781206089E+02 -0.17204909365E+02  0.26217305911E+02  0.00000000000E+00 0.  1.
</event>
<event>
 8    1  0.2531964E-006  0.9118800E+02  0.7816164E-02  0.1184000E+00
        -11   -1    0    0    0    0  0.00000000000E+00  0.00000000000E+00  0.45593999997E+02  0.45594000000E+02  0.51100000000E-03 0. -1.
         11   -1    0    0    0    0 -0.00000000000E+00 -0.00000000000E+00 -0.45593999997E+02  0.45594000000E+02  0.51100000000E-03 0.  1.
         23    2    1    2    0    0  0.00000000000E+00 -0.35527136788E-14  0.00000000000E+00  0.91188000000E+02  0.91188000000E+02 0.  0.
    9900012    2    3    3    0    0  0.17830550172E+02  0.25676060858E+02 -0.19457427392E+02  0.54367080656E+02  0.39999991971E+02 0.  0.
         12    1    3    3    0    0 -0.17830550172E+02 -0.25676060858E+02  0.19457427392E+02  0.36820919344E+02  0.00000000000E+00 0. -1.
         11    1    4    4    0    0  0.14450402621E+02  0.60483231535E+01 -0.84266439964E+01  0.17787767656E+02  0.51100000000E-03 0. -1.
        -11    1    4    4    0    0  0.12348760924E+02  0.10445783558E+02 -0.16060665730E+02  0.22793667420E+02  0.51100000000E-03 0.  1.
         12    1    4    4    0    0 -0.89686133719E+01  0.91819541464E+01  0.50298823346E+01  0.13785645580E+02  0.00000000000E+00 0. -1.
</event>
<event>
 8    1  0.2531964E-006  0.9118800E+02  0.7816164E-02  0.1184000E+00
        -11   -1    0    0    0    0  0.00000000000E+00  0.00000000000E+00  0.45593999997E+02  0.45594000000E+02  0.51100000000E-03 0. -1.
         11   -1    0    0    0    0 -0.00000000000E+00 -0.00000000000E+00 -0.45593999997E+02  0.45594000000E+02  0.51100000000E-03 0.  1.
         23    2    1    2    0    0  0.35527136788E-14  0.00000000000E+00  0.00000000000E+00  0.91188000000E+02  0.91188000000E+02 0.  0.
    9900012    2    3    3    0    0  0.29494116490E+02  0.19933494951E+02 -0.94090898222E+01  0.54367107836E+02  0.40000053934E+02 0.  0.
         12    1    3    3    0    0 -0.29494116490E+02 -0.19933494951E+02  0.94090898222E+01  0.36820892164E+02  0.00000000000E+00 0. -1.
         11    1    4    4    0    0 -0.34658398433E+01 -0.36277762600E+01 -0.27773618954E+01  0.57346792213E+01  0.51100000000E-03 0. -1.
        -11    1    4    4    0    0  0.24774630561E+02  0.74976808261E+01  0.60601335504E+01  0.26584257674E+02  0.51100000000E-03 0.  1.
         12    1    4    4    0    0  0.81853257721E+01  0.16063590385E+02 -0.12691861477E+02  0.22048170940E+02  0.00000000000E+00 0. -1.
</event>
<event>
 8    1  0.2531964E-006  0.9118800E+02  0.7816164E-02  0.1184000E+00
        -11   -1    0    0    0    0  0.00000000000E+00  0.00000000000E+00  0.45593999997E+02  0.45594000000E+02  0.51100000000E-03 0.  1.
         11   -1    0    0    0    0 -0.00000000000E+00 -0.00000000000E+00 -0.45593999997E+02  0.45594000000E+02  0.51100000000E-03 0. -1.
         23    2    1    2    0    0 -0.35527136788E-14  0.35527136788E-14  0.00000000000E+00  0.91188000000E+02  0.91188000000E+02 0.  0.
    9900012    2    3    3    0    0  0.24260159632E+02 -0.25360925487E+02 -0.11137546182E+02  0.54367125189E+02  0.40000093493E+02 0.  0.
        -12    1    3    3    0    0 -0.24260159632E+02  0.25360925487E+02  0.11137546182E+02  0.36820874811E+02  0.00000000000E+00 0.  1.
         11    1    4    4    0    0  0.59457509238E+01 -0.12098121226E+02 -0.11481791254E+02  0.17707287254E+02  0.51100000000E-03 0. -1.
        -11    1    4    4    0    0 -0.16591618014E+01  0.40132353260E+01  0.80529960676E+01  0.91492962348E+01  0.51100000000E-03 0.  1.
         12    1    4    4    0    0  0.19973570509E+02 -0.17276039587E+02 -0.77087509954E+01  0.27510541700E+02  0.00000000000E+00 0. -1.
</event>
<event>
 8    1  0.2531964E-006  0.9118800E+02  0.7816164E-02  0.1184000E+00
        -11   -1    0    0    0    0  0.00000000000E+00  0.00000000000E+00  0.45593999997E+02  0.45594000000E+02  0.51100000000E-03 0.  1.
         11   -1    0    0    0    0 -0.00000000000E+00 -0.00000000000E+00 -0.45593999997E+02  0.45594000000E+02  0.51100000000E-03 0. -1.
         23    2    1    2    0    0  0.00000000000E+00  0.00000000000E+00 -0.13322676296E-14  0.91188000000E+02  0.91188000000E+02 0.  0.
    9900012    2    3    3    0    0  0.29477089531E+02  0.21770018871E+02 -0.35983496967E+01  0.54367073214E+02  0.39999975006E+02 0.  0.
        -12    1    3    3    0    0 -0.29477089531E+02 -0.21770018871E+02  0.35983496967E+01  0.36820926786E+02  0.00000000000E+00 0.  1.
         11    1    4    4    0    0  0.12229207292E+02  0.13489681567E+02 -0.45707683184E+01  0.18772771320E+02  0.51100000000E-03 0.  1.
        -11    1    4    4    0    0  0.12677850235E+02  0.15588131784E+02  0.10562744812E+02  0.22699984963E+02  0.51100000000E-03 0. -1.
        -12    1    4    4    0    0  0.45700320032E+01 -0.73077944797E+01 -0.95903261907E+01  0.12894316931E+02  0.00000000000E+00 0.  1.
</event>
<event>
 8    1  0.2531964E-006  0.9118800E+02  0.7816164E-02  0.1184000E+00
        -11   -1    0    0    0    0  0.00000000000E+00  0.00000000000E+00  0.45593999997E+02  0.45594000000E+02  0.51100000000E-03 0.  1.
         11   -1    0    0    0    0 -0.00000000000E+00 -0.00000000000E+00 -0.45593999997E+02  0.45594000000E+02  0.51100000000E-03 0. -1.
         23    2    1    2    0    0 -0.35527136788E-14  0.00000000000E+00 -0.35527136788E-14  0.91188000000E+02  0.91188000000E+02 0.  0.
    9900012    2    3    3    0    0  0.18123620315E+02  0.21017892379E+01 -0.31982732844E+02  0.54367104689E+02  0.40000046760E+02 0.  0.
        -12    1    3    3    0    0 -0.18123620315E+02 -0.21017892379E+01  0.31982732844E+02  0.36820895311E+02  0.00000000000E+00 0.  1.
         11    1    4    4    0    0  0.64194014827E+01  0.15949494907E+02 -0.18209691396E+02  0.25043721053E+02  0.51100000000E-03 0. -1.
        -11    1    4    4    0    0  0.22037771136E+01 -0.60396266029E+01  0.41023852103E+01  0.76264859368E+01  0.51100000000E-03 0.  1.
         12    1    4    4    0    0  0.95004417186E+01 -0.78080790665E+01 -0.17875426658E+02  0.21696897699E+02  0.00000000000E+00 0. -1.
</event>
<event>
 8    1  0.2531964E-006  0.9118800E+02  0.7816164E-02  0.1184000E+00
        -11   -1    0    0    0    0  0.00000000000E+00  0.00000000000E+00  0.45593999997E+02  0.45594000000E+02  0.51100000000E-03 0.  1.
         11   -1    0    0    0    0 -0.00000000000E+00 -0.00000000000E+00 -0.45593999997E+02  0.45594000000E+02  0.51100000000E-03 0. -1.
         23    2    1    2    0    0 -0.44408920985E-15 -0.35527136788E-14  0.00000000000E+00  0.91188000000E+02  0.91188000000E+02 0.  0.
    9900012    2    3    3    0    0  0.34031122336E+01  0.30627134969E+02 -0.20153824982E+02  0.54367092479E+02  0.40000018924E+02 0.  0.
        -12    1    3    3    0    0 -0.34031122336E+01 -0.30627134969E+02  0.20153824982E+02  0.36820907521E+02  0.00000000000E+00 0.  1.
         11    1    4    4    0    0 -0.12704266623E+01  0.23597992199E+02 -0.25731915419E+02  0.34937239317E+02  0.51100000000E-03 0. -1.
        -11    1    4    4    0    0 -0.23302282346E+01 -0.44406819683E+01  0.26633442956E+01  0.56782940279E+01  0.51100000000E-03 0.  1.
         12    1    4    4    0    0  0.70037671305E+01  0.11469824738E+02  0.29147461415E+01  0.13751559134E+02  0.00000000000E+00 0. -1.
</event>
<event>
 8    1  0.2531964E-006  0.9118800E+02  0.7816164E-02  0.1184000E+00
        -11   -1    0    0    0    0  0.00000000000E+00  0.00000000000E+00  0.45593999997E+02  0.45594000000E+02  0.51100000000E-03 0.  1.
         11   -1    0    0    0    0 -0.00000000000E+00 -0.00000000000E+00 -0.45593999997E+02  0.45594000000E+02  0.51100000000E-03 0. -1.
         23    2    1    2    0    0  0.00000000000E+00  0.00000000000E+00  0.00000000000E+00  0.91188000000E+02  0.91188000000E+02 0.  0.
    9900012    2    3    3    0    0  0.14917297634E+02  0.23736914170E+02  0.23870746005E+02  0.54367090480E+02  0.40000014368E+02 0.  0.
         12    1    3    3    0    0 -0.14917297634E+02 -0.23736914170E+02 -0.23870746005E+02  0.36820909520E+02  0.00000000000E+00 0. -1.
         11    1    4    4    0    0  0.89878035336E+00  0.22021181844E+02 -0.45309032977E+01  0.22500429793E+02  0.51100000000E-03 0. -1.
        -11    1    4    4    0    0  0.79009200082E+01 -0.54370365434E+00  0.16159296226E+02  0.17995638511E+02  0.51100000000E-03 0.  1.
         12    1    4    4    0    0  0.61175972728E+01  0.22594359799E+01  0.12242353077E+02  0.13871022176E+02  0.00000000000E+00 0. -1.
</event>
<event>
 8    1  0.2531964E-006  0.9118800E+02  0.7816164E-02  0.1184000E+00
        -11   -1    0    0    0    0  0.00000000000E+00  0.00000000000E+00  0.45593999997E+02  0.45594000000E+02  0.51100000000E-03 0. -1.
         11   -1    0    0    0    0 -0.00000000000E+00 -0.00000000000E+00 -0.45593999997E+02  0.45594000000E+02  0.51100000000E-03 0.  1.
         23    2    1    2    0    0  0.88817841970E-15  0.00000000000E+00  0.35527136788E-14  0.91188000000E+02  0.91188000000E+02 0.  0.
    9900012    2    3    3    0    0 -0.12093781619E+01  0.20657864211E+02 -0.30456030179E+02  0.54367085786E+02  0.40000003666E+02 0.  0.
         12    1    3    3    0    0  0.12093781619E+01 -0.20657864211E+02  0.30456030179E+02  0.36820914214E+02  0.00000000000E+00 0. -1.
         11    1    4    4    0    0 -0.80484433772E+01  0.45894564941E+01  0.27669574484E+01  0.96693642753E+01  0.51100000000E-03 0. -1.
        -11    1    4    4    0    0 -0.13095022652E+01 -0.38405756007E+01  0.10876904546E+01  0.42009389323E+01  0.51100000000E-03 0.  1.
        -12    1    4    4    0    0  0.81485674804E+01  0.19908983318E+02 -0.34310678082E+02  0.40496782578E+02  0.00000000000E+00 0.  1.
</event>
<event>
 8    1  0.2531964E-006  0.9118800E+02  0.7816164E-02  0.1184000E+00
        -11   -1    0    0    0    0  0.00000000000E+00  0.00000000000E+00  0.45593999997E+02  0.45594000000E+02  0.51100000000E-03 0.  1.
         11   -1    0    0    0    0 -0.00000000000E+00 -0.00000000000E+00 -0.45593999997E+02  0.45594000000E+02  0.51100000000E-03 0. -1.
         23    2    1    2    0    0 -0.88817841970E-15 -0.71054273576E-14  0.00000000000E+00  0.91188000000E+02  0.91188000000E+02 0.  0.
    9900012    2    3    3    0    0  0.48059329441E+01 -0.33621301228E+02 -0.14222901993E+02  0.54367084356E+02  0.40000000407E+02 0.  0.
        -12    1    3    3    0    0 -0.48059329441E+01  0.33621301228E+02  0.14222901993E+02  0.36820915644E+02  0.00000000000E+00 0.  1.
         11    1    4    4    0    0 -0.52028906683E+01 -0.35098677612E+01 -0.82392930692E+01  0.10357373873E+02  0.51100000000E-03 0. -1.
        -11    1    4    4    0    0  0.19418828363E+02 -0.13355237176E+02 -0.74991765913E+01  0.24732385749E+02  0.51100000000E-03 0.  1.
         12    1    4    4    0    0 -0.94100047508E+01 -0.16756196291E+02  0.15155676671E+01  0.19277324734E+02  0.00000000000E+00 0. -1.
</event>
<event>
 8    1  0.2531964E-006  0.9118800E+02  0.7816164E-02  0.1184000E+00
        -11   -1    0    0    0    0  0.00000000000E+00  0.00000000000E+00  0.45593999997E+02  0.45594000000E+02  0.51100000000E-03 0. -1.
         11   -1    0    0    0    0 -0.00000000000E+00 -0.00000000000E+00 -0.45593999997E+02  0.45594000000E+02  0.51100000000E-03 0.  1.
         23    2    1    2    0    0 -0.17763568394E-14 -0.35527136788E-14  0.00000000000E+00  0.91188000000E+02  0.91188000000E+02 0.  0.
    9900012    2    3    3    0    0  0.10855205026E+02  0.13954077097E+02  0.32299026768E+02  0.54367097323E+02  0.40000029967E+02 0.  0.
        -12    1    3    3    0    0 -0.10855205026E+02 -0.13954077097E+02 -0.32299026768E+02  0.36820902677E+02  0.00000000000E+00 0.  1.
         11    1    4    4    0    0  0.23815034406E+01 -0.94347647204E+01  0.18329292378E+02  0.20752091541E+02  0.51100000000E-03 0.  1.
        -11    1    4    4    0    0  0.11861815086E+02  0.24319257765E+02  0.12204982016E+02  0.29683169333E+02  0.51100000000E-03 0. -1.
         12    1    4    4    0    0 -0.33881135003E+01 -0.93041594681E+00  0.17647523737E+01  0.39318364495E+01  0.00000000000E+00 0. -1.
</event>
<event>
 8    1  0.2531964E-006  0.9118800E+02  0.7816164E-02  0.1184000E+00
        -11   -1    0    0    0    0  0.00000000000E+00  0.00000000000E+00  0.45593999997E+02  0.45594000000E+02  0.51100000000E-03 0. -1.
         11   -1    0    0    0    0 -0.00000000000E+00 -0.00000000000E+00 -0.45593999997E+02  0.45594000000E+02  0.51100000000E-03 0.  1.
         23    2    1    2    0    0  0.00000000000E+00 -0.44408920985E-15  0.00000000000E+00  0.91188000000E+02  0.91188000000E+02 0.  0.
    9900012    2    3    3    0    0 -0.18928314470E+02  0.35440959969E+01 -0.31383711711E+02  0.54367094716E+02  0.40000024025E+02 0.  0.
         12    1    3    3    0    0  0.18928314470E+02 -0.35440959969E+01  0.31383711711E+02  0.36820905284E+02  0.00000000000E+00 0. -1.
         11    1    4    4    0    0  0.11411415069E+02  0.35146710117E+00 -0.12786540039E+02  0.17141748144E+02  0.51100000000E-03 0. -1.
        -11    1    4    4    0    0 -0.18365111833E+02  0.57387153386E+01 -0.15200086891E+02  0.24520457339E+02  0.51100000000E-03 0.  1.
        -12    1    4    4    0    0 -0.11974617707E+02 -0.25460864429E+01 -0.33970847811E+01  0.12704889233E+02  0.00000000000E+00 0.  1.
</event>
<event>
 8    1  0.2531964E-006  0.9118800E+02  0.7816164E-02  0.1184000E+00
        -11   -1    0    0    0    0  0.00000000000E+00  0.00000000000E+00  0.45593999997E+02  0.45594000000E+02  0.51100000000E-03 0.  1.
         11   -1    0    0    0    0 -0.00000000000E+00 -0.00000000000E+00 -0.45593999997E+02  0.45594000000E+02  0.51100000000E-03 0. -1.
         23    2    1    2    0    0 -0.17763568394E-14 -0.10658141036E-13  0.35527136788E-14  0.91188000000E+02  0.91188000000E+02 0.  0.
    9900012    2    3    3    0    0 -0.11971490644E+02 -0.30541713448E+02  0.16723236635E+02  0.54367088928E+02  0.40000010830E+02 0.  0.
         12    1    3    3    0    0  0.11971490644E+02  0.30541713448E+02 -0.16723236635E+02  0.36820911072E+02  0.00000000000E+00 0. -1.
         11    1    4    4    0    0  0.19866595580E+01 -0.11693010060E+01 -0.14467646730E+01  0.27216188789E+01  0.51100000000E-03 0. -1.
        -11    1    4    4    0    0 -0.15257916622E+02  0.32153103512E+01  0.77135322611E+01  0.17396574965E+02  0.51100000000E-03 0.  1.
         12    1    4    4    0    0  0.12997664199E+01 -0.32587722793E+02  0.10456469047E+02  0.34248895085E+02  0.00000000000E+00 0. -1.
</event>
<event>
 8    1  0.2531964E-006  0.9118800E+02  0.7816164E-02  0.1184000E+00
        -11   -1    0    0    0    0  0.00000000000E+00  0.00000000000E+00  0.45593999997E+02  0.45594000000E+02  0.51100000000E-03 0. -1.
         11   -1    0    0    0    0 -0.00000000000E+00 -0.00000000000E+00 -0.45593999997E+02  0.45594000000E+02  0.51100000000E-03 0.  1.
         23    2    1    2    0    0 -0.88817841970E-15 -0.35527136788E-14 -0.35527136788E-14  0.91188000000E+02  0.91188000000E+02 0.  0.
    9900012    2    3    3    0    0  0.59939402458E+01  0.18865180080E+02  0.31047682995E+02  0.54367069017E+02  0.39999965437E+02 0.  0.
        -12    1    3    3    0    0 -0.59939402458E+01 -0.18865180080E+02 -0.31047682995E+02  0.36820930983E+02  0.00000000000E+00 0.  1.
         11    1    4    4    0    0 -0.69012563053E+01  0.23289344640E+02  0.18325673498E+02  0.30427803433E+02  0.51100000000E-03 0. -1.
        -11    1    4    4    0    0  0.13807559285E+02  0.84321519252E+00  0.12410464431E+02  0.18584384115E+02  0.51100000000E-03 0.  1.
         12    1    4    4    0    0 -0.91236273401E+00 -0.52673797524E+01  0.31154506638E+00  0.53548814686E+01  0.00000000000E+00 0. -1.
</event>
<event>
 8    1  0.2531964E-006  0.9118800E+02  0.7816164E-02  0.1184000E+00
        -11   -1    0    0    0    0  0.00000000000E+00  0.00000000000E+00  0.45593999997E+02  0.45594000000E+02  0.51100000000E-03 0.  1.
         11   -1    0    0    0    0 -0.00000000000E+00 -0.00000000000E+00 -0.45593999997E+02  0.45594000000E+02  0.51100000000E-03 0. -1.
         23    2    1    2    0    0  0.00000000000E+00  0.00000000000E+00  0.35527136788E-14  0.91188000000E+02  0.91188000000E+02 0.  0.
    9900012    2    3    3    0    0 -0.33412047127E+02  0.66580119623E+01  0.13967352211E+02  0.54367069209E+02  0.39999965875E+02 0.  0.
         12    1    3    3    0    0  0.33412047127E+02 -0.66580119623E+01 -0.13967352211E+02  0.36820930791E+02  0.00000000000E+00 0. -1.
         11    1    4    4    0    0  0.26819898691E+01 -0.25764291769E+01 -0.49135938888E+01  0.61623422598E+01  0.51100000000E-03 0.  1.
        -11    1    4    4    0    0 -0.13483832388E+00 -0.54920233629E+01  0.24766506982E+01  0.60261348254E+01  0.51100000000E-03 0. -1.
        -12    1    4    4    0    0 -0.35959198673E+02  0.14726464502E+02  0.16404295402E+02  0.42178592124E+02  0.00000000000E+00 0.  1.
</event>
<event>
 8    1  0.2531964E-006  0.9118800E+02  0.7816164E-02  0.1184000E+00
        -11   -1    0    0    0    0  0.00000000000E+00  0.00000000000E+00  0.45593999997E+02  0.45594000000E+02  0.51100000000E-03 0.  1.
         11   -1    0    0    0    0 -0.00000000000E+00 -0.00000000000E+00 -0.45593999997E+02  0.45594000000E+02  0.51100000000E-03 0. -1.
         23    2    1    2    0    0  0.35527136788E-14  0.00000000000E+00 -0.17763568394E-14  0.91188000000E+02  0.91188000000E+02 0.  0.
    9900012    2    3    3    0    0 -0.26472624398E+02  0.21121000217E+02  0.14452779433E+02  0.54367091184E+02  0.40000015972E+02 0.  0.
         12    1    3    3    0    0  0.26472624398E+02 -0.21121000217E+02 -0.14452779433E+02  0.36820908816E+02  0.00000000000E+00 0. -1.
         11    1    4    4    0    0 -0.14363482709E+02  0.81420200503E+01 -0.10706582041E+02  0.19678237352E+02  0.51100000000E-03 0. -1.
        -11    1    4    4    0    0 -0.24658996474E+01  0.13403430225E+02  0.10810240384E+02  0.17395226365E+02  0.51100000000E-03 0.  1.
         12    1    4    4    0    0 -0.96432420417E+01 -0.42445005792E+00  0.14349121090E+02  0.17293627467E+02  0.00000000000E+00 0. -1.
</event>
<event>
 8    1  0.2531964E-006  0.9118800E+02  0.7816164E-02  0.1184000E+00
        -11   -1    0    0    0    0  0.00000000000E+00  0.00000000000E+00  0.45593999997E+02  0.45594000000E+02  0.51100000000E-03 0. -1.
         11   -1    0    0    0    0 -0.00000000000E+00 -0.00000000000E+00 -0.45593999997E+02  0.45594000000E+02  0.51100000000E-03 0.  1.
         23    2    1    2    0    0  0.00000000000E+00 -0.71054273576E-14 -0.17763568394E-14  0.91188000000E+02  0.91188000000E+02 0.  0.
    9900012    2    3    3    0    0 -0.67880118836E+01 -0.33559496627E+02 -0.13544847642E+02  0.54367084519E+02  0.40000000778E+02 0.  0.
         12    1    3    3    0    0  0.67880118836E+01  0.33559496627E+02  0.13544847642E+02  0.36820915481E+02  0.00000000000E+00 0. -1.
         11    1    4    4    0    0 -0.64834558148E+01  0.19494633585E+01 -0.15246057802E+02  0.16681663150E+02  0.51100000000E-03 0. -1.
        -11    1    4    4    0    0 -0.45845265286E+01 -0.27203733048E+02 -0.19453735264E+01  0.27655839413E+02  0.51100000000E-03 0.  1.
         12    1    4    4    0    0  0.42799704598E+01 -0.83052269381E+01  0.36465836861E+01  0.10029581956E+02  0.00000000000E+00 0. -1.
</event>
<event>
 8    1  0.2531964E-006  0.9118800E+02  0.7816164E-02  0.1184000E+00
        -11   -1    0    0    0    0  0.00000000000E+00  0.00000000000E+00  0.45593999997E+02  0.45594000000E+02  0.51100000000E-03 0. -1.
         11   -1    0    0    0    0 -0.00000000000E+00 -0.00000000000E+00 -0.45593999997E+02  0.45594000000E+02  0.51100000000E-03 0.  1.
         23    2    1    2    0    0  0.00000000000E+00  0.88817841970E-15  0.35527136788E-14  0.91188000000E+02  0.91188000000E+02 0.  0.
    9900012    2    3    3    0    0 -0.19487434129E+02  0.50387848861E+01  0.30832307339E+02  0.54367073641E+02  0.39999975980E+02 0.  0.
        -12    1    3    3    0    0  0.19487434129E+02 -0.50387848861E+01 -0.30832307339E+02  0.36820926359E+02  0.00000000000E+00 0.  1.
         11    1    4    4    0    0 -0.67395607386E+01  0.32391591174E+01  0.60245989572E+01  0.96025842143E+01  0.51100000000E-03 0. -1.
        -11    1    4    4    0    0  0.49215986993E+01 -0.13198306674E+01  0.26272507061E+02  0.26762076046E+02  0.51100000000E-03 0.  1.
        -12    1    4    4    0    0 -0.17669472089E+02  0.31194564362E+01 -0.14647986791E+01  0.18002413381E+02  0.00000000000E+00 0.  1.
</event>
<event>
 8    1  0.2531964E-006  0.9118800E+02  0.7816164E-02  0.1184000E+00
        -11   -1    0    0    0    0  0.00000000000E+00  0.00000000000E+00  0.45593999997E+02  0.45594000000E+02  0.51100000000E-03 0.  1.
         11   -1    0    0    0    0 -0.00000000000E+00 -0.00000000000E+00 -0.45593999997E+02  0.45594000000E+02  0.51100000000E-03 0. -1.
         23    2    1    2    0    0  0.00000000000E+00  0.00000000000E+00 -0.35527136788E-14  0.91188000000E+02  0.91188000000E+02 0.  0.
    9900012    2    3    3    0    0 -0.29209731967E+02 -0.10482251712E+02 -0.19816528664E+02  0.54367070478E+02  0.39999968770E+02 0.  0.
        -12    1    3    3    0    0  0.29209731967E+02  0.10482251712E+02  0.19816528664E+02  0.36820929522E+02  0.00000000000E+00 0.  1.
         11    1    4    4    0    0 -0.25158256526E+02  0.53427920762E+01 -0.16583570862E+02  0.30602256803E+02  0.51100000000E-03 0. -1.
        -11    1    4    4    0    0 -0.15273011390E+01 -0.14998478910E+02 -0.88994063777E+01  0.17506754483E+02  0.51100000000E-03 0.  1.
        -12    1    4    4    0    0 -0.25241743019E+01 -0.82656487772E+00  0.56664485756E+01  0.62580591930E+01  0.00000000000E+00 0.  1.
</event>
<event>
 8    1  0.2531964E-006  0.9118800E+02  0.7816164E-02  0.1184000E+00
        -11   -1    0    0    0    0  0.00000000000E+00  0.00000000000E+00  0.45593999997E+02  0.45594000000E+02  0.51100000000E-03 0.  1.
         11   -1    0    0    0    0 -0.00000000000E+00 -0.00000000000E+00 -0.45593999997E+02  0.45594000000E+02  0.51100000000E-03 0. -1.
         23    2    1    2    0    0 -0.71054273576E-14  0.17763568394E-14  0.00000000000E+00  0.91188000000E+02  0.91188000000E+02 0.  0.
    9900012    2    3    3    0    0 -0.32848893392E+02 -0.12424906748E+02 -0.11061226033E+02  0.54367097973E+02  0.40000031448E+02 0.  0.
        -12    1    3    3    0    0  0.32848893392E+02  0.12424906748E+02  0.11061226033E+02  0.36820902027E+02  0.00000000000E+00 0.  1.
         11    1    4    4    0    0 -0.32435564518E+02 -0.45426235550E+01 -0.16869889139E+02  0.36841477090E+02  0.51100000000E-03 0. -1.
        -11    1    4    4    0    0 -0.36071232339E+01 -0.34973767969E+01 -0.39295314621E+01  0.63784167516E+01  0.51100000000E-03 0.  1.
        -12    1    4    4    0    0  0.31937943599E+01 -0.43849063960E+01  0.97381945674E+01  0.11147204131E+02  0.00000000000E+00 0.  1.
</event>
<event>
 8    1  0.2531964E-006  0.9118800E+02  0.7816164E-02  0.1184000E+00
        -11   -1    0    0    0    0  0.00000000000E+00  0.00000000000E+00  0.45593999997E+02  0.45594000000E+02  0.51100000000E-03 0. -1.
         11   -1    0    0    0    0 -0.00000000000E+00 -0.00000000000E+00 -0.45593999997E+02  0.45594000000E+02  0.51100000000E-03 0.  1.
         23    2    1    2    0    0 -0.35527136788E-14  0.00000000000E+00  0.00000000000E+00  0.91188000000E+02  0.91188000000E+02 0.  0.
    9900012    2    3    3    0    0  0.28674541305E+02 -0.12209311845E+02  0.19608213510E+02  0.54367100339E+02  0.40000036843E+02 0.  0.
        -12    1    3    3    0    0 -0.28674541305E+02  0.12209311845E+02 -0.19608213510E+02  0.36820899661E+02  0.00000000000E+00 0.  1.
         11    1    4    4    0    0  0.10573023274E+02  0.38942465889E+01  0.47061844907E+01  0.12210739141E+02  0.51100000000E-03 0. -1.
        -11    1    4    4    0    0 -0.60182741472E+01  0.38577395816E+01 -0.68716489323E+00  0.71815022274E+01  0.51100000000E-03 0.  1.
         12    1    4    4    0    0  0.24119792178E+02 -0.19961298016E+02  0.15589193913E+02  0.34974858971E+02  0.00000000000E+00 0. -1.
</event>
<event>
 8    1  0.2531964E-006  0.9118800E+02  0.7816164E-02  0.1184000E+00
        -11   -1    0    0    0    0  0.00000000000E+00  0.00000000000E+00  0.45593999997E+02  0.45594000000E+02  0.51100000000E-03 0.  1.
         11   -1    0    0    0    0 -0.00000000000E+00 -0.00000000000E+00 -0.45593999997E+02  0.45594000000E+02  0.51100000000E-03 0. -1.
         23    2    1    2    0    0  0.00000000000E+00  0.00000000000E+00  0.88817841970E-15  0.91188000000E+02  0.91188000000E+02 0.  0.
    9900012    2    3    3    0    0  0.24021596948E+02 -0.27500357886E+02 -0.47405582666E+01  0.54367086153E+02  0.40000004504E+02 0.  0.
        -12    1    3    3    0    0 -0.24021596948E+02  0.27500357886E+02  0.47405582666E+01  0.36820913847E+02  0.00000000000E+00 0.  1.
         11    1    4    4    0    0  0.16200146737E+01 -0.25317466218E+02 -0.10243412213E+02  0.27359203886E+02  0.51100000000E-03 0. -1.
        -11    1    4    4    0    0  0.10789887253E+02 -0.15279198412E+01  0.97539168115E+01  0.14625152970E+02  0.51100000000E-03 0.  1.
         12    1    4    4    0    0  0.11611695021E+02 -0.65497182737E+00 -0.42510628647E+01  0.12382729297E+02  0.00000000000E+00 0. -1.
</event>
<event>
 8    1  0.2531964E-006  0.9118800E+02  0.7816164E-02  0.1184000E+00
        -11   -1    0    0    0    0  0.00000000000E+00  0.00000000000E+00  0.45593999997E+02  0.45594000000E+02  0.51100000000E-03 0.  1.
         11   -1    0    0    0    0 -0.00000000000E+00 -0.00000000000E+00 -0.45593999997E+02  0.45594000000E+02  0.51100000000E-03 0. -1.
         23    2    1    2    0    0  0.00000000000E+00  0.00000000000E+00 -0.71054273576E-14  0.91188000000E+02  0.91188000000E+02 0.  0.
    9900012    2    3    3    0    0 -0.75293464137E+01  0.16513429394E+02  0.32037407801E+02  0.54367083303E+02  0.39999998007E+02 0.  0.
         12    1    3    3    0    0  0.75293464137E+01 -0.16513429394E+02 -0.32037407801E+02  0.36820916697E+02  0.00000000000E+00 0. -1.
         11    1    4    4    0    0  0.19749809079E+01 -0.34528356725E+01  0.10926482569E+01  0.41251065735E+01  0.51100000000E-03 0. -1.
        -11    1    4    4    0    0 -0.12109731316E+02  0.14417299206E+02  0.13549811587E+00  0.18828767059E+02  0.51100000000E-03 0.  1.
        -12    1    4    4    0    0  0.26054039944E+01  0.55489658599E+01  0.30809261428E+02  0.31413209671E+02  0.00000000000E+00 0.  1.
</event>
<event>
 8    1  0.2531964E-006  0.9118800E+02  0.7816164E-02  0.1184000E+00
        -11   -1    0    0    0    0  0.00000000000E+00  0.00000000000E+00  0.45593999997E+02  0.45594000000E+02  0.51100000000E-03 0.  1.
         11   -1    0    0    0    0 -0.00000000000E+00 -0.00000000000E+00 -0.45593999997E+02  0.45594000000E+02  0.51100000000E-03 0. -1.
         23    2    1    2    0    0 -0.71054273576E-14  0.00000000000E+00  0.44408920985E-15  0.91188000000E+02  0.91188000000E+02 0.  0.
    9900012    2    3    3    0    0  0.36319450890E+02  0.53217076382E+01 -0.28908754534E+01  0.54367078691E+02  0.39999987492E+02 0.  0.
        -12    1    3    3    0    0 -0.36319450890E+02 -0.53217076382E+01  0.28908754534E+01  0.36820921309E+02  0.00000000000E+00 0.  1.
         11    1    4    4    0    0  0.15552551195E+02  0.12252532302E+02 -0.15657799036E+02  0.25242287286E+02  0.51100000000E-03 0.  1.
        -11    1    4    4    0    0  0.10531962369E+02  0.37088905124E+01  0.74958620523E+01  0.13448644852E+02  0.51100000000E-03 0. -1.
        -12    1    4    4    0    0  0.10234937326E+02 -0.10639715177E+02  0.52710615305E+01  0.15676146554E+02  0.00000000000E+00 0.  1.
</event>
<event>
 8    1  0.2531964E-006  0.9118800E+02  0.7816164E-02  0.1184000E+00
        -11   -1    0    0    0    0  0.00000000000E+00  0.00000000000E+00  0.45593999997E+02  0.45594000000E+02  0.51100000000E-03 0. -1.
         11   -1    0    0    0    0 -0.00000000000E+00 -0.00000000000E+00 -0.45593999997E+02  0.45594000000E+02  0.51100000000E-03 0.  1.
         23    2    1    2    0    0  0.00000000000E+00  0.00000000000E+00 -0.35527136788E-14  0.91188000000E+02  0.91188000000E+02 0.  0.
    9900012    2    3    3    0    0 -0.21102790496E+02  0.13943928068E+02 -0.26758542787E+02  0.54367075123E+02  0.39999979359E+02 0.  0.
         12    1    3    3    0    0  0.21102790496E+02 -0.13943928068E+02  0.26758542787E+02  0.36820924877E+02  0.00000000000E+00 0. -1.
         11    1    4    4    0    0 -0.41142730535E+01  0.16976105839E+02 -0.21252544058E+02  0.27509744481E+02  0.51100000000E-03 0. -1.
        -11    1    4    4    0    0 -0.86903552229E-01  0.66227854954E+01 -0.28559266779E+01  0.72128466916E+01  0.51100000000E-03 0.  1.
         12    1    4    4    0    0 -0.16901613891E+02 -0.96549632670E+01 -0.26500720508E+01  0.19644483950E+02  0.00000000000E+00 0. -1.
</event>
<event>
 8    1  0.2531964E-006  0.9118800E+02  0.7816164E-02  0.1184000E+00
        -11   -1    0    0    0    0  0.00000000000E+00  0.00000000000E+00  0.45593999997E+02  0.45594000000E+02  0.51100000000E-03 0. -1.
         11   -1    0    0    0    0 -0.00000000000E+00 -0.00000000000E+00 -0.45593999997E+02  0.45594000000E+02  0.51100000000E-03 0.  1.
         23    2    1    2    0    0  0.44408920985E-15 -0.71054273576E-14 -0.66613381478E-15  0.91188000000E+02  0.91188000000E+02 0.  0.
    9900012    2    3    3    0    0  0.20000373902E+01 -0.36753873700E+02 -0.96565218226E+00  0.54367083856E+02  0.39999999268E+02 0.  0.
        -12    1    3    3    0    0 -0.20000373902E+01  0.36753873700E+02  0.96565218226E+00  0.36820916144E+02  0.00000000000E+00 0.  1.
         11    1    4    4    0    0  0.36716063558E+01 -0.33120804213E+02 -0.15734932524E+02  0.36851817686E+02  0.51100000000E-03 0. -1.
        -11    1    4    4    0    0  0.12349764061E+01 -0.31398144849E+00  0.12479911213E+02  0.12544797137E+02  0.51100000000E-03 0.  1.
         12    1    4    4    0    0 -0.29065453716E+01 -0.33190880387E+01  0.22893691291E+01  0.49704690337E+01  0.00000000000E+00 0. -1.
</event>
<event>
 8    1  0.2531964E-006  0.9118800E+02  0.7816164E-02  0.1184000E+00
        -11   -1    0    0    0    0  0.00000000000E+00  0.00000000000E+00  0.45593999997E+02  0.45594000000E+02  0.51100000000E-03 0. -1.
         11   -1    0    0    0    0 -0.00000000000E+00 -0.00000000000E+00 -0.45593999997E+02  0.45594000000E+02  0.51100000000E-03 0.  1.
         23    2    1    2    0    0  0.22204460493E-15  0.00000000000E+00  0.00000000000E+00  0.91188000000E+02  0.91188000000E+02 0.  0.
    9900012    2    3    3    0    0 -0.18813492283E+01 -0.24765372558E+02  0.27183026291E+02  0.54367081065E+02  0.39999992904E+02 0.  0.
         12    1    3    3    0    0  0.18813492283E+01  0.24765372558E+02 -0.27183026291E+02  0.36820918935E+02  0.00000000000E+00 0. -1.
         11    1    4    4    0    0 -0.22179820956E-01 -0.43514925717E+01 -0.94613049310E+01  0.10414042001E+02  0.51100000000E-03 0. -1.
        -11    1    4    4    0    0  0.38630975598E+01 -0.92887964557E+01  0.85629599524E+01  0.13210963090E+02  0.51100000000E-03 0.  1.
         12    1    4    4    0    0 -0.57222669672E+01 -0.11125083531E+02  0.28081371270E+02  0.30742075974E+02  0.00000000000E+00 0. -1.
</event>
<event>
 8    1  0.2531964E-006  0.9118800E+02  0.7816164E-02  0.1184000E+00
        -11   -1    0    0    0    0  0.00000000000E+00  0.00000000000E+00  0.45593999997E+02  0.45594000000E+02  0.51100000000E-03 0. -1.
         11   -1    0    0    0    0 -0.00000000000E+00 -0.00000000000E+00 -0.45593999997E+02  0.45594000000E+02  0.51100000000E-03 0.  1.
         23    2    1    2    0    0  0.71054273576E-14 -0.88817841970E-15 -0.17763568394E-14  0.91188000000E+02  0.91188000000E+02 0.  0.
    9900012    2    3    3    0    0 -0.36387062249E+02  0.15256881199E+01  0.54251467896E+01  0.54367105918E+02  0.40000049560E+02 0.  0.
         12    1    3    3    0    0  0.36387062249E+02 -0.15256881199E+01 -0.54251467896E+01  0.36820894082E+02  0.00000000000E+00 0. -1.
         11    1    4    4    0    0 -0.31614224228E+02 -0.12248079729E+02  0.13819824340E+02  0.36612322730E+02  0.51100000000E-03 0. -1.
        -11    1    4    4    0    0 -0.26554933294E+01  0.31871245716E+01 -0.48707204649E+01  0.63979157518E+01  0.51100000000E-03 0.  1.
         12    1    4    4    0    0 -0.21173446911E+01  0.10586643277E+02 -0.35239570855E+01  0.11356867436E+02  0.00000000000E+00 0. -1.
</event>
<event>
 8    1  0.2531964E-006  0.9118800E+02  0.7816164E-02  0.1184000E+00
        -11   -1    0    0    0    0  0.00000000000E+00  0.00000000000E+00  0.45593999997E+02  0.45594000000E+02  0.51100000000E-03 0.  1.
         11   -1    0    0    0    0 -0.00000000000E+00 -0.00000000000E+00 -0.45593999997E+02  0.45594000000E+02  0.51100000000E-03 0. -1.
         23    2    1    2    0    0 -0.17763568394E-14  0.00000000000E+00  0.00000000000E+00  0.91188000000E+02  0.91188000000E+02 0.  0.
    9900012    2    3    3    0    0 -0.95987835386E+01 -0.35408088483E+02  0.31480699436E+01  0.54367085837E+02  0.40000003782E+02 0.  0.
         12    1    3    3    0    0  0.95987835386E+01  0.35408088483E+02 -0.31480699436E+01  0.36820914163E+02  0.00000000000E+00 0. -1.
         11    1    4    4    0    0  0.33461217858E+01  0.49033292201E+01  0.68070623306E+01  0.90319026944E+01  0.51100000000E-03 0. -1.
        -11    1    4    4    0    0 -0.12510602820E+00 -0.25176932886E+02 -0.61830136075E-01  0.25177319641E+02  0.51100000000E-03 0.  1.
         12    1    4    4    0    0 -0.12819799296E+02 -0.15134484817E+02 -0.35971622509E+01  0.20157863501E+02  0.00000000000E+00 0. -1.
</event>
<event>
 8    1  0.2531964E-006  0.9118800E+02  0.7816164E-02  0.1184000E+00
        -11   -1    0    0    0    0  0.00000000000E+00  0.00000000000E+00  0.45593999997E+02  0.45594000000E+02  0.51100000000E-03 0.  1.
         11   -1    0    0    0    0 -0.00000000000E+00 -0.00000000000E+00 -0.45593999997E+02  0.45594000000E+02  0.51100000000E-03 0. -1.
         23    2    1    2    0    0  0.35527136788E-14  0.88817841970E-15  0.00000000000E+00  0.91188000000E+02  0.91188000000E+02 0.  0.
    9900012    2    3    3    0    0 -0.29381555879E+02 -0.50080810348E+01  0.21619967297E+02  0.54367086276E+02  0.40000004784E+02 0.  0.
         12    1    3    3    0    0  0.29381555879E+02  0.50080810348E+01 -0.21619967297E+02  0.36820913724E+02  0.00000000000E+00 0. -1.
         11    1    4    4    0    0  0.65255585576E+01 -0.62094813749E+01 -0.43118323792E+01  0.99866146497E+01  0.51100000000E-03 0. -1.
        -11    1    4    4    0    0 -0.30767615544E+02  0.21998327891E+00  0.21696617359E+02  0.37648874671E+02  0.51100000000E-03 0.  1.
         12    1    4    4    0    0 -0.51394988923E+01  0.98141706119E+00  0.42351823175E+01  0.67315969557E+01  0.00000000000E+00 0. -1.
</event>
<event>
 8    1  0.2531964E-006  0.9118800E+02  0.7816164E-02  0.1184000E+00
        -11   -1    0    0    0    0  0.00000000000E+00  0.00000000000E+00  0.45593999997E+02  0.45594000000E+02  0.51100000000E-03 0.  1.
         11   -1    0    0    0    0 -0.00000000000E+00 -0.00000000000E+00 -0.45593999997E+02  0.45594000000E+02  0.51100000000E-03 0. -1.
         23    2    1    2    0    0  0.17763568394E-14 -0.17763568394E-14  0.00000000000E+00  0.91188000000E+02  0.91188000000E+02 0.  0.
    9900012    2    3    3    0    0 -0.14673260091E+02 -0.44562605878E+01  0.33475562839E+02  0.54367134618E+02  0.40000114988E+02 0.  0.
         12    1    3    3    0    0  0.14673260091E+02  0.44562605878E+01 -0.33475562839E+02  0.36820865382E+02  0.00000000000E+00 0. -1.
         11    1    4    4    0    0 -0.18044638187E+02 -0.14413425626E+02  0.24722035028E+02  0.33830974296E+02  0.51100000000E-03 0. -1.
        -11    1    4    4    0    0  0.68250965840E+01 -0.10981569596E+01  0.23487213829E+01  0.73009851722E+01  0.51100000000E-03 0.  1.
         12    1    4    4    0    0 -0.34537184879E+01  0.11055321998E+02  0.64048064273E+01  0.13235175150E+02  0.00000000000E+00 0. -1.
</event>
<event>
 8    1  0.2531964E-006  0.9118800E+02  0.7816164E-02  0.1184000E+00
        -11   -1    0    0    0    0  0.00000000000E+00  0.00000000000E+00  0.45593999997E+02  0.45594000000E+02  0.51100000000E-03 0. -1.
         11   -1    0    0    0    0 -0.00000000000E+00 -0.00000000000E+00 -0.45593999997E+02  0.45594000000E+02  0.51100000000E-03 0.  1.
         23    2    1    2    0    0  0.00000000000E+00  0.00000000000E+00  0.00000000000E+00  0.91188000000E+02  0.91188000000E+02 0.  0.
    9900012    2    3    3    0    0 -0.10036646770E+02 -0.10591830466E+02  0.33806208629E+02  0.54367069907E+02  0.39999967467E+02 0.  0.
        -12    1    3    3    0    0  0.10036646770E+02  0.10591830466E+02 -0.33806208629E+02  0.36820930093E+02  0.00000000000E+00 0.  1.
         11    1    4    4    0    0 -0.20164428104E+02 -0.67775870901E+00  0.13420542701E+02  0.24231683480E+02  0.51100000000E-03 0. -1.
        -11    1    4    4    0    0  0.10370320977E+02 -0.50609205821E+01  0.27773192834E+01  0.11868865867E+02  0.51100000000E-03 0.  1.
         12    1    4    4    0    0 -0.24253964302E+00 -0.48531511752E+01  0.17608346645E+02  0.18266520560E+02  0.00000000000E+00 0. -1.
</event>
<event>
 8    1  0.2531964E-006  0.9118800E+02  0.7816164E-02  0.1184000E+00
        -11   -1    0    0    0    0  0.00000000000E+00  0.00000000000E+00  0.45593999997E+02  0.45594000000E+02  0.51100000000E-03 0.  1.
         11   -1    0    0    0    0 -0.00000000000E+00 -0.00000000000E+00 -0.45593999997E+02  0.45594000000E+02  0.51100000000E-03 0. -1.
         23    2    1    2    0    0  0.00000000000E+00 -0.17763568394E-14  0.17763568394E-14  0.91188000000E+02  0.91188000000E+02 0.  0.
    9900012    2    3    3    0    0  0.33826302152E+02 -0.97505993390E+01  0.10792910119E+02  0.54367084563E+02  0.40000000879E+02 0.  0.
         12    1    3    3    0    0 -0.33826302152E+02  0.97505993390E+01 -0.10792910119E+02  0.36820915437E+02  0.00000000000E+00 0. -1.
         11    1    4    4    0    0  0.16694913995E+02 -0.33109067596E+01 -0.45207714920E+01  0.17610213855E+02  0.51100000000E-03 0. -1.
        -11    1    4    4    0    0  0.16756905516E+02 -0.13778623536E+02  0.18722562413E+02  0.28656215602E+02  0.51100000000E-03 0.  1.
         12    1    4    4    0    0  0.37448264133E+00  0.73389309570E+01 -0.34088808022E+01  0.81006551071E+01  0.00000000000E+00 0. -1.
</event>
<event>
 8    1  0.2531964E-006  0.9118800E+02  0.7816164E-02  0.1184000E+00
        -11   -1    0    0    0    0  0.00000000000E+00  0.00000000000E+00  0.45593999997E+02  0.45594000000E+02  0.51100000000E-03 0.  1.
         11   -1    0    0    0    0 -0.00000000000E+00 -0.00000000000E+00 -0.45593999997E+02  0.45594000000E+02  0.51100000000E-03 0. -1.
         23    2    1    2    0    0 -0.17763568394E-14  0.17763568394E-14  0.00000000000E+00  0.91188000000E+02  0.91188000000E+02 0.  0.
    9900012    2    3    3    0    0  0.12043020476E+02 -0.90848888535E+01  0.33588851552E+02  0.54367075293E+02  0.39999979746E+02 0.  0.
         12    1    3    3    0    0 -0.12043020476E+02  0.90848888535E+01 -0.33588851552E+02  0.36820924707E+02  0.00000000000E+00 0. -1.
         11    1    4    4    0    0  0.57004793491E+01 -0.92414333354E+01  0.39892579991E+01  0.11567788663E+02  0.51100000000E-03 0. -1.
        -11    1    4    4    0    0  0.17564697527E+02  0.29850181560E+01  0.24140581700E+02  0.30003276783E+02  0.51100000000E-03 0.  1.
         12    1    4    4    0    0 -0.11222156401E+02 -0.28284736741E+01  0.54590118532E+01  0.12796009848E+02  0.00000000000E+00 0. -1.
</event>
<event>
 8    1  0.2531964E-006  0.9118800E+02  0.7816164E-02  0.1184000E+00
        -11   -1    0    0    0    0  0.00000000000E+00  0.00000000000E+00  0.45593999997E+02  0.45594000000E+02  0.51100000000E-03 0.  1.
         11   -1    0    0    0    0 -0.00000000000E+00 -0.00000000000E+00 -0.45593999997E+02  0.45594000000E+02  0.51100000000E-03 0. -1.
         23    2    1    2    0    0  0.00000000000E+00 -0.35527136788E-14  0.22204460493E-15  0.91188000000E+02  0.91188000000E+02 0.  0.
    9900012    2    3    3    0    0  0.32590694428E+02 -0.17030762889E+02 -0.18921256199E+01  0.54367076774E+02  0.39999983121E+02 0.  0.
         12    1    3    3    0    0 -0.32590694428E+02  0.17030762889E+02  0.18921256199E+01  0.36820923226E+02  0.00000000000E+00 0. -1.
         11    1    4    4    0    0  0.45921410370E+01 -0.21001081458E+02  0.55525766040E+01  0.22202799123E+02  0.51100000000E-03 0. -1.
        -11    1    4    4    0    0  0.21751942711E+02  0.59824703049E+01 -0.43764770780E+00  0.22563875962E+02  0.51100000000E-03 0.  1.
         12    1    4    4    0    0  0.62466106801E+01 -0.20121517362E+01 -0.70070545161E+01  0.96004016890E+01  0.00000000000E+00 0. -1.
</event>
<event>
 8    1  0.2531964E-006  0.9118800E+02  0.7816164E-02  0.1184000E+00
        -11   -1    0    0    0    0  0.00000000000E+00  0.00000000000E+00  0.45593999997E+02  0.45594000000E+02  0.51100000000E-03 0. -1.
         11   -1    0    0    0    0 -0.00000000000E+00 -0.00000000000E+00 -0.45593999997E+02  0.45594000000E+02  0.51100000000E-03 0.  1.
         23    2    1    2    0    0  0.00000000000E+00 -0.88817841970E-15  0.44408920985E-15  0.91188000000E+02  0.91188000000E+02 0.  0.
    9900012    2    3    3    0    0  0.35789360819E+02 -0.78472412672E+01 -0.36499772639E+01  0.54367083697E+02  0.39999998904E+02 0.  0.
        -12    1    3    3    0    0 -0.35789360819E+02  0.78472412672E+01  0.36499772639E+01  0.36820916303E+02  0.00000000000E+00 0.  1.
         11    1    4    4    0    0  0.57848640633E+01 -0.14309934397E+02 -0.30736894087E+01  0.15738057107E+02  0.51100000000E-03 0. -1.
        -11    1    4    4    0    0 -0.19914155931E+01  0.58369085887E+01 -0.22960684760E+01  0.65808182353E+01  0.51100000000E-03 0.  1.
        -12    1    4    4    0    0  0.31995912349E+02  0.62578454057E+00  0.17197806209E+01  0.32048208355E+02  0.00000000000E+00 0.  1.
</event>
<event>
 8    1  0.2531964E-006  0.9118800E+02  0.7816164E-02  0.1184000E+00
        -11   -1    0    0    0    0  0.00000000000E+00  0.00000000000E+00  0.45593999997E+02  0.45594000000E+02  0.51100000000E-03 0.  1.
         11   -1    0    0    0    0 -0.00000000000E+00 -0.00000000000E+00 -0.45593999997E+02  0.45594000000E+02  0.51100000000E-03 0. -1.
         23    2    1    2    0    0  0.17763568394E-14 -0.35527136788E-14  0.00000000000E+00  0.91188000000E+02  0.91188000000E+02 0.  0.
    9900012    2    3    3    0    0 -0.96185378234E+01  0.28283741328E+02  0.21524264087E+02  0.54367078802E+02  0.39999987746E+02 0.  0.
         12    1    3    3    0    0  0.96185378234E+01 -0.28283741328E+02 -0.21524264087E+02  0.36820921198E+02  0.00000000000E+00 0. -1.
         11    1    4    4    0    0 -0.10136771421E+02  0.19960928316E+02  0.23074148876E+02  0.32149792234E+02  0.51100000000E-03 0. -1.
        -11    1    4    4    0    0  0.48679273890E+01  0.15052459162E+01  0.81356189774E+01  0.95995197140E+01  0.51100000000E-03 0.  1.
         12    1    4    4    0    0 -0.43496937917E+01  0.68175670957E+01 -0.96855037664E+01  0.12617766855E+02  0.00000000000E+00 0. -1.
</event>
<event>
 8    1  0.2531964E-006  0.9118800E+02  0.7816164E-02  0.1184000E+00
        -11   -1    0    0    0    0  0.00000000000E+00  0.00000000000E+00  0.45593999997E+02  0.45594000000E+02  0.51100000000E-03 0. -1.
         11   -1    0    0    0    0 -0.00000000000E+00 -0.00000000000E+00 -0.45593999997E+02  0.45594000000E+02  0.51100000000E-03 0.  1.
         23    2    1    2    0    0 -0.17763568394E-14  0.12212453271E-14 -0.71054273576E-14  0.91188000000E+02  0.91188000000E+02 0.  0.
    9900012    2    3    3    0    0 -0.90450761587E+01 -0.64798519652E+00  0.35686789780E+02  0.54367078605E+02  0.39999987297E+02 0.  0.
        -12    1    3    3    0    0  0.90450761587E+01  0.64798519652E+00 -0.35686789780E+02  0.36820921395E+02  0.00000000000E+00 0.  1.
         11    1    4    4    0    0 -0.63217532027E+01 -0.94142601225E+01  0.12884728041E+02  0.17164179973E+02  0.51100000000E-03 0. -1.
        -11    1    4    4    0    0  0.12238086096E+02  0.29644703801E+01  0.59304624203E+01  0.13918664473E+02  0.51100000000E-03 0.  1.
         12    1    4    4    0    0 -0.14961409052E+02  0.58018045459E+01  0.16871599319E+02  0.23284234159E+02  0.00000000000E+00 0. -1.
</event>
<event>
 8    1  0.2531964E-006  0.9118800E+02  0.7816164E-02  0.1184000E+00
        -11   -1    0    0    0    0  0.00000000000E+00  0.00000000000E+00  0.45593999997E+02  0.45594000000E+02  0.51100000000E-03 0. -1.
         11   -1    0    0    0    0 -0.00000000000E+00 -0.00000000000E+00 -0.45593999997E+02  0.45594000000E+02  0.51100000000E-03 0.  1.
         23    2    1    2    0    0 -0.17763568394E-14 -0.17763568394E-14  0.00000000000E+00  0.91188000000E+02  0.91188000000E+02 0.  0.
    9900012    2    3    3    0    0 -0.15754118919E+02 -0.12160321207E+02  0.30979260878E+02  0.54367078239E+02  0.39999986462E+02 0.  0.
        -12    1    3    3    0    0  0.15754118919E+02  0.12160321207E+02 -0.30979260878E+02  0.36820921761E+02  0.00000000000E+00 0.  1.
         11    1    4    4    0    0  0.25130032381E+01  0.98608677356E+01  0.28042257314E+01  0.10555357881E+02  0.51100000000E-03 0. -1.
        -11    1    4    4    0    0 -0.38088532676E+01 -0.17235150327E+02  0.19427317258E+02  0.26248398544E+02  0.51100000000E-03 0.  1.
        -12    1    4    4    0    0 -0.14458268889E+02 -0.47860386158E+01  0.87477178881E+01  0.17563321814E+02  0.00000000000E+00 0.  1.
</event>
<event>
 8    1  0.2531964E-006  0.9118800E+02  0.7816164E-02  0.1184000E+00
        -11   -1    0    0    0    0  0.00000000000E+00  0.00000000000E+00  0.45593999997E+02  0.45594000000E+02  0.51100000000E-03 0. -1.
         11   -1    0    0    0    0 -0.00000000000E+00 -0.00000000000E+00 -0.45593999997E+02  0.45594000000E+02  0.51100000000E-03 0.  1.
         23    2    1    2    0    0  0.00000000000E+00  0.00000000000E+00  0.88817841970E-15  0.91188000000E+02  0.91188000000E+02 0.  0.
    9900012    2    3    3    0    0  0.25722075220E+02 -0.25899445723E+02  0.48338771840E+01  0.54367179653E+02  0.40000217654E+02 0.  0.
         12    1    3    3    0    0 -0.25722075220E+02  0.25899445723E+02 -0.48338771840E+01  0.36820820347E+02  0.00000000000E+00 0. -1.
         11    1    4    4    0    0 -0.18726845685E+01 -0.21505014486E+02  0.79437948117E+01  0.23001662371E+02  0.51100000000E-03 0. -1.
        -11    1    4    4    0    0  0.19513214683E+02 -0.88708013038E+01 -0.48198159727E+01  0.21970145409E+02  0.51100000000E-03 0.  1.
         12    1    4    4    0    0  0.80815451057E+01  0.44763700668E+01  0.17098983450E+01  0.93953718724E+01  0.00000000000E+00 0. -1.
</event>
<event>
 8    1  0.2531964E-006  0.9118800E+02  0.7816164E-02  0.1184000E+00
        -11   -1    0    0    0    0  0.00000000000E+00  0.00000000000E+00  0.45593999997E+02  0.45594000000E+02  0.51100000000E-03 0.  1.
         11   -1    0    0    0    0 -0.00000000000E+00 -0.00000000000E+00 -0.45593999997E+02  0.45594000000E+02  0.51100000000E-03 0. -1.
         23    2    1    2    0    0 -0.17763568394E-14  0.00000000000E+00  0.00000000000E+00  0.91188000000E+02  0.91188000000E+02 0.  0.
    9900012    2    3    3    0    0  0.28173343012E+01  0.35256542429E+02 -0.10238006697E+02  0.54367110036E+02  0.40000058948E+02 0.  0.
         12    1    3    3    0    0 -0.28173343012E+01 -0.35256542429E+02  0.10238006697E+02  0.36820889964E+02  0.00000000000E+00 0. -1.
         11    1    4    4    0    0  0.81928641989E+01  0.19735445064E+02 -0.58806312554E+01  0.22162866238E+02  0.51100000000E-03 0. -1.
        -11    1    4    4    0    0 -0.10282485125E+02  0.14065834793E+02  0.77425796095E+01  0.19066324974E+02  0.51100000000E-03 0.  1.
         12    1    4    4    0    0  0.49069552272E+01  0.14552625722E+01 -0.12099955051E+02  0.13137918823E+02  0.00000000000E+00 0. -1.
</event>
<event>
 8    1  0.2531964E-006  0.9118800E+02  0.7816164E-02  0.1184000E+00
        -11   -1    0    0    0    0  0.00000000000E+00  0.00000000000E+00  0.45593999997E+02  0.45594000000E+02  0.51100000000E-03 0.  1.
         11   -1    0    0    0    0 -0.00000000000E+00 -0.00000000000E+00 -0.45593999997E+02  0.45594000000E+02  0.51100000000E-03 0. -1.
         23    2    1    2    0    0  0.44408920985E-15 -0.71054273576E-14 -0.17763568394E-14  0.91188000000E+02  0.91188000000E+02 0.  0.
    9900012    2    3    3    0    0 -0.20714490662E+01 -0.34804682498E+02 -0.11837492491E+02  0.54367040568E+02  0.39999900583E+02 0.  0.
         12    1    3    3    0    0  0.20714490662E+01  0.34804682498E+02  0.11837492491E+02  0.36820959432E+02  0.00000000000E+00 0. -1.
         11    1    4    4    0    0 -0.13786073486E+02 -0.97259509691E+01 -0.10089374440E+02  0.19658215109E+02  0.51100000000E-03 0. -1.
        -11    1    4    4    0    0  0.44014467898E+01 -0.63579548275E+01 -0.10288974103E+02  0.12870870669E+02  0.51100000000E-03 0.  1.
         12    1    4    4    0    0  0.73131776300E+01 -0.18720776701E+02  0.85408560508E+01  0.21837954790E+02  0.00000000000E+00 0. -1.
</event>
<event>
 8    1  0.2531964E-006  0.9118800E+02  0.7816164E-02  0.1184000E+00
        -11   -1    0    0    0    0  0.00000000000E+00  0.00000000000E+00  0.45593999997E+02  0.45594000000E+02  0.51100000000E-03 0.  1.
         11   -1    0    0    0    0 -0.00000000000E+00 -0.00000000000E+00 -0.45593999997E+02  0.45594000000E+02  0.51100000000E-03 0. -1.
         23    2    1    2    0    0  0.00000000000E+00  0.44408920985E-15  0.17763568394E-14  0.91188000000E+02  0.91188000000E+02 0.  0.
    9900012    2    3    3    0    0  0.33321237729E+02 -0.31991524346E+01  0.15337533503E+02  0.54367090260E+02  0.40000013866E+02 0.  0.
        -12    1    3    3    0    0 -0.33321237729E+02  0.31991524346E+01 -0.15337533503E+02  0.36820909740E+02  0.00000000000E+00 0.  1.
         11    1    4    4    0    0  0.34123286914E+01 -0.56588854537E+01  0.22019691586E+01  0.69653169427E+01  0.51100000000E-03 0. -1.
        -11    1    4    4    0    0  0.14870289026E+02 -0.13538697651E+02  0.15398381106E+02  0.25328481414E+02  0.51100000000E-03 0.  1.
         12    1    4    4    0    0  0.15038620012E+02  0.15998430670E+02 -0.22628167616E+01  0.22073291904E+02  0.00000000000E+00 0. -1.
</event>
<event>
 8    1  0.2531964E-006  0.9118800E+02  0.7816164E-02  0.1184000E+00
        -11   -1    0    0    0    0  0.00000000000E+00  0.00000000000E+00  0.45593999997E+02  0.45594000000E+02  0.51100000000E-03 0. -1.
         11   -1    0    0    0    0 -0.00000000000E+00 -0.00000000000E+00 -0.45593999997E+02  0.45594000000E+02  0.51100000000E-03 0.  1.
         23    2    1    2    0    0 -0.71054273576E-14  0.44408920985E-15  0.00000000000E+00  0.91188000000E+02  0.91188000000E+02 0.  0.
    9900012    2    3    3    0    0  0.36359705542E+02  0.22742726034E+01 -0.53460005697E+01  0.54367078976E+02  0.39999988142E+02 0.  0.
         12    1    3    3    0    0 -0.36359705542E+02 -0.22742726034E+01  0.53460005697E+01  0.36820921024E+02  0.00000000000E+00 0. -1.
         11    1    4    4    0    0  0.26559984500E+02  0.14137359812E+02  0.26477224134E+01  0.30204439299E+02  0.51100000000E-03 0. -1.
        -11    1    4    4    0    0  0.11282338490E+01 -0.39647124966E+01 -0.11256799354E+02  0.11987801665E+02  0.51100000000E-03 0.  1.
        -12    1    4    4    0    0  0.86714871924E+01 -0.78983747122E+01  0.32630763714E+01  0.12174838012E+02  0.00000000000E+00 0.  1.
</event>
<event>
 8    1  0.2531964E-006  0.9118800E+02  0.7816164E-02  0.1184000E+00
        -11   -1    0    0    0    0  0.00000000000E+00  0.00000000000E+00  0.45593999997E+02  0.45594000000E+02  0.51100000000E-03 0. -1.
         11   -1    0    0    0    0 -0.00000000000E+00 -0.00000000000E+00 -0.45593999997E+02  0.45594000000E+02  0.51100000000E-03 0.  1.
         23    2    1    2    0    0  0.00000000000E+00  0.88817841970E-15  0.00000000000E+00  0.91188000000E+02  0.91188000000E+02 0.  0.
    9900012    2    3    3    0    0 -0.11758086606E+02 -0.63744486722E+01  0.34305867283E+02  0.54367099324E+02  0.40000034529E+02 0.  0.
        -12    1    3    3    0    0  0.11758086606E+02  0.63744486722E+01 -0.34305867283E+02  0.36820900676E+02  0.00000000000E+00 0.  1.
         11    1    4    4    0    0  0.87700386444E+01 -0.79750525857E+01  0.16669502925E+02  0.20454519539E+02  0.51100000000E-03 0. -1.
        -11    1    4    4    0    0 -0.12854251259E+02  0.10598602766E+02  0.72353091443E+01  0.18163475843E+02  0.51100000000E-03 0.  1.
         12    1    4    4    0    0 -0.76738739912E+01 -0.89979988526E+01  0.10401055215E+02  0.15749103941E+02  0.00000000000E+00 0. -1.
</event>
<event>
 8    1  0.2531964E-006  0.9118800E+02  0.7816164E-02  0.1184000E+00
        -11   -1    0    0    0    0  0.00000000000E+00  0.00000000000E+00  0.45593999997E+02  0.45594000000E+02  0.51100000000E-03 0. -1.
         11   -1    0    0    0    0 -0.00000000000E+00 -0.00000000000E+00 -0.45593999997E+02  0.45594000000E+02  0.51100000000E-03 0.  1.
         23    2    1    2    0    0  0.88817841970E-15  0.17763568394E-14  0.71054273576E-14  0.91188000000E+02  0.91188000000E+02 0.  0.
    9900012    2    3    3    0    0  0.52301357156E+01  0.64238894828E+01 -0.35877004513E+02  0.54367080287E+02  0.39999991131E+02 0.  0.
         12    1    3    3    0    0 -0.52301357156E+01 -0.64238894828E+01  0.35877004513E+02  0.36820919713E+02  0.00000000000E+00 0. -1.
         11    1    4    4    0    0 -0.15756174040E+01  0.72064221483E+00  0.77729841708E+00  0.18989703778E+01  0.51100000000E-03 0. -1.
        -11    1    4    4    0    0  0.13239034234E+02  0.16715840177E+02 -0.32840754220E+02  0.39156180588E+02  0.51100000000E-03 0.  1.
        -12    1    4    4    0    0 -0.64332811146E+01 -0.11012592909E+02 -0.38135487100E+01  0.13311929321E+02  0.00000000000E+00 0.  1.
</event>
<event>
 8    1  0.2531964E-006  0.9118800E+02  0.7816164E-02  0.1184000E+00
        -11   -1    0    0    0    0  0.00000000000E+00  0.00000000000E+00  0.45593999997E+02  0.45594000000E+02  0.51100000000E-03 0.  1.
         11   -1    0    0    0    0 -0.00000000000E+00 -0.00000000000E+00 -0.45593999997E+02  0.45594000000E+02  0.51100000000E-03 0. -1.
         23    2    1    2    0    0  0.00000000000E+00  0.00000000000E+00  0.00000000000E+00  0.91188000000E+02  0.91188000000E+02 0.  0.
    9900012    2    3    3    0    0 -0.30546512890E+02  0.16179862380E+02  0.12684779428E+02  0.54367068106E+02  0.39999963361E+02 0.  0.
         12    1    3    3    0    0  0.30546512890E+02 -0.16179862380E+02 -0.12684779428E+02  0.36820931894E+02  0.00000000000E+00 0. -1.
         11    1    4    4    0    0  0.13552914415E+01  0.12256747493E+02  0.11059481911E+02  0.16564323542E+02  0.51100000000E-03 0. -1.
        -11    1    4    4    0    0 -0.94529212364E+01 -0.19679444426E+01  0.92520380375E+01  0.13372760872E+02  0.51100000000E-03 0.  1.
         12    1    4    4    0    0 -0.22448883095E+02  0.58910593295E+01 -0.76267405198E+01  0.24429983692E+02  0.00000000000E+00 0. -1.
</event>
<event>
 8    1  0.2531964E-006  0.9118800E+02  0.7816164E-02  0.1184000E+00
        -11   -1    0    0    0    0  0.00000000000E+00  0.00000000000E+00  0.45593999997E+02  0.45594000000E+02  0.51100000000E-03 0.  1.
         11   -1    0    0    0    0 -0.00000000000E+00 -0.00000000000E+00 -0.45593999997E+02  0.45594000000E+02  0.51100000000E-03 0. -1.
         23    2    1    2    0    0 -0.88817841970E-15  0.35527136788E-14  0.00000000000E+00  0.91188000000E+02  0.91188000000E+02 0.  0.
    9900012    2    3    3    0    0 -0.67660223379E+01  0.25732939535E+02 -0.25452231537E+02  0.54367091190E+02  0.40000015986E+02 0.  0.
        -12    1    3    3    0    0  0.67660223379E+01 -0.25732939535E+02  0.25452231537E+02  0.36820908810E+02  0.00000000000E+00 0.  1.
         11    1    4    4    0    0  0.71881443303E+01  0.10305344339E+02 -0.28987281591E+02  0.31593227679E+02  0.51100000000E-03 0. -1.
        -11    1    4    4    0    0 -0.64178072080E+01  0.74755411978E+01  0.60113521047E+01  0.11541590876E+02  0.51100000000E-03 0.  1.
        -12    1    4    4    0    0 -0.75363594602E+01  0.79520539989E+01 -0.24763020502E+01  0.11232272635E+02  0.00000000000E+00 0.  1.
</event>
<event>
 8    1  0.2531964E-006  0.9118800E+02  0.7816164E-02  0.1184000E+00
        -11   -1    0    0    0    0  0.00000000000E+00  0.00000000000E+00  0.45593999997E+02  0.45594000000E+02  0.51100000000E-03 0.  1.
         11   -1    0    0    0    0 -0.00000000000E+00 -0.00000000000E+00 -0.45593999997E+02  0.45594000000E+02  0.51100000000E-03 0. -1.
         23    2    1    2    0    0  0.00000000000E+00  0.00000000000E+00  0.00000000000E+00  0.91188000000E+02  0.91188000000E+02 0.  0.
    9900012    2    3    3    0    0 -0.19736925801E+02  0.17061590686E+02  0.25983382160E+02  0.54367078430E+02  0.39999986897E+02 0.  0.
         12    1    3    3    0    0  0.19736925801E+02 -0.17061590686E+02 -0.25983382160E+02  0.36820921570E+02  0.00000000000E+00 0. -1.
         11    1    4    4    0    0 -0.20334333570E+01  0.20776556730E+02  0.23305556682E+02  0.31288162831E+02  0.51100000000E-03 0. -1.
        -11    1    4    4    0    0 -0.17286418027E+02  0.47998110481E+00  0.53330874584E+01  0.18096752531E+02  0.51100000000E-03 0.  1.
         12    1    4    4    0    0 -0.41707441652E+00 -0.41949471491E+01 -0.26552619811E+01  0.49821630684E+01  0.00000000000E+00 0. -1.
</event>
<event>
 8    1  0.2531964E-006  0.9118800E+02  0.7816164E-02  0.1184000E+00
        -11   -1    0    0    0    0  0.00000000000E+00  0.00000000000E+00  0.45593999997E+02  0.45594000000E+02  0.51100000000E-03 0.  1.
         11   -1    0    0    0    0 -0.00000000000E+00 -0.00000000000E+00 -0.45593999997E+02  0.45594000000E+02  0.51100000000E-03 0. -1.
         23    2    1    2    0    0  0.00000000000E+00 -0.13322676296E-14  0.00000000000E+00  0.91188000000E+02  0.91188000000E+02 0.  0.
    9900012    2    3    3    0    0  0.12241295548E+02  0.25725184856E+01 -0.34630915571E+02  0.54367252026E+02  0.40000382642E+02 0.  0.
        -12    1    3    3    0    0 -0.12241295548E+02 -0.25725184856E+01  0.34630915571E+02  0.36820747974E+02  0.00000000000E+00 0.  1.
         11    1    4    4    0    0 -0.11375554264E+02 -0.67406554210E+01 -0.12202209908E+02  0.17992598401E+02  0.51100000000E-03 0. -1.
        -11    1    4    4    0    0  0.14662456131E+02  0.26175157308E+00 -0.66568788000E+01  0.16104973434E+02  0.51100000000E-03 0.  1.
         12    1    4    4    0    0  0.89543936811E+01  0.90514223335E+01 -0.15771826863E+02  0.20269680191E+02  0.00000000000E+00 0. -1.
</event>
<event>
 8    1  0.2531964E-006  0.9118800E+02  0.7816164E-02  0.1184000E+00
        -11   -1    0    0    0    0  0.00000000000E+00  0.00000000000E+00  0.45593999997E+02  0.45594000000E+02  0.51100000000E-03 0. -1.
         11   -1    0    0    0    0 -0.00000000000E+00 -0.00000000000E+00 -0.45593999997E+02  0.45594000000E+02  0.51100000000E-03 0.  1.
         23    2    1    2    0    0  0.00000000000E+00  0.00000000000E+00 -0.35527136788E-14  0.91188000000E+02  0.91188000000E+02 0.  0.
    9900012    2    3    3    0    0 -0.26463278179E+02 -0.65091707892E+01  0.24760917935E+02  0.54367116614E+02  0.40000073945E+02 0.  0.
        -12    1    3    3    0    0  0.26463278179E+02  0.65091707892E+01 -0.24760917935E+02  0.36820883386E+02  0.00000000000E+00 0.  1.
         11    1    4    4    0    0 -0.17666594968E+02 -0.10672009056E+02  0.22614236101E+01  0.20763294345E+02  0.51100000000E-03 0. -1.
        -11    1    4    4    0    0 -0.68218737527E+01  0.72830953230E-01  0.26614565931E+02  0.27475050242E+02  0.51100000000E-03 0.  1.
        -12    1    4    4    0    0 -0.19748094584E+01  0.40900073138E+01 -0.41150716069E+01  0.61287720266E+01  0.00000000000E+00 0.  1.
</event>
<event>
 8    1  0.2531964E-006  0.9118800E+02  0.7816164E-02  0.1184000E+00
        -11   -1    0    0    0    0  0.00000000000E+00  0.00000000000E+00  0.45593999997E+02  0.45594000000E+02  0.51100000000E-03 0.  1.
         11   -1    0    0    0    0 -0.00000000000E+00 -0.00000000000E+00 -0.45593999997E+02  0.45594000000E+02  0.51100000000E-03 0. -1.
         23    2    1    2    0    0  0.35527136788E-14  0.00000000000E+00 -0.35527136788E-14  0.91188000000E+02  0.91188000000E+02 0.  0.
    9900012    2    3    3    0    0  0.30593955681E+02  0.89879927623E+01 -0.18412099991E+02  0.54367087950E+02  0.40000008600E+02 0.  0.
         12    1    3    3    0    0 -0.30593955681E+02 -0.89879927623E+01  0.18412099991E+02  0.36820912050E+02  0.00000000000E+00 0. -1.
         11    1    4    4    0    0 -0.10650080312E+01  0.10610228505E+02  0.38221948289E+01  0.11327857900E+02  0.51100000000E-03 0. -1.
        -11    1    4    4    0    0  0.11600905945E+02  0.71970466244E+01 -0.14208472959E+02  0.19704294023E+02  0.51100000000E-03 0.  1.
        -12    1    4    4    0    0  0.20058057767E+02 -0.88192823669E+01 -0.80258218613E+01  0.23334936027E+02  0.00000000000E+00 0.  1.
</event>
<event>
 8    1  0.2531964E-006  0.9118800E+02  0.7816164E-02  0.1184000E+00
        -11   -1    0    0    0    0  0.00000000000E+00  0.00000000000E+00  0.45593999997E+02  0.45594000000E+02  0.51100000000E-03 0. -1.
         11   -1    0    0    0    0 -0.00000000000E+00 -0.00000000000E+00 -0.45593999997E+02  0.45594000000E+02  0.51100000000E-03 0.  1.
         23    2    1    2    0    0 -0.35527136788E-14  0.35527136788E-14  0.00000000000E+00  0.91188000000E+02  0.91188000000E+02 0.  0.
    9900012    2    3    3    0    0  0.20180011816E+02 -0.16747239593E+02 -0.25847180721E+02  0.54367086620E+02  0.40000005569E+02 0.  0.
         12    1    3    3    0    0 -0.20180011816E+02  0.16747239593E+02  0.25847180721E+02  0.36820913380E+02  0.00000000000E+00 0. -1.
         11    1    4    4    0    0 -0.16944611936E+01 -0.82631392481E+01  0.50313014619E+01  0.98216426137E+01  0.51100000000E-03 0. -1.
        -11    1    4    4    0    0  0.25714038483E+02 -0.54040174012E+01 -0.21489009150E+02  0.33943964025E+02  0.51100000000E-03 0.  1.
         12    1    4    4    0    0 -0.38395654740E+01 -0.30800829435E+01 -0.93894730334E+01  0.10601479982E+02  0.00000000000E+00 0. -1.
</event>
<event>
 8    1  0.2531964E-006  0.9118800E+02  0.7816164E-02  0.1184000E+00
        -11   -1    0    0    0    0  0.00000000000E+00  0.00000000000E+00  0.45593999997E+02  0.45594000000E+02  0.51100000000E-03 0. -1.
         11   -1    0    0    0    0 -0.00000000000E+00 -0.00000000000E+00 -0.45593999997E+02  0.45594000000E+02  0.51100000000E-03 0.  1.
         23    2    1    2    0    0  0.00000000000E+00 -0.88817841970E-15  0.00000000000E+00  0.91188000000E+02  0.91188000000E+02 0.  0.
    9900012    2    3    3    0    0 -0.27624009497E+02 -0.79881281601E+01  0.22997549574E+02  0.54367036153E+02  0.39999890518E+02 0.  0.
        -12    1    3    3    0    0  0.27624009497E+02  0.79881281601E+01 -0.22997549574E+02  0.36820963847E+02  0.00000000000E+00 0.  1.
         11    1    4    4    0    0 -0.26913400459E+02 -0.13861137506E+02  0.16135921406E+02  0.34304959075E+02  0.51100000000E-03 0. -1.
        -11    1    4    4    0    0 -0.76786232218E+01 -0.13360684431E+01 -0.20354396569E+00  0.77966508113E+01  0.51100000000E-03 0.  1.
         12    1    4    4    0    0  0.69680141843E+01  0.72090777886E+01  0.70651721342E+01  0.12265426267E+02  0.00000000000E+00 0. -1.
</event>
<event>
 8    1  0.2531964E-006  0.9118800E+02  0.7816164E-02  0.1184000E+00
        -11   -1    0    0    0    0  0.00000000000E+00  0.00000000000E+00  0.45593999997E+02  0.45594000000E+02  0.51100000000E-03 0.  1.
         11   -1    0    0    0    0 -0.00000000000E+00 -0.00000000000E+00 -0.45593999997E+02  0.45594000000E+02  0.51100000000E-03 0. -1.
         23    2    1    2    0    0  0.35527136788E-14  0.00000000000E+00  0.00000000000E+00  0.91188000000E+02  0.91188000000E+02 0.  0.
    9900012    2    3    3    0    0  0.25847909785E+02  0.77346809471E+00 -0.26211955785E+02  0.54367091276E+02  0.40000016182E+02 0.  0.
        -12    1    3    3    0    0 -0.25847909785E+02 -0.77346809471E+00  0.26211955785E+02  0.36820908724E+02  0.00000000000E+00 0.  1.
         11    1    4    4    0    0  0.70157544411E+01  0.11037810111E+02 -0.15624185426E+02  0.20375702023E+02  0.51100000000E-03 0. -1.
        -11    1    4    4    0    0  0.18030694528E+02 -0.17167313053E+02 -0.10556800008E+02  0.27041978650E+02  0.51100000000E-03 0.  1.
        -12    1    4    4    0    0  0.80146081675E+00  0.69029710370E+01 -0.30970351242E-01  0.69494106039E+01  0.00000000000E+00 0.  1.
</event>
<event>
 8    1  0.2531964E-006  0.9118800E+02  0.7816164E-02  0.1184000E+00
        -11   -1    0    0    0    0  0.00000000000E+00  0.00000000000E+00  0.45593999997E+02  0.45594000000E+02  0.51100000000E-03 0. -1.
         11   -1    0    0    0    0 -0.00000000000E+00 -0.00000000000E+00 -0.45593999997E+02  0.45594000000E+02  0.51100000000E-03 0.  1.
         23    2    1    2    0    0  0.00000000000E+00  0.00000000000E+00  0.00000000000E+00  0.91188000000E+02  0.91188000000E+02 0.  0.
    9900012    2    3    3    0    0  0.24414754416E+02 -0.56900097411E+01 -0.26968933569E+02  0.54367084450E+02  0.40000000621E+02 0.  0.
         12    1    3    3    0    0 -0.24414754416E+02  0.56900097411E+01  0.26968933569E+02  0.36820915550E+02  0.00000000000E+00 0. -1.
         11    1    4    4    0    0 -0.70010509974E+00 -0.40013628574E+01  0.44641339654E+01  0.60356892059E+01  0.51100000000E-03 0. -1.
        -11    1    4    4    0    0  0.23605528341E+02 -0.95235727851E+01 -0.13747973814E+02  0.28929676651E+02  0.51100000000E-03 0.  1.
         12    1    4    4    0    0  0.15093311748E+01  0.78349259014E+01 -0.17685093721E+02  0.19401718594E+02  0.00000000000E+00 0. -1.
</event>
<event>
 8    1  0.2531964E-006  0.9118800E+02  0.7816164E-02  0.1184000E+00
        -11   -1    0    0    0    0  0.00000000000E+00  0.00000000000E+00  0.45593999997E+02  0.45594000000E+02  0.51100000000E-03 0.  1.
         11   -1    0    0    0    0 -0.00000000000E+00 -0.00000000000E+00 -0.45593999997E+02  0.45594000000E+02  0.51100000000E-03 0. -1.
         23    2    1    2    0    0  0.00000000000E+00  0.16653345369E-14  0.00000000000E+00  0.91188000000E+02  0.91188000000E+02 0.  0.
    9900012    2    3    3    0    0 -0.36533036473E+02 -0.44398548057E+00  0.45735975487E+01  0.54367113650E+02  0.40000067188E+02 0.  0.
         12    1    3    3    0    0  0.36533036473E+02  0.44398548057E+00 -0.45735975487E+01  0.36820886350E+02  0.00000000000E+00 0. -1.
         11    1    4    4    0    0 -0.11540124702E+02 -0.92546578891E+01 -0.50494419874E+00  0.14801288447E+02  0.51100000000E-03 0. -1.
        -11    1    4    4    0    0 -0.49168092439E+01 -0.67132062054E+01  0.10717826090E+02  0.13568859460E+02  0.51100000000E-03 0.  1.
         12    1    4    4    0    0 -0.20076102527E+02  0.15523878614E+02 -0.56392843428E+01  0.25996965742E+02  0.00000000000E+00 0. -1.
</event>
<event>
 8    1  0.2531964E-006  0.9118800E+02  0.7816164E-02  0.1184000E+00
        -11   -1    0    0    0    0  0.00000000000E+00  0.00000000000E+00  0.45593999997E+02  0.45594000000E+02  0.51100000000E-03 0. -1.
         11   -1    0    0    0    0 -0.00000000000E+00 -0.00000000000E+00 -0.45593999997E+02  0.45594000000E+02  0.51100000000E-03 0.  1.
         23    2    1    2    0    0 -0.35527136788E-14  0.00000000000E+00  0.00000000000E+00  0.91188000000E+02  0.91188000000E+02 0.  0.
    9900012    2    3    3    0    0  0.26490301848E+02  0.21863265718E+02  0.13268044871E+02  0.54367088896E+02  0.40000010756E+02 0.  0.
        -12    1    3    3    0    0 -0.26490301848E+02 -0.21863265718E+02 -0.13268044871E+02  0.36820911104E+02  0.00000000000E+00 0.  1.
         11    1    4    4    0    0  0.21283155049E+01  0.41823367179E+01 -0.26930337017E+01  0.54105543237E+01  0.51100000000E-03 0. -1.
        -11    1    4    4    0    0  0.28792993613E+01  0.23536649899E+02  0.54330320338E+01  0.24326571699E+02  0.51100000000E-03 0.  1.
         12    1    4    4    0    0  0.21482686981E+02 -0.58557208989E+01  0.10528046539E+02  0.24629962873E+02  0.00000000000E+00 0. -1.
</event>
<event>
 8    1  0.2531964E-006  0.9118800E+02  0.7816164E-02  0.1184000E+00
        -11   -1    0    0    0    0  0.00000000000E+00  0.00000000000E+00  0.45593999997E+02  0.45594000000E+02  0.51100000000E-03 0. -1.
         11   -1    0    0    0    0 -0.00000000000E+00 -0.00000000000E+00 -0.45593999997E+02  0.45594000000E+02  0.51100000000E-03 0.  1.
         23    2    1    2    0    0  0.35527136788E-14  0.66613381478E-15  0.00000000000E+00  0.91188000000E+02  0.91188000000E+02 0.  0.
    9900012    2    3    3    0    0  0.22170792323E+02 -0.11021554739E+01 -0.29377252269E+02  0.54367058543E+02  0.39999941560E+02 0.  0.
         12    1    3    3    0    0 -0.22170792323E+02  0.11021554739E+01  0.29377252269E+02  0.36820941457E+02  0.00000000000E+00 0. -1.
         11    1    4    4    0    0  0.69872720049E+01  0.80647064532E+01 -0.31897481027E+01  0.11137142967E+02  0.51100000000E-03 0. -1.
        -11    1    4    4    0    0  0.15293083492E+02  0.18872658279E+01 -0.28065004378E+02  0.32016943108E+02  0.51100000000E-03 0.  1.
         12    1    4    4    0    0 -0.10956317418E+00 -0.11054127755E+02  0.18775002112E+01  0.11212972467E+02  0.00000000000E+00 0. -1.
</event>
<event>
 8    1  0.2531964E-006  0.9118800E+02  0.7816164E-02  0.1184000E+00
        -11   -1    0    0    0    0  0.00000000000E+00  0.00000000000E+00  0.45593999997E+02  0.45594000000E+02  0.51100000000E-03 0. -1.
         11   -1    0    0    0    0 -0.00000000000E+00 -0.00000000000E+00 -0.45593999997E+02  0.45594000000E+02  0.51100000000E-03 0.  1.
         23    2    1    2    0    0  0.00000000000E+00  0.35527136788E-14  0.00000000000E+00  0.91188000000E+02  0.91188000000E+02 0.  0.
    9900012    2    3    3    0    0  0.15350846951E+02 -0.23373892573E+02  0.23953977558E+02  0.54367076642E+02  0.39999982820E+02 0.  0.
        -12    1    3    3    0    0 -0.15350846951E+02  0.23373892573E+02 -0.23953977558E+02  0.36820923358E+02  0.00000000000E+00 0.  1.
         11    1    4    4    0    0  0.29343891913E+01  0.83500088203E-01  0.37558025016E-01  0.29358172724E+01  0.51100000000E-03 0. -1.
        -11    1    4    4    0    0  0.22738193572E+02 -0.24939788134E+02  0.23249309521E+02  0.40982299503E+02  0.51100000000E-03 0.  1.
        -12    1    4    4    0    0 -0.10321735812E+02  0.14823954729E+01  0.66711001161E+00  0.10448959866E+02  0.00000000000E+00 0.  1.
</event>
<event>
 8    1  0.2531964E-006  0.9118800E+02  0.7816164E-02  0.1184000E+00
        -11   -1    0    0    0    0  0.00000000000E+00  0.00000000000E+00  0.45593999997E+02  0.45594000000E+02  0.51100000000E-03 0. -1.
         11   -1    0    0    0    0 -0.00000000000E+00 -0.00000000000E+00 -0.45593999997E+02  0.45594000000E+02  0.51100000000E-03 0.  1.
         23    2    1    2    0    0 -0.17763568394E-14  0.00000000000E+00  0.00000000000E+00  0.91188000000E+02  0.91188000000E+02 0.  0.
    9900012    2    3    3    0    0 -0.15519888207E+02 -0.10075214550E+02  0.31834001369E+02  0.54367074953E+02  0.39999978969E+02 0.  0.
        -12    1    3    3    0    0  0.15519888207E+02  0.10075214550E+02 -0.31834001369E+02  0.36820925047E+02  0.00000000000E+00 0.  1.
         11    1    4    4    0    0 -0.29114861364E+01 -0.21617292998E+02  0.15654968735E+02  0.26848876223E+02  0.51100000000E-03 0. -1.
        -11    1    4    4    0    0 -0.28081011944E+01  0.46699683143E+01  0.14426011686E+02  0.15420890045E+02  0.51100000000E-03 0.  1.
        -12    1    4    4    0    0 -0.98003008764E+01  0.68721101335E+01  0.17530209481E+01  0.12097308684E+02  0.00000000000E+00 0.  1.
</event>
<event>
 8    1  0.2531964E-006  0.9118800E+02  0.7816164E-02  0.1184000E+00
        -11   -1    0    0    0    0  0.00000000000E+00  0.00000000000E+00  0.45593999997E+02  0.45594000000E+02  0.51100000000E-03 0.  1.
         11   -1    0    0    0    0 -0.00000000000E+00 -0.00000000000E+00 -0.45593999997E+02  0.45594000000E+02  0.51100000000E-03 0. -1.
         23    2    1    2    0    0 -0.17763568394E-14  0.00000000000E+00  0.35527136788E-14  0.91188000000E+02  0.91188000000E+02 0.  0.
    9900012    2    3    3    0    0 -0.93886914122E+01 -0.19766751940E+02  0.29612629403E+02  0.54367084356E+02  0.40000000407E+02 0.  0.
         12    1    3    3    0    0  0.93886914122E+01  0.19766751940E+02 -0.29612629403E+02  0.36820915644E+02  0.00000000000E+00 0. -1.
         11    1    4    4    0    0  0.10193044629E+01 -0.27895043500E+01 -0.54028182152E+01  0.61652867763E+01  0.51100000000E-03 0. -1.
        -11    1    4    4    0    0 -0.12253437864E+02  0.15464945801E+01  0.22818283213E+02  0.25946337584E+02  0.51100000000E-03 0.  1.
         12    1    4    4    0    0  0.18454419889E+01 -0.18523742170E+02  0.12197164405E+02  0.22255459996E+02  0.00000000000E+00 0. -1.
</event>
<event>
 8    1  0.2531964E-006  0.9118800E+02  0.7816164E-02  0.1184000E+00
        -11   -1    0    0    0    0  0.00000000000E+00  0.00000000000E+00  0.45593999997E+02  0.45594000000E+02  0.51100000000E-03 0.  1.
         11   -1    0    0    0    0 -0.00000000000E+00 -0.00000000000E+00 -0.45593999997E+02  0.45594000000E+02  0.51100000000E-03 0. -1.
         23    2    1    2    0    0 -0.35527136788E-14  0.35527136788E-14 -0.22204460493E-15  0.91188000000E+02  0.91188000000E+02 0.  0.
    9900012    2    3    3    0    0 -0.25559282846E+02  0.26465852630E+02  0.14351144800E+01  0.54367111246E+02  0.40000061709E+02 0.  0.
         12    1    3    3    0    0  0.25559282846E+02 -0.26465852630E+02 -0.14351144800E+01  0.36820888754E+02  0.00000000000E+00 0. -1.
         11    1    4    4    0    0 -0.50405187974E+01  0.11193371529E+02 -0.68462630958E+00  0.12295003432E+02  0.51100000000E-03 0.  1.
        -11    1    4    4    0    0 -0.12513852856E+02  0.25746965956E+02 -0.49967863856E+00  0.28631319359E+02  0.51100000000E-03 0. -1.
         12    1    4    4    0    0 -0.80049111924E+01 -0.10474484855E+02  0.26194194282E+01  0.13440788456E+02  0.00000000000E+00 0. -1.
</event>
<event>
 8    1  0.2531964E-006  0.9118800E+02  0.7816164E-02  0.1184000E+00
        -11   -1    0    0    0    0  0.00000000000E+00  0.00000000000E+00  0.45593999997E+02  0.45594000000E+02  0.51100000000E-03 0.  1.
         11   -1    0    0    0    0 -0.00000000000E+00 -0.00000000000E+00 -0.45593999997E+02  0.45594000000E+02  0.51100000000E-03 0. -1.
         23    2    1    2    0    0  0.00000000000E+00  0.77715611724E-15  0.35527136788E-14  0.91188000000E+02  0.91188000000E+02 0.  0.
    9900012    2    3    3    0    0  0.21611374248E+02  0.42665389468E+00  0.29808501565E+02  0.54367078013E+02  0.39999985947E+02 0.  0.
         12    1    3    3    0    0 -0.21611374248E+02 -0.42665389468E+00 -0.29808501565E+02  0.36820921987E+02  0.00000000000E+00 0. -1.
         11    1    4    4    0    0 -0.36571115367E+00  0.11975613424E+02  0.18667038149E+01  0.12125743067E+02  0.51100000000E-03 0. -1.
        -11    1    4    4    0    0  0.20043155802E+02 -0.91346270961E+01  0.10274090265E+02  0.24304864487E+02  0.51100000000E-03 0.  1.
        -12    1    4    4    0    0  0.19339295995E+01 -0.24143324333E+01  0.17667707484E+02  0.17936470460E+02  0.00000000000E+00 0.  1.
</event>
<event>
 8    1  0.2531964E-006  0.9118800E+02  0.7816164E-02  0.1184000E+00
        -11   -1    0    0    0    0  0.00000000000E+00  0.00000000000E+00  0.45593999997E+02  0.45594000000E+02  0.51100000000E-03 0. -1.
         11   -1    0    0    0    0 -0.00000000000E+00 -0.00000000000E+00 -0.45593999997E+02  0.45594000000E+02  0.51100000000E-03 0.  1.
         23    2    1    2    0    0  0.00000000000E+00  0.17763568394E-14  0.00000000000E+00  0.91188000000E+02  0.91188000000E+02 0.  0.
    9900012    2    3    3    0    0  0.32300886228E+02 -0.15001951612E+02  0.93473917022E+01  0.54367088348E+02  0.40000009506E+02 0.  0.
        -12    1    3    3    0    0 -0.32300886228E+02  0.15001951612E+02 -0.93473917022E+01  0.36820911652E+02  0.00000000000E+00 0.  1.
         11    1    4    4    0    0 -0.36965167103E+01  0.58971892034E-01  0.93517305183E+01  0.10055972227E+02  0.51100000000E-03 0. -1.
        -11    1    4    4    0    0  0.13064514378E+02 -0.15989616423E+02 -0.39502704515E+01  0.21022702162E+02  0.51100000000E-03 0.  1.
        -12    1    4    4    0    0  0.22932888560E+02  0.92869291923E+00  0.39459316354E+01  0.23288413959E+02  0.00000000000E+00 0.  1.
</event>
<event>
 8    1  0.2531964E-006  0.9118800E+02  0.7816164E-02  0.1184000E+00
        -11   -1    0    0    0    0  0.00000000000E+00  0.00000000000E+00  0.45593999997E+02  0.45594000000E+02  0.51100000000E-03 0.  1.
         11   -1    0    0    0    0 -0.00000000000E+00 -0.00000000000E+00 -0.45593999997E+02  0.45594000000E+02  0.51100000000E-03 0. -1.
         23    2    1    2    0    0 -0.71054273576E-14  0.17763568394E-14  0.35527136788E-14  0.91188000000E+02  0.91188000000E+02 0.  0.
    9900012    2    3    3    0    0  0.32175550176E+02  0.79749780571E+01  0.16028502988E+02  0.54367092730E+02  0.40000019497E+02 0.  0.
         12    1    3    3    0    0 -0.32175550176E+02 -0.79749780571E+01 -0.16028502988E+02  0.36820907270E+02  0.00000000000E+00 0. -1.
         11    1    4    4    0    0 -0.54099907917E+01  0.11227831941E+02  0.34247763428E+01  0.12925219678E+02  0.51100000000E-03 0. -1.
        -11    1    4    4    0    0  0.14009463700E+02  0.41421289627E+01  0.65044235319E+01  0.15991554998E+02  0.51100000000E-03 0.  1.
         12    1    4    4    0    0  0.23576077267E+02 -0.73949828465E+01  0.60993031133E+01  0.25450318054E+02  0.00000000000E+00 0. -1.
</event>
<event>
 8    1  0.2531964E-006  0.9118800E+02  0.7816164E-02  0.1184000E+00
        -11   -1    0    0    0    0  0.00000000000E+00  0.00000000000E+00  0.45593999997E+02  0.45594000000E+02  0.51100000000E-03 0. -1.
         11   -1    0    0    0    0 -0.00000000000E+00 -0.00000000000E+00 -0.45593999997E+02  0.45594000000E+02  0.51100000000E-03 0.  1.
         23    2    1    2    0    0 -0.22204460493E-15  0.00000000000E+00  0.00000000000E+00  0.91188000000E+02  0.91188000000E+02 0.  0.
    9900012    2    3    3    0    0 -0.80376983524E+00  0.36538831531E+02 -0.44785390899E+01  0.54366952107E+02  0.39999698916E+02 0.  0.
         12    1    3    3    0    0  0.80376983524E+00 -0.36538831531E+02  0.44785390899E+01  0.36821047893E+02  0.00000000000E+00 0. -1.
         11    1    4    4    0    0  0.25985350733E+01  0.18572797994E+01  0.79430522726E+01  0.85611887286E+01  0.51100000000E-03 0. -1.
        -11    1    4    4    0    0 -0.41646336343E+01  0.10233170298E+01 -0.11337464489E+02  0.12121445968E+02  0.51100000000E-03 0.  1.
         12    1    4    4    0    0  0.76232872571E+00  0.33658234702E+02 -0.10841268738E+01  0.33684317410E+02  0.00000000000E+00 0. -1.
</event>
<event>
 8    1  0.2531964E-006  0.9118800E+02  0.7816164E-02  0.1184000E+00
        -11   -1    0    0    0    0  0.00000000000E+00  0.00000000000E+00  0.45593999997E+02  0.45594000000E+02  0.51100000000E-03 0. -1.
         11   -1    0    0    0    0 -0.00000000000E+00 -0.00000000000E+00 -0.45593999997E+02  0.45594000000E+02  0.51100000000E-03 0.  1.
         23    2    1    2    0    0  0.00000000000E+00  0.00000000000E+00  0.00000000000E+00  0.91188000000E+02  0.91188000000E+02 0.  0.
    9900012    2    3    3    0    0  0.10885128879E+02  0.31106556264E+02  0.16421771123E+02  0.54367103214E+02  0.40000043397E+02 0.  0.
         12    1    3    3    0    0 -0.10885128879E+02 -0.31106556264E+02 -0.16421771123E+02  0.36820896786E+02  0.00000000000E+00 0. -1.
         11    1    4    4    0    0 -0.29323220796E+01  0.27413128306E+00  0.11220832271E+02  0.11600893838E+02  0.51100000000E-03 0. -1.
        -11    1    4    4    0    0  0.70477249687E+01  0.55720312003E+01  0.12703533166E+02  0.15559489519E+02  0.51100000000E-03 0.  1.
        -12    1    4    4    0    0  0.67697259904E+01  0.25260393780E+02 -0.75025943136E+01  0.27206719857E+02  0.00000000000E+00 0.  1.
</event>
<event>
 8    1  0.2531964E-006  0.9118800E+02  0.7816164E-02  0.1184000E+00
        -11   -1    0    0    0    0  0.00000000000E+00  0.00000000000E+00  0.45593999997E+02  0.45594000000E+02  0.51100000000E-03 0.  1.
         11   -1    0    0    0    0 -0.00000000000E+00 -0.00000000000E+00 -0.45593999997E+02  0.45594000000E+02  0.51100000000E-03 0. -1.
         23    2    1    2    0    0  0.44408920985E-15  0.00000000000E+00  0.00000000000E+00  0.91188000000E+02  0.91188000000E+02 0.  0.
    9900012    2    3    3    0    0  0.38252488777E+01  0.28060708759E+02  0.23531749091E+02  0.54367093977E+02  0.40000022340E+02 0.  0.
         12    1    3    3    0    0 -0.38252488777E+01 -0.28060708759E+02 -0.23531749091E+02  0.36820906023E+02  0.00000000000E+00 0. -1.
         11    1    4    4    0    0  0.16264760626E+01  0.66535672611E+00 -0.63287925207E+00  0.18677955895E+01  0.51100000000E-03 0. -1.
        -11    1    4    4    0    0  0.15747388536E+02  0.37980303263E+01  0.18709240686E+02  0.24747544674E+02  0.51100000000E-03 0.  1.
        -12    1    4    4    0    0 -0.13548615721E+02  0.23597321707E+02  0.54553876568E+01  0.27751753714E+02  0.00000000000E+00 0.  1.
</event>
<event>
 8    1  0.2531964E-006  0.9118800E+02  0.7816164E-02  0.1184000E+00
        -11   -1    0    0    0    0  0.00000000000E+00  0.00000000000E+00  0.45593999997E+02  0.45594000000E+02  0.51100000000E-03 0. -1.
         11   -1    0    0    0    0 -0.00000000000E+00 -0.00000000000E+00 -0.45593999997E+02  0.45594000000E+02  0.51100000000E-03 0.  1.
         23    2    1    2    0    0  0.00000000000E+00  0.00000000000E+00  0.11102230246E-14  0.91188000000E+02  0.91188000000E+02 0.  0.
    9900012    2    3    3    0    0 -0.50645807388E+01  0.36421393756E+02 -0.19003639785E+01  0.54367091749E+02  0.40000017260E+02 0.  0.
         12    1    3    3    0    0  0.50645807388E+01 -0.36421393756E+02  0.19003639785E+01  0.36820908251E+02  0.00000000000E+00 0. -1.
         11    1    4    4    0    0 -0.91878187542E+01 -0.12349186030E+01 -0.58011704702E+01  0.10935932356E+02  0.51100000000E-03 0. -1.
        -11    1    4    4    0    0 -0.69351417640E+01  0.26726210824E+02  0.38803539025E+01  0.27882677113E+02  0.51100000000E-03 0.  1.
        -12    1    4    4    0    0  0.11058379779E+02  0.10930101534E+02  0.20452589204E-01  0.15548482280E+02  0.00000000000E+00 0.  1.
</event>
<event>
 8    1  0.2531964E-006  0.9118800E+02  0.7816164E-02  0.1184000E+00
        -11   -1    0    0    0    0  0.00000000000E+00  0.00000000000E+00  0.45593999997E+02  0.45594000000E+02  0.51100000000E-03 0.  1.
         11   -1    0    0    0    0 -0.00000000000E+00 -0.00000000000E+00 -0.45593999997E+02  0.45594000000E+02  0.51100000000E-03 0. -1.
         23    2    1    2    0    0  0.00000000000E+00 -0.35527136788E-14  0.00000000000E+00  0.91188000000E+02  0.91188000000E+02 0.  0.
    9900012    2    3    3    0    0  0.63114018680E+01  0.10455015324E+02 -0.34736705343E+02  0.54367084245E+02  0.40000000152E+02 0.  0.
        -12    1    3    3    0    0 -0.63114018680E+01 -0.10455015324E+02  0.34736705343E+02  0.36820915755E+02  0.00000000000E+00 0.  1.
         11    1    4    4    0    0  0.63692714548E+01  0.15548116134E+02 -0.19145483192E+02  0.25472751345E+02  0.51100000000E-03 0. -1.
        -11    1    4    4    0    0  0.66294414083E+01 -0.73345296813E+01 -0.18726361209E+02  0.21175963341E+02  0.51100000000E-03 0.  1.
        -12    1    4    4    0    0 -0.66873109951E+01  0.22414288716E+01  0.31351390573E+01  0.77183695584E+01  0.00000000000E+00 0.  1.
</event>
<event>
 8    1  0.2531964E-006  0.9118800E+02  0.7816164E-02  0.1184000E+00
        -11   -1    0    0    0    0  0.00000000000E+00  0.00000000000E+00  0.45593999997E+02  0.45594000000E+02  0.51100000000E-03 0. -1.
         11   -1    0    0    0    0 -0.00000000000E+00 -0.00000000000E+00 -0.45593999997E+02  0.45594000000E+02  0.51100000000E-03 0.  1.
         23    2    1    2    0    0  0.22204460493E-15 -0.35527136788E-14 -0.71054273576E-14  0.91188000000E+02  0.91188000000E+02 0.  0.
    9900012    2    3    3    0    0  0.13688768767E+01 -0.88150106186E+01 -0.35723977981E+02  0.54367070640E+02  0.39999969138E+02 0.  0.
         12    1    3    3    0    0 -0.13688768767E+01  0.88150106186E+01  0.35723977981E+02  0.36820929360E+02  0.00000000000E+00 0. -1.
         11    1    4    4    0    0  0.54993059753E+01  0.11251037253E+01  0.16872024887E+01  0.58613033620E+01  0.51100000000E-03 0. -1.
        -11    1    4    4    0    0 -0.70997706297E+01  0.69570343860E+01 -0.35655464456E+01  0.10560312124E+02  0.51100000000E-03 0.  1.
        -12    1    4    4    0    0  0.29693415311E+01 -0.16897148730E+02 -0.33845634024E+02  0.37945455154E+02  0.00000000000E+00 0.  1.
</event>
<event>
 8    1  0.2531964E-006  0.9118800E+02  0.7816164E-02  0.1184000E+00
        -11   -1    0    0    0    0  0.00000000000E+00  0.00000000000E+00  0.45593999997E+02  0.45594000000E+02  0.51100000000E-03 0. -1.
         11   -1    0    0    0    0 -0.00000000000E+00 -0.00000000000E+00 -0.45593999997E+02  0.45594000000E+02  0.51100000000E-03 0.  1.
         23    2    1    2    0    0  0.00000000000E+00  0.71054273576E-14 -0.35527136788E-14  0.91188000000E+02  0.91188000000E+02 0.  0.
    9900012    2    3    3    0    0  0.80537591224E+01  0.32043441804E+02 -0.16252313440E+02  0.54367042778E+02  0.39999905620E+02 0.  0.
         12    1    3    3    0    0 -0.80537591224E+01 -0.32043441804E+02  0.16252313440E+02  0.36820957222E+02  0.00000000000E+00 0. -1.
         11    1    4    4    0    0  0.57466203400E+01 -0.63609054291E+01 -0.52205141913E+00  0.85882070979E+01  0.51100000000E-03 0. -1.
        -11    1    4    4    0    0  0.42611694879E+01  0.93703725684E+01  0.35304470182E+01  0.10882348271E+02  0.51100000000E-03 0.  1.
        -12    1    4    4    0    0 -0.19540307055E+01  0.29033974664E+02 -0.19260709039E+02  0.34896487409E+02  0.00000000000E+00 0.  1.
</event>
<event>
 8    1  0.2531964E-006  0.9118800E+02  0.7816164E-02  0.1184000E+00
        -11   -1    0    0    0    0  0.00000000000E+00  0.00000000000E+00  0.45593999997E+02  0.45594000000E+02  0.51100000000E-03 0.  1.
         11   -1    0    0    0    0 -0.00000000000E+00 -0.00000000000E+00 -0.45593999997E+02  0.45594000000E+02  0.51100000000E-03 0. -1.
         23    2    1    2    0    0 -0.88817841970E-15  0.00000000000E+00  0.00000000000E+00  0.91188000000E+02  0.91188000000E+02 0.  0.
    9900012    2    3    3    0    0  0.79616503726E+01 -0.32086844603E+02 -0.16211900853E+02  0.54367092861E+02  0.40000019796E+02 0.  0.
         12    1    3    3    0    0 -0.79616503726E+01  0.32086844603E+02  0.16211900853E+02  0.36820907139E+02  0.00000000000E+00 0. -1.
         11    1    4    4    0    0  0.14090036989E+02 -0.19662874390E+02 -0.70653569640E+01  0.25200734928E+02  0.51100000000E-03 0. -1.
        -11    1    4    4    0    0  0.78663632441E+01 -0.11019470743E+02 -0.56669464750E+01  0.14677284789E+02  0.51100000000E-03 0.  1.
         12    1    4    4    0    0 -0.13994749861E+02 -0.14044994695E+01 -0.34795974141E+01  0.14489073145E+02  0.00000000000E+00 0. -1.
</event>
<event>
 8    1  0.2531964E-006  0.9118800E+02  0.7816164E-02  0.1184000E+00
        -11   -1    0    0    0    0  0.00000000000E+00  0.00000000000E+00  0.45593999997E+02  0.45594000000E+02  0.51100000000E-03 0. -1.
         11   -1    0    0    0    0 -0.00000000000E+00 -0.00000000000E+00 -0.45593999997E+02  0.45594000000E+02  0.51100000000E-03 0.  1.
         23    2    1    2    0    0  0.71054273576E-14  0.12212453271E-14  0.26645352591E-14  0.91188000000E+02  0.91188000000E+02 0.  0.
    9900012    2    3    3    0    0 -0.36221965889E+02  0.88177903681E+00 -0.65550628529E+01  0.54367120107E+02  0.40000081907E+02 0.  0.
         12    1    3    3    0    0  0.36221965889E+02 -0.88177903681E+00  0.65550628529E+01  0.36820879893E+02  0.00000000000E+00 0. -1.
         11    1    4    4    0    0 -0.79547665561E+01  0.50660057073E+01  0.29223345279E+01  0.98733360189E+01  0.51100000000E-03 0. -1.
        -11    1    4    4    0    0 -0.24052499350E+02  0.11902666321E+02 -0.62216518183E+01  0.27548233013E+02  0.51100000000E-03 0.  1.
         12    1    4    4    0    0 -0.42146999830E+01 -0.16086892991E+02 -0.32557455626E+01  0.16945551075E+02  0.00000000000E+00 0. -1.
</event>
<event>
 8    1  0.2531964E-006  0.9118800E+02  0.7816164E-02  0.1184000E+00
        -11   -1    0    0    0    0  0.00000000000E+00  0.00000000000E+00  0.45593999997E+02  0.45594000000E+02  0.51100000000E-03 0.  1.
         11   -1    0    0    0    0 -0.00000000000E+00 -0.00000000000E+00 -0.45593999997E+02  0.45594000000E+02  0.51100000000E-03 0. -1.
         23    2    1    2    0    0  0.00000000000E+00  0.00000000000E+00  0.00000000000E+00  0.91188000000E+02  0.91188000000E+02 0.  0.
    9900012    2    3    3    0    0 -0.11422259345E+02  0.34932770379E+02  0.22391417987E+01  0.54367079168E+02  0.39999988580E+02 0.  0.
         12    1    3    3    0    0  0.11422259345E+02 -0.34932770379E+02 -0.22391417987E+01  0.36820920832E+02  0.00000000000E+00 0. -1.
         11    1    4    4    0    0 -0.94386902038E+01 -0.32486845403E+01 -0.29266058165E+01  0.10402300028E+02  0.51100000000E-03 0. -1.
        -11    1    4    4    0    0 -0.79264606705E+01  0.23047360376E+02  0.10934266796E+02  0.26712689676E+02  0.51100000000E-03 0.  1.
         12    1    4    4    0    0  0.59428915290E+01  0.15134094543E+02 -0.57685191806E+01  0.17252089465E+02  0.00000000000E+00 0. -1.
</event>
<event>
 8    1  0.2531964E-006  0.9118800E+02  0.7816164E-02  0.1184000E+00
        -11   -1    0    0    0    0  0.00000000000E+00  0.00000000000E+00  0.45593999997E+02  0.45594000000E+02  0.51100000000E-03 0.  1.
         11   -1    0    0    0    0 -0.00000000000E+00 -0.00000000000E+00 -0.45593999997E+02  0.45594000000E+02  0.51100000000E-03 0. -1.
         23    2    1    2    0    0  0.00000000000E+00  0.35527136788E-14  0.00000000000E+00  0.91188000000E+02  0.91188000000E+02 0.  0.
    9900012    2    3    3    0    0 -0.16615418470E+02 -0.27482967524E+02  0.18010959114E+02  0.54367078188E+02  0.39999986346E+02 0.  0.
         12    1    3    3    0    0  0.16615418470E+02  0.27482967524E+02 -0.18010959114E+02  0.36820921812E+02  0.00000000000E+00 0. -1.
         11    1    4    4    0    0  0.20462710533E+01  0.56736505353E+01  0.41918885550E+01  0.73450299889E+01  0.51100000000E-03 0.  1.
        -11    1    4    4    0    0 -0.42116903681E+01  0.29249944278E+01 -0.13448655783E+01  0.53011877767E+01  0.51100000000E-03 0. -1.
        -12    1    4    4    0    0 -0.14449999155E+02 -0.36081612487E+02  0.15163936137E+02  0.41720860423E+02  0.00000000000E+00 0.  1.
</event>
<event>
 8    1  0.2531964E-006  0.9118800E+02  0.7816164E-02  0.1184000E+00
        -11   -1    0    0    0    0  0.00000000000E+00  0.00000000000E+00  0.45593999997E+02  0.45594000000E+02  0.51100000000E-03 0. -1.
         11   -1    0    0    0    0 -0.00000000000E+00 -0.00000000000E+00 -0.45593999997E+02  0.45594000000E+02  0.51100000000E-03 0.  1.
         23    2    1    2    0    0 -0.88817841970E-15  0.00000000000E+00  0.00000000000E+00  0.91188000000E+02  0.91188000000E+02 0.  0.
    9900012    2    3    3    0    0 -0.78102776284E+01  0.11290960889E+02  0.34165691729E+02  0.54367072177E+02  0.39999972641E+02 0.  0.
        -12    1    3    3    0    0  0.78102776284E+01 -0.11290960889E+02 -0.34165691729E+02  0.36820927823E+02  0.00000000000E+00 0.  1.
         11    1    4    4    0    0 -0.19910179787E+02  0.22793835832E+01  0.22435054380E+02  0.30082262447E+02  0.51100000000E-03 0. -1.
        -11    1    4    4    0    0  0.83313109280E+01  0.89493233617E+01  0.14960285204E+02  0.19321264556E+02  0.51100000000E-03 0.  1.
         12    1    4    4    0    0  0.37685912309E+01  0.62253944117E-01 -0.32296478543E+01  0.49635451727E+01  0.00000000000E+00 0. -1.
</event>
<event>
 8    1  0.2531964E-006  0.9118800E+02  0.7816164E-02  0.1184000E+00
        -11   -1    0    0    0    0  0.00000000000E+00  0.00000000000E+00  0.45593999997E+02  0.45594000000E+02  0.51100000000E-03 0.  1.
         11   -1    0    0    0    0 -0.00000000000E+00 -0.00000000000E+00 -0.45593999997E+02  0.45594000000E+02  0.51100000000E-03 0. -1.
         23    2    1    2    0    0  0.71054273576E-14 -0.17763568394E-14  0.17763568394E-14  0.91188000000E+02  0.91188000000E+02 0.  0.
    9900012    2    3    3    0    0 -0.34946034570E+02  0.81519488391E+01 -0.82520892779E+01  0.54367128480E+02  0.40000100996E+02 0.  0.
         12    1    3    3    0    0  0.34946034570E+02 -0.81519488391E+01  0.82520892779E+01  0.36820871520E+02  0.00000000000E+00 0. -1.
         11    1    4    4    0    0 -0.10168499825E+02 -0.77013456096E+01  0.56683924137E+01  0.13958502273E+02  0.51100000000E-03 0. -1.
        -11    1    4    4    0    0 -0.27326151474E+02  0.63095625068E+01 -0.98486774217E+01  0.29724158199E+02  0.51100000000E-03 0.  1.
         12    1    4    4    0    0  0.25486167289E+01  0.95437319419E+01 -0.40718042699E+01  0.10684468008E+02  0.00000000000E+00 0. -1.
</event>
<event>
 8    1  0.2531964E-006  0.9118800E+02  0.7816164E-02  0.1184000E+00
        -11   -1    0    0    0    0  0.00000000000E+00  0.00000000000E+00  0.45593999997E+02  0.45594000000E+02  0.51100000000E-03 0. -1.
         11   -1    0    0    0    0 -0.00000000000E+00 -0.00000000000E+00 -0.45593999997E+02  0.45594000000E+02  0.51100000000E-03 0.  1.
         23    2    1    2    0    0 -0.88817841970E-15 -0.71054273576E-14  0.17763568394E-14  0.91188000000E+02  0.91188000000E+02 0.  0.
    9900012    2    3    3    0    0 -0.60676083166E+01 -0.33133416583E+02  0.14870788557E+02  0.54367088584E+02  0.40000010046E+02 0.  0.
        -12    1    3    3    0    0  0.60676083166E+01  0.33133416583E+02 -0.14870788557E+02  0.36820911416E+02  0.00000000000E+00 0.  1.
         11    1    4    4    0    0 -0.55998696505E+01 -0.64729239401E+01 -0.52505233738E+01  0.10041179233E+02  0.51100000000E-03 0. -1.
        -11    1    4    4    0    0 -0.49415725796E+01  0.36947630928E+01 -0.20153180446E+01  0.64909106413E+01  0.51100000000E-03 0.  1.
        -12    1    4    4    0    0  0.44738339134E+01 -0.30355255736E+02  0.22136629975E+02  0.37834998710E+02  0.00000000000E+00 0.  1.
</event>
<event>
 8    1  0.2531964E-006  0.9118800E+02  0.7816164E-02  0.1184000E+00
        -11   -1    0    0    0    0  0.00000000000E+00  0.00000000000E+00  0.45593999997E+02  0.45594000000E+02  0.51100000000E-03 0.  1.
         11   -1    0    0    0    0 -0.00000000000E+00 -0.00000000000E+00 -0.45593999997E+02  0.45594000000E+02  0.51100000000E-03 0. -1.
         23    2    1    2    0    0  0.00000000000E+00  0.35527136788E-14 -0.88817841970E-15  0.91188000000E+02  0.91188000000E+02 0.  0.
    9900012    2    3    3    0    0 -0.34801150900E+02 -0.11251375120E+02  0.42505906146E+01  0.54367067548E+02  0.39999962089E+02 0.  0.
         12    1    3    3    0    0  0.34801150900E+02  0.11251375120E+02 -0.42505906146E+01  0.36820932452E+02  0.00000000000E+00 0. -1.
         11    1    4    4    0    0 -0.12581937307E+02  0.72982403271E+01 -0.30879204524E+01  0.14869590150E+02  0.51100000000E-03 0. -1.
        -11    1    4    4    0    0  0.46757256841E+01 -0.85234648347E+01 -0.52795656317E+00  0.97360465207E+01  0.51100000000E-03 0.  1.
         12    1    4    4    0    0 -0.26894939278E+02 -0.10026150612E+02  0.78664676302E+01  0.29761430877E+02  0.00000000000E+00 0. -1.
</event>
<event>
 8    1  0.2531964E-006  0.9118800E+02  0.7816164E-02  0.1184000E+00
        -11   -1    0    0    0    0  0.00000000000E+00  0.00000000000E+00  0.45593999997E+02  0.45594000000E+02  0.51100000000E-03 0.  1.
         11   -1    0    0    0    0 -0.00000000000E+00 -0.00000000000E+00 -0.45593999997E+02  0.45594000000E+02  0.51100000000E-03 0. -1.
         23    2    1    2    0    0 -0.35527136788E-14  0.35527136788E-14  0.00000000000E+00  0.91188000000E+02  0.91188000000E+02 0.  0.
    9900012    2    3    3    0    0 -0.10062516472E+02 -0.26611415127E+02  0.23374314328E+02  0.54367079002E+02  0.39999988202E+02 0.  0.
         12    1    3    3    0    0  0.10062516472E+02  0.26611415127E+02 -0.23374314328E+02  0.36820920998E+02  0.00000000000E+00 0. -1.
         11    1    4    4    0    0 -0.19144080002E+02  0.15260720907E+01  0.88728067996E+01  0.21155410559E+02  0.51100000000E-03 0. -1.
        -11    1    4    4    0    0  0.91473693046E+01 -0.23170031952E+02  0.12137179583E+02  0.27709851575E+02  0.51100000000E-03 0.  1.
         12    1    4    4    0    0 -0.65805774199E-01 -0.49674552659E+01  0.23643279454E+01  0.55018168683E+01  0.00000000000E+00 0. -1.
</event>
<event>
 8    1  0.2531964E-006  0.9118800E+02  0.7816164E-02  0.1184000E+00
        -11   -1    0    0    0    0  0.00000000000E+00  0.00000000000E+00  0.45593999997E+02  0.45594000000E+02  0.51100000000E-03 0.  1.
         11   -1    0    0    0    0 -0.00000000000E+00 -0.00000000000E+00 -0.45593999997E+02  0.45594000000E+02  0.51100000000E-03 0. -1.
         23    2    1    2    0    0  0.44408920985E-15 -0.44408920985E-15  0.00000000000E+00  0.91188000000E+02  0.91188000000E+02 0.  0.
    9900012    2    3    3    0    0 -0.28995595784E+01 -0.29499121445E+01  0.36587833722E+02  0.54367095559E+02  0.40000025945E+02 0.  0.
         12    1    3    3    0    0  0.28995595784E+01  0.29499121445E+01 -0.36587833722E+02  0.36820904441E+02  0.00000000000E+00 0. -1.
         11    1    4    4    0    0 -0.50304220363E-01  0.17170335860E+01  0.16455362255E+02  0.16544778090E+02  0.51100000000E-03 0. -1.
        -11    1    4    4    0    0 -0.14993095171E+02  0.27626192352E+00  0.19628634824E+02  0.24701265732E+02  0.51100000000E-03 0.  1.
         12    1    4    4    0    0  0.12143839813E+02 -0.49432076540E+01  0.50383664300E+00  0.13121051736E+02  0.00000000000E+00 0. -1.
</event>
<event>
 8    1  0.2531964E-006  0.9118800E+02  0.7816164E-02  0.1184000E+00
        -11   -1    0    0    0    0  0.00000000000E+00  0.00000000000E+00  0.45593999997E+02  0.45594000000E+02  0.51100000000E-03 0.  1.
         11   -1    0    0    0    0 -0.00000000000E+00 -0.00000000000E+00 -0.45593999997E+02  0.45594000000E+02  0.51100000000E-03 0. -1.
         23    2    1    2    0    0  0.00000000000E+00 -0.44408920985E-15 -0.71054273576E-14  0.91188000000E+02  0.91188000000E+02 0.  0.
    9900012    2    3    3    0    0 -0.34161123818E+01  0.37876067556E+01  0.36465981279E+02  0.54367033426E+02  0.39999884302E+02 0.  0.
         12    1    3    3    0    0  0.34161123818E+01 -0.37876067556E+01 -0.36465981279E+02  0.36820966574E+02  0.00000000000E+00 0. -1.
         11    1    4    4    0    0  0.73612906054E+01  0.94973498941E+01  0.46206657024E+01  0.12873958450E+02  0.51100000000E-03 0. -1.
        -11    1    4    4    0    0 -0.57196911619E+01 -0.80862472082E+00  0.33715009429E+02  0.34206294771E+02  0.51100000000E-03 0.  1.
         12    1    4    4    0    0 -0.50577118253E+01 -0.49011184177E+01 -0.18696938519E+01  0.72867802047E+01  0.00000000000E+00 0. -1.
</event>
<event>
 8    1  0.2531964E-006  0.9118800E+02  0.7816164E-02  0.1184000E+00
        -11   -1    0    0    0    0  0.00000000000E+00  0.00000000000E+00  0.45593999997E+02  0.45594000000E+02  0.51100000000E-03 0.  1.
         11   -1    0    0    0    0 -0.00000000000E+00 -0.00000000000E+00 -0.45593999997E+02  0.45594000000E+02  0.51100000000E-03 0. -1.
         23    2    1    2    0    0  0.00000000000E+00  0.00000000000E+00  0.00000000000E+00  0.91188000000E+02  0.91188000000E+02 0.  0.
    9900012    2    3    3    0    0 -0.13868196333E+02  0.98447617461E+01 -0.32657712424E+02  0.54367185450E+02  0.40000230870E+02 0.  0.
        -12    1    3    3    0    0  0.13868196333E+02 -0.98447617461E+01  0.32657712424E+02  0.36820814550E+02  0.00000000000E+00 0.  1.
         11    1    4    4    0    0 -0.57596927920E+01  0.16438464326E+02 -0.97762066835E+01  0.19974268142E+02  0.51100000000E-03 0. -1.
        -11    1    4    4    0    0 -0.24906568325E+00  0.10469790021E+01  0.46429954734E+01  0.47660891696E+01  0.51100000000E-03 0.  1.
         12    1    4    4    0    0 -0.78594378574E+01 -0.76406815815E+01 -0.27524501214E+02  0.29626828138E+02  0.00000000000E+00 0. -1.
</event>
<event>
 8    1  0.2531964E-006  0.9118800E+02  0.7816164E-02  0.1184000E+00
        -11   -1    0    0    0    0  0.00000000000E+00  0.00000000000E+00  0.45593999997E+02  0.45594000000E+02  0.51100000000E-03 0.  1.
         11   -1    0    0    0    0 -0.00000000000E+00 -0.00000000000E+00 -0.45593999997E+02  0.45594000000E+02  0.51100000000E-03 0. -1.
         23    2    1    2    0    0  0.71054273576E-14  0.35527136788E-14  0.15543122345E-14  0.91188000000E+02  0.91188000000E+02 0.  0.
    9900012    2    3    3    0    0  0.20834797221E+02  0.30319304200E+02 -0.15595025576E+01  0.54367068037E+02  0.39999963203E+02 0.  0.
         12    1    3    3    0    0 -0.20834797221E+02 -0.30319304200E+02  0.15595025576E+01  0.36820931963E+02  0.00000000000E+00 0. -1.
         11    1    4    4    0    0  0.46723225691E+01  0.76691281548E+01 -0.12382794720E+02  0.15296395987E+02  0.51100000000E-03 0. -1.
        -11    1    4    4    0    0  0.27910551433E+01  0.13928798788E+02  0.16820962889E+02  0.22016952951E+02  0.51100000000E-03 0.  1.
        -12    1    4    4    0    0  0.13371419509E+02  0.87213772577E+01 -0.59976707263E+01  0.17053719098E+02  0.00000000000E+00 0.  1.
</event>
<event>
 8    1  0.2531964E-006  0.9118800E+02  0.7816164E-02  0.1184000E+00
        -11   -1    0    0    0    0  0.00000000000E+00  0.00000000000E+00  0.45593999997E+02  0.45594000000E+02  0.51100000000E-03 0. -1.
         11   -1    0    0    0    0 -0.00000000000E+00 -0.00000000000E+00 -0.45593999997E+02  0.45594000000E+02  0.51100000000E-03 0.  1.
         23    2    1    2    0    0 -0.35527136788E-14  0.35527136788E-14  0.88817841970E-15  0.91188000000E+02  0.91188000000E+02 0.  0.
    9900012    2    3    3    0    0  0.30727384431E+02 -0.20029637662E+02  0.32283365492E+01  0.54367072585E+02  0.39999973571E+02 0.  0.
        -12    1    3    3    0    0 -0.30727384431E+02  0.20029637662E+02 -0.32283365492E+01  0.36820927415E+02  0.00000000000E+00 0.  1.
         11    1    4    4    0    0  0.59012776338E+01  0.86130757689E+01 -0.68504975216E+01  0.12487572561E+02  0.51100000000E-03 0. -1.
        -11    1    4    4    0    0  0.10573643848E+02 -0.17110654755E+02 -0.15421005240E+01  0.20173113906E+02  0.51100000000E-03 0.  1.
         12    1    4    4    0    0  0.14252462949E+02 -0.11532058676E+02  0.11620934595E+02  0.21706386117E+02  0.00000000000E+00 0. -1.
</event>
<event>
 8    1  0.2531964E-006  0.9118800E+02  0.7816164E-02  0.1184000E+00
        -11   -1    0    0    0    0  0.00000000000E+00  0.00000000000E+00  0.45593999997E+02  0.45594000000E+02  0.51100000000E-03 0. -1.
         11   -1    0    0    0    0 -0.00000000000E+00 -0.00000000000E+00 -0.45593999997E+02  0.45594000000E+02  0.51100000000E-03 0.  1.
         23    2    1    2    0    0  0.35527136788E-14  0.00000000000E+00  0.22204460493E-15  0.91188000000E+02  0.91188000000E+02 0.  0.
    9900012    2    3    3    0    0 -0.18959156513E+02 -0.31517116319E+02 -0.17328004883E+01  0.54367070703E+02  0.39999969281E+02 0.  0.
        -12    1    3    3    0    0  0.18959156513E+02  0.31517116319E+02  0.17328004883E+01  0.36820929297E+02  0.00000000000E+00 0.  1.
         11    1    4    4    0    0 -0.40125251657E+01 -0.21373703438E+02  0.66853467967E+01  0.22751470698E+02  0.51100000000E-03 0. -1.
        -11    1    4    4    0    0 -0.47686517856E+01 -0.17246078004E+02 -0.33227910769E+01  0.18199126001E+02  0.51100000000E-03 0.  1.
        -12    1    4    4    0    0 -0.10177979562E+02  0.71026651235E+01 -0.50953562081E+01  0.13416474004E+02  0.00000000000E+00 0.  1.
</event>
<event>
 8    1  0.2531964E-006  0.9118800E+02  0.7816164E-02  0.1184000E+00
        -11   -1    0    0    0    0  0.00000000000E+00  0.00000000000E+00  0.45593999997E+02  0.45594000000E+02  0.51100000000E-03 0.  1.
         11   -1    0    0    0    0 -0.00000000000E+00 -0.00000000000E+00 -0.45593999997E+02  0.45594000000E+02  0.51100000000E-03 0. -1.
         23    2    1    2    0    0  0.88817841970E-15  0.00000000000E+00  0.00000000000E+00  0.91188000000E+02  0.91188000000E+02 0.  0.
    9900012    2    3    3    0    0 -0.49090521609E+01 -0.85736454022E+01 -0.35470747826E+02  0.54367080132E+02  0.39999990777E+02 0.  0.
        -12    1    3    3    0    0  0.49090521609E+01  0.85736454022E+01  0.35470747826E+02  0.36820919868E+02  0.00000000000E+00 0.  1.
         11    1    4    4    0    0 -0.95186388978E+01 -0.35827027297E+01 -0.17463604768E+02  0.20209347764E+02  0.51100000000E-03 0. -1.
        -11    1    4    4    0    0  0.16128875990E+02 -0.65796238997E+00 -0.13525945367E+02  0.21060027387E+02  0.51100000000E-03 0.  1.
        -12    1    4    4    0    0 -0.11519289253E+02 -0.43329802825E+01 -0.44811976914E+01  0.13097704981E+02  0.00000000000E+00 0.  1.
</event>
<event>
 8    1  0.2531964E-006  0.9118800E+02  0.7816164E-02  0.1184000E+00
        -11   -1    0    0    0    0  0.00000000000E+00  0.00000000000E+00  0.45593999997E+02  0.45594000000E+02  0.51100000000E-03 0. -1.
         11   -1    0    0    0    0 -0.00000000000E+00 -0.00000000000E+00 -0.45593999997E+02  0.45594000000E+02  0.51100000000E-03 0.  1.
         23    2    1    2    0    0 -0.27755575616E-15  0.00000000000E+00 -0.71054273576E-14  0.91188000000E+02  0.91188000000E+02 0.  0.
    9900012    2    3    3    0    0 -0.23243640008E+00  0.16482203954E+02 -0.32925153224E+02  0.54367044164E+02  0.39999908780E+02 0.  0.
         12    1    3    3    0    0  0.23243640008E+00 -0.16482203954E+02  0.32925153224E+02  0.36820955836E+02  0.00000000000E+00 0. -1.
         11    1    4    4    0    0  0.75350668895E+01  0.31097518979E+01 -0.22966118639E+01  0.84688969890E+01  0.51100000000E-03 0. -1.
        -11    1    4    4    0    0  0.56367187434E+01  0.18626784821E+02 -0.14436333529E+02  0.24230919028E+02  0.51100000000E-03 0.  1.
        -12    1    4    4    0    0 -0.13404222033E+02 -0.52543327644E+01 -0.16192207831E+02  0.21667228146E+02  0.00000000000E+00 0.  1.
</event>
<event>
 8    1  0.2531964E-006  0.9118800E+02  0.7816164E-02  0.1184000E+00
        -11   -1    0    0    0    0  0.00000000000E+00  0.00000000000E+00  0.45593999997E+02  0.45594000000E+02  0.51100000000E-03 0.  1.
         11   -1    0    0    0    0 -0.00000000000E+00 -0.00000000000E+00 -0.45593999997E+02  0.45594000000E+02  0.51100000000E-03 0. -1.
         23    2    1    2    0    0  0.00000000000E+00 -0.88817841970E-15 -0.71054273576E-14  0.91188000000E+02  0.91188000000E+02 0.  0.
    9900012    2    3    3    0    0 -0.76253350189E+01 -0.56015155145E+01  0.35584499818E+02  0.54367091029E+02  0.40000015618E+02 0.  0.
         12    1    3    3    0    0  0.76253350189E+01  0.56015155145E+01 -0.35584499818E+02  0.36820908971E+02  0.00000000000E+00 0. -1.
         11    1    4    4    0    0  0.10640453516E+02  0.22176069229E+01  0.83159584498E+01  0.13685473930E+02  0.51100000000E-03 0. -1.
        -11    1    4    4    0    0 -0.69426921939E+01 -0.86396564073E+01 -0.65494490495E-01  0.11083723541E+02  0.51100000000E-03 0.  1.
        -12    1    4    4    0    0 -0.11323096341E+02  0.82053396991E+00  0.27334035858E+02  0.29597893558E+02  0.00000000000E+00 0.  1.
</event>
<event>
 8    1  0.2531964E-006  0.9118800E+02  0.7816164E-02  0.1184000E+00
        -11   -1    0    0    0    0  0.00000000000E+00  0.00000000000E+00  0.45593999997E+02  0.45594000000E+02  0.51100000000E-03 0.  1.
         11   -1    0    0    0    0 -0.00000000000E+00 -0.00000000000E+00 -0.45593999997E+02  0.45594000000E+02  0.51100000000E-03 0. -1.
         23    2    1    2    0    0  0.23453461395E-14  0.00000000000E+00  0.00000000000E+00  0.91188000000E+02  0.91188000000E+02 0.  0.
    9900012    2    3    3    0    0  0.10813601411E+00 -0.36546583197E+02 -0.44852339215E+01  0.54367058131E+02  0.39999940621E+02 0.  0.
        -12    1    3    3    0    0 -0.10813601411E+00  0.36546583197E+02  0.44852339215E+01  0.36820941869E+02  0.00000000000E+00 0.  1.
         11    1    4    4    0    0  0.16186865183E+02 -0.26900379567E+02  0.37680593345E+01  0.31620298808E+02  0.51100000000E-03 0. -1.
        -11    1    4    4    0    0 -0.13211972188E+01 -0.26485325097E+01  0.18984583020E+01  0.35163092486E+01  0.51100000000E-03 0.  1.
        -12    1    4    4    0    0 -0.14757531950E+02 -0.69976711205E+01 -0.10151751558E+02  0.19230450074E+02  0.00000000000E+00 0.  1.
</event>
<event>
 8    1  0.2531964E-006  0.9118800E+02  0.7816164E-02  0.1184000E+00
        -11   -1    0    0    0    0  0.00000000000E+00  0.00000000000E+00  0.45593999997E+02  0.45594000000E+02  0.51100000000E-03 0. -1.
         11   -1    0    0    0    0 -0.00000000000E+00 -0.00000000000E+00 -0.45593999997E+02  0.45594000000E+02  0.51100000000E-03 0.  1.
         23    2    1    2    0    0 -0.35527136788E-14  0.00000000000E+00 -0.71054273576E-14  0.91188000000E+02  0.91188000000E+02 0.  0.
    9900012    2    3    3    0    0  0.17785580220E+02 -0.10401931648E+02  0.30516430629E+02  0.54367087680E+02  0.40000007984E+02 0.  0.
        -12    1    3    3    0    0 -0.17785580220E+02  0.10401931648E+02 -0.30516430629E+02  0.36820912320E+02  0.00000000000E+00 0.  1.
         11    1    4    4    0    0 -0.58611934065E+01  0.57211383268E+00  0.57137878003E+01  0.82053807757E+01  0.51100000000E-03 0. -1.
        -11    1    4    4    0    0 -0.12635873888E+01  0.75634037897E+01  0.69225495969E+01  0.10330702936E+02  0.51100000000E-03 0.  1.
        -12    1    4    4    0    0  0.24910361016E+02 -0.18537449270E+02  0.17880093231E+02  0.35831003968E+02  0.00000000000E+00 0.  1.
</event>
<event>
 8    1  0.2531964E-006  0.9118800E+02  0.7816164E-02  0.1184000E+00
        -11   -1    0    0    0    0  0.00000000000E+00  0.00000000000E+00  0.45593999997E+02  0.45594000000E+02  0.51100000000E-03 0. -1.
         11   -1    0    0    0    0 -0.00000000000E+00 -0.00000000000E+00 -0.45593999997E+02  0.45594000000E+02  0.51100000000E-03 0.  1.
         23    2    1    2    0    0 -0.17763568394E-14  0.00000000000E+00 -0.35527136788E-14  0.91188000000E+02  0.91188000000E+02 0.  0.
    9900012    2    3    3    0    0 -0.10939789032E+02 -0.21065799722E+02 -0.28148404894E+02  0.54367087463E+02  0.40000007488E+02 0.  0.
         12    1    3    3    0    0  0.10939789032E+02  0.21065799722E+02  0.28148404894E+02  0.36820912537E+02  0.00000000000E+00 0. -1.
         11    1    4    4    0    0  0.76356163515E+01 -0.23232586241E+01 -0.20310269197E+01  0.82356079503E+01  0.51100000000E-03 0. -1.
        -11    1    4    4    0    0  0.52586999336E+01 -0.10372535176E+02 -0.32938790280E+01  0.12086895809E+02  0.51100000000E-03 0.  1.
        -12    1    4    4    0    0 -0.23834105317E+02 -0.83700059214E+01 -0.22823498947E+02  0.34044583704E+02  0.00000000000E+00 0.  1.
</event>
<event>
 8    1  0.2531964E-006  0.9118800E+02  0.7816164E-02  0.1184000E+00
        -11   -1    0    0    0    0  0.00000000000E+00  0.00000000000E+00  0.45593999997E+02  0.45594000000E+02  0.51100000000E-03 0.  1.
         11   -1    0    0    0    0 -0.00000000000E+00 -0.00000000000E+00 -0.45593999997E+02  0.45594000000E+02  0.51100000000E-03 0. -1.
         23    2    1    2    0    0  0.00000000000E+00  0.00000000000E+00  0.88817841970E-15  0.91188000000E+02  0.91188000000E+02 0.  0.
    9900012    2    3    3    0    0  0.28663307673E+02  0.22669209700E+02  0.45054306184E+01  0.54367120323E+02  0.40000082399E+02 0.  0.
         12    1    3    3    0    0 -0.28663307673E+02 -0.22669209700E+02 -0.45054306184E+01  0.36820879677E+02  0.00000000000E+00 0. -1.
         11    1    4    4    0    0  0.18202375982E+02  0.52073877383E+01  0.90987722596E+00  0.18954452123E+02  0.51100000000E-03 0. -1.
        -11    1    4    4    0    0  0.85228903814E+01  0.77727338473E+01  0.15892708616E+02  0.19637546673E+02  0.51100000000E-03 0.  1.
        -12    1    4    4    0    0  0.19380413096E+01  0.96890881140E+01 -0.12297155224E+02  0.15775121527E+02  0.00000000000E+00 0.  1.
</event>
<event>
 8    1  0.2531964E-006  0.9118800E+02  0.7816164E-02  0.1184000E+00
        -11   -1    0    0    0    0  0.00000000000E+00  0.00000000000E+00  0.45593999997E+02  0.45594000000E+02  0.51100000000E-03 0.  1.
         11   -1    0    0    0    0 -0.00000000000E+00 -0.00000000000E+00 -0.45593999997E+02  0.45594000000E+02  0.51100000000E-03 0. -1.
         23    2    1    2    0    0  0.88817841970E-15  0.35527136788E-14  0.00000000000E+00  0.91188000000E+02  0.91188000000E+02 0.  0.
    9900012    2    3    3    0    0  0.64574011765E+01  0.28097637053E+02 -0.22904218289E+02  0.54367103035E+02  0.40000042988E+02 0.  0.
        -12    1    3    3    0    0 -0.64574011765E+01 -0.28097637053E+02  0.22904218289E+02  0.36820896965E+02  0.00000000000E+00 0.  1.
         11    1    4    4    0    0 -0.77972665267E+00  0.97322433623E+01 -0.15126190951E+02  0.18003504866E+02  0.51100000000E-03 0. -1.
        -11    1    4    4    0    0 -0.85853366691E+01  0.17641808655E+02 -0.53792219044E+01  0.20343978148E+02  0.51100000000E-03 0.  1.
         12    1    4    4    0    0  0.15822464498E+02  0.72358503636E+00 -0.23988054337E+01  0.16019620021E+02  0.00000000000E+00 0. -1.
</event>
<event>
 8    1  0.2531964E-006  0.9118800E+02  0.7816164E-02  0.1184000E+00
        -11   -1    0    0    0    0  0.00000000000E+00  0.00000000000E+00  0.45593999997E+02  0.45594000000E+02  0.51100000000E-03 0.  1.
         11   -1    0    0    0    0 -0.00000000000E+00 -0.00000000000E+00 -0.45593999997E+02  0.45594000000E+02  0.51100000000E-03 0. -1.
         23    2    1    2    0    0  0.99920072216E-15  0.00000000000E+00  0.00000000000E+00  0.91188000000E+02  0.91188000000E+02 0.  0.
    9900012    2    3    3    0    0  0.87207122304E+00 -0.32311599412E+02  0.17634573443E+02  0.54367107217E+02  0.40000052523E+02 0.  0.
        -12    1    3    3    0    0 -0.87207122304E+00  0.32311599412E+02 -0.17634573443E+02  0.36820892783E+02  0.00000000000E+00 0.  1.
         11    1    4    4    0    0  0.10923389349E+02 -0.41171782814E+01 -0.42398626500E+01  0.12419662935E+02  0.51100000000E-03 0. -1.
        -11    1    4    4    0    0 -0.55947478573E+01 -0.11684328897E+02 -0.14390739847E+01  0.13034403690E+02  0.51100000000E-03 0.  1.
        -12    1    4    4    0    0 -0.44565702687E+01 -0.16510092233E+02  0.23313510078E+02  0.28913040592E+02  0.00000000000E+00 0.  1.
</event>
<event>
 8    1  0.2531964E-006  0.9118800E+02  0.7816164E-02  0.1184000E+00
        -11   -1    0    0    0    0  0.00000000000E+00  0.00000000000E+00  0.45593999997E+02  0.45594000000E+02  0.51100000000E-03 0.  1.
         11   -1    0    0    0    0 -0.00000000000E+00 -0.00000000000E+00 -0.45593999997E+02  0.45594000000E+02  0.51100000000E-03 0. -1.
         23    2    1    2    0    0  0.17763568394E-14  0.00000000000E+00  0.00000000000E+00  0.91188000000E+02  0.91188000000E+02 0.  0.
    9900012    2    3    3    0    0 -0.62489919289E+01 -0.13669842426E+02 -0.33613473417E+02  0.54367080848E+02  0.39999992409E+02 0.  0.
        -12    1    3    3    0    0  0.62489919289E+01  0.13669842426E+02  0.33613473417E+02  0.36820919152E+02  0.00000000000E+00 0.  1.
         11    1    4    4    0    0  0.32777735097E+01 -0.17827828648E+02 -0.36745473356E+02  0.40973224012E+02  0.51100000000E-03 0. -1.
        -11    1    4    4    0    0 -0.54564960814E+01  0.30370405810E+00  0.50780920166E+01  0.74600673209E+01  0.51100000000E-03 0.  1.
         12    1    4    4    0    0 -0.40702693572E+01  0.38542821639E+01 -0.19460920773E+01  0.59337895154E+01  0.00000000000E+00 0. -1.
</event>
<event>
 8    1  0.2531964E-006  0.9118800E+02  0.7816164E-02  0.1184000E+00
        -11   -1    0    0    0    0  0.00000000000E+00  0.00000000000E+00  0.45593999997E+02  0.45594000000E+02  0.51100000000E-03 0. -1.
         11   -1    0    0    0    0 -0.00000000000E+00 -0.00000000000E+00 -0.45593999997E+02  0.45594000000E+02  0.51100000000E-03 0.  1.
         23    2    1    2    0    0 -0.88817841970E-15 -0.71054273576E-14  0.35527136788E-14  0.91188000000E+02  0.91188000000E+02 0.  0.
    9900012    2    3    3    0    0  0.39438050095E+00  0.34688331004E+02 -0.12343098533E+02  0.54366974414E+02  0.39999749770E+02 0.  0.
         12    1    3    3    0    0 -0.39438050095E+00 -0.34688331004E+02  0.12343098533E+02  0.36821025586E+02  0.00000000000E+00 0. -1.
         11    1    4    4    0    0  0.11948948054E+02  0.28696250145E+02 -0.96879454541E+01  0.32559306187E+02  0.51100000000E-03 0.  1.
        -11    1    4    4    0    0 -0.70568681264E+01  0.41529620579E+01  0.71461093889E+01  0.10867997114E+02  0.51100000000E-03 0. -1.
        -12    1    4    4    0    0 -0.44976994269E+01  0.18391188009E+01 -0.98012624673E+01  0.10939671113E+02  0.00000000000E+00 0.  1.
</event>
<event>
 8    1  0.2531964E-006  0.9118800E+02  0.7816164E-02  0.1184000E+00
        -11   -1    0    0    0    0  0.00000000000E+00  0.00000000000E+00  0.45593999997E+02  0.45594000000E+02  0.51100000000E-03 0. -1.
         11   -1    0    0    0    0 -0.00000000000E+00 -0.00000000000E+00 -0.45593999997E+02  0.45594000000E+02  0.51100000000E-03 0.  1.
         23    2    1    2    0    0 -0.17763568394E-14  0.00000000000E+00  0.35527136788E-14  0.91188000000E+02  0.91188000000E+02 0.  0.
    9900012    2    3    3    0    0  0.97750210106E+01 -0.24876230516E+02  0.25325998377E+02  0.54367026707E+02  0.39999868984E+02 0.  0.
        -12    1    3    3    0    0 -0.97750210106E+01  0.24876230516E+02 -0.25325998377E+02  0.36820973293E+02  0.00000000000E+00 0.  1.
         11    1    4    4    0    0 -0.30452551068E+01 -0.24025925497E+01  0.22773970955E+01  0.44980626293E+01  0.51100000000E-03 0. -1.
        -11    1    4    4    0    0  0.19099392383E+02  0.86037046726E+00  0.15318224348E+02  0.24498469834E+02  0.51100000000E-03 0.  1.
        -12    1    4    4    0    0 -0.62791162657E+01 -0.23334008434E+02  0.77303769332E+01  0.25370494244E+02  0.00000000000E+00 0.  1.
</event>
<event>
 8    1  0.2531964E-006  0.9118800E+02  0.7816164E-02  0.1184000E+00
        -11   -1    0    0    0    0  0.00000000000E+00  0.00000000000E+00  0.45593999997E+02  0.45594000000E+02  0.51100000000E-03 0. -1.
         11   -1    0    0    0    0 -0.00000000000E+00 -0.00000000000E+00 -0.45593999997E+02  0.45594000000E+02  0.51100000000E-03 0.  1.
         23    2    1    2    0    0  0.35527136788E-14  0.35527136788E-14  0.88817841970E-15  0.91188000000E+02  0.91188000000E+02 0.  0.
    9900012    2    3    3    0    0  0.29642467783E+02 -0.20670985749E+02  0.70579065906E+01  0.54367087551E+02  0.40000007690E+02 0.  0.
        -12    1    3    3    0    0 -0.29642467783E+02  0.20670985749E+02 -0.70579065906E+01  0.36820912449E+02  0.00000000000E+00 0.  1.
         11    1    4    4    0    0  0.26884180350E+02 -0.63865209490E+01 -0.69718022859E+00  0.27641144395E+02  0.51100000000E-03 0.  1.
        -11    1    4    4    0    0  0.97106728767E+01 -0.14839901741E+02  0.85829244879E+01  0.19702447676E+02  0.51100000000E-03 0. -1.
         12    1    4    4    0    0 -0.69523854436E+01  0.55543694034E+00 -0.82783766868E+00  0.70234954800E+01  0.00000000000E+00 0. -1.
</event>
<event>
 8    1  0.2531964E-006  0.9118800E+02  0.7816164E-02  0.1184000E+00
        -11   -1    0    0    0    0  0.00000000000E+00  0.00000000000E+00  0.45593999997E+02  0.45594000000E+02  0.51100000000E-03 0.  1.
         11   -1    0    0    0    0 -0.00000000000E+00 -0.00000000000E+00 -0.45593999997E+02  0.45594000000E+02  0.51100000000E-03 0. -1.
         23    2    1    2    0    0  0.00000000000E+00  0.00000000000E+00  0.00000000000E+00  0.91188000000E+02  0.91188000000E+02 0.  0.
    9900012    2    3    3    0    0 -0.12832043645E+02 -0.33469699447E+02  0.84200657594E+01  0.54367087021E+02  0.40000006482E+02 0.  0.
         12    1    3    3    0    0  0.12832043645E+02  0.33469699447E+02 -0.84200657594E+01  0.36820912979E+02  0.00000000000E+00 0. -1.
         11    1    4    4    0    0 -0.20497128628E-01 -0.25528982774E+02  0.59769079073E+01  0.26219321311E+02  0.51100000000E-03 0. -1.
        -11    1    4    4    0    0 -0.64472758271E+01  0.58574876483E+01  0.81377028444E+01  0.11920559340E+02  0.51100000000E-03 0.  1.
         12    1    4    4    0    0 -0.63642706894E+01 -0.13798204322E+02 -0.56945449922E+01  0.16227206370E+02  0.00000000000E+00 0. -1.
</event>
<event>
 8    1  0.2531964E-006  0.9118800E+02  0.7816164E-02  0.1184000E+00
        -11   -1    0    0    0    0  0.00000000000E+00  0.00000000000E+00  0.45593999997E+02  0.45594000000E+02  0.51100000000E-03 0.  1.
         11   -1    0    0    0    0 -0.00000000000E+00 -0.00000000000E+00 -0.45593999997E+02  0.45594000000E+02  0.51100000000E-03 0. -1.
         23    2    1    2    0    0  0.88817841970E-15  0.00000000000E+00  0.00000000000E+00  0.91188000000E+02  0.91188000000E+02 0.  0.
    9900012    2    3    3    0    0 -0.67961198571E+01 -0.35892333926E+02  0.46190205723E+01  0.54367051739E+02  0.39999926050E+02 0.  0.
         12    1    3    3    0    0  0.67961198571E+01  0.35892333926E+02 -0.46190205723E+01  0.36820948261E+02  0.00000000000E+00 0. -1.
         11    1    4    4    0    0 -0.33334396933E+01 -0.93503016601E+01  0.10277777222E+02  0.14288900105E+02  0.51100000000E-03 0. -1.
        -11    1    4    4    0    0  0.53839821599E+01 -0.79549177584E+01  0.10260961309E+02  0.14055436944E+02  0.51100000000E-03 0.  1.
         12    1    4    4    0    0 -0.88466623236E+01 -0.18587114508E+02 -0.15919717958E+02  0.26022714690E+02  0.00000000000E+00 0. -1.
</event>
<event>
 8    1  0.2531964E-006  0.9118800E+02  0.7816164E-02  0.1184000E+00
        -11   -1    0    0    0    0  0.00000000000E+00  0.00000000000E+00  0.45593999997E+02  0.45594000000E+02  0.51100000000E-03 0.  1.
         11   -1    0    0    0    0 -0.00000000000E+00 -0.00000000000E+00 -0.45593999997E+02  0.45594000000E+02  0.51100000000E-03 0. -1.
         23    2    1    2    0    0  0.00000000000E+00  0.00000000000E+00 -0.35527136788E-14  0.91188000000E+02  0.91188000000E+02 0.  0.
    9900012    2    3    3    0    0 -0.44241639956E+01  0.24101194655E+02  0.27483427191E+02  0.54367087722E+02  0.40000008079E+02 0.  0.
         12    1    3    3    0    0  0.44241639956E+01 -0.24101194655E+02 -0.27483427191E+02  0.36820912278E+02  0.00000000000E+00 0. -1.
         11    1    4    4    0    0 -0.10579269060E+02  0.14544622761E+02 -0.33127572060E+01  0.18287737576E+02  0.51100000000E-03 0. -1.
        -11    1    4    4    0    0  0.63469080878E+01  0.13075446891E+02  0.28120478031E+02  0.31654570580E+02  0.51100000000E-03 0.  1.
         12    1    4    4    0    0 -0.19180302319E+00 -0.35188749967E+01  0.26757063657E+01  0.44247795649E+01  0.00000000000E+00 0. -1.
</event>
<event>
 8    1  0.2531964E-006  0.9118800E+02  0.7816164E-02  0.1184000E+00
        -11   -1    0    0    0    0  0.00000000000E+00  0.00000000000E+00  0.45593999997E+02  0.45594000000E+02  0.51100000000E-03 0. -1.
         11   -1    0    0    0    0 -0.00000000000E+00 -0.00000000000E+00 -0.45593999997E+02  0.45594000000E+02  0.51100000000E-03 0.  1.
         23    2    1    2    0    0 -0.35527136788E-14  0.00000000000E+00  0.00000000000E+00  0.91188000000E+02  0.91188000000E+02 0.  0.
    9900012    2    3    3    0    0  0.14037367857E+02 -0.25335136327E+02  0.22734617093E+02  0.54367086874E+02  0.40000006147E+02 0.  0.
        -12    1    3    3    0    0 -0.14037367857E+02  0.25335136327E+02 -0.22734617093E+02  0.36820913126E+02  0.00000000000E+00 0.  1.
         11    1    4    4    0    0  0.16860009486E+02 -0.21418096949E+01  0.54577923623E+01  0.17850343592E+02  0.51100000000E-03 0. -1.
        -11    1    4    4    0    0 -0.43845158913E+01 -0.85423341695E+01 -0.41930161015E+01  0.10477444200E+02  0.51100000000E-03 0.  1.
        -12    1    4    4    0    0  0.15618742627E+01 -0.14650992463E+02  0.21469840832E+02  0.26039299083E+02  0.00000000000E+00 0.  1.
</event>
<event>
 8    1  0.2531964E-006  0.9118800E+02  0.7816164E-02  0.1184000E+00
        -11   -1    0    0    0    0  0.00000000000E+00  0.00000000000E+00  0.45593999997E+02  0.45594000000E+02  0.51100000000E-03 0. -1.
         11   -1    0    0    0    0 -0.00000000000E+00 -0.00000000000E+00 -0.45593999997E+02  0.45594000000E+02  0.51100000000E-03 0.  1.
         23    2    1    2    0    0 -0.71054273576E-14 -0.17763568394E-14 -0.17763568394E-14  0.91188000000E+02  0.91188000000E+02 0.  0.
    9900012    2    3    3    0    0  0.35158579554E+02  0.85345825039E+01  0.68419616120E+01  0.54367119328E+02  0.40000080131E+02 0.  0.
        -12    1    3    3    0    0 -0.35158579554E+02 -0.85345825039E+01 -0.68419616120E+01  0.36820880672E+02  0.00000000000E+00 0.  1.
         11    1    4    4    0    0  0.89630691189E+01 -0.11391544792E+02 -0.19460714488E+01  0.14625016072E+02  0.51100000000E-03 0. -1.
        -11    1    4    4    0    0  0.22862894626E+01 -0.39677553975E+01  0.29296871211E+01  0.54362918695E+01  0.51100000000E-03 0.  1.
         12    1    4    4    0    0  0.23909220973E+02  0.23893882693E+02  0.58583459397E+01  0.34305811386E+02  0.00000000000E+00 0. -1.
</event>
<event>
 8    1  0.2531964E-006  0.9118800E+02  0.7816164E-02  0.1184000E+00
        -11   -1    0    0    0    0  0.00000000000E+00  0.00000000000E+00  0.45593999997E+02  0.45594000000E+02  0.51100000000E-03 0.  1.
         11   -1    0    0    0    0 -0.00000000000E+00 -0.00000000000E+00 -0.45593999997E+02  0.45594000000E+02  0.51100000000E-03 0. -1.
         23    2    1    2    0    0  0.00000000000E+00  0.00000000000E+00 -0.88817841970E-15  0.91188000000E+02  0.91188000000E+02 0.  0.
    9900012    2    3    3    0    0  0.21342592535E+02  0.29389829682E+02  0.60424240579E+01  0.54367092443E+02  0.40000018842E+02 0.  0.
         12    1    3    3    0    0 -0.21342592535E+02 -0.29389829682E+02 -0.60424240579E+01  0.36820907557E+02  0.00000000000E+00 0. -1.
         11    1    4    4    0    0  0.28017158023E+00 -0.65736492325E+01 -0.66040393771E+00  0.66126767628E+01  0.51100000000E-03 0. -1.
        -11    1    4    4    0    0  0.90600383258E-01  0.18939174181E+02 -0.27462797345E+01  0.19137465342E+02  0.51100000000E-03 0.  1.
        -12    1    4    4    0    0  0.20971820571E+02  0.17024304734E+02  0.94491077301E+01  0.28616950338E+02  0.00000000000E+00 0.  1.
</event>
<event>
 8    1  0.2531964E-006  0.9118800E+02  0.7816164E-02  0.1184000E+00
        -11   -1    0    0    0    0  0.00000000000E+00  0.00000000000E+00  0.45593999997E+02  0.45594000000E+02  0.51100000000E-03 0.  1.
         11   -1    0    0    0    0 -0.00000000000E+00 -0.00000000000E+00 -0.45593999997E+02  0.45594000000E+02  0.51100000000E-03 0. -1.
         23    2    1    2    0    0  0.00000000000E+00  0.00000000000E+00  0.35527136788E-14  0.91188000000E+02  0.91188000000E+02 0.  0.
    9900012    2    3    3    0    0  0.25620833869E+02  0.16714021237E+02 -0.20493754800E+02  0.54367087194E+02  0.40000006877E+02 0.  0.
        -12    1    3    3    0    0 -0.25620833869E+02 -0.16714021237E+02  0.20493754800E+02  0.36820912806E+02  0.00000000000E+00 0.  1.
         11    1    4    4    0    0  0.14269607462E+02  0.15873531364E+02 -0.28352382438E+02  0.35488706447E+02  0.51100000000E-03 0. -1.
        -11    1    4    4    0    0  0.61876357403E+01  0.66533671714E+01  0.24608767070E+01  0.94132908805E+01  0.51100000000E-03 0.  1.
         12    1    4    4    0    0  0.51635906672E+01 -0.58128772988E+01  0.53977509315E+01  0.94650898669E+01  0.00000000000E+00 0. -1.
</event>
<event>
 8    1  0.2531964E-006  0.9118800E+02  0.7816164E-02  0.1184000E+00
        -11   -1    0    0    0    0  0.00000000000E+00  0.00000000000E+00  0.45593999997E+02  0.45594000000E+02  0.51100000000E-03 0.  1.
         11   -1    0    0    0    0 -0.00000000000E+00 -0.00000000000E+00 -0.45593999997E+02  0.45594000000E+02  0.51100000000E-03 0. -1.
         23    2    1    2    0    0  0.00000000000E+00  0.00000000000E+00  0.00000000000E+00  0.91188000000E+02  0.91188000000E+02 0.  0.
    9900012    2    3    3    0    0  0.22680759678E+02 -0.23664582127E+02 -0.16773493316E+02  0.54367090385E+02  0.40000014152E+02 0.  0.
        -12    1    3    3    0    0 -0.22680759678E+02  0.23664582127E+02  0.16773493316E+02  0.36820909615E+02  0.00000000000E+00 0.  1.
         11    1    4    4    0    0  0.76362145761E+00  0.65276476830E+01  0.77669306420E+00  0.66178965224E+01  0.51100000000E-03 0. -1.
        -11    1    4    4    0    0  0.34743828409E+01  0.50964173254E+00  0.44865199990E+01  0.56973619143E+01  0.51100000000E-03 0.  1.
         12    1    4    4    0    0  0.18442755380E+02 -0.30701871542E+02 -0.22036706379E+02  0.42051831949E+02  0.00000000000E+00 0. -1.
</event>
<event>
 8    1  0.2531964E-006  0.9118800E+02  0.7816164E-02  0.1184000E+00
        -11   -1    0    0    0    0  0.00000000000E+00  0.00000000000E+00  0.45593999997E+02  0.45594000000E+02  0.51100000000E-03 0.  1.
         11   -1    0    0    0    0 -0.00000000000E+00 -0.00000000000E+00 -0.45593999997E+02  0.45594000000E+02  0.51100000000E-03 0. -1.
         23    2    1    2    0    0 -0.35527136788E-14 -0.35527136788E-14 -0.35527136788E-14  0.91188000000E+02  0.91188000000E+02 0.  0.
    9900012    2    3    3    0    0  0.18968000973E+02  0.30065880814E+02 -0.95936042842E+01  0.54367088914E+02  0.40000010797E+02 0.  0.
         12    1    3    3    0    0 -0.18968000973E+02 -0.30065880814E+02  0.95936042842E+01  0.36820911086E+02  0.00000000000E+00 0. -1.
         11    1    4    4    0    0  0.21807633308E+01  0.25717466615E+00 -0.16805199387E+02  0.16948055765E+02  0.51100000000E-03 0. -1.
        -11    1    4    4    0    0  0.25054605890E+01 -0.11797726931E+00  0.31268490871E+01  0.40085454810E+01  0.51100000000E-03 0.  1.
         12    1    4    4    0    0  0.14281777053E+02  0.29926683418E+02  0.40847460158E+01  0.33410487668E+02  0.00000000000E+00 0. -1.
</event>
<event>
 8    1  0.2531964E-006  0.9118800E+02  0.7816164E-02  0.1184000E+00
        -11   -1    0    0    0    0  0.00000000000E+00  0.00000000000E+00  0.45593999997E+02  0.45594000000E+02  0.51100000000E-03 0. -1.
         11   -1    0    0    0    0 -0.00000000000E+00 -0.00000000000E+00 -0.45593999997E+02  0.45594000000E+02  0.51100000000E-03 0.  1.
         23    2    1    2    0    0  0.35527136788E-14 -0.17763568394E-14  0.00000000000E+00  0.91188000000E+02  0.91188000000E+02 0.  0.
    9900012    2    3    3    0    0  0.26949128434E+02 -0.77636080380E+01  0.23858970137E+02  0.54367087612E+02  0.40000007828E+02 0.  0.
        -12    1    3    3    0    0 -0.26949128434E+02  0.77636080380E+01 -0.23858970137E+02  0.36820912388E+02  0.00000000000E+00 0.  1.
         11    1    4    4    0    0  0.96770183410E+01 -0.54715052351E+01 -0.10750270538E+01  0.11168604968E+02  0.51100000000E-03 0.  1.
        -11    1    4    4    0    0  0.17038186690E+02 -0.14763015257E+02  0.13497848720E+02  0.26276193512E+02  0.51100000000E-03 0. -1.
         12    1    4    4    0    0  0.23392340292E+00  0.12470912454E+02  0.11436148471E+02  0.16922289131E+02  0.00000000000E+00 0. -1.
</event>
<event>
 8    1  0.2531964E-006  0.9118800E+02  0.7816164E-02  0.1184000E+00
        -11   -1    0    0    0    0  0.00000000000E+00  0.00000000000E+00  0.45593999997E+02  0.45594000000E+02  0.51100000000E-03 0. -1.
         11   -1    0    0    0    0 -0.00000000000E+00 -0.00000000000E+00 -0.45593999997E+02  0.45594000000E+02  0.51100000000E-03 0.  1.
         23    2    1    2    0    0  0.10824674490E-14 -0.35527136788E-14  0.35527136788E-14  0.91188000000E+02  0.91188000000E+02 0.  0.
    9900012    2    3    3    0    0 -0.18924492991E+00 -0.21671296938E+02  0.29767406360E+02  0.54367090098E+02  0.40000013496E+02 0.  0.
        -12    1    3    3    0    0  0.18924492991E+00  0.21671296938E+02 -0.29767406360E+02  0.36820909902E+02  0.00000000000E+00 0.  1.
         11    1    4    4    0    0  0.14277450875E+02 -0.12606731488E+02  0.69966841912E+01  0.20291103278E+02  0.51100000000E-03 0.  1.
        -11    1    4    4    0    0  0.38118038060E+01 -0.23416741328E+01  0.95238336855E+01  0.10522200071E+02  0.51100000000E-03 0. -1.
         12    1    4    4    0    0 -0.18278499611E+02 -0.67228913168E+01  0.13246888484E+02  0.23553786749E+02  0.00000000000E+00 0. -1.
</event>
<event>
 8    1  0.2531964E-006  0.9118800E+02  0.7816164E-02  0.1184000E+00
        -11   -1    0    0    0    0  0.00000000000E+00  0.00000000000E+00  0.45593999997E+02  0.45594000000E+02  0.51100000000E-03 0.  1.
         11   -1    0    0    0    0 -0.00000000000E+00 -0.00000000000E+00 -0.45593999997E+02  0.45594000000E+02  0.51100000000E-03 0. -1.
         23    2    1    2    0    0 -0.88817841970E-15  0.00000000000E+00  0.00000000000E+00  0.91188000000E+02  0.91188000000E+02 0.  0.
    9900012    2    3    3    0    0  0.79568032347E+01 -0.30675794314E+02 -0.18747380475E+02  0.54367090870E+02  0.40000015256E+02 0.  0.
        -12    1    3    3    0    0 -0.79568032347E+01  0.30675794314E+02  0.18747380475E+02  0.36820909130E+02  0.00000000000E+00 0.  1.
         11    1    4    4    0    0  0.12453815434E+02 -0.19318371862E+02 -0.12690144714E+02  0.26255223925E+02  0.51100000000E-03 0. -1.
        -11    1    4    4    0    0 -0.26175399877E+01 -0.16725911312E+02  0.32168923695E+01  0.17232411949E+02  0.51100000000E-03 0.  1.
         12    1    4    4    0    0 -0.18794722113E+01  0.53684888598E+01 -0.92741281295E+01  0.10879454995E+02  0.00000000000E+00 0. -1.
</event>
<event>
 8    1  0.2531964E-006  0.9118800E+02  0.7816164E-02  0.1184000E+00
        -11   -1    0    0    0    0  0.00000000000E+00  0.00000000000E+00  0.45593999997E+02  0.45594000000E+02  0.51100000000E-03 0.  1.
         11   -1    0    0    0    0 -0.00000000000E+00 -0.00000000000E+00 -0.45593999997E+02  0.45594000000E+02  0.51100000000E-03 0. -1.
         23    2    1    2    0    0  0.00000000000E+00  0.00000000000E+00  0.35527136788E-14  0.91188000000E+02  0.91188000000E+02 0.  0.
    9900012    2    3    3    0    0 -0.21759833279E+02 -0.98121482323E+01 -0.28035869408E+02  0.54367101441E+02  0.40000039354E+02 0.  0.
        -12    1    3    3    0    0  0.21759833279E+02  0.98121482323E+01  0.28035869408E+02  0.36820898559E+02  0.00000000000E+00 0.  1.
         11    1    4    4    0    0  0.19368072771E+01 -0.77558246416E+01  0.24772924199E+01  0.83690510989E+01  0.51100000000E-03 0. -1.
        -11    1    4    4    0    0 -0.87858483278E+01  0.34441685564E+01 -0.28446890973E+02  0.29971303511E+02  0.51100000000E-03 0.  1.
        -12    1    4    4    0    0 -0.14910792228E+02 -0.55004921471E+01 -0.20662708555E+01  0.16026746831E+02  0.00000000000E+00 0.  1.
</event>
<event>
 8    1  0.2531964E-006  0.9118800E+02  0.7816164E-02  0.1184000E+00
        -11   -1    0    0    0    0  0.00000000000E+00  0.00000000000E+00  0.45593999997E+02  0.45594000000E+02  0.51100000000E-03 0. -1.
         11   -1    0    0    0    0 -0.00000000000E+00 -0.00000000000E+00 -0.45593999997E+02  0.45594000000E+02  0.51100000000E-03 0.  1.
         23    2    1    2    0    0 -0.35527136788E-14 -0.35527136788E-14  0.17763568394E-14  0.91188000000E+02  0.91188000000E+02 0.  0.
    9900012    2    3    3    0    0 -0.23858739276E+02  0.25653329138E+02 -0.11333458090E+02  0.54367081924E+02  0.39999994861E+02 0.  0.
         12    1    3    3    0    0  0.23858739276E+02 -0.25653329138E+02  0.11333458090E+02  0.36820918076E+02  0.00000000000E+00 0. -1.
         11    1    4    4    0    0 -0.15788910117E+01 -0.68826227971E+01  0.53370838092E+00  0.70815420843E+01  0.51100000000E-03 0. -1.
        -11    1    4    4    0    0 -0.14678925469E+02  0.24621289477E+02  0.29842722206E+01  0.28819865186E+02  0.51100000000E-03 0.  1.
         12    1    4    4    0    0 -0.76009227955E+01  0.79146624585E+01 -0.14851438692E+02  0.18465674653E+02  0.00000000000E+00 0. -1.
</event>
<event>
 8    1  0.2531964E-006  0.9118800E+02  0.7816164E-02  0.1184000E+00
        -11   -1    0    0    0    0  0.00000000000E+00  0.00000000000E+00  0.45593999997E+02  0.45594000000E+02  0.51100000000E-03 0. -1.
         11   -1    0    0    0    0 -0.00000000000E+00 -0.00000000000E+00 -0.45593999997E+02  0.45594000000E+02  0.51100000000E-03 0.  1.
         23    2    1    2    0    0 -0.35527136788E-14  0.00000000000E+00  0.88817841970E-15  0.91188000000E+02  0.91188000000E+02 0.  0.
    9900012    2    3    3    0    0  0.15514645359E+02 -0.32485406978E+02  0.77314177467E+01  0.54367072424E+02  0.39999973205E+02 0.  0.
        -12    1    3    3    0    0 -0.15514645359E+02  0.32485406978E+02 -0.77314177467E+01  0.36820927576E+02  0.00000000000E+00 0.  1.
         11    1    4    4    0    0 -0.31641046286E+01 -0.16083248406E+01  0.48874903342E+01  0.60403500661E+01  0.51100000000E-03 0. -1.
        -11    1    4    4    0    0 -0.85494096514E+01 -0.12387329485E+02 -0.15124851070E+01  0.15126994038E+02  0.51100000000E-03 0.  1.
         12    1    4    4    0    0  0.27228159639E+02 -0.18489752652E+02  0.43564125195E+01  0.33199728320E+02  0.00000000000E+00 0. -1.
</event>
<event>
 8    1  0.2531964E-006  0.9118800E+02  0.7816164E-02  0.1184000E+00
        -11   -1    0    0    0    0  0.00000000000E+00  0.00000000000E+00  0.45593999997E+02  0.45594000000E+02  0.51100000000E-03 0.  1.
         11   -1    0    0    0    0 -0.00000000000E+00 -0.00000000000E+00 -0.45593999997E+02  0.45594000000E+02  0.51100000000E-03 0. -1.
         23    2    1    2    0    0  0.00000000000E+00 -0.27755575616E-15  0.71054273576E-14  0.91188000000E+02  0.91188000000E+02 0.  0.
    9900012    2    3    3    0    0  0.54318227416E+01 -0.14295870842E+00 -0.36417775085E+02  0.54367089126E+02  0.40000011280E+02 0.  0.
        -12    1    3    3    0    0 -0.54318227416E+01  0.14295870842E+00  0.36417775085E+02  0.36820910874E+02  0.00000000000E+00 0.  1.
         11    1    4    4    0    0 -0.25203775571E+01  0.50722729872E+01 -0.35515890585E+02  0.35964687411E+02  0.51100000000E-03 0. -1.
        -11    1    4    4    0    0 -0.58254285282E+00 -0.56051210369E+01 -0.61770846753E+01  0.83614061832E+01  0.51100000000E-03 0.  1.
        -12    1    4    4    0    0  0.85347431516E+01  0.38988934133E+00  0.52752001758E+01  0.10040995531E+02  0.00000000000E+00 0.  1.
</event>
<event>
 8    1  0.2531964E-006  0.9118800E+02  0.7816164E-02  0.1184000E+00
        -11   -1    0    0    0    0  0.00000000000E+00  0.00000000000E+00  0.45593999997E+02  0.45594000000E+02  0.51100000000E-03 0.  1.
         11   -1    0    0    0    0 -0.00000000000E+00 -0.00000000000E+00 -0.45593999997E+02  0.45594000000E+02  0.51100000000E-03 0. -1.
         23    2    1    2    0    0  0.00000000000E+00  0.00000000000E+00  0.00000000000E+00  0.91188000000E+02  0.91188000000E+02 0.  0.
    9900012    2    3    3    0    0 -0.41256987647E+01 -0.33318506540E+02  0.15120874997E+02  0.54367012384E+02  0.39999836331E+02 0.  0.
         12    1    3    3    0    0  0.41256987647E+01  0.33318506540E+02 -0.15120874997E+02  0.36820987616E+02  0.00000000000E+00 0. -1.
         11    1    4    4    0    0 -0.42553743927E+01 -0.83329405623E+01  0.15488167174E+02  0.18095011254E+02  0.51100000000E-03 0. -1.
        -11    1    4    4    0    0 -0.55756387083E+01 -0.17431876376E+02  0.11098024504E+02  0.21403836318E+02  0.51100000000E-03 0.  1.
         12    1    4    4    0    0  0.57053143363E+01 -0.75536896019E+01 -0.11465316680E+02  0.14868164811E+02  0.00000000000E+00 0. -1.
</event>
<event>
 8    1  0.2531964E-006  0.9118800E+02  0.7816164E-02  0.1184000E+00
        -11   -1    0    0    0    0  0.00000000000E+00  0.00000000000E+00  0.45593999997E+02  0.45594000000E+02  0.51100000000E-03 0. -1.
         11   -1    0    0    0    0 -0.00000000000E+00 -0.00000000000E+00 -0.45593999997E+02  0.45594000000E+02  0.51100000000E-03 0.  1.
         23    2    1    2    0    0  0.00000000000E+00  0.00000000000E+00 -0.35527136788E-14  0.91188000000E+02  0.91188000000E+02 0.  0.
    9900012    2    3    3    0    0  0.44127967567E+01  0.19089050581E+02 -0.31175550488E+02  0.54367087796E+02  0.40000008249E+02 0.  0.
         12    1    3    3    0    0 -0.44127967567E+01 -0.19089050581E+02  0.31175550488E+02  0.36820912204E+02  0.00000000000E+00 0. -1.
         11    1    4    4    0    0 -0.15185725054E+00  0.59465940253E+01  0.33765789647E+01  0.68400531352E+01  0.51100000000E-03 0. -1.
        -11    1    4    4    0    0  0.32722226603E+01  0.21970294575E+02 -0.17485911811E+02  0.28269389752E+02  0.51100000000E-03 0.  1.
        -12    1    4    4    0    0  0.12924313469E+01 -0.88278380188E+01 -0.17066217641E+02  0.19257644909E+02  0.00000000000E+00 0.  1.
</event>
<event>
 8    1  0.2531964E-006  0.9118800E+02  0.7816164E-02  0.1184000E+00
        -11   -1    0    0    0    0  0.00000000000E+00  0.00000000000E+00  0.45593999997E+02  0.45594000000E+02  0.51100000000E-03 0. -1.
         11   -1    0    0    0    0 -0.00000000000E+00 -0.00000000000E+00 -0.45593999997E+02  0.45594000000E+02  0.51100000000E-03 0.  1.
         23    2    1    2    0    0  0.00000000000E+00  0.00000000000E+00  0.00000000000E+00  0.91188000000E+02  0.91188000000E+02 0.  0.
    9900012    2    3    3    0    0  0.16579159747E+02  0.32016906327E+02  0.74718363774E+01  0.54367093337E+02  0.40000020881E+02 0.  0.
         12    1    3    3    0    0 -0.16579159747E+02 -0.32016906327E+02 -0.74718363774E+01  0.36820906663E+02  0.00000000000E+00 0. -1.
         11    1    4    4    0    0  0.16145807107E+01  0.20083602156E+02  0.19063679704E+02  0.27737732974E+02  0.51100000000E-03 0. -1.
        -11    1    4    4    0    0  0.16305187513E+02  0.53091776191E+01 -0.73988741829E+01  0.18675916210E+02  0.51100000000E-03 0.  1.
         12    1    4    4    0    0 -0.13406084772E+01  0.66241265518E+01 -0.41929691437E+01  0.79534441535E+01  0.00000000000E+00 0. -1.
</event>
<event>
 8    1  0.2531964E-006  0.9118800E+02  0.7816164E-02  0.1184000E+00
        -11   -1    0    0    0    0  0.00000000000E+00  0.00000000000E+00  0.45593999997E+02  0.45594000000E+02  0.51100000000E-03 0.  1.
         11   -1    0    0    0    0 -0.00000000000E+00 -0.00000000000E+00 -0.45593999997E+02  0.45594000000E+02  0.51100000000E-03 0. -1.
         23    2    1    2    0    0  0.00000000000E+00 -0.17763568394E-14  0.00000000000E+00  0.91188000000E+02  0.91188000000E+02 0.  0.
    9900012    2    3    3    0    0  0.23841384068E+02 -0.11710081135E+02 -0.25499841361E+02  0.54367088769E+02  0.40000010467E+02 0.  0.
        -12    1    3    3    0    0 -0.23841384068E+02  0.11710081135E+02  0.25499841361E+02  0.36820911231E+02  0.00000000000E+00 0.  1.
         11    1    4    4    0    0  0.15635506938E+02 -0.13318325591E+02 -0.26192605640E+02  0.33285123768E+02  0.51100000000E-03 0. -1.
        -11    1    4    4    0    0  0.51159428687E+00  0.63549420144E+01 -0.68136234215E+01  0.93312636396E+01  0.51100000000E-03 0.  1.
        -12    1    4    4    0    0  0.76942828431E+01 -0.47466975584E+01  0.75063877006E+01  0.11750701362E+02  0.00000000000E+00 0.  1.
</event>
<event>
 8    1  0.2531964E-006  0.9118800E+02  0.7816164E-02  0.1184000E+00
        -11   -1    0    0    0    0  0.00000000000E+00  0.00000000000E+00  0.45593999997E+02  0.45594000000E+02  0.51100000000E-03 0.  1.
         11   -1    0    0    0    0 -0.00000000000E+00 -0.00000000000E+00 -0.45593999997E+02  0.45594000000E+02  0.51100000000E-03 0. -1.
         23    2    1    2    0    0  0.00000000000E+00  0.00000000000E+00 -0.17763568394E-14  0.91188000000E+02  0.91188000000E+02 0.  0.
    9900012    2    3    3    0    0 -0.33110009990E+02 -0.28963685116E+01 -0.15846708033E+02  0.54367083830E+02  0.39999999208E+02 0.  0.
        -12    1    3    3    0    0  0.33110009990E+02  0.28963685116E+01  0.15846708033E+02  0.36820916170E+02  0.00000000000E+00 0.  1.
         11    1    4    4    0    0 -0.12730987414E+02  0.82456116712E+00 -0.22046774736E+02  0.25471910375E+02  0.51100000000E-03 0. -1.
        -11    1    4    4    0    0 -0.60824997396E+01 -0.37337455776E+00 -0.69083289281E+01  0.92120150066E+01  0.51100000000E-03 0.  1.
        -12    1    4    4    0    0 -0.14296522837E+02 -0.33475551210E+01  0.13108395630E+02  0.19683158449E+02  0.00000000000E+00 0.  1.
</event>
<event>
 8    1  0.2531964E-006  0.9118800E+02  0.7816164E-02  0.1184000E+00
        -11   -1    0    0    0    0  0.00000000000E+00  0.00000000000E+00  0.45593999997E+02  0.45594000000E+02  0.51100000000E-03 0.  1.
         11   -1    0    0    0    0 -0.00000000000E+00 -0.00000000000E+00 -0.45593999997E+02  0.45594000000E+02  0.51100000000E-03 0. -1.
         23    2    1    2    0    0  0.00000000000E+00  0.22204460493E-15  0.00000000000E+00  0.91188000000E+02  0.91188000000E+02 0.  0.
    9900012    2    3    3    0    0 -0.89702128634E+01  0.14299268500E+01 -0.35682927381E+02  0.54367072308E+02  0.39999972941E+02 0.  0.
        -12    1    3    3    0    0  0.89702128634E+01 -0.14299268500E+01  0.35682927381E+02  0.36820927692E+02  0.00000000000E+00 0.  1.
         11    1    4    4    0    0 -0.19104281809E+02 -0.24824530438E+01 -0.27632420357E+02  0.33685112610E+02  0.51100000000E-03 0. -1.
        -11    1    4    4    0    0 -0.21128748460E+01  0.40107255829E+01 -0.70659558906E+01  0.83951112396E+01  0.51100000000E-03 0.  1.
        -12    1    4    4    0    0  0.12246943791E+02 -0.98345689033E-01 -0.98455113331E+00  0.12286848458E+02  0.00000000000E+00 0.  1.
</event>
<event>
 8    1  0.2531964E-006  0.9118800E+02  0.7816164E-02  0.1184000E+00
        -11   -1    0    0    0    0  0.00000000000E+00  0.00000000000E+00  0.45593999997E+02  0.45594000000E+02  0.51100000000E-03 0.  1.
         11   -1    0    0    0    0 -0.00000000000E+00 -0.00000000000E+00 -0.45593999997E+02  0.45594000000E+02  0.51100000000E-03 0. -1.
         23    2    1    2    0    0  0.00000000000E+00  0.00000000000E+00  0.35527136788E-14  0.91188000000E+02  0.91188000000E+02 0.  0.
    9900012    2    3    3    0    0 -0.26455872753E+02 -0.18338165411E+02 -0.17876750870E+02  0.54367085625E+02  0.40000003299E+02 0.  0.
        -12    1    3    3    0    0  0.26455872753E+02  0.18338165411E+02  0.17876750870E+02  0.36820914375E+02  0.00000000000E+00 0.  1.
         11    1    4    4    0    0  0.22040930050E+01  0.13322183590E+00 -0.23568489836E+01  0.32296302304E+01  0.51100000000E-03 0. -1.
        -11    1    4    4    0    0 -0.18166544829E+02  0.70998327059E+00 -0.21803163338E+02  0.28388472292E+02  0.51100000000E-03 0.  1.
         12    1    4    4    0    0 -0.10493420929E+02 -0.19181370518E+02  0.62832614521E+01  0.22748983102E+02  0.00000000000E+00 0. -1.
</event>
<event>
 8    1  0.2531964E-006  0.9118800E+02  0.7816164E-02  0.1184000E+00
        -11   -1    0    0    0    0  0.00000000000E+00  0.00000000000E+00  0.45593999997E+02  0.45594000000E+02  0.51100000000E-03 0. -1.
         11   -1    0    0    0    0 -0.00000000000E+00 -0.00000000000E+00 -0.45593999997E+02  0.45594000000E+02  0.51100000000E-03 0.  1.
         23    2    1    2    0    0  0.00000000000E+00  0.00000000000E+00 -0.17763568394E-14  0.91188000000E+02  0.91188000000E+02 0.  0.
    9900012    2    3    3    0    0  0.28434860041E+02  0.21654200472E+02 -0.88507761290E+01  0.54367056208E+02  0.39999936238E+02 0.  0.
         12    1    3    3    0    0 -0.28434860041E+02 -0.21654200472E+02  0.88507761290E+01  0.36820943792E+02  0.00000000000E+00 0. -1.
         11    1    4    4    0    0  0.48434406632E+01  0.53930584815E+00  0.64539895685E+01  0.80872584890E+01  0.51100000000E-03 0. -1.
        -11    1    4    4    0    0  0.15021367645E+02  0.15943048684E+02  0.60248127154E+01  0.22718289015E+02  0.51100000000E-03 0.  1.
         12    1    4    4    0    0  0.85700517330E+01  0.51718459397E+01 -0.21329578413E+02  0.23561508704E+02  0.00000000000E+00 0. -1.
</event>
<event>
 8    1  0.2531964E-006  0.9118800E+02  0.7816164E-02  0.1184000E+00
        -11   -1    0    0    0    0  0.00000000000E+00  0.00000000000E+00  0.45593999997E+02  0.45594000000E+02  0.51100000000E-03 0.  1.
         11   -1    0    0    0    0 -0.00000000000E+00 -0.00000000000E+00 -0.45593999997E+02  0.45594000000E+02  0.51100000000E-03 0. -1.
         23    2    1    2    0    0  0.00000000000E+00  0.00000000000E+00  0.17763568394E-14  0.91188000000E+02  0.91188000000E+02 0.  0.
    9900012    2    3    3    0    0 -0.24900518914E+02 -0.24406729457E+02  0.11834456547E+02  0.54367100408E+02  0.40000037001E+02 0.  0.
        -12    1    3    3    0    0  0.24900518914E+02  0.24406729457E+02 -0.11834456547E+02  0.36820899592E+02  0.00000000000E+00 0.  1.
         11    1    4    4    0    0 -0.55788023638E+01 -0.71870574227E+01 -0.13586774854E+02  0.16351675186E+02  0.51100000000E-03 0. -1.
        -11    1    4    4    0    0 -0.50733551928E+01 -0.10749880536E+02  0.15316701416E+02  0.19388146043E+02  0.51100000000E-03 0.  1.
         12    1    4    4    0    0 -0.14248361357E+02 -0.64697914983E+01  0.10104529984E+02  0.18627279179E+02  0.00000000000E+00 0. -1.
</event>
<event>
 8    1  0.2531964E-006  0.9118800E+02  0.7816164E-02  0.1184000E+00
        -11   -1    0    0    0    0  0.00000000000E+00  0.00000000000E+00  0.45593999997E+02  0.45594000000E+02  0.51100000000E-03 0. -1.
         11   -1    0    0    0    0 -0.00000000000E+00 -0.00000000000E+00 -0.45593999997E+02  0.45594000000E+02  0.51100000000E-03 0.  1.
         23    2    1    2    0    0  0.00000000000E+00  0.00000000000E+00  0.35527136788E-14  0.91188000000E+02  0.91188000000E+02 0.  0.
    9900012    2    3    3    0    0 -0.18308208310E+02 -0.13389437896E+02 -0.29005394094E+02  0.54367076258E+02  0.39999981945E+02 0.  0.
         12    1    3    3    0    0  0.18308208310E+02  0.13389437896E+02  0.29005394094E+02  0.36820923742E+02  0.00000000000E+00 0. -1.
         11    1    4    4    0    0  0.36051236641E+01 -0.13728687563E+02  0.26390783714E+01  0.14437399826E+02  0.51100000000E-03 0. -1.
        -11    1    4    4    0    0 -0.14920289652E+02  0.52256167084E+01 -0.19957521393E+02  0.25460258712E+02  0.51100000000E-03 0.  1.
         12    1    4    4    0    0 -0.69930423220E+01 -0.48863670412E+01 -0.11686951072E+02  0.14469417719E+02  0.00000000000E+00 0. -1.
</event>
<event>
 8    1  0.2531964E-006  0.9118800E+02  0.7816164E-02  0.1184000E+00
        -11   -1    0    0    0    0  0.00000000000E+00  0.00000000000E+00  0.45593999997E+02  0.45594000000E+02  0.51100000000E-03 0.  1.
         11   -1    0    0    0    0 -0.00000000000E+00 -0.00000000000E+00 -0.45593999997E+02  0.45594000000E+02  0.51100000000E-03 0. -1.
         23    2    1    2    0    0 -0.26645352591E-14  0.00000000000E+00  0.35527136788E-14  0.91188000000E+02  0.91188000000E+02 0.  0.
    9900012    2    3    3    0    0  0.52946985775E+01  0.24882451656E+02 -0.26619770913E+02  0.54367048941E+02  0.39999919670E+02 0.  0.
         12    1    3    3    0    0 -0.52946985775E+01 -0.24882451656E+02  0.26619770913E+02  0.36820951059E+02  0.00000000000E+00 0. -1.
         11    1    4    4    0    0 -0.40538319602E+01  0.64135612777E+01 -0.28613141160E+02  0.29602012924E+02  0.51100000000E-03 0. -1.
        -11    1    4    4    0    0 -0.10468073336E+01  0.12801776363E+02  0.11116352638E+01  0.12892517863E+02  0.51100000000E-03 0.  1.
         12    1    4    4    0    0  0.10395337871E+02  0.56671140159E+01  0.88173498342E+00  0.11872518154E+02  0.00000000000E+00 0. -1.
</event>
<event>
 8    1  0.2531964E-006  0.9118800E+02  0.7816164E-02  0.1184000E+00
        -11   -1    0    0    0    0  0.00000000000E+00  0.00000000000E+00  0.45593999997E+02  0.45594000000E+02  0.51100000000E-03 0.  1.
         11   -1    0    0    0    0 -0.00000000000E+00 -0.00000000000E+00 -0.45593999997E+02  0.45594000000E+02  0.51100000000E-03 0. -1.
         23    2    1    2    0    0  0.17763568394E-14  0.35527136788E-14  0.35527136788E-14  0.91188000000E+02  0.91188000000E+02 0.  0.
    9900012    2    3    3    0    0 -0.11192894551E+02 -0.23427350501E+02 -0.26108582853E+02  0.54367085583E+02  0.40000003203E+02 0.  0.
        -12    1    3    3    0    0  0.11192894551E+02  0.23427350501E+02  0.26108582853E+02  0.36820914417E+02  0.00000000000E+00 0.  1.
         11    1    4    4    0    0  0.36906396051E+01 -0.29676208672E+01 -0.19332213658E+02  0.19903820726E+02  0.51100000000E-03 0. -1.
        -11    1    4    4    0    0 -0.93277384874E+00 -0.44699998159E+01 -0.11803320422E+02  0.12655802569E+02  0.51100000000E-03 0.  1.
        -12    1    4    4    0    0 -0.13950760307E+02 -0.15989729818E+02  0.50269512277E+01  0.21807462288E+02  0.00000000000E+00 0.  1.
</event>
<event>
 8    1  0.2531964E-006  0.9118800E+02  0.7816164E-02  0.1184000E+00
        -11   -1    0    0    0    0  0.00000000000E+00  0.00000000000E+00  0.45593999997E+02  0.45594000000E+02  0.51100000000E-03 0. -1.
         11   -1    0    0    0    0 -0.00000000000E+00 -0.00000000000E+00 -0.45593999997E+02  0.45594000000E+02  0.51100000000E-03 0.  1.
         23    2    1    2    0    0  0.35527136788E-14  0.00000000000E+00  0.17763568394E-14  0.91188000000E+02  0.91188000000E+02 0.  0.
    9900012    2    3    3    0    0 -0.24494982435E+02 -0.26027640304E+02 -0.88508877690E+01  0.54367076076E+02  0.39999981531E+02 0.  0.
        -12    1    3    3    0    0  0.24494982435E+02  0.26027640304E+02  0.88508877690E+01  0.36820923924E+02  0.00000000000E+00 0.  1.
         11    1    4    4    0    0 -0.19753892953E+01  0.10481230174E+01  0.10204848886E+02  0.10446993145E+02  0.51100000000E-03 0. -1.
        -11    1    4    4    0    0  0.20186369032E+00 -0.12132117567E+02 -0.81654868706E+01  0.14625464153E+02  0.51100000000E-03 0.  1.
         12    1    4    4    0    0 -0.22721456830E+02 -0.14943645755E+02 -0.10890249785E+02  0.29294618777E+02  0.00000000000E+00 0. -1.
</event>
<event>
 8    1  0.2531964E-006  0.9118800E+02  0.7816164E-02  0.1184000E+00
        -11   -1    0    0    0    0  0.00000000000E+00  0.00000000000E+00  0.45593999997E+02  0.45594000000E+02  0.51100000000E-03 0. -1.
         11   -1    0    0    0    0 -0.00000000000E+00 -0.00000000000E+00 -0.45593999997E+02  0.45594000000E+02  0.51100000000E-03 0.  1.
         23    2    1    2    0    0  0.00000000000E+00  0.00000000000E+00  0.00000000000E+00  0.91188000000E+02  0.91188000000E+02 0.  0.
    9900012    2    3    3    0    0 -0.31639945774E+02  0.93860599866E+01 -0.16327771697E+02  0.54367076339E+02  0.39999982130E+02 0.  0.
         12    1    3    3    0    0  0.31639945774E+02 -0.93860599866E+01  0.16327771697E+02  0.36820923661E+02  0.00000000000E+00 0. -1.
         11    1    4    4    0    0  0.59643628460E+01 -0.47354999185E+01  0.75109702512E+00  0.76526290018E+01  0.51100000000E-03 0. -1.
        -11    1    4    4    0    0 -0.16930970305E+01  0.32060964443E+01 -0.69490310288E+01  0.78380268222E+01  0.51100000000E-03 0.  1.
         12    1    4    4    0    0 -0.35911211589E+02  0.10915463461E+02 -0.10129837694E+02  0.38876420515E+02  0.00000000000E+00 0. -1.
</event>
<event>
 8    1  0.2531964E-006  0.9118800E+02  0.7816164E-02  0.1184000E+00
        -11   -1    0    0    0    0  0.00000000000E+00  0.00000000000E+00  0.45593999997E+02  0.45594000000E+02  0.51100000000E-03 0.  1.
         11   -1    0    0    0    0 -0.00000000000E+00 -0.00000000000E+00 -0.45593999997E+02  0.45594000000E+02  0.51100000000E-03 0. -1.
         23    2    1    2    0    0  0.00000000000E+00  0.00000000000E+00  0.00000000000E+00  0.91188000000E+02  0.91188000000E+02 0.  0.
    9900012    2    3    3    0    0  0.26423448235E+02  0.23629230285E+02 -0.99619365683E+01  0.54367091257E+02  0.40000016139E+02 0.  0.
        -12    1    3    3    0    0 -0.26423448235E+02 -0.23629230285E+02  0.99619365683E+01  0.36820908743E+02  0.00000000000E+00 0.  1.
         11    1    4    4    0    0  0.10929262985E+02 -0.26352789587E+01 -0.48534601254E+01  0.12245389338E+02  0.51100000000E-03 0. -1.
        -11    1    4    4    0    0  0.42059682404E+01 -0.80689564522E+00  0.87047123870E+01  0.97011992776E+01  0.51100000000E-03 0.  1.
        -12    1    4    4    0    0  0.11288217010E+02  0.27071404889E+02 -0.13813188830E+02  0.32420502642E+02  0.00000000000E+00 0.  1.
</event>
<event>
 8    1  0.2531964E-006  0.9118800E+02  0.7816164E-02  0.1184000E+00
        -11   -1    0    0    0    0  0.00000000000E+00  0.00000000000E+00  0.45593999997E+02  0.45594000000E+02  0.51100000000E-03 0.  1.
         11   -1    0    0    0    0 -0.00000000000E+00 -0.00000000000E+00 -0.45593999997E+02  0.45594000000E+02  0.51100000000E-03 0. -1.
         23    2    1    2    0    0  0.00000000000E+00 -0.17763568394E-14  0.00000000000E+00  0.91188000000E+02  0.91188000000E+02 0.  0.
    9900012    2    3    3    0    0  0.22647980653E+02  0.10300669895E+02  0.27142984994E+02  0.54367130071E+02  0.40000104623E+02 0.  0.
         12    1    3    3    0    0 -0.22647980653E+02 -0.10300669895E+02 -0.27142984994E+02  0.36820869929E+02  0.00000000000E+00 0. -1.
         11    1    4    4    0    0  0.57375569157E+00  0.14385932190E+02  0.12864848716E+02  0.19307733510E+02  0.51100000000E-03 0.  1.
        -11    1    4    4    0    0  0.14272884445E+02  0.44696153823E+01  0.17520522822E+02  0.23036089344E+02  0.51100000000E-03 0. -1.
         12    1    4    4    0    0  0.78013405166E+01 -0.85548776773E+01 -0.32423865441E+01  0.12023307217E+02  0.00000000000E+00 0. -1.
</event>
<event>
 8    1  0.2531964E-006  0.9118800E+02  0.7816164E-02  0.1184000E+00
        -11   -1    0    0    0    0  0.00000000000E+00  0.00000000000E+00  0.45593999997E+02  0.45594000000E+02  0.51100000000E-03 0.  1.
         11   -1    0    0    0    0 -0.00000000000E+00 -0.00000000000E+00 -0.45593999997E+02  0.45594000000E+02  0.51100000000E-03 0. -1.
         23    2    1    2    0    0  0.00000000000E+00  0.00000000000E+00 -0.71054273576E-14  0.91188000000E+02  0.91188000000E+02 0.  0.
    9900012    2    3    3    0    0 -0.19120036802E+02  0.17118153724E+02 -0.26404041694E+02  0.54367076437E+02  0.39999982354E+02 0.  0.
         12    1    3    3    0    0  0.19120036802E+02 -0.17118153724E+02  0.26404041694E+02  0.36820923563E+02  0.00000000000E+00 0. -1.
         11    1    4    4    0    0 -0.27988788111E+01  0.96066754703E+01 -0.20403722737E+02  0.22725180703E+02  0.51100000000E-03 0. -1.
        -11    1    4    4    0    0 -0.98404655182E+01  0.15680913648E+02 -0.92826037317E+01  0.20709721069E+02  0.51100000000E-03 0.  1.
        -12    1    4    4    0    0 -0.64806924722E+01 -0.81694353941E+01  0.32822847741E+01  0.10932174665E+02  0.00000000000E+00 0.  1.
</event>
<event>
 8    1  0.2531964E-006  0.9118800E+02  0.7816164E-02  0.1184000E+00
        -11   -1    0    0    0    0  0.00000000000E+00  0.00000000000E+00  0.45593999997E+02  0.45594000000E+02  0.51100000000E-03 0. -1.
         11   -1    0    0    0    0 -0.00000000000E+00 -0.00000000000E+00 -0.45593999997E+02  0.45594000000E+02  0.51100000000E-03 0.  1.
         23    2    1    2    0    0 -0.71054273576E-14  0.35527136788E-14 -0.17763568394E-14  0.91188000000E+02  0.91188000000E+02 0.  0.
    9900012    2    3    3    0    0 -0.27194972426E+02  0.22024055293E+02 -0.11452287267E+02  0.54367076323E+02  0.39999982093E+02 0.  0.
        -12    1    3    3    0    0  0.27194972426E+02 -0.22024055293E+02  0.11452287267E+02  0.36820923677E+02  0.00000000000E+00 0.  1.
         11    1    4    4    0    0 -0.21577516986E+02  0.13132972248E+02  0.44015135060E+01  0.25640544470E+02  0.51100000000E-03 0. -1.
        -11    1    4    4    0    0 -0.10490463599E+02  0.11250883341E+01 -0.16445793091E+02  0.19539185268E+02  0.51100000000E-03 0.  1.
        -12    1    4    4    0    0  0.48730081581E+01  0.77659947112E+01  0.59199231809E+00  0.91873465847E+01  0.00000000000E+00 0.  1.
</event>
<event>
 8    1  0.2531964E-006  0.9118800E+02  0.7816164E-02  0.1184000E+00
        -11   -1    0    0    0    0  0.00000000000E+00  0.00000000000E+00  0.45593999997E+02  0.45594000000E+02  0.51100000000E-03 0.  1.
         11   -1    0    0    0    0 -0.00000000000E+00 -0.00000000000E+00 -0.45593999997E+02  0.45594000000E+02  0.51100000000E-03 0. -1.
         23    2    1    2    0    0  0.11102230246E-15  0.00000000000E+00  0.12212453271E-14  0.91188000000E+02  0.91188000000E+02 0.  0.
    9900012    2    3    3    0    0  0.71950090742E+00 -0.36807941392E+02  0.65713845494E+00  0.54367162665E+02  0.40000178927E+02 0.  0.
        -12    1    3    3    0    0 -0.71950090742E+00  0.36807941392E+02 -0.65713845494E+00  0.36820837335E+02  0.00000000000E+00 0.  1.
         11    1    4    4    0    0 -0.32945986064E+01 -0.62839122477E+01  0.74865112660E+01  0.10314542370E+02  0.51100000000E-03 0. -1.
        -11    1    4    4    0    0 -0.67910407145E+01  0.43105508013E+00 -0.88968350533E+01  0.11200790896E+02  0.51100000000E-03 0.  1.
         12    1    4    4    0    0  0.10805140228E+02 -0.30955084225E+02  0.20674622422E+01  0.32851829399E+02  0.00000000000E+00 0. -1.
</event>
<event>
 8    1  0.2531964E-006  0.9118800E+02  0.7816164E-02  0.1184000E+00
        -11   -1    0    0    0    0  0.00000000000E+00  0.00000000000E+00  0.45593999997E+02  0.45594000000E+02  0.51100000000E-03 0.  1.
         11   -1    0    0    0    0 -0.00000000000E+00 -0.00000000000E+00 -0.45593999997E+02  0.45594000000E+02  0.51100000000E-03 0. -1.
         23    2    1    2    0    0  0.35527136788E-14  0.35527136788E-14  0.00000000000E+00  0.91188000000E+02  0.91188000000E+02 0.  0.
    9900012    2    3    3    0    0 -0.16346921935E+02 -0.18856549730E+02  0.27073772727E+02  0.54367075322E+02  0.39999979812E+02 0.  0.
         12    1    3    3    0    0  0.16346921935E+02  0.18856549730E+02 -0.27073772727E+02  0.36820924678E+02  0.00000000000E+00 0. -1.
         11    1    4    4    0    0 -0.10126980186E+02 -0.13073585571E+01  0.95034698764E+01  0.13949224138E+02  0.51100000000E-03 0. -1.
        -11    1    4    4    0    0 -0.10516428253E+02 -0.38222409118E+01  0.22568847667E+02  0.25190428223E+02  0.51100000000E-03 0.  1.
         12    1    4    4    0    0  0.42964865044E+01 -0.13726950261E+02 -0.49985448164E+01  0.15227422961E+02  0.00000000000E+00 0. -1.
</event>
<event>
 8    1  0.2531964E-006  0.9118800E+02  0.7816164E-02  0.1184000E+00
        -11   -1    0    0    0    0  0.00000000000E+00  0.00000000000E+00  0.45593999997E+02  0.45594000000E+02  0.51100000000E-03 0. -1.
         11   -1    0    0    0    0 -0.00000000000E+00 -0.00000000000E+00 -0.45593999997E+02  0.45594000000E+02  0.51100000000E-03 0.  1.
         23    2    1    2    0    0 -0.35527136788E-14 -0.35527136788E-14  0.16653345369E-14  0.91188000000E+02  0.91188000000E+02 0.  0.
    9900012    2    3    3    0    0  0.27830003476E+02  0.24096980037E+02 -0.77904985107E+00  0.54367075798E+02  0.39999980897E+02 0.  0.
         12    1    3    3    0    0 -0.27830003476E+02 -0.24096980037E+02  0.77904985107E+00  0.36820924202E+02  0.00000000000E+00 0. -1.
         11    1    4    4    0    0  0.22335204377E+02  0.23081589441E+01  0.14358848798E+02  0.26652682630E+02  0.51100000000E-03 0. -1.
        -11    1    4    4    0    0  0.32546690972E+01  0.42435619270E+01 -0.21210022560E+01  0.57532025509E+01  0.51100000000E-03 0.  1.
         12    1    4    4    0    0  0.22401300014E+01  0.17545259166E+02 -0.13016896393E+02  0.21961190618E+02  0.00000000000E+00 0. -1.
</event>
<event>
 8    1  0.2531964E-006  0.9118800E+02  0.7816164E-02  0.1184000E+00
        -11   -1    0    0    0    0  0.00000000000E+00  0.00000000000E+00  0.45593999997E+02  0.45594000000E+02  0.51100000000E-03 0.  1.
         11   -1    0    0    0    0 -0.00000000000E+00 -0.00000000000E+00 -0.45593999997E+02  0.45594000000E+02  0.51100000000E-03 0. -1.
         23    2    1    2    0    0  0.00000000000E+00  0.00000000000E+00  0.00000000000E+00  0.91188000000E+02  0.91188000000E+02 0.  0.
    9900012    2    3    3    0    0 -0.34724111052E+02  0.23833617082E+01 -0.12013981377E+02  0.54367081355E+02  0.39999993565E+02 0.  0.
         12    1    3    3    0    0  0.34724111052E+02 -0.23833617082E+01  0.12013981377E+02  0.36820918645E+02  0.00000000000E+00 0. -1.
         11    1    4    4    0    0 -0.16380940572E+02  0.45585280872E+01 -0.49662513104E+01  0.17713809435E+02  0.51100000000E-03 0. -1.
        -11    1    4    4    0    0 -0.23993345046E+02 -0.32030365880E+00  0.37882857955E+01  0.24292680183E+02  0.51100000000E-03 0.  1.
         12    1    4    4    0    0  0.56501745664E+01 -0.18548627202E+01 -0.10836015862E+02  0.12360591738E+02  0.00000000000E+00 0. -1.
</event>
<event>
 8    1  0.2531964E-006  0.9118800E+02  0.7816164E-02  0.1184000E+00
        -11   -1    0    0    0    0  0.00000000000E+00  0.00000000000E+00  0.45593999997E+02  0.45594000000E+02  0.51100000000E-03 0.  1.
         11   -1    0    0    0    0 -0.00000000000E+00 -0.00000000000E+00 -0.45593999997E+02  0.45594000000E+02  0.51100000000E-03 0. -1.
         23    2    1    2    0    0  0.88817841970E-15  0.00000000000E+00  0.44408920985E-15  0.91188000000E+02  0.91188000000E+02 0.  0.
    9900012    2    3    3    0    0  0.53250141796E+01  0.36368109237E+02  0.21874068627E+01  0.54367083468E+02  0.39999998382E+02 0.  0.
         12    1    3    3    0    0 -0.53250141796E+01 -0.36368109237E+02 -0.21874068627E+01  0.36820916532E+02  0.00000000000E+00 0. -1.
         11    1    4    4    0    0  0.69982415355E+00 -0.36702188507E+01 -0.77019096264E+01  0.85603546896E+01  0.51100000000E-03 0. -1.
        -11    1    4    4    0    0  0.86478472213E+01  0.12464364379E+02  0.95742258320E+01  0.17939103698E+02  0.51100000000E-03 0.  1.
         12    1    4    4    0    0 -0.40226571952E+01  0.27573963709E+02  0.31509065700E+00  0.27867625081E+02  0.00000000000E+00 0. -1.
</event>
<event>
 8    1  0.2531964E-006  0.9118800E+02  0.7816164E-02  0.1184000E+00
        -11   -1    0    0    0    0  0.00000000000E+00  0.00000000000E+00  0.45593999997E+02  0.45594000000E+02  0.51100000000E-03 0.  1.
         11   -1    0    0    0    0 -0.00000000000E+00 -0.00000000000E+00 -0.45593999997E+02  0.45594000000E+02  0.51100000000E-03 0. -1.
         23    2    1    2    0    0 -0.35527136788E-14  0.88817841970E-15  0.00000000000E+00  0.91188000000E+02  0.91188000000E+02 0.  0.
    9900012    2    3    3    0    0 -0.24010334076E+02 -0.73599340084E+01  0.26927963137E+02  0.54367082443E+02  0.39999996044E+02 0.  0.
        -12    1    3    3    0    0  0.24010334076E+02  0.73599340084E+01 -0.26927963137E+02  0.36820917557E+02  0.00000000000E+00 0.  1.
         11    1    4    4    0    0  0.48035898846E+00 -0.23840349179E+01 -0.75918812996E+01  0.79718899375E+01  0.51100000000E-03 0. -1.
        -11    1    4    4    0    0 -0.28778813459E+01  0.53840665425E+01  0.12209946773E+02  0.13651123545E+02  0.51100000000E-03 0.  1.
        -12    1    4    4    0    0 -0.21612811718E+02 -0.10359965633E+02  0.22309897664E+02  0.32744068960E+02  0.00000000000E+00 0.  1.
</event>
<event>
 8    1  0.2531964E-006  0.9118800E+02  0.7816164E-02  0.1184000E+00
        -11   -1    0    0    0    0  0.00000000000E+00  0.00000000000E+00  0.45593999997E+02  0.45594000000E+02  0.51100000000E-03 0.  1.
         11   -1    0    0    0    0 -0.00000000000E+00 -0.00000000000E+00 -0.45593999997E+02  0.45594000000E+02  0.51100000000E-03 0. -1.
         23    2    1    2    0    0  0.00000000000E+00  0.00000000000E+00  0.00000000000E+00  0.91188000000E+02  0.91188000000E+02 0.  0.
    9900012    2    3    3    0    0 -0.14014748542E+02  0.27072170449E+02 -0.20651001461E+02  0.54367089489E+02  0.40000012109E+02 0.  0.
        -12    1    3    3    0    0  0.14014748542E+02 -0.27072170449E+02  0.20651001461E+02  0.36820910511E+02  0.00000000000E+00 0.  1.
         11    1    4    4    0    0 -0.63931486736E+01  0.16595677250E+01 -0.20302295757E+02  0.21349700894E+02  0.51100000000E-03 0. -1.
        -11    1    4    4    0    0 -0.82830309569E+01  0.26619106515E+02 -0.48621606740E+01  0.28298869945E+02  0.51100000000E-03 0.  1.
        -12    1    4    4    0    0  0.66143108893E+00 -0.12065037908E+01  0.45134549706E+01  0.47185186504E+01  0.00000000000E+00 0.  1.
</event>
<event>
 8    1  0.2531964E-006  0.9118800E+02  0.7816164E-02  0.1184000E+00
        -11   -1    0    0    0    0  0.00000000000E+00  0.00000000000E+00  0.45593999997E+02  0.45594000000E+02  0.51100000000E-03 0.  1.
         11   -1    0    0    0    0 -0.00000000000E+00 -0.00000000000E+00 -0.45593999997E+02  0.45594000000E+02  0.51100000000E-03 0. -1.
         23    2    1    2    0    0 -0.35527136788E-14 -0.22204460493E-15 -0.35527136788E-14  0.91188000000E+02  0.91188000000E+02 0.  0.
    9900012    2    3    3    0    0 -0.25902824031E+02 -0.19980319298E+01 -0.26092723254E+02  0.54367100619E+02  0.40000037482E+02 0.  0.
        -12    1    3    3    0    0  0.25902824031E+02  0.19980319298E+01  0.26092723254E+02  0.36820899381E+02  0.00000000000E+00 0.  1.
         11    1    4    4    0    0  0.31796508284E+01 -0.45619182123E+01  0.59094890035E+00  0.55920030428E+01  0.51100000000E-03 0. -1.
        -11    1    4    4    0    0  0.44083048105E+01  0.91810092673E+00  0.17304486438E+01  0.48239520504E+01  0.51100000000E-03 0.  1.
         12    1    4    4    0    0 -0.33490779670E+02  0.16457853558E+01 -0.28414120798E+02  0.43951145526E+02  0.00000000000E+00 0. -1.
</event>
<event>
 8    1  0.2531964E-006  0.9118800E+02  0.7816164E-02  0.1184000E+00
        -11   -1    0    0    0    0  0.00000000000E+00  0.00000000000E+00  0.45593999997E+02  0.45594000000E+02  0.51100000000E-03 0. -1.
         11   -1    0    0    0    0 -0.00000000000E+00 -0.00000000000E+00 -0.45593999997E+02  0.45594000000E+02  0.51100000000E-03 0.  1.
         23    2    1    2    0    0  0.00000000000E+00  0.22204460493E-15 -0.35527136788E-14  0.91188000000E+02  0.91188000000E+02 0.  0.
    9900012    2    3    3    0    0  0.29614216085E+02 -0.13600208718E+01 -0.21838689061E+02  0.54367084870E+02  0.40000001578E+02 0.  0.
        -12    1    3    3    0    0 -0.29614216085E+02  0.13600208718E+01  0.21838689061E+02  0.36820915130E+02  0.00000000000E+00 0.  1.
         11    1    4    4    0    0 -0.25963532512E+01 -0.38899160355E+01 -0.19393738993E+01  0.50629703091E+01  0.51100000000E-03 0. -1.
        -11    1    4    4    0    0  0.11916142440E+02  0.15043977776E+02 -0.16180608498E+01  0.19259642758E+02  0.51100000000E-03 0.  1.
         12    1    4    4    0    0  0.20294426897E+02 -0.12514082613E+02 -0.18281254312E+02  0.30044471803E+02  0.00000000000E+00 0. -1.
</event>
<event>
 8    1  0.2531964E-006  0.9118800E+02  0.7816164E-02  0.1184000E+00
        -11   -1    0    0    0    0  0.00000000000E+00  0.00000000000E+00  0.45593999997E+02  0.45594000000E+02  0.51100000000E-03 0. -1.
         11   -1    0    0    0    0 -0.00000000000E+00 -0.00000000000E+00 -0.45593999997E+02  0.45594000000E+02  0.51100000000E-03 0.  1.
         23    2    1    2    0    0  0.00000000000E+00  0.00000000000E+00 -0.35527136788E-14  0.91188000000E+02  0.91188000000E+02 0.  0.
    9900012    2    3    3    0    0  0.16681688229E+02 -0.25634388142E+02  0.20503132417E+02  0.54367095387E+02  0.40000025553E+02 0.  0.
        -12    1    3    3    0    0 -0.16681688229E+02  0.25634388142E+02 -0.20503132417E+02  0.36820904613E+02  0.00000000000E+00 0.  1.
         11    1    4    4    0    0  0.18049170567E+02 -0.14664187039E+02  0.42091331908E+00  0.23259151058E+02  0.51100000000E-03 0. -1.
        -11    1    4    4    0    0 -0.39772844844E+01 -0.21292417654E+01 -0.35505678216E+01  0.57409924649E+01  0.51100000000E-03 0.  1.
         12    1    4    4    0    0  0.26098021467E+01 -0.88409593377E+01  0.23632786920E+02  0.25366951864E+02  0.00000000000E+00 0. -1.
</event>
<event>
 8    1  0.2531964E-006  0.9118800E+02  0.7816164E-02  0.1184000E+00
        -11   -1    0    0    0    0  0.00000000000E+00  0.00000000000E+00  0.45593999997E+02  0.45594000000E+02  0.51100000000E-03 0.  1.
         11   -1    0    0    0    0 -0.00000000000E+00 -0.00000000000E+00 -0.45593999997E+02  0.45594000000E+02  0.51100000000E-03 0. -1.
         23    2    1    2    0    0  0.55511151231E-16  0.17763568394E-14  0.00000000000E+00  0.91188000000E+02  0.91188000000E+02 0.  0.
    9900012    2    3    3    0    0 -0.21148252471E+00  0.12369769444E+02  0.34680254803E+02  0.54367136429E+02  0.40000119117E+02 0.  0.
         12    1    3    3    0    0  0.21148252471E+00 -0.12369769444E+02 -0.34680254803E+02  0.36820863571E+02  0.00000000000E+00 0. -1.
         11    1    4    4    0    0  0.48956305306E+00  0.17004372383E+01 -0.39266189521E+01  0.43069125183E+01  0.51100000000E-03 0. -1.
        -11    1    4    4    0    0 -0.53828558459E+00 -0.10589000435E+02  0.13301095100E+02  0.17009873976E+02  0.51100000000E-03 0.  1.
        -12    1    4    4    0    0 -0.16275999318E+00  0.21258332640E+02  0.25305778655E+02  0.33050349934E+02  0.00000000000E+00 0.  1.
</event>
<event>
 8    1  0.2531964E-006  0.9118800E+02  0.7816164E-02  0.1184000E+00
        -11   -1    0    0    0    0  0.00000000000E+00  0.00000000000E+00  0.45593999997E+02  0.45594000000E+02  0.51100000000E-03 0.  1.
         11   -1    0    0    0    0 -0.00000000000E+00 -0.00000000000E+00 -0.45593999997E+02  0.45594000000E+02  0.51100000000E-03 0. -1.
         23    2    1    2    0    0 -0.35527136788E-14  0.35527136788E-14  0.00000000000E+00  0.91188000000E+02  0.91188000000E+02 0.  0.
    9900012    2    3    3    0    0 -0.24480364385E+02  0.26626830945E+02  0.68921479079E+01  0.54367108249E+02  0.40000054874E+02 0.  0.
         12    1    3    3    0    0  0.24480364385E+02 -0.26626830945E+02 -0.68921479079E+01  0.36820891751E+02  0.00000000000E+00 0. -1.
         11    1    4    4    0    0 -0.14632928568E+02  0.56323249573E+01 -0.72315275607E+01  0.17266750535E+02  0.51100000000E-03 0. -1.
        -11    1    4    4    0    0 -0.13081647985E+02  0.29831167715E+00  0.77355602896E+01  0.15200572262E+02  0.51100000000E-03 0.  1.
         12    1    4    4    0    0  0.32342121678E+01  0.20696194310E+02  0.63881151790E+01  0.21899785451E+02  0.00000000000E+00 0. -1.
</event>
<event>
 8    1  0.2531964E-006  0.9118800E+02  0.7816164E-02  0.1184000E+00
        -11   -1    0    0    0    0  0.00000000000E+00  0.00000000000E+00  0.45593999997E+02  0.45594000000E+02  0.51100000000E-03 0.  1.
         11   -1    0    0    0    0 -0.00000000000E+00 -0.00000000000E+00 -0.45593999997E+02  0.45594000000E+02  0.51100000000E-03 0. -1.
         23    2    1    2    0    0  0.00000000000E+00  0.00000000000E+00  0.00000000000E+00  0.91188000000E+02  0.91188000000E+02 0.  0.
    9900012    2    3    3    0    0  0.22881699367E+02 -0.74628408035E+01 -0.27865980733E+02  0.54367095054E+02  0.40000024796E+02 0.  0.
        -12    1    3    3    0    0 -0.22881699367E+02  0.74628408035E+01  0.27865980733E+02  0.36820904946E+02  0.00000000000E+00 0.  1.
         11    1    4    4    0    0  0.25651075668E+02 -0.57560856789E+01 -0.96814005976E+01  0.28014991042E+02  0.51100000000E-03 0. -1.
        -11    1    4    4    0    0 -0.89756582433E+01  0.87225969806E+00 -0.26080425966E+01  0.93875004303E+01  0.51100000000E-03 0.  1.
         12    1    4    4    0    0  0.62062819421E+01 -0.25790148226E+01 -0.15576537539E+02  0.16964603582E+02  0.00000000000E+00 0. -1.
</event>
<event>
 8    1  0.2531964E-006  0.9118800E+02  0.7816164E-02  0.1184000E+00
        -11   -1    0    0    0    0  0.00000000000E+00  0.00000000000E+00  0.45593999997E+02  0.45594000000E+02  0.51100000000E-03 0.  1.
         11   -1    0    0    0    0 -0.00000000000E+00 -0.00000000000E+00 -0.45593999997E+02  0.45594000000E+02  0.51100000000E-03 0. -1.
         23    2    1    2    0    0 -0.71054273576E-14 -0.55511151231E-15  0.00000000000E+00  0.91188000000E+02  0.91188000000E+02 0.  0.
    9900012    2    3    3    0    0 -0.33021278945E+02  0.27573745833E+00  0.16288049965E+02  0.54367062125E+02  0.39999949727E+02 0.  0.
         12    1    3    3    0    0  0.33021278945E+02 -0.27573745833E+00 -0.16288049965E+02  0.36820937875E+02  0.00000000000E+00 0. -1.
         11    1    4    4    0    0 -0.88443436499E+01 -0.94683349502E+01  0.72500675923E+01  0.14847062392E+02  0.51100000000E-03 0. -1.
        -11    1    4    4    0    0 -0.23241323414E+02  0.77825243266E+01 -0.52516547629E+01  0.25066046296E+02  0.51100000000E-03 0.  1.
         12    1    4    4    0    0 -0.93561188145E+00  0.19615480819E+01  0.14289637136E+02  0.14453953437E+02  0.00000000000E+00 0. -1.
</event>
<event>
 8    1  0.2531964E-006  0.9118800E+02  0.7816164E-02  0.1184000E+00
        -11   -1    0    0    0    0  0.00000000000E+00  0.00000000000E+00  0.45593999997E+02  0.45594000000E+02  0.51100000000E-03 0.  1.
         11   -1    0    0    0    0 -0.00000000000E+00 -0.00000000000E+00 -0.45593999997E+02  0.45594000000E+02  0.51100000000E-03 0. -1.
         23    2    1    2    0    0 -0.66613381478E-15 -0.35527136788E-14  0.00000000000E+00  0.91188000000E+02  0.91188000000E+02 0.  0.
    9900012    2    3    3    0    0  0.19857644353E+01 -0.20091674358E+02  0.30792222297E+02  0.54367087561E+02  0.40000007712E+02 0.  0.
         12    1    3    3    0    0 -0.19857644353E+01  0.20091674358E+02 -0.30792222297E+02  0.36820912439E+02  0.00000000000E+00 0. -1.
         11    1    4    4    0    0  0.15673682865E+02 -0.10189607710E+02  0.10560149550E+02  0.21471124763E+02  0.51100000000E-03 0. -1.
        -11    1    4    4    0    0 -0.38548989195E+01 -0.93263864358E+01  0.20706406716E+02  0.23034691424E+02  0.51100000000E-03 0.  1.
        -12    1    4    4    0    0 -0.98330195101E+01 -0.57568021226E+00 -0.47433396946E+00  0.98612713738E+01  0.00000000000E+00 0.  1.
</event>
<event>
 8    1  0.2531964E-006  0.9118800E+02  0.7816164E-02  0.1184000E+00
        -11   -1    0    0    0    0  0.00000000000E+00  0.00000000000E+00  0.45593999997E+02  0.45594000000E+02  0.51100000000E-03 0. -1.
         11   -1    0    0    0    0 -0.00000000000E+00 -0.00000000000E+00 -0.45593999997E+02  0.45594000000E+02  0.51100000000E-03 0.  1.
         23    2    1    2    0    0  0.00000000000E+00  0.00000000000E+00  0.00000000000E+00  0.91188000000E+02  0.91188000000E+02 0.  0.
    9900012    2    3    3    0    0 -0.18488947944E+02  0.13752443845E+02 -0.28719398599E+02  0.54367153138E+02  0.40000157207E+02 0.  0.
         12    1    3    3    0    0  0.18488947944E+02 -0.13752443845E+02  0.28719398599E+02  0.36820846862E+02  0.00000000000E+00 0. -1.
         11    1    4    4    0    0 -0.34111289822E+01  0.66577257784E+01  0.54661919768E+01  0.92650077421E+01  0.51100000000E-03 0. -1.
        -11    1    4    4    0    0 -0.13675882017E+02 -0.23408803633E+01 -0.55919071548E+01  0.14959241148E+02  0.51100000000E-03 0.  1.
        -12    1    4    4    0    0 -0.14019369448E+01  0.94355984302E+01 -0.28593683421E+02  0.30142904248E+02  0.00000000000E+00 0.  1.
</event>
<event>
 8    1  0.2531964E-006  0.9118800E+02  0.7816164E-02  0.1184000E+00
        -11   -1    0    0    0    0  0.00000000000E+00  0.00000000000E+00  0.45593999997E+02  0.45594000000E+02  0.51100000000E-03 0.  1.
         11   -1    0    0    0    0 -0.00000000000E+00 -0.00000000000E+00 -0.45593999997E+02  0.45594000000E+02  0.51100000000E-03 0. -1.
         23    2    1    2    0    0  0.00000000000E+00  0.00000000000E+00  0.00000000000E+00  0.91188000000E+02  0.91188000000E+02 0.  0.
    9900012    2    3    3    0    0 -0.13365412610E+02 -0.92137849180E+01  0.33049210581E+02  0.54367103667E+02  0.40000044430E+02 0.  0.
         12    1    3    3    0    0  0.13365412610E+02  0.92137849180E+01 -0.33049210581E+02  0.36820896333E+02  0.00000000000E+00 0. -1.
         11    1    4    4    0    0  0.15270671086E+01 -0.26755534113E+01  0.19666772207E+02  0.19906593111E+02  0.51100000000E-03 0. -1.
        -11    1    4    4    0    0 -0.17499545412E+02 -0.76481843901E+00  0.19108003482E+02  0.25921705851E+02  0.51100000000E-03 0.  1.
         12    1    4    4    0    0  0.26070656932E+01 -0.57734130678E+01 -0.57255651084E+01  0.85388047050E+01  0.00000000000E+00 0. -1.
</event>
<event>
 8    1  0.2531964E-006  0.9118800E+02  0.7816164E-02  0.1184000E+00
        -11   -1    0    0    0    0  0.00000000000E+00  0.00000000000E+00  0.45593999997E+02  0.45594000000E+02  0.51100000000E-03 0. -1.
         11   -1    0    0    0    0 -0.00000000000E+00 -0.00000000000E+00 -0.45593999997E+02  0.45594000000E+02  0.51100000000E-03 0.  1.
         23    2    1    2    0    0  0.00000000000E+00  0.00000000000E+00 -0.35527136788E-14  0.91188000000E+02  0.91188000000E+02 0.  0.
    9900012    2    3    3    0    0 -0.23169238309E+02 -0.12263484645E+02  0.25856756798E+02  0.54367101972E+02  0.40000040566E+02 0.  0.
        -12    1    3    3    0    0  0.23169238309E+02  0.12263484645E+02 -0.25856756798E+02  0.36820898028E+02  0.00000000000E+00 0.  1.
         11    1    4    4    0    0  0.55168944326E+01  0.42568264323E+01 -0.10118248601E+01  0.70413411551E+01  0.51100000000E-03 0. -1.
        -11    1    4    4    0    0 -0.21112193527E+02 -0.18434647109E+02  0.11916674771E+02  0.30456002157E+02  0.51100000000E-03 0.  1.
         12    1    4    4    0    0 -0.75739392147E+01  0.19143360314E+01  0.14951906887E+02  0.16869758659E+02  0.00000000000E+00 0. -1.
</event>
<event>
 8    1  0.2531964E-006  0.9118800E+02  0.7816164E-02  0.1184000E+00
        -11   -1    0    0    0    0  0.00000000000E+00  0.00000000000E+00  0.45593999997E+02  0.45594000000E+02  0.51100000000E-03 0.  1.
         11   -1    0    0    0    0 -0.00000000000E+00 -0.00000000000E+00 -0.45593999997E+02  0.45594000000E+02  0.51100000000E-03 0. -1.
         23    2    1    2    0    0  0.00000000000E+00  0.00000000000E+00  0.00000000000E+00  0.91188000000E+02  0.91188000000E+02 0.  0.
    9900012    2    3    3    0    0  0.13240412050E+02 -0.15391160444E+02  0.30717819061E+02  0.54367071998E+02  0.39999972234E+02 0.  0.
         12    1    3    3    0    0 -0.13240412050E+02  0.15391160444E+02 -0.30717819061E+02  0.36820928002E+02  0.00000000000E+00 0. -1.
         11    1    4    4    0    0 -0.10541778791E+02 -0.56166116719E+01  0.14546126769E+02  0.18821934836E+02  0.51100000000E-03 0. -1.
        -11    1    4    4    0    0  0.13367880495E+02 -0.13767456449E+02  0.14948179190E+02  0.24324702410E+02  0.51100000000E-03 0.  1.
        -12    1    4    4    0    0  0.10414310346E+02  0.39929076768E+01  0.12235131025E+01  0.11220434751E+02  0.00000000000E+00 0.  1.
</event>
<event>
 8    1  0.2531964E-006  0.9118800E+02  0.7816164E-02  0.1184000E+00
        -11   -1    0    0    0    0  0.00000000000E+00  0.00000000000E+00  0.45593999997E+02  0.45594000000E+02  0.51100000000E-03 0.  1.
         11   -1    0    0    0    0 -0.00000000000E+00 -0.00000000000E+00 -0.45593999997E+02  0.45594000000E+02  0.51100000000E-03 0. -1.
         23    2    1    2    0    0 -0.35527136788E-14  0.00000000000E+00  0.00000000000E+00  0.91188000000E+02  0.91188000000E+02 0.  0.
    9900012    2    3    3    0    0  0.14568095094E+02 -0.16327102454E+02  0.29613789764E+02  0.54367079134E+02  0.39999988503E+02 0.  0.
         12    1    3    3    0    0 -0.14568095094E+02  0.16327102454E+02 -0.29613789764E+02  0.36820920866E+02  0.00000000000E+00 0. -1.
         11    1    4    4    0    0  0.12219785198E+01 -0.39686069006E+01 -0.11674325828E+00  0.41541186169E+01  0.51100000000E-03 0. -1.
        -11    1    4    4    0    0 -0.48936730777E+01 -0.50188515544E+01  0.29736794778E+02  0.30551822712E+02  0.51100000000E-03 0.  1.
        -12    1    4    4    0    0  0.18239789652E+02 -0.73396439991E+01 -0.62617556100E-02  0.19661137805E+02  0.00000000000E+00 0.  1.
</event>
<event>
 8    1  0.2531964E-006  0.9118800E+02  0.7816164E-02  0.1184000E+00
        -11   -1    0    0    0    0  0.00000000000E+00  0.00000000000E+00  0.45593999997E+02  0.45594000000E+02  0.51100000000E-03 0. -1.
         11   -1    0    0    0    0 -0.00000000000E+00 -0.00000000000E+00 -0.45593999997E+02  0.45594000000E+02  0.51100000000E-03 0.  1.
         23    2    1    2    0    0  0.00000000000E+00 -0.15543122345E-14  0.35527136788E-14  0.91188000000E+02  0.91188000000E+02 0.  0.
    9900012    2    3    3    0    0 -0.32720306926E+02  0.98506871541E+00 -0.16857967983E+02  0.54367082980E+02  0.39999997270E+02 0.  0.
         12    1    3    3    0    0  0.32720306926E+02 -0.98506871541E+00  0.16857967983E+02  0.36820917020E+02  0.00000000000E+00 0. -1.
         11    1    4    4    0    0 -0.35734512422E+02  0.76462236590E+01 -0.81727355025E+01  0.37446144263E+02  0.51100000000E-03 0. -1.
        -11    1    4    4    0    0  0.44122253085E+01 -0.94859437192E+01 -0.89365897363E+01  0.13759124129E+02  0.51100000000E-03 0.  1.
        -12    1    4    4    0    0 -0.13980198120E+01  0.28247887756E+01  0.25135725597E+00  0.31618145885E+01  0.00000000000E+00 0.  1.
</event>
<event>
 8    1  0.2531964E-006  0.9118800E+02  0.7816164E-02  0.1184000E+00
        -11   -1    0    0    0    0  0.00000000000E+00  0.00000000000E+00  0.45593999997E+02  0.45594000000E+02  0.51100000000E-03 0.  1.
         11   -1    0    0    0    0 -0.00000000000E+00 -0.00000000000E+00 -0.45593999997E+02  0.45594000000E+02  0.51100000000E-03 0. -1.
         23    2    1    2    0    0 -0.17763568394E-14 -0.35527136788E-14  0.00000000000E+00  0.91188000000E+02  0.91188000000E+02 0.  0.
    9900012    2    3    3    0    0  0.12155027378E+02  0.94098398784E+01  0.33458766930E+02  0.54367097491E+02  0.40000030349E+02 0.  0.
         12    1    3    3    0    0 -0.12155027378E+02 -0.94098398784E+01 -0.33458766930E+02  0.36820902509E+02  0.00000000000E+00 0. -1.
         11    1    4    4    0    0  0.88720341660E+01  0.41583404747E+00  0.34960719692E+01  0.95450734766E+01  0.51100000000E-03 0. -1.
        -11    1    4    4    0    0 -0.37794493655E+01 -0.71352862488E+01  0.25371794649E+02  0.26625636355E+02  0.51100000000E-03 0.  1.
        -12    1    4    4    0    0  0.70624425776E+01  0.16129292080E+02  0.45909003125E+01  0.18196387659E+02  0.00000000000E+00 0.  1.
</event>
<event>
 8    1  0.2531964E-006  0.9118800E+02  0.7816164E-02  0.1184000E+00
        -11   -1    0    0    0    0  0.00000000000E+00  0.00000000000E+00  0.45593999997E+02  0.45594000000E+02  0.51100000000E-03 0.  1.
         11   -1    0    0    0    0 -0.00000000000E+00 -0.00000000000E+00 -0.45593999997E+02  0.45594000000E+02  0.51100000000E-03 0. -1.
         23    2    1    2    0    0  0.00000000000E+00  0.00000000000E+00  0.00000000000E+00  0.91188000000E+02  0.91188000000E+02 0.  0.
    9900012    2    3    3    0    0 -0.62827418536E+01  0.34359320273E+02 -0.11650925656E+02  0.54367084701E+02  0.40000001193E+02 0.  0.
        -12    1    3    3    0    0  0.62827418536E+01 -0.34359320273E+02  0.11650925656E+02  0.36820915299E+02  0.00000000000E+00 0.  1.
         11    1    4    4    0    0 -0.40789330466E+01  0.12553750352E+02  0.43539492119E+01  0.13899324326E+02  0.51100000000E-03 0. -1.
        -11    1    4    4    0    0 -0.10036188377E+02  0.17057813624E+02  0.23740083447E+01  0.19933138203E+02  0.51100000000E-03 0.  1.
         12    1    4    4    0    0  0.78323795697E+01  0.47477562967E+01 -0.18378883213E+02  0.20534622172E+02  0.00000000000E+00 0. -1.
</event>
<event>
 8    1  0.2531964E-006  0.9118800E+02  0.7816164E-02  0.1184000E+00
        -11   -1    0    0    0    0  0.00000000000E+00  0.00000000000E+00  0.45593999997E+02  0.45594000000E+02  0.51100000000E-03 0.  1.
         11   -1    0    0    0    0 -0.00000000000E+00 -0.00000000000E+00 -0.45593999997E+02  0.45594000000E+02  0.51100000000E-03 0. -1.
         23    2    1    2    0    0  0.00000000000E+00 -0.44408920985E-15  0.00000000000E+00  0.91188000000E+02  0.91188000000E+02 0.  0.
    9900012    2    3    3    0    0 -0.17483800621E+02 -0.38117060657E+01  0.32180245494E+02  0.54367074057E+02  0.39999976927E+02 0.  0.
         12    1    3    3    0    0  0.17483800621E+02  0.38117060657E+01 -0.32180245494E+02  0.36820925943E+02  0.00000000000E+00 0. -1.
         11    1    4    4    0    0 -0.15884806631E+02  0.21057721246E+01  0.51475667057E+01  0.16830294151E+02  0.51100000000E-03 0. -1.
        -11    1    4    4    0    0 -0.10595710187E+02  0.47446806379E+01  0.87409358171E+01  0.14532206575E+02  0.51100000000E-03 0.  1.
        -12    1    4    4    0    0  0.89967161971E+01 -0.10662158828E+02  0.18291742971E+02  0.23004573331E+02  0.00000000000E+00 0.  1.
</event>
<event>
 8    1  0.2531964E-006  0.9118800E+02  0.7816164E-02  0.1184000E+00
        -11   -1    0    0    0    0  0.00000000000E+00  0.00000000000E+00  0.45593999997E+02  0.45594000000E+02  0.51100000000E-03 0.  1.
         11   -1    0    0    0    0 -0.00000000000E+00 -0.00000000000E+00 -0.45593999997E+02  0.45594000000E+02  0.51100000000E-03 0. -1.
         23    2    1    2    0    0  0.00000000000E+00  0.00000000000E+00  0.00000000000E+00  0.91188000000E+02  0.91188000000E+02 0.  0.
    9900012    2    3    3    0    0 -0.26370039938E+02 -0.24232352859E+02  0.85553653710E+01  0.54367079207E+02  0.39999988667E+02 0.  0.
         12    1    3    3    0    0  0.26370039938E+02  0.24232352859E+02 -0.85553653710E+01  0.36820920793E+02  0.00000000000E+00 0. -1.
         11    1    4    4    0    0 -0.31941380735E+01  0.47191688120E+01  0.85245675594E+00  0.57619228640E+01  0.51100000000E-03 0. -1.
        -11    1    4    4    0    0  0.50502802411E+01 -0.12824476967E+02  0.83037869744E+01  0.16091159634E+02  0.51100000000E-03 0.  1.
        -12    1    4    4    0    0 -0.28226182106E+02 -0.16127044704E+02 -0.60087835942E+00  0.32513996709E+02  0.00000000000E+00 0.  1.
</event>
<event>
 8    1  0.2531964E-006  0.9118800E+02  0.7816164E-02  0.1184000E+00
        -11   -1    0    0    0    0  0.00000000000E+00  0.00000000000E+00  0.45593999997E+02  0.45594000000E+02  0.51100000000E-03 0. -1.
         11   -1    0    0    0    0 -0.00000000000E+00 -0.00000000000E+00 -0.45593999997E+02  0.45594000000E+02  0.51100000000E-03 0.  1.
         23    2    1    2    0    0  0.00000000000E+00 -0.17763568394E-14  0.00000000000E+00  0.91188000000E+02  0.91188000000E+02 0.  0.
    9900012    2    3    3    0    0  0.98256114088E+01 -0.12314916123E+02 -0.33280324967E+02  0.54367084360E+02  0.40000000415E+02 0.  0.
         12    1    3    3    0    0 -0.98256114088E+01  0.12314916123E+02  0.33280324967E+02  0.36820915640E+02  0.00000000000E+00 0. -1.
         11    1    4    4    0    0  0.21723903624E+01  0.97108960956E+00 -0.56524618353E+00  0.24457715399E+01  0.51100000000E-03 0. -1.
        -11    1    4    4    0    0  0.17505055782E+02 -0.12179170649E+02 -0.35685727703E+02  0.41571989820E+02  0.51100000000E-03 0.  1.
         12    1    4    4    0    0 -0.98518347353E+01 -0.11068350832E+01  0.29706489198E+01  0.10349323000E+02  0.00000000000E+00 0. -1.
</event>
<event>
 8    1  0.2531964E-006  0.9118800E+02  0.7816164E-02  0.1184000E+00
        -11   -1    0    0    0    0  0.00000000000E+00  0.00000000000E+00  0.45593999997E+02  0.45594000000E+02  0.51100000000E-03 0.  1.
         11   -1    0    0    0    0 -0.00000000000E+00 -0.00000000000E+00 -0.45593999997E+02  0.45594000000E+02  0.51100000000E-03 0. -1.
         23    2    1    2    0    0  0.00000000000E+00  0.00000000000E+00  0.35527136788E-14  0.91188000000E+02  0.91188000000E+02 0.  0.
    9900012    2    3    3    0    0 -0.17862081442E+02 -0.17358418774E+02  0.27118426747E+02  0.54367112925E+02  0.40000065535E+02 0.  0.
         12    1    3    3    0    0  0.17862081442E+02  0.17358418774E+02 -0.27118426747E+02  0.36820887075E+02  0.00000000000E+00 0. -1.
         11    1    4    4    0    0  0.14546124985E+01 -0.59062450797E+00 -0.27611363116E+01  0.31762570461E+01  0.51100000000E-03 0. -1.
        -11    1    4    4    0    0 -0.86218463236E+01 -0.22327032735E+02  0.63631184693E+01  0.24765336697E+02  0.51100000000E-03 0.  1.
         12    1    4    4    0    0 -0.10694847617E+02  0.55592384696E+01  0.23516444590E+02  0.26425519182E+02  0.00000000000E+00 0. -1.
</event>
<event>
 8    1  0.2531964E-006  0.9118800E+02  0.7816164E-02  0.1184000E+00
        -11   -1    0    0    0    0  0.00000000000E+00  0.00000000000E+00  0.45593999997E+02  0.45594000000E+02  0.51100000000E-03 0. -1.
         11   -1    0    0    0    0 -0.00000000000E+00 -0.00000000000E+00 -0.45593999997E+02  0.45594000000E+02  0.51100000000E-03 0.  1.
         23    2    1    2    0    0  0.88817841970E-15  0.00000000000E+00 -0.17763568394E-14  0.91188000000E+02  0.91188000000E+02 0.  0.
    9900012    2    3    3    0    0  0.20057068273E+01 -0.34625398426E+02 -0.12362756884E+02  0.54367097868E+02  0.40000031209E+02 0.  0.
         12    1    3    3    0    0 -0.20057068273E+01  0.34625398426E+02  0.12362756884E+02  0.36820902132E+02  0.00000000000E+00 0. -1.
         11    1    4    4    0    0 -0.67026220329E+01  0.34598397830E+01  0.35564631538E+01  0.83393083565E+01  0.51100000000E-03 0. -1.
        -11    1    4    4    0    0  0.11776954226E+02 -0.33008788324E+02 -0.76850566768E+01  0.35879476778E+02  0.51100000000E-03 0.  1.
         12    1    4    4    0    0 -0.30686253662E+01 -0.50764498853E+01 -0.82341633609E+01  0.10148312733E+02  0.00000000000E+00 0. -1.
</event>
<event>
 8    1  0.2531964E-006  0.9118800E+02  0.7816164E-02  0.1184000E+00
        -11   -1    0    0    0    0  0.00000000000E+00  0.00000000000E+00  0.45593999997E+02  0.45594000000E+02  0.51100000000E-03 0. -1.
         11   -1    0    0    0    0 -0.00000000000E+00 -0.00000000000E+00 -0.45593999997E+02  0.45594000000E+02  0.51100000000E-03 0.  1.
         23    2    1    2    0    0  0.00000000000E+00  0.00000000000E+00  0.88817841970E-15  0.91188000000E+02  0.91188000000E+02 0.  0.
    9900012    2    3    3    0    0 -0.95177257517E+01  0.35354238952E+02 -0.39076630420E+01  0.54367093632E+02  0.40000021552E+02 0.  0.
        -12    1    3    3    0    0  0.95177257517E+01 -0.35354238952E+02  0.39076630420E+01  0.36820906368E+02  0.00000000000E+00 0.  1.
         11    1    4    4    0    0 -0.45931762308E+01  0.64695858818E+01  0.14322818719E+02  0.16373635689E+02  0.51100000000E-03 0. -1.
        -11    1    4    4    0    0  0.48933866871E+01  0.37623684665E+01 -0.18820066742E+01  0.64531077110E+01  0.51100000000E-03 0.  1.
        -12    1    4    4    0    0 -0.98179362080E+01  0.25122284603E+02 -0.16348475086E+02  0.31540350232E+02  0.00000000000E+00 0.  1.
</event>
<event>
 8    1  0.2531964E-006  0.9118800E+02  0.7816164E-02  0.1184000E+00
        -11   -1    0    0    0    0  0.00000000000E+00  0.00000000000E+00  0.45593999997E+02  0.45594000000E+02  0.51100000000E-03 0.  1.
         11   -1    0    0    0    0 -0.00000000000E+00 -0.00000000000E+00 -0.45593999997E+02  0.45594000000E+02  0.51100000000E-03 0. -1.
         23    2    1    2    0    0 -0.35527136788E-14  0.00000000000E+00 -0.35527136788E-14  0.91188000000E+02  0.91188000000E+02 0.  0.
    9900012    2    3    3    0    0 -0.28572000216E+02  0.31991349958E+01 -0.23003976981E+02  0.54367127957E+02  0.40000099804E+02 0.  0.
        -12    1    3    3    0    0  0.28572000216E+02 -0.31991349958E+01  0.23003976981E+02  0.36820872043E+02  0.00000000000E+00 0.  1.
         11    1    4    4    0    0 -0.64875273072E+01 -0.30551689418E+01 -0.13777792298E+02  0.15532212614E+02  0.51100000000E-03 0. -1.
        -11    1    4    4    0    0 -0.28511448474E+02  0.59807486195E+01 -0.20595668997E+01  0.29204689080E+02  0.51100000000E-03 0.  1.
        -12    1    4    4    0    0  0.64269755660E+01  0.27355531808E+00 -0.71666177833E+01  0.96302262637E+01  0.00000000000E+00 0.  1.
</event>
<event>
 8    1  0.2531964E-006  0.9118800E+02  0.7816164E-02  0.1184000E+00
        -11   -1    0    0    0    0  0.00000000000E+00  0.00000000000E+00  0.45593999997E+02  0.45594000000E+02  0.51100000000E-03 0.  1.
         11   -1    0    0    0    0 -0.00000000000E+00 -0.00000000000E+00 -0.45593999997E+02  0.45594000000E+02  0.51100000000E-03 0. -1.
         23    2    1    2    0    0  0.00000000000E+00  0.17763568394E-14  0.00000000000E+00  0.91188000000E+02  0.91188000000E+02 0.  0.
    9900012    2    3    3    0    0  0.85585729714E+01  0.67940363924E+01 -0.35162078376E+02  0.54367083967E+02  0.39999999519E+02 0.  0.
        -12    1    3    3    0    0 -0.85585729714E+01 -0.67940363924E+01  0.35162078376E+02  0.36820916033E+02  0.00000000000E+00 0.  1.
         11    1    4    4    0    0  0.33389485489E+01  0.17104553383E+02 -0.26228838213E+02  0.31490733211E+02  0.51100000000E-03 0. -1.
        -11    1    4    4    0    0 -0.36825541294E+01  0.41063314152E+00  0.28119971049E+01  0.46515752678E+01  0.51100000000E-03 0.  1.
         12    1    4    4    0    0  0.89021785519E+01 -0.10721150133E+02 -0.11745237267E+02  0.18224775488E+02  0.00000000000E+00 0. -1.
</event>
<event>
 8    1  0.2531964E-006  0.9118800E+02  0.7816164E-02  0.1184000E+00
        -11   -1    0    0    0    0  0.00000000000E+00  0.00000000000E+00  0.45593999997E+02  0.45594000000E+02  0.51100000000E-03 0. -1.
         11   -1    0    0    0    0 -0.00000000000E+00 -0.00000000000E+00 -0.45593999997E+02  0.45594000000E+02  0.51100000000E-03 0.  1.
         23    2    1    2    0    0  0.88817841970E-15 -0.35527136788E-14  0.00000000000E+00  0.91188000000E+02  0.91188000000E+02 0.  0.
    9900012    2    3    3    0    0  0.27909589258E+01 -0.25139567616E+02  0.26758004074E+02  0.54367107919E+02  0.40000054123E+02 0.  0.
        -12    1    3    3    0    0 -0.27909589258E+01  0.25139567616E+02 -0.26758004074E+02  0.36820892081E+02  0.00000000000E+00 0.  1.
         11    1    4    4    0    0  0.36581616076E+01 -0.17978271892E+02  0.19209689836E+02  0.26563369335E+02  0.51100000000E-03 0. -1.
        -11    1    4    4    0    0  0.87800853572E+01 -0.10553608158E+02  0.10358997270E+02  0.17198179227E+02  0.51100000000E-03 0.  1.
        -12    1    4    4    0    0 -0.96472880390E+01  0.33923124345E+01 -0.28106830318E+01  0.10605559357E+02  0.00000000000E+00 0.  1.
</event>
<event>
 8    1  0.2531964E-006  0.9118800E+02  0.7816164E-02  0.1184000E+00
        -11   -1    0    0    0    0  0.00000000000E+00  0.00000000000E+00  0.45593999997E+02  0.45594000000E+02  0.51100000000E-03 0. -1.
         11   -1    0    0    0    0 -0.00000000000E+00 -0.00000000000E+00 -0.45593999997E+02  0.45594000000E+02  0.51100000000E-03 0.  1.
         23    2    1    2    0    0  0.17763568394E-14 -0.35527136788E-14  0.00000000000E+00  0.91188000000E+02  0.91188000000E+02 0.  0.
    9900012    2    3    3    0    0  0.13336047589E+02  0.30138473428E+02  0.16419564201E+02  0.54367084280E+02  0.40000000234E+02 0.  0.
        -12    1    3    3    0    0 -0.13336047589E+02 -0.30138473428E+02 -0.16419564201E+02  0.36820915720E+02  0.00000000000E+00 0.  1.
         11    1    4    4    0    0  0.11314072946E+02  0.28573247556E+00  0.14058586929E+02  0.18048095644E+02  0.51100000000E-03 0.  1.
        -11    1    4    4    0    0  0.33479902926E+01  0.15853301489E+02  0.11211363548E+02  0.19703575309E+02  0.51100000000E-03 0. -1.
        -12    1    4    4    0    0 -0.13260156488E+01  0.13999439464E+02 -0.88503862762E+01  0.16615413327E+02  0.00000000000E+00 0.  1.
</event>
<event>
 8    1  0.2531964E-006  0.9118800E+02  0.7816164E-02  0.1184000E+00
        -11   -1    0    0    0    0  0.00000000000E+00  0.00000000000E+00  0.45593999997E+02  0.45594000000E+02  0.51100000000E-03 0. -1.
         11   -1    0    0    0    0 -0.00000000000E+00 -0.00000000000E+00 -0.45593999997E+02  0.45594000000E+02  0.51100000000E-03 0.  1.
         23    2    1    2    0    0  0.00000000000E+00 -0.35527136788E-14  0.00000000000E+00  0.91188000000E+02  0.91188000000E+02 0.  0.
    9900012    2    3    3    0    0  0.20237708782E+02  0.20408253962E+02 -0.23015779115E+02  0.54366976456E+02  0.39999754426E+02 0.  0.
         12    1    3    3    0    0 -0.20237708782E+02 -0.20408253962E+02  0.23015779115E+02  0.36821023544E+02  0.00000000000E+00 0. -1.
         11    1    4    4    0    0  0.17925992017E+01 -0.60268026289E+01  0.39183959532E+01  0.74087508349E+01  0.51100000000E-03 0. -1.
        -11    1    4    4    0    0  0.16172314542E+02  0.25253031703E+02 -0.30364917977E+02  0.42676546391E+02  0.51100000000E-03 0.  1.
        -12    1    4    4    0    0  0.22727950388E+01  0.11820248876E+01  0.34307429088E+01  0.42816792301E+01  0.00000000000E+00 0.  1.
</event>
<event>
 8    1  0.2531964E-006  0.9118800E+02  0.7816164E-02  0.1184000E+00
        -11   -1    0    0    0    0  0.00000000000E+00  0.00000000000E+00  0.45593999997E+02  0.45594000000E+02  0.51100000000E-03 0.  1.
         11   -1    0    0    0    0 -0.00000000000E+00 -0.00000000000E+00 -0.45593999997E+02  0.45594000000E+02  0.51100000000E-03 0. -1.
         23    2    1    2    0    0  0.35527136788E-14  0.00000000000E+00  0.17763568394E-14  0.91188000000E+02  0.91188000000E+02 0.  0.
    9900012    2    3    3    0    0  0.31282861389E+02  0.17974293766E+02 -0.73545416213E+01  0.54367055749E+02  0.39999935191E+02 0.  0.
        -12    1    3    3    0    0 -0.31282861389E+02 -0.17974293766E+02  0.73545416213E+01  0.36820944251E+02  0.00000000000E+00 0.  1.
         11    1    4    4    0    0  0.16229729262E+02 -0.22794565237E+01  0.14172173697E+01  0.16450183564E+02  0.51100000000E-03 0. -1.
        -11    1    4    4    0    0  0.11399015208E+02  0.67744103242E+01 -0.17113421354E+02  0.21649465897E+02  0.51100000000E-03 0.  1.
        -12    1    4    4    0    0  0.36541169199E+01  0.13479339965E+02  0.83416623625E+01  0.16267406288E+02  0.00000000000E+00 0.  1.
</event>
<event>
 8    1  0.2531964E-006  0.9118800E+02  0.7816164E-02  0.1184000E+00
        -11   -1    0    0    0    0  0.00000000000E+00  0.00000000000E+00  0.45593999997E+02  0.45594000000E+02  0.51100000000E-03 0.  1.
         11   -1    0    0    0    0 -0.00000000000E+00 -0.00000000000E+00 -0.45593999997E+02  0.45594000000E+02  0.51100000000E-03 0. -1.
         23    2    1    2    0    0  0.44408920985E-15  0.71054273576E-14 -0.17763568394E-14  0.91188000000E+02  0.91188000000E+02 0.  0.
    9900012    2    3    3    0    0 -0.16717878099E+01 -0.33843878289E+02  0.14407539050E+02  0.54367079946E+02  0.39999990353E+02 0.  0.
        -12    1    3    3    0    0  0.16717878099E+01  0.33843878289E+02 -0.14407539050E+02  0.36820920054E+02  0.00000000000E+00 0.  1.
         11    1    4    4    0    0 -0.35372341206E+01 -0.23986441600E+02  0.72926074525E+01  0.25318837445E+02  0.51100000000E-03 0. -1.
        -11    1    4    4    0    0 -0.86980453335E+01 -0.12131077925E+02  0.98725005845E+01  0.17896516764E+02  0.51100000000E-03 0.  1.
        -12    1    4    4    0    0  0.10563491644E+02  0.22736412357E+01 -0.27575689868E+01  0.11151725736E+02  0.00000000000E+00 0.  1.
</event>
<event>
 8    1  0.2531964E-006  0.9118800E+02  0.7816164E-02  0.1184000E+00
        -11   -1    0    0    0    0  0.00000000000E+00  0.00000000000E+00  0.45593999997E+02  0.45594000000E+02  0.51100000000E-03 0.  1.
         11   -1    0    0    0    0 -0.00000000000E+00 -0.00000000000E+00 -0.45593999997E+02  0.45594000000E+02  0.51100000000E-03 0. -1.
         23    2    1    2    0    0  0.00000000000E+00  0.00000000000E+00  0.00000000000E+00  0.91188000000E+02  0.91188000000E+02 0.  0.
    9900012    2    3    3    0    0 -0.18873947897E+02  0.23286602796E+02  0.21384327920E+02  0.54367064928E+02  0.39999956117E+02 0.  0.
         12    1    3    3    0    0  0.18873947897E+02 -0.23286602796E+02 -0.21384327920E+02  0.36820935072E+02  0.00000000000E+00 0. -1.
         11    1    4    4    0    0 -0.28988738437E+01  0.49797298866E+01  0.13777806301E+02  0.14934159703E+02  0.51100000000E-03 0. -1.
        -11    1    4    4    0    0 -0.22540604277E+02  0.20511399528E+02  0.10047311945E+02  0.32089637414E+02  0.51100000000E-03 0.  1.
         12    1    4    4    0    0  0.65655302238E+01 -0.22045266192E+01 -0.24407903264E+01  0.73432678115E+01  0.00000000000E+00 0. -1.
</event>
<event>
 8    1  0.2531964E-006  0.9118800E+02  0.7816164E-02  0.1184000E+00
        -11   -1    0    0    0    0  0.00000000000E+00  0.00000000000E+00  0.45593999997E+02  0.45594000000E+02  0.51100000000E-03 0.  1.
         11   -1    0    0    0    0 -0.00000000000E+00 -0.00000000000E+00 -0.45593999997E+02  0.45594000000E+02  0.51100000000E-03 0. -1.
         23    2    1    2    0    0  0.17763568394E-14 -0.88817841970E-15  0.00000000000E+00  0.91188000000E+02  0.91188000000E+02 0.  0.
    9900012    2    3    3    0    0  0.13238839550E+02  0.43617109284E+01  0.34080620926E+02  0.54367080436E+02  0.39999991469E+02 0.  0.
         12    1    3    3    0    0 -0.13238839550E+02 -0.43617109284E+01 -0.34080620926E+02  0.36820919564E+02  0.00000000000E+00 0. -1.
         11    1    4    4    0    0  0.17759582268E+02  0.76143114236E+01  0.16367164557E+02  0.25323202339E+02  0.51100000000E-03 0. -1.
        -11    1    4    4    0    0 -0.22181998854E+01  0.86040370119E+01  0.13675624351E+02  0.16308665343E+02  0.51100000000E-03 0.  1.
         12    1    4    4    0    0 -0.23025428326E+01 -0.11856637507E+02  0.40378320186E+01  0.12735212754E+02  0.00000000000E+00 0. -1.
</event>
<event>
 8    1  0.2531964E-006  0.9118800E+02  0.7816164E-02  0.1184000E+00
        -11   -1    0    0    0    0  0.00000000000E+00  0.00000000000E+00  0.45593999997E+02  0.45594000000E+02  0.51100000000E-03 0. -1.
         11   -1    0    0    0    0 -0.00000000000E+00 -0.00000000000E+00 -0.45593999997E+02  0.45594000000E+02  0.51100000000E-03 0.  1.
         23    2    1    2    0    0 -0.17763568394E-14  0.35527136788E-14  0.17763568394E-14  0.91188000000E+02  0.91188000000E+02 0.  0.
    9900012    2    3    3    0    0  0.15063581692E+02 -0.30620496141E+02 -0.13829036980E+02  0.54367237636E+02  0.40000349836E+02 0.  0.
         12    1    3    3    0    0 -0.15063581692E+02  0.30620496141E+02  0.13829036980E+02  0.36820762364E+02  0.00000000000E+00 0. -1.
         11    1    4    4    0    0  0.85964612579E+01  0.71351305717E+01 -0.77625333684E+01  0.13603902344E+02  0.51100000000E-03 0.  1.
        -11    1    4    4    0    0 -0.32096861139E+01 -0.17494982492E+02 -0.38708881839E+01  0.18203303902E+02  0.51100000000E-03 0. -1.
        -12    1    4    4    0    0  0.96768065480E+01 -0.20260644220E+02 -0.21956154273E+01  0.22560031390E+02  0.00000000000E+00 0.  1.
</event>
<event>
 8    1  0.2531964E-006  0.9118800E+02  0.7816164E-02  0.1184000E+00
        -11   -1    0    0    0    0  0.00000000000E+00  0.00000000000E+00  0.45593999997E+02  0.45594000000E+02  0.51100000000E-03 0.  1.
         11   -1    0    0    0    0 -0.00000000000E+00 -0.00000000000E+00 -0.45593999997E+02  0.45594000000E+02  0.51100000000E-03 0. -1.
         23    2    1    2    0    0  0.00000000000E+00  0.00000000000E+00  0.17763568394E-14  0.91188000000E+02  0.91188000000E+02 0.  0.
    9900012    2    3    3    0    0 -0.89646457236E+01 -0.34794245285E+02 -0.80482856217E+01  0.54367091818E+02  0.40000017418E+02 0.  0.
        -12    1    3    3    0    0  0.89646457236E+01  0.34794245285E+02  0.80482856217E+01  0.36820908182E+02  0.00000000000E+00 0.  1.
         11    1    4    4    0    0  0.10154306400E+02 -0.18939223645E+02 -0.78177315988E+01  0.22867467248E+02  0.51100000000E-03 0. -1.
        -11    1    4    4    0    0 -0.11398489451E+02 -0.16588373156E+02  0.65831604058E+01  0.21176347347E+02  0.51100000000E-03 0.  1.
        -12    1    4    4    0    0 -0.77204626719E+01  0.73335151722E+00 -0.68137144287E+01  0.10323277223E+02  0.00000000000E+00 0.  1.
</event>
<event>
 8    1  0.2531964E-006  0.9118800E+02  0.7816164E-02  0.1184000E+00
        -11   -1    0    0    0    0  0.00000000000E+00  0.00000000000E+00  0.45593999997E+02  0.45594000000E+02  0.51100000000E-03 0. -1.
         11   -1    0    0    0    0 -0.00000000000E+00 -0.00000000000E+00 -0.45593999997E+02  0.45594000000E+02  0.51100000000E-03 0.  1.
         23    2    1    2    0    0  0.17763568394E-14  0.00000000000E+00  0.35527136788E-14  0.91188000000E+02  0.91188000000E+02 0.  0.
    9900012    2    3    3    0    0  0.13184076848E+02 -0.30049340063E+02  0.16703221125E+02  0.54367077734E+02  0.39999985311E+02 0.  0.
        -12    1    3    3    0    0 -0.13184076848E+02  0.30049340063E+02 -0.16703221125E+02  0.36820922266E+02  0.00000000000E+00 0.  1.
         11    1    4    4    0    0  0.52290762050E+01  0.10375065162E+01  0.72465660434E+00  0.53800357976E+01  0.51100000000E-03 0. -1.
        -11    1    4    4    0    0  0.27918437053E+01  0.43424318781E+01 -0.52501755582E+01  0.73631141200E+01  0.51100000000E-03 0.  1.
         12    1    4    4    0    0  0.51631569380E+01 -0.35429278457E+02  0.21228740078E+02  0.41623927817E+02  0.00000000000E+00 0. -1.
</event>
<event>
 8    1  0.2531964E-006  0.9118800E+02  0.7816164E-02  0.1184000E+00
        -11   -1    0    0    0    0  0.00000000000E+00  0.00000000000E+00  0.45593999997E+02  0.45594000000E+02  0.51100000000E-03 0.  1.
         11   -1    0    0    0    0 -0.00000000000E+00 -0.00000000000E+00 -0.45593999997E+02  0.45594000000E+02  0.51100000000E-03 0. -1.
         23    2    1    2    0    0  0.00000000000E+00  0.00000000000E+00  0.17763568394E-14  0.91188000000E+02  0.91188000000E+02 0.  0.
    9900012    2    3    3    0    0 -0.34708406926E+02 -0.85889563017E+00  0.12262436866E+02  0.54367101438E+02  0.40000039347E+02 0.  0.
        -12    1    3    3    0    0  0.34708406926E+02  0.85889563017E+00 -0.12262436866E+02  0.36820898562E+02  0.00000000000E+00 0.  1.
         11    1    4    4    0    0 -0.11871093384E+02 -0.11261202485E+02 -0.67631494446E+01  0.17705302319E+02  0.51100000000E-03 0. -1.
        -11    1    4    4    0    0 -0.64462904409E+01  0.11424718227E+02  0.24816045794E+01  0.13350550871E+02  0.51100000000E-03 0.  1.
         12    1    4    4    0    0 -0.16391023101E+02 -0.10224113719E+01  0.16543981731E+02  0.23311248247E+02  0.00000000000E+00 0. -1.
</event>
<event>
 8    1  0.2531964E-006  0.9118800E+02  0.7816164E-02  0.1184000E+00
        -11   -1    0    0    0    0  0.00000000000E+00  0.00000000000E+00  0.45593999997E+02  0.45594000000E+02  0.51100000000E-03 0. -1.
         11   -1    0    0    0    0 -0.00000000000E+00 -0.00000000000E+00 -0.45593999997E+02  0.45594000000E+02  0.51100000000E-03 0.  1.
         23    2    1    2    0    0 -0.35527136788E-14 -0.88817841970E-15  0.35527136788E-14  0.91188000000E+02  0.91188000000E+02 0.  0.
    9900012    2    3    3    0    0 -0.31817877518E+02  0.70322981006E+01 -0.17144895605E+02  0.54367109305E+02  0.40000057281E+02 0.  0.
         12    1    3    3    0    0  0.31817877518E+02 -0.70322981006E+01  0.17144895605E+02  0.36820890695E+02  0.00000000000E+00 0. -1.
         11    1    4    4    0    0  0.65155372370E+01  0.34541685962E+01  0.54572114874E+01  0.91741301308E+01  0.51100000000E-03 0. -1.
        -11    1    4    4    0    0 -0.18626360245E+02 -0.58006318239E+00 -0.78202722420E+01  0.20209760698E+02  0.51100000000E-03 0.  1.
        -12    1    4    4    0    0 -0.19707054510E+02  0.41581926868E+01 -0.14781834850E+02  0.24983218476E+02  0.00000000000E+00 0.  1.
</event>
<event>
 8    1  0.2531964E-006  0.9118800E+02  0.7816164E-02  0.1184000E+00
        -11   -1    0    0    0    0  0.00000000000E+00  0.00000000000E+00  0.45593999997E+02  0.45594000000E+02  0.51100000000E-03 0. -1.
         11   -1    0    0    0    0 -0.00000000000E+00 -0.00000000000E+00 -0.45593999997E+02  0.45594000000E+02  0.51100000000E-03 0.  1.
         23    2    1    2    0    0  0.00000000000E+00  0.17763568394E-14  0.00000000000E+00  0.91188000000E+02  0.91188000000E+02 0.  0.
    9900012    2    3    3    0    0 -0.29079938699E+02 -0.43771815997E+01 -0.22158000022E+02  0.54367088571E+02  0.40000010015E+02 0.  0.
        -12    1    3    3    0    0  0.29079938699E+02  0.43771815997E+01  0.22158000022E+02  0.36820911429E+02  0.00000000000E+00 0.  1.
         11    1    4    4    0    0 -0.19470796816E+02 -0.19024857543E+02 -0.15422603942E+02  0.31287598913E+02  0.51100000000E-03 0. -1.
        -11    1    4    4    0    0  0.21269678691E+00  0.43715536829E+01 -0.76730763181E+01  0.88335622469E+01  0.51100000000E-03 0.  1.
         12    1    4    4    0    0 -0.98218386697E+01  0.10276122260E+02  0.93768023730E+00  0.14245927410E+02  0.00000000000E+00 0. -1.
</event>
<event>
 8    1  0.2531964E-006  0.9118800E+02  0.7816164E-02  0.1184000E+00
        -11   -1    0    0    0    0  0.00000000000E+00  0.00000000000E+00  0.45593999997E+02  0.45594000000E+02  0.51100000000E-03 0. -1.
         11   -1    0    0    0    0 -0.00000000000E+00 -0.00000000000E+00 -0.45593999997E+02  0.45594000000E+02  0.51100000000E-03 0.  1.
         23    2    1    2    0    0  0.00000000000E+00  0.00000000000E+00  0.00000000000E+00  0.91188000000E+02  0.91188000000E+02 0.  0.
    9900012    2    3    3    0    0  0.46825825313E+01  0.20013449654E+02 -0.30550179443E+02  0.54367106336E+02  0.40000050514E+02 0.  0.
         12    1    3    3    0    0 -0.46825825313E+01 -0.20013449654E+02  0.30550179443E+02  0.36820893664E+02  0.00000000000E+00 0. -1.
         11    1    4    4    0    0  0.16702214565E+02  0.41177148449E+01  0.54402542116E+00  0.17210912551E+02  0.51100000000E-03 0. -1.
        -11    1    4    4    0    0 -0.22820636069E+01  0.52290678519E+01 -0.66310391008E+01  0.87476651012E+01  0.51100000000E-03 0.  1.
         12    1    4    4    0    0 -0.97375684265E+01  0.10666666958E+02 -0.24463165763E+02  0.28408528684E+02  0.00000000000E+00 0. -1.
</event>
<event>
 8    1  0.2531964E-006  0.9118800E+02  0.7816164E-02  0.1184000E+00
        -11   -1    0    0    0    0  0.00000000000E+00  0.00000000000E+00  0.45593999997E+02  0.45594000000E+02  0.51100000000E-03 0. -1.
         11   -1    0    0    0    0 -0.00000000000E+00 -0.00000000000E+00 -0.45593999997E+02  0.45594000000E+02  0.51100000000E-03 0.  1.
         23    2    1    2    0    0 -0.35527136788E-14  0.00000000000E+00 -0.44408920985E-15  0.91188000000E+02  0.91188000000E+02 0.  0.
    9900012    2    3    3    0    0  0.29510148918E+02  0.21714954933E+02  0.36604333103E+01  0.54366987942E+02  0.39999780612E+02 0.  0.
        -12    1    3    3    0    0 -0.29510148918E+02 -0.21714954933E+02 -0.36604333103E+01  0.36821012058E+02  0.00000000000E+00 0.  1.
         11    1    4    4    0    0  0.70270147660E+01 -0.24511123907E+01  0.44069548176E+01  0.86491698734E+01  0.51100000000E-03 0. -1.
        -11    1    4    4    0    0  0.21164501328E+02  0.21931578148E+02 -0.13042030382E+02  0.33151542849E+02  0.51100000000E-03 0.  1.
         12    1    4    4    0    0  0.13186328237E+01  0.22344891759E+01  0.12295508875E+02  0.12566275220E+02  0.00000000000E+00 0. -1.
</event>
<event>
 8    1  0.2531964E-006  0.9118800E+02  0.7816164E-02  0.1184000E+00
        -11   -1    0    0    0    0  0.00000000000E+00  0.00000000000E+00  0.45593999997E+02  0.45594000000E+02  0.51100000000E-03 0.  1.
         11   -1    0    0    0    0 -0.00000000000E+00 -0.00000000000E+00 -0.45593999997E+02  0.45594000000E+02  0.51100000000E-03 0. -1.
         23    2    1    2    0    0  0.00000000000E+00  0.00000000000E+00  0.00000000000E+00  0.91188000000E+02  0.91188000000E+02 0.  0.
    9900012    2    3    3    0    0 -0.10712906051E+02  0.13106193681E+02 -0.32699242309E+02  0.54367094030E+02  0.40000022460E+02 0.  0.
        -12    1    3    3    0    0  0.10712906051E+02 -0.13106193681E+02  0.32699242309E+02  0.36820905970E+02  0.00000000000E+00 0.  1.
         11    1    4    4    0    0 -0.13006161374E+02  0.58658251277E+01 -0.28893528099E+02  0.32224278183E+02  0.51100000000E-03 0. -1.
        -11    1    4    4    0    0  0.94506479646E+01 -0.19980733280E+01 -0.39989488719E+01  0.10454598812E+02  0.51100000000E-03 0.  1.
        -12    1    4    4    0    0 -0.71573926413E+01  0.92384418817E+01  0.19323466232E+00  0.11688217035E+02  0.00000000000E+00 0.  1.
</event>
<event>
 8    1  0.2531964E-006  0.9118800E+02  0.7816164E-02  0.1184000E+00
        -11   -1    0    0    0    0  0.00000000000E+00  0.00000000000E+00  0.45593999997E+02  0.45594000000E+02  0.51100000000E-03 0.  1.
         11   -1    0    0    0    0 -0.00000000000E+00 -0.00000000000E+00 -0.45593999997E+02  0.45594000000E+02  0.51100000000E-03 0. -1.
         23    2    1    2    0    0  0.00000000000E+00 -0.17763568394E-14 -0.88817841970E-15  0.91188000000E+02  0.91188000000E+02 0.  0.
    9900012    2    3    3    0    0 -0.35370364624E+02 -0.91834231076E+01  0.45147261680E+01  0.54367072446E+02  0.39999973255E+02 0.  0.
         12    1    3    3    0    0  0.35370364624E+02  0.91834231076E+01 -0.45147261680E+01  0.36820927554E+02  0.00000000000E+00 0. -1.
         11    1    4    4    0    0 -0.25688354538E+02 -0.81952950629E+01  0.87521560340E+01  0.28348803423E+02  0.51100000000E-03 0. -1.
        -11    1    4    4    0    0 -0.12068767611E+02  0.28931365969E+01  0.67471370988E+01  0.14126190226E+02  0.51100000000E-03 0.  1.
         12    1    4    4    0    0  0.23867575250E+01 -0.38812646416E+01 -0.10984566965E+02  0.11892078797E+02  0.00000000000E+00 0. -1.
</event>
<event>
 8    1  0.2531964E-006  0.9118800E+02  0.7816164E-02  0.1184000E+00
        -11   -1    0    0    0    0  0.00000000000E+00  0.00000000000E+00  0.45593999997E+02  0.45594000000E+02  0.51100000000E-03 0.  1.
         11   -1    0    0    0    0 -0.00000000000E+00 -0.00000000000E+00 -0.45593999997E+02  0.45594000000E+02  0.51100000000E-03 0. -1.
         23    2    1    2    0    0  0.00000000000E+00 -0.35527136788E-14  0.17763568394E-14  0.91188000000E+02  0.91188000000E+02 0.  0.
    9900012    2    3    3    0    0 -0.16517675737E+02 -0.30444779483E+02  0.12492549893E+02  0.54367054706E+02  0.39999932813E+02 0.  0.
         12    1    3    3    0    0  0.16517675737E+02  0.30444779483E+02 -0.12492549893E+02  0.36820945294E+02  0.00000000000E+00 0. -1.
         11    1    4    4    0    0  0.98422158907E+00 -0.16435815290E+02 -0.51313374202E+01  0.17246313820E+02  0.51100000000E-03 0. -1.
        -11    1    4    4    0    0 -0.16730516581E+02 -0.20263474257E+02  0.15278394308E+02  0.30396511426E+02  0.51100000000E-03 0.  1.
        -12    1    4    4    0    0 -0.77138074517E+00  0.62545100635E+01  0.23454930055E+01  0.67242294597E+01  0.00000000000E+00 0.  1.
</event>
<event>
 8    1  0.2531964E-006  0.9118800E+02  0.7816164E-02  0.1184000E+00
        -11   -1    0    0    0    0  0.00000000000E+00  0.00000000000E+00  0.45593999997E+02  0.45594000000E+02  0.51100000000E-03 0. -1.
         11   -1    0    0    0    0 -0.00000000000E+00 -0.00000000000E+00 -0.45593999997E+02  0.45594000000E+02  0.51100000000E-03 0.  1.
         23    2    1    2    0    0  0.00000000000E+00 -0.17763568394E-14  0.00000000000E+00  0.91188000000E+02  0.91188000000E+02 0.  0.
    9900012    2    3    3    0    0  0.36306566991E+02 -0.41002918239E+01  0.45608589393E+01  0.54367073423E+02  0.39999975482E+02 0.  0.
         12    1    3    3    0    0 -0.36306566991E+02  0.41002918239E+01 -0.45608589393E+01  0.36820926577E+02  0.00000000000E+00 0. -1.
         11    1    4    4    0    0 -0.21105407376E+01 -0.17398208386E+01  0.48213612053E+01  0.55431834616E+01  0.51100000000E-03 0. -1.
        -11    1    4    4    0    0  0.26917396505E+02  0.11398933084E+02  0.59798145159E+01  0.29836891460E+02  0.51100000000E-03 0.  1.
        -12    1    4    4    0    0  0.11499711224E+02 -0.13759404069E+02 -0.62403167819E+01  0.18986998502E+02  0.00000000000E+00 0.  1.
</event>
<event>
 8    1  0.2531964E-006  0.9118800E+02  0.7816164E-02  0.1184000E+00
        -11   -1    0    0    0    0  0.00000000000E+00  0.00000000000E+00  0.45593999997E+02  0.45594000000E+02  0.51100000000E-03 0.  1.
         11   -1    0    0    0    0 -0.00000000000E+00 -0.00000000000E+00 -0.45593999997E+02  0.45594000000E+02  0.51100000000E-03 0. -1.
         23    2    1    2    0    0  0.00000000000E+00  0.00000000000E+00  0.35527136788E-14  0.91188000000E+02  0.91188000000E+02 0.  0.
    9900012    2    3    3    0    0 -0.19992116419E+02  0.35182230201E+01 -0.30719935929E+02  0.54367121743E+02  0.40000085638E+02 0.  0.
        -12    1    3    3    0    0  0.19992116419E+02 -0.35182230201E+01  0.30719935929E+02  0.36820878257E+02  0.00000000000E+00 0.  1.
         11    1    4    4    0    0 -0.16673274628E+02  0.19978321126E+01  0.39380846616E+00  0.16797157657E+02  0.51100000000E-03 0. -1.
        -11    1    4    4    0    0  0.23892537505E+01 -0.40432909719E+01  0.72188185663E+00  0.47516154142E+01  0.51100000000E-03 0.  1.
        -12    1    4    4    0    0 -0.57080955411E+01  0.55636818795E+01 -0.31835626251E+02  0.32818348672E+02  0.00000000000E+00 0.  1.
</event>
<event>
 8    1  0.2531964E-006  0.9118800E+02  0.7816164E-02  0.1184000E+00
        -11   -1    0    0    0    0  0.00000000000E+00  0.00000000000E+00  0.45593999997E+02  0.45594000000E+02  0.51100000000E-03 0.  1.
         11   -1    0    0    0    0 -0.00000000000E+00 -0.00000000000E+00 -0.45593999997E+02  0.45594000000E+02  0.51100000000E-03 0. -1.
         23    2    1    2    0    0 -0.44408920985E-15 -0.35527136788E-14  0.00000000000E+00  0.91188000000E+02  0.91188000000E+02 0.  0.
    9900012    2    3    3    0    0 -0.30372954928E+01 -0.20451460550E+02  0.30467884835E+02  0.54367090060E+02  0.40000013409E+02 0.  0.
         12    1    3    3    0    0  0.30372954928E+01  0.20451460550E+02 -0.30467884835E+02  0.36820909940E+02  0.00000000000E+00 0. -1.
         11    1    4    4    0    0  0.48321539657E+01 -0.43947673850E+01  0.11669626528E+01  0.66351710159E+01  0.51100000000E-03 0. -1.
        -11    1    4    4    0    0 -0.60404547351E+01  0.99098010654E+01  0.79874278954E+01  0.14088656970E+02  0.51100000000E-03 0.  1.
        -12    1    4    4    0    0 -0.18289947235E+01 -0.25966494230E+02  0.21313494286E+02  0.33643262074E+02  0.00000000000E+00 0.  1.
</event>
<event>
 8    1  0.2531964E-006  0.9118800E+02  0.7816164E-02  0.1184000E+00
        -11   -1    0    0    0    0  0.00000000000E+00  0.00000000000E+00  0.45593999997E+02  0.45594000000E+02  0.51100000000E-03 0.  1.
         11   -1    0    0    0    0 -0.00000000000E+00 -0.00000000000E+00 -0.45593999997E+02  0.45594000000E+02  0.51100000000E-03 0. -1.
         23    2    1    2    0    0  0.00000000000E+00  0.00000000000E+00  0.35527136788E-14  0.91188000000E+02  0.91188000000E+02 0.  0.
    9900012    2    3    3    0    0  0.20196295919E+02  0.19258445110E+02 -0.24020983818E+02  0.54367004081E+02  0.39999817403E+02 0.  0.
        -12    1    3    3    0    0 -0.20196295919E+02 -0.19258445110E+02  0.24020983818E+02  0.36820995919E+02  0.00000000000E+00 0.  1.
         11    1    4    4    0    0  0.11893293923E+02  0.19395619748E+02 -0.89353003737E+01  0.24443406039E+02  0.51100000000E-03 0. -1.
        -11    1    4    4    0    0 -0.59615823608E+01 -0.20220306768E+01  0.28662865909E+01  0.69169842695E+01  0.51100000000E-03 0.  1.
        -12    1    4    4    0    0  0.14264584356E+02  0.18848560389E+01 -0.17951970035E+02  0.23006613773E+02  0.00000000000E+00 0.  1.
</event>
<event>
 8    1  0.2531964E-006  0.9118800E+02  0.7816164E-02  0.1184000E+00
        -11   -1    0    0    0    0  0.00000000000E+00  0.00000000000E+00  0.45593999997E+02  0.45594000000E+02  0.51100000000E-03 0.  1.
         11   -1    0    0    0    0 -0.00000000000E+00 -0.00000000000E+00 -0.45593999997E+02  0.45594000000E+02  0.51100000000E-03 0. -1.
         23    2    1    2    0    0 -0.17763568394E-14  0.00000000000E+00  0.00000000000E+00  0.91188000000E+02  0.91188000000E+02 0.  0.
    9900012    2    3    3    0    0 -0.15637650202E+02  0.20675807427E+01  0.33271131004E+02  0.54367093544E+02  0.40000021353E+02 0.  0.
         12    1    3    3    0    0  0.15637650202E+02 -0.20675807427E+01 -0.33271131004E+02  0.36820906456E+02  0.00000000000E+00 0. -1.
         11    1    4    4    0    0  0.12622859518E+01 -0.14039787801E+02  0.10929776479E+02  0.17837292997E+02  0.51100000000E-03 0. -1.
        -11    1    4    4    0    0 -0.56648471340E+00 -0.31066800776E+01  0.50384160473E+01  0.59462595437E+01  0.51100000000E-03 0.  1.
         12    1    4    4    0    0 -0.16333451440E+02  0.19214048621E+02  0.17302938478E+02  0.30583541004E+02  0.00000000000E+00 0. -1.
</event>
<event>
 8    1  0.2531964E-006  0.9118800E+02  0.7816164E-02  0.1184000E+00
        -11   -1    0    0    0    0  0.00000000000E+00  0.00000000000E+00  0.45593999997E+02  0.45594000000E+02  0.51100000000E-03 0.  1.
         11   -1    0    0    0    0 -0.00000000000E+00 -0.00000000000E+00 -0.45593999997E+02  0.45594000000E+02  0.51100000000E-03 0. -1.
         23    2    1    2    0    0  0.17763568394E-14  0.35527136788E-14  0.00000000000E+00  0.91188000000E+02  0.91188000000E+02 0.  0.
    9900012    2    3    3    0    0 -0.81827267890E+01  0.25825749793E+02  0.24937003253E+02  0.54367075224E+02  0.39999979589E+02 0.  0.
         12    1    3    3    0    0  0.81827267890E+01 -0.25825749793E+02 -0.24937003253E+02  0.36820924776E+02  0.00000000000E+00 0. -1.
         11    1    4    4    0    0 -0.91735672733E+00  0.58071444440E+01  0.12654691710E+02  0.13953698165E+02  0.51100000000E-03 0. -1.
        -11    1    4    4    0    0 -0.13927651811E+02  0.24604062439E+02  0.14840219585E+02  0.31930729573E+02  0.51100000000E-03 0.  1.
         12    1    4    4    0    0  0.66622817493E+01 -0.45854570896E+01 -0.25579080411E+01  0.84826474862E+01  0.00000000000E+00 0. -1.
</event>
<event>
 8    1  0.2531964E-006  0.9118800E+02  0.7816164E-02  0.1184000E+00
        -11   -1    0    0    0    0  0.00000000000E+00  0.00000000000E+00  0.45593999997E+02  0.45594000000E+02  0.51100000000E-03 0. -1.
         11   -1    0    0    0    0 -0.00000000000E+00 -0.00000000000E+00 -0.45593999997E+02  0.45594000000E+02  0.51100000000E-03 0.  1.
         23    2    1    2    0    0 -0.17763568394E-14 -0.35527136788E-14 -0.17763568394E-14  0.91188000000E+02  0.91188000000E+02 0.  0.
    9900012    2    3    3    0    0  0.12081300181E+02  0.31305464030E+02  0.15159269868E+02  0.54366900680E+02  0.39999581678E+02 0.  0.
        -12    1    3    3    0    0 -0.12081300181E+02 -0.31305464030E+02 -0.15159269868E+02  0.36821099320E+02  0.00000000000E+00 0.  1.
         11    1    4    4    0    0  0.67033155822E+01  0.18285971883E+02  0.42586005980E+01  0.19936069994E+02  0.51100000000E-03 0. -1.
        -11    1    4    4    0    0  0.86576517455E+01 -0.76060399744E+01  0.18598298891E+01  0.11673291966E+02  0.51100000000E-03 0.  1.
        -12    1    4    4    0    0 -0.32796671471E+01  0.20625532122E+02  0.90408393807E+01  0.22757538720E+02  0.00000000000E+00 0.  1.
</event>
<event>
 8    1  0.2531964E-006  0.9118800E+02  0.7816164E-02  0.1184000E+00
        -11   -1    0    0    0    0  0.00000000000E+00  0.00000000000E+00  0.45593999997E+02  0.45594000000E+02  0.51100000000E-03 0.  1.
         11   -1    0    0    0    0 -0.00000000000E+00 -0.00000000000E+00 -0.45593999997E+02  0.45594000000E+02  0.51100000000E-03 0. -1.
         23    2    1    2    0    0 -0.71054273576E-14 -0.44408920985E-15  0.35527136788E-14  0.91188000000E+02  0.91188000000E+02 0.  0.
    9900012    2    3    3    0    0  0.35752547746E+02  0.24658471960E+01 -0.84531114266E+01  0.54367079785E+02  0.39999989986E+02 0.  0.
        -12    1    3    3    0    0 -0.35752547746E+02 -0.24658471960E+01  0.84531114266E+01  0.36820920215E+02  0.00000000000E+00 0.  1.
         11    1    4    4    0    0  0.68318619133E+01 -0.57646521324E+01  0.11429109334E+02  0.14509655125E+02  0.51100000000E-03 0. -1.
        -11    1    4    4    0    0  0.12525356114E+02 -0.42953736517E+01 -0.40389161147E+01  0.13843685356E+02  0.51100000000E-03 0.  1.
         12    1    4    4    0    0  0.16395329719E+02  0.12525872980E+02 -0.15843304646E+02  0.26013739304E+02  0.00000000000E+00 0. -1.
</event>
<event>
 8    1  0.2531964E-006  0.9118800E+02  0.7816164E-02  0.1184000E+00
        -11   -1    0    0    0    0  0.00000000000E+00  0.00000000000E+00  0.45593999997E+02  0.45594000000E+02  0.51100000000E-03 0.  1.
         11   -1    0    0    0    0 -0.00000000000E+00 -0.00000000000E+00 -0.45593999997E+02  0.45594000000E+02  0.51100000000E-03 0. -1.
         23    2    1    2    0    0  0.35527136788E-14 -0.35527136788E-14  0.17763568394E-14  0.91188000000E+02  0.91188000000E+02 0.  0.
    9900012    2    3    3    0    0  0.29137966948E+02  0.16125251156E+02 -0.15707730180E+02  0.54367114214E+02  0.40000068473E+02 0.  0.
        -12    1    3    3    0    0 -0.29137966948E+02 -0.16125251156E+02  0.15707730180E+02  0.36820885786E+02  0.00000000000E+00 0.  1.
         11    1    4    4    0    0  0.30892905115E+02  0.63389643667E+01 -0.18550485049E+02  0.36587901710E+02  0.51100000000E-03 0. -1.
        -11    1    4    4    0    0 -0.55153254030E+01 -0.80549920947E+00 -0.14309942943E+01  0.57545971370E+01  0.51100000000E-03 0.  1.
         12    1    4    4    0    0  0.37603872354E+01  0.10591785999E+02  0.42737491635E+01  0.12024615367E+02  0.00000000000E+00 0. -1.
</event>
<event>
 8    1  0.2531964E-006  0.9118800E+02  0.7816164E-02  0.1184000E+00
        -11   -1    0    0    0    0  0.00000000000E+00  0.00000000000E+00  0.45593999997E+02  0.45594000000E+02  0.51100000000E-03 0. -1.
         11   -1    0    0    0    0 -0.00000000000E+00 -0.00000000000E+00 -0.45593999997E+02  0.45594000000E+02  0.51100000000E-03 0.  1.
         23    2    1    2    0    0 -0.17763568394E-14  0.35527136788E-14  0.00000000000E+00  0.91188000000E+02  0.91188000000E+02 0.  0.
    9900012    2    3    3    0    0  0.14141814802E+02  0.29764117058E+02  0.16428226601E+02  0.54367079053E+02  0.39999988318E+02 0.  0.
        -12    1    3    3    0    0 -0.14141814802E+02 -0.29764117058E+02 -0.16428226601E+02  0.36820920947E+02  0.00000000000E+00 0.  1.
         11    1    4    4    0    0 -0.77361613098E+01  0.62566799753E+01  0.15729192609E+01  0.10073148038E+02  0.51100000000E-03 0. -1.
        -11    1    4    4    0    0  0.14468358135E+02  0.11151114425E+02 -0.57505362564E+01  0.19150702534E+02  0.51100000000E-03 0.  1.
        -12    1    4    4    0    0  0.74096179764E+01  0.12356322657E+02  0.20605843596E+02  0.25143228482E+02  0.00000000000E+00 0.  1.
</event>
<event>
 8    1  0.2531964E-006  0.9118800E+02  0.7816164E-02  0.1184000E+00
        -11   -1    0    0    0    0  0.00000000000E+00  0.00000000000E+00  0.45593999997E+02  0.45594000000E+02  0.51100000000E-03 0. -1.
         11   -1    0    0    0    0 -0.00000000000E+00 -0.00000000000E+00 -0.45593999997E+02  0.45594000000E+02  0.51100000000E-03 0.  1.
         23    2    1    2    0    0 -0.35527136788E-14  0.00000000000E+00  0.00000000000E+00  0.91188000000E+02  0.91188000000E+02 0.  0.
    9900012    2    3    3    0    0 -0.30625298872E+02 -0.15704302448E+02  0.13086067950E+02  0.54367092614E+02  0.40000019231E+02 0.  0.
        -12    1    3    3    0    0  0.30625298872E+02  0.15704302448E+02 -0.13086067950E+02  0.36820907386E+02  0.00000000000E+00 0.  1.
         11    1    4    4    0    0 -0.34557235390E+02 -0.63038199379E+01  0.94033547996E+01  0.36364319674E+02  0.51100000000E-03 0. -1.
        -11    1    4    4    0    0  0.56453340001E+00  0.28225628257E+01 -0.25767870355E+01  0.38633393007E+01  0.51100000000E-03 0.  1.
         12    1    4    4    0    0  0.33674031186E+01 -0.12223045336E+02  0.62595001861E+01  0.14139433639E+02  0.00000000000E+00 0. -1.
</event>
<event>
 8    1  0.2531964E-006  0.9118800E+02  0.7816164E-02  0.1184000E+00
        -11   -1    0    0    0    0  0.00000000000E+00  0.00000000000E+00  0.45593999997E+02  0.45594000000E+02  0.51100000000E-03 0.  1.
         11   -1    0    0    0    0 -0.00000000000E+00 -0.00000000000E+00 -0.45593999997E+02  0.45594000000E+02  0.51100000000E-03 0. -1.
         23    2    1    2    0    0  0.17763568394E-14  0.00000000000E+00 -0.17763568394E-14  0.91188000000E+02  0.91188000000E+02 0.  0.
    9900012    2    3    3    0    0 -0.14240106278E+02  0.32830320097E+02  0.86700306898E+01  0.54367082349E+02  0.39999995832E+02 0.  0.
        -12    1    3    3    0    0  0.14240106278E+02 -0.32830320097E+02 -0.86700306898E+01  0.36820917651E+02  0.00000000000E+00 0.  1.
         11    1    4    4    0    0  0.12160861960E+00 -0.71775923628E+01  0.28731188716E+01  0.77322333833E+01  0.51100000000E-03 0.  1.
        -11    1    4    4    0    0 -0.78579191535E+01  0.24905486651E+02  0.12406531049E+02  0.28912837489E+02  0.51100000000E-03 0. -1.
         12    1    4    4    0    0 -0.65037957438E+01  0.15102425809E+02 -0.66096192313E+01  0.17722011476E+02  0.00000000000E+00 0. -1.
</event>
<event>
 8    1  0.2531964E-006  0.9118800E+02  0.7816164E-02  0.1184000E+00
        -11   -1    0    0    0    0  0.00000000000E+00  0.00000000000E+00  0.45593999997E+02  0.45594000000E+02  0.51100000000E-03 0.  1.
         11   -1    0    0    0    0 -0.00000000000E+00 -0.00000000000E+00 -0.45593999997E+02  0.45594000000E+02  0.51100000000E-03 0. -1.
         23    2    1    2    0    0  0.00000000000E+00  0.00000000000E+00  0.71054273576E-14  0.91188000000E+02  0.91188000000E+02 0.  0.
    9900012    2    3    3    0    0  0.13338746921E+02 -0.47757411758E+01  0.33986108201E+02  0.54367008380E+02  0.39999827204E+02 0.  0.
         12    1    3    3    0    0 -0.13338746921E+02  0.47757411758E+01 -0.33986108201E+02  0.36820991620E+02  0.00000000000E+00 0. -1.
         11    1    4    4    0    0  0.16051241856E+01 -0.27698113310E+01  0.15617309274E+01  0.35619211406E+01  0.51100000000E-03 0. -1.
        -11    1    4    4    0    0 -0.31909829046E+01 -0.14843419980E+02  0.25979881921E+02  0.30090924770E+02  0.51100000000E-03 0.  1.
         12    1    4    4    0    0  0.14924605640E+02  0.12837490135E+02  0.64444953529E+01  0.20714162470E+02  0.00000000000E+00 0. -1.
</event>
<event>
 8    1  0.2531964E-006  0.9118800E+02  0.7816164E-02  0.1184000E+00
        -11   -1    0    0    0    0  0.00000000000E+00  0.00000000000E+00  0.45593999997E+02  0.45594000000E+02  0.51100000000E-03 0. -1.
         11   -1    0    0    0    0 -0.00000000000E+00 -0.00000000000E+00 -0.45593999997E+02  0.45594000000E+02  0.51100000000E-03 0.  1.
         23    2    1    2    0    0 -0.17763568394E-14  0.00000000000E+00  0.00000000000E+00  0.91188000000E+02  0.91188000000E+02 0.  0.
    9900012    2    3    3    0    0 -0.11026206829E+02  0.80237597507E+01 -0.34202608193E+02  0.54367131396E+02  0.40000107643E+02 0.  0.
         12    1    3    3    0    0  0.11026206829E+02 -0.80237597507E+01  0.34202608193E+02  0.36820868604E+02  0.00000000000E+00 0. -1.
         11    1    4    4    0    0 -0.88196071832E+01 -0.50638972857E+01 -0.26184898639E+01  0.10501667297E+02  0.51100000000E-03 0. -1.
        -11    1    4    4    0    0 -0.42140529566E+01  0.73773643517E+01 -0.35601153916E+02  0.36600900365E+02  0.51100000000E-03 0.  1.
        -12    1    4    4    0    0  0.20074533107E+01  0.57102926847E+01  0.40170355872E+01  0.72645637343E+01  0.00000000000E+00 0.  1.
</event>
<event>
 8    1  0.2531964E-006  0.9118800E+02  0.7816164E-02  0.1184000E+00
        -11   -1    0    0    0    0  0.00000000000E+00  0.00000000000E+00  0.45593999997E+02  0.45594000000E+02  0.51100000000E-03 0.  1.
         11   -1    0    0    0    0 -0.00000000000E+00 -0.00000000000E+00 -0.45593999997E+02  0.45594000000E+02  0.51100000000E-03 0. -1.
         23    2    1    2    0    0  0.00000000000E+00  0.00000000000E+00 -0.35527136788E-14  0.91188000000E+02  0.91188000000E+02 0.  0.
    9900012    2    3    3    0    0 -0.13217973596E+02  0.19148404741E+02  0.28537772234E+02  0.54367072877E+02  0.39999974239E+02 0.  0.
         12    1    3    3    0    0  0.13217973596E+02 -0.19148404741E+02 -0.28537772234E+02  0.36820927123E+02  0.00000000000E+00 0. -1.
         11    1    4    4    0    0 -0.14543145234E+02  0.14741582528E+02  0.88058924864E+01  0.22502468119E+02  0.51100000000E-03 0. -1.
        -11    1    4    4    0    0  0.33094410830E+01 -0.72563423256E+01 -0.95631363825E+00  0.80325239038E+01  0.51100000000E-03 0.  1.
        -12    1    4    4    0    0 -0.19842694449E+01  0.11663164539E+02  0.20688193385E+02  0.23832080854E+02  0.00000000000E+00 0.  1.
</event>
<event>
 8    1  0.2531964E-006  0.9118800E+02  0.7816164E-02  0.1184000E+00
        -11   -1    0    0    0    0  0.00000000000E+00  0.00000000000E+00  0.45593999997E+02  0.45594000000E+02  0.51100000000E-03 0. -1.
         11   -1    0    0    0    0 -0.00000000000E+00 -0.00000000000E+00 -0.45593999997E+02  0.45594000000E+02  0.51100000000E-03 0.  1.
         23    2    1    2    0    0  0.00000000000E+00  0.00000000000E+00  0.00000000000E+00  0.91188000000E+02  0.91188000000E+02 0.  0.
    9900012    2    3    3    0    0  0.23930921465E+02 -0.12458794574E+02  0.25057337607E+02  0.54367072088E+02  0.39999972438E+02 0.  0.
        -12    1    3    3    0    0 -0.23930921465E+02  0.12458794574E+02 -0.25057337607E+02  0.36820927912E+02  0.00000000000E+00 0.  1.
         11    1    4    4    0    0  0.25685677988E+02  0.23107483249E+01  0.24072645369E+02  0.35278688565E+02  0.51100000000E-03 0. -1.
        -11    1    4    4    0    0 -0.39589972706E+01 -0.10158824897E+02  0.55512473532E+01  0.12234857176E+02  0.51100000000E-03 0.  1.
         12    1    4    4    0    0  0.22042407473E+01 -0.46107180014E+01 -0.45665551155E+01  0.68535263466E+01  0.00000000000E+00 0. -1.
</event>
<event>
 8    1  0.2531964E-006  0.9118800E+02  0.7816164E-02  0.1184000E+00
        -11   -1    0    0    0    0  0.00000000000E+00  0.00000000000E+00  0.45593999997E+02  0.45594000000E+02  0.51100000000E-03 0.  1.
         11   -1    0    0    0    0 -0.00000000000E+00 -0.00000000000E+00 -0.45593999997E+02  0.45594000000E+02  0.51100000000E-03 0. -1.
         23    2    1    2    0    0  0.10658141036E-13  0.88817841970E-15  0.35527136788E-14  0.91188000000E+02  0.91188000000E+02 0.  0.
    9900012    2    3    3    0    0 -0.31571049960E+02 -0.62113841645E+01  0.17901580605E+02  0.54367094566E+02  0.40000023683E+02 0.  0.
         12    1    3    3    0    0  0.31571049960E+02  0.62113841645E+01 -0.17901580605E+02  0.36820905434E+02  0.00000000000E+00 0. -1.
         11    1    4    4    0    0 -0.79274200647E+01  0.27111400453E+01  0.77435876073E+01  0.11408655421E+02  0.51100000000E-03 0. -1.
        -11    1    4    4    0    0 -0.26207733323E+02 -0.71407608277E+01  0.19284508387E+02  0.33312580433E+02  0.51100000000E-03 0.  1.
         12    1    4    4    0    0  0.25641034285E+01 -0.17817633821E+01 -0.91265153890E+01  0.96458587118E+01  0.00000000000E+00 0. -1.
</event>
<event>
 8    1  0.2531964E-006  0.9118800E+02  0.7816164E-02  0.1184000E+00
        -11   -1    0    0    0    0  0.00000000000E+00  0.00000000000E+00  0.45593999997E+02  0.45594000000E+02  0.51100000000E-03 0.  1.
         11   -1    0    0    0    0 -0.00000000000E+00 -0.00000000000E+00 -0.45593999997E+02  0.45594000000E+02  0.51100000000E-03 0. -1.
         23    2    1    2    0    0 -0.88817841970E-15  0.00000000000E+00  0.00000000000E+00  0.91188000000E+02  0.91188000000E+02 0.  0.
    9900012    2    3    3    0    0  0.53000659383E+01  0.30958316336E+02  0.19216445607E+02  0.54367084326E+02  0.40000000338E+02 0.  0.
         12    1    3    3    0    0 -0.53000659383E+01 -0.30958316336E+02 -0.19216445607E+02  0.36820915674E+02  0.00000000000E+00 0. -1.
         11    1    4    4    0    0  0.16122408610E+02  0.79819837997E+01  0.37114863448E+01  0.18368975363E+02  0.51100000000E-03 0. -1.
        -11    1    4    4    0    0 -0.64454921690E+01  0.18099044964E+02  0.51483569820E-01  0.19212559661E+02  0.51100000000E-03 0.  1.
         12    1    4    4    0    0 -0.43768505023E+01  0.48772875720E+01  0.15453475692E+02  0.16785549301E+02  0.00000000000E+00 0. -1.
</event>
<event>
 8    1  0.2531964E-006  0.9118800E+02  0.7816164E-02  0.1184000E+00
        -11   -1    0    0    0    0  0.00000000000E+00  0.00000000000E+00  0.45593999997E+02  0.45594000000E+02  0.51100000000E-03 0.  1.
         11   -1    0    0    0    0 -0.00000000000E+00 -0.00000000000E+00 -0.45593999997E+02  0.45594000000E+02  0.51100000000E-03 0. -1.
         23    2    1    2    0    0  0.00000000000E+00 -0.71054273576E-14  0.00000000000E+00  0.91188000000E+02  0.91188000000E+02 0.  0.
    9900012    2    3    3    0    0 -0.14548936712E+02 -0.29947103758E+02 -0.15725126708E+02  0.54367079413E+02  0.39999989137E+02 0.  0.
        -12    1    3    3    0    0  0.14548936712E+02  0.29947103758E+02  0.15725126708E+02  0.36820920587E+02  0.00000000000E+00 0.  1.
         11    1    4    4    0    0 -0.12057822598E+02 -0.24202465400E+01 -0.19310335599E+01  0.12448998754E+02  0.51100000000E-03 0. -1.
        -11    1    4    4    0    0 -0.31370381508E+01 -0.29690571485E+00  0.69827128056E+01  0.76607727907E+01  0.51100000000E-03 0.  1.
         12    1    4    4    0    0  0.64592403610E+00 -0.27229951503E+02 -0.20776805953E+02  0.34257307868E+02  0.00000000000E+00 0. -1.
</event>
<event>
 8    1  0.2531964E-006  0.9118800E+02  0.7816164E-02  0.1184000E+00
        -11   -1    0    0    0    0  0.00000000000E+00  0.00000000000E+00  0.45593999997E+02  0.45594000000E+02  0.51100000000E-03 0.  1.
         11   -1    0    0    0    0 -0.00000000000E+00 -0.00000000000E+00 -0.45593999997E+02  0.45594000000E+02  0.51100000000E-03 0. -1.
         23    2    1    2    0    0  0.00000000000E+00 -0.88817841970E-15  0.00000000000E+00  0.91188000000E+02  0.91188000000E+02 0.  0.
    9900012    2    3    3    0    0 -0.20793434782E+02  0.70897313918E+01 -0.29549085400E+02  0.54367086524E+02  0.40000005348E+02 0.  0.
        -12    1    3    3    0    0  0.20793434782E+02 -0.70897313918E+01  0.29549085400E+02  0.36820913476E+02  0.00000000000E+00 0.  1.
         11    1    4    4    0    0 -0.25228239934E+01  0.44138211666E+01 -0.18729755180E+01  0.54179789355E+01  0.51100000000E-03 0. -1.
        -11    1    4    4    0    0  0.83482912374E+01  0.97345343016E+01 -0.93270489377E+01  0.15857142454E+02  0.51100000000E-03 0.  1.
         12    1    4    4    0    0 -0.26618902026E+02 -0.70586240765E+01 -0.18349060944E+02  0.33091965134E+02  0.00000000000E+00 0. -1.
</event>
<event>
 8    1  0.2531964E-006  0.9118800E+02  0.7816164E-02  0.1184000E+00
        -11   -1    0    0    0    0  0.00000000000E+00  0.00000000000E+00  0.45593999997E+02  0.45594000000E+02  0.51100000000E-03 0. -1.
         11   -1    0    0    0    0 -0.00000000000E+00 -0.00000000000E+00 -0.45593999997E+02  0.45594000000E+02  0.51100000000E-03 0.  1.
         23    2    1    2    0    0 -0.35527136788E-14  0.00000000000E+00 -0.44408920985E-15  0.91188000000E+02  0.91188000000E+02 0.  0.
    9900012    2    3    3    0    0 -0.12865155082E+02 -0.34320427692E+02 -0.35181299512E+01  0.54367065593E+02  0.39999957632E+02 0.  0.
        -12    1    3    3    0    0  0.12865155082E+02  0.34320427692E+02  0.35181299512E+01  0.36820934407E+02  0.00000000000E+00 0.  1.
         11    1    4    4    0    0  0.45440116368E+01 -0.22686656923E+01 -0.18395371193E+01  0.54017388731E+01  0.51100000000E-03 0. -1.
        -11    1    4    4    0    0  0.88174773601E+01 -0.26531818901E+01  0.19145768957E+01  0.94049394516E+01  0.51100000000E-03 0.  1.
        -12    1    4    4    0    0 -0.26226644079E+02 -0.29398580110E+02 -0.35931697277E+01  0.39560387268E+02  0.00000000000E+00 0.  1.
</event>
<event>
 8    1  0.2531964E-006  0.9118800E+02  0.7816164E-02  0.1184000E+00
        -11   -1    0    0    0    0  0.00000000000E+00  0.00000000000E+00  0.45593999997E+02  0.45594000000E+02  0.51100000000E-03 0.  1.
         11   -1    0    0    0    0 -0.00000000000E+00 -0.00000000000E+00 -0.45593999997E+02  0.45594000000E+02  0.51100000000E-03 0. -1.
         23    2    1    2    0    0  0.17763568394E-14  0.00000000000E+00  0.00000000000E+00  0.91188000000E+02  0.91188000000E+02 0.  0.
    9900012    2    3    3    0    0  0.10948112823E+01 -0.23141786695E+01  0.36731848404E+02  0.54367045072E+02  0.39999910850E+02 0.  0.
         12    1    3    3    0    0 -0.10948112823E+01  0.23141786695E+01 -0.36731848404E+02  0.36820954928E+02  0.00000000000E+00 0. -1.
         11    1    4    4    0    0  0.13954895977E+02 -0.17520946170E+00  0.15459292873E+02  0.20826895027E+02  0.51100000000E-03 0. -1.
        -11    1    4    4    0    0  0.58990793521E+01 -0.37863695092E+01  0.45615712402E+01  0.83632328500E+01  0.51100000000E-03 0.  1.
        -12    1    4    4    0    0 -0.18759164046E+02  0.16474003014E+01  0.16710984291E+02  0.25176917195E+02  0.00000000000E+00 0.  1.
</event>
<event>
 8    1  0.2531964E-006  0.9118800E+02  0.7816164E-02  0.1184000E+00
        -11   -1    0    0    0    0  0.00000000000E+00  0.00000000000E+00  0.45593999997E+02  0.45594000000E+02  0.51100000000E-03 0.  1.
         11   -1    0    0    0    0 -0.00000000000E+00 -0.00000000000E+00 -0.45593999997E+02  0.45594000000E+02  0.51100000000E-03 0. -1.
         23    2    1    2    0    0  0.00000000000E+00  0.00000000000E+00 -0.35527136788E-14  0.91188000000E+02  0.91188000000E+02 0.  0.
    9900012    2    3    3    0    0 -0.34985355794E+02 -0.37627021922E+01 -0.10846859698E+02  0.54366981367E+02  0.39999765622E+02 0.  0.
        -12    1    3    3    0    0  0.34985355794E+02  0.37627021922E+01  0.10846859698E+02  0.36821018633E+02  0.00000000000E+00 0.  1.
         11    1    4    4    0    0 -0.19183663234E+02 -0.56173963079E+00 -0.12937614215E+02  0.23145417437E+02  0.51100000000E-03 0. -1.
        -11    1    4    4    0    0 -0.17298354287E+02 -0.95916356332E+01  0.89655294224E+01  0.21716658427E+02  0.51100000000E-03 0.  1.
        -12    1    4    4    0    0  0.14966617264E+01  0.63906730718E+01 -0.68747749054E+01  0.95049055037E+01  0.00000000000E+00 0.  1.
</event>
<event>
 8    1  0.2531964E-006  0.9118800E+02  0.7816164E-02  0.1184000E+00
        -11   -1    0    0    0    0  0.00000000000E+00  0.00000000000E+00  0.45593999997E+02  0.45594000000E+02  0.51100000000E-03 0.  1.
         11   -1    0    0    0    0 -0.00000000000E+00 -0.00000000000E+00 -0.45593999997E+02  0.45594000000E+02  0.51100000000E-03 0. -1.
         23    2    1    2    0    0 -0.44408920985E-15  0.00000000000E+00 -0.35527136788E-14  0.91188000000E+02  0.91188000000E+02 0.  0.
    9900012    2    3    3    0    0 -0.23272978064E+01  0.19192753187E+02  0.31336882093E+02  0.54367105534E+02  0.40000048685E+02 0.  0.
         12    1    3    3    0    0  0.23272978064E+01 -0.19192753187E+02 -0.31336882093E+02  0.36820894466E+02  0.00000000000E+00 0. -1.
         11    1    4    4    0    0 -0.30874975860E+01  0.36878110377E+01 -0.17997736835E+00  0.48130015279E+01  0.51100000000E-03 0. -1.
        -11    1    4    4    0    0 -0.13674435469E+02  0.12193356264E+02  0.29332628117E+02  0.34584262243E+02  0.51100000000E-03 0.  1.
         12    1    4    4    0    0  0.14434635249E+02  0.33115858852E+01  0.21842313446E+01  0.14969841763E+02  0.00000000000E+00 0. -1.
</event>
<event>
 8    1  0.2531964E-006  0.9118800E+02  0.7816164E-02  0.1184000E+00
        -11   -1    0    0    0    0  0.00000000000E+00  0.00000000000E+00  0.45593999997E+02  0.45594000000E+02  0.51100000000E-03 0. -1.
         11   -1    0    0    0    0 -0.00000000000E+00 -0.00000000000E+00 -0.45593999997E+02  0.45594000000E+02  0.51100000000E-03 0.  1.
         23    2    1    2    0    0 -0.35527136788E-14  0.17763568394E-14  0.00000000000E+00  0.91188000000E+02  0.91188000000E+02 0.  0.
    9900012    2    3    3    0    0 -0.31227686666E+02 -0.80897016836E+01 -0.17753001246E+02  0.54367071969E+02  0.39999972167E+02 0.  0.
         12    1    3    3    0    0  0.31227686666E+02  0.80897016836E+01  0.17753001246E+02  0.36820928031E+02  0.00000000000E+00 0. -1.
         11    1    4    4    0    0  0.49680947680E+01 -0.26486124318E+01  0.15581947807E+01  0.58416679701E+01  0.51100000000E-03 0. -1.
        -11    1    4    4    0    0 -0.31915191408E+02 -0.23206933260E+01 -0.39084994215E+01  0.32237267690E+02  0.51100000000E-03 0.  1.
        -12    1    4    4    0    0 -0.42805900263E+01 -0.31203959258E+01 -0.15402696605E+02  0.16288136309E+02  0.00000000000E+00 0.  1.
</event>
<event>
 8    1  0.2531964E-006  0.9118800E+02  0.7816164E-02  0.1184000E+00
        -11   -1    0    0    0    0  0.00000000000E+00  0.00000000000E+00  0.45593999997E+02  0.45594000000E+02  0.51100000000E-03 0. -1.
         11   -1    0    0    0    0 -0.00000000000E+00 -0.00000000000E+00 -0.45593999997E+02  0.45594000000E+02  0.51100000000E-03 0.  1.
         23    2    1    2    0    0  0.35527136788E-14  0.00000000000E+00 -0.17763568394E-14  0.91188000000E+02  0.91188000000E+02 0.  0.
    9900012    2    3    3    0    0  0.29337929666E+02  0.19172583896E+02  0.11290581459E+02  0.54367091266E+02  0.40000016159E+02 0.  0.
        -12    1    3    3    0    0 -0.29337929666E+02 -0.19172583896E+02 -0.11290581459E+02  0.36820908734E+02  0.00000000000E+00 0.  1.
         11    1    4    4    0    0  0.20293201648E+00  0.16434846290E+02  0.10380263754E+02  0.19439527511E+02  0.51100000000E-03 0. -1.
        -11    1    4    4    0    0  0.17432667342E+02 -0.77931186461E+01  0.16552054491E+01  0.19166906225E+02  0.51100000000E-03 0.  1.
        -12    1    4    4    0    0  0.11702330307E+02  0.10530856252E+02 -0.74488774441E+00  0.15760657530E+02  0.00000000000E+00 0.  1.
</event>
<event>
 8    1  0.2531964E-006  0.9118800E+02  0.7816164E-02  0.1184000E+00
        -11   -1    0    0    0    0  0.00000000000E+00  0.00000000000E+00  0.45593999997E+02  0.45594000000E+02  0.51100000000E-03 0. -1.
         11   -1    0    0    0    0 -0.00000000000E+00 -0.00000000000E+00 -0.45593999997E+02  0.45594000000E+02  0.51100000000E-03 0.  1.
         23    2    1    2    0    0  0.00000000000E+00  0.17763568394E-14 -0.35527136788E-14  0.91188000000E+02  0.91188000000E+02 0.  0.
    9900012    2    3    3    0    0 -0.16478349440E+02  0.11122378091E+02 -0.30992543732E+02  0.54367067616E+02  0.39999962244E+02 0.  0.
         12    1    3    3    0    0  0.16478349440E+02 -0.11122378091E+02  0.30992543732E+02  0.36820932384E+02  0.00000000000E+00 0. -1.
         11    1    4    4    0    0  0.21017582968E+01 -0.57259391417E+01 -0.50396404289E+01  0.79121263201E+01  0.51100000000E-03 0. -1.
        -11    1    4    4    0    0 -0.10013042724E+02  0.21266328885E+02 -0.28043430291E+02  0.36591689652E+02  0.51100000000E-03 0.  1.
        -12    1    4    4    0    0 -0.85670650126E+01 -0.44180116527E+01  0.20905269884E+01  0.98632516435E+01  0.00000000000E+00 0.  1.
</event>
<event>
 8    1  0.2531964E-006  0.9118800E+02  0.7816164E-02  0.1184000E+00
        -11   -1    0    0    0    0  0.00000000000E+00  0.00000000000E+00  0.45593999997E+02  0.45594000000E+02  0.51100000000E-03 0.  1.
         11   -1    0    0    0    0 -0.00000000000E+00 -0.00000000000E+00 -0.45593999997E+02  0.45594000000E+02  0.51100000000E-03 0. -1.
         23    2    1    2    0    0  0.00000000000E+00  0.35527136788E-14  0.17763568394E-14  0.91188000000E+02  0.91188000000E+02 0.  0.
    9900012    2    3    3    0    0  0.20943973935E+02  0.29120195960E+02 -0.83152916839E+01  0.54367082946E+02  0.39999997191E+02 0.  0.
        -12    1    3    3    0    0 -0.20943973935E+02 -0.29120195960E+02  0.83152916839E+01  0.36820917054E+02  0.00000000000E+00 0.  1.
         11    1    4    4    0    0  0.70656941865E+01  0.58144820024E+01 -0.17666490544E+02  0.19895655900E+02  0.51100000000E-03 0.  1.
        -11    1    4    4    0    0  0.31277467343E+00  0.10315187802E+02  0.11633198544E+02  0.15550956113E+02  0.51100000000E-03 0. -1.
        -12    1    4    4    0    0  0.13565505075E+02  0.12990526156E+02 -0.22819996841E+01  0.18920470933E+02  0.00000000000E+00 0.  1.
</event>
<event>
 8    1  0.2531964E-006  0.9118800E+02  0.7816164E-02  0.1184000E+00
        -11   -1    0    0    0    0  0.00000000000E+00  0.00000000000E+00  0.45593999997E+02  0.45594000000E+02  0.51100000000E-03 0. -1.
         11   -1    0    0    0    0 -0.00000000000E+00 -0.00000000000E+00 -0.45593999997E+02  0.45594000000E+02  0.51100000000E-03 0.  1.
         23    2    1    2    0    0 -0.35527136788E-14  0.00000000000E+00  0.35527136788E-14  0.91188000000E+02  0.91188000000E+02 0.  0.
    9900012    2    3    3    0    0 -0.15597042375E+02 -0.16712373584E+02  0.28865358993E+02  0.54367080518E+02  0.39999991657E+02 0.  0.
        -12    1    3    3    0    0  0.15597042375E+02  0.16712373584E+02 -0.28865358993E+02  0.36820919482E+02  0.00000000000E+00 0.  1.
         11    1    4    4    0    0 -0.64859917271E+00 -0.12522221858E+02  0.57426629907E+01  0.13791479240E+02  0.51100000000E-03 0. -1.
        -11    1    4    4    0    0 -0.89789790031E+01  0.42898401219E+01  0.27555703064E+02  0.29297466850E+02  0.51100000000E-03 0.  1.
         12    1    4    4    0    0 -0.59694641996E+01 -0.84799918486E+01 -0.44330070612E+01  0.11278134428E+02  0.00000000000E+00 0. -1.
</event>
<event>
 8    1  0.2531964E-006  0.9118800E+02  0.7816164E-02  0.1184000E+00
        -11   -1    0    0    0    0  0.00000000000E+00  0.00000000000E+00  0.45593999997E+02  0.45594000000E+02  0.51100000000E-03 0.  1.
         11   -1    0    0    0    0 -0.00000000000E+00 -0.00000000000E+00 -0.45593999997E+02  0.45594000000E+02  0.51100000000E-03 0. -1.
         23    2    1    2    0    0  0.00000000000E+00  0.35527136788E-14 -0.35527136788E-14  0.91188000000E+02  0.91188000000E+02 0.  0.
    9900012    2    3    3    0    0  0.50389294316E+01  0.29778167464E+02 -0.21062984795E+02  0.54367090237E+02  0.40000013813E+02 0.  0.
        -12    1    3    3    0    0 -0.50389294316E+01 -0.29778167464E+02  0.21062984795E+02  0.36820909763E+02  0.00000000000E+00 0.  1.
         11    1    4    4    0    0  0.65429756480E+01  0.43992959441E+01 -0.42262116349E+01  0.89456805319E+01  0.51100000000E-03 0. -1.
        -11    1    4    4    0    0 -0.10438430985E+02  0.12097409168E+02 -0.23221880758E+02  0.28188009795E+02  0.51100000000E-03 0.  1.
        -12    1    4    4    0    0  0.89343847690E+01  0.13281462352E+02  0.63851075984E+01  0.17233399910E+02  0.00000000000E+00 0.  1.
</event>
<event>
 8    1  0.2531964E-006  0.9118800E+02  0.7816164E-02  0.1184000E+00
        -11   -1    0    0    0    0  0.00000000000E+00  0.00000000000E+00  0.45593999997E+02  0.45594000000E+02  0.51100000000E-03 0.  1.
         11   -1    0    0    0    0 -0.00000000000E+00 -0.00000000000E+00 -0.45593999997E+02  0.45594000000E+02  0.51100000000E-03 0. -1.
         23    2    1    2    0    0  0.17763568394E-14  0.00000000000E+00  0.00000000000E+00  0.91188000000E+02  0.91188000000E+02 0.  0.
    9900012    2    3    3    0    0 -0.23794708263E+01  0.36521024534E+02  0.40415063575E+01  0.54367069973E+02  0.39999967618E+02 0.  0.
         12    1    3    3    0    0  0.23794708263E+01 -0.36521024534E+02 -0.40415063575E+01  0.36820930027E+02  0.00000000000E+00 0. -1.
         11    1    4    4    0    0 -0.12021270309E+02  0.11452229029E+02 -0.11089926267E+00  0.16603517353E+02  0.51100000000E-03 0. -1.
        -11    1    4    4    0    0 -0.39624705549E+01  0.22506135338E+01  0.96164793408E+01  0.10641574571E+02  0.51100000000E-03 0.  1.
         12    1    4    4    0    0  0.13604270037E+02  0.22818181971E+02 -0.54640737206E+01  0.27121978050E+02  0.00000000000E+00 0. -1.
</event>
<event>
 8    1  0.2531964E-006  0.9118800E+02  0.7816164E-02  0.1184000E+00
        -11   -1    0    0    0    0  0.00000000000E+00  0.00000000000E+00  0.45593999997E+02  0.45594000000E+02  0.51100000000E-03 0.  1.
         11   -1    0    0    0    0 -0.00000000000E+00 -0.00000000000E+00 -0.45593999997E+02  0.45594000000E+02  0.51100000000E-03 0. -1.
         23    2    1    2    0    0 -0.17763568394E-14  0.17763568394E-14  0.00000000000E+00  0.91188000000E+02  0.91188000000E+02 0.  0.
    9900012    2    3    3    0    0 -0.59567692764E+01 -0.13400936491E+02 -0.33774420220E+02  0.54367086646E+02  0.40000005626E+02 0.  0.
        -12    1    3    3    0    0  0.59567692764E+01  0.13400936491E+02  0.33774420220E+02  0.36820913354E+02  0.00000000000E+00 0.  1.
         11    1    4    4    0    0 -0.14599048328E+02 -0.16783621955E+02 -0.20234454560E+02  0.30070838525E+02  0.51100000000E-03 0. -1.
        -11    1    4    4    0    0  0.18410457541E+01  0.71135439836E+01  0.13835020360E+01  0.74770338785E+01  0.51100000000E-03 0.  1.
         12    1    4    4    0    0  0.68012332972E+01 -0.37308585197E+01 -0.14923467696E+02  0.16819214242E+02  0.00000000000E+00 0. -1.
</event>
<event>
 8    1  0.2531964E-006  0.9118800E+02  0.7816164E-02  0.1184000E+00
        -11   -1    0    0    0    0  0.00000000000E+00  0.00000000000E+00  0.45593999997E+02  0.45594000000E+02  0.51100000000E-03 0. -1.
         11   -1    0    0    0    0 -0.00000000000E+00 -0.00000000000E+00 -0.45593999997E+02  0.45594000000E+02  0.51100000000E-03 0.  1.
         23    2    1    2    0    0  0.00000000000E+00  0.00000000000E+00  0.00000000000E+00  0.91188000000E+02  0.91188000000E+02 0.  0.
    9900012    2    3    3    0    0  0.23225750388E+02  0.23165006575E+02 -0.16725029344E+02  0.54367087229E+02  0.40000006956E+02 0.  0.
         12    1    3    3    0    0 -0.23225750388E+02 -0.23165006575E+02  0.16725029344E+02  0.36820912771E+02  0.00000000000E+00 0. -1.
         11    1    4    4    0    0  0.26491397486E+02  0.10865243353E+02  0.13819301167E+01  0.28666310976E+02  0.51100000000E-03 0. -1.
        -11    1    4    4    0    0 -0.76732139424E+01  0.36162943154E+01 -0.78540715961E+01  0.11560373596E+02  0.51100000000E-03 0.  1.
         12    1    4    4    0    0  0.44075668451E+01  0.86834689066E+01 -0.10252887864E+02  0.14140402657E+02  0.00000000000E+00 0. -1.
</event>
<event>
 8    1  0.2531964E-006  0.9118800E+02  0.7816164E-02  0.1184000E+00
        -11   -1    0    0    0    0  0.00000000000E+00  0.00000000000E+00  0.45593999997E+02  0.45594000000E+02  0.51100000000E-03 0. -1.
         11   -1    0    0    0    0 -0.00000000000E+00 -0.00000000000E+00 -0.45593999997E+02  0.45594000000E+02  0.51100000000E-03 0.  1.
         23    2    1    2    0    0  0.00000000000E+00  0.17763568394E-14 -0.35527136788E-14  0.91188000000E+02  0.91188000000E+02 0.  0.
    9900012    2    3    3    0    0 -0.28944734851E+02  0.10137833462E+02  0.20376619144E+02  0.54367082702E+02  0.39999996636E+02 0.  0.
         12    1    3    3    0    0  0.28944734851E+02 -0.10137833462E+02 -0.20376619144E+02  0.36820917298E+02  0.00000000000E+00 0. -1.
         11    1    4    4    0    0 -0.22585436800E+01 -0.74870675191E+01  0.21752661654E+01  0.81172028890E+01  0.51100000000E-03 0. -1.
        -11    1    4    4    0    0 -0.20681581879E+02 -0.54932692458E+00  0.17498297324E+02  0.27096494212E+02  0.51100000000E-03 0.  1.
         12    1    4    4    0    0 -0.60046092918E+01  0.18174227906E+02  0.70305565446E+00  0.19153385601E+02  0.00000000000E+00 0. -1.
</event>
<event>
 8    1  0.2531964E-006  0.9118800E+02  0.7816164E-02  0.1184000E+00
        -11   -1    0    0    0    0  0.00000000000E+00  0.00000000000E+00  0.45593999997E+02  0.45594000000E+02  0.51100000000E-03 0. -1.
         11   -1    0    0    0    0 -0.00000000000E+00 -0.00000000000E+00 -0.45593999997E+02  0.45594000000E+02  0.51100000000E-03 0.  1.
         23    2    1    2    0    0  0.17763568394E-14 -0.35527136788E-14 -0.35527136788E-14  0.91188000000E+02  0.91188000000E+02 0.  0.
    9900012    2    3    3    0    0  0.93265990369E+01 -0.16511885001E+02 -0.31561865948E+02  0.54367093194E+02  0.40000020555E+02 0.  0.
         12    1    3    3    0    0 -0.93265990369E+01  0.16511885001E+02  0.31561865948E+02  0.36820906806E+02  0.00000000000E+00 0. -1.
         11    1    4    4    0    0 -0.81832802765E+00 -0.16532034034E+02 -0.17676578073E+01  0.16646393737E+02  0.51100000000E-03 0. -1.
        -11    1    4    4    0    0  0.95688202820E+01  0.57105048454E+01 -0.48914251073E+01  0.12169561497E+02  0.51100000000E-03 0.  1.
        -12    1    4    4    0    0  0.57610678254E+00 -0.56903558124E+01 -0.24902783033E+02  0.25551137961E+02  0.00000000000E+00 0.  1.
</event>
<event>
 8    1  0.2531964E-006  0.9118800E+02  0.7816164E-02  0.1184000E+00
        -11   -1    0    0    0    0  0.00000000000E+00  0.00000000000E+00  0.45593999997E+02  0.45594000000E+02  0.51100000000E-03 0. -1.
         11   -1    0    0    0    0 -0.00000000000E+00 -0.00000000000E+00 -0.45593999997E+02  0.45594000000E+02  0.51100000000E-03 0.  1.
         23    2    1    2    0    0  0.00000000000E+00 -0.17763568394E-14  0.17763568394E-14  0.91188000000E+02  0.91188000000E+02 0.  0.
    9900012    2    3    3    0    0 -0.34446674954E+02 -0.89233904197E+01  0.94646639929E+01  0.54367079636E+02  0.39999989646E+02 0.  0.
         12    1    3    3    0    0  0.34446674954E+02  0.89233904197E+01 -0.94646639929E+01  0.36820920364E+02  0.00000000000E+00 0. -1.
         11    1    4    4    0    0 -0.35851946846E+00  0.10800917758E+02 -0.13202817457E+01  0.10887217494E+02  0.51100000000E-03 0. -1.
        -11    1    4    4    0    0 -0.15923090240E+02 -0.56063303056E+01  0.11561051691E+02  0.20460539063E+02  0.51100000000E-03 0.  1.
         12    1    4    4    0    0 -0.18165065245E+02 -0.14117977872E+02 -0.77610595198E+00  0.23019323079E+02  0.00000000000E+00 0. -1.
</event>
<event>
 8    1  0.2531964E-006  0.9118800E+02  0.7816164E-02  0.1184000E+00
        -11   -1    0    0    0    0  0.00000000000E+00  0.00000000000E+00  0.45593999997E+02  0.45594000000E+02  0.51100000000E-03 0.  1.
         11   -1    0    0    0    0 -0.00000000000E+00 -0.00000000000E+00 -0.45593999997E+02  0.45594000000E+02  0.51100000000E-03 0. -1.
         23    2    1    2    0    0  0.00000000000E+00 -0.71054273576E-14 -0.17763568394E-14  0.91188000000E+02  0.91188000000E+02 0.  0.
    9900012    2    3    3    0    0  0.11877997572E+02 -0.31674663986E+02  0.14539929386E+02  0.54367072370E+02  0.39999973082E+02 0.  0.
         12    1    3    3    0    0 -0.11877997572E+02  0.31674663986E+02 -0.14539929386E+02  0.36820927630E+02  0.00000000000E+00 0. -1.
         11    1    4    4    0    0 -0.24827859800E+01 -0.47477792533E+01 -0.82821522742E+01  0.98640600472E+01  0.51100000000E-03 0. -1.
        -11    1    4    4    0    0  0.15300820006E+02 -0.48920500399E+01  0.11107218781E+02  0.19529914382E+02  0.51100000000E-03 0.  1.
        -12    1    4    4    0    0 -0.94003645427E+00 -0.22034834693E+02  0.11714862879E+02  0.24973097941E+02  0.00000000000E+00 0.  1.
</event>
<event>
 8    1  0.2531964E-006  0.9118800E+02  0.7816164E-02  0.1184000E+00
        -11   -1    0    0    0    0  0.00000000000E+00  0.00000000000E+00  0.45593999997E+02  0.45594000000E+02  0.51100000000E-03 0.  1.
         11   -1    0    0    0    0 -0.00000000000E+00 -0.00000000000E+00 -0.45593999997E+02  0.45594000000E+02  0.51100000000E-03 0. -1.
         23    2    1    2    0    0 -0.35527136788E-14 -0.71054273576E-14 -0.17763568394E-14  0.91188000000E+02  0.91188000000E+02 0.  0.
    9900012    2    3    3    0    0  0.27054741892E+02  0.23353614764E+02  0.88560353205E+01  0.54367085522E+02  0.40000003064E+02 0.  0.
        -12    1    3    3    0    0 -0.27054741892E+02 -0.23353614764E+02 -0.88560353205E+01  0.36820914478E+02  0.00000000000E+00 0.  1.
         11    1    4    4    0    0  0.19191361564E+02  0.17487227259E+02 -0.58882638366E+00  0.25970332933E+02  0.51100000000E-03 0.  1.
        -11    1    4    4    0    0 -0.59548138343E+01  0.71608362873E+01  0.11020679429E+02  0.14428886286E+02  0.51100000000E-03 0. -1.
        -12    1    4    4    0    0  0.13818194162E+02 -0.12944487815E+01 -0.15758177245E+01  0.13967866303E+02  0.00000000000E+00 0.  1.
</event>
<event>
 8    1  0.2531964E-006  0.9118800E+02  0.7816164E-02  0.1184000E+00
        -11   -1    0    0    0    0  0.00000000000E+00  0.00000000000E+00  0.45593999997E+02  0.45594000000E+02  0.51100000000E-03 0. -1.
         11   -1    0    0    0    0 -0.00000000000E+00 -0.00000000000E+00 -0.45593999997E+02  0.45594000000E+02  0.51100000000E-03 0.  1.
         23    2    1    2    0    0 -0.35527136788E-14 -0.17763568394E-14  0.35527136788E-14  0.91188000000E+02  0.91188000000E+02 0.  0.
    9900012    2    3    3    0    0  0.24684745573E+02 -0.11521155038E+02 -0.24773099995E+02  0.54367079849E+02  0.39999990131E+02 0.  0.
         12    1    3    3    0    0 -0.24684745573E+02  0.11521155038E+02  0.24773099995E+02  0.36820920151E+02  0.00000000000E+00 0. -1.
         11    1    4    4    0    0 -0.54452286305E+00 -0.96049648467E+01  0.57843543114E-01  0.96205613658E+01  0.51100000000E-03 0. -1.
        -11    1    4    4    0    0 -0.30078057836E+01 -0.16506647067E+01 -0.14143016936E+02  0.14553230498E+02  0.51100000000E-03 0.  1.
        -12    1    4    4    0    0  0.28237074220E+02 -0.26552548463E+00 -0.10687926602E+02  0.30193287985E+02  0.00000000000E+00 0.  1.
</event>
<event>
 8    1  0.2531964E-006  0.9118800E+02  0.7816164E-02  0.1184000E+00
        -11   -1    0    0    0    0  0.00000000000E+00  0.00000000000E+00  0.45593999997E+02  0.45594000000E+02  0.51100000000E-03 0.  1.
         11   -1    0    0    0    0 -0.00000000000E+00 -0.00000000000E+00 -0.45593999997E+02  0.45594000000E+02  0.51100000000E-03 0. -1.
         23    2    1    2    0    0  0.00000000000E+00 -0.71054273576E-14  0.33306690739E-15  0.91188000000E+02  0.91188000000E+02 0.  0.
    9900012    2    3    3    0    0  0.17383839742E+02  0.32446227553E+02  0.90775589864E+00  0.54367087635E+02  0.40000007883E+02 0.  0.
         12    1    3    3    0    0 -0.17383839742E+02 -0.32446227553E+02 -0.90775589864E+00  0.36820912365E+02  0.00000000000E+00 0. -1.
         11    1    4    4    0    0 -0.74508112914E+01  0.20262962251E+02 -0.15589315052E+01  0.21645611467E+02  0.51100000000E-03 0.  1.
        -11    1    4    4    0    0  0.21048936465E+01 -0.26124796267E+01  0.43981326362E+01  0.55316541838E+01  0.51100000000E-03 0. -1.
        -12    1    4    4    0    0  0.22729757387E+02  0.14795744928E+02 -0.19314452323E+01  0.27189821984E+02  0.00000000000E+00 0.  1.
</event>
<event>
 8    1  0.2531964E-006  0.9118800E+02  0.7816164E-02  0.1184000E+00
        -11   -1    0    0    0    0  0.00000000000E+00  0.00000000000E+00  0.45593999997E+02  0.45594000000E+02  0.51100000000E-03 0.  1.
         11   -1    0    0    0    0 -0.00000000000E+00 -0.00000000000E+00 -0.45593999997E+02  0.45594000000E+02  0.51100000000E-03 0. -1.
         23    2    1    2    0    0  0.35527136788E-14 -0.44408920985E-15  0.35527136788E-14  0.91188000000E+02  0.91188000000E+02 0.  0.
    9900012    2    3    3    0    0  0.31049337111E+02  0.26446131357E+01 -0.19614416800E+02  0.54367073069E+02  0.39999974675E+02 0.  0.
         12    1    3    3    0    0 -0.31049337111E+02 -0.26446131357E+01  0.19614416800E+02  0.36820926931E+02  0.00000000000E+00 0. -1.
         11    1    4    4    0    0  0.12831047093E+02  0.14929848305E+02  0.24008113111E+01  0.19831793542E+02  0.51100000000E-03 0. -1.
        -11    1    4    4    0    0  0.13018198734E+02  0.25549200333E+00 -0.10265181101E+02  0.16580492084E+02  0.51100000000E-03 0.  1.
        -12    1    4    4    0    0  0.52000912845E+01 -0.12540727172E+02 -0.11750047010E+02  0.17954787443E+02  0.00000000000E+00 0.  1.
</event>
<event>
 8    1  0.2531964E-006  0.9118800E+02  0.7816164E-02  0.1184000E+00
        -11   -1    0    0    0    0  0.00000000000E+00  0.00000000000E+00  0.45593999997E+02  0.45594000000E+02  0.51100000000E-03 0. -1.
         11   -1    0    0    0    0 -0.00000000000E+00 -0.00000000000E+00 -0.45593999997E+02  0.45594000000E+02  0.51100000000E-03 0.  1.
         23    2    1    2    0    0  0.00000000000E+00 -0.17763568394E-14  0.00000000000E+00  0.91188000000E+02  0.91188000000E+02 0.  0.
    9900012    2    3    3    0    0  0.65193153530E+01 -0.12725379114E+02 -0.33931411439E+02  0.54367116951E+02  0.40000074713E+02 0.  0.
         12    1    3    3    0    0 -0.65193153530E+01  0.12725379114E+02  0.33931411439E+02  0.36820883049E+02  0.00000000000E+00 0. -1.
         11    1    4    4    0    0 -0.89682208923E+01 -0.75853676054E+01  0.33483118132E+01  0.12213843782E+02  0.51100000000E-03 0. -1.
        -11    1    4    4    0    0  0.10805626883E+02 -0.86336634000E+01 -0.26512450985E+02  0.29903373949E+02  0.51100000000E-03 0.  1.
         12    1    4    4    0    0  0.46819093621E+01  0.34936518914E+01 -0.10767272267E+02  0.12249899220E+02  0.00000000000E+00 0. -1.
</event>
<event>
 8    1  0.2531964E-006  0.9118800E+02  0.7816164E-02  0.1184000E+00
        -11   -1    0    0    0    0  0.00000000000E+00  0.00000000000E+00  0.45593999997E+02  0.45594000000E+02  0.51100000000E-03 0.  1.
         11   -1    0    0    0    0 -0.00000000000E+00 -0.00000000000E+00 -0.45593999997E+02  0.45594000000E+02  0.51100000000E-03 0. -1.
         23    2    1    2    0    0  0.00000000000E+00  0.88817841970E-15 -0.71054273576E-14  0.91188000000E+02  0.91188000000E+02 0.  0.
    9900012    2    3    3    0    0  0.20896572059E+02  0.52909060993E+01  0.29851611690E+02  0.54367093824E+02  0.40000021991E+02 0.  0.
         12    1    3    3    0    0 -0.20896572059E+02 -0.52909060993E+01 -0.29851611690E+02  0.36820906176E+02  0.00000000000E+00 0. -1.
         11    1    4    4    0    0 -0.14041583568E+01 -0.34844213866E+01 -0.36936051614E+01  0.52683557625E+01  0.51100000000E-03 0. -1.
        -11    1    4    4    0    0  0.28306705796E+02  0.92085845706E+01  0.26762228126E+02  0.40028545781E+02  0.51100000000E-03 0.  1.
         12    1    4    4    0    0 -0.60059753802E+01 -0.43325708475E+00  0.67829887250E+01  0.90701922808E+01  0.00000000000E+00 0. -1.
</event>
<event>
 8    1  0.2531964E-006  0.9118800E+02  0.7816164E-02  0.1184000E+00
        -11   -1    0    0    0    0  0.00000000000E+00  0.00000000000E+00  0.45593999997E+02  0.45594000000E+02  0.51100000000E-03 0. -1.
         11   -1    0    0    0    0 -0.00000000000E+00 -0.00000000000E+00 -0.45593999997E+02  0.45594000000E+02  0.51100000000E-03 0.  1.
         23    2    1    2    0    0  0.00000000000E+00  0.00000000000E+00 -0.88817841970E-15  0.91188000000E+02  0.91188000000E+02 0.  0.
    9900012    2    3    3    0    0 -0.10539132386E+02 -0.35117528459E+02 -0.33858690041E+01  0.54367106129E+02  0.40000050043E+02 0.  0.
         12    1    3    3    0    0  0.10539132386E+02  0.35117528459E+02  0.33858690041E+01  0.36820893871E+02  0.00000000000E+00 0. -1.
         11    1    4    4    0    0 -0.43536335330E+01 -0.88941151993E+00 -0.11514097942E+02  0.12341783886E+02  0.51100000000E-03 0. -1.
        -11    1    4    4    0    0  0.63045870342E+01 -0.98842374190E+01 -0.35891813960E+01  0.12260839709E+02  0.51100000000E-03 0.  1.
         12    1    4    4    0    0 -0.12490085888E+02 -0.24343879520E+02  0.11717410334E+02  0.29764482534E+02  0.00000000000E+00 0. -1.
</event>
<event>
 8    1  0.2531964E-006  0.9118800E+02  0.7816164E-02  0.1184000E+00
        -11   -1    0    0    0    0  0.00000000000E+00  0.00000000000E+00  0.45593999997E+02  0.45594000000E+02  0.51100000000E-03 0.  1.
         11   -1    0    0    0    0 -0.00000000000E+00 -0.00000000000E+00 -0.45593999997E+02  0.45594000000E+02  0.51100000000E-03 0. -1.
         23    2    1    2    0    0  0.35527136788E-14  0.00000000000E+00  0.00000000000E+00  0.91188000000E+02  0.91188000000E+02 0.  0.
    9900012    2    3    3    0    0  0.25997489461E+02 -0.35692023477E+01 -0.25829659476E+02  0.54367082408E+02  0.39999995965E+02 0.  0.
        -12    1    3    3    0    0 -0.25997489461E+02  0.35692023477E+01  0.25829659476E+02  0.36820917592E+02  0.00000000000E+00 0.  1.
         11    1    4    4    0    0  0.52472604218E+01  0.43209522415E+01 -0.11670282900E+02  0.13505549727E+02  0.51100000000E-03 0. -1.
        -11    1    4    4    0    0 -0.80891042294E+01 -0.33693095188E+01 -0.92933480357E+00  0.88118963513E+01  0.51100000000E-03 0.  1.
        -12    1    4    4    0    0  0.28839333269E+02 -0.45208450704E+01 -0.13230041773E+02  0.32049636329E+02  0.00000000000E+00 0.  1.
</event>
<event>
 8    1  0.2531964E-006  0.9118800E+02  0.7816164E-02  0.1184000E+00
        -11   -1    0    0    0    0  0.00000000000E+00  0.00000000000E+00  0.45593999997E+02  0.45594000000E+02  0.51100000000E-03 0.  1.
         11   -1    0    0    0    0 -0.00000000000E+00 -0.00000000000E+00 -0.45593999997E+02  0.45594000000E+02  0.51100000000E-03 0. -1.
         23    2    1    2    0    0  0.00000000000E+00  0.00000000000E+00 -0.35527136788E-14  0.91188000000E+02  0.91188000000E+02 0.  0.
    9900012    2    3    3    0    0  0.19247417037E+02  0.21056060314E+02  0.23279997456E+02  0.54367095338E+02  0.40000025442E+02 0.  0.
         12    1    3    3    0    0 -0.19247417037E+02 -0.21056060314E+02 -0.23279997456E+02  0.36820904662E+02  0.00000000000E+00 0. -1.
         11    1    4    4    0    0  0.19733202851E+01  0.67711798608E+01 -0.60465253163E+01  0.92899590051E+01  0.51100000000E-03 0. -1.
        -11    1    4    4    0    0  0.83232943676E+01  0.17954186477E+02  0.74292088145E+01  0.21138192568E+02  0.51100000000E-03 0.  1.
        -12    1    4    4    0    0  0.89508023845E+01 -0.36693060233E+01  0.21897313958E+02  0.23938943765E+02  0.00000000000E+00 0.  1.
</event>
<event>
 8    1  0.2531964E-006  0.9118800E+02  0.7816164E-02  0.1184000E+00
        -11   -1    0    0    0    0  0.00000000000E+00  0.00000000000E+00  0.45593999997E+02  0.45594000000E+02  0.51100000000E-03 0.  1.
         11   -1    0    0    0    0 -0.00000000000E+00 -0.00000000000E+00 -0.45593999997E+02  0.45594000000E+02  0.51100000000E-03 0. -1.
         23    2    1    2    0    0  0.71054273576E-14 -0.22204460493E-14  0.35527136788E-14  0.91188000000E+02  0.91188000000E+02 0.  0.
    9900012    2    3    3    0    0  0.30613627521E+02 -0.26304460684E+01  0.20289555548E+02  0.54367088811E+02  0.40000010562E+02 0.  0.
        -12    1    3    3    0    0 -0.30613627521E+02  0.26304460684E+01 -0.20289555548E+02  0.36820911189E+02  0.00000000000E+00 0.  1.
         11    1    4    4    0    0 -0.71506395205E+00  0.38472119897E+01  0.31350377009E+01  0.50140620456E+01  0.51100000000E-03 0. -1.
        -11    1    4    4    0    0  0.37927181360E+00  0.10760078406E+02  0.27654235346E+01  0.11116235964E+02  0.51100000000E-03 0.  1.
         12    1    4    4    0    0  0.30949419659E+02 -0.17237736465E+02  0.14389094312E+02  0.38236790801E+02  0.00000000000E+00 0. -1.
</event>
<event>
 8    1  0.2531964E-006  0.9118800E+02  0.7816164E-02  0.1184000E+00
        -11   -1    0    0    0    0  0.00000000000E+00  0.00000000000E+00  0.45593999997E+02  0.45594000000E+02  0.51100000000E-03 0. -1.
         11   -1    0    0    0    0 -0.00000000000E+00 -0.00000000000E+00 -0.45593999997E+02  0.45594000000E+02  0.51100000000E-03 0.  1.
         23    2    1    2    0    0  0.00000000000E+00  0.35527136788E-14  0.35527136788E-14  0.91188000000E+02  0.91188000000E+02 0.  0.
    9900012    2    3    3    0    0  0.23109077039E+02  0.18988278894E+02  0.21475461375E+02  0.54367087217E+02  0.40000006928E+02 0.  0.
        -12    1    3    3    0    0 -0.23109077039E+02 -0.18988278894E+02 -0.21475461375E+02  0.36820912783E+02  0.00000000000E+00 0.  1.
         11    1    4    4    0    0 -0.23660478528E+01 -0.11993619167E+01 -0.29031853443E+01  0.39325738205E+01  0.51100000000E-03 0. -1.
        -11    1    4    4    0    0  0.12421806021E+02 -0.24540765817E+01 -0.25418567007E+01  0.12914518669E+02  0.51100000000E-03 0.  1.
         12    1    4    4    0    0  0.13053318870E+02  0.22641717392E+02  0.26920503420E+02  0.37519994728E+02  0.00000000000E+00 0. -1.
</event>
<event>
 8    1  0.2531964E-006  0.9118800E+02  0.7816164E-02  0.1184000E+00
        -11   -1    0    0    0    0  0.00000000000E+00  0.00000000000E+00  0.45593999997E+02  0.45594000000E+02  0.51100000000E-03 0. -1.
         11   -1    0    0    0    0 -0.00000000000E+00 -0.00000000000E+00 -0.45593999997E+02  0.45594000000E+02  0.51100000000E-03 0.  1.
         23    2    1    2    0    0  0.17763568394E-14 -0.22204460493E-15  0.00000000000E+00  0.91188000000E+02  0.91188000000E+02 0.  0.
    9900012    2    3    3    0    0 -0.12238560176E+02  0.82559676261E+00 -0.34717619281E+02  0.54367122040E+02  0.40000086315E+02 0.  0.
         12    1    3    3    0    0  0.12238560176E+02 -0.82559676261E+00  0.34717619281E+02  0.36820877960E+02  0.00000000000E+00 0. -1.
         11    1    4    4    0    0  0.58436106667E+01  0.47780455084E+01  0.55373214542E+01  0.93615935424E+01  0.51100000000E-03 0. -1.
        -11    1    4    4    0    0 -0.11130962776E+02  0.10844923117E+01 -0.18493241961E+02  0.21611905385E+02  0.51100000000E-03 0.  1.
         12    1    4    4    0    0 -0.69512080674E+01 -0.50369410575E+01 -0.21761698774E+02  0.23393623113E+02  0.00000000000E+00 0. -1.
</event>
<event>
 8    1  0.2531964E-006  0.9118800E+02  0.7816164E-02  0.1184000E+00
        -11   -1    0    0    0    0  0.00000000000E+00  0.00000000000E+00  0.45593999997E+02  0.45594000000E+02  0.51100000000E-03 0.  1.
         11   -1    0    0    0    0 -0.00000000000E+00 -0.00000000000E+00 -0.45593999997E+02  0.45594000000E+02  0.51100000000E-03 0. -1.
         23    2    1    2    0    0 -0.88817841970E-15  0.00000000000E+00  0.00000000000E+00  0.91188000000E+02  0.91188000000E+02 0.  0.
    9900012    2    3    3    0    0 -0.67307657165E+01  0.23901194164E+02  0.27188410186E+02  0.54367082874E+02  0.39999997028E+02 0.  0.
         12    1    3    3    0    0  0.67307657165E+01 -0.23901194164E+02 -0.27188410186E+02  0.36820917126E+02  0.00000000000E+00 0. -1.
         11    1    4    4    0    0  0.64319988512E+01  0.93193485393E+01 -0.17164576459E+01  0.11452820331E+02  0.51100000000E-03 0. -1.
        -11    1    4    4    0    0  0.50757373642E+01  0.67983721775E+01  0.18870656506E+02  0.20690158320E+02  0.51100000000E-03 0.  1.
        -12    1    4    4    0    0 -0.18238501932E+02  0.77834734469E+01  0.10034211325E+02  0.22224104223E+02  0.00000000000E+00 0.  1.
</event>
<event>
 8    1  0.2531964E-006  0.9118800E+02  0.7816164E-02  0.1184000E+00
        -11   -1    0    0    0    0  0.00000000000E+00  0.00000000000E+00  0.45593999997E+02  0.45594000000E+02  0.51100000000E-03 0.  1.
         11   -1    0    0    0    0 -0.00000000000E+00 -0.00000000000E+00 -0.45593999997E+02  0.45594000000E+02  0.51100000000E-03 0. -1.
         23    2    1    2    0    0  0.00000000000E+00  0.00000000000E+00 -0.35527136788E-14  0.91188000000E+02  0.91188000000E+02 0.  0.
    9900012    2    3    3    0    0  0.18243428355E+02 -0.22535204218E+02 -0.22696562202E+02  0.54366918497E+02  0.39999622295E+02 0.  0.
        -12    1    3    3    0    0 -0.18243428355E+02  0.22535204218E+02  0.22696562202E+02  0.36821081503E+02  0.00000000000E+00 0.  1.
         11    1    4    4    0    0  0.42321787303E+01 -0.79549810305E+01 -0.13872783910E+01  0.91168855206E+01  0.51100000000E-03 0. -1.
        -11    1    4    4    0    0 -0.66613025674E+00  0.17580355961E+01  0.82292206067E+01  0.84412375119E+01  0.51100000000E-03 0.  1.
         12    1    4    4    0    0  0.14677379881E+02 -0.16338258784E+02 -0.29538504418E+02  0.36808795464E+02  0.00000000000E+00 0. -1.
</event>
<event>
 8    1  0.2531964E-006  0.9118800E+02  0.7816164E-02  0.1184000E+00
        -11   -1    0    0    0    0  0.00000000000E+00  0.00000000000E+00  0.45593999997E+02  0.45594000000E+02  0.51100000000E-03 0.  1.
         11   -1    0    0    0    0 -0.00000000000E+00 -0.00000000000E+00 -0.45593999997E+02  0.45594000000E+02  0.51100000000E-03 0. -1.
         23    2    1    2    0    0 -0.35527136788E-14  0.00000000000E+00  0.00000000000E+00  0.91188000000E+02  0.91188000000E+02 0.  0.
    9900012    2    3    3    0    0  0.21443943622E+02  0.93120482784E+01  0.28446840020E+02  0.54367086535E+02  0.40000005375E+02 0.  0.
         12    1    3    3    0    0 -0.21443943622E+02 -0.93120482784E+01 -0.28446840020E+02  0.36820913465E+02  0.00000000000E+00 0. -1.
         11    1    4    4    0    0  0.21684756950E+02  0.73000353244E+01  0.12719239155E+02  0.26178201708E+02  0.51100000000E-03 0. -1.
        -11    1    4    4    0    0  0.63921663734E+01  0.24552643926E+01  0.19414848855E+02  0.20586997608E+02  0.51100000000E-03 0.  1.
         12    1    4    4    0    0 -0.66329797009E+01 -0.44325143868E+00 -0.36872479904E+01  0.76018872192E+01  0.00000000000E+00 0. -1.
</event>
<event>
 8    1  0.2531964E-006  0.9118800E+02  0.7816164E-02  0.1184000E+00
        -11   -1    0    0    0    0  0.00000000000E+00  0.00000000000E+00  0.45593999997E+02  0.45594000000E+02  0.51100000000E-03 0. -1.
         11   -1    0    0    0    0 -0.00000000000E+00 -0.00000000000E+00 -0.45593999997E+02  0.45594000000E+02  0.51100000000E-03 0.  1.
         23    2    1    2    0    0  0.17763568394E-14  0.71054273576E-14 -0.23592239273E-15  0.91188000000E+02  0.91188000000E+02 0.  0.
    9900012    2    3    3    0    0  0.93431752549E+01  0.35615726601E+02  0.66891518275E-01  0.54367090456E+02  0.40000014313E+02 0.  0.
         12    1    3    3    0    0 -0.93431752549E+01 -0.35615726601E+02 -0.66891518275E-01  0.36820909544E+02  0.00000000000E+00 0. -1.
         11    1    4    4    0    0  0.93503084622E+01  0.23260429489E+02 -0.16206760689E+02  0.29851883369E+02  0.51100000000E-03 0.  1.
        -11    1    4    4    0    0 -0.18962942137E+01 -0.24581910103E+01  0.46502051312E+01  0.55913364065E+01  0.51100000000E-03 0. -1.
        -12    1    4    4    0    0  0.18891610065E+01  0.14813488122E+02  0.11623447076E+02  0.18923870681E+02  0.00000000000E+00 0.  1.
</event>
<event>
 8    1  0.2531964E-006  0.9118800E+02  0.7816164E-02  0.1184000E+00
        -11   -1    0    0    0    0  0.00000000000E+00  0.00000000000E+00  0.45593999997E+02  0.45594000000E+02  0.51100000000E-03 0. -1.
         11   -1    0    0    0    0 -0.00000000000E+00 -0.00000000000E+00 -0.45593999997E+02  0.45594000000E+02  0.51100000000E-03 0.  1.
         23    2    1    2    0    0  0.35527136788E-14  0.35527136788E-14 -0.17763568394E-14  0.91188000000E+02  0.91188000000E+02 0.  0.
    9900012    2    3    3    0    0 -0.17316608580E+02 -0.29384761177E+02  0.13872654437E+02  0.54367086605E+02  0.40000005532E+02 0.  0.
        -12    1    3    3    0    0  0.17316608580E+02  0.29384761177E+02 -0.13872654437E+02  0.36820913395E+02  0.00000000000E+00 0.  1.
         11    1    4    4    0    0 -0.12214300183E+01 -0.11738768484E+02  0.16436057155E+02  0.20234489167E+02  0.51100000000E-03 0. -1.
        -11    1    4    4    0    0 -0.93391431069E+01  0.43586823935E+01  0.24071637087E+01  0.10583578958E+02  0.51100000000E-03 0.  1.
         12    1    4    4    0    0 -0.67560354548E+01 -0.22004675087E+02 -0.49705664263E+01  0.23549018480E+02  0.00000000000E+00 0. -1.
</event>
<event>
 8    1  0.2531964E-006  0.9118800E+02  0.7816164E-02  0.1184000E+00
        -11   -1    0    0    0    0  0.00000000000E+00  0.00000000000E+00  0.45593999997E+02  0.45594000000E+02  0.51100000000E-03 0.  1.
         11   -1    0    0    0    0 -0.00000000000E+00 -0.00000000000E+00 -0.45593999997E+02  0.45594000000E+02  0.51100000000E-03 0. -1.
         23    2    1    2    0    0  0.00000000000E+00  0.00000000000E+00  0.00000000000E+00  0.91188000000E+02  0.91188000000E+02 0.  0.
    9900012    2    3    3    0    0  0.16908268472E+02  0.25268045559E+01  0.32611440643E+02  0.54367077350E+02  0.39999984435E+02 0.  0.
         12    1    3    3    0    0 -0.16908268472E+02 -0.25268045559E+01 -0.32611440643E+02  0.36820922650E+02  0.00000000000E+00 0. -1.
         11    1    4    4    0    0  0.28755649712E+00 -0.24324532607E+01  0.15903963111E+01  0.29204243342E+01  0.51100000000E-03 0. -1.
        -11    1    4    4    0    0 -0.14966529068E+01 -0.11646428923E+01  0.32228470548E+02  0.32284217152E+02  0.51100000000E-03 0.  1.
        -12    1    4    4    0    0  0.18117364882E+02  0.61239007089E+01 -0.12074262163E+01  0.19162435864E+02  0.00000000000E+00 0.  1.
</event>
<event>
 8    1  0.2531964E-006  0.9118800E+02  0.7816164E-02  0.1184000E+00
        -11   -1    0    0    0    0  0.00000000000E+00  0.00000000000E+00  0.45593999997E+02  0.45594000000E+02  0.51100000000E-03 0.  1.
         11   -1    0    0    0    0 -0.00000000000E+00 -0.00000000000E+00 -0.45593999997E+02  0.45594000000E+02  0.51100000000E-03 0. -1.
         23    2    1    2    0    0  0.00000000000E+00  0.00000000000E+00  0.88817841970E-15  0.91188000000E+02  0.91188000000E+02 0.  0.
    9900012    2    3    3    0    0  0.28362138747E+02  0.23156108300E+02  0.38939457293E+01  0.54367094535E+02  0.40000023611E+02 0.  0.
        -12    1    3    3    0    0 -0.28362138747E+02 -0.23156108300E+02 -0.38939457293E+01  0.36820905465E+02  0.00000000000E+00 0.  1.
         11    1    4    4    0    0  0.42641538994E+01  0.24326255640E+02  0.21514503829E+00  0.24698097287E+02  0.51100000000E-03 0. -1.
        -11    1    4    4    0    0 -0.25248865251E+01  0.86183906316E+00  0.93963288676E+00  0.28285559493E+01  0.51100000000E-03 0.  1.
         12    1    4    4    0    0  0.26622871373E+02 -0.20319864028E+01  0.27391678043E+01  0.26840441299E+02  0.00000000000E+00 0. -1.
</event>
<event>
 8    1  0.2531964E-006  0.9118800E+02  0.7816164E-02  0.1184000E+00
        -11   -1    0    0    0    0  0.00000000000E+00  0.00000000000E+00  0.45593999997E+02  0.45594000000E+02  0.51100000000E-03 0.  1.
         11   -1    0    0    0    0 -0.00000000000E+00 -0.00000000000E+00 -0.45593999997E+02  0.45594000000E+02  0.51100000000E-03 0. -1.
         23    2    1    2    0    0 -0.13322676296E-14 -0.35527136788E-14  0.71054273576E-14  0.91188000000E+02  0.91188000000E+02 0.  0.
    9900012    2    3    3    0    0  0.33903403437E+01  0.22318689341E+02 -0.29088863227E+02  0.54367078428E+02  0.39999986893E+02 0.  0.
        -12    1    3    3    0    0 -0.33903403437E+01 -0.22318689341E+02  0.29088863227E+02  0.36820921572E+02  0.00000000000E+00 0.  1.
         11    1    4    4    0    0 -0.45023087442E+01 -0.98083772069E+01 -0.13806322071E+02  0.17523971492E+02  0.51100000000E-03 0.  1.
        -11    1    4    4    0    0  0.79931448400E+01  0.30479362340E+02 -0.15602938159E+02  0.35161535412E+02  0.51100000000E-03 0. -1.
         12    1    4    4    0    0 -0.10049575214E+00  0.16477042074E+01  0.32039700249E+00  0.16815715241E+01  0.00000000000E+00 0. -1.
</event>
<event>
 8    1  0.2531964E-006  0.9118800E+02  0.7816164E-02  0.1184000E+00
        -11   -1    0    0    0    0  0.00000000000E+00  0.00000000000E+00  0.45593999997E+02  0.45594000000E+02  0.51100000000E-03 0. -1.
         11   -1    0    0    0    0 -0.00000000000E+00 -0.00000000000E+00 -0.45593999997E+02  0.45594000000E+02  0.51100000000E-03 0.  1.
         23    2    1    2    0    0 -0.17763568394E-14  0.17763568394E-14  0.00000000000E+00  0.91188000000E+02  0.91188000000E+02 0.  0.
    9900012    2    3    3    0    0 -0.12082144552E+02  0.15360325607E+02  0.31206742813E+02  0.54367100816E+02  0.40000037929E+02 0.  0.
        -12    1    3    3    0    0  0.12082144552E+02 -0.15360325607E+02 -0.31206742813E+02  0.36820899184E+02  0.00000000000E+00 0.  1.
         11    1    4    4    0    0 -0.13370266507E+02  0.92711500856E+01  0.24581555433E+02  0.29478316067E+02  0.51100000000E-03 0. -1.
        -11    1    4    4    0    0  0.10562146852E+02 -0.32806164784E+00  0.83652674493E+01  0.13477546896E+02  0.51100000000E-03 0.  1.
         12    1    4    4    0    0 -0.92740248977E+01  0.64172371690E+01 -0.17400800693E+01  0.11411237853E+02  0.00000000000E+00 0. -1.
</event>
<event>
 8    1  0.2531964E-006  0.9118800E+02  0.7816164E-02  0.1184000E+00
        -11   -1    0    0    0    0  0.00000000000E+00  0.00000000000E+00  0.45593999997E+02  0.45594000000E+02  0.51100000000E-03 0. -1.
         11   -1    0    0    0    0 -0.00000000000E+00 -0.00000000000E+00 -0.45593999997E+02  0.45594000000E+02  0.51100000000E-03 0.  1.
         23    2    1    2    0    0  0.00000000000E+00  0.00000000000E+00 -0.88817841970E-15  0.91188000000E+02  0.91188000000E+02 0.  0.
    9900012    2    3    3    0    0  0.24670080457E+02  0.27330590706E+02  0.45469064266E+00  0.54367071146E+02  0.39999970292E+02 0.  0.
         12    1    3    3    0    0 -0.24670080457E+02 -0.27330590706E+02 -0.45469064266E+00  0.36820928854E+02  0.00000000000E+00 0. -1.
         11    1    4    4    0    0 -0.62012187818E+00  0.77329356120E+01  0.11597526825E+02  0.13952973627E+02  0.51100000000E-03 0. -1.
        -11    1    4    4    0    0  0.19254504186E+02  0.17499841024E+02  0.16949247964E+01  0.26073993511E+02  0.51100000000E-03 0.  1.
         12    1    4    4    0    0  0.60356981492E+01  0.20978140697E+01 -0.12837760978E+02  0.14340104008E+02  0.00000000000E+00 0. -1.
</event>
<event>
 8    1  0.2531964E-006  0.9118800E+02  0.7816164E-02  0.1184000E+00
        -11   -1    0    0    0    0  0.00000000000E+00  0.00000000000E+00  0.45593999997E+02  0.45594000000E+02  0.51100000000E-03 0.  1.
         11   -1    0    0    0    0 -0.00000000000E+00 -0.00000000000E+00 -0.45593999997E+02  0.45594000000E+02  0.51100000000E-03 0. -1.
         23    2    1    2    0    0  0.00000000000E+00 -0.35527136788E-14  0.00000000000E+00  0.91188000000E+02  0.91188000000E+02 0.  0.
    9900012    2    3    3    0    0  0.19550009747E+02  0.21010799883E+02  0.23067782244E+02  0.54367093297E+02  0.40000020788E+02 0.  0.
         12    1    3    3    0    0 -0.19550009747E+02 -0.21010799883E+02 -0.23067782244E+02  0.36820906703E+02  0.00000000000E+00 0. -1.
         11    1    4    4    0    0  0.10455335001E+00  0.62608026057E+01 -0.14966141402E+01  0.64380458850E+01  0.51100000000E-03 0. -1.
        -11    1    4    4    0    0  0.27704136159E+01 -0.27209579929E+00  0.25320049402E+02  0.25472615290E+02  0.51100000000E-03 0.  1.
        -12    1    4    4    0    0  0.16675042781E+02  0.15022093076E+02 -0.75565301824E+00  0.22456432121E+02  0.00000000000E+00 0.  1.
</event>
<event>
 8    1  0.2531964E-006  0.9118800E+02  0.7816164E-02  0.1184000E+00
        -11   -1    0    0    0    0  0.00000000000E+00  0.00000000000E+00  0.45593999997E+02  0.45594000000E+02  0.51100000000E-03 0. -1.
         11   -1    0    0    0    0 -0.00000000000E+00 -0.00000000000E+00 -0.45593999997E+02  0.45594000000E+02  0.51100000000E-03 0.  1.
         23    2    1    2    0    0  0.17763568394E-14 -0.88817841970E-15  0.00000000000E+00  0.91188000000E+02  0.91188000000E+02 0.  0.
    9900012    2    3    3    0    0 -0.12410578490E+02 -0.23205916950E+01 -0.34588619124E+02  0.54367079626E+02  0.39999989624E+02 0.  0.
         12    1    3    3    0    0  0.12410578490E+02  0.23205916950E+01  0.34588619124E+02  0.36820920374E+02  0.00000000000E+00 0. -1.
         11    1    4    4    0    0 -0.10504109509E+02 -0.13382167081E+02 -0.19962112139E+02  0.26227936131E+02  0.51100000000E-03 0. -1.
        -11    1    4    4    0    0  0.95920868880E+00  0.13583140360E+01 -0.17533539607E+02  0.17612214788E+02  0.51100000000E-03 0.  1.
        -12    1    4    4    0    0 -0.28656776693E+01  0.97032613503E+01  0.29070326222E+01  0.10526928707E+02  0.00000000000E+00 0.  1.
</event>
<event>
 8    1  0.2531964E-006  0.9118800E+02  0.7816164E-02  0.1184000E+00
        -11   -1    0    0    0    0  0.00000000000E+00  0.00000000000E+00  0.45593999997E+02  0.45594000000E+02  0.51100000000E-03 0.  1.
         11   -1    0    0    0    0 -0.00000000000E+00 -0.00000000000E+00 -0.45593999997E+02  0.45594000000E+02  0.51100000000E-03 0. -1.
         23    2    1    2    0    0  0.00000000000E+00  0.17763568394E-14 -0.35527136788E-14  0.91188000000E+02  0.91188000000E+02 0.  0.
    9900012    2    3    3    0    0 -0.32060417867E+02 -0.14466972305E+02  0.10890974804E+02  0.54367122584E+02  0.40000087556E+02 0.  0.
        -12    1    3    3    0    0  0.32060417867E+02  0.14466972305E+02 -0.10890974804E+02  0.36820877416E+02  0.00000000000E+00 0.  1.
         11    1    4    4    0    0 -0.13171187443E+01 -0.57847943053E+01  0.14048868842E+02  0.15250225013E+02  0.51100000000E-03 0. -1.
        -11    1    4    4    0    0 -0.35098209790E+01 -0.32016279738E+01 -0.95009198950E+01  0.10622464126E+02  0.51100000000E-03 0.  1.
         12    1    4    4    0    0 -0.27233478144E+02 -0.54805500256E+01  0.63430258568E+01  0.28494433446E+02  0.00000000000E+00 0. -1.
</event>
<event>
 8    1  0.2531964E-006  0.9118800E+02  0.7816164E-02  0.1184000E+00
        -11   -1    0    0    0    0  0.00000000000E+00  0.00000000000E+00  0.45593999997E+02  0.45594000000E+02  0.51100000000E-03 0.  1.
         11   -1    0    0    0    0 -0.00000000000E+00 -0.00000000000E+00 -0.45593999997E+02  0.45594000000E+02  0.51100000000E-03 0. -1.
         23    2    1    2    0    0 -0.71054273576E-14  0.00000000000E+00  0.00000000000E+00  0.91188000000E+02  0.91188000000E+02 0.  0.
    9900012    2    3    3    0    0 -0.35855576613E+02 -0.58510978763E+01 -0.59934436742E+01  0.54367094421E+02  0.40000023351E+02 0.  0.
         12    1    3    3    0    0  0.35855576613E+02  0.58510978763E+01  0.59934436742E+01  0.36820905579E+02  0.00000000000E+00 0. -1.
         11    1    4    4    0    0 -0.16280634132E+02 -0.11394819472E+02 -0.16869073790E+02  0.26066580315E+02  0.51100000000E-03 0. -1.
        -11    1    4    4    0    0 -0.11583524387E+02  0.65592193151E+00 -0.25989539440E+01  0.11889610282E+02  0.51100000000E-03 0.  1.
        -12    1    4    4    0    0 -0.79914180945E+01  0.48877996639E+01  0.13474584060E+02  0.16410903823E+02  0.00000000000E+00 0.  1.
</event>
<event>
 8    1  0.2531964E-006  0.9118800E+02  0.7816164E-02  0.1184000E+00
        -11   -1    0    0    0    0  0.00000000000E+00  0.00000000000E+00  0.45593999997E+02  0.45594000000E+02  0.51100000000E-03 0.  1.
         11   -1    0    0    0    0 -0.00000000000E+00 -0.00000000000E+00 -0.45593999997E+02  0.45594000000E+02  0.51100000000E-03 0. -1.
         23    2    1    2    0    0 -0.17763568394E-14  0.17763568394E-14  0.00000000000E+00  0.91188000000E+02  0.91188000000E+02 0.  0.
    9900012    2    3    3    0    0 -0.63897089267E+01  0.11222816024E+02 -0.34481854141E+02  0.54367105868E+02  0.40000049447E+02 0.  0.
        -12    1    3    3    0    0  0.63897089267E+01 -0.11222816024E+02  0.34481854141E+02  0.36820894132E+02  0.00000000000E+00 0.  1.
         11    1    4    4    0    0 -0.33847512527E+01  0.21056595721E+02 -0.23679216299E+02  0.31867570494E+02  0.51100000000E-03 0. -1.
        -11    1    4    4    0    0  0.53387800847E+01  0.10697145975E+01 -0.77930899514E+00  0.55003804309E+01  0.51100000000E-03 0.  1.
        -12    1    4    4    0    0 -0.83437377588E+01 -0.10903494294E+02 -0.10023328847E+02  0.16999154943E+02  0.00000000000E+00 0.  1.
</event>
<event>
 8    1  0.2531964E-006  0.9118800E+02  0.7816164E-02  0.1184000E+00
        -11   -1    0    0    0    0  0.00000000000E+00  0.00000000000E+00  0.45593999997E+02  0.45594000000E+02  0.51100000000E-03 0.  1.
         11   -1    0    0    0    0 -0.00000000000E+00 -0.00000000000E+00 -0.45593999997E+02  0.45594000000E+02  0.51100000000E-03 0. -1.
         23    2    1    2    0    0 -0.17763568394E-14  0.00000000000E+00  0.00000000000E+00  0.91188000000E+02  0.91188000000E+02 0.  0.
    9900012    2    3    3    0    0 -0.91744068020E+01  0.22826169513E+02 -0.27396637731E+02  0.54367088635E+02  0.40000010160E+02 0.  0.
        -12    1    3    3    0    0  0.91744068020E+01 -0.22826169513E+02  0.27396637731E+02  0.36820911365E+02  0.00000000000E+00 0.  1.
         11    1    4    4    0    0 -0.11939708246E+02  0.61582650707E+01 -0.12550233392E+02  0.18384483134E+02  0.51100000000E-03 0. -1.
        -11    1    4    4    0    0  0.11795295575E+02  0.12118914945E+02  0.12677871617E+01  0.16958902727E+02  0.51100000000E-03 0.  1.
        -12    1    4    4    0    0 -0.90299941318E+01  0.45489894975E+01 -0.16114191501E+02  0.19023702773E+02  0.00000000000E+00 0.  1.
</event>
<event>
 8    1  0.2531964E-006  0.9118800E+02  0.7816164E-02  0.1184000E+00
        -11   -1    0    0    0    0  0.00000000000E+00  0.00000000000E+00  0.45593999997E+02  0.45594000000E+02  0.51100000000E-03 0.  1.
         11   -1    0    0    0    0 -0.00000000000E+00 -0.00000000000E+00 -0.45593999997E+02  0.45594000000E+02  0.51100000000E-03 0. -1.
         23    2    1    2    0    0  0.00000000000E+00 -0.44408920985E-15  0.00000000000E+00  0.91188000000E+02  0.91188000000E+02 0.  0.
    9900012    2    3    3    0    0  0.15492550355E+02  0.21840173810E+01 -0.33331537713E+02  0.54367075858E+02  0.39999981033E+02 0.  0.
        -12    1    3    3    0    0 -0.15492550355E+02 -0.21840173810E+01  0.33331537713E+02  0.36820924142E+02  0.00000000000E+00 0.  1.
         11    1    4    4    0    0 -0.12604554276E+01  0.54894776838E+01  0.31328773095E+01  0.64450006690E+01  0.51100000000E-03 0. -1.
        -11    1    4    4    0    0 -0.46148252713E+01 -0.74036542808E+01 -0.64421116924E+01  0.10844884154E+02  0.51100000000E-03 0.  1.
         12    1    4    4    0    0  0.21367831053E+02  0.40981939780E+01 -0.30022303330E+02  0.37077191035E+02  0.00000000000E+00 0. -1.
</event>
<event>
 8    1  0.2531964E-006  0.9118800E+02  0.7816164E-02  0.1184000E+00
        -11   -1    0    0    0    0  0.00000000000E+00  0.00000000000E+00  0.45593999997E+02  0.45594000000E+02  0.51100000000E-03 0.  1.
         11   -1    0    0    0    0 -0.00000000000E+00 -0.00000000000E+00 -0.45593999997E+02  0.45594000000E+02  0.51100000000E-03 0. -1.
         23    2    1    2    0    0 -0.12767564783E-14  0.00000000000E+00 -0.35527136788E-14  0.91188000000E+02  0.91188000000E+02 0.  0.
    9900012    2    3    3    0    0 -0.37732260324E+00 -0.26467291039E+02 -0.25595238672E+02  0.54367134856E+02  0.40000115531E+02 0.  0.
        -12    1    3    3    0    0  0.37732260324E+00  0.26467291039E+02  0.25595238672E+02  0.36820865144E+02  0.00000000000E+00 0.  1.
         11    1    4    4    0    0  0.30424055170E+01 -0.25109337447E+02 -0.27132458577E+02  0.37093198393E+02  0.51100000000E-03 0. -1.
        -11    1    4    4    0    0 -0.99527333994E+01 -0.28484128798E+00 -0.13561685502E+01  0.10048742711E+02  0.51100000000E-03 0.  1.
         12    1    4    4    0    0  0.65330052791E+01 -0.10731123046E+01  0.28933884552E+01  0.72251937516E+01  0.00000000000E+00 0. -1.
</event>
<event>
 8    1  0.2531964E-006  0.9118800E+02  0.7816164E-02  0.1184000E+00
        -11   -1    0    0    0    0  0.00000000000E+00  0.00000000000E+00  0.45593999997E+02  0.45594000000E+02  0.51100000000E-03 0. -1.
         11   -1    0    0    0    0 -0.00000000000E+00 -0.00000000000E+00 -0.45593999997E+02  0.45594000000E+02  0.51100000000E-03 0.  1.
         23    2    1    2    0    0  0.00000000000E+00 -0.17763568394E-14 -0.35527136788E-14  0.91188000000E+02  0.91188000000E+02 0.  0.
    9900012    2    3    3    0    0  0.23122683795E+02 -0.10354287777E+02 -0.26719085985E+02  0.54367091033E+02  0.40000015628E+02 0.  0.
         12    1    3    3    0    0 -0.23122683795E+02  0.10354287777E+02  0.26719085985E+02  0.36820908967E+02  0.00000000000E+00 0. -1.
         11    1    4    4    0    0  0.18371234805E+02 -0.58490030083E+01 -0.43136413908E+01  0.19756533268E+02  0.51100000000E-03 0. -1.
        -11    1    4    4    0    0  0.15052309212E+02 -0.36694775556E+01 -0.98944345437E+01  0.18383060500E+02  0.51100000000E-03 0.  1.
        -12    1    4    4    0    0 -0.10300860222E+02 -0.83580721279E+00 -0.12511010051E+02  0.16227497265E+02  0.00000000000E+00 0.  1.
</event>
<event>
 8    1  0.2531964E-006  0.9118800E+02  0.7816164E-02  0.1184000E+00
        -11   -1    0    0    0    0  0.00000000000E+00  0.00000000000E+00  0.45593999997E+02  0.45594000000E+02  0.51100000000E-03 0. -1.
         11   -1    0    0    0    0 -0.00000000000E+00 -0.00000000000E+00 -0.45593999997E+02  0.45594000000E+02  0.51100000000E-03 0.  1.
         23    2    1    2    0    0  0.00000000000E+00  0.00000000000E+00  0.00000000000E+00  0.91188000000E+02  0.91188000000E+02 0.  0.
    9900012    2    3    3    0    0 -0.12951981204E+02 -0.31779518080E+02  0.13344943900E+02  0.54367094060E+02  0.40000022529E+02 0.  0.
        -12    1    3    3    0    0  0.12951981204E+02  0.31779518080E+02 -0.13344943900E+02  0.36820905940E+02  0.00000000000E+00 0.  1.
         11    1    4    4    0    0 -0.19156139691E+02 -0.19551764530E+02  0.27122010102E+01  0.27506094210E+02  0.51100000000E-03 0. -1.
        -11    1    4    4    0    0 -0.43433665843E+00 -0.12626727396E+02  0.14448766380E+02  0.19193481790E+02  0.51100000000E-03 0.  1.
        -12    1    4    4    0    0  0.66384951450E+01  0.39897384625E+00 -0.38160234902E+01  0.76675180598E+01  0.00000000000E+00 0.  1.
</event>
<event>
 8    1  0.2531964E-006  0.9118800E+02  0.7816164E-02  0.1184000E+00
        -11   -1    0    0    0    0  0.00000000000E+00  0.00000000000E+00  0.45593999997E+02  0.45594000000E+02  0.51100000000E-03 0. -1.
         11   -1    0    0    0    0 -0.00000000000E+00 -0.00000000000E+00 -0.45593999997E+02  0.45594000000E+02  0.51100000000E-03 0.  1.
         23    2    1    2    0    0  0.00000000000E+00  0.22204460493E-15  0.00000000000E+00  0.91188000000E+02  0.91188000000E+02 0.  0.
    9900012    2    3    3    0    0  0.35661966708E+02  0.56593945939E+00  0.91478792674E+01  0.54367084041E+02  0.39999999688E+02 0.  0.
        -12    1    3    3    0    0 -0.35661966708E+02 -0.56593945939E+00 -0.91478792674E+01  0.36820915959E+02  0.00000000000E+00 0.  1.
         11    1    4    4    0    0 -0.25492005733E+01 -0.37063465067E+01  0.72822041265E+01  0.85595516934E+01  0.51100000000E-03 0. -1.
        -11    1    4    4    0    0  0.23683204633E+02  0.67482055205E+01 -0.10304230664E+02  0.26694749095E+02  0.51100000000E-03 0.  1.
         12    1    4    4    0    0  0.14527962649E+02 -0.24759195543E+01  0.12169905804E+02  0.19112783253E+02  0.00000000000E+00 0. -1.
</event>
<event>
 8    1  0.2531964E-006  0.9118800E+02  0.7816164E-02  0.1184000E+00
        -11   -1    0    0    0    0  0.00000000000E+00  0.00000000000E+00  0.45593999997E+02  0.45594000000E+02  0.51100000000E-03 0.  1.
         11   -1    0    0    0    0 -0.00000000000E+00 -0.00000000000E+00 -0.45593999997E+02  0.45594000000E+02  0.51100000000E-03 0. -1.
         23    2    1    2    0    0  0.88817841970E-15  0.00000000000E+00  0.00000000000E+00  0.91188000000E+02  0.91188000000E+02 0.  0.
    9900012    2    3    3    0    0  0.79428101693E+01 -0.49500584740E+01 -0.35611655878E+02  0.54367063746E+02  0.39999953421E+02 0.  0.
        -12    1    3    3    0    0 -0.79428101693E+01  0.49500584740E+01  0.35611655878E+02  0.36820936254E+02  0.00000000000E+00 0.  1.
         11    1    4    4    0    0  0.69341700861E+01  0.31396527369E+01 -0.61377476268E+01  0.97781429875E+01  0.51100000000E-03 0. -1.
        -11    1    4    4    0    0  0.30173886044E+01  0.91657540092E+01  0.80218566273E+00  0.96829325437E+01  0.51100000000E-03 0.  1.
         12    1    4    4    0    0 -0.20087485212E+01 -0.17255465220E+02 -0.30276093914E+02  0.34905988215E+02  0.00000000000E+00 0. -1.
</event>
<event>
 8    1  0.2531964E-006  0.9118800E+02  0.7816164E-02  0.1184000E+00
        -11   -1    0    0    0    0  0.00000000000E+00  0.00000000000E+00  0.45593999997E+02  0.45594000000E+02  0.51100000000E-03 0.  1.
         11   -1    0    0    0    0 -0.00000000000E+00 -0.00000000000E+00 -0.45593999997E+02  0.45594000000E+02  0.51100000000E-03 0. -1.
         23    2    1    2    0    0 -0.17763568394E-14  0.00000000000E+00 -0.35527136788E-14  0.91188000000E+02  0.91188000000E+02 0.  0.
    9900012    2    3    3    0    0 -0.15005409727E+02 -0.27978662957E+02 -0.18649699985E+02  0.54367092740E+02  0.40000019519E+02 0.  0.
        -12    1    3    3    0    0  0.15005409727E+02  0.27978662957E+02  0.18649699985E+02  0.36820907260E+02  0.00000000000E+00 0.  1.
         11    1    4    4    0    0 -0.11268384108E+02 -0.21962767017E+02 -0.18004073284E+02  0.30553007553E+02  0.51100000000E-03 0. -1.
        -11    1    4    4    0    0 -0.12639514050E+02 -0.52020937708E+01  0.32710169495E+01  0.14054132743E+02  0.51100000000E-03 0.  1.
        -12    1    4    4    0    0  0.89024884304E+01 -0.81380216925E+00 -0.39166436506E+01  0.97599524441E+01  0.00000000000E+00 0.  1.
</event>
<event>
 8    1  0.2531964E-006  0.9118800E+02  0.7816164E-02  0.1184000E+00
        -11   -1    0    0    0    0  0.00000000000E+00  0.00000000000E+00  0.45593999997E+02  0.45594000000E+02  0.51100000000E-03 0.  1.
         11   -1    0    0    0    0 -0.00000000000E+00 -0.00000000000E+00 -0.45593999997E+02  0.45594000000E+02  0.51100000000E-03 0. -1.
         23    2    1    2    0    0  0.00000000000E+00  0.35527136788E-14 -0.66613381478E-15  0.91188000000E+02  0.91188000000E+02 0.  0.
    9900012    2    3    3    0    0  0.33690976839E+02 -0.14806149163E+02  0.12146150407E+01  0.54367092039E+02  0.40000017922E+02 0.  0.
         12    1    3    3    0    0 -0.33690976839E+02  0.14806149163E+02 -0.12146150407E+01  0.36820907961E+02  0.00000000000E+00 0. -1.
         11    1    4    4    0    0 -0.10575955340E+01  0.10065308508E+01  0.31690893723E+01  0.34892320614E+01  0.51100000000E-03 0. -1.
        -11    1    4    4    0    0  0.14441994156E+02  0.11094328626E+01 -0.15467653839E+02  0.21190808197E+02  0.51100000000E-03 0.  1.
        -12    1    4    4    0    0  0.20306578216E+02 -0.16922112876E+02  0.13513179508E+02  0.29687051781E+02  0.00000000000E+00 0.  1.
</event>
<event>
 8    1  0.2531964E-006  0.9118800E+02  0.7816164E-02  0.1184000E+00
        -11   -1    0    0    0    0  0.00000000000E+00  0.00000000000E+00  0.45593999997E+02  0.45594000000E+02  0.51100000000E-03 0.  1.
         11   -1    0    0    0    0 -0.00000000000E+00 -0.00000000000E+00 -0.45593999997E+02  0.45594000000E+02  0.51100000000E-03 0. -1.
         23    2    1    2    0    0  0.00000000000E+00  0.00000000000E+00 -0.17763568394E-14  0.91188000000E+02  0.91188000000E+02 0.  0.
    9900012    2    3    3    0    0 -0.34343695568E+02 -0.12591841879E+02  0.42114996658E+01  0.54367073387E+02  0.39999975400E+02 0.  0.
         12    1    3    3    0    0  0.34343695568E+02  0.12591841879E+02 -0.42114996658E+01  0.36820926613E+02  0.00000000000E+00 0. -1.
         11    1    4    4    0    0 -0.15119660616E+02 -0.12130096680E+02 -0.11720245299E+02  0.22651877025E+02  0.51100000000E-03 0. -1.
        -11    1    4    4    0    0  0.32853259891E+01  0.24255559212E+01  0.51999624921E+01  0.66118301976E+01  0.51100000000E-03 0.  1.
         12    1    4    4    0    0 -0.22509360942E+02 -0.28873011198E+01  0.10731782473E+02  0.25103366165E+02  0.00000000000E+00 0. -1.
</event>
<event>
 8    1  0.2531964E-006  0.9118800E+02  0.7816164E-02  0.1184000E+00
        -11   -1    0    0    0    0  0.00000000000E+00  0.00000000000E+00  0.45593999997E+02  0.45594000000E+02  0.51100000000E-03 0. -1.
         11   -1    0    0    0    0 -0.00000000000E+00 -0.00000000000E+00 -0.45593999997E+02  0.45594000000E+02  0.51100000000E-03 0.  1.
         23    2    1    2    0    0  0.00000000000E+00  0.00000000000E+00 -0.35527136788E-14  0.91188000000E+02  0.91188000000E+02 0.  0.
    9900012    2    3    3    0    0  0.17829953205E+02 -0.25192496263E+02 -0.20080101679E+02  0.54367087699E+02  0.40000008027E+02 0.  0.
         12    1    3    3    0    0 -0.17829953205E+02  0.25192496263E+02  0.20080101679E+02  0.36820912301E+02  0.00000000000E+00 0. -1.
         11    1    4    4    0    0 -0.28404847147E+01 -0.11524493742E+02 -0.12287392459E+02  0.17083978551E+02  0.51100000000E-03 0. -1.
        -11    1    4    4    0    0  0.13834905658E+02 -0.19795071740E+02 -0.12248674521E+02  0.27079134173E+02  0.51100000000E-03 0.  1.
        -12    1    4    4    0    0  0.68355322624E+01  0.61270692190E+01  0.44559653015E+01  0.10203974975E+02  0.00000000000E+00 0.  1.
</event>
<event>
 8    1  0.2531964E-006  0.9118800E+02  0.7816164E-02  0.1184000E+00
        -11   -1    0    0    0    0  0.00000000000E+00  0.00000000000E+00  0.45593999997E+02  0.45594000000E+02  0.51100000000E-03 0.  1.
         11   -1    0    0    0    0 -0.00000000000E+00 -0.00000000000E+00 -0.45593999997E+02  0.45594000000E+02  0.51100000000E-03 0. -1.
         23    2    1    2    0    0  0.35527136788E-14 -0.17763568394E-14  0.00000000000E+00  0.91188000000E+02  0.91188000000E+02 0.  0.
    9900012    2    3    3    0    0 -0.21701459576E+02  0.51887727733E+01 -0.29289985150E+02  0.54367082838E+02  0.39999996945E+02 0.  0.
        -12    1    3    3    0    0  0.21701459576E+02 -0.51887727733E+01  0.29289985150E+02  0.36820917162E+02  0.00000000000E+00 0.  1.
         11    1    4    4    0    0 -0.45855372927E+01  0.15024439098E+02 -0.28781781997E+02  0.32789508957E+02  0.51100000000E-03 0. -1.
        -11    1    4    4    0    0 -0.12377900380E+02 -0.84926754745E+01 -0.40066217338E+01  0.15536761970E+02  0.51100000000E-03 0.  1.
         12    1    4    4    0    0 -0.47380219033E+01 -0.13429908500E+01  0.34984185809E+01  0.60408119112E+01  0.00000000000E+00 0. -1.
</event>
<event>
 8    1  0.2531964E-006  0.9118800E+02  0.7816164E-02  0.1184000E+00
        -11   -1    0    0    0    0  0.00000000000E+00  0.00000000000E+00  0.45593999997E+02  0.45594000000E+02  0.51100000000E-03 0.  1.
         11   -1    0    0    0    0 -0.00000000000E+00 -0.00000000000E+00 -0.45593999997E+02  0.45594000000E+02  0.51100000000E-03 0. -1.
         23    2    1    2    0    0  0.35527136788E-14  0.35527136788E-14  0.00000000000E+00  0.91188000000E+02  0.91188000000E+02 0.  0.
    9900012    2    3    3    0    0  0.19482786768E+02 -0.22986259389E+02  0.21162077872E+02  0.54367073331E+02  0.39999975272E+02 0.  0.
         12    1    3    3    0    0 -0.19482786768E+02  0.22986259389E+02 -0.21162077872E+02  0.36820926669E+02  0.00000000000E+00 0. -1.
         11    1    4    4    0    0 -0.49963228205E+01 -0.21670142587E+02  0.10439206020E+02  0.24566956345E+02  0.51100000000E-03 0. -1.
        -11    1    4    4    0    0  0.16119893010E+02 -0.14710289419E+01  0.13408082728E+02  0.21018838205E+02  0.51100000000E-03 0.  1.
        -12    1    4    4    0    0  0.83592165789E+01  0.15491213951E+00 -0.26852108758E+01  0.87812787811E+01  0.00000000000E+00 0.  1.
</event>
<event>
 8    1  0.2531964E-006  0.9118800E+02  0.7816164E-02  0.1184000E+00
        -11   -1    0    0    0    0  0.00000000000E+00  0.00000000000E+00  0.45593999997E+02  0.45594000000E+02  0.51100000000E-03 0. -1.
         11   -1    0    0    0    0 -0.00000000000E+00 -0.00000000000E+00 -0.45593999997E+02  0.45594000000E+02  0.51100000000E-03 0.  1.
         23    2    1    2    0    0 -0.17763568394E-14  0.00000000000E+00 -0.71054273576E-14  0.91188000000E+02  0.91188000000E+02 0.  0.
    9900012    2    3    3    0    0 -0.14832372602E+02  0.18491899202E+02 -0.28175003986E+02  0.54367075749E+02  0.39999980784E+02 0.  0.
         12    1    3    3    0    0  0.14832372602E+02 -0.18491899202E+02  0.28175003986E+02  0.36820924251E+02  0.00000000000E+00 0. -1.
         11    1    4    4    0    0  0.76196212840E+01  0.63066311739E+01  0.17233406382E+01  0.10040026319E+02  0.51100000000E-03 0. -1.
        -11    1    4    4    0    0 -0.15169043277E+02  0.94948427187E+01 -0.54977743754E+01  0.18721042587E+02  0.51100000000E-03 0.  1.
         12    1    4    4    0    0 -0.72829506087E+01  0.26904253093E+01 -0.24400570249E+02  0.25606006842E+02  0.00000000000E+00 0. -1.
</event>
<event>
 8    1  0.2531964E-006  0.9118800E+02  0.7816164E-02  0.1184000E+00
        -11   -1    0    0    0    0  0.00000000000E+00  0.00000000000E+00  0.45593999997E+02  0.45594000000E+02  0.51100000000E-03 0. -1.
         11   -1    0    0    0    0 -0.00000000000E+00 -0.00000000000E+00 -0.45593999997E+02  0.45594000000E+02  0.51100000000E-03 0.  1.
         23    2    1    2    0    0 -0.35527136788E-14  0.00000000000E+00  0.00000000000E+00  0.91188000000E+02  0.91188000000E+02 0.  0.
    9900012    2    3    3    0    0 -0.22958870897E+02 -0.21354520108E+02  0.19304267827E+02  0.54367081513E+02  0.39999993924E+02 0.  0.
        -12    1    3    3    0    0  0.22958870897E+02  0.21354520108E+02 -0.19304267827E+02  0.36820918487E+02  0.00000000000E+00 0.  1.
         11    1    4    4    0    0 -0.24013386076E+02 -0.27148592878E+01  0.23321375645E+02  0.33584218526E+02  0.51100000000E-03 0. -1.
        -11    1    4    4    0    0  0.30560644527E+01 -0.14368393492E+02 -0.16163885823E+00  0.14690690551E+02  0.51100000000E-03 0.  1.
         12    1    4    4    0    0 -0.20015492745E+01 -0.42712673277E+01 -0.38554689599E+01  0.60921724355E+01  0.00000000000E+00 0. -1.
</event>
<event>
 8    1  0.2531964E-006  0.9118800E+02  0.7816164E-02  0.1184000E+00
        -11   -1    0    0    0    0  0.00000000000E+00  0.00000000000E+00  0.45593999997E+02  0.45594000000E+02  0.51100000000E-03 0. -1.
         11   -1    0    0    0    0 -0.00000000000E+00 -0.00000000000E+00 -0.45593999997E+02  0.45594000000E+02  0.51100000000E-03 0.  1.
         23    2    1    2    0    0  0.35527136788E-14  0.00000000000E+00  0.00000000000E+00  0.91188000000E+02  0.91188000000E+02 0.  0.
    9900012    2    3    3    0    0 -0.16484848922E+02 -0.99859064301E+01 -0.31373736105E+02  0.54367083548E+02  0.39999998564E+02 0.  0.
         12    1    3    3    0    0  0.16484848922E+02  0.99859064301E+01  0.31373736105E+02  0.36820916452E+02  0.00000000000E+00 0. -1.
         11    1    4    4    0    0 -0.69588693373E+01  0.18326021414E+01 -0.31345079593E+02  0.32160508516E+02  0.51100000000E-03 0. -1.
        -11    1    4    4    0    0  0.36308347309E+00  0.29056974561E+01 -0.30343077129E+01  0.42168626813E+01  0.51100000000E-03 0.  1.
         12    1    4    4    0    0 -0.98890630576E+01 -0.14724206028E+02  0.30056512014E+01  0.17989712350E+02  0.00000000000E+00 0. -1.
</event>
<event>
 8    1  0.2531964E-006  0.9118800E+02  0.7816164E-02  0.1184000E+00
        -11   -1    0    0    0    0  0.00000000000E+00  0.00000000000E+00  0.45593999997E+02  0.45594000000E+02  0.51100000000E-03 0.  1.
         11   -1    0    0    0    0 -0.00000000000E+00 -0.00000000000E+00 -0.45593999997E+02  0.45594000000E+02  0.51100000000E-03 0. -1.
         23    2    1    2    0    0  0.00000000000E+00  0.00000000000E+00  0.00000000000E+00  0.91188000000E+02  0.91188000000E+02 0.  0.
    9900012    2    3    3    0    0 -0.22140739281E+02 -0.17639457515E+02 -0.23546064800E+02  0.54367082509E+02  0.39999996195E+02 0.  0.
        -12    1    3    3    0    0  0.22140739281E+02  0.17639457515E+02  0.23546064800E+02  0.36820917491E+02  0.00000000000E+00 0.  1.
         11    1    4    4    0    0 -0.97934411067E+01 -0.12658315145E+02 -0.11089418297E+02  0.19470994567E+02  0.51100000000E-03 0. -1.
        -11    1    4    4    0    0 -0.10526379379E+02 -0.96213485996E+01  0.62253437890E+01  0.15560524325E+02  0.51100000000E-03 0.  1.
         12    1    4    4    0    0 -0.18209187953E+01  0.46402062294E+01 -0.18681990292E+02  0.19335563617E+02  0.00000000000E+00 0. -1.
</event>
<event>
 8    1  0.2531964E-006  0.9118800E+02  0.7816164E-02  0.1184000E+00
        -11   -1    0    0    0    0  0.00000000000E+00  0.00000000000E+00  0.45593999997E+02  0.45594000000E+02  0.51100000000E-03 0.  1.
         11   -1    0    0    0    0 -0.00000000000E+00 -0.00000000000E+00 -0.45593999997E+02  0.45594000000E+02  0.51100000000E-03 0. -1.
         23    2    1    2    0    0  0.00000000000E+00  0.14210854715E-13  0.00000000000E+00  0.91188000000E+02  0.91188000000E+02 0.  0.
    9900012    2    3    3    0    0  0.91760553961E+01  0.33915977926E+02 -0.11013025570E+02  0.54367078182E+02  0.39999986332E+02 0.  0.
        -12    1    3    3    0    0 -0.91760553961E+01 -0.33915977926E+02  0.11013025570E+02  0.36820921818E+02  0.00000000000E+00 0.  1.
         11    1    4    4    0    0  0.36157532087E+01 -0.11779351849E+01 -0.17835902805E+01  0.42002853612E+01  0.51100000000E-03 0. -1.
        -11    1    4    4    0    0 -0.32887238799E+00  0.55425251107E+01 -0.17957035410E+02  0.18795820350E+02  0.51100000000E-03 0.  1.
         12    1    4    4    0    0  0.58891745754E+01  0.29551388000E+02  0.87276001204E+01  0.31370972471E+02  0.00000000000E+00 0. -1.
</event>
<event>
 8    1  0.2531964E-006  0.9118800E+02  0.7816164E-02  0.1184000E+00
        -11   -1    0    0    0    0  0.00000000000E+00  0.00000000000E+00  0.45593999997E+02  0.45594000000E+02  0.51100000000E-03 0.  1.
         11   -1    0    0    0    0 -0.00000000000E+00 -0.00000000000E+00 -0.45593999997E+02  0.45594000000E+02  0.51100000000E-03 0. -1.
         23    2    1    2    0    0  0.35527136788E-14  0.00000000000E+00 -0.22204460493E-14  0.91188000000E+02  0.91188000000E+02 0.  0.
    9900012    2    3    3    0    0  0.16093619289E+02  0.33006439596E+02 -0.27110059274E+01  0.54367093035E+02  0.40000020191E+02 0.  0.
        -12    1    3    3    0    0 -0.16093619289E+02 -0.33006439596E+02  0.27110059274E+01  0.36820906965E+02  0.00000000000E+00 0.  1.
         11    1    4    4    0    0  0.11596580584E+02  0.41475360747E+01 -0.97705319197E+01  0.15720878823E+02  0.51100000000E-03 0. -1.
        -11    1    4    4    0    0 -0.48734565881E+00  0.84055085353E+01  0.14121770135E+02  0.16441243005E+02  0.51100000000E-03 0.  1.
        -12    1    4    4    0    0  0.49843843641E+01  0.20453394986E+02 -0.70622441430E+01  0.22204971206E+02  0.00000000000E+00 0.  1.
</event>
<event>
 8    1  0.2531964E-006  0.9118800E+02  0.7816164E-02  0.1184000E+00
        -11   -1    0    0    0    0  0.00000000000E+00  0.00000000000E+00  0.45593999997E+02  0.45594000000E+02  0.51100000000E-03 0. -1.
         11   -1    0    0    0    0 -0.00000000000E+00 -0.00000000000E+00 -0.45593999997E+02  0.45594000000E+02  0.51100000000E-03 0.  1.
         23    2    1    2    0    0  0.00000000000E+00  0.00000000000E+00  0.17763568394E-14  0.91188000000E+02  0.91188000000E+02 0.  0.
    9900012    2    3    3    0    0 -0.35387020550E+02  0.43408084928E+01 -0.92030690785E+01  0.54367077656E+02  0.39999985132E+02 0.  0.
         12    1    3    3    0    0  0.35387020550E+02 -0.43408084928E+01  0.92030690785E+01  0.36820922344E+02  0.00000000000E+00 0. -1.
         11    1    4    4    0    0 -0.63479092923E+01 -0.76699659988E+00  0.10844008005E+02  0.12588754745E+02  0.51100000000E-03 0. -1.
        -11    1    4    4    0    0 -0.11496309545E+02  0.12467994399E+02 -0.54972045947E+01  0.17827935273E+02  0.51100000000E-03 0.  1.
        -12    1    4    4    0    0 -0.17542801714E+02 -0.73601893063E+01 -0.14549872488E+02  0.23950387638E+02  0.00000000000E+00 0.  1.
</event>
<event>
 8    1  0.2531964E-006  0.9118800E+02  0.7816164E-02  0.1184000E+00
        -11   -1    0    0    0    0  0.00000000000E+00  0.00000000000E+00  0.45593999997E+02  0.45594000000E+02  0.51100000000E-03 0.  1.
         11   -1    0    0    0    0 -0.00000000000E+00 -0.00000000000E+00 -0.45593999997E+02  0.45594000000E+02  0.51100000000E-03 0. -1.
         23    2    1    2    0    0 -0.17763568394E-14 -0.35527136788E-14  0.35527136788E-14  0.91188000000E+02  0.91188000000E+02 0.  0.
    9900012    2    3    3    0    0  0.15484811906E+02 -0.29037585282E+02  0.16517272880E+02  0.54367067608E+02  0.39999962227E+02 0.  0.
         12    1    3    3    0    0 -0.15484811906E+02  0.29037585282E+02 -0.16517272880E+02  0.36820932392E+02  0.00000000000E+00 0. -1.
         11    1    4    4    0    0 -0.78552594437E+00  0.61569910971E+01  0.76364859746E+01  0.98408083347E+01  0.51100000000E-03 0. -1.
        -11    1    4    4    0    0  0.13255459945E+02 -0.19463169428E+02  0.14378898063E+02  0.27591210418E+02  0.51100000000E-03 0.  1.
         12    1    4    4    0    0  0.30148779053E+01 -0.15731406951E+02 -0.54981111578E+01  0.16935048856E+02  0.00000000000E+00 0. -1.
</event>
<event>
 8    1  0.2531964E-006  0.9118800E+02  0.7816164E-02  0.1184000E+00
        -11   -1    0    0    0    0  0.00000000000E+00  0.00000000000E+00  0.45593999997E+02  0.45594000000E+02  0.51100000000E-03 0.  1.
         11   -1    0    0    0    0 -0.00000000000E+00 -0.00000000000E+00 -0.45593999997E+02  0.45594000000E+02  0.51100000000E-03 0. -1.
         23    2    1    2    0    0  0.00000000000E+00  0.17763568394E-14  0.00000000000E+00  0.91188000000E+02  0.91188000000E+02 0.  0.
    9900012    2    3    3    0    0 -0.11601007015E+02  0.11639827509E+02  0.32950375807E+02  0.54366861859E+02  0.39999493177E+02 0.  0.
         12    1    3    3    0    0  0.11601007015E+02 -0.11639827509E+02 -0.32950375807E+02  0.36821138141E+02  0.00000000000E+00 0. -1.
         11    1    4    4    0    0  0.56672246270E+01 -0.60576577240E+01  0.27637366895E+02  0.28855444915E+02  0.51100000000E-03 0. -1.
        -11    1    4    4    0    0 -0.17030386924E+02  0.16508880760E+02  0.52773916825E+01  0.24298726015E+02  0.51100000000E-03 0.  1.
         12    1    4    4    0    0 -0.23784471795E+00  0.11886044727E+01  0.35617228686E-01  0.12126909290E+01  0.00000000000E+00 0. -1.
</event>
<event>
 8    1  0.2531964E-006  0.9118800E+02  0.7816164E-02  0.1184000E+00
        -11   -1    0    0    0    0  0.00000000000E+00  0.00000000000E+00  0.45593999997E+02  0.45594000000E+02  0.51100000000E-03 0.  1.
         11   -1    0    0    0    0 -0.00000000000E+00 -0.00000000000E+00 -0.45593999997E+02  0.45594000000E+02  0.51100000000E-03 0. -1.
         23    2    1    2    0    0 -0.11102230246E-14 -0.55511151231E-15  0.71054273576E-14  0.91188000000E+02  0.91188000000E+02 0.  0.
    9900012    2    3    3    0    0 -0.13254332049E+01  0.83637328433E+00 -0.36787532462E+02  0.54367097809E+02  0.40000031076E+02 0.  0.
        -12    1    3    3    0    0  0.13254332049E+01 -0.83637328433E+00  0.36787532462E+02  0.36820902191E+02  0.00000000000E+00 0.  1.
         11    1    4    4    0    0 -0.93893638723E+01 -0.40392259316E+01 -0.22566417143E+02  0.24773346221E+02  0.51100000000E-03 0. -1.
        -11    1    4    4    0    0  0.10250942638E+01 -0.82280291058E+00 -0.19209525434E+02  0.19254445994E+02  0.51100000000E-03 0.  1.
        -12    1    4    4    0    0  0.70388364036E+01  0.56984021265E+01  0.49884101142E+01  0.10339305595E+02  0.00000000000E+00 0.  1.
</event>
<event>
 8    1  0.2531964E-006  0.9118800E+02  0.7816164E-02  0.1184000E+00
        -11   -1    0    0    0    0  0.00000000000E+00  0.00000000000E+00  0.45593999997E+02  0.45594000000E+02  0.51100000000E-03 0.  1.
         11   -1    0    0    0    0 -0.00000000000E+00 -0.00000000000E+00 -0.45593999997E+02  0.45594000000E+02  0.51100000000E-03 0. -1.
         23    2    1    2    0    0 -0.88817841970E-15  0.00000000000E+00  0.00000000000E+00  0.91188000000E+02  0.91188000000E+02 0.  0.
    9900012    2    3    3    0    0 -0.40634953331E+01  0.35858367369E+02  0.73105665353E+01  0.54367097135E+02  0.40000029539E+02 0.  0.
         12    1    3    3    0    0  0.40634953331E+01 -0.35858367369E+02 -0.73105665353E+01  0.36820902865E+02  0.00000000000E+00 0. -1.
         11    1    4    4    0    0  0.10609820925E+01  0.75412182727E+01  0.17805187870E+02  0.19365442710E+02  0.51100000000E-03 0. -1.
        -11    1    4    4    0    0  0.48445403214E+01  0.10721343848E+02  0.88141427038E+00  0.11798036964E+02  0.51100000000E-03 0.  1.
         12    1    4    4    0    0 -0.99690177470E+01  0.17595805249E+02 -0.11376035605E+02  0.23203617461E+02  0.00000000000E+00 0. -1.
</event>
<event>
 8    1  0.2531964E-006  0.9118800E+02  0.7816164E-02  0.1184000E+00
        -11   -1    0    0    0    0  0.00000000000E+00  0.00000000000E+00  0.45593999997E+02  0.45594000000E+02  0.51100000000E-03 0.  1.
         11   -1    0    0    0    0 -0.00000000000E+00 -0.00000000000E+00 -0.45593999997E+02  0.45594000000E+02  0.51100000000E-03 0. -1.
         23    2    1    2    0    0  0.00000000000E+00 -0.18041124150E-15 -0.35527136788E-14  0.91188000000E+02  0.91188000000E+02 0.  0.
    9900012    2    3    3    0    0  0.26254708524E+02  0.69775569326E-01 -0.25815998728E+02  0.54367076891E+02  0.39999983387E+02 0.  0.
        -12    1    3    3    0    0 -0.26254708524E+02 -0.69775569326E-01  0.25815998728E+02  0.36820923109E+02  0.00000000000E+00 0.  1.
         11    1    4    4    0    0  0.23948878174E+02 -0.43132853952E+01 -0.16470644078E+02  0.29384269828E+02  0.51100000000E-03 0. -1.
        -11    1    4    4    0    0  0.39610441404E+01 -0.86392645828E+01 -0.13158273358E+01  0.95946946305E+01  0.51100000000E-03 0.  1.
        -12    1    4    4    0    0 -0.16552137901E+01  0.13022325547E+02 -0.80295273137E+01  0.15388112432E+02  0.00000000000E+00 0.  1.
</event>
<event>
 8    1  0.2531964E-006  0.9118800E+02  0.7816164E-02  0.1184000E+00
        -11   -1    0    0    0    0  0.00000000000E+00  0.00000000000E+00  0.45593999997E+02  0.45594000000E+02  0.51100000000E-03 0. -1.
         11   -1    0    0    0    0 -0.00000000000E+00 -0.00000000000E+00 -0.45593999997E+02  0.45594000000E+02  0.51100000000E-03 0.  1.
         23    2    1    2    0    0  0.00000000000E+00  0.53290705182E-14  0.00000000000E+00  0.91188000000E+02  0.91188000000E+02 0.  0.
    9900012    2    3    3    0    0 -0.18119474172E+01 -0.14054640873E+02 -0.33984744112E+02  0.54367096754E+02  0.40000028670E+02 0.  0.
         12    1    3    3    0    0  0.18119474172E+01  0.14054640873E+02  0.33984744112E+02  0.36820903246E+02  0.00000000000E+00 0. -1.
         11    1    4    4    0    0  0.68112015193E+01 -0.17551605033E+02 -0.31075081910E+02  0.36333345860E+02  0.51100000000E-03 0. -1.
        -11    1    4    4    0    0 -0.75600637774E+01  0.22549537787E+01  0.54029052727E+01  0.95619436575E+01  0.51100000000E-03 0.  1.
        -12    1    4    4    0    0 -0.10630851591E+01  0.12420103816E+01 -0.83125674745E+01  0.84718072370E+01  0.00000000000E+00 0.  1.
</event>
<event>
 8    1  0.2531964E-006  0.9118800E+02  0.7816164E-02  0.1184000E+00
        -11   -1    0    0    0    0  0.00000000000E+00  0.00000000000E+00  0.45593999997E+02  0.45594000000E+02  0.51100000000E-03 0.  1.
         11   -1    0    0    0    0 -0.00000000000E+00 -0.00000000000E+00 -0.45593999997E+02  0.45594000000E+02  0.51100000000E-03 0. -1.
         23    2    1    2    0    0  0.00000000000E+00  0.88817841970E-15 -0.17763568394E-14  0.91188000000E+02  0.91188000000E+02 0.  0.
    9900012    2    3    3    0    0  0.34289283426E+02 -0.50937447142E+01 -0.12412782056E+02  0.54367104419E+02  0.40000046143E+02 0.  0.
        -12    1    3    3    0    0 -0.34289283426E+02  0.50937447142E+01  0.12412782056E+02  0.36820895581E+02  0.00000000000E+00 0.  1.
         11    1    4    4    0    0  0.26905227060E+00 -0.18833017175E+01 -0.40150217006E+01  0.44429285388E+01  0.51100000000E-03 0. -1.
        -11    1    4    4    0    0  0.28741942645E+02 -0.99183136460E+01 -0.19348855721E+02  0.36039567569E+02  0.51100000000E-03 0.  1.
        -12    1    4    4    0    0  0.52782885095E+01  0.67078706494E+01  0.10951095366E+02  0.13884608311E+02  0.00000000000E+00 0.  1.
</event>
<event>
 8    1  0.2531964E-006  0.9118800E+02  0.7816164E-02  0.1184000E+00
        -11   -1    0    0    0    0  0.00000000000E+00  0.00000000000E+00  0.45593999997E+02  0.45594000000E+02  0.51100000000E-03 0.  1.
         11   -1    0    0    0    0 -0.00000000000E+00 -0.00000000000E+00 -0.45593999997E+02  0.45594000000E+02  0.51100000000E-03 0. -1.
         23    2    1    2    0    0  0.44408920985E-15  0.00000000000E+00  0.00000000000E+00  0.91188000000E+02  0.91188000000E+02 0.  0.
    9900012    2    3    3    0    0 -0.26811030365E+01 -0.37417696034E+01  0.36532059665E+02  0.54367074745E+02  0.39999978497E+02 0.  0.
         12    1    3    3    0    0  0.26811030365E+01  0.37417696034E+01 -0.36532059665E+02  0.36820925255E+02  0.00000000000E+00 0. -1.
         11    1    4    4    0    0  0.73671731209E+01 -0.15980175445E+02  0.59445380118E+01  0.18573604375E+02  0.51100000000E-03 0. -1.
        -11    1    4    4    0    0 -0.45241036922E+01  0.21127890401E+01  0.28406580806E+01  0.57446262139E+01  0.51100000000E-03 0.  1.
        -12    1    4    4    0    0 -0.55241724653E+01  0.10125616801E+02  0.27746863572E+02  0.30048844156E+02  0.00000000000E+00 0.  1.
</event>
<event>
 8    1  0.2531964E-006  0.9118800E+02  0.7816164E-02  0.1184000E+00
        -11   -1    0    0    0    0  0.00000000000E+00  0.00000000000E+00  0.45593999997E+02  0.45594000000E+02  0.51100000000E-03 0.  1.
         11   -1    0    0    0    0 -0.00000000000E+00 -0.00000000000E+00 -0.45593999997E+02  0.45594000000E+02  0.51100000000E-03 0. -1.
         23    2    1    2    0    0  0.00000000000E+00  0.17763568394E-14  0.00000000000E+00  0.91188000000E+02  0.91188000000E+02 0.  0.
    9900012    2    3    3    0    0  0.28048156063E+02  0.13115244387E+02 -0.19926632582E+02  0.54367090452E+02  0.40000014303E+02 0.  0.
         12    1    3    3    0    0 -0.28048156063E+02 -0.13115244387E+02  0.19926632582E+02  0.36820909548E+02  0.00000000000E+00 0. -1.
         11    1    4    4    0    0 -0.70276734887E+00 -0.92271017052E+01 -0.20862537902E+01  0.94860815389E+01  0.51100000000E-03 0. -1.
        -11    1    4    4    0    0  0.61577415148E+00  0.60955552705E+01 -0.95576378223E+01  0.11352683069E+02  0.51100000000E-03 0.  1.
        -12    1    4    4    0    0  0.28135149261E+02  0.16246790821E+02 -0.82827409700E+01  0.33528325844E+02  0.00000000000E+00 0.  1.
</event>
<event>
 8    1  0.2531964E-006  0.9118800E+02  0.7816164E-02  0.1184000E+00
        -11   -1    0    0    0    0  0.00000000000E+00  0.00000000000E+00  0.45593999997E+02  0.45594000000E+02  0.51100000000E-03 0.  1.
         11   -1    0    0    0    0 -0.00000000000E+00 -0.00000000000E+00 -0.45593999997E+02  0.45594000000E+02  0.51100000000E-03 0. -1.
         23    2    1    2    0    0  0.00000000000E+00  0.00000000000E+00  0.00000000000E+00  0.91188000000E+02  0.91188000000E+02 0.  0.
    9900012    2    3    3    0    0  0.11699772968E+02  0.29105471588E+02 -0.19281205047E+02  0.54367108757E+02  0.40000056033E+02 0.  0.
        -12    1    3    3    0    0 -0.11699772968E+02 -0.29105471588E+02  0.19281205047E+02  0.36820891243E+02  0.00000000000E+00 0.  1.
         11    1    4    4    0    0 -0.75034274978E+00  0.16077891662E+02  0.16944684864E+01  0.16184339290E+02  0.51100000000E-03 0. -1.
        -11    1    4    4    0    0  0.11675002946E+02  0.76962470982E+01  0.24055637364E+01  0.14188891794E+02  0.51100000000E-03 0.  1.
        -12    1    4    4    0    0  0.77511277129E+00  0.53313328278E+01 -0.23381237269E+02  0.23993877673E+02  0.00000000000E+00 0.  1.
</event>
<event>
 8    1  0.2531964E-006  0.9118800E+02  0.7816164E-02  0.1184000E+00
        -11   -1    0    0    0    0  0.00000000000E+00  0.00000000000E+00  0.45593999997E+02  0.45594000000E+02  0.51100000000E-03 0. -1.
         11   -1    0    0    0    0 -0.00000000000E+00 -0.00000000000E+00 -0.45593999997E+02  0.45594000000E+02  0.51100000000E-03 0.  1.
         23    2    1    2    0    0  0.17763568394E-14  0.00000000000E+00  0.35527136788E-14  0.91188000000E+02  0.91188000000E+02 0.  0.
    9900012    2    3    3    0    0  0.11226315982E+02  0.17157571815E+02  0.30583769946E+02  0.54367089837E+02  0.40000012901E+02 0.  0.
        -12    1    3    3    0    0 -0.11226315982E+02 -0.17157571815E+02 -0.30583769946E+02  0.36820910163E+02  0.00000000000E+00 0.  1.
         11    1    4    4    0    0 -0.82262625927E+01  0.57575836710E+01  0.26099079360E+01  0.10374622194E+02  0.51100000000E-03 0.  1.
        -11    1    4    4    0    0 -0.44226702739E+01  0.88504909214E+01  0.71170776390E+01  0.12187862663E+02  0.51100000000E-03 0. -1.
        -12    1    4    4    0    0  0.23875248848E+02  0.25494972228E+01  0.20856784371E+02  0.31804604980E+02  0.00000000000E+00 0.  1.
</event>
<event>
 8    1  0.2531964E-006  0.9118800E+02  0.7816164E-02  0.1184000E+00
        -11   -1    0    0    0    0  0.00000000000E+00  0.00000000000E+00  0.45593999997E+02  0.45594000000E+02  0.51100000000E-03 0.  1.
         11   -1    0    0    0    0 -0.00000000000E+00 -0.00000000000E+00 -0.45593999997E+02  0.45594000000E+02  0.51100000000E-03 0. -1.
         23    2    1    2    0    0 -0.35527136788E-14 -0.35527136788E-14  0.17763568394E-14  0.91188000000E+02  0.91188000000E+02 0.  0.
    9900012    2    3    3    0    0 -0.13926494924E+02 -0.30149864747E+02  0.15900313968E+02  0.54367060450E+02  0.39999945907E+02 0.  0.
        -12    1    3    3    0    0  0.13926494924E+02  0.30149864747E+02 -0.15900313968E+02  0.36820939550E+02  0.00000000000E+00 0.  1.
         11    1    4    4    0    0 -0.66004179416E+00 -0.83700336626E+01  0.20152169677E+01  0.86344784655E+01  0.51100000000E-03 0. -1.
        -11    1    4    4    0    0 -0.14721788538E+02 -0.19754129401E+02  0.24549837760E+02  0.34780040547E+02  0.51100000000E-03 0.  1.
         12    1    4    4    0    0  0.14553354084E+01 -0.20257016833E+01 -0.10664740760E+02  0.10952541437E+02  0.00000000000E+00 0. -1.
</event>
<event>
 8    1  0.2531964E-006  0.9118800E+02  0.7816164E-02  0.1184000E+00
        -11   -1    0    0    0    0  0.00000000000E+00  0.00000000000E+00  0.45593999997E+02  0.45594000000E+02  0.51100000000E-03 0.  1.
         11   -1    0    0    0    0 -0.00000000000E+00 -0.00000000000E+00 -0.45593999997E+02  0.45594000000E+02  0.51100000000E-03 0. -1.
         23    2    1    2    0    0 -0.88817841970E-15  0.00000000000E+00 -0.33306690739E-15  0.91188000000E+02  0.91188000000E+02 0.  0.
    9900012    2    3    3    0    0  0.64862951189E+01 -0.36239690991E+02  0.61608875317E+00  0.54367261376E+02  0.40000403956E+02 0.  0.
        -12    1    3    3    0    0 -0.64862951189E+01  0.36239690991E+02 -0.61608875317E+00  0.36820738624E+02  0.00000000000E+00 0.  1.
         11    1    4    4    0    0  0.19566517227E+02 -0.20077740877E+02 -0.46666909414E+01  0.28420807162E+02  0.51100000000E-03 0.  1.
        -11    1    4    4    0    0  0.10981650099E+01 -0.97998758339E+01  0.21835537928E+01  0.10100071296E+02  0.51100000000E-03 0. -1.
        -12    1    4    4    0    0 -0.14178387118E+02 -0.63620742799E+01  0.30992259018E+01  0.15846382918E+02  0.00000000000E+00 0.  1.
</event>
<event>
 8    1  0.2531964E-006  0.9118800E+02  0.7816164E-02  0.1184000E+00
        -11   -1    0    0    0    0  0.00000000000E+00  0.00000000000E+00  0.45593999997E+02  0.45594000000E+02  0.51100000000E-03 0.  1.
         11   -1    0    0    0    0 -0.00000000000E+00 -0.00000000000E+00 -0.45593999997E+02  0.45594000000E+02  0.51100000000E-03 0. -1.
         23    2    1    2    0    0  0.00000000000E+00  0.00000000000E+00  0.35527136788E-14  0.91188000000E+02  0.91188000000E+02 0.  0.
    9900012    2    3    3    0    0 -0.18954152139E+02 -0.21410497798E+02 -0.23197171277E+02  0.54367108450E+02  0.40000055334E+02 0.  0.
        -12    1    3    3    0    0  0.18954152139E+02  0.21410497798E+02  0.23197171277E+02  0.36820891550E+02  0.00000000000E+00 0.  1.
         11    1    4    4    0    0 -0.11903194277E+02 -0.11988030570E+02 -0.81353342016E+01  0.18750535293E+02  0.51100000000E-03 0. -1.
        -11    1    4    4    0    0 -0.19418825422E+01 -0.74933320395E+01  0.84612084795E+01  0.11467910972E+02  0.51100000000E-03 0.  1.
        -12    1    4    4    0    0 -0.51090753203E+01 -0.19291351884E+01 -0.23523045555E+02  0.24148662186E+02  0.00000000000E+00 0.  1.
</event>
<event>
 8    1  0.2531964E-006  0.9118800E+02  0.7816164E-02  0.1184000E+00
        -11   -1    0    0    0    0  0.00000000000E+00  0.00000000000E+00  0.45593999997E+02  0.45594000000E+02  0.51100000000E-03 0. -1.
         11   -1    0    0    0    0 -0.00000000000E+00 -0.00000000000E+00 -0.45593999997E+02  0.45594000000E+02  0.51100000000E-03 0.  1.
         23    2    1    2    0    0 -0.17763568394E-14  0.00000000000E+00  0.00000000000E+00  0.91188000000E+02  0.91188000000E+02 0.  0.
    9900012    2    3    3    0    0 -0.13597363979E+02 -0.27369655247E+02  0.20537630974E+02  0.54367073592E+02  0.39999975868E+02 0.  0.
        -12    1    3    3    0    0  0.13597363979E+02  0.27369655247E+02 -0.20537630974E+02  0.36820926408E+02  0.00000000000E+00 0.  1.
         11    1    4    4    0    0 -0.34850714730E+01 -0.15805352571E+00  0.69591319286E+01  0.77846144124E+01  0.51100000000E-03 0. -1.
        -11    1    4    4    0    0 -0.20314355700E+02 -0.20010863720E+02  0.52773828825E+00  0.28519926758E+02  0.51100000000E-03 0.  1.
        -12    1    4    4    0    0  0.10202063194E+02 -0.72007380014E+01  0.13050760757E+02  0.18062532422E+02  0.00000000000E+00 0.  1.
</event>
<event>
 8    1  0.2531964E-006  0.9118800E+02  0.7816164E-02  0.1184000E+00
        -11   -1    0    0    0    0  0.00000000000E+00  0.00000000000E+00  0.45593999997E+02  0.45594000000E+02  0.51100000000E-03 0. -1.
         11   -1    0    0    0    0 -0.00000000000E+00 -0.00000000000E+00 -0.45593999997E+02  0.45594000000E+02  0.51100000000E-03 0.  1.
         23    2    1    2    0    0 -0.88817841970E-15 -0.11102230246E-15  0.00000000000E+00  0.91188000000E+02  0.91188000000E+02 0.  0.
    9900012    2    3    3    0    0  0.67302530609E+01 -0.82227391511E+00 -0.36191256537E+02  0.54367088952E+02  0.40000010884E+02 0.  0.
         12    1    3    3    0    0 -0.67302530609E+01  0.82227391511E+00  0.36191256537E+02  0.36820911048E+02  0.00000000000E+00 0. -1.
         11    1    4    4    0    0  0.63520730046E+01  0.14048550446E+01  0.59788219889E+01  0.88356528784E+01  0.51100000000E-03 0. -1.
        -11    1    4    4    0    0  0.29078029497E+01 -0.55205769453E+01 -0.46486039556E+01  0.77808487198E+01  0.51100000000E-03 0.  1.
         12    1    4    4    0    0 -0.25296228934E+01  0.32934479856E+01 -0.37521474570E+02  0.37750587354E+02  0.00000000000E+00 0. -1.
</event>
<event>
 8    1  0.2531964E-006  0.9118800E+02  0.7816164E-02  0.1184000E+00
        -11   -1    0    0    0    0  0.00000000000E+00  0.00000000000E+00  0.45593999997E+02  0.45594000000E+02  0.51100000000E-03 0.  1.
         11   -1    0    0    0    0 -0.00000000000E+00 -0.00000000000E+00 -0.45593999997E+02  0.45594000000E+02  0.51100000000E-03 0. -1.
         23    2    1    2    0    0 -0.15543122345E-14  0.00000000000E+00  0.00000000000E+00  0.91188000000E+02  0.91188000000E+02 0.  0.
    9900012    2    3    3    0    0  0.41286382179E+00 -0.11944216552E+02  0.34827433003E+02  0.54367016103E+02  0.39999844810E+02 0.  0.
         12    1    3    3    0    0 -0.41286382179E+00  0.11944216552E+02 -0.34827433003E+02  0.36820983897E+02  0.00000000000E+00 0. -1.
         11    1    4    4    0    0  0.71199220829E+01 -0.21705432431E+02  0.13597309055E+02  0.26583940665E+02  0.51100000000E-03 0. -1.
        -11    1    4    4    0    0  0.33009426457E+01  0.47695140136E+00  0.84447404290E+01  0.90795014270E+01  0.51100000000E-03 0.  1.
         12    1    4    4    0    0 -0.10008000907E+02  0.92842644779E+01  0.12785383519E+02  0.18703574011E+02  0.00000000000E+00 0. -1.
</event>
<event>
 8    1  0.2531964E-006  0.9118800E+02  0.7816164E-02  0.1184000E+00
        -11   -1    0    0    0    0  0.00000000000E+00  0.00000000000E+00  0.45593999997E+02  0.45594000000E+02  0.51100000000E-03 0.  1.
         11   -1    0    0    0    0 -0.00000000000E+00 -0.00000000000E+00 -0.45593999997E+02  0.45594000000E+02  0.51100000000E-03 0. -1.
         23    2    1    2    0    0  0.00000000000E+00  0.00000000000E+00  0.00000000000E+00  0.91188000000E+02  0.91188000000E+02 0.  0.
    9900012    2    3    3    0    0 -0.28016474373E+02  0.10482219517E+02  0.21470435120E+02  0.54367090906E+02  0.40000015338E+02 0.  0.
         12    1    3    3    0    0  0.28016474373E+02 -0.10482219517E+02 -0.21470435120E+02  0.36820909094E+02  0.00000000000E+00 0. -1.
         11    1    4    4    0    0 -0.23776794507E+02 -0.70388327932E+01  0.13081505052E+02  0.28035814573E+02  0.51100000000E-03 0. -1.
        -11    1    4    4    0    0 -0.89565092639E+01  0.36459103663E+01  0.62674049169E+01  0.11523544821E+02  0.51100000000E-03 0.  1.
         12    1    4    4    0    0  0.47168293980E+01  0.13875141944E+02  0.21215251518E+01  0.14807731511E+02  0.00000000000E+00 0. -1.
</event>
<event>
 8    1  0.2531964E-006  0.9118800E+02  0.7816164E-02  0.1184000E+00
        -11   -1    0    0    0    0  0.00000000000E+00  0.00000000000E+00  0.45593999997E+02  0.45594000000E+02  0.51100000000E-03 0.  1.
         11   -1    0    0    0    0 -0.00000000000E+00 -0.00000000000E+00 -0.45593999997E+02  0.45594000000E+02  0.51100000000E-03 0. -1.
         23    2    1    2    0    0  0.00000000000E+00  0.00000000000E+00 -0.17763568394E-14  0.91188000000E+02  0.91188000000E+02 0.  0.
    9900012    2    3    3    0    0  0.17789986101E+02 -0.31200447831E+02 -0.81135213289E+01  0.54367071458E+02  0.39999971003E+02 0.  0.
        -12    1    3    3    0    0 -0.17789986101E+02  0.31200447831E+02  0.81135213289E+01  0.36820928542E+02  0.00000000000E+00 0.  1.
         11    1    4    4    0    0  0.20035460860E+02 -0.26926424482E+02 -0.33629034702E+01  0.33730715191E+02  0.51100000000E-03 0. -1.
        -11    1    4    4    0    0  0.65659057355E+01  0.35574162425E+01 -0.47450871563E+01  0.88477217877E+01  0.51100000000E-03 0.  1.
         12    1    4    4    0    0 -0.88113804948E+01 -0.78314395914E+01 -0.55307025096E-02  0.11788634479E+02  0.00000000000E+00 0. -1.
</event>
<event>
 8    1  0.2531964E-006  0.9118800E+02  0.7816164E-02  0.1184000E+00
        -11   -1    0    0    0    0  0.00000000000E+00  0.00000000000E+00  0.45593999997E+02  0.45594000000E+02  0.51100000000E-03 0.  1.
         11   -1    0    0    0    0 -0.00000000000E+00 -0.00000000000E+00 -0.45593999997E+02  0.45594000000E+02  0.51100000000E-03 0. -1.
         23    2    1    2    0    0 -0.71054273576E-14  0.35527136788E-14  0.17763568394E-14  0.91188000000E+02  0.91188000000E+02 0.  0.
    9900012    2    3    3    0    0 -0.24838750656E+02  0.23152368460E+02  0.14240235458E+02  0.54367081959E+02  0.39999994943E+02 0.  0.
         12    1    3    3    0    0  0.24838750656E+02 -0.23152368460E+02 -0.14240235458E+02  0.36820918041E+02  0.00000000000E+00 0. -1.
         11    1    4    4    0    0 -0.16742746451E+02  0.24198378191E+01 -0.58854413154E+01  0.17911270015E+02  0.51100000000E-03 0. -1.
        -11    1    4    4    0    0  0.59300731492E+01  0.83849340606E+00  0.30390497867E+01  0.67160004924E+01  0.51100000000E-03 0.  1.
        -12    1    4    4    0    0 -0.14026077354E+02  0.19894037235E+02  0.17086626987E+02  0.29739811453E+02  0.00000000000E+00 0.  1.
</event>
<event>
 8    1  0.2531964E-006  0.9118800E+02  0.7816164E-02  0.1184000E+00
        -11   -1    0    0    0    0  0.00000000000E+00  0.00000000000E+00  0.45593999997E+02  0.45594000000E+02  0.51100000000E-03 0.  1.
         11   -1    0    0    0    0 -0.00000000000E+00 -0.00000000000E+00 -0.45593999997E+02  0.45594000000E+02  0.51100000000E-03 0. -1.
         23    2    1    2    0    0  0.77715611724E-15  0.00000000000E+00 -0.17763568394E-14  0.91188000000E+02  0.91188000000E+02 0.  0.
    9900012    2    3    3    0    0 -0.92014516452E+00  0.35291533413E+02 -0.10461445556E+02  0.54367070614E+02  0.39999969078E+02 0.  0.
         12    1    3    3    0    0  0.92014516452E+00 -0.35291533413E+02  0.10461445556E+02  0.36820929386E+02  0.00000000000E+00 0. -1.
         11    1    4    4    0    0  0.66573093847E+01  0.53476890255E+01  0.64048216133E+01  0.10674234695E+02  0.51100000000E-03 0.  1.
        -11    1    4    4    0    0  0.74053958860E+01  0.21536058478E+02 -0.67407798702E+01  0.23750364555E+02  0.51100000000E-03 0. -1.
         12    1    4    4    0    0 -0.14982850435E+02  0.84077859095E+01 -0.10125487299E+02  0.19942471364E+02  0.00000000000E+00 0. -1.
</event>
<event>
 8    1  0.2531964E-006  0.9118800E+02  0.7816164E-02  0.1184000E+00
        -11   -1    0    0    0    0  0.00000000000E+00  0.00000000000E+00  0.45593999997E+02  0.45594000000E+02  0.51100000000E-03 0. -1.
         11   -1    0    0    0    0 -0.00000000000E+00 -0.00000000000E+00 -0.45593999997E+02  0.45594000000E+02  0.51100000000E-03 0.  1.
         23    2    1    2    0    0 -0.35527136788E-14  0.00000000000E+00  0.00000000000E+00  0.91188000000E+02  0.91188000000E+02 0.  0.
    9900012    2    3    3    0    0 -0.31666304845E+02 -0.67823673675E+01 -0.17522440751E+02  0.54366928593E+02  0.39999645313E+02 0.  0.
         12    1    3    3    0    0  0.31666304845E+02  0.67823673675E+01  0.17522440751E+02  0.36821071407E+02  0.00000000000E+00 0. -1.
         11    1    4    4    0    0  0.22032743220E+01 -0.83338796581E+00 -0.14695483173E+01  0.27764231950E+01  0.51100000000E-03 0. -1.
        -11    1    4    4    0    0 -0.53833575122E+01  0.97835954563E+00 -0.21139455116E+02  0.21836077678E+02  0.51100000000E-03 0.  1.
        -12    1    4    4    0    0 -0.28486221655E+02 -0.69273389473E+01  0.50865626819E+01  0.29754427721E+02  0.00000000000E+00 0.  1.
</event>
<event>
 8    1  0.2531964E-006  0.9118800E+02  0.7816164E-02  0.1184000E+00
        -11   -1    0    0    0    0  0.00000000000E+00  0.00000000000E+00  0.45593999997E+02  0.45594000000E+02  0.51100000000E-03 0. -1.
         11   -1    0    0    0    0 -0.00000000000E+00 -0.00000000000E+00 -0.45593999997E+02  0.45594000000E+02  0.51100000000E-03 0.  1.
         23    2    1    2    0    0 -0.35527136788E-14 -0.17763568394E-14  0.00000000000E+00  0.91188000000E+02  0.91188000000E+02 0.  0.
    9900012    2    3    3    0    0  0.30377074016E+02  0.13224100445E+02 -0.16066583410E+02  0.54367101575E+02  0.40000039660E+02 0.  0.
        -12    1    3    3    0    0 -0.30377074016E+02 -0.13224100445E+02  0.16066583410E+02  0.36820898425E+02  0.00000000000E+00 0.  1.
         11    1    4    4    0    0  0.15313778823E+02  0.57888976986E+01  0.40061993043E+01  0.16854459099E+02  0.51100000000E-03 0. -1.
        -11    1    4    4    0    0  0.51291808332E+01  0.16513863295E+02 -0.67120956301E+01  0.18549080974E+02  0.51100000000E-03 0.  1.
        -12    1    4    4    0    0  0.99341143604E+01 -0.90786605488E+01 -0.13360687084E+02  0.18963561502E+02  0.00000000000E+00 0.  1.
</event>
<event>
 8    1  0.2531964E-006  0.9118800E+02  0.7816164E-02  0.1184000E+00
        -11   -1    0    0    0    0  0.00000000000E+00  0.00000000000E+00  0.45593999997E+02  0.45594000000E+02  0.51100000000E-03 0.  1.
         11   -1    0    0    0    0 -0.00000000000E+00 -0.00000000000E+00 -0.45593999997E+02  0.45594000000E+02  0.51100000000E-03 0. -1.
         23    2    1    2    0    0 -0.88817841970E-15  0.00000000000E+00  0.35527136788E-14  0.91188000000E+02  0.91188000000E+02 0.  0.
    9900012    2    3    3    0    0 -0.87532254264E+00  0.26097463532E+02  0.25960316538E+02  0.54367057221E+02  0.39999938547E+02 0.  0.
         12    1    3    3    0    0  0.87532254264E+00 -0.26097463532E+02 -0.25960316538E+02  0.36820942779E+02  0.00000000000E+00 0. -1.
         11    1    4    4    0    0 -0.39950002128E+00  0.27426203978E+01  0.17651767408E+00  0.27771794439E+01  0.51100000000E-03 0. -1.
        -11    1    4    4    0    0 -0.88764985276E+01  0.76195106699E+01 -0.74518726326E+01  0.13870096429E+02  0.51100000000E-03 0.  1.
        -12    1    4    4    0    0  0.84006760063E+01  0.15735332464E+02  0.33235671497E+02  0.37719781348E+02  0.00000000000E+00 0.  1.
</event>
<event>
 8    1  0.2531964E-006  0.9118800E+02  0.7816164E-02  0.1184000E+00
        -11   -1    0    0    0    0  0.00000000000E+00  0.00000000000E+00  0.45593999997E+02  0.45594000000E+02  0.51100000000E-03 0.  1.
         11   -1    0    0    0    0 -0.00000000000E+00 -0.00000000000E+00 -0.45593999997E+02  0.45594000000E+02  0.51100000000E-03 0. -1.
         23    2    1    2    0    0 -0.35527136788E-14 -0.17763568394E-14  0.00000000000E+00  0.91188000000E+02  0.91188000000E+02 0.  0.
    9900012    2    3    3    0    0  0.12010249352E+02  0.69289408967E+01 -0.34110465094E+02  0.54367080126E+02  0.39999990764E+02 0.  0.
        -12    1    3    3    0    0 -0.12010249352E+02 -0.69289408967E+01  0.34110465094E+02  0.36820919874E+02  0.00000000000E+00 0.  1.
         11    1    4    4    0    0 -0.43673385068E+01  0.10083561342E+02  0.19831804184E+01  0.11166237495E+02  0.51100000000E-03 0. -1.
        -11    1    4    4    0    0 -0.22527580672E+01 -0.25319040737E+01 -0.11194182482E+01  0.35691111811E+01  0.51100000000E-03 0.  1.
        -12    1    4    4    0    0  0.18630345926E+02 -0.62271637157E+00 -0.34974227264E+02  0.39631731450E+02  0.00000000000E+00 0.  1.
</event>
<event>
 8    1  0.2531964E-006  0.9118800E+02  0.7816164E-02  0.1184000E+00
        -11   -1    0    0    0    0  0.00000000000E+00  0.00000000000E+00  0.45593999997E+02  0.45594000000E+02  0.51100000000E-03 0.  1.
         11   -1    0    0    0    0 -0.00000000000E+00 -0.00000000000E+00 -0.45593999997E+02  0.45594000000E+02  0.51100000000E-03 0. -1.
         23    2    1    2    0    0 -0.35527136788E-14 -0.35527136788E-14  0.00000000000E+00  0.91188000000E+02  0.91188000000E+02 0.  0.
    9900012    2    3    3    0    0 -0.12361721951E+02 -0.24329905280E+02 -0.24718859634E+02  0.54367102644E+02  0.40000042097E+02 0.  0.
        -12    1    3    3    0    0  0.12361721951E+02  0.24329905280E+02  0.24718859634E+02  0.36820897356E+02  0.00000000000E+00 0.  1.
         11    1    4    4    0    0 -0.44816930284E+01 -0.25664871455E+01  0.41729306158E+01  0.66397122569E+01  0.51100000000E-03 0. -1.
        -11    1    4    4    0    0  0.57513678434E+01 -0.80925351861E+01  0.30661889108E+01  0.10390807115E+02  0.51100000000E-03 0.  1.
         12    1    4    4    0    0 -0.13631396766E+02 -0.13670882948E+02 -0.31957979160E+02  0.37336583272E+02  0.00000000000E+00 0. -1.
</event>
<event>
 8    1  0.2531964E-006  0.9118800E+02  0.7816164E-02  0.1184000E+00
        -11   -1    0    0    0    0  0.00000000000E+00  0.00000000000E+00  0.45593999997E+02  0.45594000000E+02  0.51100000000E-03 0.  1.
         11   -1    0    0    0    0 -0.00000000000E+00 -0.00000000000E+00 -0.45593999997E+02  0.45594000000E+02  0.51100000000E-03 0. -1.
         23    2    1    2    0    0  0.00000000000E+00  0.00000000000E+00  0.00000000000E+00  0.91188000000E+02  0.91188000000E+02 0.  0.
    9900012    2    3    3    0    0  0.18016438825E+02  0.11982012851E+02  0.29792917767E+02  0.54367100378E+02  0.40000036932E+02 0.  0.
         12    1    3    3    0    0 -0.18016438825E+02 -0.11982012851E+02 -0.29792917767E+02  0.36820899622E+02  0.00000000000E+00 0. -1.
         11    1    4    4    0    0  0.11211302176E+02  0.15252979720E+02  0.10501810461E+02  0.21647972423E+02  0.51100000000E-03 0. -1.
        -11    1    4    4    0    0  0.11775570698E+02 -0.63228543102E+01  0.22418927609E+02  0.26100782887E+02  0.51100000000E-03 0.  1.
         12    1    4    4    0    0 -0.49704340493E+01  0.30518874409E+01 -0.31278203028E+01  0.66183450678E+01  0.00000000000E+00 0. -1.
</event>
<event>
 8    1  0.2531964E-006  0.9118800E+02  0.7816164E-02  0.1184000E+00
        -11   -1    0    0    0    0  0.00000000000E+00  0.00000000000E+00  0.45593999997E+02  0.45594000000E+02  0.51100000000E-03 0. -1.
         11   -1    0    0    0    0 -0.00000000000E+00 -0.00000000000E+00 -0.45593999997E+02  0.45594000000E+02  0.51100000000E-03 0.  1.
         23    2    1    2    0    0 -0.17763568394E-14  0.00000000000E+00  0.00000000000E+00  0.91188000000E+02  0.91188000000E+02 0.  0.
    9900012    2    3    3    0    0 -0.77618902452E+01  0.32108605034E+02 -0.16265693339E+02  0.54367051653E+02  0.39999925853E+02 0.  0.
         12    1    3    3    0    0  0.77618902452E+01 -0.32108605034E+02  0.16265693339E+02  0.36820948347E+02  0.00000000000E+00 0. -1.
         11    1    4    4    0    0 -0.21077998019E+02  0.13752699694E+02 -0.10211148335E+02  0.27160381072E+02  0.51100000000E-03 0. -1.
        -11    1    4    4    0    0  0.63773493368E+01  0.47560677901E+01 -0.86142891960E+01  0.11725900562E+02  0.51100000000E-03 0.  1.
         12    1    4    4    0    0  0.69387584375E+01  0.13599837550E+02  0.25597441922E+01  0.15480770018E+02  0.00000000000E+00 0. -1.
</event>
<event>
 8    1  0.2531964E-006  0.9118800E+02  0.7816164E-02  0.1184000E+00
        -11   -1    0    0    0    0  0.00000000000E+00  0.00000000000E+00  0.45593999997E+02  0.45594000000E+02  0.51100000000E-03 0.  1.
         11   -1    0    0    0    0 -0.00000000000E+00 -0.00000000000E+00 -0.45593999997E+02  0.45594000000E+02  0.51100000000E-03 0. -1.
         23    2    1    2    0    0 -0.35527136788E-14  0.00000000000E+00  0.35527136788E-14  0.91188000000E+02  0.91188000000E+02 0.  0.
    9900012    2    3    3    0    0 -0.20713067182E+02  0.66813219198E+01  0.29700310900E+02  0.54367086347E+02  0.40000004944E+02 0.  0.
         12    1    3    3    0    0  0.20713067182E+02 -0.66813219198E+01 -0.29700310900E+02  0.36820913653E+02  0.00000000000E+00 0. -1.
         11    1    4    4    0    0  0.16944650970E+00  0.93777532758E+01 -0.12198724457E+01  0.94582798471E+01  0.51100000000E-03 0. -1.
        -11    1    4    4    0    0  0.53779596931E+01  0.20749103764E+01  0.70018287621E+01  0.90693610472E+01  0.51100000000E-03 0.  1.
        -12    1    4    4    0    0 -0.26260473385E+02 -0.47713417323E+01  0.23918354584E+02  0.35839445452E+02  0.00000000000E+00 0.  1.
</event>
<event>
 8    1  0.2531964E-006  0.9118800E+02  0.7816164E-02  0.1184000E+00
        -11   -1    0    0    0    0  0.00000000000E+00  0.00000000000E+00  0.45593999997E+02  0.45594000000E+02  0.51100000000E-03 0.  1.
         11   -1    0    0    0    0 -0.00000000000E+00 -0.00000000000E+00 -0.45593999997E+02  0.45594000000E+02  0.51100000000E-03 0. -1.
         23    2    1    2    0    0  0.00000000000E+00 -0.35527136788E-14  0.00000000000E+00  0.91188000000E+02  0.91188000000E+02 0.  0.
    9900012    2    3    3    0    0  0.24093903943E+02 -0.98465529827E+01 -0.26044391343E+02  0.54367066643E+02  0.39999960025E+02 0.  0.
        -12    1    3    3    0    0 -0.24093903943E+02  0.98465529827E+01  0.26044391343E+02  0.36820933357E+02  0.00000000000E+00 0.  1.
         11    1    4    4    0    0  0.18458226820E+01 -0.26776522669E+01 -0.64597260895E+00  0.33157448497E+01  0.51100000000E-03 0. -1.
        -11    1    4    4    0    0  0.24312538283E+02  0.10417096838E+02 -0.17100117975E+02  0.31496499159E+02  0.51100000000E-03 0.  1.
        -12    1    4    4    0    0 -0.20644570211E+01 -0.17585997553E+02 -0.82983007595E+01  0.19554822634E+02  0.00000000000E+00 0.  1.
</event>
<event>
 8    1  0.2531964E-006  0.9118800E+02  0.7816164E-02  0.1184000E+00
        -11   -1    0    0    0    0  0.00000000000E+00  0.00000000000E+00  0.45593999997E+02  0.45594000000E+02  0.51100000000E-03 0. -1.
         11   -1    0    0    0    0 -0.00000000000E+00 -0.00000000000E+00 -0.45593999997E+02  0.45594000000E+02  0.51100000000E-03 0.  1.
         23    2    1    2    0    0  0.17763568394E-14 -0.35527136788E-14 -0.35527136788E-14  0.91188000000E+02  0.91188000000E+02 0.  0.
    9900012    2    3    3    0    0 -0.14657937147E+02  0.28376137594E+02  0.18322654769E+02  0.54367082250E+02  0.39999995606E+02 0.  0.
        -12    1    3    3    0    0  0.14657937147E+02 -0.28376137594E+02 -0.18322654769E+02  0.36820917750E+02  0.00000000000E+00 0.  1.
         11    1    4    4    0    0 -0.18882146806E+02  0.20483410906E+02  0.20681261281E+02  0.34696111580E+02  0.51100000000E-03 0. -1.
        -11    1    4    4    0    0  0.28025839137E+01  0.58758939371E+00  0.70882388168E+01  0.76447935010E+01  0.51100000000E-03 0.  1.
         12    1    4    4    0    0  0.14216257459E+01  0.73051372939E+01 -0.94468453282E+01  0.12026177169E+02  0.00000000000E+00 0. -1.
</event>
<event>
 8    1  0.2531964E-006  0.9118800E+02  0.7816164E-02  0.1184000E+00
        -11   -1    0    0    0    0  0.00000000000E+00  0.00000000000E+00  0.45593999997E+02  0.45594000000E+02  0.51100000000E-03 0.  1.
         11   -1    0    0    0    0 -0.00000000000E+00 -0.00000000000E+00 -0.45593999997E+02  0.45594000000E+02  0.51100000000E-03 0. -1.
         23    2    1    2    0    0  0.00000000000E+00  0.00000000000E+00  0.00000000000E+00  0.91188000000E+02  0.91188000000E+02 0.  0.
    9900012    2    3    3    0    0  0.28457265153E+02  0.12072247215E+02 -0.20005622850E+02  0.54367081511E+02  0.39999993919E+02 0.  0.
        -12    1    3    3    0    0 -0.28457265153E+02 -0.12072247215E+02  0.20005622850E+02  0.36820918489E+02  0.00000000000E+00 0.  1.
         11    1    4    4    0    0  0.10698822442E+02  0.83373875909E+01  0.20188376290E+01  0.13713224972E+02  0.51100000000E-03 0. -1.
        -11    1    4    4    0    0 -0.78899823972E+01 -0.10007232445E+01 -0.36579739453E+01  0.87540872103E+01  0.51100000000E-03 0.  1.
         12    1    4    4    0    0  0.25648425108E+02  0.47355828684E+01 -0.18366486534E+02  0.31899769328E+02  0.00000000000E+00 0. -1.
</event>
<event>
 8    1  0.2531964E-006  0.9118800E+02  0.7816164E-02  0.1184000E+00
        -11   -1    0    0    0    0  0.00000000000E+00  0.00000000000E+00  0.45593999997E+02  0.45594000000E+02  0.51100000000E-03 0.  1.
         11   -1    0    0    0    0 -0.00000000000E+00 -0.00000000000E+00 -0.45593999997E+02  0.45594000000E+02  0.51100000000E-03 0. -1.
         23    2    1    2    0    0  0.35527136788E-14  0.35527136788E-14  0.00000000000E+00  0.91188000000E+02  0.91188000000E+02 0.  0.
    9900012    2    3    3    0    0 -0.24107005206E+02  0.22646096567E+02 -0.16179793289E+02  0.54367094245E+02  0.40000022951E+02 0.  0.
        -12    1    3    3    0    0  0.24107005206E+02 -0.22646096567E+02  0.16179793289E+02  0.36820905755E+02  0.00000000000E+00 0.  1.
         11    1    4    4    0    0 -0.24084477476E+02  0.51550512297E+01 -0.21533385658E+02  0.32715795980E+02  0.51100000000E-03 0. -1.
        -11    1    4    4    0    0 -0.44655735420E+01  0.23155424951E+01  0.23665156049E+01  0.55590898962E+01  0.51100000000E-03 0.  1.
        -12    1    4    4    0    0  0.44430458112E+01  0.15175502842E+02  0.29870767649E+01  0.16092208369E+02  0.00000000000E+00 0.  1.
</event>
<event>
 8    1  0.2531964E-006  0.9118800E+02  0.7816164E-02  0.1184000E+00
        -11   -1    0    0    0    0  0.00000000000E+00  0.00000000000E+00  0.45593999997E+02  0.45594000000E+02  0.51100000000E-03 0. -1.
         11   -1    0    0    0    0 -0.00000000000E+00 -0.00000000000E+00 -0.45593999997E+02  0.45594000000E+02  0.51100000000E-03 0.  1.
         23    2    1    2    0    0  0.00000000000E+00  0.35527136788E-14  0.00000000000E+00  0.91188000000E+02  0.91188000000E+02 0.  0.
    9900012    2    3    3    0    0 -0.21822478362E+02  0.29347038967E+02  0.42791166216E+01  0.54367080715E+02  0.39999992105E+02 0.  0.
         12    1    3    3    0    0  0.21822478362E+02 -0.29347038967E+02 -0.42791166216E+01  0.36820919285E+02  0.00000000000E+00 0. -1.
         11    1    4    4    0    0 -0.17224133413E+01 -0.72600213331E+01  0.11527620355E+01  0.75500647710E+01  0.51100000000E-03 0. -1.
        -11    1    4    4    0    0 -0.14539667445E+02  0.66867092342E+01  0.35011735455E+01  0.16382070267E+02  0.51100000000E-03 0.  1.
         12    1    4    4    0    0 -0.55603975758E+01  0.29920351066E+02 -0.37481895934E+00  0.30434945677E+02  0.00000000000E+00 0. -1.
</event>
<event>
 8    1  0.2531964E-006  0.9118800E+02  0.7816164E-02  0.1184000E+00
        -11   -1    0    0    0    0  0.00000000000E+00  0.00000000000E+00  0.45593999997E+02  0.45594000000E+02  0.51100000000E-03 0. -1.
         11   -1    0    0    0    0 -0.00000000000E+00 -0.00000000000E+00 -0.45593999997E+02  0.45594000000E+02  0.51100000000E-03 0.  1.
         23    2    1    2    0    0  0.35527136788E-14 -0.88817841970E-15  0.00000000000E+00  0.91188000000E+02  0.91188000000E+02 0.  0.
    9900012    2    3    3    0    0  0.24421044769E+02 -0.42026984722E+01  0.27234707543E+02  0.54367090220E+02  0.40000013775E+02 0.  0.
        -12    1    3    3    0    0 -0.24421044769E+02  0.42026984722E+01 -0.27234707543E+02  0.36820909780E+02  0.00000000000E+00 0.  1.
         11    1    4    4    0    0  0.87883966489E+01  0.68338896978E+01  0.15504932380E+02  0.19087715747E+02  0.51100000000E-03 0. -1.
        -11    1    4    4    0    0 -0.61201890901E+01  0.29791777533E+01 -0.14351565040E+00  0.68082899166E+01  0.51100000000E-03 0.  1.
        -12    1    4    4    0    0  0.21752837210E+02 -0.14015765923E+02  0.11873290813E+02  0.28471084557E+02  0.00000000000E+00 0.  1.
</event>
<event>
 8    1  0.2531964E-006  0.9118800E+02  0.7816164E-02  0.1184000E+00
        -11   -1    0    0    0    0  0.00000000000E+00  0.00000000000E+00  0.45593999997E+02  0.45594000000E+02  0.51100000000E-03 0.  1.
         11   -1    0    0    0    0 -0.00000000000E+00 -0.00000000000E+00 -0.45593999997E+02  0.45594000000E+02  0.51100000000E-03 0. -1.
         23    2    1    2    0    0  0.00000000000E+00 -0.35527136788E-14  0.00000000000E+00  0.91188000000E+02  0.91188000000E+02 0.  0.
    9900012    2    3    3    0    0  0.33384217048E+02 -0.93643917957E+01 -0.12392870977E+02  0.54367068010E+02  0.39999963142E+02 0.  0.
        -12    1    3    3    0    0 -0.33384217048E+02  0.93643917957E+01  0.12392870977E+02  0.36820931990E+02  0.00000000000E+00 0.  1.
         11    1    4    4    0    0  0.38714120530E+01 -0.14666116276E+02  0.96741495754E+00  0.15199298992E+02  0.51100000000E-03 0.  1.
        -11    1    4    4    0    0  0.20999369878E+02  0.98416392033E+01 -0.17106449573E+02  0.28817737849E+02  0.51100000000E-03 0. -1.
        -12    1    4    4    0    0  0.85134351164E+01 -0.45399147235E+01  0.37461636388E+01  0.10350031168E+02  0.00000000000E+00 0.  1.
</event>
<event>
 8    1  0.2531964E-006  0.9118800E+02  0.7816164E-02  0.1184000E+00
        -11   -1    0    0    0    0  0.00000000000E+00  0.00000000000E+00  0.45593999997E+02  0.45594000000E+02  0.51100000000E-03 0. -1.
         11   -1    0    0    0    0 -0.00000000000E+00 -0.00000000000E+00 -0.45593999997E+02  0.45594000000E+02  0.51100000000E-03 0.  1.
         23    2    1    2    0    0 -0.35527136788E-14 -0.35527136788E-14 -0.35527136788E-14  0.91188000000E+02  0.91188000000E+02 0.  0.
    9900012    2    3    3    0    0 -0.24793959974E+02 -0.16190304697E+02 -0.21884096294E+02  0.54367080837E+02  0.39999992385E+02 0.  0.
         12    1    3    3    0    0  0.24793959974E+02  0.16190304697E+02  0.21884096294E+02  0.36820919163E+02  0.00000000000E+00 0. -1.
         11    1    4    4    0    0  0.61100293299E+01 -0.25595107902E+01  0.21512199536E+01  0.69650054880E+01  0.51100000000E-03 0.  1.
        -11    1    4    4    0    0 -0.24068866525E+02 -0.12005511476E+02 -0.28412546622E+02  0.39124358748E+02  0.51100000000E-03 0. -1.
         12    1    4    4    0    0 -0.68351227787E+01 -0.16252824306E+01  0.43772303744E+01  0.82777166012E+01  0.00000000000E+00 0. -1.
</event>
<event>
 8    1  0.2531964E-006  0.9118800E+02  0.7816164E-02  0.1184000E+00
        -11   -1    0    0    0    0  0.00000000000E+00  0.00000000000E+00  0.45593999997E+02  0.45594000000E+02  0.51100000000E-03 0.  1.
         11   -1    0    0    0    0 -0.00000000000E+00 -0.00000000000E+00 -0.45593999997E+02  0.45594000000E+02  0.51100000000E-03 0. -1.
         23    2    1    2    0    0  0.27755575616E-16  0.00000000000E+00  0.88817841970E-15  0.91188000000E+02  0.91188000000E+02 0.  0.
    9900012    2    3    3    0    0 -0.20287988318E+00  0.36506374591E+02  0.47984591477E+01  0.54367058184E+02  0.39999940742E+02 0.  0.
        -12    1    3    3    0    0  0.20287988318E+00 -0.36506374591E+02 -0.47984591477E+01  0.36820941816E+02  0.00000000000E+00 0.  1.
         11    1    4    4    0    0 -0.11294233615E+02  0.29110786424E+02  0.86189210522E+01  0.32392644220E+02  0.51100000000E-03 0. -1.
        -11    1    4    4    0    0  0.14698923845E+02  0.22563623048E+01 -0.51855613050E+00  0.14880135543E+02  0.51100000000E-03 0.  1.
        -12    1    4    4    0    0 -0.36075701131E+01  0.51392258617E+01 -0.33019057741E+01  0.70942784213E+01  0.00000000000E+00 0.  1.
</event>
<event>
 8    1  0.2531964E-006  0.9118800E+02  0.7816164E-02  0.1184000E+00
        -11   -1    0    0    0    0  0.00000000000E+00  0.00000000000E+00  0.45593999997E+02  0.45594000000E+02  0.51100000000E-03 0.  1.
         11   -1    0    0    0    0 -0.00000000000E+00 -0.00000000000E+00 -0.45593999997E+02  0.45594000000E+02  0.51100000000E-03 0. -1.
         23    2    1    2    0    0 -0.22204460493E-15  0.00000000000E+00 -0.88817841970E-15  0.91188000000E+02  0.91188000000E+02 0.  0.
    9900012    2    3    3    0    0  0.12094960883E+01  0.36380246271E+02 -0.55492860899E+01  0.54367085079E+02  0.40000002054E+02 0.  0.
         12    1    3    3    0    0 -0.12094960883E+01 -0.36380246271E+02  0.55492860899E+01  0.36820914921E+02  0.00000000000E+00 0. -1.
         11    1    4    4    0    0 -0.16432984137E+01  0.42148000823E+01 -0.35527095657E+01  0.57521052607E+01  0.51100000000E-03 0. -1.
        -11    1    4    4    0    0  0.19066467901E+02  0.23183314773E+02 -0.19439623325E+01  0.30079482573E+02  0.51100000000E-03 0.  1.
        -12    1    4    4    0    0 -0.16213673399E+02  0.89821314159E+01 -0.52614191644E-01  0.18535497245E+02  0.00000000000E+00 0.  1.
</event>
<event>
 8    1  0.2531964E-006  0.9118800E+02  0.7816164E-02  0.1184000E+00
        -11   -1    0    0    0    0  0.00000000000E+00  0.00000000000E+00  0.45593999997E+02  0.45594000000E+02  0.51100000000E-03 0.  1.
         11   -1    0    0    0    0 -0.00000000000E+00 -0.00000000000E+00 -0.45593999997E+02  0.45594000000E+02  0.51100000000E-03 0. -1.
         23    2    1    2    0    0  0.35527136788E-14  0.44408920985E-15  0.00000000000E+00  0.91188000000E+02  0.91188000000E+02 0.  0.
    9900012    2    3    3    0    0 -0.31334666053E+02 -0.22686532408E+01 -0.19203439716E+02  0.54367079573E+02  0.39999989503E+02 0.  0.
        -12    1    3    3    0    0  0.31334666053E+02  0.22686532408E+01  0.19203439716E+02  0.36820920427E+02  0.00000000000E+00 0.  1.
         11    1    4    4    0    0 -0.88861731990E+00  0.77575090593E+01 -0.34374595105E+01  0.85313958819E+01  0.51100000000E-03 0. -1.
        -11    1    4    4    0    0 -0.19419824480E+02  0.72693707766E+01 -0.13786569057E+01  0.20781579090E+02  0.51100000000E-03 0.  1.
         12    1    4    4    0    0 -0.11026224252E+02 -0.17295533077E+02 -0.14387323299E+02  0.25054104602E+02  0.00000000000E+00 0. -1.
</event>
<event>
 8    1  0.2531964E-006  0.9118800E+02  0.7816164E-02  0.1184000E+00
        -11   -1    0    0    0    0  0.00000000000E+00  0.00000000000E+00  0.45593999997E+02  0.45594000000E+02  0.51100000000E-03 0.  1.
         11   -1    0    0    0    0 -0.00000000000E+00 -0.00000000000E+00 -0.45593999997E+02  0.45594000000E+02  0.51100000000E-03 0. -1.
         23    2    1    2    0    0  0.00000000000E+00  0.33306690739E-15  0.00000000000E+00  0.91188000000E+02  0.91188000000E+02 0.  0.
    9900012    2    3    3    0    0  0.28308870038E+01 -0.18391902149E+00 -0.36711466752E+02  0.54367088299E+02  0.40000009395E+02 0.  0.
        -12    1    3    3    0    0 -0.28308870038E+01  0.18391902149E+00  0.36711466752E+02  0.36820911701E+02  0.00000000000E+00 0.  1.
         11    1    4    4    0    0  0.81234212981E+01  0.41231833099E+01 -0.32876779047E+02  0.34115586100E+02  0.51100000000E-03 0. -1.
        -11    1    4    4    0    0 -0.41091561440E+01  0.48559597875E+01 -0.79124703165E+01  0.10152472430E+02  0.51100000000E-03 0.  1.
        -12    1    4    4    0    0 -0.11833781504E+01 -0.91630621188E+01  0.40777826115E+01  0.10099029769E+02  0.00000000000E+00 0.  1.
</event>
<event>
 8    1  0.2531964E-006  0.9118800E+02  0.7816164E-02  0.1184000E+00
        -11   -1    0    0    0    0  0.00000000000E+00  0.00000000000E+00  0.45593999997E+02  0.45594000000E+02  0.51100000000E-03 0.  1.
         11   -1    0    0    0    0 -0.00000000000E+00 -0.00000000000E+00 -0.45593999997E+02  0.45594000000E+02  0.51100000000E-03 0. -1.
         23    2    1    2    0    0 -0.17763568394E-14  0.00000000000E+00  0.00000000000E+00  0.91188000000E+02  0.91188000000E+02 0.  0.
    9900012    2    3    3    0    0  0.87775460357E+01 -0.26221635445E+02  0.24313809918E+02  0.54367070727E+02  0.39999969337E+02 0.  0.
         12    1    3    3    0    0 -0.87775460357E+01  0.26221635445E+02 -0.24313809918E+02  0.36820929273E+02  0.00000000000E+00 0. -1.
         11    1    4    4    0    0 -0.75598977498E+00 -0.71181467997E+01 -0.16174013530E+00  0.71600066015E+01  0.51100000000E-03 0. -1.
        -11    1    4    4    0    0  0.76068740114E+01  0.92131359110E+00 -0.66503414039E+01  0.10145954465E+02  0.51100000000E-03 0.  1.
        -12    1    4    4    0    0  0.19266617993E+01 -0.20024802236E+02  0.31125891457E+02  0.37061109661E+02  0.00000000000E+00 0.  1.
</event>
<event>
 8    1  0.2531964E-006  0.9118800E+02  0.7816164E-02  0.1184000E+00
        -11   -1    0    0    0    0  0.00000000000E+00  0.00000000000E+00  0.45593999997E+02  0.45594000000E+02  0.51100000000E-03 0. -1.
         11   -1    0    0    0    0 -0.00000000000E+00 -0.00000000000E+00 -0.45593999997E+02  0.45594000000E+02  0.51100000000E-03 0.  1.
         23    2    1    2    0    0  0.88817841970E-15  0.13322676296E-14  0.00000000000E+00  0.91188000000E+02  0.91188000000E+02 0.  0.
    9900012    2    3    3    0    0 -0.24462797734E+01  0.36960381489E+01  0.36553263323E+02  0.54366999982E+02  0.39999808059E+02 0.  0.
        -12    1    3    3    0    0  0.24462797734E+01 -0.36960381489E+01 -0.36553263323E+02  0.36821000018E+02  0.00000000000E+00 0.  1.
         11    1    4    4    0    0 -0.40054321426E+01 -0.10243844631E+02  0.89720274370E+01  0.14194263491E+02  0.51100000000E-03 0. -1.
        -11    1    4    4    0    0 -0.54231674052E+01  0.14923977880E+02  0.52024280214E+01  0.16709312315E+02  0.51100000000E-03 0.  1.
        -12    1    4    4    0    0  0.69823197744E+01 -0.98409510020E+00  0.22378807865E+02  0.23463424176E+02  0.00000000000E+00 0.  1.
</event>
<event>
 8    1  0.2531964E-006  0.9118800E+02  0.7816164E-02  0.1184000E+00
        -11   -1    0    0    0    0  0.00000000000E+00  0.00000000000E+00  0.45593999997E+02  0.45594000000E+02  0.51100000000E-03 0.  1.
         11   -1    0    0    0    0 -0.00000000000E+00 -0.00000000000E+00 -0.45593999997E+02  0.45594000000E+02  0.51100000000E-03 0. -1.
         23    2    1    2    0    0 -0.88817841970E-15 -0.17763568394E-14  0.00000000000E+00  0.91188000000E+02  0.91188000000E+02 0.  0.
    9900012    2    3    3    0    0  0.65217335689E+01 -0.15741779488E+02  0.32641132884E+02  0.54367079504E+02  0.39999989346E+02 0.  0.
         12    1    3    3    0    0 -0.65217335689E+01  0.15741779488E+02 -0.32641132884E+02  0.36820920496E+02  0.00000000000E+00 0. -1.
         11    1    4    4    0    0  0.53103261844E+01 -0.89554221107E+01  0.43711093068E+01  0.11291844234E+02  0.51100000000E-03 0. -1.
        -11    1    4    4    0    0 -0.10431062994E+01  0.11194500637E+02  0.20453058459E+02  0.23339505476E+02  0.51100000000E-03 0.  1.
        -12    1    4    4    0    0  0.22545136839E+01 -0.17980858014E+02  0.78169651182E+01  0.19735729794E+02  0.00000000000E+00 0.  1.
</event>
<event>
 8    1  0.2531964E-006  0.9118800E+02  0.7816164E-02  0.1184000E+00
        -11   -1    0    0    0    0  0.00000000000E+00  0.00000000000E+00  0.45593999997E+02  0.45594000000E+02  0.51100000000E-03 0.  1.
         11   -1    0    0    0    0 -0.00000000000E+00 -0.00000000000E+00 -0.45593999997E+02  0.45594000000E+02  0.51100000000E-03 0. -1.
         23    2    1    2    0    0  0.00000000000E+00 -0.17763568394E-14  0.00000000000E+00  0.91188000000E+02  0.91188000000E+02 0.  0.
    9900012    2    3    3    0    0  0.34906862029E+02  0.31462253244E+01  0.11286809546E+02  0.54367084473E+02  0.40000000673E+02 0.  0.
         12    1    3    3    0    0 -0.34906862029E+02 -0.31462253244E+01 -0.11286809546E+02  0.36820915527E+02  0.00000000000E+00 0. -1.
         11    1    4    4    0    0 -0.36161647280E+01 -0.49695826226E+01  0.24409725172E+01  0.66129982515E+01  0.51100000000E-03 0. -1.
        -11    1    4    4    0    0  0.21833670501E+02 -0.39559654872E+01 -0.52414903385E+01  0.22799825695E+02  0.51100000000E-03 0.  1.
         12    1    4    4    0    0  0.16689356257E+02  0.12071773434E+02  0.14087327367E+02  0.24954260527E+02  0.00000000000E+00 0. -1.
</event>
<event>
 8    1  0.2531964E-006  0.9118800E+02  0.7816164E-02  0.1184000E+00
        -11   -1    0    0    0    0  0.00000000000E+00  0.00000000000E+00  0.45593999997E+02  0.45594000000E+02  0.51100000000E-03 0.  1.
         11   -1    0    0    0    0 -0.00000000000E+00 -0.00000000000E+00 -0.45593999997E+02  0.45594000000E+02  0.51100000000E-03 0. -1.
         23    2    1    2    0    0  0.17763568394E-14 -0.17763568394E-14 -0.71054273576E-14  0.91188000000E+02  0.91188000000E+02 0.  0.
    9900012    2    3    3    0    0 -0.13288193000E+02 -0.99979574542E+01  0.32852013981E+02  0.54366945574E+02  0.39999684024E+02 0.  0.
         12    1    3    3    0    0  0.13288193000E+02  0.99979574542E+01 -0.32852013981E+02  0.36821054426E+02  0.00000000000E+00 0. -1.
         11    1    4    4    0    0  0.49292321460E+01  0.19831059945E+01  0.23196300248E+02  0.23797024696E+02  0.51100000000E-03 0. -1.
        -11    1    4    4    0    0 -0.86522240680E+01 -0.19270242442E+01  0.13518144350E+02  0.16165229064E+02  0.51100000000E-03 0.  1.
         12    1    4    4    0    0 -0.95652010779E+01 -0.10054039204E+02 -0.38624306171E+01  0.14404691814E+02  0.00000000000E+00 0. -1.
</event>
<event>
 8    1  0.2531964E-006  0.9118800E+02  0.7816164E-02  0.1184000E+00
        -11   -1    0    0    0    0  0.00000000000E+00  0.00000000000E+00  0.45593999997E+02  0.45594000000E+02  0.51100000000E-03 0.  1.
         11   -1    0    0    0    0 -0.00000000000E+00 -0.00000000000E+00 -0.45593999997E+02  0.45594000000E+02  0.51100000000E-03 0. -1.
         23    2    1    2    0    0  0.00000000000E+00  0.00000000000E+00  0.00000000000E+00  0.91188000000E+02  0.91188000000E+02 0.  0.
    9900012    2    3    3    0    0 -0.14862472869E+02 -0.71643899317E+01  0.32917495563E+02  0.54367039977E+02  0.39999899234E+02 0.  0.
         12    1    3    3    0    0  0.14862472869E+02  0.71643899317E+01 -0.32917495563E+02  0.36820960023E+02  0.00000000000E+00 0. -1.
         11    1    4    4    0    0 -0.37200236539E+01 -0.22003070399E+01 -0.59505593358E+01  0.73545281103E+01  0.51100000000E-03 0. -1.
        -11    1    4    4    0    0 -0.10710301208E+02 -0.72776839107E+01  0.41504957254E+02  0.43478002622E+02  0.51100000000E-03 0.  1.
        -12    1    4    4    0    0 -0.43214800683E+00  0.23136010188E+01 -0.26369023544E+01  0.35345092447E+01  0.00000000000E+00 0.  1.
</event>
<event>
 8    1  0.2531964E-006  0.9118800E+02  0.7816164E-02  0.1184000E+00
        -11   -1    0    0    0    0  0.00000000000E+00  0.00000000000E+00  0.45593999997E+02  0.45594000000E+02  0.51100000000E-03 0.  1.
         11   -1    0    0    0    0 -0.00000000000E+00 -0.00000000000E+00 -0.45593999997E+02  0.45594000000E+02  0.51100000000E-03 0. -1.
         23    2    1    2    0    0  0.00000000000E+00  0.00000000000E+00  0.44408920985E-15  0.91188000000E+02  0.91188000000E+02 0.  0.
    9900012    2    3    3    0    0  0.10282605143E+02  0.35258501509E+02  0.26242836265E+01  0.54367071688E+02  0.39999971527E+02 0.  0.
         12    1    3    3    0    0 -0.10282605143E+02 -0.35258501509E+02 -0.26242836265E+01  0.36820928312E+02  0.00000000000E+00 0. -1.
         11    1    4    4    0    0 -0.21773965837E+01 -0.35957263058E+01 -0.28803621172E+01  0.50957619387E+01  0.51100000000E-03 0. -1.
        -11    1    4    4    0    0 -0.70948340146E+01  0.62264000950E+01 -0.36928238800E+01  0.10136156881E+02  0.51100000000E-03 0.  1.
        -12    1    4    4    0    0  0.19554835741E+02  0.32627827720E+02  0.91974696237E+01  0.39135152869E+02  0.00000000000E+00 0.  1.
</event>
<event>
 8    1  0.2531964E-006  0.9118800E+02  0.7816164E-02  0.1184000E+00
        -11   -1    0    0    0    0  0.00000000000E+00  0.00000000000E+00  0.45593999997E+02  0.45594000000E+02  0.51100000000E-03 0.  1.
         11   -1    0    0    0    0 -0.00000000000E+00 -0.00000000000E+00 -0.45593999997E+02  0.45594000000E+02  0.51100000000E-03 0. -1.
         23    2    1    2    0    0  0.00000000000E+00  0.00000000000E+00  0.00000000000E+00  0.91188000000E+02  0.91188000000E+02 0.  0.
    9900012    2    3    3    0    0 -0.26536940965E+02 -0.59147828694E+01 -0.24831131372E+02  0.54367095919E+02  0.40000026766E+02 0.  0.
        -12    1    3    3    0    0  0.26536940965E+02  0.59147828694E+01  0.24831131372E+02  0.36820904081E+02  0.00000000000E+00 0.  1.
         11    1    4    4    0    0 -0.28860482937E+02  0.20995204502E+01 -0.16980945710E+02  0.33551273879E+02  0.51100000000E-03 0. -1.
        -11    1    4    4    0    0 -0.64751071181E+01 -0.66571693468E+01 -0.55057915313E+00  0.93031206360E+01  0.51100000000E-03 0.  1.
        -12    1    4    4    0    0  0.87986490902E+01 -0.13571339728E+01 -0.72996065086E+01  0.11512701404E+02  0.00000000000E+00 0.  1.
</event>
<event>
 8    1  0.2531964E-006  0.9118800E+02  0.7816164E-02  0.1184000E+00
        -11   -1    0    0    0    0  0.00000000000E+00  0.00000000000E+00  0.45593999997E+02  0.45594000000E+02  0.51100000000E-03 0.  1.
         11   -1    0    0    0    0 -0.00000000000E+00 -0.00000000000E+00 -0.45593999997E+02  0.45594000000E+02  0.51100000000E-03 0. -1.
         23    2    1    2    0    0  0.35527136788E-14 -0.35527136788E-14  0.35527136788E-14  0.91188000000E+02  0.91188000000E+02 0.  0.
    9900012    2    3    3    0    0 -0.24299918710E+02  0.21930080363E+02 -0.16863117870E+02  0.54367092646E+02  0.40000019305E+02 0.  0.
        -12    1    3    3    0    0  0.24299918710E+02 -0.21930080363E+02  0.16863117870E+02  0.36820907354E+02  0.00000000000E+00 0.  1.
         11    1    4    4    0    0  0.69209150459E+00 -0.44246124857E+01 -0.91490312322E+01  0.10186312338E+02  0.51100000000E-03 0. -1.
        -11    1    4    4    0    0 -0.14770192847E+02  0.10752459196E+01  0.25841675349E+01  0.15033052671E+02  0.51100000000E-03 0.  1.
        -12    1    4    4    0    0 -0.10221817368E+02  0.25279446930E+02 -0.10298254173E+02  0.29147727637E+02  0.00000000000E+00 0.  1.
</event>
<event>
 8    1  0.2531964E-006  0.9118800E+02  0.7816164E-02  0.1184000E+00
        -11   -1    0    0    0    0  0.00000000000E+00  0.00000000000E+00  0.45593999997E+02  0.45594000000E+02  0.51100000000E-03 0.  1.
         11   -1    0    0    0    0 -0.00000000000E+00 -0.00000000000E+00 -0.45593999997E+02  0.45594000000E+02  0.51100000000E-03 0. -1.
         23    2    1    2    0    0  0.00000000000E+00  0.00000000000E+00  0.00000000000E+00  0.91188000000E+02  0.91188000000E+02 0.  0.
    9900012    2    3    3    0    0  0.20070578323E+02 -0.11566715432E+02  0.28620941289E+02  0.54367145849E+02  0.40000140593E+02 0.  0.
         12    1    3    3    0    0 -0.20070578323E+02  0.11566715432E+02 -0.28620941289E+02  0.36820854151E+02  0.00000000000E+00 0. -1.
         11    1    4    4    0    0  0.52611850239E+01  0.24525858179E+01  0.46667301560E+01  0.74480612014E+01  0.51100000000E-03 0. -1.
        -11    1    4    4    0    0  0.17376269918E+02 -0.15160952195E+02  0.31401517762E+02  0.38959524454E+02  0.51100000000E-03 0.  1.
        -12    1    4    4    0    0 -0.25668766184E+01  0.11416509453E+01 -0.74473066287E+01  0.79595601937E+01  0.00000000000E+00 0.  1.
</event>
<event>
 8    1  0.2531964E-006  0.9118800E+02  0.7816164E-02  0.1184000E+00
        -11   -1    0    0    0    0  0.00000000000E+00  0.00000000000E+00  0.45593999997E+02  0.45594000000E+02  0.51100000000E-03 0.  1.
         11   -1    0    0    0    0 -0.00000000000E+00 -0.00000000000E+00 -0.45593999997E+02  0.45594000000E+02  0.51100000000E-03 0. -1.
         23    2    1    2    0    0 -0.88817841970E-15  0.00000000000E+00  0.71054273576E-14  0.91188000000E+02  0.91188000000E+02 0.  0.
    9900012    2    3    3    0    0 -0.64679469048E+01 -0.27121052578E+02  0.24049824725E+02  0.54367083398E+02  0.39999998222E+02 0.  0.
         12    1    3    3    0    0  0.64679469048E+01  0.27121052578E+02 -0.24049824725E+02  0.36820916602E+02  0.00000000000E+00 0. -1.
         11    1    4    4    0    0  0.65461130662E+01 -0.13098251723E+02  0.29263429766E+01  0.14932490682E+02  0.51100000000E-03 0. -1.
        -11    1    4    4    0    0 -0.17800875419E+02 -0.15903328482E+02  0.23738861530E+02  0.33664826890E+02  0.51100000000E-03 0.  1.
         12    1    4    4    0    0  0.47868154481E+01  0.18805276269E+01 -0.26153797822E+01  0.57697658267E+01  0.00000000000E+00 0. -1.
</event>
<event>
 8    1  0.2531964E-006  0.9118800E+02  0.7816164E-02  0.1184000E+00
        -11   -1    0    0    0    0  0.00000000000E+00  0.00000000000E+00  0.45593999997E+02  0.45594000000E+02  0.51100000000E-03 0. -1.
         11   -1    0    0    0    0 -0.00000000000E+00 -0.00000000000E+00 -0.45593999997E+02  0.45594000000E+02  0.51100000000E-03 0.  1.
         23    2    1    2    0    0  0.00000000000E+00  0.00000000000E+00 -0.35527136788E-14  0.91188000000E+02  0.91188000000E+02 0.  0.
    9900012    2    3    3    0    0 -0.66001872217E+01  0.30796754338E+02  0.19072716004E+02  0.54367203636E+02  0.40000272327E+02 0.  0.
        -12    1    3    3    0    0  0.66001872217E+01 -0.30796754338E+02 -0.19072716004E+02  0.36820796364E+02  0.00000000000E+00 0.  1.
         11    1    4    4    0    0  0.54378662546E+01  0.17832566277E+02  0.25872502486E+02  0.31889766299E+02  0.51100000000E-03 0. -1.
        -11    1    4    4    0    0 -0.43220061579E+01  0.95231836339E+01  0.15813867547E+01  0.10576934720E+02  0.51100000000E-03 0.  1.
        -12    1    4    4    0    0 -0.77160473185E+01  0.34410044273E+01 -0.83811732372E+01  0.11900502616E+02  0.00000000000E+00 0.  1.
</event>
<event>
 8    1  0.2531964E-006  0.9118800E+02  0.7816164E-02  0.1184000E+00
        -11   -1    0    0    0    0  0.00000000000E+00  0.00000000000E+00  0.45593999997E+02  0.45594000000E+02  0.51100000000E-03 0. -1.
         11   -1    0    0    0    0 -0.00000000000E+00 -0.00000000000E+00 -0.45593999997E+02  0.45594000000E+02  0.51100000000E-03 0.  1.
         23    2    1    2    0    0  0.00000000000E+00  0.00000000000E+00  0.35527136788E-14  0.91188000000E+02  0.91188000000E+02 0.  0.
    9900012    2    3    3    0    0  0.23973140754E+02  0.30026982672E+01 -0.27785846982E+02  0.54367068901E+02  0.39999965173E+02 0.  0.
        -12    1    3    3    0    0 -0.23973140754E+02 -0.30026982672E+01  0.27785846982E+02  0.36820931099E+02  0.00000000000E+00 0.  1.
         11    1    4    4    0    0  0.14954228187E+02 -0.30038876268E+01 -0.82690263290E+01  0.17350189574E+02  0.51100000000E-03 0. -1.
        -11    1    4    4    0    0 -0.56935721005E+00 -0.21242804631E+01  0.71793887532E+01  0.75086855207E+01  0.51100000000E-03 0.  1.
        -12    1    4    4    0    0  0.95882697766E+01  0.81308663570E+01 -0.26696209407E+02  0.29508193806E+02  0.00000000000E+00 0.  1.
</event>
<event>
 8    1  0.2531964E-006  0.9118800E+02  0.7816164E-02  0.1184000E+00
        -11   -1    0    0    0    0  0.00000000000E+00  0.00000000000E+00  0.45593999997E+02  0.45594000000E+02  0.51100000000E-03 0. -1.
         11   -1    0    0    0    0 -0.00000000000E+00 -0.00000000000E+00 -0.45593999997E+02  0.45594000000E+02  0.51100000000E-03 0.  1.
         23    2    1    2    0    0  0.35527136788E-14  0.00000000000E+00 -0.71054273576E-14  0.91188000000E+02  0.91188000000E+02 0.  0.
    9900012    2    3    3    0    0 -0.68841693167E+01 -0.94342813644E+01 -0.34919648020E+02  0.54367091947E+02  0.40000017711E+02 0.  0.
         12    1    3    3    0    0  0.68841693167E+01  0.94342813644E+01  0.34919648020E+02  0.36820908053E+02  0.00000000000E+00 0. -1.
         11    1    4    4    0    0  0.86855849422E+01 -0.71177849334E+01 -0.25604277843E+02  0.27958563845E+02  0.51100000000E-03 0. -1.
        -11    1    4    4    0    0 -0.17053107844E+02  0.39309112294E+01 -0.96390435608E+01  0.19979282050E+02  0.51100000000E-03 0.  1.
        -12    1    4    4    0    0  0.14833535846E+01 -0.62474076604E+01  0.32367338449E+00  0.64292460516E+01  0.00000000000E+00 0.  1.
</event>
<event>
 8    1  0.2531964E-006  0.9118800E+02  0.7816164E-02  0.1184000E+00
        -11   -1    0    0    0    0  0.00000000000E+00  0.00000000000E+00  0.45593999997E+02  0.45594000000E+02  0.51100000000E-03 0.  1.
         11   -1    0    0    0    0 -0.00000000000E+00 -0.00000000000E+00 -0.45593999997E+02  0.45594000000E+02  0.51100000000E-03 0. -1.
         23    2    1    2    0    0  0.00000000000E+00  0.00000000000E+00  0.00000000000E+00  0.91188000000E+02  0.91188000000E+02 0.  0.
    9900012    2    3    3    0    0 -0.36315848742E+02 -0.24292637331E+01  0.55709047948E+01  0.54367120430E+02  0.40000082643E+02 0.  0.
         12    1    3    3    0    0  0.36315848742E+02  0.24292637331E+01 -0.55709047948E+01  0.36820879570E+02  0.00000000000E+00 0. -1.
         11    1    4    4    0    0 -0.11541916205E+02  0.62618209992E+01  0.49130619959E+01  0.14020143022E+02  0.51100000000E-03 0. -1.
        -11    1    4    4    0    0 -0.29692390885E+02 -0.22336728184E+01 -0.53437633642E+01  0.30251994610E+02  0.51100000000E-03 0.  1.
         12    1    4    4    0    0  0.49184583485E+01 -0.64574119139E+01  0.60016061631E+01  0.10094982798E+02  0.00000000000E+00 0. -1.
</event>
<event>
 8    1  0.2531964E-006  0.9118800E+02  0.7816164E-02  0.1184000E+00
        -11   -1    0    0    0    0  0.00000000000E+00  0.00000000000E+00  0.45593999997E+02  0.45594000000E+02  0.51100000000E-03 0.  1.
         11   -1    0    0    0    0 -0.00000000000E+00 -0.00000000000E+00 -0.45593999997E+02  0.45594000000E+02  0.51100000000E-03 0. -1.
         23    2    1    2    0    0  0.88817841970E-15  0.71054273576E-14  0.35527136788E-14  0.91188000000E+02  0.91188000000E+02 0.  0.
    9900012    2    3    3    0    0  0.33518178299E+01  0.25931056749E+02  0.25925613274E+02  0.54366921655E+02  0.39999629494E+02 0.  0.
         12    1    3    3    0    0 -0.33518178299E+01 -0.25931056749E+02 -0.25925613274E+02  0.36821078345E+02  0.00000000000E+00 0. -1.
         11    1    4    4    0    0 -0.35097553880E+01 -0.98504373389E+00  0.74265386163E+01  0.82729783103E+01  0.51100000000E-03 0. -1.
        -11    1    4    4    0    0 -0.52506110637E+01 -0.82601213099E+00  0.14643690480E+02  0.15578475013E+02  0.51100000000E-03 0.  1.
         12    1    4    4    0    0  0.12112184282E+02  0.27742112614E+02  0.38553841778E+01  0.30515468332E+02  0.00000000000E+00 0. -1.
</event>
<event>
 8    1  0.2531964E-006  0.9118800E+02  0.7816164E-02  0.1184000E+00
        -11   -1    0    0    0    0  0.00000000000E+00  0.00000000000E+00  0.45593999997E+02  0.45594000000E+02  0.51100000000E-03 0.  1.
         11   -1    0    0    0    0 -0.00000000000E+00 -0.00000000000E+00 -0.45593999997E+02  0.45594000000E+02  0.51100000000E-03 0. -1.
         23    2    1    2    0    0  0.00000000000E+00  0.35527136788E-14  0.17763568394E-14  0.91188000000E+02  0.91188000000E+02 0.  0.
    9900012    2    3    3    0    0 -0.17117380391E+02  0.31267931677E+02 -0.92245226584E+01  0.54367080931E+02  0.39999992598E+02 0.  0.
        -12    1    3    3    0    0  0.17117380391E+02 -0.31267931677E+02  0.92245226584E+01  0.36820919069E+02  0.00000000000E+00 0.  1.
         11    1    4    4    0    0 -0.91834302946E+01  0.17601095714E+02 -0.11551176178E+02  0.22968753420E+02  0.51100000000E-03 0. -1.
        -11    1    4    4    0    0 -0.71290594898E+01 -0.70438237354E+01 -0.20142450395E+01  0.10222334634E+02  0.51100000000E-03 0.  1.
        -12    1    4    4    0    0 -0.80489060658E+00  0.20710659698E+02  0.43408985591E+01  0.21175992877E+02  0.00000000000E+00 0.  1.
</event>
<event>
 8    1  0.2531964E-006  0.9118800E+02  0.7816164E-02  0.1184000E+00
        -11   -1    0    0    0    0  0.00000000000E+00  0.00000000000E+00  0.45593999997E+02  0.45594000000E+02  0.51100000000E-03 0.  1.
         11   -1    0    0    0    0 -0.00000000000E+00 -0.00000000000E+00 -0.45593999997E+02  0.45594000000E+02  0.51100000000E-03 0. -1.
         23    2    1    2    0    0  0.00000000000E+00  0.00000000000E+00  0.13322676296E-14  0.91188000000E+02  0.91188000000E+02 0.  0.
    9900012    2    3    3    0    0 -0.35048914399E+02 -0.11189754304E+02  0.14638852604E+01  0.54367082548E+02  0.39999996285E+02 0.  0.
        -12    1    3    3    0    0  0.35048914399E+02  0.11189754304E+02 -0.14638852604E+01  0.36820917452E+02  0.00000000000E+00 0.  1.
         11    1    4    4    0    0 -0.33904076965E+02 -0.26475230895E+01 -0.84107201320E+01  0.35031928676E+02  0.51100000000E-03 0. -1.
        -11    1    4    4    0    0  0.44764228062E+01 -0.43512585681E+01  0.10583816271E+02  0.12287757297E+02  0.51100000000E-03 0.  1.
        -12    1    4    4    0    0 -0.56212602402E+01 -0.41909726463E+01 -0.70921087893E+00  0.70473965746E+01  0.00000000000E+00 0.  1.
</event>
<event>
 8    1  0.2531964E-006  0.9118800E+02  0.7816164E-02  0.1184000E+00
        -11   -1    0    0    0    0  0.00000000000E+00  0.00000000000E+00  0.45593999997E+02  0.45594000000E+02  0.51100000000E-03 0.  1.
         11   -1    0    0    0    0 -0.00000000000E+00 -0.00000000000E+00 -0.45593999997E+02  0.45594000000E+02  0.51100000000E-03 0. -1.
         23    2    1    2    0    0 -0.35527136788E-14  0.00000000000E+00 -0.35527136788E-14  0.91188000000E+02  0.91188000000E+02 0.  0.
    9900012    2    3    3    0    0 -0.31158586846E+02 -0.86874124554E+01  0.17591380312E+02  0.54367009646E+02  0.39999830089E+02 0.  0.
         12    1    3    3    0    0  0.31158586846E+02  0.86874124554E+01 -0.17591380312E+02  0.36820990354E+02  0.00000000000E+00 0. -1.
         11    1    4    4    0    0  0.12299313607E-02 -0.65000299781E+01 -0.44631887306E+01  0.78848237225E+01  0.51100000000E-03 0. -1.
        -11    1    4    4    0    0  0.70213493580E+00  0.52783063409E+01 -0.21871648039E+01  0.57564921122E+01  0.51100000000E-03 0.  1.
        -12    1    4    4    0    0 -0.31861951713E+02 -0.74656888182E+01  0.24241733846E+02  0.40725693811E+02  0.00000000000E+00 0.  1.
</event>
<event>
 8    1  0.2531964E-006  0.9118800E+02  0.7816164E-02  0.1184000E+00
        -11   -1    0    0    0    0  0.00000000000E+00  0.00000000000E+00  0.45593999997E+02  0.45594000000E+02  0.51100000000E-03 0. -1.
         11   -1    0    0    0    0 -0.00000000000E+00 -0.00000000000E+00 -0.45593999997E+02  0.45594000000E+02  0.51100000000E-03 0.  1.
         23    2    1    2    0    0  0.13322676296E-14  0.00000000000E+00 -0.88817841970E-15  0.91188000000E+02  0.91188000000E+02 0.  0.
    9900012    2    3    3    0    0  0.12803703407E+01 -0.36282042281E+02  0.61443519053E+01  0.54367095602E+02  0.40000026045E+02 0.  0.
         12    1    3    3    0    0 -0.12803703407E+01  0.36282042281E+02 -0.61443519053E+01  0.36820904398E+02  0.00000000000E+00 0. -1.
         11    1    4    4    0    0  0.76645262474E+01 -0.17371084258E+02  0.20382653172E+00  0.18987919223E+02  0.51100000000E-03 0. -1.
        -11    1    4    4    0    0  0.88910751133E+01 -0.17235796667E+02  0.18792534340E+01  0.19484750374E+02  0.51100000000E-03 0.  1.
        -12    1    4    4    0    0 -0.15275231020E+02 -0.16751613569E+01  0.40612719395E+01  0.15894426006E+02  0.00000000000E+00 0.  1.
</event>
<event>
 8    1  0.2531964E-006  0.9118800E+02  0.7816164E-02  0.1184000E+00
        -11   -1    0    0    0    0  0.00000000000E+00  0.00000000000E+00  0.45593999997E+02  0.45594000000E+02  0.51100000000E-03 0. -1.
         11   -1    0    0    0    0 -0.00000000000E+00 -0.00000000000E+00 -0.45593999997E+02  0.45594000000E+02  0.51100000000E-03 0.  1.
         23    2    1    2    0    0  0.00000000000E+00  0.71054273576E-14 -0.17763568394E-14  0.91188000000E+02  0.91188000000E+02 0.  0.
    9900012    2    3    3    0    0  0.11736791689E+02 -0.33361427916E+02 -0.10249032502E+02  0.54367084490E+02  0.40000000712E+02 0.  0.
         12    1    3    3    0    0 -0.11736791689E+02  0.33361427916E+02  0.10249032502E+02  0.36820915510E+02  0.00000000000E+00 0. -1.
         11    1    4    4    0    0 -0.22467234219E+01 -0.43383798536E+01  0.20801874537E+01  0.53100363457E+01  0.51100000000E-03 0. -1.
        -11    1    4    4    0    0 -0.10931905181E+02 -0.54451207017E+01  0.10034674498E+01  0.12254094725E+02  0.51100000000E-03 0.  1.
        -12    1    4    4    0    0  0.24915420292E+02 -0.23577927361E+02 -0.13332687405E+02  0.36802953420E+02  0.00000000000E+00 0.  1.
</event>
<event>
 8    1  0.2531964E-006  0.9118800E+02  0.7816164E-02  0.1184000E+00
        -11   -1    0    0    0    0  0.00000000000E+00  0.00000000000E+00  0.45593999997E+02  0.45594000000E+02  0.51100000000E-03 0.  1.
         11   -1    0    0    0    0 -0.00000000000E+00 -0.00000000000E+00 -0.45593999997E+02  0.45594000000E+02  0.51100000000E-03 0. -1.
         23    2    1    2    0    0  0.00000000000E+00 -0.88817841970E-15  0.00000000000E+00  0.91188000000E+02  0.91188000000E+02 0.  0.
    9900012    2    3    3    0    0  0.28910324179E+02 -0.46530866623E+01 -0.22323122115E+02  0.54367084197E+02  0.40000000044E+02 0.  0.
         12    1    3    3    0    0 -0.28910324179E+02  0.46530866623E+01  0.22323122115E+02  0.36820915803E+02  0.00000000000E+00 0. -1.
         11    1    4    4    0    0  0.11083031298E+02  0.13010081728E+02  0.37129194997E+01  0.17489470569E+02  0.51100000000E-03 0. -1.
        -11    1    4    4    0    0  0.67003318055E+01 -0.11675273239E+02 -0.14142941581E+02  0.19525092787E+02  0.51100000000E-03 0.  1.
         12    1    4    4    0    0  0.11126961075E+02 -0.59878951510E+01 -0.11893100034E+02  0.17352520841E+02  0.00000000000E+00 0. -1.
</event>
<event>
 8    1  0.2531964E-006  0.9118800E+02  0.7816164E-02  0.1184000E+00
        -11   -1    0    0    0    0  0.00000000000E+00  0.00000000000E+00  0.45593999997E+02  0.45594000000E+02  0.51100000000E-03 0.  1.
         11   -1    0    0    0    0 -0.00000000000E+00 -0.00000000000E+00 -0.45593999997E+02  0.45594000000E+02  0.51100000000E-03 0. -1.
         23    2    1    2    0    0 -0.17763568394E-14  0.88817841970E-15  0.00000000000E+00  0.91188000000E+02  0.91188000000E+02 0.  0.
    9900012    2    3    3    0    0 -0.12184750547E+02 -0.24178922983E+01  0.34662140120E+02  0.54367105025E+02  0.40000047527E+02 0.  0.
         12    1    3    3    0    0  0.12184750547E+02  0.24178922983E+01 -0.34662140120E+02  0.36820894975E+02  0.00000000000E+00 0. -1.
         11    1    4    4    0    0 -0.69048791037E+01 -0.41845560839E+01  0.10492897034E+02  0.13239665913E+02  0.51100000000E-03 0. -1.
        -11    1    4    4    0    0 -0.13809915900E+02 -0.99677877128E+01  0.64141222526E+01  0.18199217939E+02  0.51100000000E-03 0.  1.
        -12    1    4    4    0    0  0.85300444569E+01  0.11734451498E+02  0.17755120833E+02  0.22928221174E+02  0.00000000000E+00 0.  1.
</event>
<event>
 8    1  0.2531964E-006  0.9118800E+02  0.7816164E-02  0.1184000E+00
        -11   -1    0    0    0    0  0.00000000000E+00  0.00000000000E+00  0.45593999997E+02  0.45594000000E+02  0.51100000000E-03 0.  1.
         11   -1    0    0    0    0 -0.00000000000E+00 -0.00000000000E+00 -0.45593999997E+02  0.45594000000E+02  0.51100000000E-03 0. -1.
         23    2    1    2    0    0  0.17763568394E-14  0.00000000000E+00  0.00000000000E+00  0.91188000000E+02  0.91188000000E+02 0.  0.
    9900012    2    3    3    0    0 -0.11017735227E+02  0.30880324954E+02 -0.16756930509E+02  0.54367086393E+02  0.40000005050E+02 0.  0.
        -12    1    3    3    0    0  0.11017735227E+02 -0.30880324954E+02  0.16756930509E+02  0.36820913607E+02  0.00000000000E+00 0.  1.
         11    1    4    4    0    0 -0.33692922975E+01  0.15690716295E+02 -0.59859984025E+01  0.17128423325E+02  0.51100000000E-03 0. -1.
        -11    1    4    4    0    0 -0.95348273082E+01  0.11353505148E+02  0.87766056989E+01  0.17229156068E+02  0.51100000000E-03 0.  1.
        -12    1    4    4    0    0  0.18863843790E+01  0.38361035101E+01 -0.19547537805E+02  0.20009507001E+02  0.00000000000E+00 0.  1.
</event>
<event>
 8    1  0.2531964E-006  0.9118800E+02  0.7816164E-02  0.1184000E+00
        -11   -1    0    0    0    0  0.00000000000E+00  0.00000000000E+00  0.45593999997E+02  0.45594000000E+02  0.51100000000E-03 0. -1.
         11   -1    0    0    0    0 -0.00000000000E+00 -0.00000000000E+00 -0.45593999997E+02  0.45594000000E+02  0.51100000000E-03 0.  1.
         23    2    1    2    0    0  0.71054273576E-14 -0.17763568394E-14  0.77715611724E-15  0.91188000000E+02  0.91188000000E+02 0.  0.
    9900012    2    3    3    0    0  0.35183594730E+02 -0.10835330605E+02  0.69998930158E+00  0.54367085936E+02  0.40000004009E+02 0.  0.
        -12    1    3    3    0    0 -0.35183594730E+02  0.10835330605E+02 -0.69998930158E+00  0.36820914064E+02  0.00000000000E+00 0.  1.
         11    1    4    4    0    0 -0.11568121416E+01 -0.48957098106E+01 -0.27878306501E+01  0.57513640882E+01  0.51100000000E-03 0. -1.
        -11    1    4    4    0    0  0.18875508549E+02 -0.12414940058E+02 -0.10895180230E+02  0.25082274859E+02  0.51100000000E-03 0.  1.
         12    1    4    4    0    0  0.17464898323E+02  0.64753192629E+01  0.14383000181E+02  0.23533446989E+02  0.00000000000E+00 0. -1.
</event>
<event>
 8    1  0.2531964E-006  0.9118800E+02  0.7816164E-02  0.1184000E+00
        -11   -1    0    0    0    0  0.00000000000E+00  0.00000000000E+00  0.45593999997E+02  0.45594000000E+02  0.51100000000E-03 0.  1.
         11   -1    0    0    0    0 -0.00000000000E+00 -0.00000000000E+00 -0.45593999997E+02  0.45594000000E+02  0.51100000000E-03 0. -1.
         23    2    1    2    0    0  0.13322676296E-14  0.00000000000E+00  0.00000000000E+00  0.91188000000E+02  0.91188000000E+02 0.  0.
    9900012    2    3    3    0    0 -0.16253701318E+01  0.17311183851E+02 -0.32457054939E+02  0.54367091134E+02  0.40000015859E+02 0.  0.
        -12    1    3    3    0    0  0.16253701318E+01 -0.17311183851E+02  0.32457054939E+02  0.36820908866E+02  0.00000000000E+00 0.  1.
         11    1    4    4    0    0 -0.80156794405E+01  0.14533715950E+02 -0.20839546141E+02  0.26641447029E+02  0.51100000000E-03 0. -1.
        -11    1    4    4    0    0  0.13635132586E+02  0.73375697275E+01 -0.11282520120E+02  0.19158602002E+02  0.51100000000E-03 0.  1.
         12    1    4    4    0    0 -0.72448232773E+01 -0.45601018264E+01 -0.33498867799E+00  0.85670421034E+01  0.00000000000E+00 0. -1.
</event>
<event>
 8    1  0.2531964E-006  0.9118800E+02  0.7816164E-02  0.1184000E+00
        -11   -1    0    0    0    0  0.00000000000E+00  0.00000000000E+00  0.45593999997E+02  0.45594000000E+02  0.51100000000E-03 0. -1.
         11   -1    0    0    0    0 -0.00000000000E+00 -0.00000000000E+00 -0.45593999997E+02  0.45594000000E+02  0.51100000000E-03 0.  1.
         23    2    1    2    0    0 -0.88817841970E-15 -0.88817841970E-15 -0.71054273576E-14  0.91188000000E+02  0.91188000000E+02 0.  0.
    9900012    2    3    3    0    0 -0.40412671762E+01 -0.79120557397E+01  0.35732998913E+02  0.54367086408E+02  0.40000005085E+02 0.  0.
        -12    1    3    3    0    0  0.40412671762E+01  0.79120557397E+01 -0.35732998913E+02  0.36820913592E+02  0.00000000000E+00 0.  1.
         11    1    4    4    0    0 -0.91732582455E+01 -0.95177085451E+01  0.24812436719E+02  0.28113919310E+02  0.51100000000E-03 0. -1.
        -11    1    4    4    0    0  0.72317451973E+01 -0.21643566516E+01  0.17113863183E+02  0.18704729125E+02  0.51100000000E-03 0.  1.
        -12    1    4    4    0    0 -0.20997541280E+01  0.37700094570E+01 -0.61933009889E+01  0.75484379737E+01  0.00000000000E+00 0.  1.
</event>
<event>
 8    1  0.2531964E-006  0.9118800E+02  0.7816164E-02  0.1184000E+00
        -11   -1    0    0    0    0  0.00000000000E+00  0.00000000000E+00  0.45593999997E+02  0.45594000000E+02  0.51100000000E-03 0. -1.
         11   -1    0    0    0    0 -0.00000000000E+00 -0.00000000000E+00 -0.45593999997E+02  0.45594000000E+02  0.51100000000E-03 0.  1.
         23    2    1    2    0    0  0.35527136788E-14  0.00000000000E+00  0.00000000000E+00  0.91188000000E+02  0.91188000000E+02 0.  0.
    9900012    2    3    3    0    0  0.13102308323E+02  0.86286301061E+01 -0.33311508992E+02  0.54367076977E+02  0.39999983585E+02 0.  0.
         12    1    3    3    0    0 -0.13102308323E+02 -0.86286301061E+01  0.33311508992E+02  0.36820923023E+02  0.00000000000E+00 0. -1.
         11    1    4    4    0    0 -0.73742364224E+01 -0.10173243535E+02 -0.88432288323E+01  0.15364795582E+02  0.51100000000E-03 0. -1.
        -11    1    4    4    0    0  0.26919025666E+01 -0.16101163818E+01 -0.38852898247E+01  0.49934248241E+01  0.51100000000E-03 0.  1.
         12    1    4    4    0    0  0.17784642178E+02  0.20411990023E+02 -0.20582990336E+02  0.34008856571E+02  0.00000000000E+00 0. -1.
</event>
<event>
 8    1  0.2531964E-006  0.9118800E+02  0.7816164E-02  0.1184000E+00
        -11   -1    0    0    0    0  0.00000000000E+00  0.00000000000E+00  0.45593999997E+02  0.45594000000E+02  0.51100000000E-03 0.  1.
         11   -1    0    0    0    0 -0.00000000000E+00 -0.00000000000E+00 -0.45593999997E+02  0.45594000000E+02  0.51100000000E-03 0. -1.
         23    2    1    2    0    0  0.17763568394E-14 -0.35527136788E-14 -0.71054273576E-14  0.91188000000E+02  0.91188000000E+02 0.  0.
    9900012    2    3    3    0    0  0.50619770128E+01  0.18406818237E+02  0.31485639583E+02  0.54367081098E+02  0.39999992978E+02 0.  0.
         12    1    3    3    0    0 -0.50619770128E+01 -0.18406818237E+02 -0.31485639583E+02  0.36820918902E+02  0.00000000000E+00 0. -1.
         11    1    4    4    0    0  0.13507773234E+02  0.60173297102E+01  0.19224899334E+02  0.24254173852E+02  0.51100000000E-03 0.  1.
        -11    1    4    4    0    0 -0.31452165756E+01 -0.66541186332E+01  0.11874704138E+01  0.74551839908E+01  0.51100000000E-03 0. -1.
         12    1    4    4    0    0 -0.53005796458E+01  0.19043607160E+02  0.11073269835E+02  0.22657723255E+02  0.00000000000E+00 0. -1.
</event>
<event>
 8    1  0.2531964E-006  0.9118800E+02  0.7816164E-02  0.1184000E+00
        -11   -1    0    0    0    0  0.00000000000E+00  0.00000000000E+00  0.45593999997E+02  0.45594000000E+02  0.51100000000E-03 0.  1.
         11   -1    0    0    0    0 -0.00000000000E+00 -0.00000000000E+00 -0.45593999997E+02  0.45594000000E+02  0.51100000000E-03 0. -1.
         23    2    1    2    0    0 -0.35527136788E-14 -0.17763568394E-14  0.00000000000E+00  0.91188000000E+02  0.91188000000E+02 0.  0.
    9900012    2    3    3    0    0  0.27229982970E+02  0.12921502683E+02  0.21150502772E+02  0.54367068838E+02  0.39999965030E+02 0.  0.
         12    1    3    3    0    0 -0.27229982970E+02 -0.12921502683E+02 -0.21150502772E+02  0.36820931162E+02  0.00000000000E+00 0. -1.
         11    1    4    4    0    0  0.12134287209E+02 -0.81173176745E+01  0.15099173314E+02  0.21002780943E+02  0.51100000000E-03 0. -1.
        -11    1    4    4    0    0 -0.78529838716E+00  0.12796801242E+01  0.78101965710E+01  0.79532034751E+01  0.51100000000E-03 0.  1.
         12    1    4    4    0    0  0.15880994148E+02  0.19759140233E+02 -0.17588671132E+01  0.25411084420E+02  0.00000000000E+00 0. -1.
</event>
<event>
 8    1  0.2531964E-006  0.9118800E+02  0.7816164E-02  0.1184000E+00
        -11   -1    0    0    0    0  0.00000000000E+00  0.00000000000E+00  0.45593999997E+02  0.45594000000E+02  0.51100000000E-03 0. -1.
         11   -1    0    0    0    0 -0.00000000000E+00 -0.00000000000E+00 -0.45593999997E+02  0.45594000000E+02  0.51100000000E-03 0.  1.
         23    2    1    2    0    0  0.17763568394E-14  0.00000000000E+00  0.00000000000E+00  0.91188000000E+02  0.91188000000E+02 0.  0.
    9900012    2    3    3    0    0 -0.92926766751E+01  0.29699182029E+02 -0.19682130489E+02  0.54367061479E+02  0.39999948253E+02 0.  0.
         12    1    3    3    0    0  0.92926766751E+01 -0.29699182029E+02  0.19682130489E+02  0.36820938521E+02  0.00000000000E+00 0. -1.
         11    1    4    4    0    0 -0.18253285876E+02  0.67723381846E+01 -0.69769122873E+00  0.19481626807E+02  0.51100000000E-03 0. -1.
        -11    1    4    4    0    0  0.31106599481E+01  0.70490804623E+01 -0.15923520353E+02  0.17689664818E+02  0.51100000000E-03 0.  1.
         12    1    4    4    0    0  0.58499492525E+01  0.15877763383E+02 -0.30609189073E+01  0.17195769853E+02  0.00000000000E+00 0. -1.
</event>
<event>
 8    1  0.2531964E-006  0.9118800E+02  0.7816164E-02  0.1184000E+00
        -11   -1    0    0    0    0  0.00000000000E+00  0.00000000000E+00  0.45593999997E+02  0.45594000000E+02  0.51100000000E-03 0.  1.
         11   -1    0    0    0    0 -0.00000000000E+00 -0.00000000000E+00 -0.45593999997E+02  0.45594000000E+02  0.51100000000E-03 0. -1.
         23    2    1    2    0    0  0.00000000000E+00  0.00000000000E+00  0.00000000000E+00  0.91188000000E+02  0.91188000000E+02 0.  0.
    9900012    2    3    3    0    0  0.11044005083E+02  0.34452329338E+02 -0.68443860647E+01  0.54367100151E+02  0.40000036415E+02 0.  0.
         12    1    3    3    0    0 -0.11044005083E+02 -0.34452329338E+02  0.68443860647E+01  0.36820899849E+02  0.00000000000E+00 0. -1.
         11    1    4    4    0    0  0.71972063789E+01 -0.62988594758E+01  0.12653807892E+01  0.96476214250E+01  0.51100000000E-03 0. -1.
        -11    1    4    4    0    0 -0.51380912536E+00  0.19219858025E+02  0.39942107484E+01  0.19637226435E+02  0.51100000000E-03 0.  1.
         12    1    4    4    0    0  0.43606078293E+01  0.21531330789E+02 -0.12103977602E+02  0.25082252291E+02  0.00000000000E+00 0. -1.
</event>
<event>
 8    1  0.2531964E-006  0.9118800E+02  0.7816164E-02  0.1184000E+00
        -11   -1    0    0    0    0  0.00000000000E+00  0.00000000000E+00  0.45593999997E+02  0.45594000000E+02  0.51100000000E-03 0.  1.
         11   -1    0    0    0    0 -0.00000000000E+00 -0.00000000000E+00 -0.45593999997E+02  0.45594000000E+02  0.51100000000E-03 0. -1.
         23    2    1    2    0    0 -0.35527136788E-14  0.00000000000E+00 -0.35527136788E-14  0.91188000000E+02  0.91188000000E+02 0.  0.
    9900012    2    3    3    0    0  0.29156591153E+02  0.17651030712E+02  0.13932499710E+02  0.54367078759E+02  0.39999987647E+02 0.  0.
         12    1    3    3    0    0 -0.29156591153E+02 -0.17651030712E+02 -0.13932499710E+02  0.36820921241E+02  0.00000000000E+00 0. -1.
         11    1    4    4    0    0 -0.38402603024E+00  0.33313839927E+01 -0.85773134028E+01  0.92095548628E+01  0.51100000000E-03 0. -1.
        -11    1    4    4    0    0  0.22619425407E+02  0.12503378323E+02  0.26456789283E+02  0.36985599558E+02  0.51100000000E-03 0.  1.
        -12    1    4    4    0    0  0.69211917763E+01  0.18162683965E+01 -0.39469761707E+01  0.81719243379E+01  0.00000000000E+00 0.  1.
</event>
<event>
 8    1  0.2531964E-006  0.9118800E+02  0.7816164E-02  0.1184000E+00
        -11   -1    0    0    0    0  0.00000000000E+00  0.00000000000E+00  0.45593999997E+02  0.45594000000E+02  0.51100000000E-03 0. -1.
         11   -1    0    0    0    0 -0.00000000000E+00 -0.00000000000E+00 -0.45593999997E+02  0.45594000000E+02  0.51100000000E-03 0.  1.
         23    2    1    2    0    0  0.00000000000E+00 -0.35527136788E-14  0.35527136788E-14  0.91188000000E+02  0.91188000000E+02 0.  0.
    9900012    2    3    3    0    0  0.15664383196E+02  0.27043738824E+02 -0.19469049082E+02  0.54367074120E+02  0.39999977072E+02 0.  0.
         12    1    3    3    0    0 -0.15664383196E+02 -0.27043738824E+02  0.19469049082E+02  0.36820925880E+02  0.00000000000E+00 0. -1.
         11    1    4    4    0    0 -0.34884276692E+01  0.31972244622E+01 -0.37316750716E+01  0.60263397653E+01  0.51100000000E-03 0. -1.
        -11    1    4    4    0    0  0.42708627993E+01  0.27037706033E+02 -0.18271624301E+02  0.32910941516E+02  0.51100000000E-03 0.  1.
        -12    1    4    4    0    0  0.14881948066E+02 -0.31911916716E+01  0.25342502905E+01  0.15429792839E+02  0.00000000000E+00 0.  1.
</event>
<event>
 8    1  0.2531964E-006  0.9118800E+02  0.7816164E-02  0.1184000E+00
        -11   -1    0    0    0    0  0.00000000000E+00  0.00000000000E+00  0.45593999997E+02  0.45594000000E+02  0.51100000000E-03 0.  1.
         11   -1    0    0    0    0 -0.00000000000E+00 -0.00000000000E+00 -0.45593999997E+02  0.45594000000E+02  0.51100000000E-03 0. -1.
         23    2    1    2    0    0  0.00000000000E+00  0.17763568394E-14 -0.71054273576E-14  0.91188000000E+02  0.91188000000E+02 0.  0.
    9900012    2    3    3    0    0 -0.63099439761E+01  0.15074465163E+02 -0.32995834897E+02  0.54367081849E+02  0.39999994691E+02 0.  0.
        -12    1    3    3    0    0  0.63099439761E+01 -0.15074465163E+02  0.32995834897E+02  0.36820918151E+02  0.00000000000E+00 0.  1.
         11    1    4    4    0    0 -0.90839862809E+01 -0.62430941782E+01 -0.23750996607E+02  0.26184057588E+02  0.51100000000E-03 0. -1.
        -11    1    4    4    0    0 -0.29160029066E+01  0.19414252649E+02 -0.10173817883E+02  0.22111599885E+02  0.51100000000E-03 0.  1.
        -12    1    4    4    0    0  0.56900452114E+01  0.19033066916E+01  0.92897959382E+00  0.60714243762E+01  0.00000000000E+00 0.  1.
</event>
<event>
 8    1  0.2531964E-006  0.9118800E+02  0.7816164E-02  0.1184000E+00
        -11   -1    0    0    0    0  0.00000000000E+00  0.00000000000E+00  0.45593999997E+02  0.45594000000E+02  0.51100000000E-03 0. -1.
         11   -1    0    0    0    0 -0.00000000000E+00 -0.00000000000E+00 -0.45593999997E+02  0.45594000000E+02  0.51100000000E-03 0.  1.
         23    2    1    2    0    0  0.88817841970E-15  0.00000000000E+00  0.00000000000E+00  0.91188000000E+02  0.91188000000E+02 0.  0.
    9900012    2    3    3    0    0  0.54511204249E+01 -0.33800289804E+02 -0.13550195986E+02  0.54367053298E+02  0.39999929605E+02 0.  0.
         12    1    3    3    0    0 -0.54511204249E+01  0.33800289804E+02  0.13550195986E+02  0.36820946702E+02  0.00000000000E+00 0. -1.
         11    1    4    4    0    0 -0.14702203926E+02 -0.83799533308E+01 -0.11238043832E+02  0.20314331087E+02  0.51100000000E-03 0. -1.
        -11    1    4    4    0    0  0.17990026498E+02 -0.25034157767E+02  0.48190541605E-01  0.30827786672E+02  0.51100000000E-03 0.  1.
         12    1    4    4    0    0  0.21632978524E+01 -0.38617870631E+00 -0.23603426955E+01  0.32249355391E+01  0.00000000000E+00 0. -1.
</event>
<event>
 8    1  0.2531964E-006  0.9118800E+02  0.7816164E-02  0.1184000E+00
        -11   -1    0    0    0    0  0.00000000000E+00  0.00000000000E+00  0.45593999997E+02  0.45594000000E+02  0.51100000000E-03 0.  1.
         11   -1    0    0    0    0 -0.00000000000E+00 -0.00000000000E+00 -0.45593999997E+02  0.45594000000E+02  0.51100000000E-03 0. -1.
         23    2    1    2    0    0  0.35527136788E-14  0.00000000000E+00  0.17763568394E-14  0.91188000000E+02  0.91188000000E+02 0.  0.
    9900012    2    3    3    0    0  0.15508005267E+02  0.32206756987E+02  0.88320976140E+01  0.54367090570E+02  0.40000014572E+02 0.  0.
         12    1    3    3    0    0 -0.15508005267E+02 -0.32206756987E+02 -0.88320976140E+01  0.36820909430E+02  0.00000000000E+00 0. -1.
         11    1    4    4    0    0  0.51326167668E+01  0.30575942695E+02 -0.53974062983E+01  0.31470049596E+02  0.51100000000E-03 0.  1.
        -11    1    4    4    0    0  0.62274361980E+01  0.55803142704E+00  0.16782703593E+02  0.17909536589E+02  0.51100000000E-03 0. -1.
         12    1    4    4    0    0  0.41479523022E+01  0.10727828653E+01 -0.25531996810E+01  0.49875043848E+01  0.00000000000E+00 0. -1.
</event>
<event>
 8    1  0.2531964E-006  0.9118800E+02  0.7816164E-02  0.1184000E+00
        -11   -1    0    0    0    0  0.00000000000E+00  0.00000000000E+00  0.45593999997E+02  0.45594000000E+02  0.51100000000E-03 0.  1.
         11   -1    0    0    0    0 -0.00000000000E+00 -0.00000000000E+00 -0.45593999997E+02  0.45594000000E+02  0.51100000000E-03 0. -1.
         23    2    1    2    0    0 -0.35527136788E-14  0.00000000000E+00  0.17763568394E-14  0.91188000000E+02  0.91188000000E+02 0.  0.
    9900012    2    3    3    0    0 -0.28038627757E+02  0.19443637848E+02  0.13840538970E+02  0.54367079069E+02  0.39999988354E+02 0.  0.
        -12    1    3    3    0    0  0.28038627757E+02 -0.19443637848E+02 -0.13840538970E+02  0.36820920931E+02  0.00000000000E+00 0.  1.
         11    1    4    4    0    0 -0.47815943224E+01 -0.25052054973E+01 -0.26508025082E+01  0.60138550902E+01  0.51100000000E-03 0. -1.
        -11    1    4    4    0    0 -0.14502486684E+02 -0.47005445674E+01 -0.10302363434E+01  0.15280007409E+02  0.51100000000E-03 0.  1.
        -12    1    4    4    0    0 -0.87545467507E+01  0.26649387912E+02  0.17521577822E+02  0.33073216570E+02  0.00000000000E+00 0.  1.
</event>
<event>
 8    1  0.2531964E-006  0.9118800E+02  0.7816164E-02  0.1184000E+00
        -11   -1    0    0    0    0  0.00000000000E+00  0.00000000000E+00  0.45593999997E+02  0.45594000000E+02  0.51100000000E-03 0. -1.
         11   -1    0    0    0    0 -0.00000000000E+00 -0.00000000000E+00 -0.45593999997E+02  0.45594000000E+02  0.51100000000E-03 0.  1.
         23    2    1    2    0    0  0.00000000000E+00  0.88817841970E-15  0.12767564783E-14  0.91188000000E+02  0.91188000000E+02 0.  0.
    9900012    2    3    3    0    0  0.36752223748E+02 -0.22424622173E+01 -0.15760923641E+00  0.54367089801E+02  0.40000012818E+02 0.  0.
        -12    1    3    3    0    0 -0.36752223748E+02  0.22424622173E+01  0.15760923641E+00  0.36820910199E+02  0.00000000000E+00 0.  1.
         11    1    4    4    0    0  0.10359159906E+02 -0.16482068932E+01  0.98116900947E+01  0.14363079151E+02  0.51100000000E-03 0.  1.
        -11    1    4    4    0    0 -0.79507343580E+00  0.41855323204E+01  0.65648234186E+01  0.78260928535E+01  0.51100000000E-03 0. -1.
        -12    1    4    4    0    0  0.27188137279E+02 -0.47797876445E+01 -0.16534122750E+02  0.32177917796E+02  0.00000000000E+00 0.  1.
</event>
<event>
 8    1  0.2531964E-006  0.9118800E+02  0.7816164E-02  0.1184000E+00
        -11   -1    0    0    0    0  0.00000000000E+00  0.00000000000E+00  0.45593999997E+02  0.45594000000E+02  0.51100000000E-03 0.  1.
         11   -1    0    0    0    0 -0.00000000000E+00 -0.00000000000E+00 -0.45593999997E+02  0.45594000000E+02  0.51100000000E-03 0. -1.
         23    2    1    2    0    0  0.22204460493E-15  0.88817841970E-15  0.71054273576E-14  0.91188000000E+02  0.91188000000E+02 0.  0.
    9900012    2    3    3    0    0 -0.17891869306E+01  0.50733788419E+01  0.36425800655E+02  0.54367091318E+02  0.40000016279E+02 0.  0.
         12    1    3    3    0    0  0.17891869306E+01 -0.50733788419E+01 -0.36425800655E+02  0.36820908682E+02  0.00000000000E+00 0. -1.
         11    1    4    4    0    0 -0.10403184679E+02 -0.37862651444E+01  0.14498975430E+02  0.18242322878E+02  0.51100000000E-03 0. -1.
        -11    1    4    4    0    0 -0.46027566627E+01 -0.54504380780E+01  0.47724116926E+00  0.71498533924E+01  0.51100000000E-03 0.  1.
        -12    1    4    4    0    0  0.13216754411E+02  0.14310082064E+02  0.21449584056E+02  0.28974915048E+02  0.00000000000E+00 0.  1.
</event>
<event>
 8    1  0.2531964E-006  0.9118800E+02  0.7816164E-02  0.1184000E+00
        -11   -1    0    0    0    0  0.00000000000E+00  0.00000000000E+00  0.45593999997E+02  0.45594000000E+02  0.51100000000E-03 0.  1.
         11   -1    0    0    0    0 -0.00000000000E+00 -0.00000000000E+00 -0.45593999997E+02  0.45594000000E+02  0.51100000000E-03 0. -1.
         23    2    1    2    0    0  0.00000000000E+00  0.00000000000E+00  0.00000000000E+00  0.91188000000E+02  0.91188000000E+02 0.  0.
    9900012    2    3    3    0    0 -0.17014264593E+02  0.21326795605E+02 -0.24727753324E+02  0.54367092965E+02  0.40000020032E+02 0.  0.
        -12    1    3    3    0    0  0.17014264593E+02 -0.21326795605E+02  0.24727753324E+02  0.36820907035E+02  0.00000000000E+00 0.  1.
         11    1    4    4    0    0  0.66585438348E+00  0.14441007688E+02 -0.19058911432E+01  0.14581443221E+02  0.51100000000E-03 0. -1.
        -11    1    4    4    0    0  0.55599833642E+01 -0.16006519584E+01 -0.10858914107E+02  0.12304126038E+02  0.51100000000E-03 0.  1.
         12    1    4    4    0    0 -0.23240102341E+02  0.84864398751E+01 -0.11962948074E+02  0.27481523706E+02  0.00000000000E+00 0. -1.
</event>
<event>
 8    1  0.2531964E-006  0.9118800E+02  0.7816164E-02  0.1184000E+00
        -11   -1    0    0    0    0  0.00000000000E+00  0.00000000000E+00  0.45593999997E+02  0.45594000000E+02  0.51100000000E-03 0. -1.
         11   -1    0    0    0    0 -0.00000000000E+00 -0.00000000000E+00 -0.45593999997E+02  0.45594000000E+02  0.51100000000E-03 0.  1.
         23    2    1    2    0    0  0.35527136788E-14  0.17763568394E-14  0.35527136788E-14  0.91188000000E+02  0.91188000000E+02 0.  0.
    9900012    2    3    3    0    0 -0.19437758822E+02 -0.14654863797E+02 -0.27625894484E+02  0.54367061026E+02  0.39999947220E+02 0.  0.
         12    1    3    3    0    0  0.19437758822E+02  0.14654863797E+02  0.27625894484E+02  0.36820938974E+02  0.00000000000E+00 0. -1.
         11    1    4    4    0    0 -0.16808596218E+02  0.13384582068E+01 -0.36463636320E+00  0.16865744488E+02  0.51100000000E-03 0. -1.
        -11    1    4    4    0    0 -0.10922645081E+02 -0.58213434215E+01 -0.15847345813E+02  0.20107973154E+02  0.51100000000E-03 0.  1.
         12    1    4    4    0    0  0.82934824774E+01 -0.10171978582E+02 -0.11413912308E+02  0.17393343383E+02  0.00000000000E+00 0. -1.
</event>
<event>
 8    1  0.2531964E-006  0.9118800E+02  0.7816164E-02  0.1184000E+00
        -11   -1    0    0    0    0  0.00000000000E+00  0.00000000000E+00  0.45593999997E+02  0.45594000000E+02  0.51100000000E-03 0.  1.
         11   -1    0    0    0    0 -0.00000000000E+00 -0.00000000000E+00 -0.45593999997E+02  0.45594000000E+02  0.51100000000E-03 0. -1.
         23    2    1    2    0    0  0.00000000000E+00  0.00000000000E+00  0.00000000000E+00  0.91188000000E+02  0.91188000000E+02 0.  0.
    9900012    2    3    3    0    0 -0.27389302540E+02  0.14793810083E+02 -0.19665890416E+02  0.54367109784E+02  0.40000058375E+02 0.  0.
        -12    1    3    3    0    0  0.27389302540E+02 -0.14793810083E+02  0.19665890416E+02  0.36820890216E+02  0.00000000000E+00 0.  1.
         11    1    4    4    0    0 -0.21157315931E+02  0.15990762318E+02 -0.14646477238E+02  0.30296134946E+02  0.51100000000E-03 0. -1.
        -11    1    4    4    0    0 -0.28468657321E+01 -0.11185104089E+02  0.15510488832E+01  0.11645469114E+02  0.51100000000E-03 0.  1.
         12    1    4    4    0    0 -0.33851208765E+01  0.99881518539E+01 -0.65704620618E+01  0.12425505725E+02  0.00000000000E+00 0. -1.
</event>
<event>
 8    1  0.2531964E-006  0.9118800E+02  0.7816164E-02  0.1184000E+00
        -11   -1    0    0    0    0  0.00000000000E+00  0.00000000000E+00  0.45593999997E+02  0.45594000000E+02  0.51100000000E-03 0. -1.
         11   -1    0    0    0    0 -0.00000000000E+00 -0.00000000000E+00 -0.45593999997E+02  0.45594000000E+02  0.51100000000E-03 0.  1.
         23    2    1    2    0    0  0.00000000000E+00  0.00000000000E+00 -0.22204460493E-14  0.91188000000E+02  0.91188000000E+02 0.  0.
    9900012    2    3    3    0    0  0.92937442384E+01  0.35469969907E+02  0.33593906068E+01  0.54367109836E+02  0.40000058494E+02 0.  0.
         12    1    3    3    0    0 -0.92937442384E+01 -0.35469969907E+02 -0.33593906068E+01  0.36820890164E+02  0.00000000000E+00 0. -1.
         11    1    4    4    0    0  0.83076460838E+01 -0.17484834938E+01 -0.24736944140E+01  0.88426999438E+01  0.51100000000E-03 0. -1.
        -11    1    4    4    0    0 -0.62793542279E+01  0.45116765428E+01 -0.62146861246E+01  0.99200725115E+01  0.51100000000E-03 0.  1.
         12    1    4    4    0    0  0.72654523825E+01  0.32706776858E+02  0.12047771145E+02  0.35604337381E+02  0.00000000000E+00 0. -1.
</event>
<event>
 8    1  0.2531964E-006  0.9118800E+02  0.7816164E-02  0.1184000E+00
        -11   -1    0    0    0    0  0.00000000000E+00  0.00000000000E+00  0.45593999997E+02  0.45594000000E+02  0.51100000000E-03 0.  1.
         11   -1    0    0    0    0 -0.00000000000E+00 -0.00000000000E+00 -0.45593999997E+02  0.45594000000E+02  0.51100000000E-03 0. -1.
         23    2    1    2    0    0  0.71054273576E-14  0.33306690739E-15  0.17763568394E-14  0.91188000000E+02  0.91188000000E+02 0.  0.
    9900012    2    3    3    0    0 -0.35784813510E+02  0.53350991218E+00 -0.86569014313E+01  0.54367089458E+02  0.40000012037E+02 0.  0.
        -12    1    3    3    0    0  0.35784813510E+02 -0.53350991218E+00  0.86569014313E+01  0.36820910542E+02  0.00000000000E+00 0.  1.
         11    1    4    4    0    0 -0.32390708058E+02 -0.28059926326E+01 -0.53865524812E+01  0.32955219785E+02  0.51100000000E-03 0. -1.
        -11    1    4    4    0    0 -0.63022793187E+01  0.73447857518E+01 -0.94281961328E+01  0.13511309519E+02  0.51100000000E-03 0.  1.
         12    1    4    4    0    0  0.29081738672E+01 -0.40052832070E+01  0.61578471827E+01  0.79005601533E+01  0.00000000000E+00 0. -1.
</event>
<event>
 8    1  0.2531964E-006  0.9118800E+02  0.7816164E-02  0.1184000E+00
        -11   -1    0    0    0    0  0.00000000000E+00  0.00000000000E+00  0.45593999997E+02  0.45594000000E+02  0.51100000000E-03 0. -1.
         11   -1    0    0    0    0 -0.00000000000E+00 -0.00000000000E+00 -0.45593999997E+02  0.45594000000E+02  0.51100000000E-03 0.  1.
         23    2    1    2    0    0  0.00000000000E+00  0.00000000000E+00  0.00000000000E+00  0.91188000000E+02  0.91188000000E+02 0.  0.
    9900012    2    3    3    0    0 -0.18983547745E+02 -0.21260185546E+02 -0.23311079996E+02  0.54367122430E+02  0.40000087203E+02 0.  0.
         12    1    3    3    0    0  0.18983547745E+02  0.21260185546E+02  0.23311079996E+02  0.36820877570E+02  0.00000000000E+00 0. -1.
         11    1    4    4    0    0  0.21665248899E+01 -0.70758635045E+01  0.28250942978E+01  0.79210373364E+01  0.51100000000E-03 0. -1.
        -11    1    4    4    0    0 -0.24852933959E+02 -0.10443624317E+02 -0.29684163938E+02  0.40098468851E+02  0.51100000000E-03 0.  1.
        -12    1    4    4    0    0  0.37028613238E+01 -0.37406977245E+01  0.35479896438E+01  0.63476162425E+01  0.00000000000E+00 0.  1.
</event>
<event>
 8    1  0.2531964E-006  0.9118800E+02  0.7816164E-02  0.1184000E+00
        -11   -1    0    0    0    0  0.00000000000E+00  0.00000000000E+00  0.45593999997E+02  0.45594000000E+02  0.51100000000E-03 0.  1.
         11   -1    0    0    0    0 -0.00000000000E+00 -0.00000000000E+00 -0.45593999997E+02  0.45594000000E+02  0.51100000000E-03 0. -1.
         23    2    1    2    0    0 -0.71054273576E-14  0.00000000000E+00 -0.88817841970E-15  0.91188000000E+02  0.91188000000E+02 0.  0.
    9900012    2    3    3    0    0  0.35081661162E+02  0.87529082952E+01  0.69601339957E+01  0.54367084493E+02  0.40000000719E+02 0.  0.
         12    1    3    3    0    0 -0.35081661162E+02 -0.87529082952E+01 -0.69601339957E+01  0.36820915507E+02  0.00000000000E+00 0. -1.
         11    1    4    4    0    0 -0.28522995941E+01 -0.52349222589E+01  0.20214384361E+01  0.62949374614E+01  0.51100000000E-03 0. -1.
        -11    1    4    4    0    0  0.20586838091E+02  0.20135817929E+01 -0.92540393546E+01  0.22660751507E+02  0.51100000000E-03 0.  1.
         12    1    4    4    0    0  0.17347122666E+02  0.11974248761E+02  0.14192734914E+02  0.25411395525E+02  0.00000000000E+00 0. -1.
</event>
<event>
 8    1  0.2531964E-006  0.9118800E+02  0.7816164E-02  0.1184000E+00
        -11   -1    0    0    0    0  0.00000000000E+00  0.00000000000E+00  0.45593999997E+02  0.45594000000E+02  0.51100000000E-03 0.  1.
         11   -1    0    0    0    0 -0.00000000000E+00 -0.00000000000E+00 -0.45593999997E+02  0.45594000000E+02  0.51100000000E-03 0. -1.
         23    2    1    2    0    0  0.00000000000E+00  0.35527136788E-14  0.22204460493E-15  0.91188000000E+02  0.91188000000E+02 0.  0.
    9900012    2    3    3    0    0 -0.35713505934E+02  0.88654388868E+01 -0.13146609790E+01  0.54367097699E+02  0.40000030824E+02 0.  0.
         12    1    3    3    0    0  0.35713505934E+02 -0.88654388868E+01  0.13146609790E+01  0.36820902301E+02  0.00000000000E+00 0. -1.
         11    1    4    4    0    0 -0.39350223128E+02 -0.27446203312E+01 -0.44421800764E-01  0.39445848635E+02  0.51100000000E-03 0. -1.
        -11    1    4    4    0    0 -0.19981571104E+01  0.58997787939E+00  0.10427698372E+01  0.23298229398E+01  0.51100000000E-03 0.  1.
         12    1    4    4    0    0  0.56348743042E+01  0.11020081339E+02 -0.23130090155E+01  0.12591426124E+02  0.00000000000E+00 0. -1.
</event>
<event>
 8    1  0.2531964E-006  0.9118800E+02  0.7816164E-02  0.1184000E+00
        -11   -1    0    0    0    0  0.00000000000E+00  0.00000000000E+00  0.45593999997E+02  0.45594000000E+02  0.51100000000E-03 0.  1.
         11   -1    0    0    0    0 -0.00000000000E+00 -0.00000000000E+00 -0.45593999997E+02  0.45594000000E+02  0.51100000000E-03 0. -1.
         23    2    1    2    0    0  0.13322676296E-14 -0.71054273576E-14  0.00000000000E+00  0.91188000000E+02  0.91188000000E+02 0.  0.
    9900012    2    3    3    0    0  0.31892243604E+01  0.36147023406E+02 -0.62451506168E+01  0.54367077152E+02  0.39999983983E+02 0.  0.
        -12    1    3    3    0    0 -0.31892243604E+01 -0.36147023406E+02  0.62451506168E+01  0.36820922848E+02  0.00000000000E+00 0.  1.
         11    1    4    4    0    0 -0.90216109872E+01  0.37182095309E+02 -0.75952978184E+01  0.39007514988E+02  0.51100000000E-03 0. -1.
        -11    1    4    4    0    0  0.48250021372E+01  0.40715865772E+01  0.79288533788E+00  0.63629498112E+01  0.51100000000E-03 0.  1.
         12    1    4    4    0    0  0.73858332104E+01 -0.51066584793E+01  0.55726186370E+00  0.89966123525E+01  0.00000000000E+00 0. -1.
</event>
<event>
 8    1  0.2531964E-006  0.9118800E+02  0.7816164E-02  0.1184000E+00
        -11   -1    0    0    0    0  0.00000000000E+00  0.00000000000E+00  0.45593999997E+02  0.45594000000E+02  0.51100000000E-03 0. -1.
         11   -1    0    0    0    0 -0.00000000000E+00 -0.00000000000E+00 -0.45593999997E+02  0.45594000000E+02  0.51100000000E-03 0.  1.
         23    2    1    2    0    0  0.88817841970E-15  0.00000000000E+00  0.00000000000E+00  0.91188000000E+02  0.91188000000E+02 0.  0.
    9900012    2    3    3    0    0 -0.71433795939E+01 -0.13622251387E+02  0.33454250734E+02  0.54367075282E+02  0.39999979721E+02 0.  0.
        -12    1    3    3    0    0  0.71433795939E+01  0.13622251387E+02 -0.33454250734E+02  0.36820924718E+02  0.00000000000E+00 0.  1.
         11    1    4    4    0    0 -0.95885727378E+00 -0.32120297663E+01  0.15186605724E+02  0.15552155355E+02  0.51100000000E-03 0. -1.
        -11    1    4    4    0    0  0.12479213127E+02 -0.64039798660E+01  0.29338239623E+01  0.14330004944E+02  0.51100000000E-03 0.  1.
        -12    1    4    4    0    0 -0.18663735447E+02 -0.40062417542E+01  0.15333821048E+02  0.24484914984E+02  0.00000000000E+00 0.  1.
</event>
<event>
 8    1  0.2531964E-006  0.9118800E+02  0.7816164E-02  0.1184000E+00
        -11   -1    0    0    0    0  0.00000000000E+00  0.00000000000E+00  0.45593999997E+02  0.45594000000E+02  0.51100000000E-03 0. -1.
         11   -1    0    0    0    0 -0.00000000000E+00 -0.00000000000E+00 -0.45593999997E+02  0.45594000000E+02  0.51100000000E-03 0.  1.
         23    2    1    2    0    0  0.00000000000E+00  0.00000000000E+00  0.35527136788E-14  0.91188000000E+02  0.91188000000E+02 0.  0.
    9900012    2    3    3    0    0 -0.25318367044E+02  0.67271514993E+01  0.25874830745E+02  0.54367066509E+02  0.39999959722E+02 0.  0.
        -12    1    3    3    0    0  0.25318367044E+02 -0.67271514993E+01 -0.25874830745E+02  0.36820933491E+02  0.00000000000E+00 0.  1.
         11    1    4    4    0    0 -0.27074046536E+02 -0.56540020296E+01  0.12698695944E+02  0.30434004235E+02  0.51100000000E-03 0. -1.
        -11    1    4    4    0    0 -0.48000319101E+01 -0.90395131931E+00  0.16256659243E+01  0.51478368549E+01  0.51100000000E-03 0.  1.
         12    1    4    4    0    0  0.65557114028E+01  0.13285104848E+02  0.11550468876E+02  0.18785225420E+02  0.00000000000E+00 0. -1.
</event>
<event>
 8    1  0.2531964E-006  0.9118800E+02  0.7816164E-02  0.1184000E+00
        -11   -1    0    0    0    0  0.00000000000E+00  0.00000000000E+00  0.45593999997E+02  0.45594000000E+02  0.51100000000E-03 0.  1.
         11   -1    0    0    0    0 -0.00000000000E+00 -0.00000000000E+00 -0.45593999997E+02  0.45594000000E+02  0.51100000000E-03 0. -1.
         23    2    1    2    0    0  0.35527136788E-14  0.17763568394E-14  0.00000000000E+00  0.91188000000E+02  0.91188000000E+02 0.  0.
    9900012    2    3    3    0    0  0.17901649771E+02  0.86483416205E+01  0.30992177649E+02  0.54367109833E+02  0.40000058485E+02 0.  0.
         12    1    3    3    0    0 -0.17901649771E+02 -0.86483416205E+01 -0.30992177649E+02  0.36820890167E+02  0.00000000000E+00 0. -1.
         11    1    4    4    0    0 -0.75128340266E+01 -0.47814552288E+01  0.26231047853E+01  0.92836236563E+01  0.51100000000E-03 0. -1.
        -11    1    4    4    0    0  0.20863527018E+02  0.85649938651E+01  0.84570418638E+01  0.24086665126E+02  0.51100000000E-03 0.  1.
         12    1    4    4    0    0  0.45509567792E+01  0.48648029841E+01  0.19912031000E+02  0.20996821050E+02  0.00000000000E+00 0. -1.
</event>
<event>
 8    1  0.2531964E-006  0.9118800E+02  0.7816164E-02  0.1184000E+00
        -11   -1    0    0    0    0  0.00000000000E+00  0.00000000000E+00  0.45593999997E+02  0.45594000000E+02  0.51100000000E-03 0.  1.
         11   -1    0    0    0    0 -0.00000000000E+00 -0.00000000000E+00 -0.45593999997E+02  0.45594000000E+02  0.51100000000E-03 0. -1.
         23    2    1    2    0    0  0.71054273576E-14 -0.88817841970E-15  0.44408920985E-15  0.91188000000E+02  0.91188000000E+02 0.  0.
    9900012    2    3    3    0    0  0.36407152670E+02  0.49984489454E+01 -0.23067188239E+01  0.54366997717E+02  0.39999802895E+02 0.  0.
        -12    1    3    3    0    0 -0.36407152670E+02 -0.49984489454E+01  0.23067188239E+01  0.36821002283E+02  0.00000000000E+00 0.  1.
         11    1    4    4    0    0  0.10238913773E+02  0.14857341668E+02 -0.10103643497E+02  0.20679931549E+02  0.51100000000E-03 0. -1.
        -11    1    4    4    0    0  0.18438984559E-02  0.34224004685E+01  0.62000353354E+00  0.34781076765E+01  0.51100000000E-03 0.  1.
        -12    1    4    4    0    0  0.26166394999E+02 -0.13281293192E+02  0.71769211399E+01  0.30208958491E+02  0.00000000000E+00 0.  1.
</event>
<event>
 8    1  0.2531964E-006  0.9118800E+02  0.7816164E-02  0.1184000E+00
        -11   -1    0    0    0    0  0.00000000000E+00  0.00000000000E+00  0.45593999997E+02  0.45594000000E+02  0.51100000000E-03 0. -1.
         11   -1    0    0    0    0 -0.00000000000E+00 -0.00000000000E+00 -0.45593999997E+02  0.45594000000E+02  0.51100000000E-03 0.  1.
         23    2    1    2    0    0  0.27755575616E-16 -0.17763568394E-14  0.71054273576E-14  0.91188000000E+02  0.91188000000E+02 0.  0.
    9900012    2    3    3    0    0 -0.20476554418E+00  0.15147801314E+02 -0.33560192708E+02  0.54367022987E+02  0.39999860504E+02 0.  0.
         12    1    3    3    0    0  0.20476554418E+00 -0.15147801314E+02  0.33560192708E+02  0.36820977013E+02  0.00000000000E+00 0. -1.
         11    1    4    4    0    0 -0.80539718121E+01  0.35473072940E+01 -0.20126404534E+02  0.21966383652E+02  0.51100000000E-03 0. -1.
        -11    1    4    4    0    0 -0.55189500939E+01  0.13880322915E+02 -0.11169963714E+02  0.18651816641E+02  0.51100000000E-03 0.  1.
         12    1    4    4    0    0  0.13368156362E+02 -0.22798288959E+01 -0.22638244603E+01  0.13748822695E+02  0.00000000000E+00 0. -1.
</event>
<event>
 8    1  0.2531964E-006  0.9118800E+02  0.7816164E-02  0.1184000E+00
        -11   -1    0    0    0    0  0.00000000000E+00  0.00000000000E+00  0.45593999997E+02  0.45594000000E+02  0.51100000000E-03 0.  1.
         11   -1    0    0    0    0 -0.00000000000E+00 -0.00000000000E+00 -0.45593999997E+02  0.45594000000E+02  0.51100000000E-03 0. -1.
         23    2    1    2    0    0 -0.35527136788E-14  0.00000000000E+00  0.00000000000E+00  0.91188000000E+02  0.91188000000E+02 0.  0.
    9900012    2    3    3    0    0 -0.21669419504E+02 -0.28268852125E+02 -0.93321658689E+01  0.54367067612E+02  0.39999962236E+02 0.  0.
        -12    1    3    3    0    0  0.21669419504E+02  0.28268852125E+02  0.93321658689E+01  0.36820932388E+02  0.00000000000E+00 0.  1.
         11    1    4    4    0    0 -0.62424587789E+01 -0.79316236323E+01  0.87217219871E+01  0.13339691890E+02  0.51100000000E-03 0. -1.
        -11    1    4    4    0    0 -0.10500944759E+02 -0.22821262763E+02 -0.33762582142E+01  0.25347169363E+02  0.51100000000E-03 0.  1.
         12    1    4    4    0    0 -0.49260159663E+01  0.24840342707E+01 -0.14677629642E+02  0.15680206359E+02  0.00000000000E+00 0. -1.
</event>
<event>
 8    1  0.2531964E-006  0.9118800E+02  0.7816164E-02  0.1184000E+00
        -11   -1    0    0    0    0  0.00000000000E+00  0.00000000000E+00  0.45593999997E+02  0.45594000000E+02  0.51100000000E-03 0.  1.
         11   -1    0    0    0    0 -0.00000000000E+00 -0.00000000000E+00 -0.45593999997E+02  0.45594000000E+02  0.51100000000E-03 0. -1.
         23    2    1    2    0    0  0.17763568394E-14  0.00000000000E+00  0.00000000000E+00  0.91188000000E+02  0.91188000000E+02 0.  0.
    9900012    2    3    3    0    0 -0.14549876298E+02  0.12163786909E+02  0.31561416071E+02  0.54367087509E+02  0.40000007595E+02 0.  0.
         12    1    3    3    0    0  0.14549876298E+02 -0.12163786909E+02 -0.31561416071E+02  0.36820912491E+02  0.00000000000E+00 0. -1.
         11    1    4    4    0    0  0.42610563173E+01 -0.17622417357E+01  0.12317329486E+02  0.13152136815E+02  0.51100000000E-03 0. -1.
        -11    1    4    4    0    0 -0.38664626883E+00  0.16080755202E+02  0.15404418320E+02  0.22271872109E+02  0.51100000000E-03 0.  1.
         12    1    4    4    0    0 -0.18424286347E+02 -0.21547265570E+01  0.38396682652E+01  0.18943078586E+02  0.00000000000E+00 0. -1.
</event>
<event>
 8    1  0.2531964E-006  0.9118800E+02  0.7816164E-02  0.1184000E+00
        -11   -1    0    0    0    0  0.00000000000E+00  0.00000000000E+00  0.45593999997E+02  0.45594000000E+02  0.51100000000E-03 0. -1.
         11   -1    0    0    0    0 -0.00000000000E+00 -0.00000000000E+00 -0.45593999997E+02  0.45594000000E+02  0.51100000000E-03 0.  1.
         23    2    1    2    0    0  0.00000000000E+00  0.00000000000E+00 -0.35527136788E-14  0.91188000000E+02  0.91188000000E+02 0.  0.
    9900012    2    3    3    0    0  0.42094642463E+01  0.27067778697E+02  0.24604805389E+02  0.54367072784E+02  0.39999974025E+02 0.  0.
        -12    1    3    3    0    0 -0.42094642463E+01 -0.27067778697E+02 -0.24604805389E+02  0.36820927216E+02  0.00000000000E+00 0.  1.
         11    1    4    4    0    0 -0.37086125863E+00 -0.83665175869E+01  0.39628613635E+01  0.92650107962E+01  0.51100000000E-03 0. -1.
        -11    1    4    4    0    0 -0.55825002369E+01  0.60836240767E+01  0.91647616910E+00  0.83075098334E+01  0.51100000000E-03 0.  1.
         12    1    4    4    0    0  0.10162825742E+02  0.29350672207E+02  0.19725467856E+02  0.36794552154E+02  0.00000000000E+00 0. -1.
</event>
<event>
 8    1  0.2531964E-006  0.9118800E+02  0.7816164E-02  0.1184000E+00
        -11   -1    0    0    0    0  0.00000000000E+00  0.00000000000E+00  0.45593999997E+02  0.45594000000E+02  0.51100000000E-03 0.  1.
         11   -1    0    0    0    0 -0.00000000000E+00 -0.00000000000E+00 -0.45593999997E+02  0.45594000000E+02  0.51100000000E-03 0. -1.
         23    2    1    2    0    0  0.00000000000E+00  0.00000000000E+00  0.00000000000E+00  0.91188000000E+02  0.91188000000E+02 0.  0.
    9900012    2    3    3    0    0 -0.26760695721E+02  0.23875898275E+02 -0.83417923527E+01  0.54367097600E+02  0.40000030599E+02 0.  0.
         12    1    3    3    0    0  0.26760695721E+02 -0.23875898275E+02  0.83417923527E+01  0.36820902400E+02  0.00000000000E+00 0. -1.
         11    1    4    4    0    0 -0.94790666405E+01  0.15127219220E+02 -0.56738649697E+01  0.18731743370E+02  0.51100000000E-03 0. -1.
        -11    1    4    4    0    0 -0.15460766498E+02  0.12434408958E+02 -0.13534378220E+02  0.24017269222E+02  0.51100000000E-03 0.  1.
        -12    1    4    4    0    0 -0.18208625820E+01 -0.36857299035E+01  0.10866450837E+02  0.11618085008E+02  0.00000000000E+00 0.  1.
</event>
<event>
 8    1  0.2531964E-006  0.9118800E+02  0.7816164E-02  0.1184000E+00
        -11   -1    0    0    0    0  0.00000000000E+00  0.00000000000E+00  0.45593999997E+02  0.45594000000E+02  0.51100000000E-03 0.  1.
         11   -1    0    0    0    0 -0.00000000000E+00 -0.00000000000E+00 -0.45593999997E+02  0.45594000000E+02  0.51100000000E-03 0. -1.
         23    2    1    2    0    0  0.00000000000E+00  0.00000000000E+00  0.00000000000E+00  0.91188000000E+02  0.91188000000E+02 0.  0.
    9900012    2    3    3    0    0  0.17162160123E+02  0.30111518565E+02  0.12431298542E+02  0.54367075598E+02  0.39999980441E+02 0.  0.
         12    1    3    3    0    0 -0.17162160123E+02 -0.30111518565E+02 -0.12431298542E+02  0.36820924402E+02  0.00000000000E+00 0. -1.
         11    1    4    4    0    0 -0.36772734399E+01 -0.20556454520E+00  0.12456001151E+02  0.12989093951E+02  0.51100000000E-03 0. -1.
        -11    1    4    4    0    0  0.12387733667E+02  0.14066610867E+02 -0.92131970640E+01  0.20885604781E+02  0.51100000000E-03 0.  1.
         12    1    4    4    0    0  0.84516998958E+01  0.16250472243E+02  0.91884944558E+01  0.20492376866E+02  0.00000000000E+00 0. -1.
</event>
<event>
 8    1  0.2531964E-006  0.9118800E+02  0.7816164E-02  0.1184000E+00
        -11   -1    0    0    0    0  0.00000000000E+00  0.00000000000E+00  0.45593999997E+02  0.45594000000E+02  0.51100000000E-03 0.  1.
         11   -1    0    0    0    0 -0.00000000000E+00 -0.00000000000E+00 -0.45593999997E+02  0.45594000000E+02  0.51100000000E-03 0. -1.
         23    2    1    2    0    0  0.00000000000E+00  0.00000000000E+00  0.00000000000E+00  0.91188000000E+02  0.91188000000E+02 0.  0.
    9900012    2    3    3    0    0  0.12171623063E+02  0.28160616695E+02 -0.20362083191E+02  0.54367038952E+02  0.39999896899E+02 0.  0.
        -12    1    3    3    0    0 -0.12171623063E+02 -0.28160616695E+02  0.20362083191E+02  0.36820961048E+02  0.00000000000E+00 0.  1.
         11    1    4    4    0    0  0.84412507690E+01  0.22651529691E+02 -0.10736707780E+02  0.26450395198E+02  0.51100000000E-03 0. -1.
        -11    1    4    4    0    0  0.11990092212E+02  0.10228863137E+02 -0.95009557729E+01  0.18402720266E+02  0.51100000000E-03 0.  1.
        -12    1    4    4    0    0 -0.82597199189E+01 -0.47197761336E+01 -0.12441963799E+00  0.95139234881E+01  0.00000000000E+00 0.  1.
</event>
<event>
 8    1  0.2531964E-006  0.9118800E+02  0.7816164E-02  0.1184000E+00
        -11   -1    0    0    0    0  0.00000000000E+00  0.00000000000E+00  0.45593999997E+02  0.45594000000E+02  0.51100000000E-03 0. -1.
         11   -1    0    0    0    0 -0.00000000000E+00 -0.00000000000E+00 -0.45593999997E+02  0.45594000000E+02  0.51100000000E-03 0.  1.
         23    2    1    2    0    0  0.17763568394E-14  0.00000000000E+00  0.71054273576E-14  0.91188000000E+02  0.91188000000E+02 0.  0.
    9900012    2    3    3    0    0 -0.88476122432E+01 -0.21549818203E+02 -0.28514723751E+02  0.54367294173E+02  0.40000478724E+02 0.  0.
         12    1    3    3    0    0  0.88476122432E+01  0.21549818203E+02  0.28514723751E+02  0.36820705827E+02  0.00000000000E+00 0. -1.
         11    1    4    4    0    0 -0.62035536265E+01  0.55772226935E+01 -0.12577717997E+00  0.83429797272E+01  0.51100000000E-03 0.  1.
        -11    1    4    4    0    0 -0.17566889172E+01 -0.12792266688E+02  0.13661138034E+01  0.12984387169E+02  0.51100000000E-03 0. -1.
        -12    1    4    4    0    0 -0.88736969951E+00 -0.14334774209E+02 -0.29755060374E+02  0.33039927277E+02  0.00000000000E+00 0.  1.
</event>
<event>
 8    1  0.2531964E-006  0.9118800E+02  0.7816164E-02  0.1184000E+00
        -11   -1    0    0    0    0  0.00000000000E+00  0.00000000000E+00  0.45593999997E+02  0.45594000000E+02  0.51100000000E-03 0.  1.
         11   -1    0    0    0    0 -0.00000000000E+00 -0.00000000000E+00 -0.45593999997E+02  0.45594000000E+02  0.51100000000E-03 0. -1.
         23    2    1    2    0    0  0.00000000000E+00  0.00000000000E+00  0.00000000000E+00  0.91188000000E+02  0.91188000000E+02 0.  0.
    9900012    2    3    3    0    0  0.10204893174E+02 -0.17768949828E+02 -0.30592554349E+02  0.54367084690E+02  0.40000001167E+02 0.  0.
        -12    1    3    3    0    0 -0.10204893174E+02  0.17768949828E+02  0.30592554349E+02  0.36820915310E+02  0.00000000000E+00 0.  1.
         11    1    4    4    0    0  0.91158099102E+00  0.36890029057E+01 -0.43955478267E+00  0.38253014272E+01  0.51100000000E-03 0.  1.
        -11    1    4    4    0    0 -0.11634880698E+02 -0.25973386639E+01 -0.55994386076E+01  0.13170813565E+02  0.51100000000E-03 0. -1.
         12    1    4    4    0    0  0.20928192880E+02 -0.18860614070E+02 -0.24553560959E+02  0.37370969697E+02  0.00000000000E+00 0. -1.
</event>
<event>
 8    1  0.2531964E-006  0.9118800E+02  0.7816164E-02  0.1184000E+00
        -11   -1    0    0    0    0  0.00000000000E+00  0.00000000000E+00  0.45593999997E+02  0.45594000000E+02  0.51100000000E-03 0. -1.
         11   -1    0    0    0    0 -0.00000000000E+00 -0.00000000000E+00 -0.45593999997E+02  0.45594000000E+02  0.51100000000E-03 0.  1.
         23    2    1    2    0    0  0.00000000000E+00 -0.71054273576E-14  0.00000000000E+00  0.91188000000E+02  0.91188000000E+02 0.  0.
    9900012    2    3    3    0    0  0.12112416036E+02 -0.33752045433E+02 -0.83587490933E+01  0.54367083667E+02  0.39999998837E+02 0.  0.
        -12    1    3    3    0    0 -0.12112416036E+02  0.33752045433E+02  0.83587490933E+01  0.36820916333E+02  0.00000000000E+00 0.  1.
         11    1    4    4    0    0  0.94516037810E+01 -0.31765295523E+02 -0.11837867571E+02  0.35192356025E+02  0.51100000000E-03 0. -1.
        -11    1    4    4    0    0  0.81898292937E+01  0.12902050908E+01  0.78376657677E+01  0.11409072617E+02  0.51100000000E-03 0.  1.
        -12    1    4    4    0    0 -0.55290170384E+01 -0.32769550011E+01 -0.43585472905E+01  0.77656550254E+01  0.00000000000E+00 0.  1.
</event>
<event>
 8    1  0.2531964E-006  0.9118800E+02  0.7816164E-02  0.1184000E+00
        -11   -1    0    0    0    0  0.00000000000E+00  0.00000000000E+00  0.45593999997E+02  0.45594000000E+02  0.51100000000E-03 0. -1.
         11   -1    0    0    0    0 -0.00000000000E+00 -0.00000000000E+00 -0.45593999997E+02  0.45594000000E+02  0.51100000000E-03 0.  1.
         23    2    1    2    0    0  0.00000000000E+00  0.00000000000E+00  0.35527136788E-14  0.91188000000E+02  0.91188000000E+02 0.  0.
    9900012    2    3    3    0    0  0.35024252087E+02  0.54788229580E+01  0.99530491791E+01  0.54367096654E+02  0.40000028443E+02 0.  0.
         12    1    3    3    0    0 -0.35024252087E+02 -0.54788229580E+01 -0.99530491791E+01  0.36820903346E+02  0.00000000000E+00 0. -1.
         11    1    4    4    0    0  0.35002957768E+01 -0.18322459167E+01  0.11572084996E+02  0.12227933065E+02  0.51100000000E-03 0. -1.
        -11    1    4    4    0    0  0.23766040839E+02  0.36416462993E+01 -0.13429656843E+02  0.27539825128E+02  0.51100000000E-03 0.  1.
        -12    1    4    4    0    0  0.77579154713E+01  0.36694225754E+01  0.11810621026E+02  0.14599338461E+02  0.00000000000E+00 0.  1.
</event>
<event>
 8    1  0.2531964E-006  0.9118800E+02  0.7816164E-02  0.1184000E+00
        -11   -1    0    0    0    0  0.00000000000E+00  0.00000000000E+00  0.45593999997E+02  0.45594000000E+02  0.51100000000E-03 0.  1.
         11   -1    0    0    0    0 -0.00000000000E+00 -0.00000000000E+00 -0.45593999997E+02  0.45594000000E+02  0.51100000000E-03 0. -1.
         23    2    1    2    0    0  0.35527136788E-14  0.00000000000E+00 -0.88817841970E-15  0.91188000000E+02  0.91188000000E+02 0.  0.
    9900012    2    3    3    0    0 -0.31686537657E+02 -0.18023398741E+02 -0.51865504638E+01  0.54367083708E+02  0.39999998929E+02 0.  0.
        -12    1    3    3    0    0  0.31686537657E+02  0.18023398741E+02  0.51865504638E+01  0.36820916292E+02  0.00000000000E+00 0.  1.
         11    1    4    4    0    0  0.10347234754E+01 -0.19628930282E+02  0.67865120356E+00  0.19667895780E+02  0.51100000000E-03 0. -1.
        -11    1    4    4    0    0 -0.68398993264E+01 -0.16411325469E+00 -0.54612985936E+01  0.87542525977E+01  0.51100000000E-03 0.  1.
         12    1    4    4    0    0 -0.25881361806E+02  0.17696447954E+01 -0.40390307380E+00  0.25944935331E+02  0.00000000000E+00 0. -1.
</event>
<event>
 8    1  0.2531964E-006  0.9118800E+02  0.7816164E-02  0.1184000E+00
        -11   -1    0    0    0    0  0.00000000000E+00  0.00000000000E+00  0.45593999997E+02  0.45594000000E+02  0.51100000000E-03 0. -1.
         11   -1    0    0    0    0 -0.00000000000E+00 -0.00000000000E+00 -0.45593999997E+02  0.45594000000E+02  0.51100000000E-03 0.  1.
         23    2    1    2    0    0  0.44408920985E-15  0.17763568394E-14  0.00000000000E+00  0.91188000000E+02  0.91188000000E+02 0.  0.
    9900012    2    3    3    0    0  0.23114735258E+01  0.11248202630E+02 -0.34984488269E+02  0.54367090292E+02  0.40000013940E+02 0.  0.
         12    1    3    3    0    0 -0.23114735258E+01 -0.11248202630E+02  0.34984488269E+02  0.36820909708E+02  0.00000000000E+00 0. -1.
         11    1    4    4    0    0  0.71010410916E+00 -0.13706228888E+02 -0.19269232934E+02  0.23657309574E+02  0.51100000000E-03 0.  1.
        -11    1    4    4    0    0 -0.20595985139E+01  0.15099801293E+02 -0.59455401218E+01  0.16358343215E+02  0.51100000000E-03 0. -1.
        -12    1    4    4    0    0  0.36609679305E+01  0.98546302248E+01 -0.97697152131E+01  0.14351437503E+02  0.00000000000E+00 0.  1.
</event>
<event>
 8    1  0.2531964E-006  0.9118800E+02  0.7816164E-02  0.1184000E+00
        -11   -1    0    0    0    0  0.00000000000E+00  0.00000000000E+00  0.45593999997E+02  0.45594000000E+02  0.51100000000E-03 0.  1.
         11   -1    0    0    0    0 -0.00000000000E+00 -0.00000000000E+00 -0.45593999997E+02  0.45594000000E+02  0.51100000000E-03 0. -1.
         23    2    1    2    0    0  0.00000000000E+00 -0.17763568394E-14  0.00000000000E+00  0.91188000000E+02  0.91188000000E+02 0.  0.
    9900012    2    3    3    0    0 -0.22498771869E+02  0.15910032195E+02 -0.24422451671E+02  0.54367081955E+02  0.39999994933E+02 0.  0.
        -12    1    3    3    0    0  0.22498771869E+02 -0.15910032195E+02  0.24422451671E+02  0.36820918045E+02  0.00000000000E+00 0.  1.
         11    1    4    4    0    0  0.58139867381E+01  0.12413231952E+01 -0.69449762271E+01  0.91419921309E+01  0.51100000000E-03 0. -1.
        -11    1    4    4    0    0 -0.10260643777E+02  0.19289169435E+02 -0.14824821974E+02  0.26403185698E+02  0.51100000000E-03 0.  1.
         12    1    4    4    0    0 -0.18052114831E+02 -0.46204604350E+01 -0.26526534697E+01  0.18821904126E+02  0.00000000000E+00 0. -1.
</event>
<event>
 8    1  0.2531964E-006  0.9118800E+02  0.7816164E-02  0.1184000E+00
        -11   -1    0    0    0    0  0.00000000000E+00  0.00000000000E+00  0.45593999997E+02  0.45594000000E+02  0.51100000000E-03 0. -1.
         11   -1    0    0    0    0 -0.00000000000E+00 -0.00000000000E+00 -0.45593999997E+02  0.45594000000E+02  0.51100000000E-03 0.  1.
         23    2    1    2    0    0 -0.35527136788E-14 -0.17763568394E-14 -0.35527136788E-14  0.91188000000E+02  0.91188000000E+02 0.  0.
    9900012    2    3    3    0    0 -0.29226114930E+02  0.69693364430E+01 -0.21284798796E+02  0.54367080618E+02  0.39999991885E+02 0.  0.
         12    1    3    3    0    0  0.29226114930E+02 -0.69693364430E+01  0.21284798796E+02  0.36820919382E+02  0.00000000000E+00 0. -1.
         11    1    4    4    0    0 -0.21573807276E+01  0.14919530476E+02 -0.14518694118E+02  0.20929385094E+02  0.51100000000E-03 0.  1.
        -11    1    4    4    0    0 -0.28266262012E+02 -0.87936179056E+01 -0.34379597928E+01  0.29801490765E+02  0.51100000000E-03 0. -1.
        -12    1    4    4    0    0  0.11975278096E+01  0.84342387216E+00 -0.33281448844E+01  0.36362047597E+01  0.00000000000E+00 0.  1.
</event>
<event>
 8    1  0.2531964E-006  0.9118800E+02  0.7816164E-02  0.1184000E+00
        -11   -1    0    0    0    0  0.00000000000E+00  0.00000000000E+00  0.45593999997E+02  0.45594000000E+02  0.51100000000E-03 0.  1.
         11   -1    0    0    0    0 -0.00000000000E+00 -0.00000000000E+00 -0.45593999997E+02  0.45594000000E+02  0.51100000000E-03 0. -1.
         23    2    1    2    0    0  0.00000000000E+00  0.00000000000E+00  0.00000000000E+00  0.91188000000E+02  0.91188000000E+02 0.  0.
    9900012    2    3    3    0    0  0.13553160104E+02 -0.24958015361E+02 -0.23434780798E+02  0.54367087048E+02  0.40000006543E+02 0.  0.
        -12    1    3    3    0    0 -0.13553160104E+02  0.24958015361E+02  0.23434780798E+02  0.36820912952E+02  0.00000000000E+00 0.  1.
         11    1    4    4    0    0  0.14845348370E+02 -0.34461694497E+01 -0.17224399766E+02  0.22998704304E+02  0.51100000000E-03 0. -1.
        -11    1    4    4    0    0  0.27811209677E+01 -0.96624887948E+01  0.76869271891E+01  0.12656507157E+02  0.51100000000E-03 0.  1.
        -12    1    4    4    0    0 -0.40733092333E+01 -0.11849357117E+02 -0.13897308221E+02  0.18711875587E+02  0.00000000000E+00 0.  1.
</event>
<event>
 8    1  0.2531964E-006  0.9118800E+02  0.7816164E-02  0.1184000E+00
        -11   -1    0    0    0    0  0.00000000000E+00  0.00000000000E+00  0.45593999997E+02  0.45594000000E+02  0.51100000000E-03 0.  1.
         11   -1    0    0    0    0 -0.00000000000E+00 -0.00000000000E+00 -0.45593999997E+02  0.45594000000E+02  0.51100000000E-03 0. -1.
         23    2    1    2    0    0  0.00000000000E+00  0.00000000000E+00  0.17763568394E-14  0.91188000000E+02  0.91188000000E+02 0.  0.
    9900012    2    3    3    0    0 -0.28083955207E+02 -0.21003886659E+02 -0.11221564001E+02  0.54366874359E+02  0.39999521673E+02 0.  0.
        -12    1    3    3    0    0  0.28083955207E+02  0.21003886659E+02  0.11221564001E+02  0.36821125641E+02  0.00000000000E+00 0.  1.
         11    1    4    4    0    0 -0.21886093904E+02 -0.17002181568E+02 -0.24606010068E+02  0.37061179369E+02  0.51100000000E-03 0. -1.
        -11    1    4    4    0    0 -0.32617806100E+01 -0.33789502320E+01  0.13508624110E+02  0.14301728673E+02  0.51100000000E-03 0.  1.
         12    1    4    4    0    0 -0.29360806929E+01 -0.62275485876E+00 -0.12417804322E+00  0.30039663174E+01  0.00000000000E+00 0. -1.
</event>
<event>
 8    1  0.2531964E-006  0.9118800E+02  0.7816164E-02  0.1184000E+00
        -11   -1    0    0    0    0  0.00000000000E+00  0.00000000000E+00  0.45593999997E+02  0.45594000000E+02  0.51100000000E-03 0. -1.
         11   -1    0    0    0    0 -0.00000000000E+00 -0.00000000000E+00 -0.45593999997E+02  0.45594000000E+02  0.51100000000E-03 0.  1.
         23    2    1    2    0    0  0.11102230246E-14  0.00000000000E+00  0.35527136788E-14  0.91188000000E+02  0.91188000000E+02 0.  0.
    9900012    2    3    3    0    0  0.19320977320E+01  0.33495586907E+02 -0.15168809923E+02  0.54367080153E+02  0.39999990824E+02 0.  0.
         12    1    3    3    0    0 -0.19320977320E+01 -0.33495586907E+02  0.15168809923E+02  0.36820919847E+02  0.00000000000E+00 0. -1.
         11    1    4    4    0    0 -0.11756050478E+02 -0.63118784555E+00 -0.93591584380E+01  0.15039846006E+02  0.51100000000E-03 0.  1.
        -11    1    4    4    0    0  0.14023641020E+02  0.27601751032E+02 -0.87349756439E+01  0.32168602196E+02  0.51100000000E-03 0. -1.
        -12    1    4    4    0    0 -0.33549280912E+00  0.65250237208E+01  0.29253241585E+01  0.71586319513E+01  0.00000000000E+00 0.  1.
</event>
<event>
 8    1  0.2531964E-006  0.9118800E+02  0.7816164E-02  0.1184000E+00
        -11   -1    0    0    0    0  0.00000000000E+00  0.00000000000E+00  0.45593999997E+02  0.45594000000E+02  0.51100000000E-03 0. -1.
         11   -1    0    0    0    0 -0.00000000000E+00 -0.00000000000E+00 -0.45593999997E+02  0.45594000000E+02  0.51100000000E-03 0.  1.
         23    2    1    2    0    0  0.35527136788E-14  0.71054273576E-14  0.00000000000E+00  0.91188000000E+02  0.91188000000E+02 0.  0.
    9900012    2    3    3    0    0 -0.22772405151E+02 -0.19601812691E+02 -0.21283038085E+02  0.54367065638E+02  0.39999957736E+02 0.  0.
         12    1    3    3    0    0  0.22772405151E+02  0.19601812691E+02  0.21283038085E+02  0.36820934362E+02  0.00000000000E+00 0. -1.
         11    1    4    4    0    0 -0.15742204976E+02 -0.24089479045E+02 -0.65256851535E+01  0.29507703827E+02  0.51100000000E-03 0. -1.
        -11    1    4    4    0    0 -0.83372853789E+01 -0.54400080988E+01 -0.66040793128E+01  0.11946458866E+02  0.51100000000E-03 0.  1.
        -12    1    4    4    0    0  0.13070852038E+01  0.99276744528E+01 -0.81532736186E+01  0.12912902945E+02  0.00000000000E+00 0.  1.
</event>
<event>
 8    1  0.2531964E-006  0.9118800E+02  0.7816164E-02  0.1184000E+00
        -11   -1    0    0    0    0  0.00000000000E+00  0.00000000000E+00  0.45593999997E+02  0.45594000000E+02  0.51100000000E-03 0.  1.
         11   -1    0    0    0    0 -0.00000000000E+00 -0.00000000000E+00 -0.45593999997E+02  0.45594000000E+02  0.51100000000E-03 0. -1.
         23    2    1    2    0    0  0.00000000000E+00 -0.35527136788E-14 -0.17763568394E-14  0.91188000000E+02  0.91188000000E+02 0.  0.
    9900012    2    3    3    0    0 -0.21393339777E+02  0.28287415069E+02  0.98958025699E+01  0.54367085473E+02  0.40000002952E+02 0.  0.
        -12    1    3    3    0    0  0.21393339777E+02 -0.28287415069E+02 -0.98958025699E+01  0.36820914527E+02  0.00000000000E+00 0.  1.
         11    1    4    4    0    0 -0.11030234338E+02  0.18338563458E+02 -0.10847024612E+02  0.23992226292E+02  0.51100000000E-03 0. -1.
        -11    1    4    4    0    0 -0.90310284611E+01  0.48964178957E+01  0.14352626985E+01  0.10372770245E+02  0.51100000000E-03 0.  1.
        -12    1    4    4    0    0 -0.13320769779E+01  0.50524337161E+01  0.19307564483E+02  0.20002088936E+02  0.00000000000E+00 0.  1.
</event>
<event>
 8    1  0.2531964E-006  0.9118800E+02  0.7816164E-02  0.1184000E+00
        -11   -1    0    0    0    0  0.00000000000E+00  0.00000000000E+00  0.45593999997E+02  0.45594000000E+02  0.51100000000E-03 0.  1.
         11   -1    0    0    0    0 -0.00000000000E+00 -0.00000000000E+00 -0.45593999997E+02  0.45594000000E+02  0.51100000000E-03 0. -1.
         23    2    1    2    0    0  0.00000000000E+00  0.00000000000E+00  0.88817841970E-15  0.91188000000E+02  0.91188000000E+02 0.  0.
    9900012    2    3    3    0    0 -0.16612309369E+01  0.36532793340E+02 -0.42866242236E+01  0.54367084413E+02  0.40000000535E+02 0.  0.
        -12    1    3    3    0    0  0.16612309369E+01 -0.36532793340E+02  0.42866242236E+01  0.36820915587E+02  0.00000000000E+00 0.  1.
         11    1    4    4    0    0 -0.14995015875E+02  0.22770609561E+02 -0.34183474862E+01  0.27477923150E+02  0.51100000000E-03 0. -1.
        -11    1    4    4    0    0  0.47505238343E+01 -0.42813151503E+01  0.20063718053E+01  0.67024371834E+01  0.51100000000E-03 0.  1.
        -12    1    4    4    0    0  0.85832611034E+01  0.18043498930E+02 -0.28746485427E+01  0.20186724079E+02  0.00000000000E+00 0.  1.
</event>
<event>
 8    1  0.2531964E-006  0.9118800E+02  0.7816164E-02  0.1184000E+00
        -11   -1    0    0    0    0  0.00000000000E+00  0.00000000000E+00  0.45593999997E+02  0.45594000000E+02  0.51100000000E-03 0.  1.
         11   -1    0    0    0    0 -0.00000000000E+00 -0.00000000000E+00 -0.45593999997E+02  0.45594000000E+02  0.51100000000E-03 0. -1.
         23    2    1    2    0    0 -0.17763568394E-14  0.00000000000E+00  0.00000000000E+00  0.91188000000E+02  0.91188000000E+02 0.  0.
    9900012    2    3    3    0    0  0.90737563998E+01  0.35231058299E+02 -0.56762020657E+01  0.54367084830E+02  0.40000001487E+02 0.  0.
        -12    1    3    3    0    0 -0.90737563998E+01 -0.35231058299E+02  0.56762020657E+01  0.36820915170E+02  0.00000000000E+00 0.  1.
         11    1    4    4    0    0  0.39889100005E+01 -0.47369029600E+01 -0.50448622460E+01  0.79875082464E+01  0.51100000000E-03 0. -1.
        -11    1    4    4    0    0  0.25916406489E+01 -0.57917410855E+00  0.47091726666E+01  0.54063251258E+01  0.51100000000E-03 0.  1.
         12    1    4    4    0    0  0.24932057505E+01  0.40547135367E+02 -0.53405124863E+01  0.40973251458E+02  0.00000000000E+00 0. -1.
</event>
<event>
 8    1  0.2531964E-006  0.9118800E+02  0.7816164E-02  0.1184000E+00
        -11   -1    0    0    0    0  0.00000000000E+00  0.00000000000E+00  0.45593999997E+02  0.45594000000E+02  0.51100000000E-03 0.  1.
         11   -1    0    0    0    0 -0.00000000000E+00 -0.00000000000E+00 -0.45593999997E+02  0.45594000000E+02  0.51100000000E-03 0. -1.
         23    2    1    2    0    0  0.00000000000E+00  0.00000000000E+00 -0.17763568394E-14  0.91188000000E+02  0.91188000000E+02 0.  0.
    9900012    2    3    3    0    0 -0.34042773159E+02 -0.36439546407E+01  0.13549579695E+02  0.54367083122E+02  0.39999997594E+02 0.  0.
         12    1    3    3    0    0  0.34042773159E+02  0.36439546407E+01 -0.13549579695E+02  0.36820916878E+02  0.00000000000E+00 0. -1.
         11    1    4    4    0    0  0.18377775403E+01  0.32398726387E+01 -0.47752144035E+01  0.60561434810E+01  0.51100000000E-03 0. -1.
        -11    1    4    4    0    0 -0.29049543314E+02 -0.23021569992E+01  0.10288142433E+01  0.29158778311E+02  0.51100000000E-03 0.  1.
        -12    1    4    4    0    0 -0.68310073853E+01 -0.45816702801E+01  0.17295979855E+02  0.19152161330E+02  0.00000000000E+00 0.  1.
</event>
<event>
 8    1  0.2531964E-006  0.9118800E+02  0.7816164E-02  0.1184000E+00
        -11   -1    0    0    0    0  0.00000000000E+00  0.00000000000E+00  0.45593999997E+02  0.45594000000E+02  0.51100000000E-03 0.  1.
         11   -1    0    0    0    0 -0.00000000000E+00 -0.00000000000E+00 -0.45593999997E+02  0.45594000000E+02  0.51100000000E-03 0. -1.
         23    2    1    2    0    0  0.00000000000E+00  0.35527136788E-14  0.71054273576E-14  0.91188000000E+02  0.91188000000E+02 0.  0.
    9900012    2    3    3    0    0  0.14529838549E+02 -0.25708783103E+02  0.21993686161E+02  0.54367082469E+02  0.39999996104E+02 0.  0.
         12    1    3    3    0    0 -0.14529838549E+02  0.25708783103E+02 -0.21993686161E+02  0.36820917531E+02  0.00000000000E+00 0. -1.
         11    1    4    4    0    0  0.75434233335E+01 -0.22721978147E+02  0.24962307421E+01  0.24071200524E+02  0.51100000000E-03 0.  1.
        -11    1    4    4    0    0  0.11898669628E+01  0.74215742181E+01  0.82199073315E-01  0.75168014616E+01  0.51100000000E-03 0. -1.
        -12    1    4    4    0    0  0.57965482531E+01 -0.10408379174E+02  0.19415256346E+02  0.22779080483E+02  0.00000000000E+00 0.  1.
</event>
<event>
 8    1  0.2531964E-006  0.9118800E+02  0.7816164E-02  0.1184000E+00
        -11   -1    0    0    0    0  0.00000000000E+00  0.00000000000E+00  0.45593999997E+02  0.45594000000E+02  0.51100000000E-03 0.  1.
         11   -1    0    0    0    0 -0.00000000000E+00 -0.00000000000E+00 -0.45593999997E+02  0.45594000000E+02  0.51100000000E-03 0. -1.
         23    2    1    2    0    0  0.35527136788E-14  0.00000000000E+00  0.00000000000E+00  0.91188000000E+02  0.91188000000E+02 0.  0.
    9900012    2    3    3    0    0 -0.23166307126E+02  0.10182076464E+02 -0.26747537854E+02  0.54367037924E+02  0.39999894554E+02 0.  0.
        -12    1    3    3    0    0  0.23166307126E+02 -0.10182076464E+02  0.26747537854E+02  0.36820962076E+02  0.00000000000E+00 0.  1.
         11    1    4    4    0    0 -0.19942127067E+02 -0.21646692335E+01 -0.16536005189E+02  0.25996416920E+02  0.51100000000E-03 0. -1.
        -11    1    4    4    0    0  0.56298198616E+01  0.87395534888E+00 -0.12464219768E+02  0.13704577495E+02  0.51100000000E-03 0.  1.
        -12    1    4    4    0    0 -0.88539999214E+01  0.11472790349E+02  0.22526871035E+01  0.14666043508E+02  0.00000000000E+00 0.  1.
</event>
<event>
 8    1  0.2531964E-006  0.9118800E+02  0.7816164E-02  0.1184000E+00
        -11   -1    0    0    0    0  0.00000000000E+00  0.00000000000E+00  0.45593999997E+02  0.45594000000E+02  0.51100000000E-03 0. -1.
         11   -1    0    0    0    0 -0.00000000000E+00 -0.00000000000E+00 -0.45593999997E+02  0.45594000000E+02  0.51100000000E-03 0.  1.
         23    2    1    2    0    0  0.35527136788E-14  0.00000000000E+00 -0.35527136788E-14  0.91188000000E+02  0.91188000000E+02 0.  0.
    9900012    2    3    3    0    0  0.24441247567E+02 -0.20394992424E+02 -0.18505396365E+02  0.54367082124E+02  0.39999995318E+02 0.  0.
         12    1    3    3    0    0 -0.24441247567E+02  0.20394992424E+02  0.18505396365E+02  0.36820917876E+02  0.00000000000E+00 0. -1.
         11    1    4    4    0    0  0.14272907061E+02 -0.14684503993E+02 -0.48934595916E+01  0.21054607109E+02  0.51100000000E-03 0. -1.
        -11    1    4    4    0    0  0.16252273401E+02 -0.21571926623E+01 -0.18513719755E+02  0.24729490296E+02  0.51100000000E-03 0.  1.
         12    1    4    4    0    0 -0.60839328952E+01 -0.35532957683E+01  0.49017829808E+01  0.85829847187E+01  0.00000000000E+00 0. -1.
</event>
<event>
 8    1  0.2531964E-006  0.9118800E+02  0.7816164E-02  0.1184000E+00
        -11   -1    0    0    0    0  0.00000000000E+00  0.00000000000E+00  0.45593999997E+02  0.45594000000E+02  0.51100000000E-03 0. -1.
         11   -1    0    0    0    0 -0.00000000000E+00 -0.00000000000E+00 -0.45593999997E+02  0.45594000000E+02  0.51100000000E-03 0.  1.
         23    2    1    2    0    0  0.00000000000E+00  0.17763568394E-14  0.00000000000E+00  0.91188000000E+02  0.91188000000E+02 0.  0.
    9900012    2    3    3    0    0 -0.32430691278E+02  0.13050280954E+02 -0.11563824474E+02  0.54367060221E+02  0.39999945385E+02 0.  0.
         12    1    3    3    0    0  0.32430691278E+02 -0.13050280954E+02  0.11563824474E+02  0.36820939779E+02  0.00000000000E+00 0. -1.
         11    1    4    4    0    0 -0.81047756107E+01  0.60981510234E+01  0.13002316231E+02  0.16490453640E+02  0.51100000000E-03 0. -1.
        -11    1    4    4    0    0 -0.22627872549E+02  0.10312894879E+02 -0.19706403611E+02  0.31728831691E+02  0.51100000000E-03 0.  1.
         12    1    4    4    0    0 -0.16980431182E+01 -0.33607649488E+01 -0.48597370947E+01  0.61477748903E+01  0.00000000000E+00 0. -1.
</event>
<event>
 8    1  0.2531964E-006  0.9118800E+02  0.7816164E-02  0.1184000E+00
        -11   -1    0    0    0    0  0.00000000000E+00  0.00000000000E+00  0.45593999997E+02  0.45594000000E+02  0.51100000000E-03 0.  1.
         11   -1    0    0    0    0 -0.00000000000E+00 -0.00000000000E+00 -0.45593999997E+02  0.45594000000E+02  0.51100000000E-03 0. -1.
         23    2    1    2    0    0  0.35527136788E-14  0.35527136788E-14 -0.66613381478E-15  0.91188000000E+02  0.91188000000E+02 0.  0.
    9900012    2    3    3    0    0 -0.22738772845E+02  0.28932064736E+02 -0.12895753183E+01  0.54367093372E+02  0.40000020960E+02 0.  0.
        -12    1    3    3    0    0  0.22738772845E+02 -0.28932064736E+02  0.12895753183E+01  0.36820906628E+02  0.00000000000E+00 0.  1.
         11    1    4    4    0    0 -0.16247914968E+02  0.11088642201E+02 -0.53581943577E+00  0.19678410236E+02  0.51100000000E-03 0. -1.
        -11    1    4    4    0    0 -0.11745346482E+02 -0.20161112710E+01  0.56253910908E+01  0.13178121787E+02  0.51100000000E-03 0.  1.
         12    1    4    4    0    0  0.52544886045E+01  0.19859533806E+02 -0.63791469733E+01  0.21510561350E+02  0.00000000000E+00 0. -1.
</event>
<event>
 8    1  0.2531964E-006  0.9118800E+02  0.7816164E-02  0.1184000E+00
        -11   -1    0    0    0    0  0.00000000000E+00  0.00000000000E+00  0.45593999997E+02  0.45594000000E+02  0.51100000000E-03 0. -1.
         11   -1    0    0    0    0 -0.00000000000E+00 -0.00000000000E+00 -0.45593999997E+02  0.45594000000E+02  0.51100000000E-03 0.  1.
         23    2    1    2    0    0 -0.17763568394E-14  0.35527136788E-14  0.35527136788E-14  0.91188000000E+02  0.91188000000E+02 0.  0.
    9900012    2    3    3    0    0  0.80745143814E+01 -0.17407350117E+02  0.31425573013E+02  0.54367078504E+02  0.39999987066E+02 0.  0.
        -12    1    3    3    0    0 -0.80745143814E+01  0.17407350117E+02 -0.31425573013E+02  0.36820921496E+02  0.00000000000E+00 0.  1.
         11    1    4    4    0    0  0.22074066122E+00  0.57820720995E+00  0.25680289203E+02  0.25687746180E+02  0.51100000000E-03 0. -1.
        -11    1    4    4    0    0 -0.22448891124E+00  0.39690065665E+01  0.32844405507E+01  0.51566421621E+01  0.51100000000E-03 0.  1.
         12    1    4    4    0    0  0.80782626314E+01 -0.21954563894E+02  0.24608432593E+01  0.23522690162E+02  0.00000000000E+00 0. -1.
</event>
<event>
 8    1  0.2531964E-006  0.9118800E+02  0.7816164E-02  0.1184000E+00
        -11   -1    0    0    0    0  0.00000000000E+00  0.00000000000E+00  0.45593999997E+02  0.45594000000E+02  0.51100000000E-03 0. -1.
         11   -1    0    0    0    0 -0.00000000000E+00 -0.00000000000E+00 -0.45593999997E+02  0.45594000000E+02  0.51100000000E-03 0.  1.
         23    2    1    2    0    0  0.00000000000E+00  0.00000000000E+00  0.00000000000E+00  0.91188000000E+02  0.91188000000E+02 0.  0.
    9900012    2    3    3    0    0  0.15553745181E+02  0.29349297067E+02  0.15889659410E+02  0.54367061614E+02  0.39999948561E+02 0.  0.
        -12    1    3    3    0    0 -0.15553745181E+02 -0.29349297067E+02 -0.15889659410E+02  0.36820938386E+02  0.00000000000E+00 0.  1.
         11    1    4    4    0    0 -0.80144476542E+01  0.10505157157E+02  0.38821798525E+01  0.13771747121E+02  0.51100000000E-03 0. -1.
        -11    1    4    4    0    0  0.85608083339E+01  0.13173230924E+02 -0.56893150780E+01  0.16708972399E+02  0.51100000000E-03 0.  1.
         12    1    4    4    0    0  0.15007384501E+02  0.56709089865E+01  0.17696794636E+02  0.23886342095E+02  0.00000000000E+00 0. -1.
</event>
<event>
 8    1  0.2531964E-006  0.9118800E+02  0.7816164E-02  0.1184000E+00
        -11   -1    0    0    0    0  0.00000000000E+00  0.00000000000E+00  0.45593999997E+02  0.45594000000E+02  0.51100000000E-03 0. -1.
         11   -1    0    0    0    0 -0.00000000000E+00 -0.00000000000E+00 -0.45593999997E+02  0.45594000000E+02  0.51100000000E-03 0.  1.
         23    2    1    2    0    0  0.35527136788E-14  0.00000000000E+00 -0.35527136788E-14  0.91188000000E+02  0.91188000000E+02 0.  0.
    9900012    2    3    3    0    0 -0.26941032997E+02 -0.12935025087E+02  0.21509196231E+02  0.54367086711E+02  0.40000005774E+02 0.  0.
        -12    1    3    3    0    0  0.26941032997E+02  0.12935025087E+02 -0.21509196231E+02  0.36820913289E+02  0.00000000000E+00 0.  1.
         11    1    4    4    0    0 -0.67364391223E+01  0.25608828630E+01  0.12520192083E+02  0.14446208608E+02  0.51100000000E-03 0. -1.
        -11    1    4    4    0    0 -0.13421544746E+01 -0.12402165998E+02  0.15346381085E+02  0.19776918687E+02  0.51100000000E-03 0.  1.
         12    1    4    4    0    0 -0.18862439400E+02 -0.30937419521E+01 -0.63573769377E+01  0.20143959415E+02  0.00000000000E+00 0. -1.
</event>
<event>
 8    1  0.2531964E-006  0.9118800E+02  0.7816164E-02  0.1184000E+00
        -11   -1    0    0    0    0  0.00000000000E+00  0.00000000000E+00  0.45593999997E+02  0.45594000000E+02  0.51100000000E-03 0. -1.
         11   -1    0    0    0    0 -0.00000000000E+00 -0.00000000000E+00 -0.45593999997E+02  0.45594000000E+02  0.51100000000E-03 0.  1.
         23    2    1    2    0    0 -0.35527136788E-14  0.17763568394E-14  0.00000000000E+00  0.91188000000E+02  0.91188000000E+02 0.  0.
    9900012    2    3    3    0    0  0.25943555815E+02 -0.15586730881E+02 -0.20970595721E+02  0.54367079958E+02  0.39999990379E+02 0.  0.
         12    1    3    3    0    0 -0.25943555815E+02  0.15586730881E+02  0.20970595721E+02  0.36820920042E+02  0.00000000000E+00 0. -1.
         11    1    4    4    0    0  0.15683287840E+02  0.56391295736E+01  0.54151270174E+01  0.17523952200E+02  0.51100000000E-03 0. -1.
        -11    1    4    4    0    0  0.10532263790E+02 -0.12763923792E+02 -0.13175696103E+02  0.21152902854E+02  0.51100000000E-03 0.  1.
         12    1    4    4    0    0 -0.27199581516E+00 -0.84619366627E+01 -0.13210026636E+02  0.15690224904E+02  0.00000000000E+00 0. -1.
</event>
<event>
 8    1  0.2531964E-006  0.9118800E+02  0.7816164E-02  0.1184000E+00
        -11   -1    0    0    0    0  0.00000000000E+00  0.00000000000E+00  0.45593999997E+02  0.45594000000E+02  0.51100000000E-03 0.  1.
         11   -1    0    0    0    0 -0.00000000000E+00 -0.00000000000E+00 -0.45593999997E+02  0.45594000000E+02  0.51100000000E-03 0. -1.
         23    2    1    2    0    0  0.00000000000E+00 -0.35527136788E-14  0.44408920985E-15  0.91188000000E+02  0.91188000000E+02 0.  0.
    9900012    2    3    3    0    0  0.18804438863E+02  0.31581158128E+02 -0.21915250483E+01  0.54367092194E+02  0.40000018274E+02 0.  0.
         12    1    3    3    0    0 -0.18804438863E+02 -0.31581158128E+02  0.21915250483E+01  0.36820907806E+02  0.00000000000E+00 0. -1.
         11    1    4    4    0    0  0.84719141645E+01  0.42836949126E+01 -0.14526988304E+02  0.17353868767E+02  0.51100000000E-03 0. -1.
        -11    1    4    4    0    0  0.20452852084E+00  0.23421681078E+02  0.11616960356E+02  0.26145185878E+02  0.51100000000E-03 0.  1.
         12    1    4    4    0    0  0.10127996177E+02  0.38757821376E+01  0.71850290044E+00  0.10868037549E+02  0.00000000000E+00 0. -1.
</event>
<event>
 8    1  0.2531964E-006  0.9118800E+02  0.7816164E-02  0.1184000E+00
        -11   -1    0    0    0    0  0.00000000000E+00  0.00000000000E+00  0.45593999997E+02  0.45594000000E+02  0.51100000000E-03 0.  1.
         11   -1    0    0    0    0 -0.00000000000E+00 -0.00000000000E+00 -0.45593999997E+02  0.45594000000E+02  0.51100000000E-03 0. -1.
         23    2    1    2    0    0 -0.71054273576E-14  0.35527136788E-14  0.35527136788E-14  0.91188000000E+02  0.91188000000E+02 0.  0.
    9900012    2    3    3    0    0  0.19673119367E+02 -0.18162547928E+02 -0.25275879958E+02  0.54367083655E+02  0.39999998808E+02 0.  0.
        -12    1    3    3    0    0 -0.19673119367E+02  0.18162547928E+02  0.25275879958E+02  0.36820916345E+02  0.00000000000E+00 0.  1.
         11    1    4    4    0    0  0.17293036376E+02 -0.11122870378E+01  0.43800780773E+01  0.17873762161E+02  0.51100000000E-03 0.  1.
        -11    1    4    4    0    0 -0.34578943805E+01 -0.59352754848E+01 -0.18366897229E+02  0.19609371298E+02  0.51100000000E-03 0. -1.
        -12    1    4    4    0    0  0.58379773712E+01 -0.11114985405E+02 -0.11289060806E+02  0.16883950196E+02  0.00000000000E+00 0.  1.
</event>
<event>
 8    1  0.2531964E-006  0.9118800E+02  0.7816164E-02  0.1184000E+00
        -11   -1    0    0    0    0  0.00000000000E+00  0.00000000000E+00  0.45593999997E+02  0.45594000000E+02  0.51100000000E-03 0.  1.
         11   -1    0    0    0    0 -0.00000000000E+00 -0.00000000000E+00 -0.45593999997E+02  0.45594000000E+02  0.51100000000E-03 0. -1.
         23    2    1    2    0    0 -0.35527136788E-14 -0.35527136788E-14 -0.88817841970E-15  0.91188000000E+02  0.91188000000E+02 0.  0.
    9900012    2    3    3    0    0  0.28929101720E+02  0.22073652889E+02  0.56250312737E+01  0.54367081285E+02  0.39999993406E+02 0.  0.
        -12    1    3    3    0    0 -0.28929101720E+02 -0.22073652889E+02 -0.56250312737E+01  0.36820918715E+02  0.00000000000E+00 0.  1.
         11    1    4    4    0    0  0.16734804713E+02  0.11637275163E+02 -0.39617579531E+01  0.20764763142E+02  0.51100000000E-03 0. -1.
        -11    1    4    4    0    0 -0.77604859521E+01  0.92535921770E+01  0.21097055020E+01  0.12259892657E+02  0.51100000000E-03 0.  1.
        -12    1    4    4    0    0  0.19954782959E+02  0.11827855484E+01  0.74770837248E+01  0.21342425486E+02  0.00000000000E+00 0.  1.
</event>
<event>
 8    1  0.2531964E-006  0.9118800E+02  0.7816164E-02  0.1184000E+00
        -11   -1    0    0    0    0  0.00000000000E+00  0.00000000000E+00  0.45593999997E+02  0.45594000000E+02  0.51100000000E-03 0.  1.
         11   -1    0    0    0    0 -0.00000000000E+00 -0.00000000000E+00 -0.45593999997E+02  0.45594000000E+02  0.51100000000E-03 0. -1.
         23    2    1    2    0    0  0.00000000000E+00  0.00000000000E+00  0.00000000000E+00  0.91188000000E+02  0.91188000000E+02 0.  0.
    9900012    2    3    3    0    0  0.21992366068E+02  0.18008346003E+02  0.23405457758E+02  0.54367080078E+02  0.39999990654E+02 0.  0.
         12    1    3    3    0    0 -0.21992366068E+02 -0.18008346003E+02 -0.23405457758E+02  0.36820919922E+02  0.00000000000E+00 0. -1.
         11    1    4    4    0    0  0.25313956122E+02  0.78682834383E+01  0.99209384656E+01  0.28304262561E+02  0.51100000000E-03 0. -1.
        -11    1    4    4    0    0  0.78459841206E+01  0.68551303872E+01  0.82955760857E+01  0.13317990175E+02  0.51100000000E-03 0.  1.
         12    1    4    4    0    0 -0.11167574175E+02  0.32849321775E+01  0.51889432068E+01  0.12744827342E+02  0.00000000000E+00 0. -1.
</event>
<event>
 8    1  0.2531964E-006  0.9118800E+02  0.7816164E-02  0.1184000E+00
        -11   -1    0    0    0    0  0.00000000000E+00  0.00000000000E+00  0.45593999997E+02  0.45594000000E+02  0.51100000000E-03 0. -1.
         11   -1    0    0    0    0 -0.00000000000E+00 -0.00000000000E+00 -0.45593999997E+02  0.45594000000E+02  0.51100000000E-03 0.  1.
         23    2    1    2    0    0  0.35527136788E-14  0.00000000000E+00  0.35527136788E-14  0.91188000000E+02  0.91188000000E+02 0.  0.
    9900012    2    3    3    0    0  0.22438790893E+02 -0.19584593342E+02 -0.21650047089E+02  0.54367079696E+02  0.39999989783E+02 0.  0.
         12    1    3    3    0    0 -0.22438790893E+02  0.19584593342E+02  0.21650047089E+02  0.36820920304E+02  0.00000000000E+00 0. -1.
         11    1    4    4    0    0  0.75316405519E+01  0.53134069363E+01 -0.96573275561E+01  0.13349976721E+02  0.51100000000E-03 0. -1.
        -11    1    4    4    0    0 -0.76154180714E+01 -0.61295414137E+01 -0.15650353157E+01  0.99002629331E+01  0.51100000000E-03 0.  1.
         12    1    4    4    0    0  0.22522568412E+02 -0.18768458865E+02 -0.10427684217E+02  0.31116840041E+02  0.00000000000E+00 0. -1.
</event>
<event>
 8    1  0.2531964E-006  0.9118800E+02  0.7816164E-02  0.1184000E+00
        -11   -1    0    0    0    0  0.00000000000E+00  0.00000000000E+00  0.45593999997E+02  0.45594000000E+02  0.51100000000E-03 0. -1.
         11   -1    0    0    0    0 -0.00000000000E+00 -0.00000000000E+00 -0.45593999997E+02  0.45594000000E+02  0.51100000000E-03 0.  1.
         23    2    1    2    0    0  0.00000000000E+00  0.00000000000E+00  0.00000000000E+00  0.91188000000E+02  0.91188000000E+02 0.  0.
    9900012    2    3    3    0    0 -0.32769011614E+02  0.16594604465E+02 -0.25671159180E+01  0.54367094204E+02  0.40000022857E+02 0.  0.
        -12    1    3    3    0    0  0.32769011614E+02 -0.16594604465E+02  0.25671159180E+01  0.36820905796E+02  0.00000000000E+00 0.  1.
         11    1    4    4    0    0  0.45730485172E+01  0.21779907288E+01  0.33848832973E+01  0.60921138821E+01  0.51100000000E-03 0. -1.
        -11    1    4    4    0    0 -0.22681501501E+02  0.21091679064E+02 -0.81243095609E+01  0.32020522204E+02  0.51100000000E-03 0.  1.
         12    1    4    4    0    0 -0.14660558630E+02 -0.66750653283E+01  0.21723103456E+01  0.16254458118E+02  0.00000000000E+00 0. -1.
</event>
<event>
 8    1  0.2531964E-006  0.9118800E+02  0.7816164E-02  0.1184000E+00
        -11   -1    0    0    0    0  0.00000000000E+00  0.00000000000E+00  0.45593999997E+02  0.45594000000E+02  0.51100000000E-03 0.  1.
         11   -1    0    0    0    0 -0.00000000000E+00 -0.00000000000E+00 -0.45593999997E+02  0.45594000000E+02  0.51100000000E-03 0. -1.
         23    2    1    2    0    0 -0.35527136788E-14  0.00000000000E+00  0.00000000000E+00  0.91188000000E+02  0.91188000000E+02 0.  0.
    9900012    2    3    3    0    0 -0.18325025975E+02  0.28504845587E+02  0.14403048449E+02  0.54367073836E+02  0.39999976423E+02 0.  0.
         12    1    3    3    0    0  0.18325025975E+02 -0.28504845587E+02 -0.14403048449E+02  0.36820926164E+02  0.00000000000E+00 0. -1.
         11    1    4    4    0    0 -0.74075830110E+01 -0.40812615892E+01  0.45910280132E+01  0.96232281851E+01  0.51100000000E-03 0. -1.
        -11    1    4    4    0    0 -0.18015271426E+02  0.27581963284E+02  0.19052531449E+01  0.32999162004E+02  0.51100000000E-03 0.  1.
        -12    1    4    4    0    0  0.70978284612E+01  0.50041438926E+01  0.79067672914E+01  0.11744683647E+02  0.00000000000E+00 0.  1.
</event>
<event>
 8    1  0.2531964E-006  0.9118800E+02  0.7816164E-02  0.1184000E+00
        -11   -1    0    0    0    0  0.00000000000E+00  0.00000000000E+00  0.45593999997E+02  0.45594000000E+02  0.51100000000E-03 0. -1.
         11   -1    0    0    0    0 -0.00000000000E+00 -0.00000000000E+00 -0.45593999997E+02  0.45594000000E+02  0.51100000000E-03 0.  1.
         23    2    1    2    0    0 -0.35527136788E-14  0.15681900223E-14  0.00000000000E+00  0.91188000000E+02  0.91188000000E+02 0.  0.
    9900012    2    3    3    0    0  0.25677710652E+02  0.10624188729E+00  0.26389843242E+02  0.54367082874E+02  0.39999997027E+02 0.  0.
        -12    1    3    3    0    0 -0.25677710652E+02 -0.10624188729E+00 -0.26389843242E+02  0.36820917126E+02  0.00000000000E+00 0.  1.
         11    1    4    4    0    0  0.18190918377E+02 -0.16879210085E+02  0.18334328799E+02  0.30853927745E+02  0.51100000000E-03 0. -1.
        -11    1    4    4    0    0 -0.62165701449E+00  0.95768317571E+01  0.80556277239E+01  0.12529776624E+02  0.51100000000E-03 0.  1.
         12    1    4    4    0    0  0.81084492893E+01  0.74086202155E+01 -0.11328066348E-03  0.10983378505E+02  0.00000000000E+00 0. -1.
</event>
<event>
 8    1  0.2531964E-006  0.9118800E+02  0.7816164E-02  0.1184000E+00
        -11   -1    0    0    0    0  0.00000000000E+00  0.00000000000E+00  0.45593999997E+02  0.45594000000E+02  0.51100000000E-03 0. -1.
         11   -1    0    0    0    0 -0.00000000000E+00 -0.00000000000E+00 -0.45593999997E+02  0.45594000000E+02  0.51100000000E-03 0.  1.
         23    2    1    2    0    0  0.71054273576E-14  0.00000000000E+00  0.00000000000E+00  0.91188000000E+02  0.91188000000E+02 0.  0.
    9900012    2    3    3    0    0  0.32406441407E+02  0.13880044901E+02 -0.10627533405E+02  0.54367115201E+02  0.40000070723E+02 0.  0.
         12    1    3    3    0    0 -0.32406441407E+02 -0.13880044901E+02  0.10627533405E+02  0.36820884799E+02  0.00000000000E+00 0. -1.
         11    1    4    4    0    0  0.10063843441E+02 -0.17360232587E+01  0.39602522763E+01  0.10953461549E+02  0.51100000000E-03 0. -1.
        -11    1    4    4    0    0 -0.52727813454E+01 -0.37973089019E+01  0.33390400220E+00  0.65064022437E+01  0.51100000000E-03 0.  1.
        -12    1    4    4    0    0  0.27615379312E+02  0.19413377062E+02 -0.14921689683E+02  0.36907251408E+02  0.00000000000E+00 0.  1.
</event>
<event>
 8    1  0.2531964E-006  0.9118800E+02  0.7816164E-02  0.1184000E+00
        -11   -1    0    0    0    0  0.00000000000E+00  0.00000000000E+00  0.45593999997E+02  0.45594000000E+02  0.51100000000E-03 0. -1.
         11   -1    0    0    0    0 -0.00000000000E+00 -0.00000000000E+00 -0.45593999997E+02  0.45594000000E+02  0.51100000000E-03 0.  1.
         23    2    1    2    0    0  0.00000000000E+00  0.00000000000E+00 -0.22204460493E-14  0.91188000000E+02  0.91188000000E+02 0.  0.
    9900012    2    3    3    0    0 -0.96442963018E+01 -0.35501053360E+02 -0.15637393013E+01  0.54367047793E+02  0.39999917053E+02 0.  0.
         12    1    3    3    0    0  0.96442963018E+01  0.35501053360E+02  0.15637393013E+01  0.36820952207E+02  0.00000000000E+00 0. -1.
         11    1    4    4    0    0 -0.51203147000E+01 -0.19701812990E+02  0.13211601446E+02  0.24267786688E+02  0.51100000000E-03 0. -1.
        -11    1    4    4    0    0 -0.85023326473E+01 -0.17579449237E+02 -0.16346383825E+02  0.25466271033E+02  0.51100000000E-03 0.  1.
         12    1    4    4    0    0  0.39783510455E+01  0.17802088664E+01  0.15710430773E+01  0.46329900712E+01  0.00000000000E+00 0. -1.
</event>
<event>
 8    1  0.2531964E-006  0.9118800E+02  0.7816164E-02  0.1184000E+00
        -11   -1    0    0    0    0  0.00000000000E+00  0.00000000000E+00  0.45593999997E+02  0.45594000000E+02  0.51100000000E-03 0. -1.
         11   -1    0    0    0    0 -0.00000000000E+00 -0.00000000000E+00 -0.45593999997E+02  0.45594000000E+02  0.51100000000E-03 0.  1.
         23    2    1    2    0    0  0.00000000000E+00 -0.35527136788E-14 -0.35527136788E-14  0.91188000000E+02  0.91188000000E+02 0.  0.
    9900012    2    3    3    0    0 -0.92039198677E+01 -0.27200741351E+02 -0.23047463033E+02  0.54367108875E+02  0.40000056303E+02 0.  0.
         12    1    3    3    0    0  0.92039198677E+01  0.27200741351E+02  0.23047463033E+02  0.36820891125E+02  0.00000000000E+00 0. -1.
         11    1    4    4    0    0 -0.11228738594E+02 -0.12359074198E+01  0.66116726338E+00  0.11315881758E+02  0.51100000000E-03 0. -1.
        -11    1    4    4    0    0  0.37126191973E+01  0.28611321133E+01  0.12863322130E+01  0.48604803361E+01  0.51100000000E-03 0.  1.
        -12    1    4    4    0    0 -0.16878004711E+01 -0.28825966045E+02 -0.24994962509E+02  0.38190746781E+02  0.00000000000E+00 0.  1.
</event>
<event>
 8    1  0.2531964E-006  0.9118800E+02  0.7816164E-02  0.1184000E+00
        -11   -1    0    0    0    0  0.00000000000E+00  0.00000000000E+00  0.45593999997E+02  0.45594000000E+02  0.51100000000E-03 0. -1.
         11   -1    0    0    0    0 -0.00000000000E+00 -0.00000000000E+00 -0.45593999997E+02  0.45594000000E+02  0.51100000000E-03 0.  1.
         23    2    1    2    0    0  0.00000000000E+00 -0.13322676296E-14  0.00000000000E+00  0.91188000000E+02  0.91188000000E+02 0.  0.
    9900012    2    3    3    0    0 -0.58256146652E+01  0.27742231725E+01 -0.36251146076E+02  0.54367086211E+02  0.40000004636E+02 0.  0.
         12    1    3    3    0    0  0.58256146652E+01 -0.27742231725E+01  0.36251146076E+02  0.36820913789E+02  0.00000000000E+00 0. -1.
         11    1    4    4    0    0 -0.22069897697E+01 -0.95574961224E+00  0.15708871182E+01  0.28726203655E+01  0.51100000000E-03 0. -1.
        -11    1    4    4    0    0  0.64605127576E+01  0.16962192769E+02 -0.17264187952E+02  0.25050077735E+02  0.51100000000E-03 0.  1.
        -12    1    4    4    0    0 -0.10079137653E+02 -0.13232219984E+02 -0.20557845242E+02  0.26444388111E+02  0.00000000000E+00 0.  1.
</event>
<event>
 8    1  0.2531964E-006  0.9118800E+02  0.7816164E-02  0.1184000E+00
        -11   -1    0    0    0    0  0.00000000000E+00  0.00000000000E+00  0.45593999997E+02  0.45594000000E+02  0.51100000000E-03 0.  1.
         11   -1    0    0    0    0 -0.00000000000E+00 -0.00000000000E+00 -0.45593999997E+02  0.45594000000E+02  0.51100000000E-03 0. -1.
         23    2    1    2    0    0  0.00000000000E+00  0.00000000000E+00  0.00000000000E+00  0.91188000000E+02  0.91188000000E+02 0.  0.
    9900012    2    3    3    0    0 -0.30334997183E+01  0.26899442525E+02 -0.24959942100E+02  0.54367070648E+02  0.39999969156E+02 0.  0.
        -12    1    3    3    0    0  0.30334997183E+01 -0.26899442525E+02  0.24959942100E+02  0.36820929352E+02  0.00000000000E+00 0.  1.
         11    1    4    4    0    0 -0.59884816153E+01 -0.63964667931E+01 -0.11346446566E+02  0.14335918158E+02  0.51100000000E-03 0. -1.
        -11    1    4    4    0    0  0.54991410817E+01  0.26433272731E+01 -0.55158248893E+01  0.82250870014E+01  0.51100000000E-03 0.  1.
        -12    1    4    4    0    0 -0.25441591847E+01  0.30652582045E+02 -0.80976706447E+01  0.31806065488E+02  0.00000000000E+00 0.  1.
</event>
<event>
 8    1  0.2531964E-006  0.9118800E+02  0.7816164E-02  0.1184000E+00
        -11   -1    0    0    0    0  0.00000000000E+00  0.00000000000E+00  0.45593999997E+02  0.45594000000E+02  0.51100000000E-03 0.  1.
         11   -1    0    0    0    0 -0.00000000000E+00 -0.00000000000E+00 -0.45593999997E+02  0.45594000000E+02  0.51100000000E-03 0. -1.
         23    2    1    2    0    0  0.00000000000E+00  0.88817841970E-15  0.00000000000E+00  0.91188000000E+02  0.91188000000E+02 0.  0.
    9900012    2    3    3    0    0 -0.33966667222E+02 -0.26765692981E+01  0.13959986023E+02  0.54367085900E+02  0.40000003927E+02 0.  0.
        -12    1    3    3    0    0  0.33966667222E+02  0.26765692981E+01 -0.13959986023E+02  0.36820914100E+02  0.00000000000E+00 0.  1.
         11    1    4    4    0    0  0.32718802726E+01  0.45926364345E+01  0.38248055611E+01  0.68137102800E+01  0.51100000000E-03 0. -1.
        -11    1    4    4    0    0  0.91965674701E+00 -0.61690499668E+01  0.68101570046E+01  0.92347812488E+01  0.51100000000E-03 0.  1.
         12    1    4    4    0    0 -0.38158204241E+02 -0.11001557658E+01  0.33250234577E+01  0.38318594372E+02  0.00000000000E+00 0. -1.
</event>
<event>
 8    1  0.2531964E-006  0.9118800E+02  0.7816164E-02  0.1184000E+00
        -11   -1    0    0    0    0  0.00000000000E+00  0.00000000000E+00  0.45593999997E+02  0.45594000000E+02  0.51100000000E-03 0.  1.
         11   -1    0    0    0    0 -0.00000000000E+00 -0.00000000000E+00 -0.45593999997E+02  0.45594000000E+02  0.51100000000E-03 0. -1.
         23    2    1    2    0    0  0.00000000000E+00  0.17763568394E-14  0.71054273576E-14  0.91188000000E+02  0.91188000000E+02 0.  0.
    9900012    2    3    3    0    0  0.12467730338E+02 -0.10302105570E+02 -0.33078693199E+02  0.54367114314E+02  0.40000068701E+02 0.  0.
        -12    1    3    3    0    0 -0.12467730338E+02  0.10302105570E+02  0.33078693199E+02  0.36820885686E+02  0.00000000000E+00 0.  1.
         11    1    4    4    0    0  0.93471706846E+01 -0.20882895176E+02 -0.16324563213E+02  0.28106160803E+02  0.51100000000E-03 0. -1.
        -11    1    4    4    0    0  0.82791308549E+01  0.10372350792E+00 -0.90732595099E+01  0.12283273370E+02  0.51100000000E-03 0.  1.
        -12    1    4    4    0    0 -0.51585712011E+01  0.10477066098E+02 -0.76808704760E+01  0.13977680141E+02  0.00000000000E+00 0.  1.
</event>
<event>
 8    1  0.2531964E-006  0.9118800E+02  0.7816164E-02  0.1184000E+00
        -11   -1    0    0    0    0  0.00000000000E+00  0.00000000000E+00  0.45593999997E+02  0.45594000000E+02  0.51100000000E-03 0.  1.
         11   -1    0    0    0    0 -0.00000000000E+00 -0.00000000000E+00 -0.45593999997E+02  0.45594000000E+02  0.51100000000E-03 0. -1.
         23    2    1    2    0    0  0.17763568394E-14  0.35527136788E-14  0.00000000000E+00  0.91188000000E+02  0.91188000000E+02 0.  0.
    9900012    2    3    3    0    0  0.83894053676E+01 -0.31652831208E+02 -0.16837336462E+02  0.54367085495E+02  0.40000003002E+02 0.  0.
        -12    1    3    3    0    0 -0.83894053676E+01  0.31652831208E+02  0.16837336462E+02  0.36820914505E+02  0.00000000000E+00 0.  1.
         11    1    4    4    0    0 -0.67673371065E+01 -0.18798040065E+02 -0.69430798685E+01  0.21151111558E+02  0.51100000000E-03 0. -1.
        -11    1    4    4    0    0  0.31889659547E+01  0.73438745388E+01 -0.83092767546E+00  0.80493750170E+01  0.51100000000E-03 0.  1.
        -12    1    4    4    0    0  0.11967776519E+02 -0.20198665681E+02 -0.90633289177E+01  0.25166598920E+02  0.00000000000E+00 0.  1.
</event>
<event>
 8    1  0.2531964E-006  0.9118800E+02  0.7816164E-02  0.1184000E+00
        -11   -1    0    0    0    0  0.00000000000E+00  0.00000000000E+00  0.45593999997E+02  0.45594000000E+02  0.51100000000E-03 0.  1.
         11   -1    0    0    0    0 -0.00000000000E+00 -0.00000000000E+00 -0.45593999997E+02  0.45594000000E+02  0.51100000000E-03 0. -1.
         23    2    1    2    0    0  0.00000000000E+00  0.00000000000E+00  0.00000000000E+00  0.91188000000E+02  0.91188000000E+02 0.  0.
    9900012    2    3    3    0    0  0.18497351493E+02 -0.25677112605E+02  0.18823195278E+02  0.54367098267E+02  0.40000032119E+02 0.  0.
         12    1    3    3    0    0 -0.18497351493E+02  0.25677112605E+02 -0.18823195278E+02  0.36820901733E+02  0.00000000000E+00 0. -1.
         11    1    4    4    0    0  0.10685924511E+02 -0.16711649084E+02 -0.48385450349E+01  0.20417632479E+02  0.51100000000E-03 0. -1.
        -11    1    4    4    0    0  0.51513357550E+00 -0.16731190976E+01  0.23568390779E+02  0.23633318309E+02  0.51100000000E-03 0.  1.
        -12    1    4    4    0    0  0.72962934065E+01 -0.72923444236E+01  0.93349533401E-01  0.10316147479E+02  0.00000000000E+00 0.  1.
</event>
<event>
 8    1  0.2531964E-006  0.9118800E+02  0.7816164E-02  0.1184000E+00
        -11   -1    0    0    0    0  0.00000000000E+00  0.00000000000E+00  0.45593999997E+02  0.45594000000E+02  0.51100000000E-03 0. -1.
         11   -1    0    0    0    0 -0.00000000000E+00 -0.00000000000E+00 -0.45593999997E+02  0.45594000000E+02  0.51100000000E-03 0.  1.
         23    2    1    2    0    0  0.71054273576E-14  0.26645352591E-14 -0.88817841970E-15  0.91188000000E+02  0.91188000000E+02 0.  0.
    9900012    2    3    3    0    0  0.35941378325E+02  0.24951360611E+01  0.75997809846E+01  0.54367285031E+02  0.40000457881E+02 0.  0.
         12    1    3    3    0    0 -0.35941378325E+02 -0.24951360611E+01 -0.75997809846E+01  0.36820714969E+02  0.00000000000E+00 0. -1.
         11    1    4    4    0    0  0.13727693561E+02 -0.16282482664E+02  0.10363067684E+01  0.21322353158E+02  0.51100000000E-03 0. -1.
        -11    1    4    4    0    0  0.12353483334E+02  0.50034733906E+01  0.87808802962E+01  0.15960800590E+02  0.51100000000E-03 0.  1.
         12    1    4    4    0    0  0.98602014298E+01  0.13774145335E+02 -0.22174060800E+01  0.17084131282E+02  0.00000000000E+00 0. -1.
</event>
<event>
 8    1  0.2531964E-006  0.9118800E+02  0.7816164E-02  0.1184000E+00
        -11   -1    0    0    0    0  0.00000000000E+00  0.00000000000E+00  0.45593999997E+02  0.45594000000E+02  0.51100000000E-03 0.  1.
         11   -1    0    0    0    0 -0.00000000000E+00 -0.00000000000E+00 -0.45593999997E+02  0.45594000000E+02  0.51100000000E-03 0. -1.
         23    2    1    2    0    0  0.00000000000E+00  0.00000000000E+00 -0.71054273576E-14  0.91188000000E+02  0.91188000000E+02 0.  0.
    9900012    2    3    3    0    0 -0.21870050613E+02 -0.10897443029E+02 -0.27544994338E+02  0.54367080790E+02  0.39999992277E+02 0.  0.
        -12    1    3    3    0    0  0.21870050613E+02  0.10897443029E+02  0.27544994338E+02  0.36820919210E+02  0.00000000000E+00 0.  1.
         11    1    4    4    0    0  0.21139275696E+00  0.98490885629E+00 -0.18410743079E+02  0.18438280650E+02  0.51100000000E-03 0. -1.
        -11    1    4    4    0    0 -0.13752048658E+01 -0.12339140174E+02 -0.87944667551E+01  0.15214736752E+02  0.51100000000E-03 0.  1.
        -12    1    4    4    0    0 -0.20706238504E+02  0.45678828921E+00 -0.33978450437E+00  0.20714063388E+02  0.00000000000E+00 0.  1.
</event>
<event>
 8    1  0.2531964E-006  0.9118800E+02  0.7816164E-02  0.1184000E+00
        -11   -1    0    0    0    0  0.00000000000E+00  0.00000000000E+00  0.45593999997E+02  0.45594000000E+02  0.51100000000E-03 0. -1.
         11   -1    0    0    0    0 -0.00000000000E+00 -0.00000000000E+00 -0.45593999997E+02  0.45594000000E+02  0.51100000000E-03 0.  1.
         23    2    1    2    0    0  0.00000000000E+00  0.61062266354E-15 -0.35527136788E-14  0.91188000000E+02  0.91188000000E+02 0.  0.
    9900012    2    3    3    0    0  0.18914736890E+02 -0.15639650936E+00  0.31590935563E+02  0.54367096410E+02  0.40000027885E+02 0.  0.
        -12    1    3    3    0    0 -0.18914736890E+02  0.15639650936E+00 -0.31590935563E+02  0.36820903590E+02  0.00000000000E+00 0.  1.
         11    1    4    4    0    0 -0.27873705717E+01 -0.34354964749E+01  0.32351817856E+01  0.54807364633E+01  0.51100000000E-03 0. -1.
        -11    1    4    4    0    0  0.18618467737E+01  0.14829789609E+02  0.41207033006E+01  0.15503848851E+02  0.51100000000E-03 0.  1.
         12    1    4    4    0    0  0.19840260688E+02 -0.11550689643E+02  0.24235050477E+02  0.33382511095E+02  0.00000000000E+00 0. -1.
</event>
<event>
 8    1  0.2531964E-006  0.9118800E+02  0.7816164E-02  0.1184000E+00
        -11   -1    0    0    0    0  0.00000000000E+00  0.00000000000E+00  0.45593999997E+02  0.45594000000E+02  0.51100000000E-03 0.  1.
         11   -1    0    0    0    0 -0.00000000000E+00 -0.00000000000E+00 -0.45593999997E+02  0.45594000000E+02  0.51100000000E-03 0. -1.
         23    2    1    2    0    0  0.00000000000E+00 -0.35527136788E-14  0.00000000000E+00  0.91188000000E+02  0.91188000000E+02 0.  0.
    9900012    2    3    3    0    0  0.25877492554E+02 -0.24278813913E+02 -0.98322364002E+01  0.54367105137E+02  0.40000047780E+02 0.  0.
         12    1    3    3    0    0 -0.25877492554E+02  0.24278813913E+02  0.98322364002E+01  0.36820894863E+02  0.00000000000E+00 0. -1.
         11    1    4    4    0    0  0.22047154285E+02 -0.24196372024E+02 -0.23942874147E+00  0.32735283069E+02  0.51100000000E-03 0. -1.
        -11    1    4    4    0    0 -0.55078512663E+01 -0.29064714030E+01  0.19430686964E+01  0.65237656157E+01  0.51100000000E-03 0.  1.
         12    1    4    4    0    0  0.93381895350E+01  0.28240295142E+01 -0.11535876355E+02  0.15108056452E+02  0.00000000000E+00 0. -1.
</event>
<event>
 8    1  0.2531964E-006  0.9118800E+02  0.7816164E-02  0.1184000E+00
        -11   -1    0    0    0    0  0.00000000000E+00  0.00000000000E+00  0.45593999997E+02  0.45594000000E+02  0.51100000000E-03 0.  1.
         11   -1    0    0    0    0 -0.00000000000E+00 -0.00000000000E+00 -0.45593999997E+02  0.45594000000E+02  0.51100000000E-03 0. -1.
         23    2    1    2    0    0  0.00000000000E+00 -0.71054273576E-14  0.17763568394E-14  0.91188000000E+02  0.91188000000E+02 0.  0.
    9900012    2    3    3    0    0 -0.44735535002E+01 -0.35159712393E+02  0.99780384120E+01  0.54367091442E+02  0.40000016561E+02 0.  0.
         12    1    3    3    0    0  0.44735535002E+01  0.35159712393E+02 -0.99780384120E+01  0.36820908558E+02  0.00000000000E+00 0. -1.
         11    1    4    4    0    0 -0.44443926594E+01 -0.21173420105E+02  0.66462205891E+01  0.22632688604E+02  0.51100000000E-03 0. -1.
        -11    1    4    4    0    0  0.13968422468E+02 -0.71531270326E+01  0.38150523643E+01  0.16150500840E+02  0.51100000000E-03 0.  1.
         12    1    4    4    0    0 -0.13997583308E+02 -0.68331652550E+01 -0.48323454134E+00  0.15583901999E+02  0.00000000000E+00 0. -1.
</event>
<event>
 8    1  0.2531964E-006  0.9118800E+02  0.7816164E-02  0.1184000E+00
        -11   -1    0    0    0    0  0.00000000000E+00  0.00000000000E+00  0.45593999997E+02  0.45594000000E+02  0.51100000000E-03 0. -1.
         11   -1    0    0    0    0 -0.00000000000E+00 -0.00000000000E+00 -0.45593999997E+02  0.45594000000E+02  0.51100000000E-03 0.  1.
         23    2    1    2    0    0  0.00000000000E+00  0.00000000000E+00  0.35527136788E-14  0.91188000000E+02  0.91188000000E+02 0.  0.
    9900012    2    3    3    0    0 -0.66720913659E+01  0.18656309925E+02 -0.31035543847E+02  0.54367086308E+02  0.40000004857E+02 0.  0.
         12    1    3    3    0    0  0.66720913659E+01 -0.18656309925E+02  0.31035543847E+02  0.36820913692E+02  0.00000000000E+00 0. -1.
         11    1    4    4    0    0  0.10986512982E+02 -0.23529875289E+01 -0.87308035143E+01  0.14229088097E+02  0.51100000000E-03 0. -1.
        -11    1    4    4    0    0 -0.64828560196E+01  0.11471004298E+02 -0.21756131142E+02  0.25435027115E+02  0.51100000000E-03 0.  1.
         12    1    4    4    0    0 -0.11175748328E+02  0.95382931562E+01 -0.54860919036E+00  0.14702971097E+02  0.00000000000E+00 0. -1.
</event>
<event>
 8    1  0.2531964E-006  0.9118800E+02  0.7816164E-02  0.1184000E+00
        -11   -1    0    0    0    0  0.00000000000E+00  0.00000000000E+00  0.45593999997E+02  0.45594000000E+02  0.51100000000E-03 0.  1.
         11   -1    0    0    0    0 -0.00000000000E+00 -0.00000000000E+00 -0.45593999997E+02  0.45594000000E+02  0.51100000000E-03 0. -1.
         23    2    1    2    0    0  0.00000000000E+00  0.00000000000E+00  0.00000000000E+00  0.91188000000E+02  0.91188000000E+02 0.  0.
    9900012    2    3    3    0    0  0.17171709204E+02 -0.30990919622E+02 -0.10023754091E+02  0.54367077387E+02  0.39999984519E+02 0.  0.
         12    1    3    3    0    0 -0.17171709204E+02  0.30990919622E+02  0.10023754091E+02  0.36820922613E+02  0.00000000000E+00 0. -1.
         11    1    4    4    0    0  0.12069687193E+02 -0.41726042130E+01 -0.17671531480E+02  0.21803004379E+02  0.51100000000E-03 0. -1.
        -11    1    4    4    0    0  0.28124020106E+01 -0.21763818762E+02 -0.13572362537E+01  0.21986711957E+02  0.51100000000E-03 0.  1.
         12    1    4    4    0    0  0.22896200002E+01 -0.50544966468E+01  0.90050136425E+01  0.10577361051E+02  0.00000000000E+00 0. -1.
</event>
<event>
 8    1  0.2531964E-006  0.9118800E+02  0.7816164E-02  0.1184000E+00
        -11   -1    0    0    0    0  0.00000000000E+00  0.00000000000E+00  0.45593999997E+02  0.45594000000E+02  0.51100000000E-03 0.  1.
         11   -1    0    0    0    0 -0.00000000000E+00 -0.00000000000E+00 -0.45593999997E+02  0.45594000000E+02  0.51100000000E-03 0. -1.
         23    2    1    2    0    0  0.00000000000E+00 -0.44408920985E-15  0.00000000000E+00  0.91188000000E+02  0.91188000000E+02 0.  0.
    9900012    2    3    3    0    0 -0.22066115143E+02  0.30119735243E+01 -0.29322240774E+02  0.54367092542E+02  0.40000019068E+02 0.  0.
        -12    1    3    3    0    0  0.22066115143E+02 -0.30119735243E+01  0.29322240774E+02  0.36820907458E+02  0.00000000000E+00 0.  1.
         11    1    4    4    0    0 -0.27767624912E+02  0.12045382995E+02 -0.28695223669E+02  0.41707890218E+02  0.51100000000E-03 0. -1.
        -11    1    4    4    0    0 -0.14254486327E+01 -0.25174328928E+01 -0.79792434094E+00  0.30010091118E+01  0.51100000000E-03 0.  1.
        -12    1    4    4    0    0  0.71269584025E+01 -0.65159765781E+01  0.17090723604E+00  0.96581932120E+01  0.00000000000E+00 0.  1.
</event>
<event>
 8    1  0.2531964E-006  0.9118800E+02  0.7816164E-02  0.1184000E+00
        -11   -1    0    0    0    0  0.00000000000E+00  0.00000000000E+00  0.45593999997E+02  0.45594000000E+02  0.51100000000E-03 0.  1.
         11   -1    0    0    0    0 -0.00000000000E+00 -0.00000000000E+00 -0.45593999997E+02  0.45594000000E+02  0.51100000000E-03 0. -1.
         23    2    1    2    0    0  0.17763568394E-14  0.00000000000E+00 -0.35527136788E-14  0.91188000000E+02  0.91188000000E+02 0.  0.
    9900012    2    3    3    0    0  0.15765405573E+02 -0.21213749613E+02  0.25636076639E+02  0.54367087315E+02  0.40000007152E+02 0.  0.
         12    1    3    3    0    0 -0.15765405573E+02  0.21213749613E+02 -0.25636076639E+02  0.36820912685E+02  0.00000000000E+00 0. -1.
         11    1    4    4    0    0  0.24532385911E+02 -0.22382248098E+02  0.13916128454E+02  0.36006410816E+02  0.51100000000E-03 0. -1.
        -11    1    4    4    0    0 -0.85496938598E+01 -0.25436075468E+01  0.11609445754E+02  0.14640574969E+02  0.51100000000E-03 0.  1.
         12    1    4    4    0    0 -0.21728647880E+00  0.37121060320E+01  0.11050243092E+00  0.37201015301E+01  0.00000000000E+00 0. -1.
</event>
<event>
 8    1  0.2531964E-006  0.9118800E+02  0.7816164E-02  0.1184000E+00
        -11   -1    0    0    0    0  0.00000000000E+00  0.00000000000E+00  0.45593999997E+02  0.45594000000E+02  0.51100000000E-03 0.  1.
         11   -1    0    0    0    0 -0.00000000000E+00 -0.00000000000E+00 -0.45593999997E+02  0.45594000000E+02  0.51100000000E-03 0. -1.
         23    2    1    2    0    0 -0.35527136788E-14  0.00000000000E+00  0.71054273576E-14  0.91188000000E+02  0.91188000000E+02 0.  0.
    9900012    2    3    3    0    0  0.24743311583E+02  0.19489620353E+02 -0.19070851789E+02  0.54367161368E+02  0.40000175970E+02 0.  0.
        -12    1    3    3    0    0 -0.24743311583E+02 -0.19489620353E+02  0.19070851789E+02  0.36820838632E+02  0.00000000000E+00 0.  1.
         11    1    4    4    0    0  0.17704705841E+02  0.54039140498E+01 -0.14876608069E+02  0.23748102321E+02  0.51100000000E-03 0. -1.
        -11    1    4    4    0    0  0.16847335610E+02  0.96986520385E+01 -0.12591983325E+01  0.19480301569E+02  0.51100000000E-03 0.  1.
        -12    1    4    4    0    0 -0.98087298670E+01  0.43870542647E+01 -0.29350453872E+01  0.11138757478E+02  0.00000000000E+00 0.  1.
</event>
<event>
 8    1  0.2531964E-006  0.9118800E+02  0.7816164E-02  0.1184000E+00
        -11   -1    0    0    0    0  0.00000000000E+00  0.00000000000E+00  0.45593999997E+02  0.45594000000E+02  0.51100000000E-03 0. -1.
         11   -1    0    0    0    0 -0.00000000000E+00 -0.00000000000E+00 -0.45593999997E+02  0.45594000000E+02  0.51100000000E-03 0.  1.
         23    2    1    2    0    0 -0.22204460493E-15  0.00000000000E+00  0.00000000000E+00  0.91188000000E+02  0.91188000000E+02 0.  0.
    9900012    2    3    3    0    0  0.13598393183E+01  0.17101996734E+02  0.32579936332E+02  0.54367086016E+02  0.40000004190E+02 0.  0.
        -12    1    3    3    0    0 -0.13598393183E+01 -0.17101996734E+02 -0.32579936332E+02  0.36820913984E+02  0.00000000000E+00 0.  1.
         11    1    4    4    0    0 -0.11041121136E+02  0.97740242069E+01  0.31254084454E+02  0.34558004868E+02  0.51100000000E-03 0. -1.
        -11    1    4    4    0    0  0.44671789797E+01  0.54365094691E+00  0.66976476437E+01  0.80690599582E+01  0.51100000000E-03 0.  1.
         12    1    4    4    0    0  0.79337814743E+01  0.67843215802E+01 -0.53717957660E+01  0.11740021190E+02  0.00000000000E+00 0. -1.
</event>
<event>
 8    1  0.2531964E-006  0.9118800E+02  0.7816164E-02  0.1184000E+00
        -11   -1    0    0    0    0  0.00000000000E+00  0.00000000000E+00  0.45593999997E+02  0.45594000000E+02  0.51100000000E-03 0. -1.
         11   -1    0    0    0    0 -0.00000000000E+00 -0.00000000000E+00 -0.45593999997E+02  0.45594000000E+02  0.51100000000E-03 0.  1.
         23    2    1    2    0    0  0.00000000000E+00  0.35527136788E-14  0.00000000000E+00  0.91188000000E+02  0.91188000000E+02 0.  0.
    9900012    2    3    3    0    0  0.18694358034E+02  0.19771878774E+02 -0.24806733700E+02  0.54367078645E+02  0.39999987388E+02 0.  0.
         12    1    3    3    0    0 -0.18694358034E+02 -0.19771878774E+02  0.24806733700E+02  0.36820921355E+02  0.00000000000E+00 0. -1.
         11    1    4    4    0    0  0.66846986165E+01 -0.65095562543E+01 -0.18583371431E+01  0.95138286415E+01  0.51100000000E-03 0. -1.
        -11    1    4    4    0    0  0.32851620314E+00 -0.30746873813E+01 -0.10413230564E+02  0.10862642239E+02  0.51100000000E-03 0.  1.
         12    1    4    4    0    0  0.11681143214E+02  0.29356122410E+02 -0.12535165993E+02  0.33990607765E+02  0.00000000000E+00 0. -1.
</event>
<event>
 8    1  0.2531964E-006  0.9118800E+02  0.7816164E-02  0.1184000E+00
        -11   -1    0    0    0    0  0.00000000000E+00  0.00000000000E+00  0.45593999997E+02  0.45594000000E+02  0.51100000000E-03 0.  1.
         11   -1    0    0    0    0 -0.00000000000E+00 -0.00000000000E+00 -0.45593999997E+02  0.45594000000E+02  0.51100000000E-03 0. -1.
         23    2    1    2    0    0  0.00000000000E+00  0.00000000000E+00  0.00000000000E+00  0.91188000000E+02  0.91188000000E+02 0.  0.
    9900012    2    3    3    0    0 -0.46090161267E+01  0.21552012331E+02 -0.29496555399E+02  0.54367094993E+02  0.40000024655E+02 0.  0.
        -12    1    3    3    0    0  0.46090161267E+01 -0.21552012331E+02  0.29496555399E+02  0.36820905007E+02  0.00000000000E+00 0.  1.
         11    1    4    4    0    0 -0.30524877638E+01  0.21699826285E+02 -0.60582844800E+01  0.22735499850E+02  0.51100000000E-03 0. -1.
        -11    1    4    4    0    0  0.39751699751E+01  0.40296657717E+01 -0.24017546036E+02  0.24675548635E+02  0.51100000000E-03 0.  1.
         12    1    4    4    0    0 -0.55316983380E+01 -0.41774797256E+01  0.57927511774E+00  0.69560465080E+01  0.00000000000E+00 0. -1.
</event>
<event>
 8    1  0.2531964E-006  0.9118800E+02  0.7816164E-02  0.1184000E+00
        -11   -1    0    0    0    0  0.00000000000E+00  0.00000000000E+00  0.45593999997E+02  0.45594000000E+02  0.51100000000E-03 0.  1.
         11   -1    0    0    0    0 -0.00000000000E+00 -0.00000000000E+00 -0.45593999997E+02  0.45594000000E+02  0.51100000000E-03 0. -1.
         23    2    1    2    0    0  0.17763568394E-14  0.35527136788E-14 -0.35527136788E-14  0.91188000000E+02  0.91188000000E+02 0.  0.
    9900012    2    3    3    0    0  0.10612728780E+02  0.26448739061E+02  0.23315535831E+02  0.54367081745E+02  0.39999994453E+02 0.  0.
         12    1    3    3    0    0 -0.10612728780E+02 -0.26448739061E+02 -0.23315535831E+02  0.36820918255E+02  0.00000000000E+00 0. -1.
         11    1    4    4    0    0 -0.40831596909E+01 -0.38540655565E+01  0.37827411115E+01  0.67701657995E+01  0.51100000000E-03 0. -1.
        -11    1    4    4    0    0  0.53590706362E+01  0.80865673877E+01 -0.68415769851E+01  0.11870947144E+02  0.51100000000E-03 0.  1.
         12    1    4    4    0    0  0.93368178351E+01  0.22216237230E+02  0.26374371704E+02  0.35725968801E+02  0.00000000000E+00 0. -1.
</event>
<event>
 8    1  0.2531964E-006  0.9118800E+02  0.7816164E-02  0.1184000E+00
        -11   -1    0    0    0    0  0.00000000000E+00  0.00000000000E+00  0.45593999997E+02  0.45594000000E+02  0.51100000000E-03 0.  1.
         11   -1    0    0    0    0 -0.00000000000E+00 -0.00000000000E+00 -0.45593999997E+02  0.45594000000E+02  0.51100000000E-03 0. -1.
         23    2    1    2    0    0  0.00000000000E+00  0.35527136788E-14  0.00000000000E+00  0.91188000000E+02  0.91188000000E+02 0.  0.
    9900012    2    3    3    0    0 -0.87030002171E+01  0.24020404463E+02 -0.26515232213E+02  0.54367087699E+02  0.40000008028E+02 0.  0.
        -12    1    3    3    0    0  0.87030002171E+01 -0.24020404463E+02  0.26515232213E+02  0.36820912301E+02  0.00000000000E+00 0.  1.
         11    1    4    4    0    0  0.59367919261E+01  0.40303341352E+01 -0.35815112636E+01  0.80197453081E+01  0.51100000000E-03 0. -1.
        -11    1    4    4    0    0 -0.16232619560E+01  0.25499166004E+02 -0.18460826497E+02  0.31522128124E+02  0.51100000000E-03 0.  1.
        -12    1    4    4    0    0 -0.13016530187E+02 -0.55090956756E+01 -0.44728944522E+01  0.14825214267E+02  0.00000000000E+00 0.  1.
</event>
<event>
 8    1  0.2531964E-006  0.9118800E+02  0.7816164E-02  0.1184000E+00
        -11   -1    0    0    0    0  0.00000000000E+00  0.00000000000E+00  0.45593999997E+02  0.45594000000E+02  0.51100000000E-03 0. -1.
         11   -1    0    0    0    0 -0.00000000000E+00 -0.00000000000E+00 -0.45593999997E+02  0.45594000000E+02  0.51100000000E-03 0.  1.
         23    2    1    2    0    0  0.00000000000E+00 -0.71054273576E-14 -0.24424906542E-14  0.91188000000E+02  0.91188000000E+02 0.  0.
    9900012    2    3    3    0    0 -0.56883414933E+01 -0.36335598858E+02 -0.17738304630E+01  0.54367089530E+02  0.40000012202E+02 0.  0.
        -12    1    3    3    0    0  0.56883414933E+01  0.36335598858E+02  0.17738304630E+01  0.36820910470E+02  0.00000000000E+00 0.  1.
         11    1    4    4    0    0 -0.12041360201E+01 -0.21865099813E+02  0.80172736946E+01  0.23319717218E+02  0.51100000000E-03 0. -1.
        -11    1    4    4    0    0 -0.40652598416E+01  0.66684516099E+01 -0.15373317705E+00  0.78114159154E+01  0.51100000000E-03 0.  1.
         12    1    4    4    0    0 -0.41894563162E+00 -0.21138950655E+02 -0.96373709805E+01  0.23235956397E+02  0.00000000000E+00 0. -1.
</event>
<event>
 8    1  0.2531964E-006  0.9118800E+02  0.7816164E-02  0.1184000E+00
        -11   -1    0    0    0    0  0.00000000000E+00  0.00000000000E+00  0.45593999997E+02  0.45594000000E+02  0.51100000000E-03 0.  1.
         11   -1    0    0    0    0 -0.00000000000E+00 -0.00000000000E+00 -0.45593999997E+02  0.45594000000E+02  0.51100000000E-03 0. -1.
         23    2    1    2    0    0 -0.35527136788E-14  0.00000000000E+00 -0.88817841970E-15  0.91188000000E+02  0.91188000000E+02 0.  0.
    9900012    2    3    3    0    0  0.25429799495E+02  0.26478105696E+02  0.28314252513E+01  0.54367058233E+02  0.39999940854E+02 0.  0.
        -12    1    3    3    0    0 -0.25429799495E+02 -0.26478105696E+02 -0.28314252513E+01  0.36820941767E+02  0.00000000000E+00 0.  1.
         11    1    4    4    0    0  0.40174110321E+01  0.76662723143E+01 -0.12804154285E+02  0.15455021508E+02  0.51100000000E-03 0. -1.
        -11    1    4    4    0    0  0.15659658161E+02 -0.31110620817E+00  0.69466369017E+01  0.17134101823E+02  0.51100000000E-03 0.  1.
        -12    1    4    4    0    0  0.57527303024E+01  0.19122939590E+02  0.86889426343E+01  0.21777934902E+02  0.00000000000E+00 0.  1.
</event>
<event>
 8    1  0.2531964E-006  0.9118800E+02  0.7816164E-02  0.1184000E+00
        -11   -1    0    0    0    0  0.00000000000E+00  0.00000000000E+00  0.45593999997E+02  0.45594000000E+02  0.51100000000E-03 0.  1.
         11   -1    0    0    0    0 -0.00000000000E+00 -0.00000000000E+00 -0.45593999997E+02  0.45594000000E+02  0.51100000000E-03 0. -1.
         23    2    1    2    0    0  0.00000000000E+00 -0.35527136788E-14  0.00000000000E+00  0.91188000000E+02  0.91188000000E+02 0.  0.
    9900012    2    3    3    0    0 -0.26428220300E+02  0.18296448869E+02 -0.17960192647E+02  0.54367090324E+02  0.40000014013E+02 0.  0.
        -12    1    3    3    0    0  0.26428220300E+02 -0.18296448869E+02  0.17960192647E+02  0.36820909676E+02  0.00000000000E+00 0.  1.
         11    1    4    4    0    0 -0.21705377120E+01 -0.86354796664E+00 -0.31604596205E+01  0.39300705240E+01  0.51100000000E-03 0. -1.
        -11    1    4    4    0    0 -0.17308847159E+02  0.54396897392E+01 -0.25791031882E+02  0.31533533583E+02  0.51100000000E-03 0.  1.
        -12    1    4    4    0    0 -0.69488354284E+01  0.13720307096E+02  0.10991298856E+02  0.18903486217E+02  0.00000000000E+00 0.  1.
</event>
<event>
 8    1  0.2531964E-006  0.9118800E+02  0.7816164E-02  0.1184000E+00
        -11   -1    0    0    0    0  0.00000000000E+00  0.00000000000E+00  0.45593999997E+02  0.45594000000E+02  0.51100000000E-03 0.  1.
         11   -1    0    0    0    0 -0.00000000000E+00 -0.00000000000E+00 -0.45593999997E+02  0.45594000000E+02  0.51100000000E-03 0. -1.
         23    2    1    2    0    0  0.00000000000E+00  0.00000000000E+00  0.00000000000E+00  0.91188000000E+02  0.91188000000E+02 0.  0.
    9900012    2    3    3    0    0 -0.18881922882E+02  0.16714538813E+02  0.26830510753E+02  0.54367093890E+02  0.40000022142E+02 0.  0.
         12    1    3    3    0    0  0.18881922882E+02 -0.16714538813E+02 -0.26830510753E+02  0.36820906110E+02  0.00000000000E+00 0. -1.
         11    1    4    4    0    0 -0.22822762333E+01  0.13057093840E+02  0.17018100896E+02  0.21571097392E+02  0.51100000000E-03 0.  1.
        -11    1    4    4    0    0 -0.17672050272E+02  0.10919513765E+02  0.29382578896E+00  0.20775549945E+02  0.51100000000E-03 0. -1.
        -12    1    4    4    0    0  0.10724036233E+01 -0.72620687913E+01  0.95185840682E+01  0.12020446553E+02  0.00000000000E+00 0.  1.
</event>
<event>
 8    1  0.2531964E-006  0.9118800E+02  0.7816164E-02  0.1184000E+00
        -11   -1    0    0    0    0  0.00000000000E+00  0.00000000000E+00  0.45593999997E+02  0.45594000000E+02  0.51100000000E-03 0.  1.
         11   -1    0    0    0    0 -0.00000000000E+00 -0.00000000000E+00 -0.45593999997E+02  0.45594000000E+02  0.51100000000E-03 0. -1.
         23    2    1    2    0    0  0.00000000000E+00  0.35527136788E-14  0.00000000000E+00  0.91188000000E+02  0.91188000000E+02 0.  0.
    9900012    2    3    3    0    0 -0.20589400111E+02 -0.16390224811E+02 -0.25753032890E+02  0.54367060722E+02  0.39999946528E+02 0.  0.
        -12    1    3    3    0    0  0.20589400111E+02  0.16390224811E+02  0.25753032890E+02  0.36820939278E+02  0.00000000000E+00 0.  1.
         11    1    4    4    0    0 -0.40096299353E+01  0.80202066935E+01 -0.10829462841E+02  0.14059804881E+02  0.51100000000E-03 0. -1.
        -11    1    4    4    0    0 -0.16878033626E+02 -0.20244089230E+02 -0.20464030032E+02  0.33368663342E+02  0.51100000000E-03 0.  1.
        -12    1    4    4    0    0  0.29826345029E+00 -0.41663422745E+01  0.55404599829E+01  0.69385924982E+01  0.00000000000E+00 0.  1.
</event>
<event>
 8    1  0.2531964E-006  0.9118800E+02  0.7816164E-02  0.1184000E+00
        -11   -1    0    0    0    0  0.00000000000E+00  0.00000000000E+00  0.45593999997E+02  0.45594000000E+02  0.51100000000E-03 0. -1.
         11   -1    0    0    0    0 -0.00000000000E+00 -0.00000000000E+00 -0.45593999997E+02  0.45594000000E+02  0.51100000000E-03 0.  1.
         23    2    1    2    0    0  0.35527136788E-14  0.00000000000E+00 -0.35527136788E-14  0.91188000000E+02  0.91188000000E+02 0.  0.
    9900012    2    3    3    0    0 -0.19262790383E+02  0.23505874502E+02  0.20789410277E+02  0.54367071044E+02  0.39999970060E+02 0.  0.
        -12    1    3    3    0    0  0.19262790383E+02 -0.23505874502E+02 -0.20789410277E+02  0.36820928956E+02  0.00000000000E+00 0.  1.
         11    1    4    4    0    0 -0.40401420942E+01 -0.21092271460E+01  0.11093852291E+02  0.11993546023E+02  0.51100000000E-03 0. -1.
        -11    1    4    4    0    0 -0.39260345946E+01  0.15584108742E+01  0.14730168176E+02  0.15323845694E+02  0.51100000000E-03 0.  1.
        -12    1    4    4    0    0 -0.11296613695E+02  0.24056690774E+02 -0.50346101891E+01  0.27049679328E+02  0.00000000000E+00 0.  1.
</event>
<event>
 8    1  0.2531964E-006  0.9118800E+02  0.7816164E-02  0.1184000E+00
        -11   -1    0    0    0    0  0.00000000000E+00  0.00000000000E+00  0.45593999997E+02  0.45594000000E+02  0.51100000000E-03 0.  1.
         11   -1    0    0    0    0 -0.00000000000E+00 -0.00000000000E+00 -0.45593999997E+02  0.45594000000E+02  0.51100000000E-03 0. -1.
         23    2    1    2    0    0  0.88817841970E-15  0.55511151231E-15  0.00000000000E+00  0.91188000000E+02  0.91188000000E+02 0.  0.
    9900012    2    3    3    0    0 -0.23958372842E+01 -0.84276226298E+00 -0.36733298473E+02  0.54367007330E+02  0.39999824809E+02 0.  0.
        -12    1    3    3    0    0  0.23958372842E+01  0.84276226298E+00  0.36733298473E+02  0.36820992670E+02  0.00000000000E+00 0.  1.
         11    1    4    4    0    0  0.19845817913E+01  0.51976920038E+01 -0.25480924019E+02  0.26081258715E+02  0.51100000000E-03 0. -1.
        -11    1    4    4    0    0 -0.54293379878E+01  0.45815530498E+01  0.51091151134E+01  0.87505083759E+01  0.51100000000E-03 0.  1.
        -12    1    4    4    0    0  0.10489189123E+01 -0.10622007317E+02 -0.16361489568E+02  0.19535240239E+02  0.00000000000E+00 0.  1.
</event>
<event>
 8    1  0.2531964E-006  0.9118800E+02  0.7816164E-02  0.1184000E+00
        -11   -1    0    0    0    0  0.00000000000E+00  0.00000000000E+00  0.45593999997E+02  0.45594000000E+02  0.51100000000E-03 0.  1.
         11   -1    0    0    0    0 -0.00000000000E+00 -0.00000000000E+00 -0.45593999997E+02  0.45594000000E+02  0.51100000000E-03 0. -1.
         23    2    1    2    0    0  0.00000000000E+00  0.88817841970E-15  0.71054273576E-14  0.91188000000E+02  0.91188000000E+02 0.  0.
    9900012    2    3    3    0    0 -0.31199780045E+01  0.37883042953E+01  0.36492397426E+02  0.54367074128E+02  0.39999977090E+02 0.  0.
         12    1    3    3    0    0  0.31199780045E+01 -0.37883042953E+01 -0.36492397426E+02  0.36820925872E+02  0.00000000000E+00 0. -1.
         11    1    4    4    0    0  0.12436102044E+02 -0.53513471567E+01  0.17144989955E+01  0.13646723325E+02  0.51100000000E-03 0. -1.
        -11    1    4    4    0    0 -0.14113356983E+02  0.46743185840E+01  0.31954562757E+02  0.35243867280E+02  0.51100000000E-03 0.  1.
         12    1    4    4    0    0 -0.14427230651E+01  0.44653328680E+01  0.28233356728E+01  0.54764835238E+01  0.00000000000E+00 0. -1.
</event>
<event>
 8    1  0.2531964E-006  0.9118800E+02  0.7816164E-02  0.1184000E+00
        -11   -1    0    0    0    0  0.00000000000E+00  0.00000000000E+00  0.45593999997E+02  0.45594000000E+02  0.51100000000E-03 0. -1.
         11   -1    0    0    0    0 -0.00000000000E+00 -0.00000000000E+00 -0.45593999997E+02  0.45594000000E+02  0.51100000000E-03 0.  1.
         23    2    1    2    0    0  0.00000000000E+00  0.00000000000E+00  0.00000000000E+00  0.91188000000E+02  0.91188000000E+02 0.  0.
    9900012    2    3    3    0    0  0.51967475716E+01  0.13165229615E+02  0.33991877740E+02  0.54367119940E+02  0.40000081526E+02 0.  0.
        -12    1    3    3    0    0 -0.51967475716E+01 -0.13165229615E+02 -0.33991877740E+02  0.36820880060E+02  0.00000000000E+00 0.  1.
         11    1    4    4    0    0  0.18187496554E+02  0.15250518461E+02  0.17078064160E+02  0.29240786924E+02  0.51100000000E-03 0.  1.
        -11    1    4    4    0    0 -0.77456612487E+01 -0.35460768080E+01  0.13341044593E+01  0.86226309139E+01  0.51100000000E-03 0. -1.
         12    1    4    4    0    0 -0.52450877332E+01  0.14607879626E+01  0.15579709120E+02  0.16503702102E+02  0.00000000000E+00 0. -1.
</event>
<event>
 8    1  0.2531964E-006  0.9118800E+02  0.7816164E-02  0.1184000E+00
        -11   -1    0    0    0    0  0.00000000000E+00  0.00000000000E+00  0.45593999997E+02  0.45594000000E+02  0.51100000000E-03 0. -1.
         11   -1    0    0    0    0 -0.00000000000E+00 -0.00000000000E+00 -0.45593999997E+02  0.45594000000E+02  0.51100000000E-03 0.  1.
         23    2    1    2    0    0 -0.17763568394E-14  0.35527136788E-14  0.00000000000E+00  0.91188000000E+02  0.91188000000E+02 0.  0.
    9900012    2    3    3    0    0  0.83068121857E+01 -0.21146287870E+02 -0.28976056502E+02  0.54367075654E+02  0.39999980567E+02 0.  0.
         12    1    3    3    0    0 -0.83068121857E+01  0.21146287870E+02  0.28976056502E+02  0.36820924346E+02  0.00000000000E+00 0. -1.
         11    1    4    4    0    0  0.55700173307E+01 -0.79488593762E+00  0.14066850661E+01  0.57996292860E+01  0.51100000000E-03 0. -1.
        -11    1    4    4    0    0  0.69862899268E+01  0.71497106221E+01 -0.93249715366E+01  0.13670468293E+02  0.51100000000E-03 0.  1.
        -12    1    4    4    0    0 -0.42494950719E+01 -0.27501112554E+02 -0.21057770031E+02  0.34896978075E+02  0.00000000000E+00 0.  1.
</event>
<event>
 8    1  0.2531964E-006  0.9118800E+02  0.7816164E-02  0.1184000E+00
        -11   -1    0    0    0    0  0.00000000000E+00  0.00000000000E+00  0.45593999997E+02  0.45594000000E+02  0.51100000000E-03 0. -1.
         11   -1    0    0    0    0 -0.00000000000E+00 -0.00000000000E+00 -0.45593999997E+02  0.45594000000E+02  0.51100000000E-03 0.  1.
         23    2    1    2    0    0 -0.35527136788E-14  0.35527136788E-14  0.00000000000E+00  0.91188000000E+02  0.91188000000E+02 0.  0.
    9900012    2    3    3    0    0  0.16308992372E+02 -0.27532452087E+02  0.18214449530E+02  0.54367009766E+02  0.39999830362E+02 0.  0.
        -12    1    3    3    0    0 -0.16308992372E+02  0.27532452087E+02 -0.18214449530E+02  0.36820990234E+02  0.00000000000E+00 0.  1.
         11    1    4    4    0    0  0.66831677529E-01 -0.18977596071E+02  0.74571138891E+01  0.20390246858E+02  0.51100000000E-03 0. -1.
        -11    1    4    4    0    0 -0.22497452980E+01  0.47106924304E+01  0.99125061675E+01  0.11203113668E+02  0.51100000000E-03 0.  1.
        -12    1    4    4    0    0  0.18491905993E+02 -0.13265548447E+02  0.84482947373E+00  0.22773649240E+02  0.00000000000E+00 0.  1.
</event>
<event>
 8    1  0.2531964E-006  0.9118800E+02  0.7816164E-02  0.1184000E+00
        -11   -1    0    0    0    0  0.00000000000E+00  0.00000000000E+00  0.45593999997E+02  0.45594000000E+02  0.51100000000E-03 0. -1.
         11   -1    0    0    0    0 -0.00000000000E+00 -0.00000000000E+00 -0.45593999997E+02  0.45594000000E+02  0.51100000000E-03 0.  1.
         23    2    1    2    0    0  0.00000000000E+00  0.17763568394E-14  0.88817841970E-15  0.91188000000E+02  0.91188000000E+02 0.  0.
    9900012    2    3    3    0    0 -0.33392710367E+02  0.14453233773E+02  0.56404593882E+01  0.54367029694E+02  0.39999875793E+02 0.  0.
        -12    1    3    3    0    0  0.33392710367E+02 -0.14453233773E+02 -0.56404593882E+01  0.36820970306E+02  0.00000000000E+00 0.  1.
         11    1    4    4    0    0 -0.23738497422E+01 -0.83724583035E+01 -0.30273889600E+01  0.92140276112E+01  0.51100000000E-03 0. -1.
        -11    1    4    4    0    0 -0.29068199980E+02  0.13290928581E+02 -0.23421704425E+00  0.31963477447E+02  0.51100000000E-03 0.  1.
         12    1    4    4    0    0 -0.19506606452E+01  0.95347634962E+01  0.89020653925E+01  0.13189524636E+02  0.00000000000E+00 0. -1.
</event>
<event>
 8    1  0.2531964E-006  0.9118800E+02  0.7816164E-02  0.1184000E+00
        -11   -1    0    0    0    0  0.00000000000E+00  0.00000000000E+00  0.45593999997E+02  0.45594000000E+02  0.51100000000E-03 0. -1.
         11   -1    0    0    0    0 -0.00000000000E+00 -0.00000000000E+00 -0.45593999997E+02  0.45594000000E+02  0.51100000000E-03 0.  1.
         23    2    1    2    0    0  0.00000000000E+00  0.35527136788E-14  0.00000000000E+00  0.91188000000E+02  0.91188000000E+02 0.  0.
    9900012    2    3    3    0    0 -0.33087379575E+02 -0.16011110773E+02  0.21565090864E+01  0.54367069991E+02  0.39999967658E+02 0.  0.
        -12    1    3    3    0    0  0.33087379575E+02  0.16011110773E+02 -0.21565090864E+01  0.36820930009E+02  0.00000000000E+00 0.  1.
         11    1    4    4    0    0 -0.71402601464E+01 -0.10956338613E+02  0.79729198197E-02  0.13077642547E+02  0.51100000000E-03 0. -1.
        -11    1    4    4    0    0 -0.65920795141E+01 -0.17120805285E+02 -0.31479697349E+00  0.18348748822E+02  0.51100000000E-03 0.  1.
         12    1    4    4    0    0 -0.19355039914E+02  0.12066033125E+02  0.24633331401E+01  0.22940678622E+02  0.00000000000E+00 0. -1.
</event>
<event>
 8    1  0.2531964E-006  0.9118800E+02  0.7816164E-02  0.1184000E+00
        -11   -1    0    0    0    0  0.00000000000E+00  0.00000000000E+00  0.45593999997E+02  0.45594000000E+02  0.51100000000E-03 0. -1.
         11   -1    0    0    0    0 -0.00000000000E+00 -0.00000000000E+00 -0.45593999997E+02  0.45594000000E+02  0.51100000000E-03 0.  1.
         23    2    1    2    0    0  0.00000000000E+00 -0.35527136788E-14 -0.26645352591E-14  0.91188000000E+02  0.91188000000E+02 0.  0.
    9900012    2    3    3    0    0  0.24885930789E+02  0.26719746462E+02  0.47461552147E+01  0.54367076715E+02  0.39999982988E+02 0.  0.
        -12    1    3    3    0    0 -0.24885930789E+02 -0.26719746462E+02 -0.47461552147E+01  0.36820923285E+02  0.00000000000E+00 0.  1.
         11    1    4    4    0    0  0.68425435594E+01  0.17829748893E+02  0.16408467945E+02  0.25178525940E+02  0.51100000000E-03 0. -1.
        -11    1    4    4    0    0  0.60553971231E+00  0.81273639421E+01  0.82787401814E-01  0.81503114667E+01  0.51100000000E-03 0.  1.
        -12    1    4    4    0    0  0.17437847517E+02  0.76263362697E+00 -0.11745100132E+02  0.21038239308E+02  0.00000000000E+00 0.  1.
</event>
<event>
 8    1  0.2531964E-006  0.9118800E+02  0.7816164E-02  0.1184000E+00
        -11   -1    0    0    0    0  0.00000000000E+00  0.00000000000E+00  0.45593999997E+02  0.45594000000E+02  0.51100000000E-03 0. -1.
         11   -1    0    0    0    0 -0.00000000000E+00 -0.00000000000E+00 -0.45593999997E+02  0.45594000000E+02  0.51100000000E-03 0.  1.
         23    2    1    2    0    0  0.00000000000E+00  0.44408920985E-15  0.11102230246E-14  0.91188000000E+02  0.91188000000E+02 0.  0.
    9900012    2    3    3    0    0  0.36562347972E+02  0.39586470269E+01  0.18173960431E+01  0.54367094200E+02  0.40000022848E+02 0.  0.
         12    1    3    3    0    0 -0.36562347972E+02 -0.39586470269E+01 -0.18173960431E+01  0.36820905800E+02  0.00000000000E+00 0. -1.
         11    1    4    4    0    0  0.42124026848E+01  0.73224438746E+01  0.10715079888E+02  0.13644612781E+02  0.51100000000E-03 0. -1.
        -11    1    4    4    0    0 -0.27624333833E+01  0.18264918647E+01 -0.35035972853E+01  0.48210273726E+01  0.51100000000E-03 0.  1.
         12    1    4    4    0    0  0.35112378671E+02 -0.51902887124E+01 -0.53940865595E+01  0.35901454047E+02  0.00000000000E+00 0. -1.
</event>
<event>
 8    1  0.2531964E-006  0.9118800E+02  0.7816164E-02  0.1184000E+00
        -11   -1    0    0    0    0  0.00000000000E+00  0.00000000000E+00  0.45593999997E+02  0.45594000000E+02  0.51100000000E-03 0.  1.
         11   -1    0    0    0    0 -0.00000000000E+00 -0.00000000000E+00 -0.45593999997E+02  0.45594000000E+02  0.51100000000E-03 0. -1.
         23    2    1    2    0    0 -0.66613381478E-15  0.00000000000E+00  0.00000000000E+00  0.91188000000E+02  0.91188000000E+02 0.  0.
    9900012    2    3    3    0    0 -0.14778344986E+01 -0.19993855900E+02  0.30884316786E+02  0.54367091648E+02  0.40000017029E+02 0.  0.
         12    1    3    3    0    0  0.14778344986E+01  0.19993855900E+02 -0.30884316786E+02  0.36820908352E+02  0.00000000000E+00 0. -1.
         11    1    4    4    0    0 -0.14045304131E+02 -0.73361580613E+01  0.32117132209E+00  0.15849067307E+02  0.51100000000E-03 0.  1.
        -11    1    4    4    0    0  0.12271291248E+02 -0.15078349851E+02  0.20866137595E+02  0.28519062423E+02  0.51100000000E-03 0. -1.
         12    1    4    4    0    0  0.29617838420E+00  0.24206520130E+01  0.96970078696E+01  0.99989619175E+01  0.00000000000E+00 0. -1.
</event>
<event>
 8    1  0.2531964E-006  0.9118800E+02  0.7816164E-02  0.1184000E+00
        -11   -1    0    0    0    0  0.00000000000E+00  0.00000000000E+00  0.45593999997E+02  0.45594000000E+02  0.51100000000E-03 0. -1.
         11   -1    0    0    0    0 -0.00000000000E+00 -0.00000000000E+00 -0.45593999997E+02  0.45594000000E+02  0.51100000000E-03 0.  1.
         23    2    1    2    0    0  0.00000000000E+00  0.00000000000E+00  0.00000000000E+00  0.91188000000E+02  0.91188000000E+02 0.  0.
    9900012    2    3    3    0    0  0.26955311366E+02 -0.79286048311E+01 -0.23797634573E+02  0.54367095656E+02  0.40000026167E+02 0.  0.
         12    1    3    3    0    0 -0.26955311366E+02  0.79286048311E+01  0.23797634573E+02  0.36820904344E+02  0.00000000000E+00 0. -1.
         11    1    4    4    0    0 -0.28058552565E+01  0.29896695896E+01 -0.60448265349E+01  0.73041684040E+01  0.51100000000E-03 0. -1.
        -11    1    4    4    0    0  0.93993454088E+01 -0.12865622240E+02 -0.20991221467E+02  0.26353430681E+02  0.51100000000E-03 0.  1.
         12    1    4    4    0    0  0.20361821214E+02  0.19473478191E+01  0.32384134291E+01  0.20709496571E+02  0.00000000000E+00 0. -1.
</event>
<event>
 8    1  0.2531964E-006  0.9118800E+02  0.7816164E-02  0.1184000E+00
        -11   -1    0    0    0    0  0.00000000000E+00  0.00000000000E+00  0.45593999997E+02  0.45594000000E+02  0.51100000000E-03 0. -1.
         11   -1    0    0    0    0 -0.00000000000E+00 -0.00000000000E+00 -0.45593999997E+02  0.45594000000E+02  0.51100000000E-03 0.  1.
         23    2    1    2    0    0  0.35527136788E-14 -0.44408920985E-15  0.00000000000E+00  0.91188000000E+02  0.91188000000E+02 0.  0.
    9900012    2    3    3    0    0  0.24783115013E+02 -0.20621540971E+01 -0.27153744646E+02  0.54367066856E+02  0.39999960512E+02 0.  0.
         12    1    3    3    0    0 -0.24783115013E+02  0.20621540971E+01  0.27153744646E+02  0.36820933144E+02  0.00000000000E+00 0. -1.
         11    1    4    4    0    0  0.71112901157E+01 -0.32359409741E+01  0.87643940487E+01  0.11741224996E+02  0.51100000000E-03 0. -1.
        -11    1    4    4    0    0  0.47885985059E+01  0.54286247686E+01 -0.48196133818E+01  0.86965117110E+01  0.51100000000E-03 0.  1.
         12    1    4    4    0    0  0.12883226391E+02 -0.42548378917E+01 -0.31098525313E+02  0.33929330149E+02  0.00000000000E+00 0. -1.
</event>
<event>
 8    1  0.2531964E-006  0.9118800E+02  0.7816164E-02  0.1184000E+00
        -11   -1    0    0    0    0  0.00000000000E+00  0.00000000000E+00  0.45593999997E+02  0.45594000000E+02  0.51100000000E-03 0. -1.
         11   -1    0    0    0    0 -0.00000000000E+00 -0.00000000000E+00 -0.45593999997E+02  0.45594000000E+02  0.51100000000E-03 0.  1.
         23    2    1    2    0    0 -0.88817841970E-15 -0.35527136788E-14 -0.35527136788E-14  0.91188000000E+02  0.91188000000E+02 0.  0.
    9900012    2    3    3    0    0  0.74015267924E+01  0.21085080900E+02  0.29264595772E+02  0.54367084733E+02  0.40000001265E+02 0.  0.
        -12    1    3    3    0    0 -0.74015267924E+01 -0.21085080900E+02 -0.29264595772E+02  0.36820915267E+02  0.00000000000E+00 0.  1.
         11    1    4    4    0    0  0.10158347012E+02  0.92711439272E+01  0.32283003706E+02  0.35090432489E+02  0.51100000000E-03 0. -1.
        -11    1    4    4    0    0 -0.42840839826E+01  0.19406051204E+01  0.47020524405E+01  0.66504602261E+01  0.51100000000E-03 0.  1.
         12    1    4    4    0    0  0.15272637631E+01  0.98733318528E+01 -0.77204603746E+01  0.12626192018E+02  0.00000000000E+00 0. -1.
</event>
<event>
 8    1  0.2531964E-006  0.9118800E+02  0.7816164E-02  0.1184000E+00
        -11   -1    0    0    0    0  0.00000000000E+00  0.00000000000E+00  0.45593999997E+02  0.45594000000E+02  0.51100000000E-03 0.  1.
         11   -1    0    0    0    0 -0.00000000000E+00 -0.00000000000E+00 -0.45593999997E+02  0.45594000000E+02  0.51100000000E-03 0. -1.
         23    2    1    2    0    0  0.00000000000E+00  0.00000000000E+00  0.17763568394E-14  0.91188000000E+02  0.91188000000E+02 0.  0.
    9900012    2    3    3    0    0  0.34375470243E+02  0.12409909279E+00  0.13194386862E+02  0.54367079321E+02  0.39999988928E+02 0.  0.
        -12    1    3    3    0    0 -0.34375470243E+02 -0.12409909279E+00 -0.13194386862E+02  0.36820920679E+02  0.00000000000E+00 0.  1.
         11    1    4    4    0    0  0.30442822209E+02 -0.26536915080E+01  0.93827413116E+01  0.31966284386E+02  0.51100000000E-03 0. -1.
        -11    1    4    4    0    0  0.71918971414E+01  0.14405372350E+01 -0.75376184787E+01  0.10517329728E+02  0.51100000000E-03 0.  1.
        -12    1    4    4    0    0 -0.32592491077E+01  0.13372533658E+01  0.11349264030E+02  0.11883465207E+02  0.00000000000E+00 0.  1.
</event>
<event>
 8    1  0.2531964E-006  0.9118800E+02  0.7816164E-02  0.1184000E+00
        -11   -1    0    0    0    0  0.00000000000E+00  0.00000000000E+00  0.45593999997E+02  0.45594000000E+02  0.51100000000E-03 0.  1.
         11   -1    0    0    0    0 -0.00000000000E+00 -0.00000000000E+00 -0.45593999997E+02  0.45594000000E+02  0.51100000000E-03 0. -1.
         23    2    1    2    0    0  0.00000000000E+00 -0.35527136788E-14  0.35527136788E-14  0.91188000000E+02  0.91188000000E+02 0.  0.
    9900012    2    3    3    0    0  0.26153098078E+02  0.18092951595E+02  0.18559109004E+02  0.54367082527E+02  0.39999996237E+02 0.  0.
        -12    1    3    3    0    0 -0.26153098078E+02 -0.18092951595E+02 -0.18559109004E+02  0.36820917473E+02  0.00000000000E+00 0.  1.
         11    1    4    4    0    0  0.79044328901E+01 -0.33565939337E+00  0.88435596676E+01  0.11865971279E+02  0.51100000000E-03 0. -1.
        -11    1    4    4    0    0  0.10062024310E+02  0.25563072708E+02 -0.66279397544E+00  0.27480071244E+02  0.51100000000E-03 0.  1.
        -12    1    4    4    0    0  0.81866408779E+01 -0.71344617194E+01  0.10378343312E+02  0.15021040004E+02  0.00000000000E+00 0.  1.
</event>
<event>
 8    1  0.2531964E-006  0.9118800E+02  0.7816164E-02  0.1184000E+00
        -11   -1    0    0    0    0  0.00000000000E+00  0.00000000000E+00  0.45593999997E+02  0.45594000000E+02  0.51100000000E-03 0.  1.
         11   -1    0    0    0    0 -0.00000000000E+00 -0.00000000000E+00 -0.45593999997E+02  0.45594000000E+02  0.51100000000E-03 0. -1.
         23    2    1    2    0    0  0.35527136788E-14  0.00000000000E+00 -0.17763568394E-14  0.91188000000E+02  0.91188000000E+02 0.  0.
    9900012    2    3    3    0    0  0.29645151911E+02 -0.15842659731E+02 -0.15031801928E+02  0.54367082462E+02  0.39999996088E+02 0.  0.
        -12    1    3    3    0    0 -0.29645151911E+02  0.15842659731E+02  0.15031801928E+02  0.36820917538E+02  0.00000000000E+00 0.  1.
         11    1    4    4    0    0  0.59543619063E+01 -0.16995190191E+02 -0.16735593305E+02  0.24583958161E+02  0.51100000000E-03 0. -1.
        -11    1    4    4    0    0  0.20162557798E+02  0.62752516965E+01 -0.38259717683E+01  0.21460325744E+02  0.51100000000E-03 0.  1.
         12    1    4    4    0    0  0.35282322067E+01 -0.51227212373E+01  0.55297631453E+01  0.83227985571E+01  0.00000000000E+00 0. -1.
</event>
<event>
 8    1  0.2531964E-006  0.9118800E+02  0.7816164E-02  0.1184000E+00
        -11   -1    0    0    0    0  0.00000000000E+00  0.00000000000E+00  0.45593999997E+02  0.45594000000E+02  0.51100000000E-03 0. -1.
         11   -1    0    0    0    0 -0.00000000000E+00 -0.00000000000E+00 -0.45593999997E+02  0.45594000000E+02  0.51100000000E-03 0.  1.
         23    2    1    2    0    0  0.26645352591E-14 -0.17763568394E-14  0.00000000000E+00  0.91188000000E+02  0.91188000000E+02 0.  0.
    9900012    2    3    3    0    0  0.60046616710E+01 -0.13673895186E+02  0.33656500407E+02  0.54366927351E+02  0.39999642481E+02 0.  0.
        -12    1    3    3    0    0 -0.60046616710E+01  0.13673895186E+02 -0.33656500407E+02  0.36821072649E+02  0.00000000000E+00 0.  1.
         11    1    4    4    0    0 -0.60672966011E+01 -0.13429245387E+02  0.55167909649E+01  0.15735046950E+02  0.51100000000E-03 0.  1.
        -11    1    4    4    0    0 -0.24000114472E+01  0.54402087911E+01 -0.57905854700E+00  0.59742142328E+01  0.51100000000E-03 0. -1.
         12    1    4    4    0    0  0.14471969719E+02 -0.56848585906E+01  0.28718767989E+02  0.32657666169E+02  0.00000000000E+00 0. -1.
</event>
<event>
 8    1  0.2531964E-006  0.9118800E+02  0.7816164E-02  0.1184000E+00
        -11   -1    0    0    0    0  0.00000000000E+00  0.00000000000E+00  0.45593999997E+02  0.45594000000E+02  0.51100000000E-03 0. -1.
         11   -1    0    0    0    0 -0.00000000000E+00 -0.00000000000E+00 -0.45593999997E+02  0.45594000000E+02  0.51100000000E-03 0.  1.
         23    2    1    2    0    0  0.00000000000E+00 -0.17763568394E-14  0.00000000000E+00  0.91188000000E+02  0.91188000000E+02 0.  0.
    9900012    2    3    3    0    0  0.30789024993E+01  0.53534811705E+01 -0.36299334532E+02  0.54367067248E+02  0.39999961406E+02 0.  0.
         12    1    3    3    0    0 -0.30789024993E+01 -0.53534811705E+01  0.36299334532E+02  0.36820932752E+02  0.00000000000E+00 0. -1.
         11    1    4    4    0    0 -0.99428473744E+01  0.16735599869E+02 -0.13719326634E+02  0.23815130493E+02  0.51100000000E-03 0. -1.
        -11    1    4    4    0    0  0.16558631663E+01 -0.65013229642E+01 -0.29031823962E+01  0.73100992741E+01  0.51100000000E-03 0.  1.
         12    1    4    4    0    0  0.11365886707E+02 -0.48807957337E+01 -0.19676825502E+02  0.23241837481E+02  0.00000000000E+00 0. -1.
</event>
<event>
 8    1  0.2531964E-006  0.9118800E+02  0.7816164E-02  0.1184000E+00
        -11   -1    0    0    0    0  0.00000000000E+00  0.00000000000E+00  0.45593999997E+02  0.45594000000E+02  0.51100000000E-03 0.  1.
         11   -1    0    0    0    0 -0.00000000000E+00 -0.00000000000E+00 -0.45593999997E+02  0.45594000000E+02  0.51100000000E-03 0. -1.
         23    2    1    2    0    0  0.00000000000E+00 -0.88817841970E-15  0.17763568394E-14  0.91188000000E+02  0.91188000000E+02 0.  0.
    9900012    2    3    3    0    0  0.36070031141E+02  0.20163845714E+01 -0.71180735857E+01  0.54367083052E+02  0.39999997435E+02 0.  0.
        -12    1    3    3    0    0 -0.36070031141E+02 -0.20163845714E+01  0.71180735857E+01  0.36820916948E+02  0.00000000000E+00 0.  1.
         11    1    4    4    0    0  0.16963946632E+02 -0.14814654040E+02 -0.43370765551E+01  0.22935991214E+02  0.51100000000E-03 0. -1.
        -11    1    4    4    0    0  0.22934451644E+01 -0.70561235605E+00  0.53085127522E+01  0.58256405159E+01  0.51100000000E-03 0.  1.
        -12    1    4    4    0    0  0.16812639346E+02  0.17536650968E+02 -0.80895097828E+01  0.25605451323E+02  0.00000000000E+00 0.  1.
</event>
<event>
 8    1  0.2531964E-006  0.9118800E+02  0.7816164E-02  0.1184000E+00
        -11   -1    0    0    0    0  0.00000000000E+00  0.00000000000E+00  0.45593999997E+02  0.45594000000E+02  0.51100000000E-03 0.  1.
         11   -1    0    0    0    0 -0.00000000000E+00 -0.00000000000E+00 -0.45593999997E+02  0.45594000000E+02  0.51100000000E-03 0. -1.
         23    2    1    2    0    0 -0.35527136788E-14  0.00000000000E+00  0.77715611724E-15  0.91188000000E+02  0.91188000000E+02 0.  0.
    9900012    2    3    3    0    0  0.20890381448E+02  0.30320614332E+02 -0.19538497119E+00  0.54367002379E+02  0.39999813522E+02 0.  0.
         12    1    3    3    0    0 -0.20890381448E+02 -0.30320614332E+02  0.19538497119E+00  0.36820997621E+02  0.00000000000E+00 0. -1.
         11    1    4    4    0    0  0.14947706517E+02  0.14344517470E+02  0.27823924794E+01  0.20903129425E+02  0.51100000000E-03 0. -1.
        -11    1    4    4    0    0  0.32477763016E+01 -0.68355351154E+01  0.50873509010E+01  0.91188667426E+01  0.51100000000E-03 0.  1.
         12    1    4    4    0    0  0.26948986293E+01  0.22811631978E+02 -0.80651283516E+01  0.24345006211E+02  0.00000000000E+00 0. -1.
</event>
<event>
 8    1  0.2531964E-006  0.9118800E+02  0.7816164E-02  0.1184000E+00
        -11   -1    0    0    0    0  0.00000000000E+00  0.00000000000E+00  0.45593999997E+02  0.45594000000E+02  0.51100000000E-03 0. -1.
         11   -1    0    0    0    0 -0.00000000000E+00 -0.00000000000E+00 -0.45593999997E+02  0.45594000000E+02  0.51100000000E-03 0.  1.
         23    2    1    2    0    0  0.00000000000E+00  0.00000000000E+00  0.00000000000E+00  0.91188000000E+02  0.91188000000E+02 0.  0.
    9900012    2    3    3    0    0 -0.33676937904E+02 -0.10404881449E+02 -0.10648166578E+02  0.54367066334E+02  0.39999959322E+02 0.  0.
         12    1    3    3    0    0  0.33676937904E+02  0.10404881449E+02  0.10648166578E+02  0.36820933666E+02  0.00000000000E+00 0. -1.
         11    1    4    4    0    0 -0.17173109976E+02 -0.32780049345E+01 -0.10512830497E+02  0.20400505580E+02  0.51100000000E-03 0. -1.
        -11    1    4    4    0    0 -0.90615020001E+01  0.34383336910E+01 -0.12677445037E+02  0.15957774594E+02  0.51100000000E-03 0.  1.
         12    1    4    4    0    0 -0.74423259282E+01 -0.10565210206E+02  0.12542108956E+02  0.18008786160E+02  0.00000000000E+00 0. -1.
</event>
<event>
 8    1  0.2531964E-006  0.9118800E+02  0.7816164E-02  0.1184000E+00
        -11   -1    0    0    0    0  0.00000000000E+00  0.00000000000E+00  0.45593999997E+02  0.45594000000E+02  0.51100000000E-03 0. -1.
         11   -1    0    0    0    0 -0.00000000000E+00 -0.00000000000E+00 -0.45593999997E+02  0.45594000000E+02  0.51100000000E-03 0.  1.
         23    2    1    2    0    0  0.17763568394E-14  0.00000000000E+00  0.00000000000E+00  0.91188000000E+02  0.91188000000E+02 0.  0.
    9900012    2    3    3    0    0  0.86667991317E+01  0.35537681076E+02 -0.42118158409E+01  0.54367087788E+02  0.40000008230E+02 0.  0.
        -12    1    3    3    0    0 -0.86667991317E+01 -0.35537681076E+02  0.42118158409E+01  0.36820912212E+02  0.00000000000E+00 0.  1.
         11    1    4    4    0    0  0.85915816078E+01  0.27525813367E+02 -0.16870911299E+01  0.28884804877E+02  0.51100000000E-03 0. -1.
        -11    1    4    4    0    0  0.83084277399E+01  0.47253999912E+01  0.74638663593E+01  0.12127187550E+02  0.51100000000E-03 0.  1.
        -12    1    4    4    0    0 -0.82332102159E+01  0.32864677178E+01 -0.99885910704E+01  0.13355095361E+02  0.00000000000E+00 0.  1.
</event>
<event>
 8    1  0.2531964E-006  0.9118800E+02  0.7816164E-02  0.1184000E+00
        -11   -1    0    0    0    0  0.00000000000E+00  0.00000000000E+00  0.45593999997E+02  0.45594000000E+02  0.51100000000E-03 0. -1.
         11   -1    0    0    0    0 -0.00000000000E+00 -0.00000000000E+00 -0.45593999997E+02  0.45594000000E+02  0.51100000000E-03 0.  1.
         23    2    1    2    0    0  0.35527136788E-14  0.17763568394E-14 -0.35527136788E-14  0.91188000000E+02  0.91188000000E+02 0.  0.
    9900012    2    3    3    0    0 -0.21844490708E+02 -0.84911076868E+01  0.28398816488E+02  0.54367170814E+02  0.40000197504E+02 0.  0.
        -12    1    3    3    0    0  0.21844490708E+02  0.84911076868E+01 -0.28398816488E+02  0.36820829186E+02  0.00000000000E+00 0.  1.
         11    1    4    4    0    0 -0.10012494191E+02  0.75768194904E+01  0.24333972187E+02  0.27382484113E+02  0.51100000000E-03 0. -1.
        -11    1    4    4    0    0  0.93037354280E+00 -0.10459464735E+02 -0.35693962847E+01  0.11090833493E+02  0.51100000000E-03 0.  1.
        -12    1    4    4    0    0 -0.12762370059E+02 -0.56084624425E+01  0.76342405857E+01  0.15893853209E+02  0.00000000000E+00 0.  1.
</event>
<event>
 8    1  0.2531964E-006  0.9118800E+02  0.7816164E-02  0.1184000E+00
        -11   -1    0    0    0    0  0.00000000000E+00  0.00000000000E+00  0.45593999997E+02  0.45594000000E+02  0.51100000000E-03 0.  1.
         11   -1    0    0    0    0 -0.00000000000E+00 -0.00000000000E+00 -0.45593999997E+02  0.45594000000E+02  0.51100000000E-03 0. -1.
         23    2    1    2    0    0  0.00000000000E+00 -0.33306690739E-15  0.00000000000E+00  0.91188000000E+02  0.91188000000E+02 0.  0.
    9900012    2    3    3    0    0 -0.36053091281E+02  0.96471924244E+00 -0.74177661373E+01  0.54367091149E+02  0.40000015892E+02 0.  0.
        -12    1    3    3    0    0  0.36053091281E+02 -0.96471924244E+00  0.74177661373E+01  0.36820908851E+02  0.00000000000E+00 0.  1.
         11    1    4    4    0    0 -0.25241258903E+02 -0.68671503827E+01 -0.70276300894E+00  0.26168163510E+02  0.51100000000E-03 0. -1.
        -11    1    4    4    0    0 -0.15141752119E+02  0.95802406781E+01  0.22816110147E+01  0.18062652567E+02  0.51100000000E-03 0.  1.
         12    1    4    4    0    0  0.43299197403E+01 -0.17483710530E+01 -0.89966141430E+01  0.10136275072E+02  0.00000000000E+00 0. -1.
</event>
<event>
 8    1  0.2531964E-006  0.9118800E+02  0.7816164E-02  0.1184000E+00
        -11   -1    0    0    0    0  0.00000000000E+00  0.00000000000E+00  0.45593999997E+02  0.45594000000E+02  0.51100000000E-03 0.  1.
         11   -1    0    0    0    0 -0.00000000000E+00 -0.00000000000E+00 -0.45593999997E+02  0.45594000000E+02  0.51100000000E-03 0. -1.
         23    2    1    2    0    0  0.00000000000E+00  0.00000000000E+00  0.00000000000E+00  0.91188000000E+02  0.91188000000E+02 0.  0.
    9900012    2    3    3    0    0  0.16138668362E+02  0.32782273798E+02  0.45437873101E+01  0.54367080743E+02  0.39999992169E+02 0.  0.
        -12    1    3    3    0    0 -0.16138668362E+02 -0.32782273798E+02 -0.45437873101E+01  0.36820919257E+02  0.00000000000E+00 0.  1.
         11    1    4    4    0    0  0.10711377226E+02  0.25862205741E+02 -0.98670691376E+01  0.29680740245E+02  0.51100000000E-03 0. -1.
        -11    1    4    4    0    0  0.95235410289E+01 -0.22393494481E+01  0.52658573538E+01  0.11110435348E+02  0.51100000000E-03 0.  1.
         12    1    4    4    0    0 -0.40962498934E+01  0.91594175049E+01  0.91449990939E+01  0.13575905150E+02  0.00000000000E+00 0. -1.
</event>
<event>
 8    1  0.2531964E-006  0.9118800E+02  0.7816164E-02  0.1184000E+00
        -11   -1    0    0    0    0  0.00000000000E+00  0.00000000000E+00  0.45593999997E+02  0.45594000000E+02  0.51100000000E-03 0. -1.
         11   -1    0    0    0    0 -0.00000000000E+00 -0.00000000000E+00 -0.45593999997E+02  0.45594000000E+02  0.51100000000E-03 0.  1.
         23    2    1    2    0    0  0.00000000000E+00  0.17763568394E-14 -0.17763568394E-14  0.91188000000E+02  0.91188000000E+02 0.  0.
    9900012    2    3    3    0    0  0.31002346274E+02 -0.12369950605E+02  0.15544131919E+02  0.54367065878E+02  0.39999958283E+02 0.  0.
        -12    1    3    3    0    0 -0.31002346274E+02  0.12369950605E+02 -0.15544131919E+02  0.36820934122E+02  0.00000000000E+00 0.  1.
         11    1    4    4    0    0  0.20710937082E+01 -0.10328689219E+02  0.38238690263E+01  0.11206838301E+02  0.51100000000E-03 0. -1.
        -11    1    4    4    0    0  0.30070018290E+02  0.17900387035E+00 -0.11085685070E+01  0.30090978162E+02  0.51100000000E-03 0.  1.
        -12    1    4    4    0    0 -0.11387657242E+01 -0.22202652567E+01  0.12828831399E+02  0.13069249415E+02  0.00000000000E+00 0.  1.
</event>
<event>
 8    1  0.2531964E-006  0.9118800E+02  0.7816164E-02  0.1184000E+00
        -11   -1    0    0    0    0  0.00000000000E+00  0.00000000000E+00  0.45593999997E+02  0.45594000000E+02  0.51100000000E-03 0. -1.
         11   -1    0    0    0    0 -0.00000000000E+00 -0.00000000000E+00 -0.45593999997E+02  0.45594000000E+02  0.51100000000E-03 0.  1.
         23    2    1    2    0    0  0.00000000000E+00  0.35527136788E-14  0.00000000000E+00  0.91188000000E+02  0.91188000000E+02 0.  0.
    9900012    2    3    3    0    0 -0.18198132838E+02 -0.31906682124E+02  0.25632437016E+01  0.54367100755E+02  0.40000037791E+02 0.  0.
         12    1    3    3    0    0  0.18198132838E+02  0.31906682124E+02 -0.25632437016E+01  0.36820899245E+02  0.00000000000E+00 0. -1.
         11    1    4    4    0    0 -0.13842605999E+02 -0.13509632620E+02  0.37101758284E+00  0.19345944502E+02  0.51100000000E-03 0. -1.
        -11    1    4    4    0    0  0.96452409122E+01 -0.10834057323E+02 -0.75603669350E+01  0.16357463703E+02  0.51100000000E-03 0.  1.
         12    1    4    4    0    0 -0.14000767751E+02 -0.75629921814E+01  0.97525930539E+01  0.18663692550E+02  0.00000000000E+00 0. -1.
</event>
<event>
 8    1  0.2531964E-006  0.9118800E+02  0.7816164E-02  0.1184000E+00
        -11   -1    0    0    0    0  0.00000000000E+00  0.00000000000E+00  0.45593999997E+02  0.45594000000E+02  0.51100000000E-03 0.  1.
         11   -1    0    0    0    0 -0.00000000000E+00 -0.00000000000E+00 -0.45593999997E+02  0.45594000000E+02  0.51100000000E-03 0. -1.
         23    2    1    2    0    0  0.00000000000E+00  0.00000000000E+00  0.35527136788E-14  0.91188000000E+02  0.91188000000E+02 0.  0.
    9900012    2    3    3    0    0 -0.23046889554E+02 -0.23282646186E+01  0.28621662958E+02  0.54367088486E+02  0.40000009821E+02 0.  0.
         12    1    3    3    0    0  0.23046889554E+02  0.23282646186E+01 -0.28621662958E+02  0.36820911514E+02  0.00000000000E+00 0. -1.
         11    1    4    4    0    0 -0.10429921465E+02  0.20350024982E+00 -0.80404818022E+01  0.13170953723E+02  0.51100000000E-03 0. -1.
        -11    1    4    4    0    0  0.58166168632E+00  0.39993161768E+01  0.87190451542E+01  0.96101305330E+01  0.51100000000E-03 0.  1.
         12    1    4    4    0    0 -0.13198629776E+02 -0.65310810452E+01  0.27943099606E+02  0.31586004229E+02  0.00000000000E+00 0. -1.
</event>
<event>
 8    1  0.2531964E-006  0.9118800E+02  0.7816164E-02  0.1184000E+00
        -11   -1    0    0    0    0  0.00000000000E+00  0.00000000000E+00  0.45593999997E+02  0.45594000000E+02  0.51100000000E-03 0.  1.
         11   -1    0    0    0    0 -0.00000000000E+00 -0.00000000000E+00 -0.45593999997E+02  0.45594000000E+02  0.51100000000E-03 0. -1.
         23    2    1    2    0    0  0.00000000000E+00  0.00000000000E+00 -0.44408920985E-15  0.91188000000E+02  0.91188000000E+02 0.  0.
    9900012    2    3    3    0    0 -0.35093491963E+02 -0.10864590735E+02 -0.24873434554E+01  0.54367090350E+02  0.40000014070E+02 0.  0.
         12    1    3    3    0    0  0.35093491963E+02  0.10864590735E+02  0.24873434554E+01  0.36820909650E+02  0.00000000000E+00 0. -1.
         11    1    4    4    0    0 -0.23632608860E+01  0.55740262396E+01 -0.18114424093E+01  0.63195011195E+01  0.51100000000E-03 0. -1.
        -11    1    4    4    0    0 -0.22200378349E+02  0.57347846462E+01  0.33514547412E+01  0.23172759933E+02  0.51100000000E-03 0.  1.
        -12    1    4    4    0    0 -0.10529852729E+02 -0.22173401621E+02 -0.40273557873E+01  0.24874829297E+02  0.00000000000E+00 0.  1.
</event>
<event>
 8    1  0.2531964E-006  0.9118800E+02  0.7816164E-02  0.1184000E+00
        -11   -1    0    0    0    0  0.00000000000E+00  0.00000000000E+00  0.45593999997E+02  0.45594000000E+02  0.51100000000E-03 0.  1.
         11   -1    0    0    0    0 -0.00000000000E+00 -0.00000000000E+00 -0.45593999997E+02  0.45594000000E+02  0.51100000000E-03 0. -1.
         23    2    1    2    0    0 -0.22204460493E-15 -0.88817841970E-15  0.71054273576E-14  0.91188000000E+02  0.91188000000E+02 0.  0.
    9900012    2    3    3    0    0 -0.68853238758E+00 -0.70923929102E+01  0.36124835795E+02  0.54367083726E+02  0.39999998971E+02 0.  0.
         12    1    3    3    0    0  0.68853238758E+00  0.70923929102E+01 -0.36124835795E+02  0.36820916274E+02  0.00000000000E+00 0. -1.
         11    1    4    4    0    0  0.18190200078E+02  0.10361183626E+01  0.21555863239E+02  0.28224318599E+02  0.51100000000E-03 0. -1.
        -11    1    4    4    0    0 -0.15093980601E+01 -0.32028897724E+01  0.34248808860E+01  0.49261135535E+01  0.51100000000E-03 0.  1.
        -12    1    4    4    0    0 -0.17369334406E+02 -0.49256215004E+01  0.11144091670E+02  0.21216651574E+02  0.00000000000E+00 0.  1.
</event>
<event>
 8    1  0.2531964E-006  0.9118800E+02  0.7816164E-02  0.1184000E+00
        -11   -1    0    0    0    0  0.00000000000E+00  0.00000000000E+00  0.45593999997E+02  0.45594000000E+02  0.51100000000E-03 0. -1.
         11   -1    0    0    0    0 -0.00000000000E+00 -0.00000000000E+00 -0.45593999997E+02  0.45594000000E+02  0.51100000000E-03 0.  1.
         23    2    1    2    0    0  0.00000000000E+00 -0.35527136788E-14 -0.17763568394E-14  0.91188000000E+02  0.91188000000E+02 0.  0.
    9900012    2    3    3    0    0  0.22886352910E+02  0.25267985452E+02  0.13911300414E+02  0.54367075004E+02  0.39999979087E+02 0.  0.
        -12    1    3    3    0    0 -0.22886352910E+02 -0.25267985452E+02 -0.13911300414E+02  0.36820924996E+02  0.00000000000E+00 0.  1.
         11    1    4    4    0    0 -0.67745355137E+01  0.52308554422E+01 -0.12548286733E+01  0.86504783304E+01  0.51100000000E-03 0. -1.
        -11    1    4    4    0    0 -0.11305170042E+01 -0.39404605518E+01  0.15762954085E+01  0.43920388810E+01  0.51100000000E-03 0.  1.
         12    1    4    4    0    0  0.30791405428E+02  0.23977590562E+02  0.13589833679E+02  0.41324557793E+02  0.00000000000E+00 0. -1.
</event>
<event>
 8    1  0.2531964E-006  0.9118800E+02  0.7816164E-02  0.1184000E+00
        -11   -1    0    0    0    0  0.00000000000E+00  0.00000000000E+00  0.45593999997E+02  0.45594000000E+02  0.51100000000E-03 0.  1.
         11   -1    0    0    0    0 -0.00000000000E+00 -0.00000000000E+00 -0.45593999997E+02  0.45594000000E+02  0.51100000000E-03 0. -1.
         23    2    1    2    0    0  0.44408920985E-14  0.35527136788E-14  0.35527136788E-14  0.91188000000E+02  0.91188000000E+02 0.  0.
    9900012    2    3    3    0    0 -0.73847407865E+01 -0.27677013767E+02  0.23135020837E+02  0.54367072843E+02  0.39999974161E+02 0.  0.
         12    1    3    3    0    0  0.73847407865E+01  0.27677013767E+02 -0.23135020837E+02  0.36820927157E+02  0.00000000000E+00 0. -1.
         11    1    4    4    0    0 -0.41786018072E+01 -0.16023519826E+02  0.70437475072E+00  0.16574379166E+02  0.51100000000E-03 0. -1.
        -11    1    4    4    0    0  0.10251061848E+02  0.35368410521E+00  0.18408784983E+01  0.10421045790E+02  0.51100000000E-03 0.  1.
        -12    1    4    4    0    0 -0.13457200827E+02 -0.12007178046E+02  0.20589767588E+02  0.27371647887E+02  0.00000000000E+00 0.  1.
</event>
<event>
 8    1  0.2531964E-006  0.9118800E+02  0.7816164E-02  0.1184000E+00
        -11   -1    0    0    0    0  0.00000000000E+00  0.00000000000E+00  0.45593999997E+02  0.45594000000E+02  0.51100000000E-03 0. -1.
         11   -1    0    0    0    0 -0.00000000000E+00 -0.00000000000E+00 -0.45593999997E+02  0.45594000000E+02  0.51100000000E-03 0.  1.
         23    2    1    2    0    0  0.00000000000E+00 -0.35527136788E-14  0.17763568394E-14  0.91188000000E+02  0.91188000000E+02 0.  0.
    9900012    2    3    3    0    0  0.17948935578E+02 -0.30991591349E+02  0.85521541615E+01  0.54367049937E+02  0.39999921942E+02 0.  0.
        -12    1    3    3    0    0 -0.17948935578E+02  0.30991591349E+02 -0.85521541615E+01  0.36820950063E+02  0.00000000000E+00 0.  1.
         11    1    4    4    0    0  0.16652102689E+01 -0.26241935376E+01  0.68111953391E+01  0.74867682728E+01  0.51100000000E-03 0. -1.
        -11    1    4    4    0    0  0.16350633744E+02 -0.16867761109E+02  0.16103337961E+02  0.28481258441E+02  0.51100000000E-03 0.  1.
        -12    1    4    4    0    0 -0.66908434562E-01 -0.11499636702E+02 -0.14362379139E+02  0.18399023223E+02  0.00000000000E+00 0.  1.
</event>
<event>
 8    1  0.2531964E-006  0.9118800E+02  0.7816164E-02  0.1184000E+00
        -11   -1    0    0    0    0  0.00000000000E+00  0.00000000000E+00  0.45593999997E+02  0.45594000000E+02  0.51100000000E-03 0. -1.
         11   -1    0    0    0    0 -0.00000000000E+00 -0.00000000000E+00 -0.45593999997E+02  0.45594000000E+02  0.51100000000E-03 0.  1.
         23    2    1    2    0    0 -0.35527136788E-14  0.00000000000E+00  0.35527136788E-14  0.91188000000E+02  0.91188000000E+02 0.  0.
    9900012    2    3    3    0    0  0.22001664045E+02 -0.82436841031E+01 -0.28350456955E+02  0.54367082603E+02  0.39999996411E+02 0.  0.
         12    1    3    3    0    0 -0.22001664045E+02  0.82436841031E+01  0.28350456955E+02  0.36820917397E+02  0.00000000000E+00 0. -1.
         11    1    4    4    0    0 -0.58308279601E+01 -0.12444410901E+02 -0.95673236171E+01  0.16745017135E+02  0.51100000000E-03 0. -1.
        -11    1    4    4    0    0  0.14504535760E+02 -0.20419128282E+01 -0.12062408659E+01  0.14697141998E+02  0.51100000000E-03 0.  1.
        -12    1    4    4    0    0  0.13327956245E+02  0.62426396263E+01 -0.17576892472E+02  0.22924923471E+02  0.00000000000E+00 0.  1.
</event>
<event>
 8    1  0.2531964E-006  0.9118800E+02  0.7816164E-02  0.1184000E+00
        -11   -1    0    0    0    0  0.00000000000E+00  0.00000000000E+00  0.45593999997E+02  0.45594000000E+02  0.51100000000E-03 0. -1.
         11   -1    0    0    0    0 -0.00000000000E+00 -0.00000000000E+00 -0.45593999997E+02  0.45594000000E+02  0.51100000000E-03 0.  1.
         23    2    1    2    0    0 -0.17763568394E-14 -0.44408920985E-15  0.00000000000E+00  0.91188000000E+02  0.91188000000E+02 0.  0.
    9900012    2    3    3    0    0  0.14989558369E+02  0.28436861928E+01 -0.33511287983E+02  0.54367084292E+02  0.40000000261E+02 0.  0.
         12    1    3    3    0    0 -0.14989558369E+02 -0.28436861928E+01  0.33511287983E+02  0.36820915708E+02  0.00000000000E+00 0. -1.
         11    1    4    4    0    0  0.16427439012E+01 -0.78062010342E+00  0.75623839844E+01  0.77780220531E+01  0.51100000000E-03 0. -1.
        -11    1    4    4    0    0  0.12380095021E+02  0.58685575436E+01 -0.14670763246E+02  0.20073315990E+02  0.51100000000E-03 0.  1.
        -12    1    4    4    0    0  0.96671944698E+00 -0.22442512474E+01 -0.26402908722E+02  0.26515746249E+02  0.00000000000E+00 0.  1.
</event>
<event>
 8    1  0.2531964E-006  0.9118800E+02  0.7816164E-02  0.1184000E+00
        -11   -1    0    0    0    0  0.00000000000E+00  0.00000000000E+00  0.45593999997E+02  0.45594000000E+02  0.51100000000E-03 0.  1.
         11   -1    0    0    0    0 -0.00000000000E+00 -0.00000000000E+00 -0.45593999997E+02  0.45594000000E+02  0.51100000000E-03 0. -1.
         23    2    1    2    0    0 -0.53290705182E-14  0.00000000000E+00 -0.13322676296E-14  0.91188000000E+02  0.91188000000E+02 0.  0.
    9900012    2    3    3    0    0  0.14341792435E+02  0.33842519272E+02 -0.21854767022E+01  0.54367089781E+02  0.40000012775E+02 0.  0.
         12    1    3    3    0    0 -0.14341792435E+02 -0.33842519272E+02  0.21854767022E+01  0.36820910219E+02  0.00000000000E+00 0. -1.
         11    1    4    4    0    0 -0.32189688085E+01  0.37084992301E+01 -0.36352602266E+01  0.61098153742E+01  0.51100000000E-03 0. -1.
        -11    1    4    4    0    0  0.86875168392E+01  0.57718760594E+01  0.15564842062E+02  0.18736376671E+02  0.51100000000E-03 0.  1.
         12    1    4    4    0    0  0.88732444042E+01  0.24362143982E+02 -0.14115058537E+02  0.29520897737E+02  0.00000000000E+00 0. -1.
</event>
<event>
 8    1  0.2531964E-006  0.9118800E+02  0.7816164E-02  0.1184000E+00
        -11   -1    0    0    0    0  0.00000000000E+00  0.00000000000E+00  0.45593999997E+02  0.45594000000E+02  0.51100000000E-03 0.  1.
         11   -1    0    0    0    0 -0.00000000000E+00 -0.00000000000E+00 -0.45593999997E+02  0.45594000000E+02  0.51100000000E-03 0. -1.
         23    2    1    2    0    0  0.35527136788E-14  0.35527136788E-14  0.00000000000E+00  0.91188000000E+02  0.91188000000E+02 0.  0.
    9900012    2    3    3    0    0 -0.19726440005E+02 -0.30705339668E+02 -0.48815755819E+01  0.54367080680E+02  0.39999992027E+02 0.  0.
         12    1    3    3    0    0  0.19726440005E+02  0.30705339668E+02  0.48815755819E+01  0.36820919320E+02  0.00000000000E+00 0. -1.
         11    1    4    4    0    0 -0.39394055509E+01 -0.22150135023E+02  0.99956955910E+01  0.24618312864E+02  0.51100000000E-03 0.  1.
        -11    1    4    4    0    0 -0.18789550267E+02 -0.72661970561E+01 -0.71802968831E+01  0.21386946544E+02  0.51100000000E-03 0. -1.
         12    1    4    4    0    0  0.30025158129E+01 -0.12890075885E+01 -0.76969742898E+01  0.83618212721E+01  0.00000000000E+00 0. -1.
</event>
<event>
 8    1  0.2531964E-006  0.9118800E+02  0.7816164E-02  0.1184000E+00
        -11   -1    0    0    0    0  0.00000000000E+00  0.00000000000E+00  0.45593999997E+02  0.45594000000E+02  0.51100000000E-03 0. -1.
         11   -1    0    0    0    0 -0.00000000000E+00 -0.00000000000E+00 -0.45593999997E+02  0.45594000000E+02  0.51100000000E-03 0.  1.
         23    2    1    2    0    0  0.00000000000E+00  0.00000000000E+00  0.00000000000E+00  0.91188000000E+02  0.91188000000E+02 0.  0.
    9900012    2    3    3    0    0  0.11744975019E+02 -0.22776509562E+01  0.34823083094E+02  0.54367092240E+02  0.40000018379E+02 0.  0.
        -12    1    3    3    0    0 -0.11744975019E+02  0.22776509562E+01 -0.34823083094E+02  0.36820907760E+02  0.00000000000E+00 0.  1.
         11    1    4    4    0    0  0.15341935846E+02 -0.73481291024E+01  0.30832948042E+02  0.35214211364E+02  0.51100000000E-03 0. -1.
        -11    1    4    4    0    0 -0.11993224886E+01 -0.53745315460E+00  0.10296333732E+02  0.10379870852E+02  0.51100000000E-03 0.  1.
        -12    1    4    4    0    0 -0.23976383381E+01  0.56079313007E+01 -0.63061986798E+01  0.87730100229E+01  0.00000000000E+00 0.  1.
</event>
<event>
 8    1  0.2531964E-006  0.9118800E+02  0.7816164E-02  0.1184000E+00
        -11   -1    0    0    0    0  0.00000000000E+00  0.00000000000E+00  0.45593999997E+02  0.45594000000E+02  0.51100000000E-03 0.  1.
         11   -1    0    0    0    0 -0.00000000000E+00 -0.00000000000E+00 -0.45593999997E+02  0.45594000000E+02  0.51100000000E-03 0. -1.
         23    2    1    2    0    0 -0.35527136788E-14  0.71054273576E-14  0.17763568394E-14  0.91188000000E+02  0.91188000000E+02 0.  0.
    9900012    2    3    3    0    0 -0.29739635011E+02  0.17980796454E+02 -0.12166533522E+02  0.54367089234E+02  0.40000011526E+02 0.  0.
        -12    1    3    3    0    0  0.29739635011E+02 -0.17980796454E+02  0.12166533522E+02  0.36820910766E+02  0.00000000000E+00 0.  1.
         11    1    4    4    0    0  0.52650445399E+01  0.12944421994E+01  0.18826287048E+00  0.54251007165E+01  0.51100000000E-03 0. -1.
        -11    1    4    4    0    0 -0.13794063080E+02  0.15689681898E+00  0.73250993336E+01  0.15619150853E+02  0.51100000000E-03 0.  1.
         12    1    4    4    0    0 -0.21210616471E+02  0.16529457436E+02 -0.19679895726E+02  0.33322837664E+02  0.00000000000E+00 0. -1.
</event>
<event>
 8    1  0.2531964E-006  0.9118800E+02  0.7816164E-02  0.1184000E+00
        -11   -1    0    0    0    0  0.00000000000E+00  0.00000000000E+00  0.45593999997E+02  0.45594000000E+02  0.51100000000E-03 0. -1.
         11   -1    0    0    0    0 -0.00000000000E+00 -0.00000000000E+00 -0.45593999997E+02  0.45594000000E+02  0.51100000000E-03 0.  1.
         23    2    1    2    0    0  0.00000000000E+00  0.00000000000E+00  0.00000000000E+00  0.91188000000E+02  0.91188000000E+02 0.  0.
    9900012    2    3    3    0    0 -0.25647268520E+02  0.99709006066E+01 -0.24465859555E+02  0.54367088479E+02  0.40000009806E+02 0.  0.
         12    1    3    3    0    0  0.25647268520E+02 -0.99709006066E+01  0.24465859555E+02  0.36820911521E+02  0.00000000000E+00 0. -1.
         11    1    4    4    0    0 -0.11094713236E+02  0.12464819114E+02 -0.20257408844E+02  0.26245513725E+02  0.51100000000E-03 0. -1.
        -11    1    4    4    0    0 -0.94216697671E+01  0.42630146793E+01 -0.12524049416E+02  0.16241704633E+02  0.51100000000E-03 0.  1.
         12    1    4    4    0    0 -0.51308855171E+01 -0.67569331863E+01  0.83155987051E+01  0.11879870121E+02  0.00000000000E+00 0. -1.
</event>
<event>
 8    1  0.2531964E-006  0.9118800E+02  0.7816164E-02  0.1184000E+00
        -11   -1    0    0    0    0  0.00000000000E+00  0.00000000000E+00  0.45593999997E+02  0.45594000000E+02  0.51100000000E-03 0. -1.
         11   -1    0    0    0    0 -0.00000000000E+00 -0.00000000000E+00 -0.45593999997E+02  0.45594000000E+02  0.51100000000E-03 0.  1.
         23    2    1    2    0    0  0.00000000000E+00  0.88817841970E-15  0.00000000000E+00  0.91188000000E+02  0.91188000000E+02 0.  0.
    9900012    2    3    3    0    0 -0.21221220016E+02  0.60321931420E+01  0.29479768971E+02  0.54367023483E+02  0.39999861633E+02 0.  0.
        -12    1    3    3    0    0  0.21221220016E+02 -0.60321931420E+01 -0.29479768971E+02  0.36820976517E+02  0.00000000000E+00 0.  1.
         11    1    4    4    0    0 -0.75825581205E+01 -0.34231984974E+01  0.17740429849E+02  0.19594293228E+02  0.51100000000E-03 0. -1.
        -11    1    4    4    0    0 -0.17972480759E+01  0.13799134391E+02 -0.41167604823E+01  0.14511854730E+02  0.51100000000E-03 0.  1.
        -12    1    4    4    0    0 -0.11841413820E+02 -0.43437427515E+01  0.15856099604E+02  0.20260875524E+02  0.00000000000E+00 0.  1.
</event>
<event>
 8    1  0.2531964E-006  0.9118800E+02  0.7816164E-02  0.1184000E+00
        -11   -1    0    0    0    0  0.00000000000E+00  0.00000000000E+00  0.45593999997E+02  0.45594000000E+02  0.51100000000E-03 0. -1.
         11   -1    0    0    0    0 -0.00000000000E+00 -0.00000000000E+00 -0.45593999997E+02  0.45594000000E+02  0.51100000000E-03 0.  1.
         23    2    1    2    0    0  0.35527136788E-14  0.00000000000E+00  0.00000000000E+00  0.91188000000E+02  0.91188000000E+02 0.  0.
    9900012    2    3    3    0    0 -0.24068186093E+02 -0.24494369363E+02 -0.13286389009E+02  0.54367084134E+02  0.39999999901E+02 0.  0.
        -12    1    3    3    0    0  0.24068186093E+02  0.24494369363E+02  0.13286389009E+02  0.36820915866E+02  0.00000000000E+00 0.  1.
         11    1    4    4    0    0 -0.49931861984E+00 -0.15430614832E+02  0.26873266360E+01  0.15670830160E+02  0.51100000000E-03 0. -1.
        -11    1    4    4    0    0  0.25435734586E+01  0.63092207280E+00 -0.98291918463E+01  0.10172553328E+02  0.51100000000E-03 0.  1.
         12    1    4    4    0    0 -0.26112440932E+02 -0.96946766034E+01 -0.61445237990E+01  0.28523700646E+02  0.00000000000E+00 0. -1.
</event>
<event>
 8    1  0.2531964E-006  0.9118800E+02  0.7816164E-02  0.1184000E+00
        -11   -1    0    0    0    0  0.00000000000E+00  0.00000000000E+00  0.45593999997E+02  0.45594000000E+02  0.51100000000E-03 0. -1.
         11   -1    0    0    0    0 -0.00000000000E+00 -0.00000000000E+00 -0.45593999997E+02  0.45594000000E+02  0.51100000000E-03 0.  1.
         23    2    1    2    0    0 -0.26645352591E-14 -0.17763568394E-14  0.00000000000E+00  0.91188000000E+02  0.91188000000E+02 0.  0.
    9900012    2    3    3    0    0  0.57730148212E+01  0.15191383050E+02  0.33040458405E+02  0.54367113119E+02  0.40000065977E+02 0.  0.
        -12    1    3    3    0    0 -0.57730148212E+01 -0.15191383050E+02 -0.33040458405E+02  0.36820886881E+02  0.00000000000E+00 0.  1.
         11    1    4    4    0    0 -0.16094677274E+02  0.79331844449E+01  0.10892600665E+02  0.20991017162E+02  0.51100000000E-03 0. -1.
        -11    1    4    4    0    0  0.14491440208E+01  0.15420182480E+01 -0.67742371518E+00  0.22218779942E+01  0.51100000000E-03 0.  1.
         12    1    4    4    0    0  0.20418548074E+02  0.57161803571E+01  0.22825281456E+02  0.31154217963E+02  0.00000000000E+00 0. -1.
</event>
<event>
 8    1  0.2531964E-006  0.9118800E+02  0.7816164E-02  0.1184000E+00
        -11   -1    0    0    0    0  0.00000000000E+00  0.00000000000E+00  0.45593999997E+02  0.45594000000E+02  0.51100000000E-03 0. -1.
         11   -1    0    0    0    0 -0.00000000000E+00 -0.00000000000E+00 -0.45593999997E+02  0.45594000000E+02  0.51100000000E-03 0.  1.
         23    2    1    2    0    0 -0.35527136788E-14  0.00000000000E+00  0.33306690739E-15  0.91188000000E+02  0.91188000000E+02 0.  0.
    9900012    2    3    3    0    0 -0.16569264305E+02  0.32873320931E+02  0.76432226477E+00  0.54367082885E+02  0.39999997053E+02 0.  0.
         12    1    3    3    0    0  0.16569264305E+02 -0.32873320931E+02 -0.76432226477E+00  0.36820917115E+02  0.00000000000E+00 0. -1.
         11    1    4    4    0    0 -0.29257985654E+01 -0.39587217299E+01  0.13676787391E+01  0.51090429998E+01  0.51100000000E-03 0. -1.
        -11    1    4    4    0    0 -0.11036791071E+02 -0.94423196632E+00 -0.24580012056E+01  0.11346545789E+02  0.51100000000E-03 0.  1.
         12    1    4    4    0    0 -0.26066746693E+01  0.37776274627E+02  0.18546447313E+01  0.37911494097E+02  0.00000000000E+00 0. -1.
</event>
<event>
 8    1  0.2531964E-006  0.9118800E+02  0.7816164E-02  0.1184000E+00
        -11   -1    0    0    0    0  0.00000000000E+00  0.00000000000E+00  0.45593999997E+02  0.45594000000E+02  0.51100000000E-03 0. -1.
         11   -1    0    0    0    0 -0.00000000000E+00 -0.00000000000E+00 -0.45593999997E+02  0.45594000000E+02  0.51100000000E-03 0.  1.
         23    2    1    2    0    0  0.00000000000E+00  0.44408920985E-15  0.00000000000E+00  0.91188000000E+02  0.91188000000E+02 0.  0.
    9900012    2    3    3    0    0 -0.26351614064E+02  0.26171355754E+01 -0.25583646374E+02  0.54367083062E+02  0.39999997457E+02 0.  0.
         12    1    3    3    0    0  0.26351614064E+02 -0.26171355754E+01  0.25583646374E+02  0.36820916938E+02  0.00000000000E+00 0. -1.
         11    1    4    4    0    0 -0.66191540658E+00  0.80119904080E+01 -0.70728199510E+01  0.10707703051E+02  0.51100000000E-03 0. -1.
        -11    1    4    4    0    0 -0.27939055294E+02 -0.32095132033E+01 -0.24240175801E+02  0.37127858932E+02  0.51100000000E-03 0.  1.
         12    1    4    4    0    0  0.22493566372E+01 -0.21853416292E+01  0.57293493783E+01  0.65315210798E+01  0.00000000000E+00 0. -1.
</event>
<event>
 8    1  0.2531964E-006  0.9118800E+02  0.7816164E-02  0.1184000E+00
        -11   -1    0    0    0    0  0.00000000000E+00  0.00000000000E+00  0.45593999997E+02  0.45594000000E+02  0.51100000000E-03 0.  1.
         11   -1    0    0    0    0 -0.00000000000E+00 -0.00000000000E+00 -0.45593999997E+02  0.45594000000E+02  0.51100000000E-03 0. -1.
         23    2    1    2    0    0  0.00000000000E+00 -0.44408920985E-15  0.00000000000E+00  0.91188000000E+02  0.91188000000E+02 0.  0.
    9900012    2    3    3    0    0 -0.33446259211E+02 -0.38749090601E+01 -0.14903541873E+02  0.54367044882E+02  0.39999910417E+02 0.  0.
         12    1    3    3    0    0  0.33446259211E+02  0.38749090601E+01  0.14903541873E+02  0.36820955118E+02  0.00000000000E+00 0. -1.
         11    1    4    4    0    0 -0.43206772564E+01 -0.15141233606E+01 -0.11940559537E+02  0.12788189231E+02  0.51100000000E-03 0. -1.
        -11    1    4    4    0    0  0.18874837837E+01 -0.52372367350E+01  0.69393911215E+01  0.88964258582E+01  0.51100000000E-03 0.  1.
         12    1    4    4    0    0 -0.31013065738E+02  0.28764510355E+01 -0.99023734580E+01  0.32682429793E+02  0.00000000000E+00 0. -1.
</event>
<event>
 8    1  0.2531964E-006  0.9118800E+02  0.7816164E-02  0.1184000E+00
        -11   -1    0    0    0    0  0.00000000000E+00  0.00000000000E+00  0.45593999997E+02  0.45594000000E+02  0.51100000000E-03 0.  1.
         11   -1    0    0    0    0 -0.00000000000E+00 -0.00000000000E+00 -0.45593999997E+02  0.45594000000E+02  0.51100000000E-03 0. -1.
         23    2    1    2    0    0 -0.66613381478E-15  0.71054273576E-14  0.44408920985E-15  0.91188000000E+02  0.91188000000E+02 0.  0.
    9900012    2    3    3    0    0  0.19029341589E+01 -0.36648878977E+02 -0.30032877434E+01  0.54367065385E+02  0.39999957158E+02 0.  0.
        -12    1    3    3    0    0 -0.19029341589E+01  0.36648878977E+02  0.30032877434E+01  0.36820934615E+02  0.00000000000E+00 0.  1.
         11    1    4    4    0    0 -0.19477945950E+01 -0.29480804116E+02 -0.77365916508E+01  0.30541227312E+02  0.51100000000E-03 0. -1.
        -11    1    4    4    0    0  0.12518536269E+02 -0.58821224369E+01  0.58000677293E+01  0.14998463275E+02  0.51100000000E-03 0.  1.
        -12    1    4    4    0    0 -0.86678075153E+01 -0.12859524239E+01 -0.10667638219E+01  0.88273747972E+01  0.00000000000E+00 0.  1.
</event>
<event>
 8    1  0.2531964E-006  0.9118800E+02  0.7816164E-02  0.1184000E+00
        -11   -1    0    0    0    0  0.00000000000E+00  0.00000000000E+00  0.45593999997E+02  0.45594000000E+02  0.51100000000E-03 0.  1.
         11   -1    0    0    0    0 -0.00000000000E+00 -0.00000000000E+00 -0.45593999997E+02  0.45594000000E+02  0.51100000000E-03 0. -1.
         23    2    1    2    0    0 -0.17763568394E-14  0.00000000000E+00  0.00000000000E+00  0.91188000000E+02  0.91188000000E+02 0.  0.
    9900012    2    3    3    0    0  0.15825986319E+02 -0.18045865892E+02 -0.27922462684E+02  0.54367095053E+02  0.40000024793E+02 0.  0.
        -12    1    3    3    0    0 -0.15825986319E+02  0.18045865892E+02  0.27922462684E+02  0.36820904947E+02  0.00000000000E+00 0.  1.
         11    1    4    4    0    0  0.18979476287E+01 -0.27122836442E+01 -0.48135687001E+00  0.33452043981E+01  0.51100000000E-03 0. -1.
        -11    1    4    4    0    0  0.17978266421E+02 -0.10361607097E+02  0.20408242606E+01  0.20850561840E+02  0.51100000000E-03 0.  1.
         12    1    4    4    0    0 -0.40502277301E+01 -0.49719751507E+01 -0.29481930074E+02  0.30171328815E+02  0.00000000000E+00 0. -1.
</event>
<event>
 8    1  0.2531964E-006  0.9118800E+02  0.7816164E-02  0.1184000E+00
        -11   -1    0    0    0    0  0.00000000000E+00  0.00000000000E+00  0.45593999997E+02  0.45594000000E+02  0.51100000000E-03 0.  1.
         11   -1    0    0    0    0 -0.00000000000E+00 -0.00000000000E+00 -0.45593999997E+02  0.45594000000E+02  0.51100000000E-03 0. -1.
         23    2    1    2    0    0  0.77715611724E-15  0.71054273576E-14 -0.44408920985E-15  0.91188000000E+02  0.91188000000E+02 0.  0.
    9900012    2    3    3    0    0  0.76150652696E+00  0.36661816113E+02 -0.33332913303E+01  0.54367089039E+02  0.40000011083E+02 0.  0.
        -12    1    3    3    0    0 -0.76150652696E+00 -0.36661816113E+02  0.33332913303E+01  0.36820910961E+02  0.00000000000E+00 0.  1.
         11    1    4    4    0    0  0.15171354923E+02  0.18846934124E+02 -0.25053181832E+01  0.24323929689E+02  0.51100000000E-03 0. -1.
        -11    1    4    4    0    0 -0.37137855172E+01 -0.29200048873E+01 -0.43810994402E+01  0.64430322036E+01  0.51100000000E-03 0.  1.
        -12    1    4    4    0    0 -0.10696062878E+02  0.20734886876E+02  0.35531262931E+01  0.23600127147E+02  0.00000000000E+00 0.  1.
</event>
<event>
 8    1  0.2531964E-006  0.9118800E+02  0.7816164E-02  0.1184000E+00
        -11   -1    0    0    0    0  0.00000000000E+00  0.00000000000E+00  0.45593999997E+02  0.45594000000E+02  0.51100000000E-03 0.  1.
         11   -1    0    0    0    0 -0.00000000000E+00 -0.00000000000E+00 -0.45593999997E+02  0.45594000000E+02  0.51100000000E-03 0. -1.
         23    2    1    2    0    0  0.00000000000E+00 -0.17763568394E-14  0.44408920985E-15  0.91188000000E+02  0.91188000000E+02 0.  0.
    9900012    2    3    3    0    0 -0.34861175773E+02 -0.11202623304E+02 -0.38703968799E+01  0.54367077725E+02  0.39999985290E+02 0.  0.
         12    1    3    3    0    0  0.34861175773E+02  0.11202623304E+02  0.38703968799E+01  0.36820922275E+02  0.00000000000E+00 0. -1.
         11    1    4    4    0    0  0.26107800538E+01  0.94383888831E+01  0.28851947323E+01  0.10209001229E+02  0.51100000000E-03 0. -1.
        -11    1    4    4    0    0 -0.11187962892E+02 -0.55328719576E+01 -0.59590376766E+01  0.13830882693E+02  0.51100000000E-03 0.  1.
         12    1    4    4    0    0 -0.26283992935E+02 -0.15108140230E+02 -0.79655393566E+00  0.30327193803E+02  0.00000000000E+00 0. -1.
</event>
<event>
 8    1  0.2531964E-006  0.9118800E+02  0.7816164E-02  0.1184000E+00
        -11   -1    0    0    0    0  0.00000000000E+00  0.00000000000E+00  0.45593999997E+02  0.45594000000E+02  0.51100000000E-03 0. -1.
         11   -1    0    0    0    0 -0.00000000000E+00 -0.00000000000E+00 -0.45593999997E+02  0.45594000000E+02  0.51100000000E-03 0.  1.
         23    2    1    2    0    0  0.35527136788E-14  0.17763568394E-14  0.00000000000E+00  0.91188000000E+02  0.91188000000E+02 0.  0.
    9900012    2    3    3    0    0  0.25927749127E+02  0.65571600050E+01 -0.25308777238E+02  0.54367099312E+02  0.40000034502E+02 0.  0.
         12    1    3    3    0    0 -0.25927749127E+02 -0.65571600050E+01  0.25308777238E+02  0.36820900688E+02  0.00000000000E+00 0. -1.
         11    1    4    4    0    0  0.34963480534E+01 -0.38723128832E+00 -0.30606275578E+00  0.35310157820E+01  0.51100000000E-03 0.  1.
        -11    1    4    4    0    0  0.22243959636E+02 -0.10745896010E+02 -0.71849843051E+01  0.25727262215E+02  0.51100000000E-03 0. -1.
        -12    1    4    4    0    0  0.18744143767E+00  0.17690287303E+02 -0.17817730178E+02  0.25108821315E+02  0.00000000000E+00 0.  1.
</event>
<event>
 8    1  0.2531964E-006  0.9118800E+02  0.7816164E-02  0.1184000E+00
        -11   -1    0    0    0    0  0.00000000000E+00  0.00000000000E+00  0.45593999997E+02  0.45594000000E+02  0.51100000000E-03 0.  1.
         11   -1    0    0    0    0 -0.00000000000E+00 -0.00000000000E+00 -0.45593999997E+02  0.45594000000E+02  0.51100000000E-03 0. -1.
         23    2    1    2    0    0  0.00000000000E+00 -0.17763568394E-14  0.35527136788E-14  0.91188000000E+02  0.91188000000E+02 0.  0.
    9900012    2    3    3    0    0  0.23892939328E+02  0.15924895507E+02  0.23050023129E+02  0.54367103584E+02  0.40000044240E+02 0.  0.
         12    1    3    3    0    0 -0.23892939328E+02 -0.15924895507E+02 -0.23050023129E+02  0.36820896416E+02  0.00000000000E+00 0. -1.
         11    1    4    4    0    0 -0.29570797758E+01  0.10176858841E+02  0.97976462367E+01  0.14432832317E+02  0.51100000000E-03 0. -1.
        -11    1    4    4    0    0  0.30091274093E+02  0.10529444686E+02  0.11614534533E+02  0.33930095707E+02  0.51100000000E-03 0.  1.
        -12    1    4    4    0    0 -0.32412549900E+01 -0.47814080197E+01  0.16378423591E+01  0.60041755599E+01  0.00000000000E+00 0.  1.
</event>
<event>
 8    1  0.2531964E-006  0.9118800E+02  0.7816164E-02  0.1184000E+00
        -11   -1    0    0    0    0  0.00000000000E+00  0.00000000000E+00  0.45593999997E+02  0.45594000000E+02  0.51100000000E-03 0.  1.
         11   -1    0    0    0    0 -0.00000000000E+00 -0.00000000000E+00 -0.45593999997E+02  0.45594000000E+02  0.51100000000E-03 0. -1.
         23    2    1    2    0    0 -0.71054273576E-14  0.17763568394E-14  0.00000000000E+00  0.91188000000E+02  0.91188000000E+02 0.  0.
    9900012    2    3    3    0    0  0.34031207026E+02  0.11224913777E+02  0.84651623145E+01  0.54367072337E+02  0.39999973008E+02 0.  0.
        -12    1    3    3    0    0 -0.34031207026E+02 -0.11224913777E+02 -0.84651623145E+01  0.36820927663E+02  0.00000000000E+00 0.  1.
         11    1    4    4    0    0  0.14293165733E+02  0.35628764929E+01 -0.96140141421E+01  0.17590279809E+02  0.51100000000E-03 0. -1.
        -11    1    4    4    0    0  0.14531476484E+02  0.14831665293E+02  0.18633311987E+02  0.27898788863E+02  0.51100000000E-03 0.  1.
         12    1    4    4    0    0  0.52065648080E+01 -0.71696280089E+01 -0.55413553030E+00  0.88780036647E+01  0.00000000000E+00 0. -1.
</event>
<event>
 8    1  0.2531964E-006  0.9118800E+02  0.7816164E-02  0.1184000E+00
        -11   -1    0    0    0    0  0.00000000000E+00  0.00000000000E+00  0.45593999997E+02  0.45594000000E+02  0.51100000000E-03 0.  1.
         11   -1    0    0    0    0 -0.00000000000E+00 -0.00000000000E+00 -0.45593999997E+02  0.45594000000E+02  0.51100000000E-03 0. -1.
         23    2    1    2    0    0  0.00000000000E+00 -0.17763568394E-14  0.35527136788E-14  0.91188000000E+02  0.91188000000E+02 0.  0.
    9900012    2    3    3    0    0  0.22011892740E+02 -0.11670750576E+02 -0.27111819989E+02  0.54367073558E+02  0.39999975789E+02 0.  0.
        -12    1    3    3    0    0 -0.22011892740E+02  0.11670750576E+02  0.27111819989E+02  0.36820926442E+02  0.00000000000E+00 0.  1.
         11    1    4    4    0    0  0.31452627334E+01  0.12468798007E+01 -0.24108249124E+02  0.24344507861E+02  0.51100000000E-03 0. -1.
        -11    1    4    4    0    0  0.13118360778E+01 -0.11502837448E+02  0.19201150666E+01  0.11735545380E+02  0.51100000000E-03 0.  1.
         12    1    4    4    0    0  0.17554793929E+02 -0.14147929285E+01 -0.49236859315E+01  0.18287020317E+02  0.00000000000E+00 0. -1.
</event>
<event>
 8    1  0.2531964E-006  0.9118800E+02  0.7816164E-02  0.1184000E+00
        -11   -1    0    0    0    0  0.00000000000E+00  0.00000000000E+00  0.45593999997E+02  0.45594000000E+02  0.51100000000E-03 0. -1.
         11   -1    0    0    0    0 -0.00000000000E+00 -0.00000000000E+00 -0.45593999997E+02  0.45594000000E+02  0.51100000000E-03 0.  1.
         23    2    1    2    0    0  0.35527136788E-14 -0.35527136788E-14 -0.17763568394E-14  0.91188000000E+02  0.91188000000E+02 0.  0.
    9900012    2    3    3    0    0  0.23964336501E+02  0.24703382000E+02 -0.13085661605E+02  0.54367067831E+02  0.39999962734E+02 0.  0.
        -12    1    3    3    0    0 -0.23964336501E+02 -0.24703382000E+02  0.13085661605E+02  0.36820932169E+02  0.00000000000E+00 0.  1.
         11    1    4    4    0    0 -0.37446074876E+01  0.39431308342E+01  0.30566927359E+01  0.62380875879E+01  0.51100000000E-03 0. -1.
        -11    1    4    4    0    0  0.25656665266E+01  0.13864676053E+02  0.45798155571E+01  0.14825201434E+02  0.51100000000E-03 0.  1.
         12    1    4    4    0    0  0.25143277462E+02  0.68955751136E+01 -0.20722169898E+02  0.33303778809E+02  0.00000000000E+00 0. -1.
</event>
<event>
 8    1  0.2531964E-006  0.9118800E+02  0.7816164E-02  0.1184000E+00
        -11   -1    0    0    0    0  0.00000000000E+00  0.00000000000E+00  0.45593999997E+02  0.45594000000E+02  0.51100000000E-03 0.  1.
         11   -1    0    0    0    0 -0.00000000000E+00 -0.00000000000E+00 -0.45593999997E+02  0.45594000000E+02  0.51100000000E-03 0. -1.
         23    2    1    2    0    0  0.00000000000E+00 -0.35527136788E-14  0.35527136788E-14  0.91188000000E+02  0.91188000000E+02 0.  0.
    9900012    2    3    3    0    0  0.15067075236E+02 -0.28259217364E+02  0.18170859774E+02  0.54367078404E+02  0.39999986839E+02 0.  0.
         12    1    3    3    0    0 -0.15067075236E+02  0.28259217364E+02 -0.18170859774E+02  0.36820921596E+02  0.00000000000E+00 0. -1.
         11    1    4    4    0    0  0.96797233196E+01  0.89079304767E+00  0.83307055164E+01  0.12802000252E+02  0.51100000000E-03 0.  1.
        -11    1    4    4    0    0  0.93023071293E+01  0.15534520078E+01  0.23684792635E+01  0.97239819699E+01  0.51100000000E-03 0. -1.
         12    1    4    4    0    0 -0.39149552126E+01 -0.30703462420E+02  0.74716749943E+01  0.31841096182E+02  0.00000000000E+00 0. -1.
</event>
<event>
 8    1  0.2531964E-006  0.9118800E+02  0.7816164E-02  0.1184000E+00
        -11   -1    0    0    0    0  0.00000000000E+00  0.00000000000E+00  0.45593999997E+02  0.45594000000E+02  0.51100000000E-03 0.  1.
         11   -1    0    0    0    0 -0.00000000000E+00 -0.00000000000E+00 -0.45593999997E+02  0.45594000000E+02  0.51100000000E-03 0. -1.
         23    2    1    2    0    0 -0.35527136788E-14 -0.35527136788E-14  0.00000000000E+00  0.91188000000E+02  0.91188000000E+02 0.  0.
    9900012    2    3    3    0    0  0.21994468147E+02  0.25061662100E+02 -0.15618504987E+02  0.54367065271E+02  0.39999956898E+02 0.  0.
        -12    1    3    3    0    0 -0.21994468147E+02 -0.25061662100E+02  0.15618504987E+02  0.36820934729E+02  0.00000000000E+00 0.  1.
         11    1    4    4    0    0  0.17354315280E+02  0.15819978106E+02 -0.10523486099E+02  0.25733008492E+02  0.51100000000E-03 0. -1.
        -11    1    4    4    0    0  0.97801761927E+01  0.16497425776E+02 -0.23152650397E+01  0.19317798945E+02  0.51100000000E-03 0.  1.
        -12    1    4    4    0    0 -0.51400233251E+01 -0.72557417817E+01 -0.27797538480E+01  0.93162578346E+01  0.00000000000E+00 0.  1.
</event>
<event>
 8    1  0.2531964E-006  0.9118800E+02  0.7816164E-02  0.1184000E+00
        -11   -1    0    0    0    0  0.00000000000E+00  0.00000000000E+00  0.45593999997E+02  0.45594000000E+02  0.51100000000E-03 0. -1.
         11   -1    0    0    0    0 -0.00000000000E+00 -0.00000000000E+00 -0.45593999997E+02  0.45594000000E+02  0.51100000000E-03 0.  1.
         23    2    1    2    0    0  0.00000000000E+00  0.00000000000E+00  0.00000000000E+00  0.91188000000E+02  0.91188000000E+02 0.  0.
    9900012    2    3    3    0    0  0.11567139754E+02 -0.34950937707E+02  0.64902301324E+00  0.54366973404E+02  0.39999747469E+02 0.  0.
        -12    1    3    3    0    0 -0.11567139754E+02  0.34950937707E+02 -0.64902301324E+00  0.36821026596E+02  0.00000000000E+00 0.  1.
         11    1    4    4    0    0  0.11865100880E+02 -0.65425508206E+01 -0.14616880981E+01  0.13627990406E+02  0.51100000000E-03 0. -1.
        -11    1    4    4    0    0  0.99174111276E+01 -0.28076500174E+02 -0.17144015053E+01  0.29825896102E+02  0.51100000000E-03 0.  1.
         12    1    4    4    0    0 -0.10215372254E+02 -0.33188671201E+00  0.38251126166E+01  0.10913086896E+02  0.00000000000E+00 0. -1.
</event>
<event>
 8    1  0.2531964E-006  0.9118800E+02  0.7816164E-02  0.1184000E+00
        -11   -1    0    0    0    0  0.00000000000E+00  0.00000000000E+00  0.45593999997E+02  0.45594000000E+02  0.51100000000E-03 0.  1.
         11   -1    0    0    0    0 -0.00000000000E+00 -0.00000000000E+00 -0.45593999997E+02  0.45594000000E+02  0.51100000000E-03 0. -1.
         23    2    1    2    0    0  0.35527136788E-14 -0.35527136788E-14  0.00000000000E+00  0.91188000000E+02  0.91188000000E+02 0.  0.
    9900012    2    3    3    0    0  0.25735306189E+02 -0.23975065708E+02 -0.10893546992E+02  0.54367093895E+02  0.40000022152E+02 0.  0.
        -12    1    3    3    0    0 -0.25735306189E+02  0.23975065708E+02  0.10893546992E+02  0.36820906105E+02  0.00000000000E+00 0.  1.
         11    1    4    4    0    0  0.11894229627E+02  0.23757422241E+01 -0.95028999338E+01  0.15408502749E+02  0.51100000000E-03 0. -1.
        -11    1    4    4    0    0  0.12335796861E+02 -0.63075791321E+00  0.32675736960E+01  0.12776806247E+02  0.51100000000E-03 0.  1.
        -12    1    4    4    0    0  0.15052797012E+01 -0.25720050019E+02 -0.46582207537E+01  0.26181784900E+02  0.00000000000E+00 0.  1.
</event>
<event>
 8    1  0.2531964E-006  0.9118800E+02  0.7816164E-02  0.1184000E+00
        -11   -1    0    0    0    0  0.00000000000E+00  0.00000000000E+00  0.45593999997E+02  0.45594000000E+02  0.51100000000E-03 0. -1.
         11   -1    0    0    0    0 -0.00000000000E+00 -0.00000000000E+00 -0.45593999997E+02  0.45594000000E+02  0.51100000000E-03 0.  1.
         23    2    1    2    0    0 -0.35527136788E-14 -0.88817841970E-15 -0.35527136788E-14  0.91188000000E+02  0.91188000000E+02 0.  0.
    9900012    2    3    3    0    0  0.27848231499E+02  0.58028443846E+01 -0.23379120488E+02  0.54367078292E+02  0.39999986583E+02 0.  0.
         12    1    3    3    0    0 -0.27848231499E+02 -0.58028443846E+01  0.23379120488E+02  0.36820921708E+02  0.00000000000E+00 0. -1.
         11    1    4    4    0    0  0.64034921629E+01  0.99677822855E+01 -0.16865500005E+02  0.20610834196E+02  0.51100000000E-03 0. -1.
        -11    1    4    4    0    0  0.10497321747E+02  0.47237919016E+00 -0.15588557048E+02  0.18799468531E+02  0.51100000000E-03 0.  1.
         12    1    4    4    0    0  0.10947417590E+02 -0.46373170911E+01  0.90749365641E+01  0.14956775566E+02  0.00000000000E+00 0. -1.
</event>
<event>
 8    1  0.2531964E-006  0.9118800E+02  0.7816164E-02  0.1184000E+00
        -11   -1    0    0    0    0  0.00000000000E+00  0.00000000000E+00  0.45593999997E+02  0.45594000000E+02  0.51100000000E-03 0.  1.
         11   -1    0    0    0    0 -0.00000000000E+00 -0.00000000000E+00 -0.45593999997E+02  0.45594000000E+02  0.51100000000E-03 0. -1.
         23    2    1    2    0    0  0.35527136788E-14 -0.35527136788E-14  0.00000000000E+00  0.91188000000E+02  0.91188000000E+02 0.  0.
    9900012    2    3    3    0    0 -0.23746964937E+02 -0.19895340829E+02 -0.19900677697E+02  0.54367083346E+02  0.39999998105E+02 0.  0.
        -12    1    3    3    0    0  0.23746964937E+02  0.19895340829E+02  0.19900677697E+02  0.36820916654E+02  0.00000000000E+00 0.  1.
         11    1    4    4    0    0 -0.42780208952E+01  0.65058640397E+01 -0.12427580414E+00  0.77873727546E+01  0.51100000000E-03 0. -1.
        -11    1    4    4    0    0 -0.11448906622E+02 -0.49825301876E+01  0.44572074872E+01  0.13257819156E+02  0.51100000000E-03 0.  1.
         12    1    4    4    0    0 -0.80200374193E+01 -0.21418674681E+02 -0.24233609380E+02  0.33321891436E+02  0.00000000000E+00 0. -1.
</event>
<event>
 8    1  0.2531964E-006  0.9118800E+02  0.7816164E-02  0.1184000E+00
        -11   -1    0    0    0    0  0.00000000000E+00  0.00000000000E+00  0.45593999997E+02  0.45594000000E+02  0.51100000000E-03 0.  1.
         11   -1    0    0    0    0 -0.00000000000E+00 -0.00000000000E+00 -0.45593999997E+02  0.45594000000E+02  0.51100000000E-03 0. -1.
         23    2    1    2    0    0 -0.88817841970E-15  0.00000000000E+00  0.00000000000E+00  0.91188000000E+02  0.91188000000E+02 0.  0.
    9900012    2    3    3    0    0  0.31201195069E+01  0.59074456190E+01 -0.36209767891E+02  0.54367077276E+02  0.39999984267E+02 0.  0.
        -12    1    3    3    0    0 -0.31201195069E+01 -0.59074456190E+01  0.36209767891E+02  0.36820922724E+02  0.00000000000E+00 0.  1.
         11    1    4    4    0    0  0.10739252380E+02 -0.83707612927E+01 -0.83158166804E+01  0.15954748310E+02  0.51100000000E-03 0.  1.
        -11    1    4    4    0    0  0.39531745509E+01 -0.27755341946E+01 -0.10053884047E+02  0.11154002142E+02  0.51100000000E-03 0. -1.
        -12    1    4    4    0    0 -0.11572307424E+02  0.17053741106E+02 -0.17840067164E+02  0.27258326824E+02  0.00000000000E+00 0.  1.
</event>
<event>
 8    1  0.2531964E-006  0.9118800E+02  0.7816164E-02  0.1184000E+00
        -11   -1    0    0    0    0  0.00000000000E+00  0.00000000000E+00  0.45593999997E+02  0.45594000000E+02  0.51100000000E-03 0.  1.
         11   -1    0    0    0    0 -0.00000000000E+00 -0.00000000000E+00 -0.45593999997E+02  0.45594000000E+02  0.51100000000E-03 0. -1.
         23    2    1    2    0    0  0.00000000000E+00  0.77715611724E-15  0.00000000000E+00  0.91188000000E+02  0.91188000000E+02 0.  0.
    9900012    2    3    3    0    0 -0.27465053184E+02  0.59170625604E+00  0.24517255467E+02  0.54367148865E+02  0.40000147468E+02 0.  0.
         12    1    3    3    0    0  0.27465053184E+02 -0.59170625604E+00 -0.24517255467E+02  0.36820851135E+02  0.00000000000E+00 0. -1.
         11    1    4    4    0    0  0.15285615177E+01 -0.64334739653E+01  0.39800620271E+01  0.77179648598E+01  0.51100000000E-03 0. -1.
        -11    1    4    4    0    0 -0.58794444014E+00 -0.63043903341E+01  0.12877738093E+02  0.14350162188E+02  0.51100000000E-03 0.  1.
        -12    1    4    4    0    0 -0.28405670261E+02  0.13329570556E+02  0.76594553463E+01  0.32299021818E+02  0.00000000000E+00 0.  1.
</event>
<event>
 8    1  0.2531964E-006  0.9118800E+02  0.7816164E-02  0.1184000E+00
        -11   -1    0    0    0    0  0.00000000000E+00  0.00000000000E+00  0.45593999997E+02  0.45594000000E+02  0.51100000000E-03 0.  1.
         11   -1    0    0    0    0 -0.00000000000E+00 -0.00000000000E+00 -0.45593999997E+02  0.45594000000E+02  0.51100000000E-03 0. -1.
         23    2    1    2    0    0  0.35527136788E-14 -0.71054273576E-14 -0.22204460493E-15  0.91188000000E+02  0.91188000000E+02 0.  0.
    9900012    2    3    3    0    0  0.18044856047E+02  0.32086652801E+02  0.78090685489E+00  0.54367082938E+02  0.39999997174E+02 0.  0.
         12    1    3    3    0    0 -0.18044856047E+02 -0.32086652801E+02 -0.78090685489E+00  0.36820917062E+02  0.00000000000E+00 0. -1.
         11    1    4    4    0    0 -0.68488862344E+01  0.91768056448E+01 -0.12094954288E+02  0.16655597377E+02  0.51100000000E-03 0. -1.
        -11    1    4    4    0    0  0.25056834129E+01  0.56274002973E+01 -0.94573050933E+00  0.62322138867E+01  0.51100000000E-03 0.  1.
        -12    1    4    4    0    0  0.22388058869E+02  0.17282446859E+02  0.13821591652E+02  0.31479271674E+02  0.00000000000E+00 0.  1.
</event>
<event>
 8    1  0.2531964E-006  0.9118800E+02  0.7816164E-02  0.1184000E+00
        -11   -1    0    0    0    0  0.00000000000E+00  0.00000000000E+00  0.45593999997E+02  0.45594000000E+02  0.51100000000E-03 0.  1.
         11   -1    0    0    0    0 -0.00000000000E+00 -0.00000000000E+00 -0.45593999997E+02  0.45594000000E+02  0.51100000000E-03 0. -1.
         23    2    1    2    0    0 -0.17763568394E-14 -0.35527136788E-14  0.10658141036E-13  0.91188000000E+02  0.91188000000E+02 0.  0.
    9900012    2    3    3    0    0  0.11799898656E+02  0.16833963183E+02 -0.30547684647E+02  0.54367068969E+02  0.39999965328E+02 0.  0.
        -12    1    3    3    0    0 -0.11799898656E+02 -0.16833963183E+02  0.30547684647E+02  0.36820931031E+02  0.00000000000E+00 0.  1.
         11    1    4    4    0    0  0.91209940745E+01 -0.77053663929E+00 -0.60879025498E+01  0.10993125913E+02  0.51100000000E-03 0. -1.
        -11    1    4    4    0    0 -0.96993544213E+01  0.63115480799E+01  0.23026517430E+01  0.11798954219E+02  0.51100000000E-03 0.  1.
        -12    1    4    4    0    0  0.12378259003E+02  0.11292951742E+02 -0.26762433840E+02  0.31574988837E+02  0.00000000000E+00 0.  1.
</event>
<event>
 8    1  0.2531964E-006  0.9118800E+02  0.7816164E-02  0.1184000E+00
        -11   -1    0    0    0    0  0.00000000000E+00  0.00000000000E+00  0.45593999997E+02  0.45594000000E+02  0.51100000000E-03 0.  1.
         11   -1    0    0    0    0 -0.00000000000E+00 -0.00000000000E+00 -0.45593999997E+02  0.45594000000E+02  0.51100000000E-03 0. -1.
         23    2    1    2    0    0  0.00000000000E+00 -0.12212453271E-14  0.17763568394E-14  0.91188000000E+02  0.91188000000E+02 0.  0.
    9900012    2    3    3    0    0  0.36481687900E+02 -0.40120037700E+00 -0.49704252307E+01  0.54367086910E+02  0.40000006230E+02 0.  0.
        -12    1    3    3    0    0 -0.36481687900E+02  0.40120037700E+00  0.49704252307E+01  0.36820913090E+02  0.00000000000E+00 0.  1.
         11    1    4    4    0    0  0.29364458207E+02 -0.16212740224E+02 -0.93623147315E+01  0.34824952099E+02  0.51100000000E-03 0. -1.
        -11    1    4    4    0    0  0.36007987545E+01  0.55102007251E+01  0.55310453197E+01  0.85977047106E+01  0.51100000000E-03 0.  1.
         12    1    4    4    0    0  0.35164309388E+01  0.10301339122E+02 -0.11391558190E+01  0.10944430100E+02  0.00000000000E+00 0. -1.
</event>
<event>
 8    1  0.2531964E-006  0.9118800E+02  0.7816164E-02  0.1184000E+00
        -11   -1    0    0    0    0  0.00000000000E+00  0.00000000000E+00  0.45593999997E+02  0.45594000000E+02  0.51100000000E-03 0.  1.
         11   -1    0    0    0    0 -0.00000000000E+00 -0.00000000000E+00 -0.45593999997E+02  0.45594000000E+02  0.51100000000E-03 0. -1.
         23    2    1    2    0    0  0.00000000000E+00  0.00000000000E+00  0.00000000000E+00  0.91188000000E+02  0.91188000000E+02 0.  0.
    9900012    2    3    3    0    0 -0.22771650036E+02 -0.95851969627E+01  0.27301207701E+02  0.54367082193E+02  0.39999995476E+02 0.  0.
         12    1    3    3    0    0  0.22771650036E+02  0.95851969627E+01 -0.27301207701E+02  0.36820917807E+02  0.00000000000E+00 0. -1.
         11    1    4    4    0    0 -0.15215030863E+02  0.21593170316E+01  0.46290730407E+01  0.16049552382E+02  0.51100000000E-03 0. -1.
        -11    1    4    4    0    0 -0.34169825731E+01 -0.17670713532E+02  0.42004459152E+01  0.18481710765E+02  0.51100000000E-03 0.  1.
         12    1    4    4    0    0 -0.41396366007E+01  0.59261995379E+01  0.18471688745E+02  0.19835819046E+02  0.00000000000E+00 0. -1.
</event>
<event>
 8    1  0.2531964E-006  0.9118800E+02  0.7816164E-02  0.1184000E+00
        -11   -1    0    0    0    0  0.00000000000E+00  0.00000000000E+00  0.45593999997E+02  0.45594000000E+02  0.51100000000E-03 0. -1.
         11   -1    0    0    0    0 -0.00000000000E+00 -0.00000000000E+00 -0.45593999997E+02  0.45594000000E+02  0.51100000000E-03 0.  1.
         23    2    1    2    0    0  0.00000000000E+00  0.00000000000E+00  0.53290705182E-14  0.91188000000E+02  0.91188000000E+02 0.  0.
    9900012    2    3    3    0    0  0.15118066284E+02 -0.32385265884E+02 -0.88554126636E+01  0.54367085997E+02  0.40000004147E+02 0.  0.
         12    1    3    3    0    0 -0.15118066284E+02  0.32385265884E+02  0.88554126636E+01  0.36820914003E+02  0.00000000000E+00 0. -1.
         11    1    4    4    0    0  0.51377839416E+01 -0.22060887051E+02  0.14074300718E+01  0.22694942630E+02  0.51100000000E-03 0. -1.
        -11    1    4    4    0    0  0.47198661244E+01 -0.13197188836E+02  0.53082178999E+01  0.14987331549E+02  0.51100000000E-03 0.  1.
        -12    1    4    4    0    0  0.52604162185E+01  0.28728100027E+01 -0.15571060635E+02  0.16684811818E+02  0.00000000000E+00 0.  1.
</event>
<event>
 8    1  0.2531964E-006  0.9118800E+02  0.7816164E-02  0.1184000E+00
        -11   -1    0    0    0    0  0.00000000000E+00  0.00000000000E+00  0.45593999997E+02  0.45594000000E+02  0.51100000000E-03 0. -1.
         11   -1    0    0    0    0 -0.00000000000E+00 -0.00000000000E+00 -0.45593999997E+02  0.45594000000E+02  0.51100000000E-03 0.  1.
         23    2    1    2    0    0  0.44408920985E-15 -0.35527136788E-14 -0.71054273576E-14  0.91188000000E+02  0.91188000000E+02 0.  0.
    9900012    2    3    3    0    0  0.30736412640E+01  0.19079820162E+02  0.31341560248E+02  0.54367079224E+02  0.39999988706E+02 0.  0.
        -12    1    3    3    0    0 -0.30736412640E+01 -0.19079820162E+02 -0.31341560248E+02  0.36820920776E+02  0.00000000000E+00 0.  1.
         11    1    4    4    0    0  0.10364240681E+02  0.20542181023E+02  0.61679642492E+01  0.23821050970E+02  0.51100000000E-03 0. -1.
        -11    1    4    4    0    0  0.36907006598E+01  0.36481882139E+01  0.75330544780E+01  0.91475383920E+01  0.51100000000E-03 0.  1.
        -12    1    4    4    0    0 -0.10981300077E+02 -0.51105490746E+01  0.17640541521E+02  0.21398489862E+02  0.00000000000E+00 0.  1.
</event>
<event>
 8    1  0.2531964E-006  0.9118800E+02  0.7816164E-02  0.1184000E+00
        -11   -1    0    0    0    0  0.00000000000E+00  0.00000000000E+00  0.45593999997E+02  0.45594000000E+02  0.51100000000E-03 0. -1.
         11   -1    0    0    0    0 -0.00000000000E+00 -0.00000000000E+00 -0.45593999997E+02  0.45594000000E+02  0.51100000000E-03 0.  1.
         23    2    1    2    0    0  0.35527136788E-14  0.88817841970E-15 -0.35527136788E-14  0.91188000000E+02  0.91188000000E+02 0.  0.
    9900012    2    3    3    0    0 -0.28401941748E+02 -0.35289751089E+01  0.23165787733E+02  0.54367113513E+02  0.40000066875E+02 0.  0.
        -12    1    3    3    0    0  0.28401941748E+02  0.35289751089E+01 -0.23165787733E+02  0.36820886487E+02  0.00000000000E+00 0.  1.
         11    1    4    4    0    0  0.35481103597E+01 -0.67437647455E+00  0.50377813353E+01  0.61986378985E+01  0.51100000000E-03 0. -1.
        -11    1    4    4    0    0  0.11581217059E+01  0.92877401518E+01  0.35797712394E+01  0.10020884462E+02  0.51100000000E-03 0.  1.
         12    1    4    4    0    0 -0.33108173814E+02 -0.12142338786E+02  0.14548235159E+02  0.38147591152E+02  0.00000000000E+00 0. -1.
</event>
<event>
 8    1  0.2531964E-006  0.9118800E+02  0.7816164E-02  0.1184000E+00
        -11   -1    0    0    0    0  0.00000000000E+00  0.00000000000E+00  0.45593999997E+02  0.45594000000E+02  0.51100000000E-03 0. -1.
         11   -1    0    0    0    0 -0.00000000000E+00 -0.00000000000E+00 -0.45593999997E+02  0.45594000000E+02  0.51100000000E-03 0.  1.
         23    2    1    2    0    0 -0.35527136788E-14  0.17763568394E-14  0.00000000000E+00  0.91188000000E+02  0.91188000000E+02 0.  0.
    9900012    2    3    3    0    0 -0.30730037309E+02  0.10827240587E+02  0.17152685994E+02  0.54367096039E+02  0.40000027039E+02 0.  0.
        -12    1    3    3    0    0  0.30730037309E+02 -0.10827240587E+02 -0.17152685994E+02  0.36820903961E+02  0.00000000000E+00 0.  1.
         11    1    4    4    0    0 -0.20229161253E+02  0.17577178149E+01  0.14100387699E+02  0.24721032957E+02  0.51100000000E-03 0. -1.
        -11    1    4    4    0    0 -0.17014091067E+01  0.17330558047E+02  0.20721219280E+01  0.17536725028E+02  0.51100000000E-03 0.  1.
        -12    1    4    4    0    0 -0.87994669485E+01 -0.82610352747E+01  0.98017636786E+00  0.12109338054E+02  0.00000000000E+00 0.  1.
</event>
<event>
 8    1  0.2531964E-006  0.9118800E+02  0.7816164E-02  0.1184000E+00
        -11   -1    0    0    0    0  0.00000000000E+00  0.00000000000E+00  0.45593999997E+02  0.45594000000E+02  0.51100000000E-03 0.  1.
         11   -1    0    0    0    0 -0.00000000000E+00 -0.00000000000E+00 -0.45593999997E+02  0.45594000000E+02  0.51100000000E-03 0. -1.
         23    2    1    2    0    0 -0.22204460493E-15  0.35527136788E-14 -0.71054273576E-14  0.91188000000E+02  0.91188000000E+02 0.  0.
    9900012    2    3    3    0    0 -0.12098357282E+01  0.16719027083E+02 -0.32783998192E+02  0.54367080585E+02  0.39999991809E+02 0.  0.
        -12    1    3    3    0    0  0.12098357282E+01 -0.16719027083E+02  0.32783998192E+02  0.36820919415E+02  0.00000000000E+00 0.  1.
         11    1    4    4    0    0 -0.96336446057E+01  0.18393580985E+02 -0.19765168881E+02  0.28666929222E+02  0.51100000000E-03 0. -1.
        -11    1    4    4    0    0  0.16746138651E+01 -0.73994751441E+01  0.23697652246E+01  0.79481036408E+01  0.51100000000E-03 0.  1.
        -12    1    4    4    0    0  0.67491950125E+01  0.57249212423E+01 -0.15388594536E+02  0.17752047722E+02  0.00000000000E+00 0.  1.
</event>
<event>
 8    1  0.2531964E-006  0.9118800E+02  0.7816164E-02  0.1184000E+00
        -11   -1    0    0    0    0  0.00000000000E+00  0.00000000000E+00  0.45593999997E+02  0.45594000000E+02  0.51100000000E-03 0.  1.
         11   -1    0    0    0    0 -0.00000000000E+00 -0.00000000000E+00 -0.45593999997E+02  0.45594000000E+02  0.51100000000E-03 0. -1.
         23    2    1    2    0    0  0.00000000000E+00 -0.71054273576E-14 -0.88817841970E-15  0.91188000000E+02  0.91188000000E+02 0.  0.
    9900012    2    3    3    0    0  0.79056008350E+01 -0.35569962249E+02 -0.52969920844E+01  0.54367097457E+02  0.40000030272E+02 0.  0.
         12    1    3    3    0    0 -0.79056008350E+01  0.35569962249E+02  0.52969920844E+01  0.36820902543E+02  0.00000000000E+00 0. -1.
         11    1    4    4    0    0  0.13493546093E+01 -0.54470363491E+01  0.11465448258E+02  0.12765087813E+02  0.51100000000E-03 0. -1.
        -11    1    4    4    0    0  0.58177020693E+01 -0.25179584068E+02 -0.18897676897E+01  0.25911934189E+02  0.51100000000E-03 0.  1.
         12    1    4    4    0    0  0.73854415644E+00 -0.49433418316E+01 -0.14872672653E+02  0.15690075455E+02  0.00000000000E+00 0. -1.
</event>
<event>
 8    1  0.2531964E-006  0.9118800E+02  0.7816164E-02  0.1184000E+00
        -11   -1    0    0    0    0  0.00000000000E+00  0.00000000000E+00  0.45593999997E+02  0.45594000000E+02  0.51100000000E-03 0. -1.
         11   -1    0    0    0    0 -0.00000000000E+00 -0.00000000000E+00 -0.45593999997E+02  0.45594000000E+02  0.51100000000E-03 0.  1.
         23    2    1    2    0    0 -0.17763568394E-14  0.35527136788E-14  0.00000000000E+00  0.91188000000E+02  0.91188000000E+02 0.  0.
    9900012    2    3    3    0    0  0.12741952812E+02 -0.16214220117E+02  0.30504460120E+02  0.54367076836E+02  0.39999983263E+02 0.  0.
        -12    1    3    3    0    0 -0.12741952812E+02  0.16214220117E+02 -0.30504460120E+02  0.36820923164E+02  0.00000000000E+00 0.  1.
         11    1    4    4    0    0  0.18082069789E+02 -0.19360248653E+02  0.11114821096E+02  0.28728378374E+02  0.51100000000E-03 0. -1.
        -11    1    4    4    0    0 -0.59453163764E+01  0.76086373743E+01  0.56672971051E+01  0.11196267514E+02  0.51100000000E-03 0.  1.
         12    1    4    4    0    0  0.60519939960E+00 -0.44626088380E+01  0.13722341919E+02  0.14442430948E+02  0.00000000000E+00 0. -1.
</event>
<event>
 8    1  0.2531964E-006  0.9118800E+02  0.7816164E-02  0.1184000E+00
        -11   -1    0    0    0    0  0.00000000000E+00  0.00000000000E+00  0.45593999997E+02  0.45594000000E+02  0.51100000000E-03 0.  1.
         11   -1    0    0    0    0 -0.00000000000E+00 -0.00000000000E+00 -0.45593999997E+02  0.45594000000E+02  0.51100000000E-03 0. -1.
         23    2    1    2    0    0 -0.17763568394E-14  0.00000000000E+00 -0.35527136788E-14  0.91188000000E+02  0.91188000000E+02 0.  0.
    9900012    2    3    3    0    0  0.12541952158E+02 -0.20845065865E+02  0.27639884612E+02  0.54367074479E+02  0.39999977890E+02 0.  0.
         12    1    3    3    0    0 -0.12541952158E+02  0.20845065865E+02 -0.27639884612E+02  0.36820925521E+02  0.00000000000E+00 0. -1.
         11    1    4    4    0    0  0.22800571087E+02 -0.97191573530E+01  0.26513729333E+02  0.36294709049E+02  0.51100000000E-03 0. -1.
        -11    1    4    4    0    0 -0.25041707242E+01 -0.81928263109E+01  0.37849343845E+01  0.93658423290E+01  0.51100000000E-03 0.  1.
         12    1    4    4    0    0 -0.77544482054E+01 -0.29330822009E+01 -0.26587791056E+01  0.87065231005E+01  0.00000000000E+00 0. -1.
</event>
<event>
 8    1  0.2531964E-006  0.9118800E+02  0.7816164E-02  0.1184000E+00
        -11   -1    0    0    0    0  0.00000000000E+00  0.00000000000E+00  0.45593999997E+02  0.45594000000E+02  0.51100000000E-03 0. -1.
         11   -1    0    0    0    0 -0.00000000000E+00 -0.00000000000E+00 -0.45593999997E+02  0.45594000000E+02  0.51100000000E-03 0.  1.
         23    2    1    2    0    0  0.00000000000E+00  0.88817841970E-15  0.71054273576E-14  0.91188000000E+02  0.91188000000E+02 0.  0.
    9900012    2    3    3    0    0 -0.11563728859E+02  0.35470015794E+01  0.34777569864E+02  0.54367076451E+02  0.39999982386E+02 0.  0.
        -12    1    3    3    0    0  0.11563728859E+02 -0.35470015794E+01 -0.34777569864E+02  0.36820923549E+02  0.00000000000E+00 0.  1.
         11    1    4    4    0    0 -0.10218083241E+02 -0.44608319747E+01  0.33880037527E+02  0.35667424775E+02  0.51100000000E-03 0. -1.
        -11    1    4    4    0    0 -0.14077681602E+01  0.13059787456E+02 -0.12807661692E+01  0.13197735481E+02  0.51100000000E-03 0.  1.
        -12    1    4    4    0    0  0.62122541931E-01 -0.50519539017E+01  0.21782985067E+01  0.55019161952E+01  0.00000000000E+00 0.  1.
</event>
<event>
 8    1  0.2531964E-006  0.9118800E+02  0.7816164E-02  0.1184000E+00
        -11   -1    0    0    0    0  0.00000000000E+00  0.00000000000E+00  0.45593999997E+02  0.45594000000E+02  0.51100000000E-03 0.  1.
         11   -1    0    0    0    0 -0.00000000000E+00 -0.00000000000E+00 -0.45593999997E+02  0.45594000000E+02  0.51100000000E-03 0. -1.
         23    2    1    2    0    0  0.00000000000E+00 -0.35527136788E-14  0.00000000000E+00  0.91188000000E+02  0.91188000000E+02 0.  0.
    9900012    2    3    3    0    0 -0.20439625141E+02  0.26194753537E+02  0.15869338095E+02  0.54367091804E+02  0.40000017387E+02 0.  0.
         12    1    3    3    0    0  0.20439625141E+02 -0.26194753537E+02 -0.15869338095E+02  0.36820908196E+02  0.00000000000E+00 0. -1.
         11    1    4    4    0    0 -0.38833008075E+00 -0.64400976927E+01 -0.22221386647E+01  0.68237496326E+01  0.51100000000E-03 0. -1.
        -11    1    4    4    0    0 -0.32467154962E+01 -0.13765369917E+01  0.72916686893E+01  0.80996572852E+01  0.51100000000E-03 0.  1.
         12    1    4    4    0    0 -0.16804579564E+02  0.34011388221E+02  0.10799808070E+02  0.39443684887E+02  0.00000000000E+00 0. -1.
</event>
<event>
 8    1  0.2531964E-006  0.9118800E+02  0.7816164E-02  0.1184000E+00
        -11   -1    0    0    0    0  0.00000000000E+00  0.00000000000E+00  0.45593999997E+02  0.45594000000E+02  0.51100000000E-03 0.  1.
         11   -1    0    0    0    0 -0.00000000000E+00 -0.00000000000E+00 -0.45593999997E+02  0.45594000000E+02  0.51100000000E-03 0. -1.
         23    2    1    2    0    0  0.35527136788E-14 -0.71054273576E-14  0.17763568394E-14  0.91188000000E+02  0.91188000000E+02 0.  0.
    9900012    2    3    3    0    0  0.27998980170E+02 -0.19897583870E+02  0.13263577373E+02  0.54367092636E+02  0.40000019282E+02 0.  0.
         12    1    3    3    0    0 -0.27998980170E+02  0.19897583870E+02 -0.13263577373E+02  0.36820907364E+02  0.00000000000E+00 0. -1.
         11    1    4    4    0    0  0.42901837748E+00  0.99343019148E+00 -0.45267319204E+01  0.46542735688E+01  0.51100000000E-03 0. -1.
        -11    1    4    4    0    0 -0.14046837936E+01  0.63985239612E+01  0.34644886424E+01  0.74105956074E+01  0.51100000000E-03 0.  1.
        -12    1    4    4    0    0  0.28974645586E+02 -0.27289538022E+02  0.14325820651E+02  0.42302223460E+02  0.00000000000E+00 0.  1.
</event>
<event>
 8    1  0.2531964E-006  0.9118800E+02  0.7816164E-02  0.1184000E+00
        -11   -1    0    0    0    0  0.00000000000E+00  0.00000000000E+00  0.45593999997E+02  0.45594000000E+02  0.51100000000E-03 0. -1.
         11   -1    0    0    0    0 -0.00000000000E+00 -0.00000000000E+00 -0.45593999997E+02  0.45594000000E+02  0.51100000000E-03 0.  1.
         23    2    1    2    0    0  0.17763568394E-14 -0.35527136788E-14 -0.35527136788E-14  0.91188000000E+02  0.91188000000E+02 0.  0.
    9900012    2    3    3    0    0 -0.11691375078E+02  0.21496476602E+02  0.27513501614E+02  0.54367088434E+02  0.40000009703E+02 0.  0.
        -12    1    3    3    0    0  0.11691375078E+02 -0.21496476602E+02 -0.27513501614E+02  0.36820911566E+02  0.00000000000E+00 0.  1.
         11    1    4    4    0    0 -0.50506548159E+01  0.48962082911E+01  0.13756687171E+02  0.15450838549E+02  0.51100000000E-03 0. -1.
        -11    1    4    4    0    0 -0.16618239618E+02  0.37400433183E+01  0.14856307456E+02  0.22602293767E+02  0.51100000000E-03 0.  1.
        -12    1    4    4    0    0  0.99775193556E+01  0.12860224992E+02 -0.10994930133E+01  0.16313956118E+02  0.00000000000E+00 0.  1.
</event>
<event>
 8    1  0.2531964E-006  0.9118800E+02  0.7816164E-02  0.1184000E+00
        -11   -1    0    0    0    0  0.00000000000E+00  0.00000000000E+00  0.45593999997E+02  0.45594000000E+02  0.51100000000E-03 0. -1.
         11   -1    0    0    0    0 -0.00000000000E+00 -0.00000000000E+00 -0.45593999997E+02  0.45594000000E+02  0.51100000000E-03 0.  1.
         23    2    1    2    0    0  0.00000000000E+00  0.00000000000E+00  0.00000000000E+00  0.91188000000E+02  0.91188000000E+02 0.  0.
    9900012    2    3    3    0    0 -0.47305998523E+01 -0.30802748925E+02  0.19611016963E+02  0.54367083354E+02  0.39999998123E+02 0.  0.
        -12    1    3    3    0    0  0.47305998523E+01  0.30802748925E+02 -0.19611016963E+02  0.36820916646E+02  0.00000000000E+00 0.  1.
         11    1    4    4    0    0 -0.15766356639E+02 -0.98069922165E+01  0.28496464144E+01  0.18784982911E+02  0.51100000000E-03 0. -1.
        -11    1    4    4    0    0  0.66183486838E+01 -0.12190277772E+02 -0.23617209587E+01  0.14070648088E+02  0.51100000000E-03 0.  1.
         12    1    4    4    0    0  0.44174081032E+01 -0.88054789359E+01  0.19123091507E+02  0.21511452356E+02  0.00000000000E+00 0. -1.
</event>
<event>
 8    1  0.2531964E-006  0.9118800E+02  0.7816164E-02  0.1184000E+00
        -11   -1    0    0    0    0  0.00000000000E+00  0.00000000000E+00  0.45593999997E+02  0.45594000000E+02  0.51100000000E-03 0. -1.
         11   -1    0    0    0    0 -0.00000000000E+00 -0.00000000000E+00 -0.45593999997E+02  0.45594000000E+02  0.51100000000E-03 0.  1.
         23    2    1    2    0    0  0.00000000000E+00 -0.88817841970E-15  0.00000000000E+00  0.91188000000E+02  0.91188000000E+02 0.  0.
    9900012    2    3    3    0    0 -0.33442731006E+02  0.58413935653E+01  0.14256256322E+02  0.54367095879E+02  0.40000026676E+02 0.  0.
        -12    1    3    3    0    0  0.33442731006E+02 -0.58413935653E+01 -0.14256256322E+02  0.36820904121E+02  0.00000000000E+00 0.  1.
         11    1    4    4    0    0 -0.30484197116E+02  0.60623358403E+01  0.76388719963E+01  0.32006101844E+02  0.51100000000E-03 0. -1.
        -11    1    4    4    0    0 -0.10484562680E+02  0.53436513796E+01  0.20453308323E+01  0.11944205421E+02  0.51100000000E-03 0.  1.
         12    1    4    4    0    0  0.75260287898E+01 -0.55645936546E+01  0.45720534934E+01  0.10416788614E+02  0.00000000000E+00 0. -1.
</event>
<event>
 8    1  0.2531964E-006  0.9118800E+02  0.7816164E-02  0.1184000E+00
        -11   -1    0    0    0    0  0.00000000000E+00  0.00000000000E+00  0.45593999997E+02  0.45594000000E+02  0.51100000000E-03 0.  1.
         11   -1    0    0    0    0 -0.00000000000E+00 -0.00000000000E+00 -0.45593999997E+02  0.45594000000E+02  0.51100000000E-03 0. -1.
         23    2    1    2    0    0  0.00000000000E+00  0.71054273576E-14  0.00000000000E+00  0.91188000000E+02  0.91188000000E+02 0.  0.
    9900012    2    3    3    0    0  0.25780235587E+01 -0.32546909620E+02 -0.17024472865E+02  0.54367079213E+02  0.39999988682E+02 0.  0.
        -12    1    3    3    0    0 -0.25780235587E+01  0.32546909620E+02  0.17024472865E+02  0.36820920787E+02  0.00000000000E+00 0.  1.
         11    1    4    4    0    0  0.43145247065E+01  0.62012497252E+01 -0.53330967406E+01  0.92472992113E+01  0.51100000000E-03 0. -1.
        -11    1    4    4    0    0  0.71365541073E+00 -0.10530072988E+02  0.55865911567E+01  0.11941597137E+02  0.51100000000E-03 0.  1.
         12    1    4    4    0    0 -0.24501565585E+01 -0.28218086357E+02 -0.17277967281E+02  0.33178182865E+02  0.00000000000E+00 0. -1.
</event>
<event>
 8    1  0.2531964E-006  0.9118800E+02  0.7816164E-02  0.1184000E+00
        -11   -1    0    0    0    0  0.00000000000E+00  0.00000000000E+00  0.45593999997E+02  0.45594000000E+02  0.51100000000E-03 0.  1.
         11   -1    0    0    0    0 -0.00000000000E+00 -0.00000000000E+00 -0.45593999997E+02  0.45594000000E+02  0.51100000000E-03 0. -1.
         23    2    1    2    0    0  0.00000000000E+00 -0.88817841970E-15  0.00000000000E+00  0.91188000000E+02  0.91188000000E+02 0.  0.
    9900012    2    3    3    0    0 -0.61713540296E+01  0.63040376184E+01  0.35748473328E+02  0.54367084122E+02  0.39999999872E+02 0.  0.
         12    1    3    3    0    0  0.61713540296E+01 -0.63040376184E+01 -0.35748473328E+02  0.36820915878E+02  0.00000000000E+00 0. -1.
         11    1    4    4    0    0  0.11710250107E+01 -0.43415554949E+01  0.45238382898E+01  0.63785199557E+01  0.51100000000E-03 0. -1.
        -11    1    4    4    0    0  0.55415424299E+00 -0.95813143207E-01  0.34301780866E+02  0.34306390628E+02  0.51100000000E-03 0.  1.
         12    1    4    4    0    0 -0.78965332833E+01  0.10741406257E+02 -0.30771458285E+01  0.13682173538E+02  0.00000000000E+00 0. -1.
</event>
<event>
 8    1  0.2531964E-006  0.9118800E+02  0.7816164E-02  0.1184000E+00
        -11   -1    0    0    0    0  0.00000000000E+00  0.00000000000E+00  0.45593999997E+02  0.45594000000E+02  0.51100000000E-03 0.  1.
         11   -1    0    0    0    0 -0.00000000000E+00 -0.00000000000E+00 -0.45593999997E+02  0.45594000000E+02  0.51100000000E-03 0. -1.
         23    2    1    2    0    0 -0.88817841970E-15  0.00000000000E+00 -0.17763568394E-14  0.91188000000E+02  0.91188000000E+02 0.  0.
    9900012    2    3    3    0    0 -0.77055977982E+01 -0.34878023932E+02 -0.89401665240E+01  0.54367090610E+02  0.40000014663E+02 0.  0.
        -12    1    3    3    0    0  0.77055977982E+01  0.34878023932E+02  0.89401665240E+01  0.36820909390E+02  0.00000000000E+00 0.  1.
         11    1    4    4    0    0 -0.19088369251E+01 -0.26671900774E+02 -0.44301916411E+01  0.27104622254E+02  0.51100000000E-03 0. -1.
        -11    1    4    4    0    0 -0.14064207335E+02 -0.91856490039E+01 -0.75269220530E+01  0.18407406972E+02  0.51100000000E-03 0.  1.
        -12    1    4    4    0    0  0.82674464616E+01  0.97952584589E+00  0.30169471701E+01  0.88550613835E+01  0.00000000000E+00 0.  1.
</event>
<event>
 8    1  0.2531964E-006  0.9118800E+02  0.7816164E-02  0.1184000E+00
        -11   -1    0    0    0    0  0.00000000000E+00  0.00000000000E+00  0.45593999997E+02  0.45594000000E+02  0.51100000000E-03 0. -1.
         11   -1    0    0    0    0 -0.00000000000E+00 -0.00000000000E+00 -0.45593999997E+02  0.45594000000E+02  0.51100000000E-03 0.  1.
         23    2    1    2    0    0  0.11102230246E-14 -0.17763568394E-14  0.00000000000E+00  0.91188000000E+02  0.91188000000E+02 0.  0.
    9900012    2    3    3    0    0 -0.16378808877E+01 -0.14431102188E+02  0.33835502494E+02  0.54367073977E+02  0.39999976746E+02 0.  0.
        -12    1    3    3    0    0  0.16378808877E+01  0.14431102188E+02 -0.33835502494E+02  0.36820926023E+02  0.00000000000E+00 0.  1.
         11    1    4    4    0    0 -0.17944386787E+02 -0.35324803648E+01  0.19480029673E+02  0.26719861358E+02  0.51100000000E-03 0. -1.
        -11    1    4    4    0    0  0.75218040839E+00 -0.10168776598E+01  0.80825936031E+01  0.81809617500E+01  0.51100000000E-03 0.  1.
        -12    1    4    4    0    0  0.15554325491E+02 -0.98817441634E+01  0.62728792179E+01  0.19466250869E+02  0.00000000000E+00 0.  1.
</event>
<event>
 8    1  0.2531964E-006  0.9118800E+02  0.7816164E-02  0.1184000E+00
        -11   -1    0    0    0    0  0.00000000000E+00  0.00000000000E+00  0.45593999997E+02  0.45594000000E+02  0.51100000000E-03 0. -1.
         11   -1    0    0    0    0 -0.00000000000E+00 -0.00000000000E+00 -0.45593999997E+02  0.45594000000E+02  0.51100000000E-03 0.  1.
         23    2    1    2    0    0  0.17763568394E-14  0.00000000000E+00  0.35527136788E-14  0.91188000000E+02  0.91188000000E+02 0.  0.
    9900012    2    3    3    0    0 -0.10215672061E+02  0.21420499358E+02 -0.28152809210E+02  0.54367103557E+02  0.40000044180E+02 0.  0.
         12    1    3    3    0    0  0.10215672061E+02 -0.21420499358E+02  0.28152809210E+02  0.36820896443E+02  0.00000000000E+00 0. -1.
         11    1    4    4    0    0 -0.40838429085E+01  0.15753049027E+02 -0.21053783175E+01  0.16409416342E+02  0.51100000000E-03 0. -1.
        -11    1    4    4    0    0  0.17635454954E+01  0.14193883071E+02 -0.77111565258E+01  0.16249256739E+02  0.51100000000E-03 0.  1.
        -12    1    4    4    0    0 -0.78953746475E+01 -0.85264327398E+01 -0.18336274367E+02  0.21708430476E+02  0.00000000000E+00 0.  1.
</event>
<event>
 8    1  0.2531964E-006  0.9118800E+02  0.7816164E-02  0.1184000E+00
        -11   -1    0    0    0    0  0.00000000000E+00  0.00000000000E+00  0.45593999997E+02  0.45594000000E+02  0.51100000000E-03 0.  1.
         11   -1    0    0    0    0 -0.00000000000E+00 -0.00000000000E+00 -0.45593999997E+02  0.45594000000E+02  0.51100000000E-03 0. -1.
         23    2    1    2    0    0  0.00000000000E+00  0.00000000000E+00  0.00000000000E+00  0.91188000000E+02  0.91188000000E+02 0.  0.
    9900012    2    3    3    0    0  0.11535817130E+02  0.33521757072E+02  0.99496990179E+01  0.54367084958E+02  0.40000001778E+02 0.  0.
        -12    1    3    3    0    0 -0.11535817130E+02 -0.33521757072E+02 -0.99496990179E+01  0.36820915042E+02  0.00000000000E+00 0.  1.
         11    1    4    4    0    0  0.15903753779E+02  0.27343182599E+02  0.20726722446E+01  0.31699763238E+02  0.51100000000E-03 0. -1.
        -11    1    4    4    0    0 -0.60633559731E+01  0.65992154741E+01  0.13820870067E+02  0.16472109161E+02  0.51100000000E-03 0.  1.
         12    1    4    4    0    0  0.16954193242E+01 -0.42064100104E+00 -0.59438432941E+01  0.61952125583E+01  0.00000000000E+00 0. -1.
</event>
<event>
 8    1  0.2531964E-006  0.9118800E+02  0.7816164E-02  0.1184000E+00
        -11   -1    0    0    0    0  0.00000000000E+00  0.00000000000E+00  0.45593999997E+02  0.45594000000E+02  0.51100000000E-03 0. -1.
         11   -1    0    0    0    0 -0.00000000000E+00 -0.00000000000E+00 -0.45593999997E+02  0.45594000000E+02  0.51100000000E-03 0.  1.
         23    2    1    2    0    0  0.00000000000E+00 -0.17763568394E-14  0.71054273576E-14  0.91188000000E+02  0.91188000000E+02 0.  0.
    9900012    2    3    3    0    0 -0.55312906095E+01  0.81762811030E+01  0.35472994738E+02  0.54367080617E+02  0.39999991883E+02 0.  0.
        -12    1    3    3    0    0  0.55312906095E+01 -0.81762811030E+01 -0.35472994738E+02  0.36820919383E+02  0.00000000000E+00 0.  1.
         11    1    4    4    0    0 -0.48463937321E+01  0.68574000849E+01 -0.92305209269E+00  0.84476916112E+01  0.51100000000E-03 0. -1.
        -11    1    4    4    0    0 -0.57196426639E+01 -0.98740065701E+01  0.54846257619E+01  0.12660625496E+02  0.51100000000E-03 0.  1.
         12    1    4    4    0    0  0.50347457864E+01  0.11192887588E+02  0.30911421069E+02  0.33258763510E+02  0.00000000000E+00 0. -1.
</event>
<event>
 8    1  0.2531964E-006  0.9118800E+02  0.7816164E-02  0.1184000E+00
        -11   -1    0    0    0    0  0.00000000000E+00  0.00000000000E+00  0.45593999997E+02  0.45594000000E+02  0.51100000000E-03 0.  1.
         11   -1    0    0    0    0 -0.00000000000E+00 -0.00000000000E+00 -0.45593999997E+02  0.45594000000E+02  0.51100000000E-03 0. -1.
         23    2    1    2    0    0  0.00000000000E+00 -0.35527136788E-14 -0.88817841970E-15  0.91188000000E+02  0.91188000000E+02 0.  0.
    9900012    2    3    3    0    0  0.27916654448E+02 -0.22685590210E+02  0.78615842260E+01  0.54367080602E+02  0.39999991849E+02 0.  0.
         12    1    3    3    0    0 -0.27916654448E+02  0.22685590210E+02 -0.78615842260E+01  0.36820919398E+02  0.00000000000E+00 0. -1.
         11    1    4    4    0    0 -0.57874993263E+01  0.44607072477E+01 -0.15369021902E+01  0.74669355297E+01  0.51100000000E-03 0. -1.
        -11    1    4    4    0    0  0.21854822838E+02 -0.13383622273E+02 -0.15850538899E+01  0.25676195640E+02  0.51100000000E-03 0.  1.
         12    1    4    4    0    0  0.11849330937E+02 -0.13762675184E+02  0.10983540306E+02  0.21223949433E+02  0.00000000000E+00 0. -1.
</event>
<event>
 8    1  0.2531964E-006  0.9118800E+02  0.7816164E-02  0.1184000E+00
        -11   -1    0    0    0    0  0.00000000000E+00  0.00000000000E+00  0.45593999997E+02  0.45594000000E+02  0.51100000000E-03 0. -1.
         11   -1    0    0    0    0 -0.00000000000E+00 -0.00000000000E+00 -0.45593999997E+02  0.45594000000E+02  0.51100000000E-03 0.  1.
         23    2    1    2    0    0  0.00000000000E+00 -0.17763568394E-14  0.71054273576E-14  0.91188000000E+02  0.91188000000E+02 0.  0.
    9900012    2    3    3    0    0  0.13554659061E+02 -0.10344932704E+02  0.32634856079E+02  0.54367078689E+02  0.39999987487E+02 0.  0.
        -12    1    3    3    0    0 -0.13554659061E+02  0.10344932704E+02 -0.32634856079E+02  0.36820921311E+02  0.00000000000E+00 0.  1.
         11    1    4    4    0    0  0.77742735774E+01 -0.19987483847E+01 -0.15887541392E+01  0.81828152086E+01  0.51100000000E-03 0. -1.
        -11    1    4    4    0    0 -0.96541111509E+01  0.17031244974E+01  0.35891198695E+01  0.10439553480E+02  0.51100000000E-03 0.  1.
         12    1    4    4    0    0  0.15434496635E+02 -0.10049308816E+02  0.30634490349E+02  0.35744710000E+02  0.00000000000E+00 0. -1.
</event>
<event>
 8    1  0.2531964E-006  0.9118800E+02  0.7816164E-02  0.1184000E+00
        -11   -1    0    0    0    0  0.00000000000E+00  0.00000000000E+00  0.45593999997E+02  0.45594000000E+02  0.51100000000E-03 0.  1.
         11   -1    0    0    0    0 -0.00000000000E+00 -0.00000000000E+00 -0.45593999997E+02  0.45594000000E+02  0.51100000000E-03 0. -1.
         23    2    1    2    0    0  0.00000000000E+00 -0.35527136788E-14 -0.35527136788E-14  0.91188000000E+02  0.91188000000E+02 0.  0.
    9900012    2    3    3    0    0  0.10630163373E+02 -0.20035178766E+02 -0.29006430328E+02  0.54367058106E+02  0.39999940565E+02 0.  0.
        -12    1    3    3    0    0 -0.10630163373E+02  0.20035178766E+02  0.29006430328E+02  0.36820941894E+02  0.00000000000E+00 0.  1.
         11    1    4    4    0    0 -0.38338147678E+01 -0.13744824045E+01 -0.28035914243E+01  0.49444375504E+01  0.51100000000E-03 0. -1.
        -11    1    4    4    0    0  0.12576020905E+02 -0.28405565509E+02 -0.15135046996E+02  0.34555782461E+02  0.51100000000E-03 0.  1.
        -12    1    4    4    0    0  0.18879572355E+01  0.97448691470E+01 -0.11067791908E+02  0.14866838095E+02  0.00000000000E+00 0.  1.
</event>
<event>
 8    1  0.2531964E-006  0.9118800E+02  0.7816164E-02  0.1184000E+00
        -11   -1    0    0    0    0  0.00000000000E+00  0.00000000000E+00  0.45593999997E+02  0.45594000000E+02  0.51100000000E-03 0.  1.
         11   -1    0    0    0    0 -0.00000000000E+00 -0.00000000000E+00 -0.45593999997E+02  0.45594000000E+02  0.51100000000E-03 0. -1.
         23    2    1    2    0    0  0.00000000000E+00 -0.71054273576E-14 -0.21371793224E-14  0.91188000000E+02  0.91188000000E+02 0.  0.
    9900012    2    3    3    0    0  0.70649635758E+01 -0.36136706708E+02 -0.54677602327E-01  0.54367105501E+02  0.40000048611E+02 0.  0.
         12    1    3    3    0    0 -0.70649635758E+01  0.36136706708E+02  0.54677602327E-01  0.36820894499E+02  0.00000000000E+00 0. -1.
         11    1    4    4    0    0  0.99855642987E+00  0.71600326048E-01  0.73241795048E+01  0.73922829511E+01  0.51100000000E-03 0. -1.
        -11    1    4    4    0    0  0.26540584685E+01 -0.29344033088E+01  0.89262844406E+01  0.97638774730E+01  0.51100000000E-03 0.  1.
         12    1    4    4    0    0  0.34123486774E+01 -0.33273903726E+02 -0.16305141548E+02  0.37210945077E+02  0.00000000000E+00 0. -1.
</event>
<event>
 8    1  0.2531964E-006  0.9118800E+02  0.7816164E-02  0.1184000E+00
        -11   -1    0    0    0    0  0.00000000000E+00  0.00000000000E+00  0.45593999997E+02  0.45594000000E+02  0.51100000000E-03 0. -1.
         11   -1    0    0    0    0 -0.00000000000E+00 -0.00000000000E+00 -0.45593999997E+02  0.45594000000E+02  0.51100000000E-03 0.  1.
         23    2    1    2    0    0  0.00000000000E+00  0.00000000000E+00  0.35527136788E-14  0.91188000000E+02  0.91188000000E+02 0.  0.
    9900012    2    3    3    0    0 -0.64103268576E+01 -0.21556312360E+02 -0.29154983196E+02  0.54367082872E+02  0.39999997023E+02 0.  0.
         12    1    3    3    0    0  0.64103268576E+01  0.21556312360E+02  0.29154983196E+02  0.36820917128E+02  0.00000000000E+00 0. -1.
         11    1    4    4    0    0  0.10414853265E+01 -0.29260816933E+02 -0.26127036850E+02  0.39241587048E+02  0.51100000000E-03 0. -1.
        -11    1    4    4    0    0 -0.55449328033E+01  0.16266564947E+01  0.28631350718E+01  0.64490180528E+01  0.51100000000E-03 0.  1.
         12    1    4    4    0    0 -0.19068793808E+01  0.60778480778E+01 -0.58910814184E+01  0.86764777708E+01  0.00000000000E+00 0. -1.
</event>
<event>
 8    1  0.2531964E-006  0.9118800E+02  0.7816164E-02  0.1184000E+00
        -11   -1    0    0    0    0  0.00000000000E+00  0.00000000000E+00  0.45593999997E+02  0.45594000000E+02  0.51100000000E-03 0.  1.
         11   -1    0    0    0    0 -0.00000000000E+00 -0.00000000000E+00 -0.45593999997E+02  0.45594000000E+02  0.51100000000E-03 0. -1.
         23    2    1    2    0    0  0.00000000000E+00  0.00000000000E+00 -0.17763568394E-14  0.91188000000E+02  0.91188000000E+02 0.  0.
    9900012    2    3    3    0    0  0.23154050470E+02 -0.26577388491E+02  0.10644746317E+02  0.54367105710E+02  0.40000049088E+02 0.  0.
         12    1    3    3    0    0 -0.23154050470E+02  0.26577388491E+02 -0.10644746317E+02  0.36820894290E+02  0.00000000000E+00 0. -1.
         11    1    4    4    0    0 -0.38192483441E+01 -0.35437764308E+01 -0.75403226512E+01  0.91652318711E+01  0.51100000000E-03 0. -1.
        -11    1    4    4    0    0  0.30286546338E+02 -0.17635343866E+02  0.15251867290E+02  0.38221717628E+02  0.51100000000E-03 0.  1.
        -12    1    4    4    0    0 -0.33132475239E+01 -0.53982681937E+01  0.29332016790E+01  0.69801562113E+01  0.00000000000E+00 0.  1.
</event>
<event>
 8    1  0.2531964E-006  0.9118800E+02  0.7816164E-02  0.1184000E+00
        -11   -1    0    0    0    0  0.00000000000E+00  0.00000000000E+00  0.45593999997E+02  0.45594000000E+02  0.51100000000E-03 0.  1.
         11   -1    0    0    0    0 -0.00000000000E+00 -0.00000000000E+00 -0.45593999997E+02  0.45594000000E+02  0.51100000000E-03 0. -1.
         23    2    1    2    0    0  0.00000000000E+00  0.00000000000E+00 -0.35527136788E-14  0.91188000000E+02  0.91188000000E+02 0.  0.
    9900012    2    3    3    0    0  0.92061906185E+01  0.19527719740E+02  0.29827729715E+02  0.54367092300E+02  0.40000018515E+02 0.  0.
        -12    1    3    3    0    0 -0.92061906185E+01 -0.19527719740E+02 -0.29827729715E+02  0.36820907700E+02  0.00000000000E+00 0.  1.
         11    1    4    4    0    0 -0.46878472891E+01  0.20317526945E+02  0.17858613400E+02  0.27453740841E+02  0.51100000000E-03 0.  1.
        -11    1    4    4    0    0  0.70184720352E+00 -0.78344765730E+01  0.17628942861E+00  0.78678263131E+01  0.51100000000E-03 0. -1.
        -12    1    4    4    0    0  0.13192190704E+02  0.70446693682E+01  0.11792826886E+02  0.19045525145E+02  0.00000000000E+00 0.  1.
</event>
<event>
 8    1  0.2531964E-006  0.9118800E+02  0.7816164E-02  0.1184000E+00
        -11   -1    0    0    0    0  0.00000000000E+00  0.00000000000E+00  0.45593999997E+02  0.45594000000E+02  0.51100000000E-03 0.  1.
         11   -1    0    0    0    0 -0.00000000000E+00 -0.00000000000E+00 -0.45593999997E+02  0.45594000000E+02  0.51100000000E-03 0. -1.
         23    2    1    2    0    0  0.00000000000E+00  0.00000000000E+00  0.35527136788E-14  0.91188000000E+02  0.91188000000E+02 0.  0.
    9900012    2    3    3    0    0 -0.80821947768E+01 -0.31609527590E+02  0.17067365766E+02  0.54367094510E+02  0.40000023555E+02 0.  0.
         12    1    3    3    0    0  0.80821947768E+01  0.31609527590E+02 -0.17067365766E+02  0.36820905490E+02  0.00000000000E+00 0. -1.
         11    1    4    4    0    0 -0.78112762581E+01 -0.18793930248E+01 -0.65308393071E+01  0.10353744117E+02  0.51100000000E-03 0. -1.
        -11    1    4    4    0    0 -0.60497532085E+01 -0.18810910557E+02  0.29884880015E+01  0.19984517274E+02  0.51100000000E-03 0.  1.
        -12    1    4    4    0    0  0.57788346898E+01 -0.10919224008E+02  0.20609717072E+02  0.24028833120E+02  0.00000000000E+00 0.  1.
</event>
<event>
 8    1  0.2531964E-006  0.9118800E+02  0.7816164E-02  0.1184000E+00
        -11   -1    0    0    0    0  0.00000000000E+00  0.00000000000E+00  0.45593999997E+02  0.45594000000E+02  0.51100000000E-03 0. -1.
         11   -1    0    0    0    0 -0.00000000000E+00 -0.00000000000E+00 -0.45593999997E+02  0.45594000000E+02  0.51100000000E-03 0.  1.
         23    2    1    2    0    0 -0.88817841970E-15  0.00000000000E+00  0.35527136788E-14  0.91188000000E+02  0.91188000000E+02 0.  0.
    9900012    2    3    3    0    0 -0.50066148730E+01  0.26503324251E+02  0.25065656845E+02  0.54367088253E+02  0.40000009291E+02 0.  0.
        -12    1    3    3    0    0  0.50066148730E+01 -0.26503324251E+02 -0.25065656845E+02  0.36820911747E+02  0.00000000000E+00 0.  1.
         11    1    4    4    0    0 -0.46152585784E+01  0.23840372234E-01 -0.36197939551E+01  0.58654998633E+01  0.51100000000E-03 0. -1.
        -11    1    4    4    0    0  0.56512805791E+01 -0.42655616505E+01  0.91794106907E+01  0.11592824042E+02  0.51100000000E-03 0.  1.
         12    1    4    4    0    0 -0.60426368736E+01  0.30745045529E+02  0.19506040109E+02  0.36908764348E+02  0.00000000000E+00 0. -1.
</event>
<event>
 8    1  0.2531964E-006  0.9118800E+02  0.7816164E-02  0.1184000E+00
        -11   -1    0    0    0    0  0.00000000000E+00  0.00000000000E+00  0.45593999997E+02  0.45594000000E+02  0.51100000000E-03 0.  1.
         11   -1    0    0    0    0 -0.00000000000E+00 -0.00000000000E+00 -0.45593999997E+02  0.45594000000E+02  0.51100000000E-03 0. -1.
         23    2    1    2    0    0  0.00000000000E+00 -0.35527136788E-14  0.00000000000E+00  0.91188000000E+02  0.91188000000E+02 0.  0.
    9900012    2    3    3    0    0  0.10234985195E+02 -0.29079512346E+02 -0.20134709753E+02  0.54367088862E+02  0.40000010678E+02 0.  0.
        -12    1    3    3    0    0 -0.10234985195E+02  0.29079512346E+02  0.20134709753E+02  0.36820911138E+02  0.00000000000E+00 0.  1.
         11    1    4    4    0    0  0.10367938849E+02 -0.46963180145E+01 -0.17905353288E+02  0.21216767791E+02  0.51100000000E-03 0. -1.
        -11    1    4    4    0    0  0.10003897311E+02 -0.14162177268E+02 -0.58628966263E+01  0.18303518337E+02  0.51100000000E-03 0.  1.
        -12    1    4    4    0    0 -0.10136850965E+02 -0.10221017063E+02  0.36335401619E+01  0.14846802734E+02  0.00000000000E+00 0.  1.
</event>
<event>
 8    1  0.2531964E-006  0.9118800E+02  0.7816164E-02  0.1184000E+00
        -11   -1    0    0    0    0  0.00000000000E+00  0.00000000000E+00  0.45593999997E+02  0.45594000000E+02  0.51100000000E-03 0. -1.
         11   -1    0    0    0    0 -0.00000000000E+00 -0.00000000000E+00 -0.45593999997E+02  0.45594000000E+02  0.51100000000E-03 0.  1.
         23    2    1    2    0    0  0.00000000000E+00  0.44408920985E-15  0.00000000000E+00  0.91188000000E+02  0.91188000000E+02 0.  0.
    9900012    2    3    3    0    0 -0.14420258921E+02  0.24378436407E+01  0.33791921237E+02  0.54367069948E+02  0.39999967561E+02 0.  0.
        -12    1    3    3    0    0  0.14420258921E+02 -0.24378436407E+01 -0.33791921237E+02  0.36820930052E+02  0.00000000000E+00 0.  1.
         11    1    4    4    0    0 -0.84740875759E+01 -0.42024430463E+01 -0.23435393620E+01  0.97448891632E+01  0.51100000000E-03 0.  1.
        -11    1    4    4    0    0 -0.10777307012E+01  0.14605697318E+02  0.12660632245E+02  0.19359222782E+02  0.51100000000E-03 0. -1.
        -12    1    4    4    0    0 -0.48684406442E+01 -0.79654106309E+01  0.23474828354E+02  0.25262958003E+02  0.00000000000E+00 0.  1.
</event>
<event>
 8    1  0.2531964E-006  0.9118800E+02  0.7816164E-02  0.1184000E+00
        -11   -1    0    0    0    0  0.00000000000E+00  0.00000000000E+00  0.45593999997E+02  0.45594000000E+02  0.51100000000E-03 0. -1.
         11   -1    0    0    0    0 -0.00000000000E+00 -0.00000000000E+00 -0.45593999997E+02  0.45594000000E+02  0.51100000000E-03 0.  1.
         23    2    1    2    0    0  0.00000000000E+00  0.00000000000E+00  0.00000000000E+00  0.91188000000E+02  0.91188000000E+02 0.  0.
    9900012    2    3    3    0    0  0.32315968425E+02  0.15172780357E+02  0.90134495426E+01  0.54367117994E+02  0.40000077092E+02 0.  0.
        -12    1    3    3    0    0 -0.32315968425E+02 -0.15172780357E+02 -0.90134495426E+01  0.36820882006E+02  0.00000000000E+00 0.  1.
         11    1    4    4    0    0  0.13062108728E+02  0.19515144665E+02  0.37762302903E+01  0.23784858023E+02  0.51100000000E-03 0. -1.
        -11    1    4    4    0    0  0.64438319592E+00  0.35851511767E+01 -0.63135151897E+01  0.72889651511E+01  0.51100000000E-03 0.  1.
         12    1    4    4    0    0  0.18609476501E+02 -0.79275154848E+01  0.11550734442E+02  0.23293294820E+02  0.00000000000E+00 0. -1.
</event>
<event>
 8    1  0.2531964E-006  0.9118800E+02  0.7816164E-02  0.1184000E+00
        -11   -1    0    0    0    0  0.00000000000E+00  0.00000000000E+00  0.45593999997E+02  0.45594000000E+02  0.51100000000E-03 0.  1.
         11   -1    0    0    0    0 -0.00000000000E+00 -0.00000000000E+00 -0.45593999997E+02  0.45594000000E+02  0.51100000000E-03 0. -1.
         23    2    1    2    0    0  0.00000000000E+00  0.35527136788E-14  0.88817841970E-15  0.91188000000E+02  0.91188000000E+02 0.  0.
    9900012    2    3    3    0    0  0.35188396679E+02 -0.88549842393E+01 -0.62566004255E+01  0.54367094856E+02  0.40000024343E+02 0.  0.
         12    1    3    3    0    0 -0.35188396679E+02  0.88549842393E+01  0.62566004255E+01  0.36820905144E+02  0.00000000000E+00 0. -1.
         11    1    4    4    0    0 -0.49746603064E+01  0.11756965180E+01 -0.25888695191E+01  0.57298999218E+01  0.51100000000E-03 0. -1.
        -11    1    4    4    0    0  0.24586740511E+02  0.67475878626E+01 -0.35587488509E+01  0.25743007683E+02  0.51100000000E-03 0.  1.
        -12    1    4    4    0    0  0.15576316475E+02 -0.16778268620E+02 -0.10898205554E+00  0.22894187251E+02  0.00000000000E+00 0.  1.
</event>
<event>
 8    1  0.2531964E-006  0.9118800E+02  0.7816164E-02  0.1184000E+00
        -11   -1    0    0    0    0  0.00000000000E+00  0.00000000000E+00  0.45593999997E+02  0.45594000000E+02  0.51100000000E-03 0. -1.
         11   -1    0    0    0    0 -0.00000000000E+00 -0.00000000000E+00 -0.45593999997E+02  0.45594000000E+02  0.51100000000E-03 0.  1.
         23    2    1    2    0    0 -0.53290705182E-14 -0.35527136788E-14  0.00000000000E+00  0.91188000000E+02  0.91188000000E+02 0.  0.
    9900012    2    3    3    0    0 -0.10109905736E+02 -0.17564487534E+02 -0.30741809411E+02  0.54367078472E+02  0.39999986992E+02 0.  0.
         12    1    3    3    0    0  0.10109905736E+02  0.17564487534E+02  0.30741809411E+02  0.36820921528E+02  0.00000000000E+00 0. -1.
         11    1    4    4    0    0  0.69955924529E+01 -0.46304358167E+01 -0.10463070441E+01  0.84542302022E+01  0.51100000000E-03 0. -1.
        -11    1    4    4    0    0 -0.11599505309E+02 -0.48187844656E+01 -0.33201624124E+02  0.35498127442E+02  0.51100000000E-03 0.  1.
         12    1    4    4    0    0 -0.55059928791E+01 -0.81152672514E+01  0.35061217567E+01  0.10414720828E+02  0.00000000000E+00 0. -1.
</event>
<event>
 8    1  0.2531964E-006  0.9118800E+02  0.7816164E-02  0.1184000E+00
        -11   -1    0    0    0    0  0.00000000000E+00  0.00000000000E+00  0.45593999997E+02  0.45594000000E+02  0.51100000000E-03 0.  1.
         11   -1    0    0    0    0 -0.00000000000E+00 -0.00000000000E+00 -0.45593999997E+02  0.45594000000E+02  0.51100000000E-03 0. -1.
         23    2    1    2    0    0  0.00000000000E+00 -0.88817841970E-15  0.00000000000E+00  0.91188000000E+02  0.91188000000E+02 0.  0.
    9900012    2    3    3    0    0  0.16786510088E+02  0.55075623977E+01  0.32305718271E+02  0.54367087498E+02  0.40000007568E+02 0.  0.
         12    1    3    3    0    0 -0.16786510088E+02 -0.55075623977E+01 -0.32305718271E+02  0.36820912502E+02  0.00000000000E+00 0. -1.
         11    1    4    4    0    0 -0.49427119950E+01 -0.32302869094E+01  0.48300489582E+01  0.76285338423E+01  0.51100000000E-03 0. -1.
        -11    1    4    4    0    0  0.93089315906E+01 -0.37019420282E+01  0.27384677127E+02  0.29159580308E+02  0.51100000000E-03 0.  1.
        -12    1    4    4    0    0  0.12420290492E+02  0.12439791335E+02  0.90992186514E-01  0.17578973347E+02  0.00000000000E+00 0.  1.
</event>
<event>
 8    1  0.2531964E-006  0.9118800E+02  0.7816164E-02  0.1184000E+00
        -11   -1    0    0    0    0  0.00000000000E+00  0.00000000000E+00  0.45593999997E+02  0.45594000000E+02  0.51100000000E-03 0. -1.
         11   -1    0    0    0    0 -0.00000000000E+00 -0.00000000000E+00 -0.45593999997E+02  0.45594000000E+02  0.51100000000E-03 0.  1.
         23    2    1    2    0    0 -0.55511151231E-15  0.00000000000E+00 -0.35527136788E-14  0.91188000000E+02  0.91188000000E+02 0.  0.
    9900012    2    3    3    0    0 -0.57795564464E+00  0.22781924202E+02  0.28921110791E+02  0.54367071814E+02  0.39999971815E+02 0.  0.
        -12    1    3    3    0    0  0.57795564464E+00 -0.22781924202E+02 -0.28921110791E+02  0.36820928186E+02  0.00000000000E+00 0.  1.
         11    1    4    4    0    0 -0.58103891702E+01  0.12027803737E+02  0.18879745113E+02  0.23127331469E+02  0.51100000000E-03 0. -1.
        -11    1    4    4    0    0 -0.44971462380E+01  0.26592734821E+01  0.16302401732E+02  0.17119122706E+02  0.51100000000E-03 0.  1.
        -12    1    4    4    0    0  0.97295797636E+01  0.80948469821E+01 -0.62610360545E+01  0.14120617639E+02  0.00000000000E+00 0.  1.
</event>
<event>
 8    1  0.2531964E-006  0.9118800E+02  0.7816164E-02  0.1184000E+00
        -11   -1    0    0    0    0  0.00000000000E+00  0.00000000000E+00  0.45593999997E+02  0.45594000000E+02  0.51100000000E-03 0.  1.
         11   -1    0    0    0    0 -0.00000000000E+00 -0.00000000000E+00 -0.45593999997E+02  0.45594000000E+02  0.51100000000E-03 0. -1.
         23    2    1    2    0    0  0.00000000000E+00 -0.71054273576E-14  0.17763568394E-14  0.91188000000E+02  0.91188000000E+02 0.  0.
    9900012    2    3    3    0    0 -0.10188807035E+02  0.32343965075E+02 -0.14346979608E+02  0.54367086249E+02  0.40000004721E+02 0.  0.
        -12    1    3    3    0    0  0.10188807035E+02 -0.32343965075E+02  0.14346979608E+02  0.36820913751E+02  0.00000000000E+00 0.  1.
         11    1    4    4    0    0  0.11438392509E+02  0.18539691855E+02 -0.56622398314E-01  0.21784402760E+02  0.51100000000E-03 0. -1.
        -11    1    4    4    0    0 -0.18974215615E+02  0.68941167207E+01 -0.51751323880E+01  0.20840626167E+02  0.51100000000E-03 0.  1.
        -12    1    4    4    0    0 -0.26529839287E+01  0.69101564994E+01 -0.91152248221E+01  0.11742057321E+02  0.00000000000E+00 0.  1.
</event>
<event>
 8    1  0.2531964E-006  0.9118800E+02  0.7816164E-02  0.1184000E+00
        -11   -1    0    0    0    0  0.00000000000E+00  0.00000000000E+00  0.45593999997E+02  0.45594000000E+02  0.51100000000E-03 0.  1.
         11   -1    0    0    0    0 -0.00000000000E+00 -0.00000000000E+00 -0.45593999997E+02  0.45594000000E+02  0.51100000000E-03 0. -1.
         23    2    1    2    0    0  0.00000000000E+00  0.71054273576E-14 -0.44408920985E-15  0.91188000000E+02  0.91188000000E+02 0.  0.
    9900012    2    3    3    0    0  0.16872120969E+02 -0.32713568462E+02  0.96586806422E+00  0.54367096581E+02  0.40000028275E+02 0.  0.
         12    1    3    3    0    0 -0.16872120969E+02  0.32713568462E+02 -0.96586806422E+00  0.36820903419E+02  0.00000000000E+00 0. -1.
         11    1    4    4    0    0  0.28716830759E+01 -0.11286690575E+02  0.37411970058E+01  0.12232436516E+02  0.51100000000E-03 0. -1.
        -11    1    4    4    0    0  0.23717779891E+02 -0.99267625654E+01  0.32538912895E+01  0.25916433142E+02  0.51100000000E-03 0.  1.
         12    1    4    4    0    0 -0.97173419985E+01 -0.11500115321E+02 -0.60292202312E+01  0.16218226923E+02  0.00000000000E+00 0. -1.
</event>
<event>
 8    1  0.2531964E-006  0.9118800E+02  0.7816164E-02  0.1184000E+00
        -11   -1    0    0    0    0  0.00000000000E+00  0.00000000000E+00  0.45593999997E+02  0.45594000000E+02  0.51100000000E-03 0. -1.
         11   -1    0    0    0    0 -0.00000000000E+00 -0.00000000000E+00 -0.45593999997E+02  0.45594000000E+02  0.51100000000E-03 0.  1.
         23    2    1    2    0    0  0.71054273576E-14  0.00000000000E+00 -0.88817841970E-15  0.91188000000E+02  0.91188000000E+02 0.  0.
    9900012    2    3    3    0    0  0.36280407463E+02 -0.30012183992E+01 -0.55230490077E+01  0.54367090887E+02  0.40000015295E+02 0.  0.
        -12    1    3    3    0    0 -0.36280407463E+02  0.30012183992E+01  0.55230490077E+01  0.36820909113E+02  0.00000000000E+00 0.  1.
         11    1    4    4    0    0  0.78212968631E+01  0.71719865213E+01  0.11866923734E+02  0.15919609117E+02  0.51100000000E-03 0. -1.
        -11    1    4    4    0    0  0.18893392953E+02 -0.11517204995E+00 -0.43184715411E+01  0.19380989619E+02  0.51100000000E-03 0.  1.
         12    1    4    4    0    0  0.95657176468E+01 -0.10058032871E+02 -0.13071501200E+02  0.19066492151E+02  0.00000000000E+00 0. -1.
</event>
<event>
 8    1  0.2531964E-006  0.9118800E+02  0.7816164E-02  0.1184000E+00
        -11   -1    0    0    0    0  0.00000000000E+00  0.00000000000E+00  0.45593999997E+02  0.45594000000E+02  0.51100000000E-03 0.  1.
         11   -1    0    0    0    0 -0.00000000000E+00 -0.00000000000E+00 -0.45593999997E+02  0.45594000000E+02  0.51100000000E-03 0. -1.
         23    2    1    2    0    0  0.35527136788E-14  0.00000000000E+00  0.00000000000E+00  0.91188000000E+02  0.91188000000E+02 0.  0.
    9900012    2    3    3    0    0  0.19793165507E+02  0.22473932176E+02  0.21422716679E+02  0.54367084502E+02  0.40000000739E+02 0.  0.
         12    1    3    3    0    0 -0.19793165507E+02 -0.22473932176E+02 -0.21422716679E+02  0.36820915498E+02  0.00000000000E+00 0. -1.
         11    1    4    4    0    0  0.82576721761E+01  0.19995141194E+02 -0.38737246224E+01  0.21977273804E+02  0.51100000000E-03 0. -1.
        -11    1    4    4    0    0 -0.71412979422E+00  0.70826048837E+01  0.96706080346E+01  0.12008077836E+02  0.51100000000E-03 0.  1.
         12    1    4    4    0    0  0.12249623125E+02 -0.46038139022E+01  0.15625833266E+02  0.20381732861E+02  0.00000000000E+00 0. -1.
</event>
<event>
 8    1  0.2531964E-006  0.9118800E+02  0.7816164E-02  0.1184000E+00
        -11   -1    0    0    0    0  0.00000000000E+00  0.00000000000E+00  0.45593999997E+02  0.45594000000E+02  0.51100000000E-03 0. -1.
         11   -1    0    0    0    0 -0.00000000000E+00 -0.00000000000E+00 -0.45593999997E+02  0.45594000000E+02  0.51100000000E-03 0.  1.
         23    2    1    2    0    0  0.00000000000E+00  0.00000000000E+00  0.00000000000E+00  0.91188000000E+02  0.91188000000E+02 0.  0.
    9900012    2    3    3    0    0 -0.32321419622E+02  0.11880260002E+02  0.13037045871E+02  0.54367091414E+02  0.40000016495E+02 0.  0.
        -12    1    3    3    0    0  0.32321419622E+02 -0.11880260002E+02 -0.13037045871E+02  0.36820908586E+02  0.00000000000E+00 0.  1.
         11    1    4    4    0    0 -0.32964085637E+02  0.94799002592E+01  0.75031361732E+01  0.35111201966E+02  0.51100000000E-03 0. -1.
        -11    1    4    4    0    0 -0.44673196894E+01 -0.59749339472E+01  0.57867042563E+01  0.94415426331E+01  0.51100000000E-03 0.  1.
         12    1    4    4    0    0  0.51099857047E+01  0.83752936905E+01 -0.25279455858E+00  0.98143468144E+01  0.00000000000E+00 0. -1.
</event>
<event>
 8    1  0.2531964E-006  0.9118800E+02  0.7816164E-02  0.1184000E+00
        -11   -1    0    0    0    0  0.00000000000E+00  0.00000000000E+00  0.45593999997E+02  0.45594000000E+02  0.51100000000E-03 0. -1.
         11   -1    0    0    0    0 -0.00000000000E+00 -0.00000000000E+00 -0.45593999997E+02  0.45594000000E+02  0.51100000000E-03 0.  1.
         23    2    1    2    0    0  0.00000000000E+00  0.17763568394E-14  0.35527136788E-14  0.91188000000E+02  0.91188000000E+02 0.  0.
    9900012    2    3    3    0    0  0.29798343803E+02  0.46513909039E+01 -0.21123488392E+02  0.54367102502E+02  0.40000041773E+02 0.  0.
         12    1    3    3    0    0 -0.29798343803E+02 -0.46513909039E+01  0.21123488392E+02  0.36820897498E+02  0.00000000000E+00 0. -1.
         11    1    4    4    0    0 -0.39023962658E+01  0.86804045375E+00  0.20433958581E+01  0.44897280250E+01  0.51100000000E-03 0.  1.
        -11    1    4    4    0    0  0.22947002504E+02  0.14045327975E+02 -0.67642890402E+01  0.27741517051E+02  0.51100000000E-03 0. -1.
        -12    1    4    4    0    0  0.10753737565E+02 -0.10261977525E+02 -0.16402595210E+02  0.22135857425E+02  0.00000000000E+00 0.  1.
</event>
<event>
 8    1  0.2531964E-006  0.9118800E+02  0.7816164E-02  0.1184000E+00
        -11   -1    0    0    0    0  0.00000000000E+00  0.00000000000E+00  0.45593999997E+02  0.45594000000E+02  0.51100000000E-03 0.  1.
         11   -1    0    0    0    0 -0.00000000000E+00 -0.00000000000E+00 -0.45593999997E+02  0.45594000000E+02  0.51100000000E-03 0. -1.
         23    2    1    2    0    0  0.17763568394E-14  0.00000000000E+00  0.00000000000E+00  0.91188000000E+02  0.91188000000E+02 0.  0.
    9900012    2    3    3    0    0 -0.10146855202E+02  0.32024172122E+02 -0.15075684209E+02  0.54367047745E+02  0.39999916945E+02 0.  0.
        -12    1    3    3    0    0  0.10146855202E+02 -0.32024172122E+02  0.15075684209E+02  0.36820952255E+02  0.00000000000E+00 0.  1.
         11    1    4    4    0    0  0.11099555196E+01  0.62462701713E+01  0.53496337098E+01  0.82985826138E+01  0.51100000000E-03 0. -1.
        -11    1    4    4    0    0  0.24659855423E+01  0.26292014589E+02 -0.18404509116E+02  0.32188151110E+02  0.51100000000E-03 0.  1.
        -12    1    4    4    0    0 -0.13722796264E+02 -0.51411263844E+00 -0.20208088022E+01  0.13880314021E+02  0.00000000000E+00 0.  1.
</event>
<event>
 8    1  0.2531964E-006  0.9118800E+02  0.7816164E-02  0.1184000E+00
        -11   -1    0    0    0    0  0.00000000000E+00  0.00000000000E+00  0.45593999997E+02  0.45594000000E+02  0.51100000000E-03 0.  1.
         11   -1    0    0    0    0 -0.00000000000E+00 -0.00000000000E+00 -0.45593999997E+02  0.45594000000E+02  0.51100000000E-03 0. -1.
         23    2    1    2    0    0  0.88817841970E-15  0.00000000000E+00 -0.17763568394E-14  0.91188000000E+02  0.91188000000E+02 0.  0.
    9900012    2    3    3    0    0 -0.46450502300E+01 -0.34434076521E+02 -0.12185818774E+02  0.54367132320E+02  0.40000109750E+02 0.  0.
        -12    1    3    3    0    0  0.46450502300E+01  0.34434076521E+02  0.12185818774E+02  0.36820867680E+02  0.00000000000E+00 0.  1.
         11    1    4    4    0    0 -0.60105505715E+01 -0.11497473703E+02 -0.13983743122E+02  0.19075211445E+02  0.51100000000E-03 0. -1.
        -11    1    4    4    0    0  0.37177045590E+01 -0.20089104282E+02 -0.10131095493E+02  0.22804221850E+02  0.51100000000E-03 0.  1.
        -12    1    4    4    0    0 -0.23522042176E+01 -0.28474985368E+01  0.11929019840E+02  0.12487699025E+02  0.00000000000E+00 0.  1.
</event>
<event>
 8    1  0.2531964E-006  0.9118800E+02  0.7816164E-02  0.1184000E+00
        -11   -1    0    0    0    0  0.00000000000E+00  0.00000000000E+00  0.45593999997E+02  0.45594000000E+02  0.51100000000E-03 0.  1.
         11   -1    0    0    0    0 -0.00000000000E+00 -0.00000000000E+00 -0.45593999997E+02  0.45594000000E+02  0.51100000000E-03 0. -1.
         23    2    1    2    0    0  0.11102230246E-14 -0.35527136788E-14  0.00000000000E+00  0.91188000000E+02  0.91188000000E+02 0.  0.
    9900012    2    3    3    0    0 -0.13817811581E+01  0.24997648261E+02 -0.26999777226E+02  0.54367085997E+02  0.40000004148E+02 0.  0.
        -12    1    3    3    0    0  0.13817811581E+01 -0.24997648261E+02  0.26999777226E+02  0.36820914003E+02  0.00000000000E+00 0.  1.
         11    1    4    4    0    0 -0.18816910798E+02  0.13909126472E+02 -0.81497045826E+01  0.24778168137E+02  0.51100000000E-03 0. -1.
        -11    1    4    4    0    0  0.99437420389E+01  0.77555381437E+01 -0.51478776717E+01  0.13620830460E+02  0.51100000000E-03 0.  1.
        -12    1    4    4    0    0  0.74913876014E+01  0.33329836455E+01 -0.13702194971E+02  0.15968087400E+02  0.00000000000E+00 0.  1.
</event>
<event>
 8    1  0.2531964E-006  0.9118800E+02  0.7816164E-02  0.1184000E+00
        -11   -1    0    0    0    0  0.00000000000E+00  0.00000000000E+00  0.45593999997E+02  0.45594000000E+02  0.51100000000E-03 0. -1.
         11   -1    0    0    0    0 -0.00000000000E+00 -0.00000000000E+00 -0.45593999997E+02  0.45594000000E+02  0.51100000000E-03 0.  1.
         23    2    1    2    0    0  0.00000000000E+00  0.71054273576E-14  0.17763568394E-14  0.91188000000E+02  0.91188000000E+02 0.  0.
    9900012    2    3    3    0    0 -0.78258412757E+01 -0.35292592339E+02 -0.69977364375E+01  0.54367093154E+02  0.40000020464E+02 0.  0.
        -12    1    3    3    0    0  0.78258412757E+01  0.35292592339E+02  0.69977364375E+01  0.36820906846E+02  0.00000000000E+00 0.  1.
         11    1    4    4    0    0  0.12724456736E+01 -0.96372266891E+01 -0.14217143756E+02  0.17222730129E+02  0.51100000000E-03 0. -1.
        -11    1    4    4    0    0 -0.72115217761E+01  0.23781411011E+01 -0.14698885259E+01  0.77344795535E+01  0.51100000000E-03 0.  1.
         12    1    4    4    0    0 -0.18867651731E+01 -0.28033506751E+02  0.86892958443E+01  0.29409883472E+02  0.00000000000E+00 0. -1.
</event>
<event>
 8    1  0.2531964E-006  0.9118800E+02  0.7816164E-02  0.1184000E+00
        -11   -1    0    0    0    0  0.00000000000E+00  0.00000000000E+00  0.45593999997E+02  0.45594000000E+02  0.51100000000E-03 0.  1.
         11   -1    0    0    0    0 -0.00000000000E+00 -0.00000000000E+00 -0.45593999997E+02  0.45594000000E+02  0.51100000000E-03 0. -1.
         23    2    1    2    0    0 -0.88817841970E-15  0.71054273576E-14  0.00000000000E+00  0.91188000000E+02  0.91188000000E+02 0.  0.
    9900012    2    3    3    0    0  0.55513205406E+01 -0.35930117474E+02  0.58301693929E+01  0.54367063340E+02  0.39999952495E+02 0.  0.
         12    1    3    3    0    0 -0.55513205406E+01  0.35930117474E+02 -0.58301693929E+01  0.36820936660E+02  0.00000000000E+00 0. -1.
         11    1    4    4    0    0  0.54337736597E+01  0.29301789225E+01 -0.62361075754E+01  0.87750146812E+01  0.51100000000E-03 0. -1.
        -11    1    4    4    0    0  0.30580310830E+01 -0.13923344152E+02 -0.51390376797E+01  0.15153243052E+02  0.51100000000E-03 0.  1.
        -12    1    4    4    0    0 -0.29404842021E+01 -0.24936952244E+02  0.17205314648E+02  0.30438805606E+02  0.00000000000E+00 0.  1.
</event>
<event>
 8    1  0.2531964E-006  0.9118800E+02  0.7816164E-02  0.1184000E+00
        -11   -1    0    0    0    0  0.00000000000E+00  0.00000000000E+00  0.45593999997E+02  0.45594000000E+02  0.51100000000E-03 0.  1.
         11   -1    0    0    0    0 -0.00000000000E+00 -0.00000000000E+00 -0.45593999997E+02  0.45594000000E+02  0.51100000000E-03 0. -1.
         23    2    1    2    0    0  0.00000000000E+00  0.17763568394E-14 -0.71054273576E-14  0.91188000000E+02  0.91188000000E+02 0.  0.
    9900012    2    3    3    0    0  0.37769410519E+01 -0.98319361560E+01 -0.35282408395E+02  0.54367073960E+02  0.39999976707E+02 0.  0.
        -12    1    3    3    0    0 -0.37769410519E+01  0.98319361560E+01  0.35282408395E+02  0.36820926040E+02  0.00000000000E+00 0.  1.
         11    1    4    4    0    0 -0.84118899903E+01 -0.20409622358E+01 -0.19978447740E+02  0.21773006095E+02  0.51100000000E-03 0. -1.
        -11    1    4    4    0    0  0.10594366472E+02  0.62210748636E+01 -0.13697947839E+02  0.18400438817E+02  0.51100000000E-03 0.  1.
        -12    1    4    4    0    0  0.15944645704E+01 -0.14012048784E+02 -0.16060128162E+01  0.14193629048E+02  0.00000000000E+00 0.  1.
</event>
<event>
 8    1  0.2531964E-006  0.9118800E+02  0.7816164E-02  0.1184000E+00
        -11   -1    0    0    0    0  0.00000000000E+00  0.00000000000E+00  0.45593999997E+02  0.45594000000E+02  0.51100000000E-03 0.  1.
         11   -1    0    0    0    0 -0.00000000000E+00 -0.00000000000E+00 -0.45593999997E+02  0.45594000000E+02  0.51100000000E-03 0. -1.
         23    2    1    2    0    0  0.00000000000E+00 -0.88817841970E-15  0.35527136788E-14  0.91188000000E+02  0.91188000000E+02 0.  0.
    9900012    2    3    3    0    0  0.18340379958E+02 -0.12140849658E+01 -0.31905090797E+02  0.54367104328E+02  0.40000045936E+02 0.  0.
        -12    1    3    3    0    0 -0.18340379958E+02  0.12140849658E+01  0.31905090797E+02  0.36820895672E+02  0.00000000000E+00 0.  1.
         11    1    4    4    0    0  0.10718004351E+02 -0.88263266240E+01 -0.45495229841E+01  0.14610880144E+02  0.51100000000E-03 0. -1.
        -11    1    4    4    0    0  0.47324438296E+01  0.54333080619E+01  0.39670283577E+01  0.82252158238E+01  0.51100000000E-03 0.  1.
         12    1    4    4    0    0  0.28899317770E+01  0.21789335963E+01 -0.31322596171E+02  0.31531008360E+02  0.00000000000E+00 0. -1.
</event>
<event>
 8    1  0.2531964E-006  0.9118800E+02  0.7816164E-02  0.1184000E+00
        -11   -1    0    0    0    0  0.00000000000E+00  0.00000000000E+00  0.45593999997E+02  0.45594000000E+02  0.51100000000E-03 0.  1.
         11   -1    0    0    0    0 -0.00000000000E+00 -0.00000000000E+00 -0.45593999997E+02  0.45594000000E+02  0.51100000000E-03 0. -1.
         23    2    1    2    0    0  0.00000000000E+00 -0.17763568394E-14  0.00000000000E+00  0.91188000000E+02  0.91188000000E+02 0.  0.
    9900012    2    3    3    0    0 -0.29877277445E+02  0.10346685629E+02 -0.18869922519E+02  0.54367087642E+02  0.40000007897E+02 0.  0.
        -12    1    3    3    0    0  0.29877277445E+02 -0.10346685629E+02  0.18869922519E+02  0.36820912358E+02  0.00000000000E+00 0.  1.
         11    1    4    4    0    0 -0.32769826131E+02  0.95204505085E+01 -0.15020790314E+02  0.37284375072E+02  0.51100000000E-03 0. -1.
        -11    1    4    4    0    0 -0.50337787046E+01 -0.47037050038E+01 -0.73414546673E+00  0.69284008716E+01  0.51100000000E-03 0.  1.
         12    1    4    4    0    0  0.79263273914E+01  0.55299401248E+01 -0.31149867378E+01  0.10154311699E+02  0.00000000000E+00 0. -1.
</event>
<event>
 8    1  0.2531964E-006  0.9118800E+02  0.7816164E-02  0.1184000E+00
        -11   -1    0    0    0    0  0.00000000000E+00  0.00000000000E+00  0.45593999997E+02  0.45594000000E+02  0.51100000000E-03 0.  1.
         11   -1    0    0    0    0 -0.00000000000E+00 -0.00000000000E+00 -0.45593999997E+02  0.45594000000E+02  0.51100000000E-03 0. -1.
         23    2    1    2    0    0  0.00000000000E+00  0.00000000000E+00  0.00000000000E+00  0.91188000000E+02  0.91188000000E+02 0.  0.
    9900012    2    3    3    0    0 -0.34813319579E+02  0.25422913214E+01 -0.11719787557E+02  0.54367029268E+02  0.39999874823E+02 0.  0.
        -12    1    3    3    0    0  0.34813319579E+02 -0.25422913214E+01  0.11719787557E+02  0.36820970732E+02  0.00000000000E+00 0.  1.
         11    1    4    4    0    0 -0.83263282732E+01 -0.28788943606E+01 -0.99258913891E+01  0.13271740481E+02  0.51100000000E-03 0. -1.
        -11    1    4    4    0    0 -0.33164110133E+00  0.12870271769E+01 -0.12472507130E+02  0.12543119992E+02  0.51100000000E-03 0.  1.
        -12    1    4    4    0    0 -0.26155350204E+02  0.41341585051E+01  0.10678610962E+02  0.28552168795E+02  0.00000000000E+00 0.  1.
</event>
<event>
 8    1  0.2531964E-006  0.9118800E+02  0.7816164E-02  0.1184000E+00
        -11   -1    0    0    0    0  0.00000000000E+00  0.00000000000E+00  0.45593999997E+02  0.45594000000E+02  0.51100000000E-03 0. -1.
         11   -1    0    0    0    0 -0.00000000000E+00 -0.00000000000E+00 -0.45593999997E+02  0.45594000000E+02  0.51100000000E-03 0.  1.
         23    2    1    2    0    0  0.35527136788E-14  0.00000000000E+00  0.35527136788E-14  0.91188000000E+02  0.91188000000E+02 0.  0.
    9900012    2    3    3    0    0 -0.22665889240E+02  0.17167122940E+02 -0.23395035285E+02  0.54367077672E+02  0.39999985169E+02 0.  0.
         12    1    3    3    0    0  0.22665889240E+02 -0.17167122940E+02  0.23395035285E+02  0.36820922328E+02  0.00000000000E+00 0. -1.
         11    1    4    4    0    0  0.48381025108E+01  0.11674921686E+02  0.27159786853E+01  0.12926235831E+02  0.51100000000E-03 0. -1.
        -11    1    4    4    0    0 -0.20752010853E+02  0.47867669780E+01 -0.91643850784E+01  0.23185017720E+02  0.51100000000E-03 0.  1.
         12    1    4    4    0    0 -0.67519808977E+01  0.70543427665E+00 -0.16946628892E+02  0.18255824121E+02  0.00000000000E+00 0. -1.
</event>
<event>
 8    1  0.2531964E-006  0.9118800E+02  0.7816164E-02  0.1184000E+00
        -11   -1    0    0    0    0  0.00000000000E+00  0.00000000000E+00  0.45593999997E+02  0.45594000000E+02  0.51100000000E-03 0. -1.
         11   -1    0    0    0    0 -0.00000000000E+00 -0.00000000000E+00 -0.45593999997E+02  0.45594000000E+02  0.51100000000E-03 0.  1.
         23    2    1    2    0    0  0.35527136788E-14  0.00000000000E+00  0.00000000000E+00  0.91188000000E+02  0.91188000000E+02 0.  0.
    9900012    2    3    3    0    0 -0.17742998450E+02  0.24840066336E+02 -0.20589741922E+02  0.54367077116E+02  0.39999983902E+02 0.  0.
        -12    1    3    3    0    0  0.17742998450E+02 -0.24840066336E+02  0.20589741922E+02  0.36820922884E+02  0.00000000000E+00 0.  1.
         11    1    4    4    0    0  0.79555636373E+01 -0.38882029152E+01 -0.19488656880E+00  0.88570365097E+01  0.51100000000E-03 0. -1.
        -11    1    4    4    0    0 -0.15645953200E+02  0.12411445357E+02 -0.41749636332E+01  0.20402699551E+02  0.51100000000E-03 0.  1.
         12    1    4    4    0    0 -0.10052608888E+02  0.16316823895E+02 -0.16219891720E+02  0.25107341055E+02  0.00000000000E+00 0. -1.
</event>
<event>
 8    1  0.2531964E-006  0.9118800E+02  0.7816164E-02  0.1184000E+00
        -11   -1    0    0    0    0  0.00000000000E+00  0.00000000000E+00  0.45593999997E+02  0.45594000000E+02  0.51100000000E-03 0. -1.
         11   -1    0    0    0    0 -0.00000000000E+00 -0.00000000000E+00 -0.45593999997E+02  0.45594000000E+02  0.51100000000E-03 0.  1.
         23    2    1    2    0    0 -0.35527136788E-14 -0.17763568394E-14  0.00000000000E+00  0.91188000000E+02  0.91188000000E+02 0.  0.
    9900012    2    3    3    0    0 -0.31738111405E+02  0.12133504040E+02 -0.14186351987E+02  0.54367051906E+02  0.39999926431E+02 0.  0.
         12    1    3    3    0    0  0.31738111405E+02 -0.12133504040E+02  0.14186351987E+02  0.36820948094E+02  0.00000000000E+00 0. -1.
         11    1    4    4    0    0 -0.11253562490E+02 -0.60672429929E+01 -0.16205391297E+02  0.20641434388E+02  0.51100000000E-03 0. -1.
        -11    1    4    4    0    0 -0.21006321519E+02  0.13749192764E+02 -0.48047352521E+01  0.25561520426E+02  0.51100000000E-03 0.  1.
         12    1    4    4    0    0  0.52177260364E+00  0.44515542683E+01  0.68237745620E+01  0.81640970919E+01  0.00000000000E+00 0. -1.
</event>
<event>
 8    1  0.2531964E-006  0.9118800E+02  0.7816164E-02  0.1184000E+00
        -11   -1    0    0    0    0  0.00000000000E+00  0.00000000000E+00  0.45593999997E+02  0.45594000000E+02  0.51100000000E-03 0.  1.
         11   -1    0    0    0    0 -0.00000000000E+00 -0.00000000000E+00 -0.45593999997E+02  0.45594000000E+02  0.51100000000E-03 0. -1.
         23    2    1    2    0    0  0.71054273576E-14  0.00000000000E+00 -0.17763568394E-14  0.91188000000E+02  0.91188000000E+02 0.  0.
    9900012    2    3    3    0    0 -0.34867181673E+02 -0.63223371229E+01  0.10004709216E+02  0.54366993618E+02  0.39999793550E+02 0.  0.
         12    1    3    3    0    0  0.34867181673E+02  0.63223371229E+01 -0.10004709216E+02  0.36821006382E+02  0.00000000000E+00 0. -1.
         11    1    4    4    0    0  0.54097924790E+01 -0.66497256038E+01  0.71683076552E+01  0.11174495075E+02  0.51100000000E-03 0.  1.
        -11    1    4    4    0    0 -0.33188194654E+02 -0.55608634715E+01  0.37023935874E+00  0.33652883151E+02  0.51100000000E-03 0. -1.
         12    1    4    4    0    0 -0.70887794976E+01  0.58882519525E+01  0.24661622016E+01  0.95396153919E+01  0.00000000000E+00 0. -1.
</event>
<event>
 8    1  0.2531964E-006  0.9118800E+02  0.7816164E-02  0.1184000E+00
        -11   -1    0    0    0    0  0.00000000000E+00  0.00000000000E+00  0.45593999997E+02  0.45594000000E+02  0.51100000000E-03 0. -1.
         11   -1    0    0    0    0 -0.00000000000E+00 -0.00000000000E+00 -0.45593999997E+02  0.45594000000E+02  0.51100000000E-03 0.  1.
         23    2    1    2    0    0  0.17763568394E-14  0.35527136788E-14 -0.35527136788E-14  0.91188000000E+02  0.91188000000E+02 0.  0.
    9900012    2    3    3    0    0 -0.14969042298E+02  0.22049154075E+02 -0.25407535916E+02  0.54367077903E+02  0.39999985696E+02 0.  0.
         12    1    3    3    0    0  0.14969042298E+02 -0.22049154075E+02  0.25407535916E+02  0.36820922097E+02  0.00000000000E+00 0. -1.
         11    1    4    4    0    0 -0.13426011357E+02  0.18934743321E+02 -0.25619870514E+01  0.23352645750E+02  0.51100000000E-03 0. -1.
        -11    1    4    4    0    0  0.33116384001E+01  0.28082659253E+01  0.26314710102E+01  0.50771986704E+01  0.51100000000E-03 0.  1.
        -12    1    4    4    0    0 -0.48546693412E+01  0.30614482819E+00 -0.25477019874E+02  0.25937233483E+02  0.00000000000E+00 0.  1.
</event>
<event>
 8    1  0.2531964E-006  0.9118800E+02  0.7816164E-02  0.1184000E+00
        -11   -1    0    0    0    0  0.00000000000E+00  0.00000000000E+00  0.45593999997E+02  0.45594000000E+02  0.51100000000E-03 0. -1.
         11   -1    0    0    0    0 -0.00000000000E+00 -0.00000000000E+00 -0.45593999997E+02  0.45594000000E+02  0.51100000000E-03 0.  1.
         23    2    1    2    0    0 -0.66613381478E-15  0.00000000000E+00  0.71054273576E-14  0.91188000000E+02  0.91188000000E+02 0.  0.
    9900012    2    3    3    0    0 -0.33477848919E+00 -0.14596854878E+02  0.33802237855E+02  0.54367197008E+02  0.40000257219E+02 0.  0.
        -12    1    3    3    0    0  0.33477848919E+00  0.14596854878E+02 -0.33802237855E+02  0.36820802992E+02  0.00000000000E+00 0.  1.
         11    1    4    4    0    0  0.10080971510E+02  0.68597068774E+01  0.79875256889E+01  0.14576766854E+02  0.51100000000E-03 0.  1.
        -11    1    4    4    0    0 -0.64544225605E+01 -0.22906650525E+02  0.14873373601E+02  0.28064059781E+02  0.51100000000E-03 0. -1.
         12    1    4    4    0    0 -0.39613274389E+01  0.14500887698E+01  0.10941338565E+02  0.11726370373E+02  0.00000000000E+00 0. -1.
</event>
<event>
 8    1  0.2531964E-006  0.9118800E+02  0.7816164E-02  0.1184000E+00
        -11   -1    0    0    0    0  0.00000000000E+00  0.00000000000E+00  0.45593999997E+02  0.45594000000E+02  0.51100000000E-03 0.  1.
         11   -1    0    0    0    0 -0.00000000000E+00 -0.00000000000E+00 -0.45593999997E+02  0.45594000000E+02  0.51100000000E-03 0. -1.
         23    2    1    2    0    0  0.35527136788E-14 -0.17763568394E-14  0.00000000000E+00  0.91188000000E+02  0.91188000000E+02 0.  0.
    9900012    2    3    3    0    0 -0.28397796917E+02  0.15817328425E+02  0.17296140778E+02  0.54367092433E+02  0.40000018819E+02 0.  0.
         12    1    3    3    0    0  0.28397796917E+02 -0.15817328425E+02 -0.17296140778E+02  0.36820907567E+02  0.00000000000E+00 0. -1.
         11    1    4    4    0    0 -0.10784385619E+02  0.10542801944E+02 -0.86497855504E+01  0.17385983905E+02  0.51100000000E-03 0. -1.
        -11    1    4    4    0    0 -0.20769661030E+02  0.27878090443E+01  0.16355530231E+02  0.26582965748E+02  0.51100000000E-03 0.  1.
         12    1    4    4    0    0  0.31562497312E+01  0.24867174366E+01  0.95903960975E+01  0.10398142780E+02  0.00000000000E+00 0. -1.
</event>
<event>
 8    1  0.2531964E-006  0.9118800E+02  0.7816164E-02  0.1184000E+00
        -11   -1    0    0    0    0  0.00000000000E+00  0.00000000000E+00  0.45593999997E+02  0.45594000000E+02  0.51100000000E-03 0.  1.
         11   -1    0    0    0    0 -0.00000000000E+00 -0.00000000000E+00 -0.45593999997E+02  0.45594000000E+02  0.51100000000E-03 0. -1.
         23    2    1    2    0    0  0.00000000000E+00  0.00000000000E+00  0.00000000000E+00  0.91188000000E+02  0.91188000000E+02 0.  0.
    9900012    2    3    3    0    0 -0.10779048769E+02  0.32079467861E+02  0.14508627025E+02  0.54367076481E+02  0.39999982454E+02 0.  0.
        -12    1    3    3    0    0  0.10779048769E+02 -0.32079467861E+02 -0.14508627025E+02  0.36820923519E+02  0.00000000000E+00 0.  1.
         11    1    4    4    0    0 -0.27484752985E+01  0.51541296652E+00  0.12700486193E+02  0.13004695951E+02  0.51100000000E-03 0. -1.
        -11    1    4    4    0    0  0.40515600870E+01  0.12956083063E+02  0.10876144760E+02  0.17394417282E+02  0.51100000000E-03 0.  1.
         12    1    4    4    0    0 -0.12082133558E+02  0.18607971831E+02 -0.90680039287E+01  0.23967963248E+02  0.00000000000E+00 0. -1.
</event>
<event>
 8    1  0.2531964E-006  0.9118800E+02  0.7816164E-02  0.1184000E+00
        -11   -1    0    0    0    0  0.00000000000E+00  0.00000000000E+00  0.45593999997E+02  0.45594000000E+02  0.51100000000E-03 0.  1.
         11   -1    0    0    0    0 -0.00000000000E+00 -0.00000000000E+00 -0.45593999997E+02  0.45594000000E+02  0.51100000000E-03 0. -1.
         23    2    1    2    0    0 -0.17763568394E-14 -0.35527136788E-14 -0.17763568394E-14  0.91188000000E+02  0.91188000000E+02 0.  0.
    9900012    2    3    3    0    0 -0.90207015034E+01 -0.31935505166E+02 -0.15954009212E+02  0.54367082633E+02  0.39999996478E+02 0.  0.
        -12    1    3    3    0    0  0.90207015034E+01  0.31935505166E+02  0.15954009212E+02  0.36820917367E+02  0.00000000000E+00 0.  1.
         11    1    4    4    0    0 -0.59880328711E+01 -0.10284294962E+02 -0.15607101827E+02  0.19626637211E+02  0.51100000000E-03 0. -1.
        -11    1    4    4    0    0 -0.10707552421E+01  0.64603847267E+01 -0.39518229691E+00  0.65604311531E+01  0.51100000000E-03 0.  1.
        -12    1    4    4    0    0 -0.19619133903E+01 -0.28111594930E+02  0.48274911403E-01  0.28180014268E+02  0.00000000000E+00 0.  1.
</event>
