<event>
 8    1  0.2514877E-006  0.9118800E+02  0.7816164E-02  0.1184000E+00
        -11   -1    0    0    0    0  0.00000000000E+00  0.00000000000E+00  0.45593999997E+02  0.45594000000E+02  0.51100000000E-03 0.  1.
         11   -1    0    0    0    0 -0.00000000000E+00 -0.00000000000E+00 -0.45593999997E+02  0.45594000000E+02  0.51100000000E-03 0. -1.
         23    2    1    2    0    0  0.55511151231E-15  0.88817841970E-15  0.00000000000E+00  0.91188000000E+02  0.91188000000E+02 0.  0.
    9900012    2    3    3    0    0 -0.52914426004E+00 -0.56896565551E+01  0.36374877268E+02  0.54367029323E+02  0.39999874948E+02 0.  0.
         12    1    3    3    0    0  0.52914426004E+00  0.56896565551E+01 -0.36374877268E+02  0.36820970677E+02  0.00000000000E+00 0. -1.
         11    1    4    4    0    0  0.40897516802E+00 -0.18102179977E+02  0.15177315526E+02  0.23626406571E+02  0.51100000000E-03 0. -1.
        -11    1    4    4    0    0  0.55557204687E+01  0.83166803919E+01  0.20768134454E+02  0.23051000230E+02  0.51100000000E-03 0.  1.
         12    1    4    4    0    0 -0.64938398968E+01  0.40958430302E+01  0.42942728779E+00  0.76896225219E+01  0.00000000000E+00 0. -1.
</event>
<event>
 8    1  0.2514877E-006  0.9118800E+02  0.7816164E-02  0.1184000E+00
        -11   -1    0    0    0    0  0.00000000000E+00  0.00000000000E+00  0.45593999997E+02  0.45594000000E+02  0.51100000000E-03 0. -1.
         11   -1    0    0    0    0 -0.00000000000E+00 -0.00000000000E+00 -0.45593999997E+02  0.45594000000E+02  0.51100000000E-03 0.  1.
         23    2    1    2    0    0  0.00000000000E+00  0.00000000000E+00  0.00000000000E+00  0.91188000000E+02  0.91188000000E+02 0.  0.
    9900012    2    3    3    0    0  0.69488388099E+01 -0.24605651356E+02 -0.26496398940E+02  0.54367033197E+02  0.39999883780E+02 0.  0.
         12    1    3    3    0    0 -0.69488388099E+01  0.24605651356E+02  0.26496398940E+02  0.36820966803E+02  0.00000000000E+00 0. -1.
         11    1    4    4    0    0 -0.16108981224E+01 -0.18002994903E+01  0.74996666905E+01  0.78791542532E+01  0.51100000000E-03 0. -1.
        -11    1    4    4    0    0  0.15006928371E+02 -0.18969472910E+02 -0.25270237719E+02  0.34980476215E+02  0.51100000000E-03 0.  1.
        -12    1    4    4    0    0 -0.64471914390E+01 -0.38358789560E+01 -0.87258279117E+01  0.11507402729E+02  0.00000000000E+00 0.  1.
</event>
<event>
 8    1  0.2514877E-006  0.9118800E+02  0.7816164E-02  0.1184000E+00
        -11   -1    0    0    0    0  0.00000000000E+00  0.00000000000E+00  0.45593999997E+02  0.45594000000E+02  0.51100000000E-03 0.  1.
         11   -1    0    0    0    0 -0.00000000000E+00 -0.00000000000E+00 -0.45593999997E+02  0.45594000000E+02  0.51100000000E-03 0. -1.
         23    2    1    2    0    0 -0.35527136788E-14  0.00000000000E+00  0.13322676296E-14  0.91188000000E+02  0.91188000000E+02 0.  0.
    9900012    2    3    3    0    0 -0.29217890348E+02 -0.22277326645E+02  0.24115935993E+01  0.54367079553E+02  0.39999989458E+02 0.  0.
        -12    1    3    3    0    0  0.29217890348E+02  0.22277326645E+02 -0.24115935993E+01  0.36820920447E+02  0.00000000000E+00 0.  1.
         11    1    4    4    0    0 -0.68203639595E+01 -0.60901202693E+01 -0.12858826544E+02  0.15778350668E+02  0.51100000000E-03 0. -1.
        -11    1    4    4    0    0 -0.21834525895E+02 -0.19905251027E+02  0.83345213797E+01  0.30699019307E+02  0.51100000000E-03 0.  1.
        -12    1    4    4    0    0 -0.56300049333E+00  0.37180446504E+01  0.69358987641E+01  0.78897095791E+01  0.00000000000E+00 0.  1.
</event>
<event>
 8    1  0.2514877E-006  0.9118800E+02  0.7816164E-02  0.1184000E+00
        -11   -1    0    0    0    0  0.00000000000E+00  0.00000000000E+00  0.45593999997E+02  0.45594000000E+02  0.51100000000E-03 0.  1.
         11   -1    0    0    0    0 -0.00000000000E+00 -0.00000000000E+00 -0.45593999997E+02  0.45594000000E+02  0.51100000000E-03 0. -1.
         23    2    1    2    0    0  0.88817841970E-15 -0.71054273576E-14 -0.17763568394E-14  0.91188000000E+02  0.91188000000E+02 0.  0.
    9900012    2    3    3    0    0  0.46368757894E+01 -0.35637492365E+02 -0.80155092815E+01  0.54367083821E+02  0.39999999188E+02 0.  0.
         12    1    3    3    0    0 -0.46368757894E+01  0.35637492365E+02  0.80155092815E+01  0.36820916179E+02  0.00000000000E+00 0. -1.
         11    1    4    4    0    0 -0.12350241253E+01 -0.27194246492E+01 -0.54640190305E+01  0.62270425757E+01  0.51100000000E-03 0. -1.
        -11    1    4    4    0    0  0.98499933169E+01  0.35542703830E+01  0.33182760768E+01  0.10984815095E+02  0.51100000000E-03 0.  1.
         12    1    4    4    0    0 -0.39780934021E+01 -0.36472338099E+02 -0.58697663278E+01  0.37155226150E+02  0.00000000000E+00 0. -1.
</event>
<event>
 8    1  0.2514877E-006  0.9118800E+02  0.7816164E-02  0.1184000E+00
        -11   -1    0    0    0    0  0.00000000000E+00  0.00000000000E+00  0.45593999997E+02  0.45594000000E+02  0.51100000000E-03 0.  1.
         11   -1    0    0    0    0 -0.00000000000E+00 -0.00000000000E+00 -0.45593999997E+02  0.45594000000E+02  0.51100000000E-03 0. -1.
         23    2    1    2    0    0  0.00000000000E+00  0.00000000000E+00  0.00000000000E+00  0.91188000000E+02  0.91188000000E+02 0.  0.
    9900012    2    3    3    0    0 -0.21206403524E+02  0.89481186839E+01  0.28740195249E+02  0.54367092877E+02  0.40000019832E+02 0.  0.
         12    1    3    3    0    0  0.21206403524E+02 -0.89481186839E+01 -0.28740195249E+02  0.36820907123E+02  0.00000000000E+00 0. -1.
         11    1    4    4    0    0  0.55226400136E+01  0.32335259513E+01  0.28384034523E+01  0.70008411792E+01  0.51100000000E-03 0. -1.
        -11    1    4    4    0    0 -0.10641917018E+01  0.10264021661E+02 -0.41360139651E+00  0.10327328358E+02  0.51100000000E-03 0.  1.
         12    1    4    4    0    0 -0.25664851836E+02 -0.45494289281E+01  0.26315393193E+02  0.37038923340E+02  0.00000000000E+00 0. -1.
</event>
<event>
 8    1  0.2514877E-006  0.9118800E+02  0.7816164E-02  0.1184000E+00
        -11   -1    0    0    0    0  0.00000000000E+00  0.00000000000E+00  0.45593999997E+02  0.45594000000E+02  0.51100000000E-03 0.  1.
         11   -1    0    0    0    0 -0.00000000000E+00 -0.00000000000E+00 -0.45593999997E+02  0.45594000000E+02  0.51100000000E-03 0. -1.
         23    2    1    2    0    0 -0.44408920985E-15  0.71054273576E-14 -0.14432899320E-14  0.91188000000E+02  0.91188000000E+02 0.  0.
    9900012    2    3    3    0    0  0.33080448582E+01  0.36663629671E+02 -0.78428388912E+00  0.54367081996E+02  0.39999995025E+02 0.  0.
         12    1    3    3    0    0 -0.33080448582E+01 -0.36663629671E+02  0.78428388912E+00  0.36820918004E+02  0.00000000000E+00 0. -1.
         11    1    4    4    0    0 -0.18785971670E+01  0.33544045577E+02 -0.11912284644E+01  0.33617720721E+02  0.51100000000E-03 0. -1.
        -11    1    4    4    0    0  0.16996546933E+01  0.44941097456E+01  0.96474056283E+01  0.10777675264E+02  0.51100000000E-03 0.  1.
         12    1    4    4    0    0  0.34869873320E+01 -0.13745256507E+01 -0.92404610530E+01  0.99716860104E+01  0.00000000000E+00 0. -1.
</event>
<event>
 8    1  0.2514877E-006  0.9118800E+02  0.7816164E-02  0.1184000E+00
        -11   -1    0    0    0    0  0.00000000000E+00  0.00000000000E+00  0.45593999997E+02  0.45594000000E+02  0.51100000000E-03 0. -1.
         11   -1    0    0    0    0 -0.00000000000E+00 -0.00000000000E+00 -0.45593999997E+02  0.45594000000E+02  0.51100000000E-03 0.  1.
         23    2    1    2    0    0  0.00000000000E+00  0.00000000000E+00  0.71054273576E-14  0.91188000000E+02  0.91188000000E+02 0.  0.
    9900012    2    3    3    0    0  0.11364957408E+02 -0.45859647346E+01  0.34721576692E+02  0.54367065501E+02  0.39999957423E+02 0.  0.
        -12    1    3    3    0    0 -0.11364957408E+02  0.45859647346E+01 -0.34721576692E+02  0.36820934499E+02  0.00000000000E+00 0.  1.
         11    1    4    4    0    0  0.15447261520E+02  0.43778902927E+01  0.30233311812E+02  0.34232104160E+02  0.51100000000E-03 0. -1.
        -11    1    4    4    0    0 -0.88463971861E+01  0.29384717138E+00  0.14149616385E+00  0.88524070603E+01  0.51100000000E-03 0.  1.
        -12    1    4    4    0    0  0.47640930740E+01 -0.92577021987E+01  0.43467687159E+01  0.11282554280E+02  0.00000000000E+00 0.  1.
</event>
<event>
 8    1  0.2514877E-006  0.9118800E+02  0.7816164E-02  0.1184000E+00
        -11   -1    0    0    0    0  0.00000000000E+00  0.00000000000E+00  0.45593999997E+02  0.45594000000E+02  0.51100000000E-03 0.  1.
         11   -1    0    0    0    0 -0.00000000000E+00 -0.00000000000E+00 -0.45593999997E+02  0.45594000000E+02  0.51100000000E-03 0. -1.
         23    2    1    2    0    0 -0.13322676296E-14  0.44408920985E-15  0.00000000000E+00  0.91188000000E+02  0.91188000000E+02 0.  0.
    9900012    2    3    3    0    0 -0.25985644451E+01 -0.22794643362E+01 -0.36658305113E+02  0.54367084360E+02  0.40000000415E+02 0.  0.
        -12    1    3    3    0    0  0.25985644451E+01  0.22794643362E+01  0.36658305113E+02  0.36820915640E+02  0.00000000000E+00 0.  1.
         11    1    4    4    0    0  0.80045590377E+01  0.40528134844E+01 -0.50293179560E+01  0.10285538483E+02  0.51100000000E-03 0. -1.
        -11    1    4    4    0    0 -0.15801083262E+02 -0.93586498129E+01 -0.85972226227E+01  0.20277346859E+02  0.51100000000E-03 0.  1.
        -12    1    4    4    0    0  0.51979597791E+01  0.30263719922E+01 -0.23031764534E+02  0.23804199017E+02  0.00000000000E+00 0.  1.
</event>
<event>
 8    1  0.2514877E-006  0.9118800E+02  0.7816164E-02  0.1184000E+00
        -11   -1    0    0    0    0  0.00000000000E+00  0.00000000000E+00  0.45593999997E+02  0.45594000000E+02  0.51100000000E-03 0. -1.
         11   -1    0    0    0    0 -0.00000000000E+00 -0.00000000000E+00 -0.45593999997E+02  0.45594000000E+02  0.51100000000E-03 0.  1.
         23    2    1    2    0    0  0.17763568394E-14  0.00000000000E+00  0.00000000000E+00  0.91188000000E+02  0.91188000000E+02 0.  0.
    9900012    2    3    3    0    0 -0.13286311770E+02 -0.12802317369E+02 -0.31864620849E+02  0.54367089198E+02  0.40000011444E+02 0.  0.
         12    1    3    3    0    0  0.13286311770E+02  0.12802317369E+02  0.31864620849E+02  0.36820910802E+02  0.00000000000E+00 0. -1.
         11    1    4    4    0    0 -0.14873362801E+02 -0.15004737971E+01 -0.20229027723E+02  0.25153168896E+02  0.51100000000E-03 0. -1.
        -11    1    4    4    0    0 -0.48463691738E+01 -0.65711790340E+01 -0.17496864771E+02  0.19308235681E+02  0.51100000000E-03 0.  1.
         12    1    4    4    0    0  0.64334202048E+01 -0.47306645378E+01  0.58612716448E+01  0.99056846202E+01  0.00000000000E+00 0. -1.
</event>
<event>
 8    1  0.2514877E-006  0.9118800E+02  0.7816164E-02  0.1184000E+00
        -11   -1    0    0    0    0  0.00000000000E+00  0.00000000000E+00  0.45593999997E+02  0.45594000000E+02  0.51100000000E-03 0.  1.
         11   -1    0    0    0    0 -0.00000000000E+00 -0.00000000000E+00 -0.45593999997E+02  0.45594000000E+02  0.51100000000E-03 0. -1.
         23    2    1    2    0    0  0.35527136788E-14  0.00000000000E+00  0.59674487574E-15  0.91188000000E+02  0.91188000000E+02 0.  0.
    9900012    2    3    3    0    0  0.62694122096E+01  0.36283115555E+02 -0.10387260743E+00  0.54367071259E+02  0.39999970548E+02 0.  0.
         12    1    3    3    0    0 -0.62694122096E+01 -0.36283115555E+02  0.10387260743E+00  0.36820928741E+02  0.00000000000E+00 0. -1.
         11    1    4    4    0    0  0.10930305595E+02  0.63146148977E+01 -0.63158562085E+01  0.14115097648E+02  0.51100000000E-03 0. -1.
        -11    1    4    4    0    0 -0.15110389501E+02  0.20636402196E+02  0.21615553314E+01  0.25668215524E+02  0.51100000000E-03 0.  1.
        -12    1    4    4    0    0  0.10449496116E+02  0.93320984620E+01  0.40504282696E+01  0.14583758087E+02  0.00000000000E+00 0.  1.
</event>
<event>
 8    1  0.2514877E-006  0.9118800E+02  0.7816164E-02  0.1184000E+00
        -11   -1    0    0    0    0  0.00000000000E+00  0.00000000000E+00  0.45593999997E+02  0.45594000000E+02  0.51100000000E-03 0.  1.
         11   -1    0    0    0    0 -0.00000000000E+00 -0.00000000000E+00 -0.45593999997E+02  0.45594000000E+02  0.51100000000E-03 0. -1.
         23    2    1    2    0    0 -0.35527136788E-14  0.00000000000E+00  0.35527136788E-14  0.91188000000E+02  0.91188000000E+02 0.  0.
    9900012    2    3    3    0    0 -0.28642691310E+02  0.36014277846E+01 -0.22856103979E+02  0.54367142641E+02  0.40000133278E+02 0.  0.
        -12    1    3    3    0    0  0.28642691310E+02 -0.36014277846E+01  0.22856103979E+02  0.36820857359E+02  0.00000000000E+00 0.  1.
         11    1    4    4    0    0 -0.11058705336E+02  0.13342054732E+02 -0.60100721089E+01  0.18341928884E+02  0.51100000000E-03 0. -1.
        -11    1    4    4    0    0  0.13817728596E+01 -0.85559815251E+01 -0.14480275480E+02  0.16875796110E+02  0.51100000000E-03 0.  1.
         12    1    4    4    0    0 -0.18965758834E+02 -0.11846454223E+01 -0.23657563899E+01  0.19149417647E+02  0.00000000000E+00 0. -1.
</event>
<event>
 8    1  0.2514877E-006  0.9118800E+02  0.7816164E-02  0.1184000E+00
        -11   -1    0    0    0    0  0.00000000000E+00  0.00000000000E+00  0.45593999997E+02  0.45594000000E+02  0.51100000000E-03 0.  1.
         11   -1    0    0    0    0 -0.00000000000E+00 -0.00000000000E+00 -0.45593999997E+02  0.45594000000E+02  0.51100000000E-03 0. -1.
         23    2    1    2    0    0  0.00000000000E+00  0.00000000000E+00 -0.17763568394E-14  0.91188000000E+02  0.91188000000E+02 0.  0.
    9900012    2    3    3    0    0  0.23589834778E+02 -0.23513056087E+02  0.15698280289E+02  0.54367080465E+02  0.39999991535E+02 0.  0.
         12    1    3    3    0    0 -0.23589834778E+02  0.23513056087E+02 -0.15698280289E+02  0.36820919535E+02  0.00000000000E+00 0. -1.
         11    1    4    4    0    0  0.15603243824E+02 -0.13107431990E+02 -0.53702318787E+00  0.20385151100E+02  0.51100000000E-03 0.  1.
        -11    1    4    4    0    0  0.81414984695E+01  0.10550680679E+01 -0.51694663184E+01  0.97015745235E+01  0.51100000000E-03 0. -1.
        -12    1    4    4    0    0 -0.15490751544E+00 -0.11460692165E+02  0.21404769795E+02  0.24280354841E+02  0.00000000000E+00 0.  1.
</event>
<event>
 8    1  0.2514877E-006  0.9118800E+02  0.7816164E-02  0.1184000E+00
        -11   -1    0    0    0    0  0.00000000000E+00  0.00000000000E+00  0.45593999997E+02  0.45594000000E+02  0.51100000000E-03 0.  1.
         11   -1    0    0    0    0 -0.00000000000E+00 -0.00000000000E+00 -0.45593999997E+02  0.45594000000E+02  0.51100000000E-03 0. -1.
         23    2    1    2    0    0  0.44408920985E-15 -0.13322676296E-14  0.00000000000E+00  0.91188000000E+02  0.91188000000E+02 0.  0.
    9900012    2    3    3    0    0 -0.54472883527E+00  0.39646647384E+01  0.36602790984E+02  0.54367087412E+02  0.40000007372E+02 0.  0.
         12    1    3    3    0    0  0.54472883527E+00 -0.39646647384E+01 -0.36602790984E+02  0.36820912588E+02  0.00000000000E+00 0. -1.
         11    1    4    4    0    0 -0.24683412835E+01  0.93566646786E+01  0.70555006703E+01  0.11975807804E+02  0.51100000000E-03 0. -1.
        -11    1    4    4    0    0 -0.11156343912E+02 -0.11045233970E+02  0.19091579251E+02  0.24717394714E+02  0.51100000000E-03 0.  1.
        -12    1    4    4    0    0  0.13079956360E+02  0.56532340295E+01  0.10455711063E+02  0.17673884893E+02  0.00000000000E+00 0.  1.
</event>
<event>
 8    1  0.2514877E-006  0.9118800E+02  0.7816164E-02  0.1184000E+00
        -11   -1    0    0    0    0  0.00000000000E+00  0.00000000000E+00  0.45593999997E+02  0.45594000000E+02  0.51100000000E-03 0. -1.
         11   -1    0    0    0    0 -0.00000000000E+00 -0.00000000000E+00 -0.45593999997E+02  0.45594000000E+02  0.51100000000E-03 0.  1.
         23    2    1    2    0    0  0.11102230246E-14  0.00000000000E+00  0.35527136788E-14  0.91188000000E+02  0.91188000000E+02 0.  0.
    9900012    2    3    3    0    0  0.19635041862E+01  0.18305648274E+02 -0.31887722966E+02  0.54367095837E+02  0.40000026580E+02 0.  0.
         12    1    3    3    0    0 -0.19635041862E+01 -0.18305648274E+02  0.31887722966E+02  0.36820904163E+02  0.00000000000E+00 0. -1.
         11    1    4    4    0    0  0.15030879690E+02  0.39254938902E+01 -0.38812033974E+01  0.16012513439E+02  0.51100000000E-03 0.  1.
        -11    1    4    4    0    0 -0.15933285937E+02  0.12271467947E+02 -0.28373009549E+02  0.34777668085E+02  0.51100000000E-03 0. -1.
         12    1    4    4    0    0  0.28659104330E+01  0.21086864371E+01  0.36648998029E+00  0.35769143135E+01  0.00000000000E+00 0. -1.
</event>
<event>
 8    1  0.2514877E-006  0.9118800E+02  0.7816164E-02  0.1184000E+00
        -11   -1    0    0    0    0  0.00000000000E+00  0.00000000000E+00  0.45593999997E+02  0.45594000000E+02  0.51100000000E-03 0. -1.
         11   -1    0    0    0    0 -0.00000000000E+00 -0.00000000000E+00 -0.45593999997E+02  0.45594000000E+02  0.51100000000E-03 0.  1.
         23    2    1    2    0    0  0.00000000000E+00 -0.88817841970E-15 -0.71054273576E-14  0.91188000000E+02  0.91188000000E+02 0.  0.
    9900012    2    3    3    0    0  0.46998046159E+01 -0.71199274750E+01  0.35818954266E+02  0.54367095402E+02  0.40000025589E+02 0.  0.
        -12    1    3    3    0    0 -0.46998046159E+01  0.71199274750E+01 -0.35818954266E+02  0.36820904598E+02  0.00000000000E+00 0.  1.
         11    1    4    4    0    0  0.13001365163E+02 -0.17598202455E+01  0.18946134124E+02  0.23045356623E+02  0.51100000000E-03 0. -1.
        -11    1    4    4    0    0 -0.50757520001E+01  0.43605151022E+01  0.19610106423E+02  0.20720367383E+02  0.51100000000E-03 0.  1.
        -12    1    4    4    0    0 -0.32258085468E+01 -0.97206223317E+01 -0.27372862802E+01  0.10601371396E+02  0.00000000000E+00 0.  1.
</event>
<event>
 8    1  0.2514877E-006  0.9118800E+02  0.7816164E-02  0.1184000E+00
        -11   -1    0    0    0    0  0.00000000000E+00  0.00000000000E+00  0.45593999997E+02  0.45594000000E+02  0.51100000000E-03 0. -1.
         11   -1    0    0    0    0 -0.00000000000E+00 -0.00000000000E+00 -0.45593999997E+02  0.45594000000E+02  0.51100000000E-03 0.  1.
         23    2    1    2    0    0 -0.35527136788E-14  0.00000000000E+00  0.17763568394E-14  0.91188000000E+02  0.91188000000E+02 0.  0.
    9900012    2    3    3    0    0 -0.23256741417E+02  0.23937992146E+02  0.15552397720E+02  0.54367074371E+02  0.39999977643E+02 0.  0.
        -12    1    3    3    0    0  0.23256741417E+02 -0.23937992146E+02 -0.15552397720E+02  0.36820925629E+02  0.00000000000E+00 0.  1.
         11    1    4    4    0    0 -0.13654120976E+02  0.22620434417E+01  0.71005289545E+01  0.15555364729E+02  0.51100000000E-03 0. -1.
        -11    1    4    4    0    0 -0.58842337944E+01  0.10555599741E+02 -0.10841126784E+02  0.16234990713E+02  0.51100000000E-03 0.  1.
         12    1    4    4    0    0 -0.37183866469E+01  0.11120348963E+02  0.19292995550E+02  0.22576718929E+02  0.00000000000E+00 0. -1.
</event>
<event>
 8    1  0.2514877E-006  0.9118800E+02  0.7816164E-02  0.1184000E+00
        -11   -1    0    0    0    0  0.00000000000E+00  0.00000000000E+00  0.45593999997E+02  0.45594000000E+02  0.51100000000E-03 0. -1.
         11   -1    0    0    0    0 -0.00000000000E+00 -0.00000000000E+00 -0.45593999997E+02  0.45594000000E+02  0.51100000000E-03 0.  1.
         23    2    1    2    0    0  0.00000000000E+00  0.17763568394E-14  0.00000000000E+00  0.91188000000E+02  0.91188000000E+02 0.  0.
    9900012    2    3    3    0    0  0.79922906020E+01  0.11289633880E+01 -0.35925310910E+02  0.54367092469E+02  0.40000018902E+02 0.  0.
         12    1    3    3    0    0 -0.79922906020E+01 -0.11289633880E+01  0.35925310910E+02  0.36820907531E+02  0.00000000000E+00 0. -1.
         11    1    4    4    0    0  0.43420203811E+01 -0.13606184512E+02 -0.19120322898E+02  0.23865626871E+02  0.51100000000E-03 0.  1.
        -11    1    4    4    0    0 -0.60929937509E+01 -0.16702410863E+01 -0.33227440387E+01  0.71382705429E+01  0.51100000000E-03 0. -1.
         12    1    4    4    0    0  0.97432639719E+01  0.16405388986E+02 -0.13482243973E+02  0.23363195055E+02  0.00000000000E+00 0. -1.
</event>
<event>
 8    1  0.2514877E-006  0.9118800E+02  0.7816164E-02  0.1184000E+00
        -11   -1    0    0    0    0  0.00000000000E+00  0.00000000000E+00  0.45593999997E+02  0.45594000000E+02  0.51100000000E-03 0. -1.
         11   -1    0    0    0    0 -0.00000000000E+00 -0.00000000000E+00 -0.45593999997E+02  0.45594000000E+02  0.51100000000E-03 0.  1.
         23    2    1    2    0    0  0.00000000000E+00  0.00000000000E+00  0.00000000000E+00  0.91188000000E+02  0.91188000000E+02 0.  0.
    9900012    2    3    3    0    0  0.16107392692E+02  0.17104448386E+02  0.28350810776E+02  0.54367099337E+02  0.40000034559E+02 0.  0.
        -12    1    3    3    0    0 -0.16107392692E+02 -0.17104448386E+02 -0.28350810776E+02  0.36820900663E+02  0.00000000000E+00 0.  1.
         11    1    4    4    0    0 -0.13137532349E+01  0.12180874681E+02  0.26262332676E+02  0.28979471586E+02  0.51100000000E-03 0. -1.
        -11    1    4    4    0    0  0.43625606516E+01 -0.59003616108E+01  0.39344231997E+01  0.83262169533E+01  0.51100000000E-03 0.  1.
         12    1    4    4    0    0  0.13058585275E+02  0.10823935316E+02 -0.18459450993E+01  0.17061410798E+02  0.00000000000E+00 0. -1.
</event>
<event>
 8    1  0.2514877E-006  0.9118800E+02  0.7816164E-02  0.1184000E+00
        -11   -1    0    0    0    0  0.00000000000E+00  0.00000000000E+00  0.45593999997E+02  0.45594000000E+02  0.51100000000E-03 0. -1.
         11   -1    0    0    0    0 -0.00000000000E+00 -0.00000000000E+00 -0.45593999997E+02  0.45594000000E+02  0.51100000000E-03 0.  1.
         23    2    1    2    0    0  0.00000000000E+00  0.00000000000E+00  0.26645352591E-14  0.91188000000E+02  0.91188000000E+02 0.  0.
    9900012    2    3    3    0    0  0.10127885817E+02 -0.35158561285E+02  0.41331482305E+01  0.54367062790E+02  0.39999951242E+02 0.  0.
         12    1    3    3    0    0 -0.10127885817E+02  0.35158561285E+02 -0.41331482305E+01  0.36820937210E+02  0.00000000000E+00 0. -1.
         11    1    4    4    0    0 -0.66878621029E+01 -0.57824723487E+01 -0.36699655147E+01  0.95725196845E+01  0.51100000000E-03 0. -1.
        -11    1    4    4    0    0 -0.49560692962E+01 -0.52380106492E+01 -0.60949587967E+01  0.94418166380E+01  0.51100000000E-03 0.  1.
         12    1    4    4    0    0  0.21771817216E+02 -0.24138078287E+02  0.13898072542E+02  0.35352726467E+02  0.00000000000E+00 0. -1.
</event>
<event>
 8    1  0.2514877E-006  0.9118800E+02  0.7816164E-02  0.1184000E+00
        -11   -1    0    0    0    0  0.00000000000E+00  0.00000000000E+00  0.45593999997E+02  0.45594000000E+02  0.51100000000E-03 0.  1.
         11   -1    0    0    0    0 -0.00000000000E+00 -0.00000000000E+00 -0.45593999997E+02  0.45594000000E+02  0.51100000000E-03 0. -1.
         23    2    1    2    0    0  0.00000000000E+00  0.53290705182E-14  0.00000000000E+00  0.91188000000E+02  0.91188000000E+02 0.  0.
    9900012    2    3    3    0    0 -0.36337117743E+02  0.58329184111E+01  0.11708771418E+01  0.54367081811E+02  0.39999994604E+02 0.  0.
         12    1    3    3    0    0  0.36337117743E+02 -0.58329184111E+01 -0.11708771418E+01  0.36820918189E+02  0.00000000000E+00 0. -1.
         11    1    4    4    0    0 -0.21266682080E+02  0.22426393031E+02  0.50253455262E+01  0.31312441121E+02  0.51100000000E-03 0. -1.
        -11    1    4    4    0    0 -0.10114620391E+02 -0.92998012107E+01 -0.95976541135E+00  0.13773634165E+02  0.51100000000E-03 0.  1.
         12    1    4    4    0    0 -0.49558152717E+01 -0.72936734087E+01 -0.28947029730E+01  0.92810065242E+01  0.00000000000E+00 0. -1.
</event>
<event>
 8    1  0.2514877E-006  0.9118800E+02  0.7816164E-02  0.1184000E+00
        -11   -1    0    0    0    0  0.00000000000E+00  0.00000000000E+00  0.45593999997E+02  0.45594000000E+02  0.51100000000E-03 0. -1.
         11   -1    0    0    0    0 -0.00000000000E+00 -0.00000000000E+00 -0.45593999997E+02  0.45594000000E+02  0.51100000000E-03 0.  1.
         23    2    1    2    0    0  0.00000000000E+00 -0.35527136788E-14  0.00000000000E+00  0.91188000000E+02  0.91188000000E+02 0.  0.
    9900012    2    3    3    0    0  0.87014149903E+01 -0.15998145829E+02  0.32001949507E+02  0.54367081149E+02  0.39999993095E+02 0.  0.
        -12    1    3    3    0    0 -0.87014149903E+01  0.15998145829E+02 -0.32001949507E+02  0.36820918851E+02  0.00000000000E+00 0.  1.
         11    1    4    4    0    0 -0.31763053113E+01 -0.79886166309E+01  0.10317560940E+02  0.13429779414E+02  0.51100000000E-03 0. -1.
        -11    1    4    4    0    0  0.12034330814E+01 -0.19677957923E+01 -0.82611730424E+01  0.85771470641E+01  0.51100000000E-03 0.  1.
        -12    1    4    4    0    0  0.10674287220E+02 -0.60417334060E+01  0.29945561609E+02  0.32360154670E+02  0.00000000000E+00 0.  1.
</event>
<event>
 8    1  0.2514877E-006  0.9118800E+02  0.7816164E-02  0.1184000E+00
        -11   -1    0    0    0    0  0.00000000000E+00  0.00000000000E+00  0.45593999997E+02  0.45594000000E+02  0.51100000000E-03 0.  1.
         11   -1    0    0    0    0 -0.00000000000E+00 -0.00000000000E+00 -0.45593999997E+02  0.45594000000E+02  0.51100000000E-03 0. -1.
         23    2    1    2    0    0 -0.35527136788E-14  0.17763568394E-14  0.00000000000E+00  0.91188000000E+02  0.91188000000E+02 0.  0.
    9900012    2    3    3    0    0  0.31850033512E+02 -0.84574003792E+01  0.16426417985E+02  0.54367089314E+02  0.40000011710E+02 0.  0.
         12    1    3    3    0    0 -0.31850033512E+02  0.84574003792E+01 -0.16426417985E+02  0.36820910686E+02  0.00000000000E+00 0. -1.
         11    1    4    4    0    0  0.13539433141E+02 -0.49042668489E+01  0.15584948676E+02  0.21219300379E+02  0.51100000000E-03 0.  1.
        -11    1    4    4    0    0  0.94100386794E-01 -0.12625924240E+02 -0.12587845486E+01  0.12688867428E+02  0.51100000000E-03 0. -1.
         12    1    4    4    0    0  0.18216499985E+02  0.90727907097E+01  0.21002538576E+01  0.20458921507E+02  0.00000000000E+00 0. -1.
</event>
<event>
 8    1  0.2514877E-006  0.9118800E+02  0.7816164E-02  0.1184000E+00
        -11   -1    0    0    0    0  0.00000000000E+00  0.00000000000E+00  0.45593999997E+02  0.45594000000E+02  0.51100000000E-03 0.  1.
         11   -1    0    0    0    0 -0.00000000000E+00 -0.00000000000E+00 -0.45593999997E+02  0.45594000000E+02  0.51100000000E-03 0. -1.
         23    2    1    2    0    0  0.17763568394E-14  0.00000000000E+00 -0.35527136788E-14  0.91188000000E+02  0.91188000000E+02 0.  0.
    9900012    2    3    3    0    0  0.56958553407E+01 -0.24164427187E+02 -0.27192243943E+02  0.54367076057E+02  0.39999981488E+02 0.  0.
        -12    1    3    3    0    0 -0.56958553407E+01  0.24164427187E+02  0.27192243943E+02  0.36820923943E+02  0.00000000000E+00 0.  1.
         11    1    4    4    0    0  0.16383277545E+02 -0.12172444913E+02 -0.12937879097E+02  0.24165448766E+02  0.51100000000E-03 0. -1.
        -11    1    4    4    0    0 -0.96474934505E+01  0.41066563663E+01 -0.52371512322E+01  0.11720345971E+02  0.51100000000E-03 0.  1.
         12    1    4    4    0    0 -0.10399287535E+01 -0.16098638640E+02 -0.90172136142E+01  0.18481281320E+02  0.00000000000E+00 0. -1.
</event>
<event>
 8    1  0.2514877E-006  0.9118800E+02  0.7816164E-02  0.1184000E+00
        -11   -1    0    0    0    0  0.00000000000E+00  0.00000000000E+00  0.45593999997E+02  0.45594000000E+02  0.51100000000E-03 0. -1.
         11   -1    0    0    0    0 -0.00000000000E+00 -0.00000000000E+00 -0.45593999997E+02  0.45594000000E+02  0.51100000000E-03 0.  1.
         23    2    1    2    0    0  0.71054273576E-14 -0.88817841970E-15 -0.17763568394E-14  0.91188000000E+02  0.91188000000E+02 0.  0.
    9900012    2    3    3    0    0 -0.34545392938E+02  0.22713892413E+01  0.12539430962E+02  0.54367072375E+02  0.39999973093E+02 0.  0.
        -12    1    3    3    0    0  0.34545392938E+02 -0.22713892413E+01 -0.12539430962E+02  0.36820927625E+02  0.00000000000E+00 0.  1.
         11    1    4    4    0    0 -0.22726033252E+01  0.83179332320E-02  0.66383338371E+01  0.70165712036E+01  0.51100000000E-03 0. -1.
        -11    1    4    4    0    0 -0.10397231767E+01 -0.57286295089E+01  0.13083815340E+02  0.14320769687E+02  0.51100000000E-03 0.  1.
        -12    1    4    4    0    0 -0.31233066436E+02  0.79917008170E+01 -0.71827182144E+01  0.33029731484E+02  0.00000000000E+00 0.  1.
</event>
<event>
 8    1  0.2514877E-006  0.9118800E+02  0.7816164E-02  0.1184000E+00
        -11   -1    0    0    0    0  0.00000000000E+00  0.00000000000E+00  0.45593999997E+02  0.45594000000E+02  0.51100000000E-03 0.  1.
         11   -1    0    0    0    0 -0.00000000000E+00 -0.00000000000E+00 -0.45593999997E+02  0.45594000000E+02  0.51100000000E-03 0. -1.
         23    2    1    2    0    0  0.00000000000E+00  0.00000000000E+00  0.55511151231E-15  0.91188000000E+02  0.91188000000E+02 0.  0.
    9900012    2    3    3    0    0  0.12249074940E+02  0.34723141885E+02  0.21013139181E+00  0.54367074231E+02  0.39999977325E+02 0.  0.
         12    1    3    3    0    0 -0.12249074940E+02 -0.34723141885E+02 -0.21013139181E+00  0.36820925769E+02  0.00000000000E+00 0. -1.
         11    1    4    4    0    0  0.30678592031E+01  0.16435216021E+02  0.58784413962E+01  0.17722419679E+02  0.51100000000E-03 0. -1.
        -11    1    4    4    0    0  0.92430037423E+01  0.12414538747E+02  0.10989128481E+02  0.18981960792E+02  0.51100000000E-03 0.  1.
         12    1    4    4    0    0 -0.61788005204E-01  0.58733871173E+01 -0.16657438485E+02  0.17662693761E+02  0.00000000000E+00 0. -1.
</event>
<event>
 8    1  0.2514877E-006  0.9118800E+02  0.7816164E-02  0.1184000E+00
        -11   -1    0    0    0    0  0.00000000000E+00  0.00000000000E+00  0.45593999997E+02  0.45594000000E+02  0.51100000000E-03 0.  1.
         11   -1    0    0    0    0 -0.00000000000E+00 -0.00000000000E+00 -0.45593999997E+02  0.45594000000E+02  0.51100000000E-03 0. -1.
         23    2    1    2    0    0 -0.88817841970E-15 -0.71054273576E-14  0.00000000000E+00  0.91188000000E+02  0.91188000000E+02 0.  0.
    9900012    2    3    3    0    0 -0.74153840679E+01 -0.35598984300E+02  0.57882052225E+01  0.54367096647E+02  0.40000028426E+02 0.  0.
         12    1    3    3    0    0  0.74153840679E+01  0.35598984300E+02 -0.57882052225E+01  0.36820903353E+02  0.00000000000E+00 0. -1.
         11    1    4    4    0    0  0.49792862816E+01 -0.27506055187E+01  0.22581455026E+01  0.61203222110E+01  0.51100000000E-03 0. -1.
        -11    1    4    4    0    0  0.42106979098E+01 -0.89231772543E+01  0.14147778940E+02  0.17248556994E+02  0.51100000000E-03 0.  1.
        -12    1    4    4    0    0 -0.16605368259E+02 -0.23925201527E+02 -0.10617719220E+02  0.30998217442E+02  0.00000000000E+00 0.  1.
</event>
<event>
 8    1  0.2514877E-006  0.9118800E+02  0.7816164E-02  0.1184000E+00
        -11   -1    0    0    0    0  0.00000000000E+00  0.00000000000E+00  0.45593999997E+02  0.45594000000E+02  0.51100000000E-03 0. -1.
         11   -1    0    0    0    0 -0.00000000000E+00 -0.00000000000E+00 -0.45593999997E+02  0.45594000000E+02  0.51100000000E-03 0.  1.
         23    2    1    2    0    0  0.00000000000E+00  0.35527136788E-14  0.00000000000E+00  0.91188000000E+02  0.91188000000E+02 0.  0.
    9900012    2    3    3    0    0 -0.16741266819E+02  0.29149876967E+02  0.15026503685E+02  0.54367066350E+02  0.39999959357E+02 0.  0.
         12    1    3    3    0    0  0.16741266819E+02 -0.29149876967E+02 -0.15026503685E+02  0.36820933650E+02  0.00000000000E+00 0. -1.
         11    1    4    4    0    0 -0.14854789624E+02  0.55587256866E+01  0.81808616080E+01  0.17846307824E+02  0.51100000000E-03 0. -1.
        -11    1    4    4    0    0  0.26187037907E+01 -0.49995150093E+01  0.49639398212E+01  0.75162130545E+01  0.51100000000E-03 0.  1.
        -12    1    4    4    0    0 -0.45051809851E+01  0.28590666290E+02  0.18817022562E+01  0.29004545471E+02  0.00000000000E+00 0.  1.
</event>
<event>
 8    1  0.2514877E-006  0.9118800E+02  0.7816164E-02  0.1184000E+00
        -11   -1    0    0    0    0  0.00000000000E+00  0.00000000000E+00  0.45593999997E+02  0.45594000000E+02  0.51100000000E-03 0.  1.
         11   -1    0    0    0    0 -0.00000000000E+00 -0.00000000000E+00 -0.45593999997E+02  0.45594000000E+02  0.51100000000E-03 0. -1.
         23    2    1    2    0    0  0.00000000000E+00  0.00000000000E+00  0.00000000000E+00  0.91188000000E+02  0.91188000000E+02 0.  0.
    9900012    2    3    3    0    0 -0.33345641243E+02  0.15094960045E+02 -0.39988382731E+01  0.54367077738E+02  0.39999985319E+02 0.  0.
         12    1    3    3    0    0  0.33345641243E+02 -0.15094960045E+02  0.39988382731E+01  0.36820922262E+02  0.00000000000E+00 0. -1.
         11    1    4    4    0    0  0.50630058952E+01  0.14121508381E+02 -0.27848526633E+01  0.15257995683E+02  0.51100000000E-03 0. -1.
        -11    1    4    4    0    0 -0.18031078916E+02 -0.17001730604E+01  0.23071430037E+01  0.18257417792E+02  0.51100000000E-03 0.  1.
         12    1    4    4    0    0 -0.20377568222E+02  0.26736247248E+01 -0.35211286136E+01  0.20851664263E+02  0.00000000000E+00 0. -1.
</event>
<event>
 8    1  0.2514877E-006  0.9118800E+02  0.7816164E-02  0.1184000E+00
        -11   -1    0    0    0    0  0.00000000000E+00  0.00000000000E+00  0.45593999997E+02  0.45594000000E+02  0.51100000000E-03 0. -1.
         11   -1    0    0    0    0 -0.00000000000E+00 -0.00000000000E+00 -0.45593999997E+02  0.45594000000E+02  0.51100000000E-03 0.  1.
         23    2    1    2    0    0  0.00000000000E+00  0.00000000000E+00  0.00000000000E+00  0.91188000000E+02  0.91188000000E+02 0.  0.
    9900012    2    3    3    0    0  0.69259458744E+00  0.27084527025E+02 -0.24934479120E+02  0.54367088273E+02  0.40000009335E+02 0.  0.
         12    1    3    3    0    0 -0.69259458744E+00 -0.27084527025E+02  0.24934479120E+02  0.36820911727E+02  0.00000000000E+00 0. -1.
         11    1    4    4    0    0  0.34011687741E+01 -0.40794766648E+01 -0.12509976137E+01  0.54566541194E+01  0.51100000000E-03 0. -1.
        -11    1    4    4    0    0 -0.71816349105E+01  0.35272926794E+02 -0.16780561624E+02  0.39715771342E+02  0.51100000000E-03 0.  1.
        -12    1    4    4    0    0  0.44730607239E+01 -0.41089231040E+01 -0.69029198822E+01  0.91946628114E+01  0.00000000000E+00 0.  1.
</event>
<event>
 8    1  0.2514877E-006  0.9118800E+02  0.7816164E-02  0.1184000E+00
        -11   -1    0    0    0    0  0.00000000000E+00  0.00000000000E+00  0.45593999997E+02  0.45594000000E+02  0.51100000000E-03 0. -1.
         11   -1    0    0    0    0 -0.00000000000E+00 -0.00000000000E+00 -0.45593999997E+02  0.45594000000E+02  0.51100000000E-03 0.  1.
         23    2    1    2    0    0  0.35527136788E-14  0.00000000000E+00 -0.35527136788E-14  0.91188000000E+02  0.91188000000E+02 0.  0.
    9900012    2    3    3    0    0 -0.27465399603E+02 -0.17889959541E+02  0.16774425506E+02  0.54367079604E+02  0.39999989574E+02 0.  0.
        -12    1    3    3    0    0  0.27465399603E+02  0.17889959541E+02 -0.16774425506E+02  0.36820920396E+02  0.00000000000E+00 0.  1.
         11    1    4    4    0    0 -0.19812807348E+02  0.12447153135E+01  0.68064263782E+01  0.20986283414E+02  0.51100000000E-03 0. -1.
        -11    1    4    4    0    0 -0.11280206624E+02  0.10663317493E+01  0.37695259385E+01  0.11941082486E+02  0.51100000000E-03 0.  1.
        -12    1    4    4    0    0  0.36276143695E+01 -0.20201006604E+02  0.61984731896E+01  0.21439713704E+02  0.00000000000E+00 0.  1.
</event>
<event>
 8    1  0.2514877E-006  0.9118800E+02  0.7816164E-02  0.1184000E+00
        -11   -1    0    0    0    0  0.00000000000E+00  0.00000000000E+00  0.45593999997E+02  0.45594000000E+02  0.51100000000E-03 0.  1.
         11   -1    0    0    0    0 -0.00000000000E+00 -0.00000000000E+00 -0.45593999997E+02  0.45594000000E+02  0.51100000000E-03 0. -1.
         23    2    1    2    0    0  0.00000000000E+00  0.00000000000E+00  0.17763568394E-14  0.91188000000E+02  0.91188000000E+02 0.  0.
    9900012    2    3    3    0    0 -0.34104605823E+02  0.80967980047E+01  0.11273735788E+02  0.54367090249E+02  0.40000013842E+02 0.  0.
         12    1    3    3    0    0  0.34104605823E+02 -0.80967980047E+01 -0.11273735788E+02  0.36820909751E+02  0.00000000000E+00 0. -1.
         11    1    4    4    0    0 -0.11703090305E+02  0.14952024067E+02 -0.38030184342E+01  0.19364614529E+02  0.51100000000E-03 0. -1.
        -11    1    4    4    0    0 -0.16158714931E+02  0.60489881993E+01  0.81714804082E+01  0.19091029798E+02  0.51100000000E-03 0.  1.
         12    1    4    4    0    0 -0.62428005870E+01 -0.12904214262E+02  0.69052738138E+01  0.15911445922E+02  0.00000000000E+00 0. -1.
</event>
<event>
 8    1  0.2514877E-006  0.9118800E+02  0.7816164E-02  0.1184000E+00
        -11   -1    0    0    0    0  0.00000000000E+00  0.00000000000E+00  0.45593999997E+02  0.45594000000E+02  0.51100000000E-03 0. -1.
         11   -1    0    0    0    0 -0.00000000000E+00 -0.00000000000E+00 -0.45593999997E+02  0.45594000000E+02  0.51100000000E-03 0.  1.
         23    2    1    2    0    0 -0.35527136788E-14  0.88817841970E-15  0.71054273576E-14  0.91188000000E+02  0.91188000000E+02 0.  0.
    9900012    2    3    3    0    0 -0.17548196181E+02  0.30682501200E+01  0.32224603294E+02  0.54367103685E+02  0.40000044470E+02 0.  0.
        -12    1    3    3    0    0  0.17548196181E+02 -0.30682501200E+01 -0.32224603294E+02  0.36820896315E+02  0.00000000000E+00 0.  1.
         11    1    4    4    0    0 -0.13094359065E+02  0.45274675761E+00  0.22630538450E+02  0.26149732117E+02  0.51100000000E-03 0. -1.
        -11    1    4    4    0    0 -0.40491023713E+01 -0.95498898839E+01  0.11945103457E+02  0.15820275714E+02  0.51100000000E-03 0.  1.
        -12    1    4    4    0    0 -0.40473474468E+00  0.12165393246E+02 -0.23510386135E+01  0.12397095854E+02  0.00000000000E+00 0.  1.
</event>
<event>
 8    1  0.2514877E-006  0.9118800E+02  0.7816164E-02  0.1184000E+00
        -11   -1    0    0    0    0  0.00000000000E+00  0.00000000000E+00  0.45593999997E+02  0.45594000000E+02  0.51100000000E-03 0. -1.
         11   -1    0    0    0    0 -0.00000000000E+00 -0.00000000000E+00 -0.45593999997E+02  0.45594000000E+02  0.51100000000E-03 0.  1.
         23    2    1    2    0    0 -0.35527136788E-14  0.00000000000E+00  0.00000000000E+00  0.91188000000E+02  0.91188000000E+02 0.  0.
    9900012    2    3    3    0    0 -0.19172481786E+02  0.22951888404E+02 -0.21480374646E+02  0.54367085643E+02  0.40000003340E+02 0.  0.
         12    1    3    3    0    0  0.19172481786E+02 -0.22951888404E+02  0.21480374646E+02  0.36820914357E+02  0.00000000000E+00 0. -1.
         11    1    4    4    0    0  0.68876016348E+01  0.11593509531E+02 -0.11640260988E+02  0.17814157169E+02  0.51100000000E-03 0. -1.
        -11    1    4    4    0    0  0.63992519198E+00 -0.31427570618E+00 -0.72643839993E+01  0.72992841171E+01  0.51100000000E-03 0.  1.
         12    1    4    4    0    0 -0.26700008613E+02  0.11672654580E+02 -0.25757296584E+01  0.29253644357E+02  0.00000000000E+00 0. -1.
</event>
<event>
 8    1  0.2514877E-006  0.9118800E+02  0.7816164E-02  0.1184000E+00
        -11   -1    0    0    0    0  0.00000000000E+00  0.00000000000E+00  0.45593999997E+02  0.45594000000E+02  0.51100000000E-03 0. -1.
         11   -1    0    0    0    0 -0.00000000000E+00 -0.00000000000E+00 -0.45593999997E+02  0.45594000000E+02  0.51100000000E-03 0.  1.
         23    2    1    2    0    0 -0.35527136788E-14 -0.33306690739E-15 -0.71054273576E-14  0.91188000000E+02  0.91188000000E+02 0.  0.
    9900012    2    3    3    0    0 -0.25095724204E+02 -0.35711112222E+00 -0.26941707760E+02  0.54367102147E+02  0.40000040964E+02 0.  0.
         12    1    3    3    0    0  0.25095724204E+02  0.35711112222E+00  0.26941707760E+02  0.36820897853E+02  0.00000000000E+00 0. -1.
         11    1    4    4    0    0  0.96900733386E+00 -0.26204151613E+01 -0.97481360695E+00  0.29590222473E+01  0.51100000000E-03 0. -1.
        -11    1    4    4    0    0 -0.24554407052E+02  0.11590952638E+02 -0.39362543966E+01  0.27436530168E+02  0.51100000000E-03 0.  1.
         12    1    4    4    0    0 -0.15103244860E+01 -0.93276485985E+01 -0.22030639757E+02  0.23971549731E+02  0.00000000000E+00 0. -1.
</event>
<event>
 8    1  0.2514877E-006  0.9118800E+02  0.7816164E-02  0.1184000E+00
        -11   -1    0    0    0    0  0.00000000000E+00  0.00000000000E+00  0.45593999997E+02  0.45594000000E+02  0.51100000000E-03 0. -1.
         11   -1    0    0    0    0 -0.00000000000E+00 -0.00000000000E+00 -0.45593999997E+02  0.45594000000E+02  0.51100000000E-03 0.  1.
         23    2    1    2    0    0  0.00000000000E+00  0.00000000000E+00  0.00000000000E+00  0.91188000000E+02  0.91188000000E+02 0.  0.
    9900012    2    3    3    0    0 -0.31365503207E+02  0.44437405691E+01 -0.18768023692E+02  0.54367077483E+02  0.39999984739E+02 0.  0.
         12    1    3    3    0    0  0.31365503207E+02 -0.44437405691E+01  0.18768023692E+02  0.36820922517E+02  0.00000000000E+00 0. -1.
         11    1    4    4    0    0 -0.14823180829E+02 -0.34607057556E+01 -0.19458257604E+02  0.24704796365E+02  0.51100000000E-03 0. -1.
        -11    1    4    4    0    0 -0.85791984392E+01  0.99779539914E-01 -0.10705298720E+02  0.13719184479E+02  0.51100000000E-03 0.  1.
         12    1    4    4    0    0 -0.79631239383E+01  0.78046667847E+01  0.11395532632E+02  0.15943096639E+02  0.00000000000E+00 0. -1.
</event>
<event>
 8    1  0.2514877E-006  0.9118800E+02  0.7816164E-02  0.1184000E+00
        -11   -1    0    0    0    0  0.00000000000E+00  0.00000000000E+00  0.45593999997E+02  0.45594000000E+02  0.51100000000E-03 0. -1.
         11   -1    0    0    0    0 -0.00000000000E+00 -0.00000000000E+00 -0.45593999997E+02  0.45594000000E+02  0.51100000000E-03 0.  1.
         23    2    1    2    0    0  0.00000000000E+00 -0.35527136788E-14 -0.35527136788E-14  0.91188000000E+02  0.91188000000E+02 0.  0.
    9900012    2    3    3    0    0  0.13101089570E+01 -0.21642701372E+02  0.29759985526E+02  0.54367086830E+02  0.40000006046E+02 0.  0.
        -12    1    3    3    0    0 -0.13101089570E+01  0.21642701372E+02 -0.29759985526E+02  0.36820913170E+02  0.00000000000E+00 0.  1.
         11    1    4    4    0    0 -0.88130091229E+01  0.11693695576E+01  0.11706608846E+01  0.89669951562E+01  0.51100000000E-03 0. -1.
        -11    1    4    4    0    0  0.16933417036E+02 -0.93082812434E+01  0.11122997336E+02  0.22295869174E+02  0.51100000000E-03 0.  1.
         12    1    4    4    0    0 -0.68102989562E+01 -0.13503789687E+02  0.17466327306E+02  0.23104222500E+02  0.00000000000E+00 0. -1.
</event>
<event>
 8    1  0.2514877E-006  0.9118800E+02  0.7816164E-02  0.1184000E+00
        -11   -1    0    0    0    0  0.00000000000E+00  0.00000000000E+00  0.45593999997E+02  0.45594000000E+02  0.51100000000E-03 0. -1.
         11   -1    0    0    0    0 -0.00000000000E+00 -0.00000000000E+00 -0.45593999997E+02  0.45594000000E+02  0.51100000000E-03 0.  1.
         23    2    1    2    0    0 -0.33306690739E-15  0.00000000000E+00  0.00000000000E+00  0.91188000000E+02  0.91188000000E+02 0.  0.
    9900012    2    3    3    0    0 -0.29996718399E+00 -0.25823206058E+01 -0.36729025807E+02  0.54367086150E+02  0.40000004497E+02 0.  0.
         12    1    3    3    0    0  0.29996718399E+00  0.25823206058E+01  0.36729025807E+02  0.36820913850E+02  0.00000000000E+00 0. -1.
         11    1    4    4    0    0  0.30977666831E+01  0.83159586127E+01 -0.88201454284E+01  0.12511846055E+02  0.51100000000E-03 0. -1.
        -11    1    4    4    0    0 -0.77826299879E+01  0.63667862377E+01 -0.19958601510E+02  0.22348401979E+02  0.51100000000E-03 0.  1.
         12    1    4    4    0    0  0.43848961208E+01 -0.17265065456E+02 -0.79502788682E+01  0.19506838116E+02  0.00000000000E+00 0. -1.
</event>
<event>
 8    1  0.2514877E-006  0.9118800E+02  0.7816164E-02  0.1184000E+00
        -11   -1    0    0    0    0  0.00000000000E+00  0.00000000000E+00  0.45593999997E+02  0.45594000000E+02  0.51100000000E-03 0.  1.
         11   -1    0    0    0    0 -0.00000000000E+00 -0.00000000000E+00 -0.45593999997E+02  0.45594000000E+02  0.51100000000E-03 0. -1.
         23    2    1    2    0    0  0.17763568394E-14  0.35527136788E-14 -0.35527136788E-14  0.91188000000E+02  0.91188000000E+02 0.  0.
    9900012    2    3    3    0    0 -0.95776249897E+01 -0.22323555726E+02  0.27671416346E+02  0.54367091222E+02  0.40000016058E+02 0.  0.
         12    1    3    3    0    0  0.95776249897E+01  0.22323555726E+02 -0.27671416346E+02  0.36820908778E+02  0.00000000000E+00 0. -1.
         11    1    4    4    0    0  0.64437909624E+01 -0.42538189384E+01 -0.14992589248E+01  0.78654430970E+01  0.51100000000E-03 0. -1.
        -11    1    4    4    0    0 -0.14624678478E+01 -0.15240360569E+01  0.23699668066E+02  0.23793607646E+02  0.51100000000E-03 0.  1.
         12    1    4    4    0    0 -0.14558948104E+02 -0.16545700730E+02  0.54710072050E+01  0.22708040479E+02  0.00000000000E+00 0. -1.
</event>
<event>
 8    1  0.2514877E-006  0.9118800E+02  0.7816164E-02  0.1184000E+00
        -11   -1    0    0    0    0  0.00000000000E+00  0.00000000000E+00  0.45593999997E+02  0.45594000000E+02  0.51100000000E-03 0.  1.
         11   -1    0    0    0    0 -0.00000000000E+00 -0.00000000000E+00 -0.45593999997E+02  0.45594000000E+02  0.51100000000E-03 0. -1.
         23    2    1    2    0    0 -0.17763568394E-14  0.00000000000E+00  0.00000000000E+00  0.91188000000E+02  0.91188000000E+02 0.  0.
    9900012    2    3    3    0    0  0.15132520974E+02  0.32125142344E+02 -0.97346107574E+01  0.54367073772E+02  0.39999976279E+02 0.  0.
        -12    1    3    3    0    0 -0.15132520974E+02 -0.32125142344E+02  0.97346107574E+01  0.36820926228E+02  0.00000000000E+00 0.  1.
         11    1    4    4    0    0  0.14747033370E+02  0.23046176330E+02  0.52162061300E+01  0.27853366822E+02  0.51100000000E-03 0. -1.
        -11    1    4    4    0    0  0.36042657203E+01 -0.55062197260E+01 -0.69430806050E+01  0.95663763046E+01  0.51100000000E-03 0.  1.
         12    1    4    4    0    0 -0.32187781169E+01  0.14585185740E+02 -0.80077362824E+01  0.16947330646E+02  0.00000000000E+00 0. -1.
</event>
<event>
 8    1  0.2514877E-006  0.9118800E+02  0.7816164E-02  0.1184000E+00
        -11   -1    0    0    0    0  0.00000000000E+00  0.00000000000E+00  0.45593999997E+02  0.45594000000E+02  0.51100000000E-03 0. -1.
         11   -1    0    0    0    0 -0.00000000000E+00 -0.00000000000E+00 -0.45593999997E+02  0.45594000000E+02  0.51100000000E-03 0.  1.
         23    2    1    2    0    0  0.00000000000E+00  0.00000000000E+00  0.17763568394E-14  0.91188000000E+02  0.91188000000E+02 0.  0.
    9900012    2    3    3    0    0  0.32306521263E+02  0.11310010902E+02 -0.13570273477E+02  0.54367082237E+02  0.39999995575E+02 0.  0.
         12    1    3    3    0    0 -0.32306521263E+02 -0.11310010902E+02  0.13570273477E+02  0.36820917763E+02  0.00000000000E+00 0. -1.
         11    1    4    4    0    0  0.17354380545E+02  0.87359130259E+01  0.89513170761E+01  0.21391979295E+02  0.51100000000E-03 0. -1.
        -11    1    4    4    0    0 -0.28964999217E+01  0.42834071382E+01 -0.15813830277E+01  0.54072230441E+01  0.51100000000E-03 0.  1.
        -12    1    4    4    0    0  0.17848640639E+02 -0.17093092619E+01 -0.20940207526E+02  0.27567879898E+02  0.00000000000E+00 0.  1.
</event>
<event>
 8    1  0.2514877E-006  0.9118800E+02  0.7816164E-02  0.1184000E+00
        -11   -1    0    0    0    0  0.00000000000E+00  0.00000000000E+00  0.45593999997E+02  0.45594000000E+02  0.51100000000E-03 0.  1.
         11   -1    0    0    0    0 -0.00000000000E+00 -0.00000000000E+00 -0.45593999997E+02  0.45594000000E+02  0.51100000000E-03 0. -1.
         23    2    1    2    0    0  0.00000000000E+00  0.00000000000E+00  0.35527136788E-14  0.91188000000E+02  0.91188000000E+02 0.  0.
    9900012    2    3    3    0    0 -0.16984039229E+02 -0.15555201836E+02 -0.28729025150E+02  0.54367098615E+02  0.40000032913E+02 0.  0.
        -12    1    3    3    0    0  0.16984039229E+02  0.15555201836E+02  0.28729025150E+02  0.36820901385E+02  0.00000000000E+00 0.  1.
         11    1    4    4    0    0 -0.49160830755E+01 -0.10415740851E+02 -0.40783017110E+01  0.12218349945E+02  0.51100000000E-03 0. -1.
        -11    1    4    4    0    0  0.10382802746E+02 -0.37868925520E+01 -0.12119327895E+02  0.16401867484E+02  0.51100000000E-03 0.  1.
         12    1    4    4    0    0 -0.22450758900E+02 -0.13525684331E+01 -0.12531395544E+02  0.25746881186E+02  0.00000000000E+00 0. -1.
</event>
<event>
 8    1  0.2514877E-006  0.9118800E+02  0.7816164E-02  0.1184000E+00
        -11   -1    0    0    0    0  0.00000000000E+00  0.00000000000E+00  0.45593999997E+02  0.45594000000E+02  0.51100000000E-03 0. -1.
         11   -1    0    0    0    0 -0.00000000000E+00 -0.00000000000E+00 -0.45593999997E+02  0.45594000000E+02  0.51100000000E-03 0.  1.
         23    2    1    2    0    0  0.88817841970E-15 -0.71054273576E-14  0.88817841970E-15  0.91188000000E+02  0.91188000000E+02 0.  0.
    9900012    2    3    3    0    0 -0.41729084638E+01  0.35967360087E+02 -0.66869055018E+01  0.54367097487E+02  0.40000030341E+02 0.  0.
         12    1    3    3    0    0  0.41729084638E+01 -0.35967360087E+02  0.66869055018E+01  0.36820902513E+02  0.00000000000E+00 0. -1.
         11    1    4    4    0    0  0.42258273607E+01  0.10315929160E+02  0.13327789044E+00  0.11148711790E+02  0.51100000000E-03 0. -1.
        -11    1    4    4    0    0  0.32483619041E+00  0.82372612985E+01  0.13023471138E+02  0.15413266786E+02  0.51100000000E-03 0.  1.
        -12    1    4    4    0    0 -0.87235720149E+01  0.17414169628E+02 -0.19843654531E+02  0.27805118911E+02  0.00000000000E+00 0.  1.
</event>
<event>
 8    1  0.2514877E-006  0.9118800E+02  0.7816164E-02  0.1184000E+00
        -11   -1    0    0    0    0  0.00000000000E+00  0.00000000000E+00  0.45593999997E+02  0.45594000000E+02  0.51100000000E-03 0.  1.
         11   -1    0    0    0    0 -0.00000000000E+00 -0.00000000000E+00 -0.45593999997E+02  0.45594000000E+02  0.51100000000E-03 0. -1.
         23    2    1    2    0    0  0.00000000000E+00  0.00000000000E+00 -0.44408920985E-15  0.91188000000E+02  0.91188000000E+02 0.  0.
    9900012    2    3    3    0    0 -0.11510275122E+02  0.34856525401E+02 -0.28838238725E+01  0.54367078820E+02  0.39999987785E+02 0.  0.
        -12    1    3    3    0    0  0.11510275122E+02 -0.34856525401E+02  0.28838238725E+01  0.36820921180E+02  0.00000000000E+00 0.  1.
         11    1    4    4    0    0  0.11324030023E+01  0.18872059542E+01  0.10625218273E+01  0.24439385770E+01  0.51100000000E-03 0.  1.
        -11    1    4    4    0    0  0.31556202883E+01  0.17691439125E+02  0.14609539256E+02  0.23159956720E+02  0.51100000000E-03 0. -1.
        -12    1    4    4    0    0 -0.15798298412E+02  0.15277880322E+02 -0.18555884956E+02  0.28763183523E+02  0.00000000000E+00 0.  1.
</event>
<event>
 8    1  0.2514877E-006  0.9118800E+02  0.7816164E-02  0.1184000E+00
        -11   -1    0    0    0    0  0.00000000000E+00  0.00000000000E+00  0.45593999997E+02  0.45594000000E+02  0.51100000000E-03 0. -1.
         11   -1    0    0    0    0 -0.00000000000E+00 -0.00000000000E+00 -0.45593999997E+02  0.45594000000E+02  0.51100000000E-03 0.  1.
         23    2    1    2    0    0  0.00000000000E+00 -0.35527136788E-14  0.00000000000E+00  0.91188000000E+02  0.91188000000E+02 0.  0.
    9900012    2    3    3    0    0 -0.19608291184E+02 -0.17946382873E+02 -0.25479826095E+02  0.54367091820E+02  0.40000017421E+02 0.  0.
         12    1    3    3    0    0  0.19608291184E+02  0.17946382873E+02  0.25479826095E+02  0.36820908180E+02  0.00000000000E+00 0. -1.
         11    1    4    4    0    0 -0.15580656878E+01 -0.11420796325E+02 -0.24709052454E+01  0.11788449023E+02  0.51100000000E-03 0. -1.
        -11    1    4    4    0    0 -0.23686241145E+02 -0.12818403015E+02 -0.14496485584E+02  0.30585904760E+02  0.51100000000E-03 0.  1.
         12    1    4    4    0    0  0.56360156483E+01  0.62928164665E+01 -0.85124352657E+01  0.11992738037E+02  0.00000000000E+00 0. -1.
</event>
<event>
 8    1  0.2514877E-006  0.9118800E+02  0.7816164E-02  0.1184000E+00
        -11   -1    0    0    0    0  0.00000000000E+00  0.00000000000E+00  0.45593999997E+02  0.45594000000E+02  0.51100000000E-03 0. -1.
         11   -1    0    0    0    0 -0.00000000000E+00 -0.00000000000E+00 -0.45593999997E+02  0.45594000000E+02  0.51100000000E-03 0.  1.
         23    2    1    2    0    0 -0.17763568394E-14  0.00000000000E+00 -0.35527136788E-14  0.91188000000E+02  0.91188000000E+02 0.  0.
    9900012    2    3    3    0    0  0.60456984298E+01 -0.20448296583E+02 -0.30018263623E+02  0.54367089451E+02  0.40000012023E+02 0.  0.
         12    1    3    3    0    0 -0.60456984298E+01  0.20448296583E+02  0.30018263623E+02  0.36820910549E+02  0.00000000000E+00 0. -1.
         11    1    4    4    0    0 -0.70805389015E+01 -0.13230166610E+01  0.17761001562E+01  0.74188231038E+01  0.51100000000E-03 0. -1.
        -11    1    4    4    0    0 -0.61189100946E+01 -0.46172920862E+00 -0.12478877486E+02  0.13905992887E+02  0.51100000000E-03 0.  1.
         12    1    4    4    0    0  0.19245147426E+02 -0.18663550714E+02 -0.19315486294E+02  0.33042273461E+02  0.00000000000E+00 0. -1.
</event>
<event>
 8    1  0.2514877E-006  0.9118800E+02  0.7816164E-02  0.1184000E+00
        -11   -1    0    0    0    0  0.00000000000E+00  0.00000000000E+00  0.45593999997E+02  0.45594000000E+02  0.51100000000E-03 0. -1.
         11   -1    0    0    0    0 -0.00000000000E+00 -0.00000000000E+00 -0.45593999997E+02  0.45594000000E+02  0.51100000000E-03 0.  1.
         23    2    1    2    0    0 -0.35527136788E-14  0.00000000000E+00  0.00000000000E+00  0.91188000000E+02  0.91188000000E+02 0.  0.
    9900012    2    3    3    0    0  0.29806838238E+02  0.87401950269E+01 -0.19772227966E+02  0.54367087280E+02  0.40000007072E+02 0.  0.
         12    1    3    3    0    0 -0.29806838238E+02 -0.87401950269E+01  0.19772227966E+02  0.36820912720E+02  0.00000000000E+00 0. -1.
         11    1    4    4    0    0  0.53870635347E+01 -0.40333034685E+01 -0.15347482794E+02  0.16758079209E+02  0.51100000000E-03 0. -1.
        -11    1    4    4    0    0  0.20667742569E+02  0.90298343458E+01  0.81351683519E+01  0.23976539691E+02  0.51100000000E-03 0.  1.
        -12    1    4    4    0    0  0.37520321343E+01  0.37436641496E+01 -0.12559913523E+02  0.13632468379E+02  0.00000000000E+00 0.  1.
</event>
<event>
 8    1  0.2514877E-006  0.9118800E+02  0.7816164E-02  0.1184000E+00
        -11   -1    0    0    0    0  0.00000000000E+00  0.00000000000E+00  0.45593999997E+02  0.45594000000E+02  0.51100000000E-03 0.  1.
         11   -1    0    0    0    0 -0.00000000000E+00 -0.00000000000E+00 -0.45593999997E+02  0.45594000000E+02  0.51100000000E-03 0. -1.
         23    2    1    2    0    0 -0.44408920985E-15  0.00000000000E+00  0.71054273576E-14  0.91188000000E+02  0.91188000000E+02 0.  0.
    9900012    2    3    3    0    0 -0.27186962399E+01  0.23465834972E+02 -0.28244406045E+02  0.54367038673E+02  0.39999896263E+02 0.  0.
        -12    1    3    3    0    0  0.27186962399E+01 -0.23465834972E+02  0.28244406045E+02  0.36820961327E+02  0.00000000000E+00 0.  1.
         11    1    4    4    0    0  0.19111774987E+00  0.56523455376E+01 -0.27905167034E+02  0.28472511015E+02  0.51100000000E-03 0. -1.
        -11    1    4    4    0    0  0.38723444109E+01  0.16553319360E+02  0.43567269299E+01  0.17549601217E+02  0.51100000000E-03 0.  1.
        -12    1    4    4    0    0 -0.67821584006E+01  0.12601700749E+01 -0.46959659413E+01  0.83449264413E+01  0.00000000000E+00 0.  1.
</event>
<event>
 8    1  0.2514877E-006  0.9118800E+02  0.7816164E-02  0.1184000E+00
        -11   -1    0    0    0    0  0.00000000000E+00  0.00000000000E+00  0.45593999997E+02  0.45594000000E+02  0.51100000000E-03 0.  1.
         11   -1    0    0    0    0 -0.00000000000E+00 -0.00000000000E+00 -0.45593999997E+02  0.45594000000E+02  0.51100000000E-03 0. -1.
         23    2    1    2    0    0  0.35527136788E-14  0.00000000000E+00 -0.17763568394E-14  0.91188000000E+02  0.91188000000E+02 0.  0.
    9900012    2    3    3    0    0  0.25871910970E+02 -0.21171742874E+02  0.15433153831E+02  0.54367072381E+02  0.39999973106E+02 0.  0.
         12    1    3    3    0    0 -0.25871910970E+02  0.21171742874E+02 -0.15433153831E+02  0.36820927619E+02  0.00000000000E+00 0. -1.
         11    1    4    4    0    0  0.48596140719E+01 -0.13864925321E+02 -0.71069217656E+01  0.16320549634E+02  0.51100000000E-03 0. -1.
        -11    1    4    4    0    0  0.70305058784E+01  0.21716933634E+01 -0.25608170387E+01  0.77911519776E+01  0.51100000000E-03 0.  1.
        -12    1    4    4    0    0  0.13981791020E+02 -0.94785109157E+01  0.25100892636E+02  0.30255370770E+02  0.00000000000E+00 0.  1.
</event>
<event>
 8    1  0.2514877E-006  0.9118800E+02  0.7816164E-02  0.1184000E+00
        -11   -1    0    0    0    0  0.00000000000E+00  0.00000000000E+00  0.45593999997E+02  0.45594000000E+02  0.51100000000E-03 0.  1.
         11   -1    0    0    0    0 -0.00000000000E+00 -0.00000000000E+00 -0.45593999997E+02  0.45594000000E+02  0.51100000000E-03 0. -1.
         23    2    1    2    0    0  0.35527136788E-14  0.00000000000E+00 -0.35527136788E-14  0.91188000000E+02  0.91188000000E+02 0.  0.
    9900012    2    3    3    0    0  0.22562968831E+02  0.16986463827E+02 -0.23625241455E+02  0.54367088148E+02  0.40000009050E+02 0.  0.
        -12    1    3    3    0    0 -0.22562968831E+02 -0.16986463827E+02  0.23625241455E+02  0.36820911852E+02  0.00000000000E+00 0.  1.
         11    1    4    4    0    0  0.27667716219E+01  0.10895442218E+02 -0.11423979499E+01  0.11299148626E+02  0.51100000000E-03 0. -1.
        -11    1    4    4    0    0  0.93104480349E+01  0.17070006888E+01  0.68012522055E+01  0.11655699283E+02  0.51100000000E-03 0.  1.
         12    1    4    4    0    0  0.10485749174E+02  0.43840209200E+01 -0.29284095711E+02  0.31412240238E+02  0.00000000000E+00 0. -1.
</event>
<event>
 8    1  0.2514877E-006  0.9118800E+02  0.7816164E-02  0.1184000E+00
        -11   -1    0    0    0    0  0.00000000000E+00  0.00000000000E+00  0.45593999997E+02  0.45594000000E+02  0.51100000000E-03 0. -1.
         11   -1    0    0    0    0 -0.00000000000E+00 -0.00000000000E+00 -0.45593999997E+02  0.45594000000E+02  0.51100000000E-03 0.  1.
         23    2    1    2    0    0  0.00000000000E+00  0.00000000000E+00 -0.35527136788E-14  0.91188000000E+02  0.91188000000E+02 0.  0.
    9900012    2    3    3    0    0 -0.21966966587E+02  0.21526865455E+02  0.20244195338E+02  0.54367068423E+02  0.39999964083E+02 0.  0.
        -12    1    3    3    0    0  0.21966966587E+02 -0.21526865455E+02 -0.20244195338E+02  0.36820931577E+02  0.00000000000E+00 0.  1.
         11    1    4    4    0    0 -0.51173318900E+00  0.41619318303E+01 -0.95934957363E+01  0.10469895325E+02  0.51100000000E-03 0. -1.
        -11    1    4    4    0    0 -0.63168513421E+01  0.71062861054E+00 -0.20403067012E+00  0.63599711222E+01  0.51100000000E-03 0.  1.
        -12    1    4    4    0    0 -0.15138382056E+02  0.16654305014E+02  0.30041721744E+02  0.37537201975E+02  0.00000000000E+00 0.  1.
</event>
<event>
 8    1  0.2514877E-006  0.9118800E+02  0.7816164E-02  0.1184000E+00
        -11   -1    0    0    0    0  0.00000000000E+00  0.00000000000E+00  0.45593999997E+02  0.45594000000E+02  0.51100000000E-03 0.  1.
         11   -1    0    0    0    0 -0.00000000000E+00 -0.00000000000E+00 -0.45593999997E+02  0.45594000000E+02  0.51100000000E-03 0. -1.
         23    2    1    2    0    0  0.17763568394E-14  0.00000000000E+00 -0.17763568394E-14  0.91188000000E+02  0.91188000000E+02 0.  0.
    9900012    2    3    3    0    0 -0.82474982704E+01 -0.33256442507E+02 -0.13482171730E+02  0.54367066409E+02  0.39999959492E+02 0.  0.
        -12    1    3    3    0    0  0.82474982704E+01  0.33256442507E+02  0.13482171730E+02  0.36820933591E+02  0.00000000000E+00 0.  1.
         11    1    4    4    0    0 -0.16512348491E+02 -0.25811792398E+02 -0.17849234544E+02  0.35461266948E+02  0.51100000000E-03 0. -1.
        -11    1    4    4    0    0  0.77520638868E+01  0.21799459417E+01  0.45821818468E+01  0.92651524300E+01  0.51100000000E-03 0.  1.
         12    1    4    4    0    0  0.51278633387E+00 -0.96245960516E+01 -0.21511903347E+00  0.96406470311E+01  0.00000000000E+00 0. -1.
</event>
<event>
 8    1  0.2514877E-006  0.9118800E+02  0.7816164E-02  0.1184000E+00
        -11   -1    0    0    0    0  0.00000000000E+00  0.00000000000E+00  0.45593999997E+02  0.45594000000E+02  0.51100000000E-03 0.  1.
         11   -1    0    0    0    0 -0.00000000000E+00 -0.00000000000E+00 -0.45593999997E+02  0.45594000000E+02  0.51100000000E-03 0. -1.
         23    2    1    2    0    0 -0.88817841970E-15  0.00000000000E+00  0.00000000000E+00  0.91188000000E+02  0.91188000000E+02 0.  0.
    9900012    2    3    3    0    0  0.42311141264E+01 -0.23637095089E+02  0.27913518996E+02  0.54367093796E+02  0.40000021926E+02 0.  0.
         12    1    3    3    0    0 -0.42311141264E+01  0.23637095089E+02 -0.27913518996E+02  0.36820906204E+02  0.00000000000E+00 0. -1.
         11    1    4    4    0    0  0.10738464499E+02  0.43717043673E+01  0.15574293954E+02  0.19416102886E+02  0.51100000000E-03 0. -1.
        -11    1    4    4    0    0 -0.63486694753E+01 -0.27416275293E+02  0.62454692474E+01  0.28826439972E+02  0.51100000000E-03 0.  1.
        -12    1    4    4    0    0 -0.15868089707E+00 -0.59252416307E+00  0.60937557943E+01  0.61245509380E+01  0.00000000000E+00 0.  1.
</event>
<event>
 8    1  0.2514877E-006  0.9118800E+02  0.7816164E-02  0.1184000E+00
        -11   -1    0    0    0    0  0.00000000000E+00  0.00000000000E+00  0.45593999997E+02  0.45594000000E+02  0.51100000000E-03 0.  1.
         11   -1    0    0    0    0 -0.00000000000E+00 -0.00000000000E+00 -0.45593999997E+02  0.45594000000E+02  0.51100000000E-03 0. -1.
         23    2    1    2    0    0  0.00000000000E+00  0.00000000000E+00  0.00000000000E+00  0.91188000000E+02  0.91188000000E+02 0.  0.
    9900012    2    3    3    0    0 -0.10980668677E+02 -0.33226252262E+02 -0.11455174349E+02  0.54367082801E+02  0.39999996862E+02 0.  0.
        -12    1    3    3    0    0  0.10980668677E+02  0.33226252262E+02  0.11455174349E+02  0.36820917199E+02  0.00000000000E+00 0.  1.
         11    1    4    4    0    0 -0.71167008923E+01  0.17505833137E+01 -0.90331382021E+00  0.73843042764E+01  0.51100000000E-03 0. -1.
        -11    1    4    4    0    0 -0.11293155979E+02 -0.25297353163E+01 -0.69553900295E+01  0.13502310301E+02  0.51100000000E-03 0.  1.
         12    1    4    4    0    0  0.74291881940E+01 -0.32447100259E+02 -0.35964704995E+01  0.33480468224E+02  0.00000000000E+00 0. -1.
</event>
<event>
 8    1  0.2514877E-006  0.9118800E+02  0.7816164E-02  0.1184000E+00
        -11   -1    0    0    0    0  0.00000000000E+00  0.00000000000E+00  0.45593999997E+02  0.45594000000E+02  0.51100000000E-03 0.  1.
         11   -1    0    0    0    0 -0.00000000000E+00 -0.00000000000E+00 -0.45593999997E+02  0.45594000000E+02  0.51100000000E-03 0. -1.
         23    2    1    2    0    0  0.00000000000E+00 -0.35527136788E-14  0.00000000000E+00  0.91188000000E+02  0.91188000000E+02 0.  0.
    9900012    2    3    3    0    0  0.71372484958E+01 -0.31139641040E+02 -0.18307387999E+02  0.54367108980E+02  0.40000056542E+02 0.  0.
        -12    1    3    3    0    0 -0.71372484958E+01  0.31139641040E+02  0.18307387999E+02  0.36820891020E+02  0.00000000000E+00 0.  1.
         11    1    4    4    0    0  0.85995643713E+01 -0.13574938296E+02  0.21651414439E+01  0.16214786303E+02  0.51100000000E-03 0. -1.
        -11    1    4    4    0    0 -0.12334888303E+02 -0.16986278568E+02 -0.10894468068E+02  0.23651058408E+02  0.51100000000E-03 0.  1.
         12    1    4    4    0    0  0.10872572428E+02 -0.57842417567E+00 -0.95780613744E+01  0.14501264270E+02  0.00000000000E+00 0. -1.
</event>
<event>
 8    1  0.2514877E-006  0.9118800E+02  0.7816164E-02  0.1184000E+00
        -11   -1    0    0    0    0  0.00000000000E+00  0.00000000000E+00  0.45593999997E+02  0.45594000000E+02  0.51100000000E-03 0. -1.
         11   -1    0    0    0    0 -0.00000000000E+00 -0.00000000000E+00 -0.45593999997E+02  0.45594000000E+02  0.51100000000E-03 0.  1.
         23    2    1    2    0    0  0.44408920985E-15 -0.35527136788E-14  0.00000000000E+00  0.91188000000E+02  0.91188000000E+02 0.  0.
    9900012    2    3    3    0    0 -0.30553237171E+01 -0.23147047219E+02  0.28472214948E+02  0.54366975815E+02  0.39999752965E+02 0.  0.
        -12    1    3    3    0    0  0.30553237171E+01  0.23147047219E+02 -0.28472214948E+02  0.36821024185E+02  0.00000000000E+00 0.  1.
         11    1    4    4    0    0 -0.85801122151E+00  0.76989257538E+01  0.52889223939E+01  0.93798902642E+01  0.51100000000E-03 0. -1.
        -11    1    4    4    0    0 -0.10555048089E+02 -0.26869253901E+02  0.20306366925E+02  0.35294679250E+02  0.51100000000E-03 0.  1.
        -12    1    4    4    0    0  0.83577355938E+01 -0.39767190718E+01  0.28769256285E+01  0.96924063010E+01  0.00000000000E+00 0.  1.
</event>
<event>
 8    1  0.2514877E-006  0.9118800E+02  0.7816164E-02  0.1184000E+00
        -11   -1    0    0    0    0  0.00000000000E+00  0.00000000000E+00  0.45593999997E+02  0.45594000000E+02  0.51100000000E-03 0. -1.
         11   -1    0    0    0    0 -0.00000000000E+00 -0.00000000000E+00 -0.45593999997E+02  0.45594000000E+02  0.51100000000E-03 0.  1.
         23    2    1    2    0    0  0.00000000000E+00 -0.17763568394E-14  0.00000000000E+00  0.91188000000E+02  0.91188000000E+02 0.  0.
    9900012    2    3    3    0    0  0.31201373633E+02 -0.15697004232E+02  0.11655862622E+02  0.54367071278E+02  0.39999970593E+02 0.  0.
        -12    1    3    3    0    0 -0.31201373633E+02  0.15697004232E+02 -0.11655862622E+02  0.36820928722E+02  0.00000000000E+00 0.  1.
         11    1    4    4    0    0  0.16894172503E+02 -0.19350459553E+02  0.85988379791E+01  0.27088620568E+02  0.51100000000E-03 0.  1.
        -11    1    4    4    0    0  0.82186705264E+01  0.91495569094E+01  0.10523645330E+02  0.16186662663E+02  0.51100000000E-03 0. -1.
         12    1    4    4    0    0  0.60885306042E+01 -0.54961015889E+01 -0.74666206870E+01  0.11091788047E+02  0.00000000000E+00 0. -1.
</event>
<event>
 8    1  0.2514877E-006  0.9118800E+02  0.7816164E-02  0.1184000E+00
        -11   -1    0    0    0    0  0.00000000000E+00  0.00000000000E+00  0.45593999997E+02  0.45594000000E+02  0.51100000000E-03 0. -1.
         11   -1    0    0    0    0 -0.00000000000E+00 -0.00000000000E+00 -0.45593999997E+02  0.45594000000E+02  0.51100000000E-03 0.  1.
         23    2    1    2    0    0 -0.35527136788E-14  0.35527136788E-14 -0.31086244690E-14  0.91188000000E+02  0.91188000000E+02 0.  0.
    9900012    2    3    3    0    0 -0.22304824864E+02 -0.29063805635E+02  0.36837935922E+01  0.54367077341E+02  0.39999984414E+02 0.  0.
        -12    1    3    3    0    0  0.22304824864E+02  0.29063805635E+02 -0.36837935922E+01  0.36820922659E+02  0.00000000000E+00 0.  1.
         11    1    4    4    0    0 -0.53794592646E+01 -0.17487609624E+02  0.14390236654E+02  0.23277327672E+02  0.51100000000E-03 0. -1.
        -11    1    4    4    0    0 -0.21443526096E+02 -0.11814016458E+02 -0.10252570475E+02  0.26542626055E+02  0.51100000000E-03 0.  1.
        -12    1    4    4    0    0  0.45181604962E+01  0.23782044713E+00 -0.45387258626E+00  0.45471236138E+01  0.00000000000E+00 0.  1.
</event>
<event>
 8    1  0.2514877E-006  0.9118800E+02  0.7816164E-02  0.1184000E+00
        -11   -1    0    0    0    0  0.00000000000E+00  0.00000000000E+00  0.45593999997E+02  0.45594000000E+02  0.51100000000E-03 0. -1.
         11   -1    0    0    0    0 -0.00000000000E+00 -0.00000000000E+00 -0.45593999997E+02  0.45594000000E+02  0.51100000000E-03 0.  1.
         23    2    1    2    0    0 -0.35527136788E-14  0.17763568394E-14  0.00000000000E+00  0.91188000000E+02  0.91188000000E+02 0.  0.
    9900012    2    3    3    0    0  0.27462138034E+02 -0.14625703284E+02  0.19690085906E+02  0.54367086039E+02  0.40000004243E+02 0.  0.
        -12    1    3    3    0    0 -0.27462138034E+02  0.14625703284E+02 -0.19690085906E+02  0.36820913961E+02  0.00000000000E+00 0.  1.
         11    1    4    4    0    0  0.20480209468E+02 -0.10496842565E+01 -0.83213524236E+01  0.22131103075E+02  0.51100000000E-03 0. -1.
        -11    1    4    4    0    0 -0.66192983982E+00 -0.17106063416E+01  0.34857870136E+01  0.39389131158E+01  0.51100000000E-03 0.  1.
         12    1    4    4    0    0  0.76438584058E+01 -0.11865412685E+02  0.24525651316E+02  0.28297069848E+02  0.00000000000E+00 0. -1.
</event>
<event>
 8    1  0.2514877E-006  0.9118800E+02  0.7816164E-02  0.1184000E+00
        -11   -1    0    0    0    0  0.00000000000E+00  0.00000000000E+00  0.45593999997E+02  0.45594000000E+02  0.51100000000E-03 0. -1.
         11   -1    0    0    0    0 -0.00000000000E+00 -0.00000000000E+00 -0.45593999997E+02  0.45594000000E+02  0.51100000000E-03 0.  1.
         23    2    1    2    0    0 -0.17763568394E-14 -0.17763568394E-14  0.35527136788E-14  0.91188000000E+02  0.91188000000E+02 0.  0.
    9900012    2    3    3    0    0  0.15081752461E+02 -0.14087705369E+02  0.30493533721E+02  0.54367105135E+02  0.40000047776E+02 0.  0.
        -12    1    3    3    0    0 -0.15081752461E+02  0.14087705369E+02 -0.30493533721E+02  0.36820894865E+02  0.00000000000E+00 0.  1.
         11    1    4    4    0    0  0.15935902207E+02 -0.20236510450E+02  0.24892229828E+02  0.35820279737E+02  0.51100000000E-03 0. -1.
        -11    1    4    4    0    0 -0.67217492621E+01  0.33281148468E+01 -0.27225204336E+01  0.79793721149E+01  0.51100000000E-03 0.  1.
        -12    1    4    4    0    0  0.58675995165E+01  0.28206902340E+01  0.83238243265E+01  0.10567453284E+02  0.00000000000E+00 0.  1.
</event>
<event>
 8    1  0.2514877E-006  0.9118800E+02  0.7816164E-02  0.1184000E+00
        -11   -1    0    0    0    0  0.00000000000E+00  0.00000000000E+00  0.45593999997E+02  0.45594000000E+02  0.51100000000E-03 0.  1.
         11   -1    0    0    0    0 -0.00000000000E+00 -0.00000000000E+00 -0.45593999997E+02  0.45594000000E+02  0.51100000000E-03 0. -1.
         23    2    1    2    0    0  0.00000000000E+00  0.00000000000E+00  0.17763568394E-14  0.91188000000E+02  0.91188000000E+02 0.  0.
    9900012    2    3    3    0    0 -0.20185597466E+02  0.27461959337E+02  0.13934216458E+02  0.54367082793E+02  0.39999996843E+02 0.  0.
         12    1    3    3    0    0  0.20185597466E+02 -0.27461959337E+02 -0.13934216458E+02  0.36820917207E+02  0.00000000000E+00 0. -1.
         11    1    4    4    0    0  0.26474117839E+01 -0.54500250816E+00 -0.32914897669E+01  0.42590752558E+01  0.51100000000E-03 0. -1.
        -11    1    4    4    0    0 -0.27819673297E+02  0.19279754403E+02  0.20458041964E+02  0.39549647703E+02  0.51100000000E-03 0.  1.
        -12    1    4    4    0    0  0.49866640470E+01  0.87272074423E+01 -0.32323357385E+01  0.10558359834E+02  0.00000000000E+00 0.  1.
</event>
<event>
 8    1  0.2514877E-006  0.9118800E+02  0.7816164E-02  0.1184000E+00
        -11   -1    0    0    0    0  0.00000000000E+00  0.00000000000E+00  0.45593999997E+02  0.45594000000E+02  0.51100000000E-03 0.  1.
         11   -1    0    0    0    0 -0.00000000000E+00 -0.00000000000E+00 -0.45593999997E+02  0.45594000000E+02  0.51100000000E-03 0. -1.
         23    2    1    2    0    0 -0.35527136788E-14  0.88817841970E-15  0.00000000000E+00  0.91188000000E+02  0.91188000000E+02 0.  0.
    9900012    2    3    3    0    0  0.17856684950E+02 -0.74238332585E+01 -0.31333816890E+02  0.54367047017E+02  0.39999915286E+02 0.  0.
        -12    1    3    3    0    0 -0.17856684950E+02  0.74238332585E+01  0.31333816890E+02  0.36820952983E+02  0.00000000000E+00 0.  1.
         11    1    4    4    0    0  0.72188723501E+01 -0.16672265342E+01 -0.28767764932E+02  0.29706498645E+02  0.51100000000E-03 0. -1.
        -11    1    4    4    0    0  0.14814384502E+02 -0.67866786777E+01 -0.76496211191E+01  0.18001158273E+02  0.51100000000E-03 0.  1.
         12    1    4    4    0    0 -0.41765719020E+01  0.10300719533E+01  0.50835691610E+01  0.66593900994E+01  0.00000000000E+00 0. -1.
</event>
<event>
 8    1  0.2514877E-006  0.9118800E+02  0.7816164E-02  0.1184000E+00
        -11   -1    0    0    0    0  0.00000000000E+00  0.00000000000E+00  0.45593999997E+02  0.45594000000E+02  0.51100000000E-03 0. -1.
         11   -1    0    0    0    0 -0.00000000000E+00 -0.00000000000E+00 -0.45593999997E+02  0.45594000000E+02  0.51100000000E-03 0.  1.
         23    2    1    2    0    0  0.22204460493E-14  0.00000000000E+00 -0.71054273576E-14  0.91188000000E+02  0.91188000000E+02 0.  0.
    9900012    2    3    3    0    0 -0.36344537642E+01  0.21425889508E+02  0.29723756802E+02  0.54367085918E+02  0.40000003968E+02 0.  0.
        -12    1    3    3    0    0  0.36344537642E+01 -0.21425889508E+02 -0.29723756802E+02  0.36820914082E+02  0.00000000000E+00 0.  1.
         11    1    4    4    0    0 -0.60279194217E+01  0.93520741418E+01  0.36978660692E+01  0.11724816290E+02  0.51100000000E-03 0. -1.
        -11    1    4    4    0    0 -0.98290423298E+01  0.16615811544E+02  0.21365038590E+02  0.28795140920E+02  0.51100000000E-03 0.  1.
        -12    1    4    4    0    0  0.12222507987E+02 -0.45419961772E+01  0.46608521433E+01  0.13847128709E+02  0.00000000000E+00 0.  1.
</event>
<event>
 8    1  0.2514877E-006  0.9118800E+02  0.7816164E-02  0.1184000E+00
        -11   -1    0    0    0    0  0.00000000000E+00  0.00000000000E+00  0.45593999997E+02  0.45594000000E+02  0.51100000000E-03 0.  1.
         11   -1    0    0    0    0 -0.00000000000E+00 -0.00000000000E+00 -0.45593999997E+02  0.45594000000E+02  0.51100000000E-03 0. -1.
         23    2    1    2    0    0  0.00000000000E+00  0.00000000000E+00  0.00000000000E+00  0.91188000000E+02  0.91188000000E+02 0.  0.
    9900012    2    3    3    0    0 -0.12562467428E+02  0.30863277528E+02  0.15666040560E+02  0.54367050604E+02  0.39999923461E+02 0.  0.
         12    1    3    3    0    0  0.12562467428E+02 -0.30863277528E+02 -0.15666040560E+02  0.36820949396E+02  0.00000000000E+00 0. -1.
         11    1    4    4    0    0 -0.14963699152E+02  0.19380292878E+02  0.14951717364E+01  0.24530462351E+02  0.51100000000E-03 0. -1.
        -11    1    4    4    0    0  0.27090828294E+01  0.18747301424E+02  0.11000592510E+02  0.21904645085E+02  0.51100000000E-03 0.  1.
         12    1    4    4    0    0 -0.30785110552E+00 -0.72643167751E+01  0.31702763138E+01  0.79319431679E+01  0.00000000000E+00 0. -1.
</event>
<event>
 8    1  0.2514877E-006  0.9118800E+02  0.7816164E-02  0.1184000E+00
        -11   -1    0    0    0    0  0.00000000000E+00  0.00000000000E+00  0.45593999997E+02  0.45594000000E+02  0.51100000000E-03 0.  1.
         11   -1    0    0    0    0 -0.00000000000E+00 -0.00000000000E+00 -0.45593999997E+02  0.45594000000E+02  0.51100000000E-03 0. -1.
         23    2    1    2    0    0 -0.17763568394E-14  0.17763568394E-14  0.00000000000E+00  0.91188000000E+02  0.91188000000E+02 0.  0.
    9900012    2    3    3    0    0 -0.15346264285E+02  0.86859342412E+01 -0.32323793883E+02  0.54367069374E+02  0.39999966252E+02 0.  0.
        -12    1    3    3    0    0  0.15346264285E+02 -0.86859342412E+01  0.32323793883E+02  0.36820930626E+02  0.00000000000E+00 0.  1.
         11    1    4    4    0    0 -0.17314065530E+02  0.26465786699E+01 -0.26052803737E+02  0.31393149358E+02  0.51100000000E-03 0. -1.
        -11    1    4    4    0    0 -0.41322186500E+01 -0.15341493352E+01  0.59191692885E+01  0.73800684604E+01  0.51100000000E-03 0.  1.
        -12    1    4    4    0    0  0.61000198946E+01  0.75735049066E+01 -0.12190159435E+02  0.15593851555E+02  0.00000000000E+00 0.  1.
</event>
<event>
 8    1  0.2514877E-006  0.9118800E+02  0.7816164E-02  0.1184000E+00
        -11   -1    0    0    0    0  0.00000000000E+00  0.00000000000E+00  0.45593999997E+02  0.45594000000E+02  0.51100000000E-03 0. -1.
         11   -1    0    0    0    0 -0.00000000000E+00 -0.00000000000E+00 -0.45593999997E+02  0.45594000000E+02  0.51100000000E-03 0.  1.
         23    2    1    2    0    0  0.00000000000E+00  0.00000000000E+00 -0.17763568394E-14  0.91188000000E+02  0.91188000000E+02 0.  0.
    9900012    2    3    3    0    0  0.33710724131E+02  0.26357818638E+01 -0.14574641873E+02  0.54367075878E+02  0.39999981080E+02 0.  0.
         12    1    3    3    0    0 -0.33710724131E+02 -0.26357818638E+01  0.14574641873E+02  0.36820924122E+02  0.00000000000E+00 0. -1.
         11    1    4    4    0    0  0.13725825911E+02  0.98659192702E+01  0.76994894862E+00  0.16921213953E+02  0.51100000000E-03 0. -1.
        -11    1    4    4    0    0  0.22529315122E+02  0.31495500587E+01 -0.67413816716E+01  0.23726270936E+02  0.51100000000E-03 0.  1.
        -12    1    4    4    0    0 -0.25444169023E+01 -0.10379687465E+02 -0.86032091498E+01  0.13719590990E+02  0.00000000000E+00 0.  1.
</event>
<event>
 8    1  0.2514877E-006  0.9118800E+02  0.7816164E-02  0.1184000E+00
        -11   -1    0    0    0    0  0.00000000000E+00  0.00000000000E+00  0.45593999997E+02  0.45594000000E+02  0.51100000000E-03 0. -1.
         11   -1    0    0    0    0 -0.00000000000E+00 -0.00000000000E+00 -0.45593999997E+02  0.45594000000E+02  0.51100000000E-03 0.  1.
         23    2    1    2    0    0  0.88817841970E-15  0.00000000000E+00  0.00000000000E+00  0.91188000000E+02  0.91188000000E+02 0.  0.
    9900012    2    3    3    0    0 -0.58359217063E+01  0.32169192917E+02 -0.16937089511E+02  0.54367082627E+02  0.39999996465E+02 0.  0.
         12    1    3    3    0    0  0.58359217063E+01 -0.32169192917E+02  0.16937089511E+02  0.36820917373E+02  0.00000000000E+00 0. -1.
         11    1    4    4    0    0 -0.18676813333E+01  0.21226610757E+02 -0.17711493883E+02  0.27708378762E+02  0.51100000000E-03 0.  1.
        -11    1    4    4    0    0 -0.59879526166E+01  0.17934965846E+02  0.27745438399E+01  0.19110642852E+02  0.51100000000E-03 0. -1.
        -12    1    4    4    0    0  0.20197122437E+01 -0.69923836864E+01 -0.20001394677E+01  0.75480610130E+01  0.00000000000E+00 0.  1.
</event>
<event>
 8    1  0.2514877E-006  0.9118800E+02  0.7816164E-02  0.1184000E+00
        -11   -1    0    0    0    0  0.00000000000E+00  0.00000000000E+00  0.45593999997E+02  0.45594000000E+02  0.51100000000E-03 0.  1.
         11   -1    0    0    0    0 -0.00000000000E+00 -0.00000000000E+00 -0.45593999997E+02  0.45594000000E+02  0.51100000000E-03 0. -1.
         23    2    1    2    0    0  0.00000000000E+00  0.17763568394E-14  0.00000000000E+00  0.91188000000E+02  0.91188000000E+02 0.  0.
    9900012    2    3    3    0    0  0.24190813149E+02 -0.15155893586E+02 -0.23256854269E+02  0.54367111612E+02  0.40000062541E+02 0.  0.
        -12    1    3    3    0    0 -0.24190813149E+02  0.15155893586E+02  0.23256854269E+02  0.36820888388E+02  0.00000000000E+00 0.  1.
         11    1    4    4    0    0 -0.18111320809E+00 -0.13249133289E+02 -0.18768390783E+02  0.22974438573E+02  0.51100000000E-03 0. -1.
        -11    1    4    4    0    0  0.49929191605E+01  0.63676508877E+01 -0.62832655427E+01  0.10244786270E+02  0.51100000000E-03 0.  1.
         12    1    4    4    0    0  0.19379007197E+02 -0.82744111845E+01  0.17948020563E+01  0.21147886769E+02  0.00000000000E+00 0. -1.
</event>
<event>
 8    1  0.2514877E-006  0.9118800E+02  0.7816164E-02  0.1184000E+00
        -11   -1    0    0    0    0  0.00000000000E+00  0.00000000000E+00  0.45593999997E+02  0.45594000000E+02  0.51100000000E-03 0. -1.
         11   -1    0    0    0    0 -0.00000000000E+00 -0.00000000000E+00 -0.45593999997E+02  0.45594000000E+02  0.51100000000E-03 0.  1.
         23    2    1    2    0    0  0.00000000000E+00  0.17763568394E-14  0.00000000000E+00  0.91188000000E+02  0.91188000000E+02 0.  0.
    9900012    2    3    3    0    0  0.22580509046E+02 -0.12482054172E+02  0.26269722397E+02  0.54367090451E+02  0.40000014302E+02 0.  0.
        -12    1    3    3    0    0 -0.22580509046E+02  0.12482054172E+02 -0.26269722397E+02  0.36820909549E+02  0.00000000000E+00 0.  1.
         11    1    4    4    0    0  0.20851570170E+01  0.61924234913E+01 -0.13873971007E+01  0.66797349841E+01  0.51100000000E-03 0. -1.
        -11    1    4    4    0    0  0.31767079722E-01 -0.32079032911E+01 -0.51348408790E+01  0.60546051717E+01  0.51100000000E-03 0.  1.
         12    1    4    4    0    0  0.20463584950E+02 -0.15466574372E+02  0.32791960377E+02  0.41632750296E+02  0.00000000000E+00 0. -1.
</event>
<event>
 8    1  0.2514877E-006  0.9118800E+02  0.7816164E-02  0.1184000E+00
        -11   -1    0    0    0    0  0.00000000000E+00  0.00000000000E+00  0.45593999997E+02  0.45594000000E+02  0.51100000000E-03 0.  1.
         11   -1    0    0    0    0 -0.00000000000E+00 -0.00000000000E+00 -0.45593999997E+02  0.45594000000E+02  0.51100000000E-03 0. -1.
         23    2    1    2    0    0  0.00000000000E+00  0.17763568394E-14  0.00000000000E+00  0.91188000000E+02  0.91188000000E+02 0.  0.
    9900012    2    3    3    0    0 -0.10017682289E+02 -0.70213023125E+01  0.34729346277E+02  0.54367080166E+02  0.39999990855E+02 0.  0.
         12    1    3    3    0    0  0.10017682289E+02  0.70213023125E+01 -0.34729346277E+02  0.36820919834E+02  0.00000000000E+00 0. -1.
         11    1    4    4    0    0  0.28047306400E+00 -0.88303133692E+01  0.40055525354E+02  0.41018266796E+02  0.51100000000E-03 0.  1.
        -11    1    4    4    0    0 -0.22270991131E+00  0.17932706399E+01 -0.20977651898E+01  0.27687611571E+01  0.51100000000E-03 0. -1.
        -12    1    4    4    0    0 -0.10075445441E+02  0.15740416795E-01 -0.32284138875E+01  0.10580052213E+02  0.00000000000E+00 0.  1.
</event>
<event>
 8    1  0.2514877E-006  0.9118800E+02  0.7816164E-02  0.1184000E+00
        -11   -1    0    0    0    0  0.00000000000E+00  0.00000000000E+00  0.45593999997E+02  0.45594000000E+02  0.51100000000E-03 0.  1.
         11   -1    0    0    0    0 -0.00000000000E+00 -0.00000000000E+00 -0.45593999997E+02  0.45594000000E+02  0.51100000000E-03 0. -1.
         23    2    1    2    0    0  0.00000000000E+00  0.00000000000E+00  0.88817841970E-15  0.91188000000E+02  0.91188000000E+02 0.  0.
    9900012    2    3    3    0    0 -0.78562858182E+01  0.35945885515E+02  0.13982806855E+01  0.54367039921E+02  0.39999899107E+02 0.  0.
         12    1    3    3    0    0  0.78562858182E+01 -0.35945885515E+02 -0.13982806855E+01  0.36820960079E+02  0.00000000000E+00 0. -1.
         11    1    4    4    0    0  0.12293980113E+02  0.78923780411E+01 -0.51020249603E+01  0.15474567429E+02  0.51100000000E-03 0. -1.
        -11    1    4    4    0    0 -0.10069202618E+02  0.84058385653E+01  0.10052336733E+02  0.16525629713E+02  0.51100000000E-03 0.  1.
        -12    1    4    4    0    0 -0.10081063313E+02  0.19647668908E+02 -0.35520310871E+01  0.22366842779E+02  0.00000000000E+00 0.  1.
</event>
<event>
 8    1  0.2514877E-006  0.9118800E+02  0.7816164E-02  0.1184000E+00
        -11   -1    0    0    0    0  0.00000000000E+00  0.00000000000E+00  0.45593999997E+02  0.45594000000E+02  0.51100000000E-03 0.  1.
         11   -1    0    0    0    0 -0.00000000000E+00 -0.00000000000E+00 -0.45593999997E+02  0.45594000000E+02  0.51100000000E-03 0. -1.
         23    2    1    2    0    0  0.00000000000E+00  0.00000000000E+00 -0.71054273576E-14  0.91188000000E+02  0.91188000000E+02 0.  0.
    9900012    2    3    3    0    0  0.24875547522E+02 -0.11396509489E+02  0.24639513830E+02  0.54367096496E+02  0.40000028082E+02 0.  0.
         12    1    3    3    0    0 -0.24875547522E+02  0.11396509489E+02 -0.24639513830E+02  0.36820903504E+02  0.00000000000E+00 0. -1.
         11    1    4    4    0    0  0.56632992966E+00 -0.10209913024E+02  0.46552615681E+01  0.11235413392E+02  0.51100000000E-03 0. -1.
        -11    1    4    4    0    0  0.24777978299E+02 -0.79523528916E+01  0.23872566566E+02  0.35314126916E+02  0.51100000000E-03 0.  1.
         12    1    4    4    0    0 -0.46876070659E+00  0.67657564273E+01 -0.38883143040E+01  0.78175561885E+01  0.00000000000E+00 0. -1.
</event>
<event>
 8    1  0.2514877E-006  0.9118800E+02  0.7816164E-02  0.1184000E+00
        -11   -1    0    0    0    0  0.00000000000E+00  0.00000000000E+00  0.45593999997E+02  0.45594000000E+02  0.51100000000E-03 0. -1.
         11   -1    0    0    0    0 -0.00000000000E+00 -0.00000000000E+00 -0.45593999997E+02  0.45594000000E+02  0.51100000000E-03 0.  1.
         23    2    1    2    0    0 -0.22204460493E-15  0.71054273576E-14  0.35527136788E-14  0.91188000000E+02  0.91188000000E+02 0.  0.
    9900012    2    3    3    0    0  0.11276598719E+01 -0.28308530669E+02 -0.23518838190E+02  0.54367078295E+02  0.39999986589E+02 0.  0.
         12    1    3    3    0    0 -0.11276598719E+01  0.28308530669E+02  0.23518838190E+02  0.36820921705E+02  0.00000000000E+00 0. -1.
         11    1    4    4    0    0  0.16306263768E+02 -0.27570373373E+01 -0.40325920900E+01  0.17022258727E+02  0.51100000000E-03 0. -1.
        -11    1    4    4    0    0 -0.75654042222E+01 -0.11209853154E+02 -0.15606020260E+02  0.20650520995E+02  0.51100000000E-03 0.  1.
        -12    1    4    4    0    0 -0.76131996738E+01 -0.14341640178E+02 -0.38802258403E+01  0.16694298573E+02  0.00000000000E+00 0.  1.
</event>
<event>
 8    1  0.2514877E-006  0.9118800E+02  0.7816164E-02  0.1184000E+00
        -11   -1    0    0    0    0  0.00000000000E+00  0.00000000000E+00  0.45593999997E+02  0.45594000000E+02  0.51100000000E-03 0.  1.
         11   -1    0    0    0    0 -0.00000000000E+00 -0.00000000000E+00 -0.45593999997E+02  0.45594000000E+02  0.51100000000E-03 0. -1.
         23    2    1    2    0    0  0.00000000000E+00  0.00000000000E+00  0.00000000000E+00  0.91188000000E+02  0.91188000000E+02 0.  0.
    9900012    2    3    3    0    0  0.22880632444E+02  0.17183770930E+02 -0.23172668547E+02  0.54367110657E+02  0.40000060365E+02 0.  0.
        -12    1    3    3    0    0 -0.22880632444E+02 -0.17183770930E+02  0.23172668547E+02  0.36820889343E+02  0.00000000000E+00 0.  1.
         11    1    4    4    0    0  0.41769125385E+01  0.79192860347E+01 -0.23952845784E+02  0.25571478469E+02  0.51100000000E-03 0.  1.
        -11    1    4    4    0    0  0.12288206476E+02  0.99678722649E+01 -0.81334740246E+01  0.17790781204E+02  0.51100000000E-03 0. -1.
        -12    1    4    4    0    0  0.64155134292E+01 -0.70338736913E+00  0.89136512621E+01  0.11004850984E+02  0.00000000000E+00 0.  1.
</event>
<event>
 8    1  0.2514877E-006  0.9118800E+02  0.7816164E-02  0.1184000E+00
        -11   -1    0    0    0    0  0.00000000000E+00  0.00000000000E+00  0.45593999997E+02  0.45594000000E+02  0.51100000000E-03 0. -1.
         11   -1    0    0    0    0 -0.00000000000E+00 -0.00000000000E+00 -0.45593999997E+02  0.45594000000E+02  0.51100000000E-03 0.  1.
         23    2    1    2    0    0  0.00000000000E+00  0.00000000000E+00  0.35527136788E-14  0.91188000000E+02  0.91188000000E+02 0.  0.
    9900012    2    3    3    0    0  0.60288858178E+01 -0.18005456156E+02  0.31547340986E+02  0.54367100515E+02  0.40000037244E+02 0.  0.
        -12    1    3    3    0    0 -0.60288858178E+01  0.18005456156E+02 -0.31547340986E+02  0.36820899485E+02  0.00000000000E+00 0.  1.
         11    1    4    4    0    0 -0.84155901323E+00 -0.11223470627E+02  0.16189870657E+02  0.19717667881E+02  0.51100000000E-03 0.  1.
        -11    1    4    4    0    0 -0.92850866896E+00  0.50621919739E+01 -0.66865300668E+01  0.84378670602E+01  0.51100000000E-03 0. -1.
        -12    1    4    4    0    0  0.77989535000E+01 -0.11844177502E+02  0.22044000396E+02  0.26211565574E+02  0.00000000000E+00 0.  1.
</event>
<event>
 8    1  0.2514877E-006  0.9118800E+02  0.7816164E-02  0.1184000E+00
        -11   -1    0    0    0    0  0.00000000000E+00  0.00000000000E+00  0.45593999997E+02  0.45594000000E+02  0.51100000000E-03 0. -1.
         11   -1    0    0    0    0 -0.00000000000E+00 -0.00000000000E+00 -0.45593999997E+02  0.45594000000E+02  0.51100000000E-03 0.  1.
         23    2    1    2    0    0  0.00000000000E+00  0.17763568394E-14  0.35527136788E-14  0.91188000000E+02  0.91188000000E+02 0.  0.
    9900012    2    3    3    0    0  0.14160595136E+02 -0.13815528277E+02 -0.31054735651E+02  0.54366974993E+02  0.39999751091E+02 0.  0.
         12    1    3    3    0    0 -0.14160595136E+02  0.13815528277E+02  0.31054735651E+02  0.36821025007E+02  0.00000000000E+00 0. -1.
         11    1    4    4    0    0 -0.40523879328E+01 -0.14854574189E+01 -0.90818502166E+01  0.10055269033E+02  0.51100000000E-03 0. -1.
        -11    1    4    4    0    0  0.68201109793E+01 -0.22215915269E+02 -0.15258647001E+02  0.27800847354E+02  0.51100000000E-03 0.  1.
         12    1    4    4    0    0  0.11392872090E+02  0.98858444112E+01 -0.67142384332E+01  0.16510858606E+02  0.00000000000E+00 0. -1.
</event>
<event>
 8    1  0.2514877E-006  0.9118800E+02  0.7816164E-02  0.1184000E+00
        -11   -1    0    0    0    0  0.00000000000E+00  0.00000000000E+00  0.45593999997E+02  0.45594000000E+02  0.51100000000E-03 0. -1.
         11   -1    0    0    0    0 -0.00000000000E+00 -0.00000000000E+00 -0.45593999997E+02  0.45594000000E+02  0.51100000000E-03 0.  1.
         23    2    1    2    0    0  0.35527136788E-14 -0.88817841970E-15  0.71054273576E-14  0.91188000000E+02  0.91188000000E+02 0.  0.
    9900012    2    3    3    0    0 -0.13803523019E+02 -0.53113714003E+01 -0.33720078475E+02  0.54366924428E+02  0.39999635817E+02 0.  0.
         12    1    3    3    0    0  0.13803523019E+02  0.53113714003E+01  0.33720078475E+02  0.36821075572E+02  0.00000000000E+00 0. -1.
         11    1    4    4    0    0 -0.13524032645E+02 -0.10240834845E+02 -0.10343652027E+02  0.19868701387E+02  0.51100000000E-03 0. -1.
        -11    1    4    4    0    0 -0.49074540779E+01  0.14642225442E+01 -0.27127356872E+02  0.27606530827E+02  0.51100000000E-03 0.  1.
        -12    1    4    4    0    0  0.46279637033E+01  0.34652409001E+01  0.37509304237E+01  0.68916922144E+01  0.00000000000E+00 0.  1.
</event>
<event>
 8    1  0.2514877E-006  0.9118800E+02  0.7816164E-02  0.1184000E+00
        -11   -1    0    0    0    0  0.00000000000E+00  0.00000000000E+00  0.45593999997E+02  0.45594000000E+02  0.51100000000E-03 0.  1.
         11   -1    0    0    0    0 -0.00000000000E+00 -0.00000000000E+00 -0.45593999997E+02  0.45594000000E+02  0.51100000000E-03 0. -1.
         23    2    1    2    0    0  0.00000000000E+00  0.36082248300E-15 -0.71054273576E-14  0.91188000000E+02  0.91188000000E+02 0.  0.
    9900012    2    3    3    0    0 -0.10741341722E+02 -0.66371385442E-01  0.35219302871E+02  0.54367080377E+02  0.39999991336E+02 0.  0.
         12    1    3    3    0    0  0.10741341722E+02  0.66371385442E-01 -0.35219302871E+02  0.36820919623E+02  0.00000000000E+00 0. -1.
         11    1    4    4    0    0  0.13058843547E+01 -0.34999800698E+01 -0.39428310730E+01  0.54314925728E+01  0.51100000000E-03 0. -1.
        -11    1    4    4    0    0  0.53157485093E+01  0.10807984024E+00  0.26900618158E+02  0.27421016046E+02  0.51100000000E-03 0.  1.
         12    1    4    4    0    0 -0.17362974586E+02  0.33255288441E+01  0.12261515786E+02  0.21514571758E+02  0.00000000000E+00 0. -1.
</event>
<event>
 8    1  0.2514877E-006  0.9118800E+02  0.7816164E-02  0.1184000E+00
        -11   -1    0    0    0    0  0.00000000000E+00  0.00000000000E+00  0.45593999997E+02  0.45594000000E+02  0.51100000000E-03 0.  1.
         11   -1    0    0    0    0 -0.00000000000E+00 -0.00000000000E+00 -0.45593999997E+02  0.45594000000E+02  0.51100000000E-03 0. -1.
         23    2    1    2    0    0  0.00000000000E+00  0.00000000000E+00  0.00000000000E+00  0.91188000000E+02  0.91188000000E+02 0.  0.
    9900012    2    3    3    0    0 -0.17180264431E+02 -0.11454011439E+02  0.30486457048E+02  0.54367083019E+02  0.39999997359E+02 0.  0.
         12    1    3    3    0    0  0.17180264431E+02  0.11454011439E+02 -0.30486457048E+02  0.36820916981E+02  0.00000000000E+00 0. -1.
         11    1    4    4    0    0  0.37046387641E+01 -0.20424598238E+01  0.54498353163E+01  0.68990358559E+01  0.51100000000E-03 0. -1.
        -11    1    4    4    0    0 -0.68273769095E+01 -0.19691591484E+02  0.21008983973E+02  0.29593060985E+02  0.51100000000E-03 0.  1.
        -12    1    4    4    0    0 -0.14057526285E+02  0.10280039868E+02  0.40276377593E+01  0.17874986178E+02  0.00000000000E+00 0.  1.
</event>
<event>
 8    1  0.2514877E-006  0.9118800E+02  0.7816164E-02  0.1184000E+00
        -11   -1    0    0    0    0  0.00000000000E+00  0.00000000000E+00  0.45593999997E+02  0.45594000000E+02  0.51100000000E-03 0.  1.
         11   -1    0    0    0    0 -0.00000000000E+00 -0.00000000000E+00 -0.45593999997E+02  0.45594000000E+02  0.51100000000E-03 0. -1.
         23    2    1    2    0    0  0.00000000000E+00 -0.88817841970E-15  0.00000000000E+00  0.91188000000E+02  0.91188000000E+02 0.  0.
    9900012    2    3    3    0    0 -0.29330621439E+02  0.45696709603E+01  0.21785616778E+02  0.54367077346E+02  0.39999984425E+02 0.  0.
         12    1    3    3    0    0  0.29330621439E+02 -0.45696709603E+01 -0.21785616778E+02  0.36820922654E+02  0.00000000000E+00 0. -1.
         11    1    4    4    0    0 -0.17556370029E+01 -0.87617686373E+01  0.61947132896E+01  0.10873146920E+02  0.51100000000E-03 0. -1.
        -11    1    4    4    0    0 -0.28398463311E+02  0.70857185695E+01  0.30094728100E+01  0.29423409947E+02  0.51100000000E-03 0.  1.
        -12    1    4    4    0    0  0.82347887419E+00  0.62457210281E+01  0.12581430679E+02  0.14070520479E+02  0.00000000000E+00 0.  1.
</event>
<event>
 8    1  0.2514877E-006  0.9118800E+02  0.7816164E-02  0.1184000E+00
        -11   -1    0    0    0    0  0.00000000000E+00  0.00000000000E+00  0.45593999997E+02  0.45594000000E+02  0.51100000000E-03 0.  1.
         11   -1    0    0    0    0 -0.00000000000E+00 -0.00000000000E+00 -0.45593999997E+02  0.45594000000E+02  0.51100000000E-03 0. -1.
         23    2    1    2    0    0 -0.17763568394E-14  0.71054273576E-14  0.17763568394E-14  0.91188000000E+02  0.91188000000E+02 0.  0.
    9900012    2    3    3    0    0  0.11862672537E+02 -0.33502572222E+02 -0.96252340841E+01  0.54366939771E+02  0.39999670794E+02 0.  0.
        -12    1    3    3    0    0 -0.11862672537E+02  0.33502572222E+02  0.96252340841E+01  0.36821060229E+02  0.00000000000E+00 0.  1.
         11    1    4    4    0    0 -0.12686328790E+01 -0.33256818813E+02 -0.10023114904E+02  0.34757564063E+02  0.51100000000E-03 0. -1.
        -11    1    4    4    0    0  0.84248704613E+01  0.64934282176E+01  0.28854589493E+01  0.11021294203E+02  0.51100000000E-03 0.  1.
        -12    1    4    4    0    0  0.47064349549E+01 -0.67391816268E+01 -0.24875781294E+01  0.85880815048E+01  0.00000000000E+00 0.  1.
</event>
<event>
 8    1  0.2514877E-006  0.9118800E+02  0.7816164E-02  0.1184000E+00
        -11   -1    0    0    0    0  0.00000000000E+00  0.00000000000E+00  0.45593999997E+02  0.45594000000E+02  0.51100000000E-03 0. -1.
         11   -1    0    0    0    0 -0.00000000000E+00 -0.00000000000E+00 -0.45593999997E+02  0.45594000000E+02  0.51100000000E-03 0.  1.
         23    2    1    2    0    0  0.00000000000E+00 -0.71054273576E-14  0.44408920985E-15  0.91188000000E+02  0.91188000000E+02 0.  0.
    9900012    2    3    3    0    0  0.19324913975E+02  0.31196009796E+02  0.30225564783E+01  0.54367093235E+02  0.40000020648E+02 0.  0.
        -12    1    3    3    0    0 -0.19324913975E+02 -0.31196009796E+02 -0.30225564783E+01  0.36820906765E+02  0.00000000000E+00 0.  1.
         11    1    4    4    0    0  0.33561144577E+00  0.14232630673E+02 -0.10515264961E+02  0.17698904158E+02  0.51100000000E-03 0.  1.
        -11    1    4    4    0    0  0.14185018390E+02  0.22538745851E+02  0.11666030091E+02  0.29074147788E+02  0.51100000000E-03 0. -1.
         12    1    4    4    0    0  0.48042841392E+01 -0.55753667283E+01  0.18717913490E+01  0.75940412890E+01  0.00000000000E+00 0. -1.
</event>
<event>
 8    1  0.2514877E-006  0.9118800E+02  0.7816164E-02  0.1184000E+00
        -11   -1    0    0    0    0  0.00000000000E+00  0.00000000000E+00  0.45593999997E+02  0.45594000000E+02  0.51100000000E-03 0.  1.
         11   -1    0    0    0    0 -0.00000000000E+00 -0.00000000000E+00 -0.45593999997E+02  0.45594000000E+02  0.51100000000E-03 0. -1.
         23    2    1    2    0    0  0.00000000000E+00  0.17763568394E-14  0.35527136788E-14  0.91188000000E+02  0.91188000000E+02 0.  0.
    9900012    2    3    3    0    0 -0.16863015890E+02 -0.99143240017E+01 -0.31194928494E+02  0.54367099834E+02  0.40000035691E+02 0.  0.
        -12    1    3    3    0    0  0.16863015890E+02  0.99143240017E+01  0.31194928494E+02  0.36820900166E+02  0.00000000000E+00 0.  1.
         11    1    4    4    0    0  0.54821965600E+01 -0.17207460057E+02 -0.97791485568E+01  0.20537353955E+02  0.51100000000E-03 0. -1.
        -11    1    4    4    0    0 -0.13557797499E+02  0.32966882036E+01 -0.50685148354E+01  0.14844927384E+02  0.51100000000E-03 0.  1.
         12    1    4    4    0    0 -0.87874149503E+01  0.39964478515E+01 -0.16347265102E+02  0.18984818494E+02  0.00000000000E+00 0. -1.
</event>
<event>
 8    1  0.2514877E-006  0.9118800E+02  0.7816164E-02  0.1184000E+00
        -11   -1    0    0    0    0  0.00000000000E+00  0.00000000000E+00  0.45593999997E+02  0.45594000000E+02  0.51100000000E-03 0. -1.
         11   -1    0    0    0    0 -0.00000000000E+00 -0.00000000000E+00 -0.45593999997E+02  0.45594000000E+02  0.51100000000E-03 0.  1.
         23    2    1    2    0    0  0.66613381478E-15 -0.35527136788E-14 -0.71054273576E-14  0.91188000000E+02  0.91188000000E+02 0.  0.
    9900012    2    3    3    0    0 -0.11116109002E+01  0.19338109589E+02  0.31314244568E+02  0.54367081026E+02  0.39999992814E+02 0.  0.
        -12    1    3    3    0    0  0.11116109002E+01 -0.19338109589E+02 -0.31314244568E+02  0.36820918974E+02  0.00000000000E+00 0.  1.
         11    1    4    4    0    0 -0.14649186070E+02  0.15306196323E+02  0.24182248715E+02  0.32150574670E+02  0.51100000000E-03 0. -1.
        -11    1    4    4    0    0  0.91889334069E+01  0.18042878212E+01 -0.39052948829E+01  0.10146096790E+02  0.51100000000E-03 0.  1.
         12    1    4    4    0    0  0.43486417630E+01  0.22276254451E+01  0.11037290735E+02  0.12070409566E+02  0.00000000000E+00 0. -1.
</event>
<event>
 8    1  0.2514877E-006  0.9118800E+02  0.7816164E-02  0.1184000E+00
        -11   -1    0    0    0    0  0.00000000000E+00  0.00000000000E+00  0.45593999997E+02  0.45594000000E+02  0.51100000000E-03 0.  1.
         11   -1    0    0    0    0 -0.00000000000E+00 -0.00000000000E+00 -0.45593999997E+02  0.45594000000E+02  0.51100000000E-03 0. -1.
         23    2    1    2    0    0  0.00000000000E+00  0.00000000000E+00  0.00000000000E+00  0.91188000000E+02  0.91188000000E+02 0.  0.
    9900012    2    3    3    0    0  0.39932278985E+01  0.25823331405E+02 -0.25942086433E+02  0.54367052668E+02  0.39999928167E+02 0.  0.
        -12    1    3    3    0    0 -0.39932278985E+01 -0.25823331405E+02  0.25942086433E+02  0.36820947332E+02  0.00000000000E+00 0.  1.
         11    1    4    4    0    0  0.72047278191E+01 -0.85206508866E+01 -0.64099817882E+01  0.12868467712E+02  0.51100000000E-03 0. -1.
        -11    1    4    4    0    0  0.18884106021E+01  0.55994219862E+00  0.30109280225E+00  0.19925579049E+01  0.51100000000E-03 0.  1.
        -12    1    4    4    0    0 -0.50999105226E+01  0.33784040093E+02 -0.19833197447E+02  0.39506027051E+02  0.00000000000E+00 0.  1.
</event>
<event>
 8    1  0.2514877E-006  0.9118800E+02  0.7816164E-02  0.1184000E+00
        -11   -1    0    0    0    0  0.00000000000E+00  0.00000000000E+00  0.45593999997E+02  0.45594000000E+02  0.51100000000E-03 0. -1.
         11   -1    0    0    0    0 -0.00000000000E+00 -0.00000000000E+00 -0.45593999997E+02  0.45594000000E+02  0.51100000000E-03 0.  1.
         23    2    1    2    0    0  0.00000000000E+00 -0.13322676296E-14  0.71054273576E-14  0.91188000000E+02  0.91188000000E+02 0.  0.
    9900012    2    3    3    0    0 -0.11434417756E+02  0.60046859262E+00 -0.34995331422E+02  0.54367086197E+02  0.40000004604E+02 0.  0.
         12    1    3    3    0    0  0.11434417756E+02 -0.60046859262E+00  0.34995331422E+02  0.36820913803E+02  0.00000000000E+00 0. -1.
         11    1    4    4    0    0  0.40561401132E+01  0.35277661927E+01 -0.52857465739E+01  0.75390002012E+01  0.51100000000E-03 0. -1.
        -11    1    4    4    0    0  0.15271642066E+01 -0.93697409811E+01 -0.26760201749E+02  0.28394236641E+02  0.51100000000E-03 0.  1.
         12    1    4    4    0    0 -0.17017722075E+02  0.64424433810E+01 -0.29493830995E+01  0.18433849354E+02  0.00000000000E+00 0. -1.
</event>
<event>
 8    1  0.2514877E-006  0.9118800E+02  0.7816164E-02  0.1184000E+00
        -11   -1    0    0    0    0  0.00000000000E+00  0.00000000000E+00  0.45593999997E+02  0.45594000000E+02  0.51100000000E-03 0.  1.
         11   -1    0    0    0    0 -0.00000000000E+00 -0.00000000000E+00 -0.45593999997E+02  0.45594000000E+02  0.51100000000E-03 0. -1.
         23    2    1    2    0    0 -0.35527136788E-14  0.17763568394E-14 -0.35527136788E-14  0.91188000000E+02  0.91188000000E+02 0.  0.
    9900012    2    3    3    0    0  0.26971665167E+02 -0.90228784140E+01  0.23385813327E+02  0.54367091243E+02  0.40000016106E+02 0.  0.
        -12    1    3    3    0    0 -0.26971665167E+02  0.90228784140E+01 -0.23385813327E+02  0.36820908757E+02  0.00000000000E+00 0.  1.
         11    1    4    4    0    0  0.64261862013E+01  0.33651225653E+01  0.68099824462E+01  0.99496623135E+01  0.51100000000E-03 0. -1.
        -11    1    4    4    0    0  0.62844699817E+01  0.11655750428E+02  0.58231269468E+01  0.14465817940E+02  0.51100000000E-03 0.  1.
         12    1    4    4    0    0  0.14261008984E+02 -0.24043751407E+02  0.10752703934E+02  0.29951610989E+02  0.00000000000E+00 0. -1.
</event>
<event>
 8    1  0.2514877E-006  0.9118800E+02  0.7816164E-02  0.1184000E+00
        -11   -1    0    0    0    0  0.00000000000E+00  0.00000000000E+00  0.45593999997E+02  0.45594000000E+02  0.51100000000E-03 0. -1.
         11   -1    0    0    0    0 -0.00000000000E+00 -0.00000000000E+00 -0.45593999997E+02  0.45594000000E+02  0.51100000000E-03 0.  1.
         23    2    1    2    0    0 -0.35527136788E-14  0.00000000000E+00  0.00000000000E+00  0.91188000000E+02  0.91188000000E+02 0.  0.
    9900012    2    3    3    0    0 -0.12484284835E+02 -0.22681162823E+02 -0.26181808483E+02  0.54367087324E+02  0.40000007172E+02 0.  0.
         12    1    3    3    0    0  0.12484284835E+02  0.22681162823E+02  0.26181808483E+02  0.36820912676E+02  0.00000000000E+00 0. -1.
         11    1    4    4    0    0 -0.13348711653E+01  0.44814222907E+01 -0.46074642849E+01  0.65645833206E+01  0.51100000000E-03 0. -1.
        -11    1    4    4    0    0 -0.22010424709E+02 -0.18455135472E+02 -0.15079779146E+02  0.32441494425E+02  0.51100000000E-03 0.  1.
        -12    1    4    4    0    0  0.10861011039E+02 -0.87074496416E+01 -0.64945650525E+01  0.15361009579E+02  0.00000000000E+00 0.  1.
</event>
<event>
 8    1  0.2514877E-006  0.9118800E+02  0.7816164E-02  0.1184000E+00
        -11   -1    0    0    0    0  0.00000000000E+00  0.00000000000E+00  0.45593999997E+02  0.45594000000E+02  0.51100000000E-03 0.  1.
         11   -1    0    0    0    0 -0.00000000000E+00 -0.00000000000E+00 -0.45593999997E+02  0.45594000000E+02  0.51100000000E-03 0. -1.
         23    2    1    2    0    0  0.66613381478E-15 -0.71054273576E-14  0.00000000000E+00  0.91188000000E+02  0.91188000000E+02 0.  0.
    9900012    2    3    3    0    0 -0.14685064509E+01  0.35534157373E+02 -0.95362564389E+01  0.54367176567E+02  0.40000210619E+02 0.  0.
        -12    1    3    3    0    0  0.14685064509E+01 -0.35534157373E+02  0.95362564389E+01  0.36820823433E+02  0.00000000000E+00 0.  1.
         11    1    4    4    0    0 -0.10931901428E+02  0.30632646716E+02 -0.15751502147E+02  0.36138280726E+02  0.51100000000E-03 0. -1.
        -11    1    4    4    0    0  0.76649069344E+01 -0.16834988447E+01 -0.14330621537E+01  0.79773826579E+01  0.51100000000E-03 0.  1.
        -12    1    4    4    0    0  0.17984880427E+01  0.65850095019E+01  0.76483078623E+01  0.10251513183E+02  0.00000000000E+00 0.  1.
</event>
<event>
 8    1  0.2514877E-006  0.9118800E+02  0.7816164E-02  0.1184000E+00
        -11   -1    0    0    0    0  0.00000000000E+00  0.00000000000E+00  0.45593999997E+02  0.45594000000E+02  0.51100000000E-03 0. -1.
         11   -1    0    0    0    0 -0.00000000000E+00 -0.00000000000E+00 -0.45593999997E+02  0.45594000000E+02  0.51100000000E-03 0.  1.
         23    2    1    2    0    0 -0.17763568394E-14  0.00000000000E+00  0.00000000000E+00  0.91188000000E+02  0.91188000000E+02 0.  0.
    9900012    2    3    3    0    0  0.15790211401E+02 -0.27193081939E+02 -0.19156872695E+02  0.54367078598E+02  0.39999987281E+02 0.  0.
         12    1    3    3    0    0 -0.15790211401E+02  0.27193081939E+02  0.19156872695E+02  0.36820921402E+02  0.00000000000E+00 0. -1.
         11    1    4    4    0    0  0.63137162780E+01  0.11040599199E+01  0.81384283669E+01  0.10359342551E+02  0.51100000000E-03 0. -1.
        -11    1    4    4    0    0  0.85744054443E+01 -0.21389759097E+02 -0.28796292102E+02  0.36881820211E+02  0.51100000000E-03 0.  1.
         12    1    4    4    0    0  0.90208967886E+00 -0.69073827615E+01  0.15009910407E+01  0.71259158363E+01  0.00000000000E+00 0. -1.
</event>
<event>
 8    1  0.2514877E-006  0.9118800E+02  0.7816164E-02  0.1184000E+00
        -11   -1    0    0    0    0  0.00000000000E+00  0.00000000000E+00  0.45593999997E+02  0.45594000000E+02  0.51100000000E-03 0. -1.
         11   -1    0    0    0    0 -0.00000000000E+00 -0.00000000000E+00 -0.45593999997E+02  0.45594000000E+02  0.51100000000E-03 0.  1.
         23    2    1    2    0    0  0.35527136788E-14  0.88817841970E-15 -0.71054273576E-14  0.91188000000E+02  0.91188000000E+02 0.  0.
    9900012    2    3    3    0    0 -0.21336858011E+02 -0.40837328582E+01  0.29729446141E+02  0.54367104415E+02  0.40000046134E+02 0.  0.
        -12    1    3    3    0    0  0.21336858011E+02  0.40837328582E+01 -0.29729446141E+02  0.36820895585E+02  0.00000000000E+00 0.  1.
         11    1    4    4    0    0 -0.14412305057E+02  0.24861051568E+01  0.24305037505E+02  0.28366002614E+02  0.51100000000E-03 0. -1.
        -11    1    4    4    0    0  0.68359651585E+01  0.32590217374E+01 -0.15135844314E+01  0.77228608964E+01  0.51100000000E-03 0.  1.
        -12    1    4    4    0    0 -0.13760518113E+02 -0.98288597524E+01  0.69379930676E+01  0.18278240905E+02  0.00000000000E+00 0.  1.
</event>
<event>
 8    1  0.2514877E-006  0.9118800E+02  0.7816164E-02  0.1184000E+00
        -11   -1    0    0    0    0  0.00000000000E+00  0.00000000000E+00  0.45593999997E+02  0.45594000000E+02  0.51100000000E-03 0.  1.
         11   -1    0    0    0    0 -0.00000000000E+00 -0.00000000000E+00 -0.45593999997E+02  0.45594000000E+02  0.51100000000E-03 0. -1.
         23    2    1    2    0    0  0.22204460493E-15  0.00000000000E+00 -0.17763568394E-14  0.91188000000E+02  0.91188000000E+02 0.  0.
    9900012    2    3    3    0    0 -0.11517661510E+01 -0.34781009789E+02  0.12030565004E+02  0.54367086085E+02  0.40000004348E+02 0.  0.
         12    1    3    3    0    0  0.11517661510E+01  0.34781009789E+02 -0.12030565004E+02  0.36820913915E+02  0.00000000000E+00 0. -1.
         11    1    4    4    0    0  0.15443103403E+01 -0.21391843155E+02  0.52102122215E+01  0.22071297190E+02  0.51100000000E-03 0. -1.
        -11    1    4    4    0    0 -0.20562558589E+01 -0.22270787274E+02  0.28509178564E+01  0.22546482804E+02  0.51100000000E-03 0.  1.
        -12    1    4    4    0    0 -0.63982063244E+00  0.88816206393E+01  0.39694349261E+01  0.97493060910E+01  0.00000000000E+00 0.  1.
</event>
<event>
 8    1  0.2514877E-006  0.9118800E+02  0.7816164E-02  0.1184000E+00
        -11   -1    0    0    0    0  0.00000000000E+00  0.00000000000E+00  0.45593999997E+02  0.45594000000E+02  0.51100000000E-03 0. -1.
         11   -1    0    0    0    0 -0.00000000000E+00 -0.00000000000E+00 -0.45593999997E+02  0.45594000000E+02  0.51100000000E-03 0.  1.
         23    2    1    2    0    0  0.00000000000E+00  0.17763568394E-14  0.00000000000E+00  0.91188000000E+02  0.91188000000E+02 0.  0.
    9900012    2    3    3    0    0 -0.32576626061E+02 -0.47009007391E+01 -0.16505995734E+02  0.54367042266E+02  0.39999904454E+02 0.  0.
         12    1    3    3    0    0  0.32576626061E+02  0.47009007391E+01  0.16505995734E+02  0.36820957734E+02  0.00000000000E+00 0. -1.
         11    1    4    4    0    0 -0.33120229596E+01 -0.13843663049E+02 -0.66856809999E+00  0.14250034606E+02  0.51100000000E-03 0. -1.
        -11    1    4    4    0    0 -0.27666856886E+01  0.71994267767E+01  0.21800213396E+01  0.80149104121E+01  0.51100000000E-03 0.  1.
        -12    1    4    4    0    0 -0.26497917413E+02  0.19433355334E+01 -0.18017448974E+02  0.32102097248E+02  0.00000000000E+00 0.  1.
</event>
<event>
 8    1  0.2514877E-006  0.9118800E+02  0.7816164E-02  0.1184000E+00
        -11   -1    0    0    0    0  0.00000000000E+00  0.00000000000E+00  0.45593999997E+02  0.45594000000E+02  0.51100000000E-03 0. -1.
         11   -1    0    0    0    0 -0.00000000000E+00 -0.00000000000E+00 -0.45593999997E+02  0.45594000000E+02  0.51100000000E-03 0.  1.
         23    2    1    2    0    0  0.00000000000E+00  0.35527136788E-14  0.00000000000E+00  0.91188000000E+02  0.91188000000E+02 0.  0.
    9900012    2    3    3    0    0  0.30771114750E+02  0.18078217282E+02 -0.90606259986E+01  0.54367103942E+02  0.40000045056E+02 0.  0.
         12    1    3    3    0    0 -0.30771114750E+02 -0.18078217282E+02  0.90606259986E+01  0.36820896058E+02  0.00000000000E+00 0. -1.
         11    1    4    4    0    0 -0.43731047565E+01  0.10995695280E+02 -0.53996830769E+00  0.11845713399E+02  0.51100000000E-03 0. -1.
        -11    1    4    4    0    0  0.69785779638E+01 -0.27895459377E+00  0.66935347483E+01  0.96737672987E+01  0.51100000000E-03 0.  1.
        -12    1    4    4    0    0  0.28165641543E+02  0.73614765952E+01 -0.15214192439E+02  0.32847623244E+02  0.00000000000E+00 0.  1.
</event>
<event>
 8    1  0.2514877E-006  0.9118800E+02  0.7816164E-02  0.1184000E+00
        -11   -1    0    0    0    0  0.00000000000E+00  0.00000000000E+00  0.45593999997E+02  0.45594000000E+02  0.51100000000E-03 0. -1.
         11   -1    0    0    0    0 -0.00000000000E+00 -0.00000000000E+00 -0.45593999997E+02  0.45594000000E+02  0.51100000000E-03 0.  1.
         23    2    1    2    0    0  0.00000000000E+00  0.35527136788E-14  0.00000000000E+00  0.91188000000E+02  0.91188000000E+02 0.  0.
    9900012    2    3    3    0    0 -0.22778939789E+02  0.18970740466E+02  0.21840599090E+02  0.54367070349E+02  0.39999968475E+02 0.  0.
        -12    1    3    3    0    0  0.22778939789E+02 -0.18970740466E+02 -0.21840599090E+02  0.36820929651E+02  0.00000000000E+00 0.  1.
         11    1    4    4    0    0  0.95611480816E+00  0.17938523967E+02  0.89832947223E+01  0.20084929225E+02  0.51100000000E-03 0. -1.
        -11    1    4    4    0    0 -0.26135901962E+01 -0.82902149471E+01  0.34939196848E+01  0.93683505810E+01  0.51100000000E-03 0.  1.
         12    1    4    4    0    0 -0.21121464401E+02  0.93224314467E+01  0.93633846832E+01  0.24913790543E+02  0.00000000000E+00 0. -1.
</event>
<event>
 8    1  0.2514877E-006  0.9118800E+02  0.7816164E-02  0.1184000E+00
        -11   -1    0    0    0    0  0.00000000000E+00  0.00000000000E+00  0.45593999997E+02  0.45594000000E+02  0.51100000000E-03 0. -1.
         11   -1    0    0    0    0 -0.00000000000E+00 -0.00000000000E+00 -0.45593999997E+02  0.45594000000E+02  0.51100000000E-03 0.  1.
         23    2    1    2    0    0 -0.35527136788E-14  0.00000000000E+00 -0.35527136788E-14  0.91188000000E+02  0.91188000000E+02 0.  0.
    9900012    2    3    3    0    0  0.22565961308E+02  0.85849169873E+01  0.27800280979E+02  0.54367095177E+02  0.40000025076E+02 0.  0.
        -12    1    3    3    0    0 -0.22565961308E+02 -0.85849169873E+01 -0.27800280979E+02  0.36820904823E+02  0.00000000000E+00 0.  1.
         11    1    4    4    0    0  0.16340197377E+01  0.52641615545E+01 -0.32127088523E+01  0.63798836828E+01  0.51100000000E-03 0. -1.
        -11    1    4    4    0    0  0.14175207644E+02  0.23113283314E+01 -0.17962073120E+01  0.14474291395E+02  0.51100000000E-03 0.  1.
         12    1    4    4    0    0  0.67567339262E+01  0.10094271013E+01  0.32809197143E+02  0.33512920100E+02  0.00000000000E+00 0. -1.
</event>
<event>
 8    1  0.2514877E-006  0.9118800E+02  0.7816164E-02  0.1184000E+00
        -11   -1    0    0    0    0  0.00000000000E+00  0.00000000000E+00  0.45593999997E+02  0.45594000000E+02  0.51100000000E-03 0. -1.
         11   -1    0    0    0    0 -0.00000000000E+00 -0.00000000000E+00 -0.45593999997E+02  0.45594000000E+02  0.51100000000E-03 0.  1.
         23    2    1    2    0    0  0.35527136788E-14  0.00000000000E+00  0.35527136788E-14  0.91188000000E+02  0.91188000000E+02 0.  0.
    9900012    2    3    3    0    0 -0.16497440085E+02 -0.26624539771E+02 -0.19358388188E+02  0.54367097776E+02  0.40000031000E+02 0.  0.
        -12    1    3    3    0    0  0.16497440085E+02  0.26624539771E+02  0.19358388188E+02  0.36820902224E+02  0.00000000000E+00 0.  1.
         11    1    4    4    0    0 -0.16860156782E+02 -0.22444621303E+02 -0.17405180053E+02  0.33029777551E+02  0.51100000000E-03 0. -1.
        -11    1    4    4    0    0 -0.11739465516E+01 -0.55250395253E+01  0.87644212654E+01  0.10426854398E+02  0.51100000000E-03 0.  1.
        -12    1    4    4    0    0  0.15366632486E+01  0.13451210578E+01 -0.10717629400E+02  0.10910465827E+02  0.00000000000E+00 0.  1.
</event>
<event>
 8    1  0.2514877E-006  0.9118800E+02  0.7816164E-02  0.1184000E+00
        -11   -1    0    0    0    0  0.00000000000E+00  0.00000000000E+00  0.45593999997E+02  0.45594000000E+02  0.51100000000E-03 0. -1.
         11   -1    0    0    0    0 -0.00000000000E+00 -0.00000000000E+00 -0.45593999997E+02  0.45594000000E+02  0.51100000000E-03 0.  1.
         23    2    1    2    0    0  0.00000000000E+00  0.35527136788E-14  0.00000000000E+00  0.91188000000E+02  0.91188000000E+02 0.  0.
    9900012    2    3    3    0    0  0.25354738580E+02 -0.26304411414E+02  0.45819868152E+01  0.54367089752E+02  0.40000012709E+02 0.  0.
         12    1    3    3    0    0 -0.25354738580E+02  0.26304411414E+02 -0.45819868152E+01  0.36820910248E+02  0.00000000000E+00 0. -1.
         11    1    4    4    0    0 -0.34296347855E+01 -0.20014569977E+02  0.64403883123E+01  0.21303145496E+02  0.51100000000E-03 0. -1.
        -11    1    4    4    0    0  0.45589801732E+01 -0.66942281573E+01  0.24358607192E+01  0.84575651665E+01  0.51100000000E-03 0.  1.
        -12    1    4    4    0    0  0.24225393192E+02  0.40438672077E+00 -0.42942622163E+01  0.24606379090E+02  0.00000000000E+00 0.  1.
</event>
<event>
 8    1  0.2514877E-006  0.9118800E+02  0.7816164E-02  0.1184000E+00
        -11   -1    0    0    0    0  0.00000000000E+00  0.00000000000E+00  0.45593999997E+02  0.45594000000E+02  0.51100000000E-03 0. -1.
         11   -1    0    0    0    0 -0.00000000000E+00 -0.00000000000E+00 -0.45593999997E+02  0.45594000000E+02  0.51100000000E-03 0.  1.
         23    2    1    2    0    0  0.00000000000E+00  0.00000000000E+00  0.35527136788E-14  0.91188000000E+02  0.91188000000E+02 0.  0.
    9900012    2    3    3    0    0 -0.27109294965E+02  0.15702745180E+02 -0.19346435181E+02  0.54367154899E+02  0.40000161224E+02 0.  0.
        -12    1    3    3    0    0  0.27109294965E+02 -0.15702745180E+02  0.19346435181E+02  0.36820845101E+02  0.00000000000E+00 0.  1.
         11    1    4    4    0    0 -0.30206708953E+02  0.19917248532E+02 -0.11639827027E+02  0.38008257370E+02  0.51100000000E-03 0. -1.
        -11    1    4    4    0    0  0.45516235775E+01 -0.27496378282E+01 -0.11144936428E+02  0.12348578607E+02  0.51100000000E-03 0.  1.
         12    1    4    4    0    0 -0.14542095904E+01 -0.14648655238E+01  0.34383282740E+01  0.40103189220E+01  0.00000000000E+00 0. -1.
</event>
<event>
 8    1  0.2514877E-006  0.9118800E+02  0.7816164E-02  0.1184000E+00
        -11   -1    0    0    0    0  0.00000000000E+00  0.00000000000E+00  0.45593999997E+02  0.45594000000E+02  0.51100000000E-03 0.  1.
         11   -1    0    0    0    0 -0.00000000000E+00 -0.00000000000E+00 -0.45593999997E+02  0.45594000000E+02  0.51100000000E-03 0. -1.
         23    2    1    2    0    0  0.20816681712E-15  0.00000000000E+00 -0.71054273576E-14  0.91188000000E+02  0.91188000000E+02 0.  0.
    9900012    2    3    3    0    0  0.41467652552E-01 -0.16682678258E+02 -0.32824784631E+02  0.54367082582E+02  0.39999996362E+02 0.  0.
        -12    1    3    3    0    0 -0.41467652552E-01  0.16682678258E+02  0.32824784631E+02  0.36820917418E+02  0.00000000000E+00 0.  1.
         11    1    4    4    0    0  0.89468469339E+01  0.87899374432E+00  0.16111805778E+01  0.91331595396E+01  0.51100000000E-03 0. -1.
        -11    1    4    4    0    0 -0.75767302352E+01 -0.11279168314E+02 -0.40523430948E+01  0.14179138328E+02  0.51100000000E-03 0.  1.
         12    1    4    4    0    0 -0.13286490462E+01 -0.62825036885E+01 -0.30383622114E+02  0.31054784714E+02  0.00000000000E+00 0. -1.
</event>
<event>
 8    1  0.2514877E-006  0.9118800E+02  0.7816164E-02  0.1184000E+00
        -11   -1    0    0    0    0  0.00000000000E+00  0.00000000000E+00  0.45593999997E+02  0.45594000000E+02  0.51100000000E-03 0. -1.
         11   -1    0    0    0    0 -0.00000000000E+00 -0.00000000000E+00 -0.45593999997E+02  0.45594000000E+02  0.51100000000E-03 0.  1.
         23    2    1    2    0    0  0.00000000000E+00 -0.35527136788E-14  0.35527136788E-14  0.91188000000E+02  0.91188000000E+02 0.  0.
    9900012    2    3    3    0    0  0.10006432983E+02  0.19820613502E+02 -0.29373370421E+02  0.54367077816E+02  0.39999985496E+02 0.  0.
         12    1    3    3    0    0 -0.10006432983E+02 -0.19820613502E+02  0.29373370421E+02  0.36820922184E+02  0.00000000000E+00 0. -1.
         11    1    4    4    0    0  0.68609987775E+01  0.23355162804E+02 -0.30346162760E+02  0.38902783041E+02  0.51100000000E-03 0. -1.
        -11    1    4    4    0    0  0.87189744573E+01 -0.37879345915E+01 -0.97185650987E+00  0.95558081497E+01  0.51100000000E-03 0.  1.
         12    1    4    4    0    0 -0.55735402521E+01  0.25338528958E+00  0.19446488493E+01  0.59084866247E+01  0.00000000000E+00 0. -1.
</event>
<event>
 8    1  0.2514877E-006  0.9118800E+02  0.7816164E-02  0.1184000E+00
        -11   -1    0    0    0    0  0.00000000000E+00  0.00000000000E+00  0.45593999997E+02  0.45594000000E+02  0.51100000000E-03 0.  1.
         11   -1    0    0    0    0 -0.00000000000E+00 -0.00000000000E+00 -0.45593999997E+02  0.45594000000E+02  0.51100000000E-03 0. -1.
         23    2    1    2    0    0  0.00000000000E+00  0.00000000000E+00 -0.17763568394E-14  0.91188000000E+02  0.91188000000E+02 0.  0.
    9900012    2    3    3    0    0  0.34657492419E+02 -0.11248469853E+01  0.12384432954E+02  0.54367065179E+02  0.39999956688E+02 0.  0.
         12    1    3    3    0    0 -0.34657492419E+02  0.11248469853E+01 -0.12384432954E+02  0.36820934821E+02  0.00000000000E+00 0. -1.
         11    1    4    4    0    0  0.13544268895E+02  0.27097336925E+01 -0.72807758807E+01  0.15614082563E+02  0.51100000000E-03 0.  1.
        -11    1    4    4    0    0  0.10444269829E+02  0.26272109157E+01  0.23377600984E+02  0.25739021689E+02  0.51100000000E-03 0. -1.
         12    1    4    4    0    0  0.10668953695E+02 -0.64617915935E+01 -0.37123921494E+01  0.13013960928E+02  0.00000000000E+00 0. -1.
</event>
<event>
 8    1  0.2514877E-006  0.9118800E+02  0.7816164E-02  0.1184000E+00
        -11   -1    0    0    0    0  0.00000000000E+00  0.00000000000E+00  0.45593999997E+02  0.45594000000E+02  0.51100000000E-03 0. -1.
         11   -1    0    0    0    0 -0.00000000000E+00 -0.00000000000E+00 -0.45593999997E+02  0.45594000000E+02  0.51100000000E-03 0.  1.
         23    2    1    2    0    0  0.00000000000E+00 -0.11102230246E-14  0.71054273576E-14  0.91188000000E+02  0.91188000000E+02 0.  0.
    9900012    2    3    3    0    0  0.20672199312E+02 -0.24153325791E+00 -0.30469361338E+02  0.54367080089E+02  0.39999990679E+02 0.  0.
         12    1    3    3    0    0 -0.20672199312E+02  0.24153325791E+00  0.30469361338E+02  0.36820919911E+02  0.00000000000E+00 0. -1.
         11    1    4    4    0    0  0.11018590806E+01 -0.11337121332E+02 -0.21602972598E+01  0.11593588661E+02  0.51100000000E-03 0. -1.
        -11    1    4    4    0    0  0.23794322236E+02  0.57732472669E+01 -0.25696310480E+02  0.35493668833E+02  0.51100000000E-03 0.  1.
         12    1    4    4    0    0 -0.42239820048E+01  0.53223408073E+01 -0.26127535987E+01  0.72798225949E+01  0.00000000000E+00 0. -1.
</event>
<event>
 8    1  0.2514877E-006  0.9118800E+02  0.7816164E-02  0.1184000E+00
        -11   -1    0    0    0    0  0.00000000000E+00  0.00000000000E+00  0.45593999997E+02  0.45594000000E+02  0.51100000000E-03 0.  1.
         11   -1    0    0    0    0 -0.00000000000E+00 -0.00000000000E+00 -0.45593999997E+02  0.45594000000E+02  0.51100000000E-03 0. -1.
         23    2    1    2    0    0  0.17763568394E-14  0.35527136788E-14 -0.35527136788E-14  0.91188000000E+02  0.91188000000E+02 0.  0.
    9900012    2    3    3    0    0  0.45680514440E+01  0.17714472431E+02 -0.31954814625E+02  0.54367084678E+02  0.40000001139E+02 0.  0.
        -12    1    3    3    0    0 -0.45680514440E+01 -0.17714472431E+02  0.31954814625E+02  0.36820915322E+02  0.00000000000E+00 0.  1.
         11    1    4    4    0    0  0.79414421149E+01  0.23957552748E+01 -0.15255474877E+02  0.17364782181E+02  0.51100000000E-03 0. -1.
        -11    1    4    4    0    0 -0.15198029390E+02  0.94536279224E+01 -0.15625559408E+02  0.23759404144E+02  0.51100000000E-03 0.  1.
         12    1    4    4    0    0  0.11824638719E+02  0.58650892333E+01 -0.10737803398E+01  0.13242898352E+02  0.00000000000E+00 0. -1.
</event>
<event>
 8    1  0.2514877E-006  0.9118800E+02  0.7816164E-02  0.1184000E+00
        -11   -1    0    0    0    0  0.00000000000E+00  0.00000000000E+00  0.45593999997E+02  0.45594000000E+02  0.51100000000E-03 0. -1.
         11   -1    0    0    0    0 -0.00000000000E+00 -0.00000000000E+00 -0.45593999997E+02  0.45594000000E+02  0.51100000000E-03 0.  1.
         23    2    1    2    0    0  0.00000000000E+00  0.00000000000E+00  0.00000000000E+00  0.91188000000E+02  0.91188000000E+02 0.  0.
    9900012    2    3    3    0    0  0.22283058394E+02  0.12906569335E+02 -0.26318541424E+02  0.54367084123E+02  0.39999999874E+02 0.  0.
         12    1    3    3    0    0 -0.22283058394E+02 -0.12906569335E+02  0.26318541424E+02  0.36820915877E+02  0.00000000000E+00 0. -1.
         11    1    4    4    0    0  0.52717273931E+01 -0.63718205237E+01 -0.18581502121E+02  0.20338717458E+02  0.51100000000E-03 0. -1.
        -11    1    4    4    0    0  0.11177378944E+02  0.85384362242E+00 -0.94018020545E+01  0.14630677740E+02  0.51100000000E-03 0.  1.
         12    1    4    4    0    0  0.58339520567E+01  0.18424546236E+02  0.16647627521E+01  0.19397688925E+02  0.00000000000E+00 0. -1.
</event>
<event>
 8    1  0.2514877E-006  0.9118800E+02  0.7816164E-02  0.1184000E+00
        -11   -1    0    0    0    0  0.00000000000E+00  0.00000000000E+00  0.45593999997E+02  0.45594000000E+02  0.51100000000E-03 0.  1.
         11   -1    0    0    0    0 -0.00000000000E+00 -0.00000000000E+00 -0.45593999997E+02  0.45594000000E+02  0.51100000000E-03 0. -1.
         23    2    1    2    0    0  0.27755575616E-15  0.00000000000E+00  0.00000000000E+00  0.91188000000E+02  0.91188000000E+02 0.  0.
    9900012    2    3    3    0    0 -0.49753649479E+00 -0.10710730411E+02 -0.35225165835E+02  0.54367087510E+02  0.40000007596E+02 0.  0.
        -12    1    3    3    0    0  0.49753649479E+00  0.10710730411E+02  0.35225165835E+02  0.36820912490E+02  0.00000000000E+00 0.  1.
         11    1    4    4    0    0  0.11351120883E+01 -0.15379249498E+02 -0.84796160108E+01  0.17598684114E+02  0.51100000000E-03 0. -1.
        -11    1    4    4    0    0 -0.63640135086E+01  0.54632296325E+01 -0.29881818190E+02  0.31036601047E+02  0.51100000000E-03 0.  1.
         12    1    4    4    0    0  0.47313649255E+01 -0.79471054481E+00  0.31362683653E+01  0.57318023490E+01  0.00000000000E+00 0. -1.
</event>
<event>
 8    1  0.2514877E-006  0.9118800E+02  0.7816164E-02  0.1184000E+00
        -11   -1    0    0    0    0  0.00000000000E+00  0.00000000000E+00  0.45593999997E+02  0.45594000000E+02  0.51100000000E-03 0.  1.
         11   -1    0    0    0    0 -0.00000000000E+00 -0.00000000000E+00 -0.45593999997E+02  0.45594000000E+02  0.51100000000E-03 0. -1.
         23    2    1    2    0    0  0.00000000000E+00  0.17763568394E-14  0.71054273576E-14  0.91188000000E+02  0.91188000000E+02 0.  0.
    9900012    2    3    3    0    0  0.94674977962E+01 -0.15297495959E+02  0.32126837461E+02  0.54367074124E+02  0.39999977080E+02 0.  0.
         12    1    3    3    0    0 -0.94674977962E+01  0.15297495959E+02 -0.32126837461E+02  0.36820925876E+02  0.00000000000E+00 0. -1.
         11    1    4    4    0    0  0.39846315733E+01 -0.57857754675E+01 -0.29903535647E+01  0.76350966751E+01  0.51100000000E-03 0. -1.
        -11    1    4    4    0    0  0.16090193687E+02 -0.32412866403E+01  0.28125603424E+02  0.32564548826E+02  0.51100000000E-03 0.  1.
         12    1    4    4    0    0 -0.10607327464E+02 -0.62704338512E+01  0.69915876011E+01  0.14167428623E+02  0.00000000000E+00 0. -1.
</event>
<event>
 8    1  0.2514877E-006  0.9118800E+02  0.7816164E-02  0.1184000E+00
        -11   -1    0    0    0    0  0.00000000000E+00  0.00000000000E+00  0.45593999997E+02  0.45594000000E+02  0.51100000000E-03 0. -1.
         11   -1    0    0    0    0 -0.00000000000E+00 -0.00000000000E+00 -0.45593999997E+02  0.45594000000E+02  0.51100000000E-03 0.  1.
         23    2    1    2    0    0  0.00000000000E+00  0.35527136788E-14  0.00000000000E+00  0.91188000000E+02  0.91188000000E+02 0.  0.
    9900012    2    3    3    0    0  0.67709315389E+01  0.26992523576E+02 -0.24110941731E+02  0.54367090804E+02  0.40000015105E+02 0.  0.
         12    1    3    3    0    0 -0.67709315389E+01 -0.26992523576E+02  0.24110941731E+02  0.36820909196E+02  0.00000000000E+00 0. -1.
         11    1    4    4    0    0 -0.82823118564E+01 -0.93936011753E+00  0.49985201658E+01  0.97192742130E+01  0.51100000000E-03 0. -1.
        -11    1    4    4    0    0  0.10090586149E+02  0.81744989860E+01 -0.15142935786E+02  0.19948705898E+02  0.51100000000E-03 0.  1.
         12    1    4    4    0    0  0.49626572459E+01  0.19757384708E+02 -0.13966526110E+02  0.24699110693E+02  0.00000000000E+00 0. -1.
</event>
<event>
 8    1  0.2514877E-006  0.9118800E+02  0.7816164E-02  0.1184000E+00
        -11   -1    0    0    0    0  0.00000000000E+00  0.00000000000E+00  0.45593999997E+02  0.45594000000E+02  0.51100000000E-03 0. -1.
         11   -1    0    0    0    0 -0.00000000000E+00 -0.00000000000E+00 -0.45593999997E+02  0.45594000000E+02  0.51100000000E-03 0.  1.
         23    2    1    2    0    0  0.35527136788E-14  0.00000000000E+00  0.71054273576E-14  0.91188000000E+02  0.91188000000E+02 0.  0.
    9900012    2    3    3    0    0 -0.23269442149E+02  0.97335563961E+01 -0.26824823066E+02  0.54367079444E+02  0.39999989209E+02 0.  0.
         12    1    3    3    0    0  0.23269442149E+02 -0.97335563961E+01  0.26824823066E+02  0.36820920556E+02  0.00000000000E+00 0. -1.
         11    1    4    4    0    0 -0.13010541024E+01  0.95020574364E+01  0.51806085679E+01  0.10900483599E+02  0.51100000000E-03 0. -1.
        -11    1    4    4    0    0 -0.13521619641E+02  0.31443230203E-01 -0.38329621881E+01  0.14054422286E+02  0.51100000000E-03 0.  1.
         12    1    4    4    0    0 -0.84467684058E+01  0.20005572952E+00 -0.28172469446E+02  0.29412173559E+02  0.00000000000E+00 0. -1.
</event>
<event>
 8    1  0.2514877E-006  0.9118800E+02  0.7816164E-02  0.1184000E+00
        -11   -1    0    0    0    0  0.00000000000E+00  0.00000000000E+00  0.45593999997E+02  0.45594000000E+02  0.51100000000E-03 0.  1.
         11   -1    0    0    0    0 -0.00000000000E+00 -0.00000000000E+00 -0.45593999997E+02  0.45594000000E+02  0.51100000000E-03 0. -1.
         23    2    1    2    0    0  0.35527136788E-14  0.17763568394E-14  0.00000000000E+00  0.91188000000E+02  0.91188000000E+02 0.  0.
    9900012    2    3    3    0    0 -0.19194016611E+02 -0.14108596167E+02  0.28076987365E+02  0.54367082318E+02  0.39999995760E+02 0.  0.
         12    1    3    3    0    0  0.19194016611E+02  0.14108596167E+02 -0.28076987365E+02  0.36820917682E+02  0.00000000000E+00 0. -1.
         11    1    4    4    0    0 -0.14200141833E+02 -0.15252362077E+02  0.22880045835E+01  0.20964578275E+02  0.51100000000E-03 0. -1.
        -11    1    4    4    0    0  0.59507713791E+01  0.41433598871E+01  0.28146883435E+01  0.77782762803E+01  0.51100000000E-03 0.  1.
         12    1    4    4    0    0 -0.10944646158E+02 -0.29995939765E+01  0.22974294438E+02  0.25624227763E+02  0.00000000000E+00 0. -1.
</event>
<event>
 8    1  0.2514877E-006  0.9118800E+02  0.7816164E-02  0.1184000E+00
        -11   -1    0    0    0    0  0.00000000000E+00  0.00000000000E+00  0.45593999997E+02  0.45594000000E+02  0.51100000000E-03 0.  1.
         11   -1    0    0    0    0 -0.00000000000E+00 -0.00000000000E+00 -0.45593999997E+02  0.45594000000E+02  0.51100000000E-03 0. -1.
         23    2    1    2    0    0  0.00000000000E+00  0.00000000000E+00  0.00000000000E+00  0.91188000000E+02  0.91188000000E+02 0.  0.
    9900012    2    3    3    0    0 -0.30681701338E+02 -0.18317801802E+02 -0.88809856988E+01  0.54367074335E+02  0.39999977562E+02 0.  0.
        -12    1    3    3    0    0  0.30681701338E+02  0.18317801802E+02  0.88809856988E+01  0.36820925665E+02  0.00000000000E+00 0.  1.
         11    1    4    4    0    0 -0.68540297719E+01 -0.11693170551E+02 -0.19743943128E+02  0.23948512525E+02  0.51100000000E-03 0. -1.
        -11    1    4    4    0    0 -0.24368243675E+02 -0.88641594849E+01  0.89740512708E+01  0.27439355307E+02  0.51100000000E-03 0.  1.
        -12    1    4    4    0    0  0.54057210931E+00  0.22395282340E+01  0.18889061582E+01  0.29792065036E+01  0.00000000000E+00 0.  1.
</event>
<event>
 8    1  0.2514877E-006  0.9118800E+02  0.7816164E-02  0.1184000E+00
        -11   -1    0    0    0    0  0.00000000000E+00  0.00000000000E+00  0.45593999997E+02  0.45594000000E+02  0.51100000000E-03 0.  1.
         11   -1    0    0    0    0 -0.00000000000E+00 -0.00000000000E+00 -0.45593999997E+02  0.45594000000E+02  0.51100000000E-03 0. -1.
         23    2    1    2    0    0  0.00000000000E+00  0.11102230246E-15 -0.35527136788E-14  0.91188000000E+02  0.91188000000E+02 0.  0.
    9900012    2    3    3    0    0 -0.29729955615E+02  0.80723280075E+00  0.21708520238E+02  0.54367058450E+02  0.39999941350E+02 0.  0.
         12    1    3    3    0    0  0.29729955615E+02 -0.80723280075E+00 -0.21708520238E+02  0.36820941550E+02  0.00000000000E+00 0. -1.
         11    1    4    4    0    0  0.14229875282E+01  0.72505171370E+01  0.84440732940E+01  0.11220395105E+02  0.51100000000E-03 0. -1.
        -11    1    4    4    0    0  0.39788869478E+01  0.12646995371E+00  0.51272199364E+01  0.64912187245E+01  0.51100000000E-03 0.  1.
        -12    1    4    4    0    0 -0.35131830091E+02 -0.65697542900E+01  0.81372270076E+01  0.36655444621E+02  0.00000000000E+00 0.  1.
</event>
<event>
 8    1  0.2514877E-006  0.9118800E+02  0.7816164E-02  0.1184000E+00
        -11   -1    0    0    0    0  0.00000000000E+00  0.00000000000E+00  0.45593999997E+02  0.45594000000E+02  0.51100000000E-03 0. -1.
         11   -1    0    0    0    0 -0.00000000000E+00 -0.00000000000E+00 -0.45593999997E+02  0.45594000000E+02  0.51100000000E-03 0.  1.
         23    2    1    2    0    0  0.00000000000E+00  0.35527136788E-14  0.88817841970E-15  0.91188000000E+02  0.91188000000E+02 0.  0.
    9900012    2    3    3    0    0  0.18007581238E+02 -0.31727130313E+02  0.49895921018E+01  0.54367084622E+02  0.40000001012E+02 0.  0.
        -12    1    3    3    0    0 -0.18007581238E+02  0.31727130313E+02 -0.49895921018E+01  0.36820915378E+02  0.00000000000E+00 0.  1.
         11    1    4    4    0    0  0.62633840164E+01 -0.28162053023E+02  0.11136371001E+02  0.30924908555E+02  0.51100000000E-03 0. -1.
        -11    1    4    4    0    0 -0.15552686160E+01 -0.21904340570E+01 -0.93208501641E+01  0.97002633917E+01  0.51100000000E-03 0.  1.
        -12    1    4    4    0    0  0.13299465838E+02 -0.13746432335E+01  0.31740712650E+01  0.13741912675E+02  0.00000000000E+00 0.  1.
</event>
<event>
 8    1  0.2514877E-006  0.9118800E+02  0.7816164E-02  0.1184000E+00
        -11   -1    0    0    0    0  0.00000000000E+00  0.00000000000E+00  0.45593999997E+02  0.45594000000E+02  0.51100000000E-03 0. -1.
         11   -1    0    0    0    0 -0.00000000000E+00 -0.00000000000E+00 -0.45593999997E+02  0.45594000000E+02  0.51100000000E-03 0.  1.
         23    2    1    2    0    0  0.00000000000E+00  0.17763568394E-14  0.11102230246E-14  0.91188000000E+02  0.91188000000E+02 0.  0.
    9900012    2    3    3    0    0 -0.33299200243E+02  0.15704544111E+02 -0.55312296866E+00  0.54367144665E+02  0.40000137893E+02 0.  0.
         12    1    3    3    0    0  0.33299200243E+02 -0.15704544111E+02  0.55312296866E+00  0.36820855335E+02  0.00000000000E+00 0. -1.
         11    1    4    4    0    0  0.37333546591E+01 -0.29961896914E+01 -0.74932797320E+00  0.48452639092E+01  0.51100000000E-03 0. -1.
        -11    1    4    4    0    0 -0.26222233716E+02  0.25370183355E+02  0.26593678660E+01  0.36583110615E+02  0.51100000000E-03 0.  1.
        -12    1    4    4    0    0 -0.10810321186E+02 -0.66694495528E+01 -0.24631628614E+01  0.12938770141E+02  0.00000000000E+00 0.  1.
</event>
<event>
 8    1  0.2514877E-006  0.9118800E+02  0.7816164E-02  0.1184000E+00
        -11   -1    0    0    0    0  0.00000000000E+00  0.00000000000E+00  0.45593999997E+02  0.45594000000E+02  0.51100000000E-03 0.  1.
         11   -1    0    0    0    0 -0.00000000000E+00 -0.00000000000E+00 -0.45593999997E+02  0.45594000000E+02  0.51100000000E-03 0. -1.
         23    2    1    2    0    0 -0.17763568394E-14  0.00000000000E+00 -0.35527136788E-14  0.91188000000E+02  0.91188000000E+02 0.  0.
    9900012    2    3    3    0    0 -0.14112886166E+02  0.25850628032E+02  0.22098492313E+02  0.54367192186E+02  0.40000246225E+02 0.  0.
         12    1    3    3    0    0  0.14112886166E+02 -0.25850628032E+02 -0.22098492313E+02  0.36820807814E+02  0.00000000000E+00 0. -1.
         11    1    4    4    0    0 -0.92642540883E+01 -0.41303030250E+01  0.18697807848E+02  0.21271902254E+02  0.51100000000E-03 0.  1.
        -11    1    4    4    0    0 -0.23601437001E+01  0.21138394956E+02 -0.35656001758E+01  0.21566537146E+02  0.51100000000E-03 0. -1.
        -12    1    4    4    0    0 -0.24884883776E+01  0.88425361011E+01  0.69662846405E+01  0.11528752786E+02  0.00000000000E+00 0.  1.
</event>
<event>
 8    1  0.2514877E-006  0.9118800E+02  0.7816164E-02  0.1184000E+00
        -11   -1    0    0    0    0  0.00000000000E+00  0.00000000000E+00  0.45593999997E+02  0.45594000000E+02  0.51100000000E-03 0.  1.
         11   -1    0    0    0    0 -0.00000000000E+00 -0.00000000000E+00 -0.45593999997E+02  0.45594000000E+02  0.51100000000E-03 0. -1.
         23    2    1    2    0    0 -0.17763568394E-14  0.88817841970E-15  0.00000000000E+00  0.91188000000E+02  0.91188000000E+02 0.  0.
    9900012    2    3    3    0    0 -0.15962439395E+02 -0.50514929495E+01 -0.32794264681E+02  0.54367070511E+02  0.39999968845E+02 0.  0.
        -12    1    3    3    0    0  0.15962439395E+02  0.50514929495E+01  0.32794264681E+02  0.36820929489E+02  0.00000000000E+00 0.  1.
         11    1    4    4    0    0 -0.21123679280E+01 -0.10543388956E+02 -0.50696360640E+01  0.11888076338E+02  0.51100000000E-03 0. -1.
        -11    1    4    4    0    0 -0.93801673781E+01 -0.55117521928E+01  0.14534240463E+01  0.10976310582E+02  0.51100000000E-03 0.  1.
         12    1    4    4    0    0 -0.44699040892E+01  0.11003648199E+02 -0.29178052663E+02  0.31502683591E+02  0.00000000000E+00 0. -1.
</event>
<event>
 8    1  0.2514877E-006  0.9118800E+02  0.7816164E-02  0.1184000E+00
        -11   -1    0    0    0    0  0.00000000000E+00  0.00000000000E+00  0.45593999997E+02  0.45594000000E+02  0.51100000000E-03 0.  1.
         11   -1    0    0    0    0 -0.00000000000E+00 -0.00000000000E+00 -0.45593999997E+02  0.45594000000E+02  0.51100000000E-03 0. -1.
         23    2    1    2    0    0  0.00000000000E+00 -0.88817841970E-15  0.35527136788E-14  0.91188000000E+02  0.91188000000E+02 0.  0.
    9900012    2    3    3    0    0  0.16470624294E+02  0.79837050669E+01  0.31949458774E+02  0.54366960808E+02  0.39999718752E+02 0.  0.
         12    1    3    3    0    0 -0.16470624294E+02 -0.79837050669E+01 -0.31949458774E+02  0.36821039192E+02  0.00000000000E+00 0. -1.
         11    1    4    4    0    0  0.93799371105E+01 -0.12761148226E+02  0.12211731399E+02  0.19998912677E+02  0.51100000000E-03 0. -1.
        -11    1    4    4    0    0 -0.20546560674E+01  0.70739403308E+00  0.10091021452E+02  0.10322341405E+02  0.51100000000E-03 0.  1.
         12    1    4    4    0    0  0.91453432513E+01  0.20037459260E+02  0.96467059235E+01  0.24045706726E+02  0.00000000000E+00 0. -1.
</event>
<event>
 8    1  0.2514877E-006  0.9118800E+02  0.7816164E-02  0.1184000E+00
        -11   -1    0    0    0    0  0.00000000000E+00  0.00000000000E+00  0.45593999997E+02  0.45594000000E+02  0.51100000000E-03 0.  1.
         11   -1    0    0    0    0 -0.00000000000E+00 -0.00000000000E+00 -0.45593999997E+02  0.45594000000E+02  0.51100000000E-03 0. -1.
         23    2    1    2    0    0 -0.17763568394E-14  0.00000000000E+00  0.00000000000E+00  0.91188000000E+02  0.91188000000E+02 0.  0.
    9900012    2    3    3    0    0 -0.12191943018E+02  0.15427144357E+02  0.31131010768E+02  0.54367080823E+02  0.39999992353E+02 0.  0.
         12    1    3    3    0    0  0.12191943018E+02 -0.15427144357E+02 -0.31131010768E+02  0.36820919177E+02  0.00000000000E+00 0. -1.
         11    1    4    4    0    0 -0.27795310831E+01 -0.68783378497E+01  0.94764054045E+00  0.74789937473E+01  0.51100000000E-03 0. -1.
        -11    1    4    4    0    0 -0.12147499531E+02  0.27386733276E+02  0.26808160985E+02  0.40202890444E+02  0.51100000000E-03 0.  1.
        -12    1    4    4    0    0  0.27350875955E+01 -0.50812510688E+01  0.33752092425E+01  0.66851966321E+01  0.00000000000E+00 0.  1.
</event>
<event>
 8    1  0.2514877E-006  0.9118800E+02  0.7816164E-02  0.1184000E+00
        -11   -1    0    0    0    0  0.00000000000E+00  0.00000000000E+00  0.45593999997E+02  0.45594000000E+02  0.51100000000E-03 0. -1.
         11   -1    0    0    0    0 -0.00000000000E+00 -0.00000000000E+00 -0.45593999997E+02  0.45594000000E+02  0.51100000000E-03 0.  1.
         23    2    1    2    0    0  0.35527136788E-14  0.00000000000E+00  0.00000000000E+00  0.91188000000E+02  0.91188000000E+02 0.  0.
    9900012    2    3    3    0    0 -0.11622095288E+02  0.72241985837E+01  0.34183566130E+02  0.54367104608E+02  0.40000046575E+02 0.  0.
        -12    1    3    3    0    0  0.11622095288E+02 -0.72241985837E+01 -0.34183566130E+02  0.36820895392E+02  0.00000000000E+00 0.  1.
         11    1    4    4    0    0 -0.29648989106E+01 -0.88442093955E+01  0.13983579342E+02  0.16809258070E+02  0.51100000000E-03 0. -1.
        -11    1    4    4    0    0  0.84016961512E+01  0.87685377697E+01  0.12620416285E+02  0.17514298738E+02  0.51100000000E-03 0.  1.
         12    1    4    4    0    0 -0.17058892529E+02  0.72998702094E+01  0.75795705036E+01  0.20043547800E+02  0.00000000000E+00 0. -1.
</event>
<event>
 8    1  0.2514877E-006  0.9118800E+02  0.7816164E-02  0.1184000E+00
        -11   -1    0    0    0    0  0.00000000000E+00  0.00000000000E+00  0.45593999997E+02  0.45594000000E+02  0.51100000000E-03 0. -1.
         11   -1    0    0    0    0 -0.00000000000E+00 -0.00000000000E+00 -0.45593999997E+02  0.45594000000E+02  0.51100000000E-03 0.  1.
         23    2    1    2    0    0  0.00000000000E+00 -0.71054273576E-14 -0.26645352591E-14  0.91188000000E+02  0.91188000000E+02 0.  0.
    9900012    2    3    3    0    0  0.16478376744E+02  0.32202762423E+02  0.68720785069E+01  0.54367078355E+02  0.39999986726E+02 0.  0.
        -12    1    3    3    0    0 -0.16478376744E+02 -0.32202762423E+02 -0.68720785069E+01  0.36820921645E+02  0.00000000000E+00 0.  1.
         11    1    4    4    0    0 -0.43742395586E+01  0.88356147494E+01 -0.24061338021E+01  0.10148474755E+02  0.51100000000E-03 0. -1.
        -11    1    4    4    0    0  0.15674567302E+02 -0.28808057394E+01  0.11007223530E+00  0.15937478407E+02  0.51100000000E-03 0.  1.
         12    1    4    4    0    0  0.51780490006E+01  0.26247953413E+02  0.91681400737E+01  0.28281125194E+02  0.00000000000E+00 0. -1.
</event>
<event>
 8    1  0.2514877E-006  0.9118800E+02  0.7816164E-02  0.1184000E+00
        -11   -1    0    0    0    0  0.00000000000E+00  0.00000000000E+00  0.45593999997E+02  0.45594000000E+02  0.51100000000E-03 0.  1.
         11   -1    0    0    0    0 -0.00000000000E+00 -0.00000000000E+00 -0.45593999997E+02  0.45594000000E+02  0.51100000000E-03 0. -1.
         23    2    1    2    0    0  0.35527136788E-14  0.35527136788E-14  0.00000000000E+00  0.91188000000E+02  0.91188000000E+02 0.  0.
    9900012    2    3    3    0    0  0.27975383026E+02  0.22088824721E+02  0.92326289550E+01  0.54367086507E+02  0.40000005311E+02 0.  0.
         12    1    3    3    0    0 -0.27975383026E+02 -0.22088824721E+02 -0.92326289550E+01  0.36820913493E+02  0.00000000000E+00 0. -1.
         11    1    4    4    0    0  0.18442108634E+01  0.22578394566E+01  0.13881806755E+01  0.32289314904E+01  0.51100000000E-03 0. -1.
        -11    1    4    4    0    0  0.35060972259E+02  0.92449587233E+01  0.86101591696E+01  0.37267625075E+02  0.51100000000E-03 0.  1.
         12    1    4    4    0    0 -0.89298000965E+01  0.10586026541E+02 -0.76571089009E+00  0.13870529941E+02  0.00000000000E+00 0. -1.
</event>
<event>
 8    1  0.2514877E-006  0.9118800E+02  0.7816164E-02  0.1184000E+00
        -11   -1    0    0    0    0  0.00000000000E+00  0.00000000000E+00  0.45593999997E+02  0.45594000000E+02  0.51100000000E-03 0.  1.
         11   -1    0    0    0    0 -0.00000000000E+00 -0.00000000000E+00 -0.45593999997E+02  0.45594000000E+02  0.51100000000E-03 0. -1.
         23    2    1    2    0    0  0.00000000000E+00  0.88817841970E-15  0.00000000000E+00  0.91188000000E+02  0.91188000000E+02 0.  0.
    9900012    2    3    3    0    0 -0.79397391675E+01  0.46367415190E+01  0.35654471498E+02  0.54367079754E+02  0.39999989915E+02 0.  0.
         12    1    3    3    0    0  0.79397391675E+01 -0.46367415190E+01 -0.35654471498E+02  0.36820920246E+02  0.00000000000E+00 0. -1.
         11    1    4    4    0    0 -0.20790991560E+01 -0.14508603940E+01 -0.10219652836E+01  0.27335073597E+01  0.51100000000E-03 0. -1.
        -11    1    4    4    0    0  0.56064754317E+01 -0.12871535792E+02  0.16519074140E+02  0.21679225335E+02  0.51100000000E-03 0.  1.
         12    1    4    4    0    0 -0.11467115443E+02  0.18959137705E+02  0.20157362642E+02  0.29954347060E+02  0.00000000000E+00 0. -1.
</event>
<event>
 8    1  0.2514877E-006  0.9118800E+02  0.7816164E-02  0.1184000E+00
        -11   -1    0    0    0    0  0.00000000000E+00  0.00000000000E+00  0.45593999997E+02  0.45594000000E+02  0.51100000000E-03 0.  1.
         11   -1    0    0    0    0 -0.00000000000E+00 -0.00000000000E+00 -0.45593999997E+02  0.45594000000E+02  0.51100000000E-03 0. -1.
         23    2    1    2    0    0 -0.71054273576E-14 -0.22204460493E-15  0.35527136788E-14  0.91188000000E+02  0.91188000000E+02 0.  0.
    9900012    2    3    3    0    0  0.32225141496E+02  0.10882698873E+01 -0.17780188399E+02  0.54367093231E+02  0.40000020639E+02 0.  0.
         12    1    3    3    0    0 -0.32225141496E+02 -0.10882698873E+01  0.17780188399E+02  0.36820906769E+02  0.00000000000E+00 0. -1.
         11    1    4    4    0    0 -0.14069713259E+01  0.81726365066E+01 -0.51700382458E+00  0.83089619686E+01  0.51100000000E-03 0. -1.
        -11    1    4    4    0    0  0.18504465648E+02 -0.53933286754E+01  0.42179023797E+01  0.19730533289E+02  0.51100000000E-03 0.  1.
         12    1    4    4    0    0  0.15127647174E+02 -0.16910379439E+01 -0.21481086954E+02  0.26327597974E+02  0.00000000000E+00 0. -1.
</event>
<event>
 8    1  0.2514877E-006  0.9118800E+02  0.7816164E-02  0.1184000E+00
        -11   -1    0    0    0    0  0.00000000000E+00  0.00000000000E+00  0.45593999997E+02  0.45594000000E+02  0.51100000000E-03 0. -1.
         11   -1    0    0    0    0 -0.00000000000E+00 -0.00000000000E+00 -0.45593999997E+02  0.45594000000E+02  0.51100000000E-03 0.  1.
         23    2    1    2    0    0  0.44408920985E-15  0.00000000000E+00  0.00000000000E+00  0.91188000000E+02  0.91188000000E+02 0.  0.
    9900012    2    3    3    0    0  0.37201140185E+01  0.11972841060E+02  0.34620670598E+02  0.54367095556E+02  0.40000025940E+02 0.  0.
        -12    1    3    3    0    0 -0.37201140185E+01 -0.11972841060E+02 -0.34620670598E+02  0.36820904444E+02  0.00000000000E+00 0.  1.
         11    1    4    4    0    0  0.99216501043E+01  0.85434282042E+00  0.24188809489E+02  0.26158508123E+02  0.51100000000E-03 0. -1.
        -11    1    4    4    0    0  0.46919123573E+00  0.99752255072E+00 -0.69392837285E+01  0.70262970746E+01  0.51100000000E-03 0.  1.
         12    1    4    4    0    0 -0.66707273215E+01  0.10120975689E+02  0.17371144838E+02  0.21182290359E+02  0.00000000000E+00 0. -1.
</event>
<event>
 8    1  0.2514877E-006  0.9118800E+02  0.7816164E-02  0.1184000E+00
        -11   -1    0    0    0    0  0.00000000000E+00  0.00000000000E+00  0.45593999997E+02  0.45594000000E+02  0.51100000000E-03 0. -1.
         11   -1    0    0    0    0 -0.00000000000E+00 -0.00000000000E+00 -0.45593999997E+02  0.45594000000E+02  0.51100000000E-03 0.  1.
         23    2    1    2    0    0 -0.17763568394E-14  0.00000000000E+00  0.00000000000E+00  0.91188000000E+02  0.91188000000E+02 0.  0.
    9900012    2    3    3    0    0 -0.98530020998E+01  0.16007559348E+02  0.31661625016E+02  0.54367053444E+02  0.39999929936E+02 0.  0.
        -12    1    3    3    0    0  0.98530020998E+01 -0.16007559348E+02 -0.31661625016E+02  0.36820946556E+02  0.00000000000E+00 0.  1.
         11    1    4    4    0    0 -0.47899287992E+01 -0.37897411427E+00  0.17073934500E+02  0.17737144045E+02  0.51100000000E-03 0. -1.
        -11    1    4    4    0    0  0.37359129208E+01  0.10778202980E+01 -0.74423855064E+01  0.83968949162E+01  0.51100000000E-03 0.  1.
         12    1    4    4    0    0 -0.87989862215E+01  0.15308713164E+02  0.22030076021E+02  0.28233014483E+02  0.00000000000E+00 0. -1.
</event>
<event>
 8    1  0.2514877E-006  0.9118800E+02  0.7816164E-02  0.1184000E+00
        -11   -1    0    0    0    0  0.00000000000E+00  0.00000000000E+00  0.45593999997E+02  0.45594000000E+02  0.51100000000E-03 0.  1.
         11   -1    0    0    0    0 -0.00000000000E+00 -0.00000000000E+00 -0.45593999997E+02  0.45594000000E+02  0.51100000000E-03 0. -1.
         23    2    1    2    0    0  0.00000000000E+00 -0.17763568394E-14  0.71054273576E-14  0.91188000000E+02  0.91188000000E+02 0.  0.
    9900012    2    3    3    0    0 -0.16447268130E+02  0.12417551359E+02 -0.30513454711E+02  0.54367093859E+02  0.40000022070E+02 0.  0.
        -12    1    3    3    0    0  0.16447268130E+02 -0.12417551359E+02  0.30513454711E+02  0.36820906141E+02  0.00000000000E+00 0.  1.
         11    1    4    4    0    0  0.63505584374E+01  0.18280021301E-02 -0.32318350699E+01  0.71256125343E+01  0.51100000000E-03 0.  1.
        -11    1    4    4    0    0 -0.10041479373E+02 -0.83559347909E+01 -0.15179198565E+02  0.20026508022E+02  0.51100000000E-03 0. -1.
         12    1    4    4    0    0 -0.12756347195E+02  0.20771658148E+02 -0.12102421076E+02  0.27214973303E+02  0.00000000000E+00 0. -1.
</event>
<event>
 8    1  0.2514877E-006  0.9118800E+02  0.7816164E-02  0.1184000E+00
        -11   -1    0    0    0    0  0.00000000000E+00  0.00000000000E+00  0.45593999997E+02  0.45594000000E+02  0.51100000000E-03 0.  1.
         11   -1    0    0    0    0 -0.00000000000E+00 -0.00000000000E+00 -0.45593999997E+02  0.45594000000E+02  0.51100000000E-03 0. -1.
         23    2    1    2    0    0  0.00000000000E+00 -0.17763568394E-14  0.00000000000E+00  0.91188000000E+02  0.91188000000E+02 0.  0.
    9900012    2    3    3    0    0 -0.12406161511E+02  0.12381904921E+02  0.32381384423E+02  0.54367102808E+02  0.40000042471E+02 0.  0.
         12    1    3    3    0    0  0.12406161511E+02 -0.12381904921E+02 -0.32381384423E+02  0.36820897192E+02  0.00000000000E+00 0. -1.
         11    1    4    4    0    0 -0.77863128634E+00  0.25592185822E+01  0.14134862238E+01  0.30255264001E+01  0.51100000000E-03 0. -1.
        -11    1    4    4    0    0 -0.11379552198E+02 -0.11122810006E+02  0.26710508777E+01  0.16135229273E+02  0.51100000000E-03 0.  1.
        -12    1    4    4    0    0 -0.24797802647E+00  0.20945496345E+02  0.28296847321E+02  0.35206347135E+02  0.00000000000E+00 0.  1.
</event>
<event>
 8    1  0.2514877E-006  0.9118800E+02  0.7816164E-02  0.1184000E+00
        -11   -1    0    0    0    0  0.00000000000E+00  0.00000000000E+00  0.45593999997E+02  0.45594000000E+02  0.51100000000E-03 0.  1.
         11   -1    0    0    0    0 -0.00000000000E+00 -0.00000000000E+00 -0.45593999997E+02  0.45594000000E+02  0.51100000000E-03 0. -1.
         23    2    1    2    0    0 -0.44408920985E-14 -0.17763568394E-14  0.71054273576E-14  0.91188000000E+02  0.91188000000E+02 0.  0.
    9900012    2    3    3    0    0  0.58160238481E+01  0.14856814735E+02 -0.33184763387E+02  0.54367087484E+02  0.40000007538E+02 0.  0.
        -12    1    3    3    0    0 -0.58160238481E+01 -0.14856814735E+02  0.33184763387E+02  0.36820912516E+02  0.00000000000E+00 0.  1.
         11    1    4    4    0    0 -0.10169686183E+02  0.84922829433E+00 -0.50137208770E+00  0.10217391056E+02  0.51100000000E-03 0.  1.
        -11    1    4    4    0    0  0.20433098675E+02  0.13603288149E+02 -0.23717829932E+02  0.34133508857E+02  0.51100000000E-03 0. -1.
         12    1    4    4    0    0 -0.44473886437E+01  0.40429829159E+00 -0.89655613666E+01  0.10016187572E+02  0.00000000000E+00 0. -1.
</event>
<event>
 8    1  0.2514877E-006  0.9118800E+02  0.7816164E-02  0.1184000E+00
        -11   -1    0    0    0    0  0.00000000000E+00  0.00000000000E+00  0.45593999997E+02  0.45594000000E+02  0.51100000000E-03 0.  1.
         11   -1    0    0    0    0 -0.00000000000E+00 -0.00000000000E+00 -0.45593999997E+02  0.45594000000E+02  0.51100000000E-03 0. -1.
         23    2    1    2    0    0 -0.35527136788E-14  0.00000000000E+00  0.00000000000E+00  0.91188000000E+02  0.91188000000E+02 0.  0.
    9900012    2    3    3    0    0  0.18652822916E+02  0.15709718454E+02 -0.27587257786E+02  0.54367084085E+02  0.39999999790E+02 0.  0.
        -12    1    3    3    0    0 -0.18652822916E+02 -0.15709718454E+02  0.27587257786E+02  0.36820915915E+02  0.00000000000E+00 0.  1.
         11    1    4    4    0    0  0.26645955210E+02  0.11969997974E+02 -0.17464690294E+02  0.34033853556E+02  0.51100000000E-03 0. -1.
        -11    1    4    4    0    0 -0.10432501562E+02  0.26126387120E+01 -0.12677907483E+02  0.16625050625E+02  0.51100000000E-03 0.  1.
         12    1    4    4    0    0  0.24393692674E+01  0.11270817686E+01  0.25553399909E+01  0.37081799046E+01  0.00000000000E+00 0. -1.
</event>
<event>
 8    1  0.2514877E-006  0.9118800E+02  0.7816164E-02  0.1184000E+00
        -11   -1    0    0    0    0  0.00000000000E+00  0.00000000000E+00  0.45593999997E+02  0.45594000000E+02  0.51100000000E-03 0.  1.
         11   -1    0    0    0    0 -0.00000000000E+00 -0.00000000000E+00 -0.45593999997E+02  0.45594000000E+02  0.51100000000E-03 0. -1.
         23    2    1    2    0    0  0.00000000000E+00  0.00000000000E+00  0.00000000000E+00  0.91188000000E+02  0.91188000000E+02 0.  0.
    9900012    2    3    3    0    0  0.33159188579E+02  0.86271848286E+01  0.13484202888E+02  0.54367029986E+02  0.39999876458E+02 0.  0.
         12    1    3    3    0    0 -0.33159188579E+02 -0.86271848286E+01 -0.13484202888E+02  0.36820970014E+02  0.00000000000E+00 0. -1.
         11    1    4    4    0    0  0.25467589972E+00  0.33835142350E+01 -0.26993729208E+01  0.43358554887E+01  0.51100000000E-03 0. -1.
        -11    1    4    4    0    0  0.24477435099E+02  0.12471902302E+02  0.23979401647E+02  0.36465118671E+02  0.51100000000E-03 0.  1.
         12    1    4    4    0    0  0.84270775800E+01 -0.72282317083E+01 -0.77958258385E+01  0.13566055826E+02  0.00000000000E+00 0. -1.
</event>
<event>
 8    1  0.2514877E-006  0.9118800E+02  0.7816164E-02  0.1184000E+00
        -11   -1    0    0    0    0  0.00000000000E+00  0.00000000000E+00  0.45593999997E+02  0.45594000000E+02  0.51100000000E-03 0.  1.
         11   -1    0    0    0    0 -0.00000000000E+00 -0.00000000000E+00 -0.45593999997E+02  0.45594000000E+02  0.51100000000E-03 0. -1.
         23    2    1    2    0    0  0.35527136788E-14  0.35527136788E-14  0.00000000000E+00  0.91188000000E+02  0.91188000000E+02 0.  0.
    9900012    2    3    3    0    0 -0.20521905435E+02  0.24667894467E+02  0.18058962367E+02  0.54367085537E+02  0.40000003099E+02 0.  0.
         12    1    3    3    0    0  0.20521905435E+02 -0.24667894467E+02 -0.18058962367E+02  0.36820914463E+02  0.00000000000E+00 0. -1.
         11    1    4    4    0    0  0.67811105356E+01 -0.28919491356E+01  0.64617257322E+00  0.74002952072E+01  0.51100000000E-03 0. -1.
        -11    1    4    4    0    0 -0.13274712695E+02  0.57167332879E+01  0.15102733201E+02  0.20904343736E+02  0.51100000000E-03 0.  1.
        -12    1    4    4    0    0 -0.14028303275E+02  0.21843110315E+02  0.23100565927E+01  0.26062446594E+02  0.00000000000E+00 0.  1.
</event>
<event>
 8    1  0.2514877E-006  0.9118800E+02  0.7816164E-02  0.1184000E+00
        -11   -1    0    0    0    0  0.00000000000E+00  0.00000000000E+00  0.45593999997E+02  0.45594000000E+02  0.51100000000E-03 0. -1.
         11   -1    0    0    0    0 -0.00000000000E+00 -0.00000000000E+00 -0.45593999997E+02  0.45594000000E+02  0.51100000000E-03 0.  1.
         23    2    1    2    0    0 -0.35527136788E-14  0.00000000000E+00 -0.35527136788E-14  0.91188000000E+02  0.91188000000E+02 0.  0.
    9900012    2    3    3    0    0  0.24060152422E+02  0.23711136839E+02  0.14651660433E+02  0.54367080699E+02  0.39999992069E+02 0.  0.
        -12    1    3    3    0    0 -0.24060152422E+02 -0.23711136839E+02 -0.14651660433E+02  0.36820919301E+02  0.00000000000E+00 0.  1.
         11    1    4    4    0    0  0.22670070524E+02  0.16001286469E+02  0.38393703159E+00  0.27751048162E+02  0.51100000000E-03 0. -1.
        -11    1    4    4    0    0  0.49961867730E+01 -0.43148023748E+01 -0.11846654871E+01  0.67069243608E+01  0.51100000000E-03 0.  1.
         12    1    4    4    0    0 -0.36061048749E+01  0.12024652745E+02  0.15452388888E+02  0.19909108176E+02  0.00000000000E+00 0. -1.
</event>
<event>
 8    1  0.2514877E-006  0.9118800E+02  0.7816164E-02  0.1184000E+00
        -11   -1    0    0    0    0  0.00000000000E+00  0.00000000000E+00  0.45593999997E+02  0.45594000000E+02  0.51100000000E-03 0. -1.
         11   -1    0    0    0    0 -0.00000000000E+00 -0.00000000000E+00 -0.45593999997E+02  0.45594000000E+02  0.51100000000E-03 0.  1.
         23    2    1    2    0    0  0.71054273576E-14 -0.17763568394E-14  0.77715611724E-15  0.91188000000E+02  0.91188000000E+02 0.  0.
    9900012    2    3    3    0    0 -0.35024831942E+02 -0.11341122344E+02  0.64918064958E+00  0.54367063780E+02  0.39999953499E+02 0.  0.
         12    1    3    3    0    0  0.35024831942E+02  0.11341122344E+02 -0.64918064958E+00  0.36820936220E+02  0.00000000000E+00 0. -1.
         11    1    4    4    0    0  0.37248183499E+01 -0.12177565318E+02  0.64264996679E+01  0.14264195282E+02  0.51100000000E-03 0. -1.
        -11    1    4    4    0    0 -0.11386955876E+02 -0.36452423520E+01 -0.16064069061E+01  0.12063627122E+02  0.51100000000E-03 0.  1.
         12    1    4    4    0    0 -0.27362694416E+02  0.44816853263E+01 -0.41709121122E+01  0.28039241376E+02  0.00000000000E+00 0. -1.
</event>
<event>
 8    1  0.2514877E-006  0.9118800E+02  0.7816164E-02  0.1184000E+00
        -11   -1    0    0    0    0  0.00000000000E+00  0.00000000000E+00  0.45593999997E+02  0.45594000000E+02  0.51100000000E-03 0.  1.
         11   -1    0    0    0    0 -0.00000000000E+00 -0.00000000000E+00 -0.45593999997E+02  0.45594000000E+02  0.51100000000E-03 0. -1.
         23    2    1    2    0    0  0.00000000000E+00  0.17763568394E-14  0.00000000000E+00  0.91188000000E+02  0.91188000000E+02 0.  0.
    9900012    2    3    3    0    0  0.34586455800E+02 -0.11052495274E+02  0.61154512569E+01  0.54367091257E+02  0.40000016139E+02 0.  0.
         12    1    3    3    0    0 -0.34586455800E+02  0.11052495274E+02 -0.61154512569E+01  0.36820908743E+02  0.00000000000E+00 0. -1.
         11    1    4    4    0    0  0.37884068291E+02 -0.96653010319E+01 -0.36291229019E+01  0.39265649207E+02  0.51100000000E-03 0. -1.
        -11    1    4    4    0    0  0.10883566861E+01  0.15636893481E+01  0.96271890731E+01  0.98138888502E+01  0.51100000000E-03 0.  1.
         12    1    4    4    0    0 -0.43859691772E+01 -0.29508835904E+01  0.11738508569E+00  0.52875532003E+01  0.00000000000E+00 0. -1.
</event>
<event>
 8    1  0.2514877E-006  0.9118800E+02  0.7816164E-02  0.1184000E+00
        -11   -1    0    0    0    0  0.00000000000E+00  0.00000000000E+00  0.45593999997E+02  0.45594000000E+02  0.51100000000E-03 0.  1.
         11   -1    0    0    0    0 -0.00000000000E+00 -0.00000000000E+00 -0.45593999997E+02  0.45594000000E+02  0.51100000000E-03 0. -1.
         23    2    1    2    0    0  0.00000000000E+00  0.00000000000E+00 -0.35527136788E-14  0.91188000000E+02  0.91188000000E+02 0.  0.
    9900012    2    3    3    0    0  0.20396311009E+02 -0.18540001671E+02  0.24413878794E+02  0.54367100466E+02  0.40000037132E+02 0.  0.
         12    1    3    3    0    0 -0.20396311009E+02  0.18540001671E+02 -0.24413878794E+02  0.36820899534E+02  0.00000000000E+00 0. -1.
         11    1    4    4    0    0  0.14174035826E+00 -0.74022664628E+01 -0.34174507082E+01  0.81543000141E+01  0.51100000000E-03 0. -1.
        -11    1    4    4    0    0  0.89021369753E+01 -0.18092998514E+02  0.67213538263E+01  0.21255146094E+02  0.51100000000E-03 0.  1.
         12    1    4    4    0    0  0.11352433675E+02  0.69552633062E+01  0.21109975676E+02  0.24957654358E+02  0.00000000000E+00 0. -1.
</event>
<event>
 8    1  0.2514877E-006  0.9118800E+02  0.7816164E-02  0.1184000E+00
        -11   -1    0    0    0    0  0.00000000000E+00  0.00000000000E+00  0.45593999997E+02  0.45594000000E+02  0.51100000000E-03 0.  1.
         11   -1    0    0    0    0 -0.00000000000E+00 -0.00000000000E+00 -0.45593999997E+02  0.45594000000E+02  0.51100000000E-03 0. -1.
         23    2    1    2    0    0  0.00000000000E+00 -0.22204460493E-14  0.71054273576E-14  0.91188000000E+02  0.91188000000E+02 0.  0.
    9900012    2    3    3    0    0  0.11593931282E+02  0.33553451264E+01 -0.34786521777E+02  0.54367086366E+02  0.40000004989E+02 0.  0.
        -12    1    3    3    0    0 -0.11593931282E+02 -0.33553451264E+01  0.34786521777E+02  0.36820913634E+02  0.00000000000E+00 0.  1.
         11    1    4    4    0    0 -0.29521569739E+01  0.14524358603E+02 -0.30375828208E+02  0.33798863342E+02  0.51100000000E-03 0. -1.
        -11    1    4    4    0    0  0.14348810177E+02 -0.12309562320E+02 -0.39018881595E+01  0.19303844422E+02  0.51100000000E-03 0.  1.
        -12    1    4    4    0    0  0.19727807892E+00  0.11405488430E+01 -0.50880540970E+00  0.12643786018E+01  0.00000000000E+00 0.  1.
</event>
<event>
 8    1  0.2514877E-006  0.9118800E+02  0.7816164E-02  0.1184000E+00
        -11   -1    0    0    0    0  0.00000000000E+00  0.00000000000E+00  0.45593999997E+02  0.45594000000E+02  0.51100000000E-03 0. -1.
         11   -1    0    0    0    0 -0.00000000000E+00 -0.00000000000E+00 -0.45593999997E+02  0.45594000000E+02  0.51100000000E-03 0.  1.
         23    2    1    2    0    0  0.00000000000E+00 -0.35527136788E-14 -0.35527136788E-14  0.91188000000E+02  0.91188000000E+02 0.  0.
    9900012    2    3    3    0    0  0.11755992705E+01  0.20943966829E+02 -0.30261326972E+02  0.54367086238E+02  0.40000004696E+02 0.  0.
         12    1    3    3    0    0 -0.11755992705E+01 -0.20943966829E+02  0.30261326972E+02  0.36820913762E+02  0.00000000000E+00 0. -1.
         11    1    4    4    0    0  0.60853409023E+01  0.86569396986E+01 -0.64617371898E+01  0.12398710684E+02  0.51100000000E-03 0. -1.
        -11    1    4    4    0    0 -0.16853837257E+00  0.11777863965E+02  0.49857217664E+01  0.12790774275E+02  0.51100000000E-03 0.  1.
        -12    1    4    4    0    0 -0.47412032591E+01  0.50916316555E+00 -0.28785311548E+02  0.29177601279E+02  0.00000000000E+00 0.  1.
</event>
<event>
 8    1  0.2514877E-006  0.9118800E+02  0.7816164E-02  0.1184000E+00
        -11   -1    0    0    0    0  0.00000000000E+00  0.00000000000E+00  0.45593999997E+02  0.45594000000E+02  0.51100000000E-03 0.  1.
         11   -1    0    0    0    0 -0.00000000000E+00 -0.00000000000E+00 -0.45593999997E+02  0.45594000000E+02  0.51100000000E-03 0. -1.
         23    2    1    2    0    0  0.00000000000E+00  0.00000000000E+00  0.00000000000E+00  0.91188000000E+02  0.91188000000E+02 0.  0.
    9900012    2    3    3    0    0 -0.36070619779E+02  0.30354076248E+01  0.67436464727E+01  0.54367080967E+02  0.39999992681E+02 0.  0.
        -12    1    3    3    0    0  0.36070619779E+02 -0.30354076248E+01 -0.67436464727E+01  0.36820919033E+02  0.00000000000E+00 0.  1.
         11    1    4    4    0    0 -0.10785912889E+02  0.55634197311E+01  0.12952282590E+00  0.12136899619E+02  0.51100000000E-03 0. -1.
        -11    1    4    4    0    0 -0.97843337177E+01  0.14793368850E+02  0.67727994950E+01  0.18985461846E+02  0.51100000000E-03 0.  1.
        -12    1    4    4    0    0 -0.15500373173E+02 -0.17321380956E+02 -0.15867584816E+00  0.23244719502E+02  0.00000000000E+00 0.  1.
</event>
<event>
 8    1  0.2514877E-006  0.9118800E+02  0.7816164E-02  0.1184000E+00
        -11   -1    0    0    0    0  0.00000000000E+00  0.00000000000E+00  0.45593999997E+02  0.45594000000E+02  0.51100000000E-03 0.  1.
         11   -1    0    0    0    0 -0.00000000000E+00 -0.00000000000E+00 -0.45593999997E+02  0.45594000000E+02  0.51100000000E-03 0. -1.
         23    2    1    2    0    0  0.44408920985E-15  0.35527136788E-14  0.35527136788E-14  0.91188000000E+02  0.91188000000E+02 0.  0.
    9900012    2    3    3    0    0 -0.87837565756E+00 -0.27673016946E+02 -0.24273692279E+02  0.54367088176E+02  0.40000009116E+02 0.  0.
        -12    1    3    3    0    0  0.87837565756E+00  0.27673016946E+02  0.24273692279E+02  0.36820911824E+02  0.00000000000E+00 0.  1.
         11    1    4    4    0    0 -0.39978395297E+01 -0.98464062400E+01 -0.28869692000E+02  0.30763510092E+02  0.51100000000E-03 0. -1.
        -11    1    4    4    0    0  0.28351453696E+01 -0.20379771022E+02  0.42648779094E+01  0.21013383831E+02  0.51100000000E-03 0.  1.
        -12    1    4    4    0    0  0.28431850257E+00  0.25531603168E+01  0.33112181193E+00  0.25901942530E+01  0.00000000000E+00 0.  1.
</event>
<event>
 8    1  0.2514877E-006  0.9118800E+02  0.7816164E-02  0.1184000E+00
        -11   -1    0    0    0    0  0.00000000000E+00  0.00000000000E+00  0.45593999997E+02  0.45594000000E+02  0.51100000000E-03 0.  1.
         11   -1    0    0    0    0 -0.00000000000E+00 -0.00000000000E+00 -0.45593999997E+02  0.45594000000E+02  0.51100000000E-03 0. -1.
         23    2    1    2    0    0  0.17763568394E-14  0.00000000000E+00 -0.35527136788E-14  0.91188000000E+02  0.91188000000E+02 0.  0.
    9900012    2    3    3    0    0  0.40181004100E+01 -0.23992210649E+02 -0.27640705202E+02  0.54367083570E+02  0.39999998614E+02 0.  0.
        -12    1    3    3    0    0 -0.40181004100E+01  0.23992210649E+02  0.27640705202E+02  0.36820916430E+02  0.00000000000E+00 0.  1.
         11    1    4    4    0    0 -0.87531070976E+01 -0.25071927665E+02 -0.27501861058E+02  0.38230495715E+02  0.51100000000E-03 0. -1.
        -11    1    4    4    0    0 -0.66220620072E+00 -0.12881920774E+01  0.18524478464E+01  0.23514929652E+01  0.51100000000E-03 0.  1.
         12    1    4    4    0    0  0.13433413708E+02  0.23679090937E+01 -0.19912919903E+01  0.13785094890E+02  0.00000000000E+00 0. -1.
</event>
<event>
 8    1  0.2514877E-006  0.9118800E+02  0.7816164E-02  0.1184000E+00
        -11   -1    0    0    0    0  0.00000000000E+00  0.00000000000E+00  0.45593999997E+02  0.45594000000E+02  0.51100000000E-03 0. -1.
         11   -1    0    0    0    0 -0.00000000000E+00 -0.00000000000E+00 -0.45593999997E+02  0.45594000000E+02  0.51100000000E-03 0.  1.
         23    2    1    2    0    0 -0.35527136788E-14  0.35527136788E-14  0.35527136788E-14  0.91188000000E+02  0.91188000000E+02 0.  0.
    9900012    2    3    3    0    0  0.28459031525E+02 -0.20156025713E+02 -0.11815146596E+02  0.54367088319E+02  0.40000009442E+02 0.  0.
         12    1    3    3    0    0 -0.28459031525E+02  0.20156025713E+02  0.11815146596E+02  0.36820911681E+02  0.00000000000E+00 0. -1.
         11    1    4    4    0    0  0.97459890527E+01  0.67500650359E+01  0.63806944362E+01  0.13463318400E+02  0.51100000000E-03 0. -1.
        -11    1    4    4    0    0  0.17857758620E+02 -0.25482355638E+02 -0.10212865977E+02  0.32749849214E+02  0.51100000000E-03 0.  1.
         12    1    4    4    0    0  0.85528385246E+00 -0.14237351103E+01 -0.79829750548E+01  0.81539207047E+01  0.00000000000E+00 0. -1.
</event>
<event>
 8    1  0.2514877E-006  0.9118800E+02  0.7816164E-02  0.1184000E+00
        -11   -1    0    0    0    0  0.00000000000E+00  0.00000000000E+00  0.45593999997E+02  0.45594000000E+02  0.51100000000E-03 0.  1.
         11   -1    0    0    0    0 -0.00000000000E+00 -0.00000000000E+00 -0.45593999997E+02  0.45594000000E+02  0.51100000000E-03 0. -1.
         23    2    1    2    0    0 -0.35527136788E-14  0.00000000000E+00  0.35527136788E-14  0.91188000000E+02  0.91188000000E+02 0.  0.
    9900012    2    3    3    0    0 -0.21593411570E+02  0.16940039952E+02  0.24546677939E+02  0.54367085092E+02  0.40000002084E+02 0.  0.
         12    1    3    3    0    0  0.21593411570E+02 -0.16940039952E+02 -0.24546677939E+02  0.36820914908E+02  0.00000000000E+00 0. -1.
         11    1    4    4    0    0  0.64617006109E+01  0.15191179643E+02  0.13298222111E+02  0.21198307133E+02  0.51100000000E-03 0. -1.
        -11    1    4    4    0    0 -0.11971455706E+02 -0.36768738792E+01 -0.48692075785E+00  0.12532846657E+02  0.51100000000E-03 0.  1.
         12    1    4    4    0    0 -0.16083656475E+02  0.54257341878E+01  0.11735376586E+02  0.20635931302E+02  0.00000000000E+00 0. -1.
</event>
<event>
 8    1  0.2514877E-006  0.9118800E+02  0.7816164E-02  0.1184000E+00
        -11   -1    0    0    0    0  0.00000000000E+00  0.00000000000E+00  0.45593999997E+02  0.45594000000E+02  0.51100000000E-03 0. -1.
         11   -1    0    0    0    0 -0.00000000000E+00 -0.00000000000E+00 -0.45593999997E+02  0.45594000000E+02  0.51100000000E-03 0.  1.
         23    2    1    2    0    0  0.35527136788E-14  0.17763568394E-14 -0.35527136788E-14  0.91188000000E+02  0.91188000000E+02 0.  0.
    9900012    2    3    3    0    0 -0.22879284882E+02 -0.12367355521E+02 -0.26064664532E+02  0.54367083438E+02  0.39999998313E+02 0.  0.
         12    1    3    3    0    0  0.22879284882E+02  0.12367355521E+02  0.26064664532E+02  0.36820916562E+02  0.00000000000E+00 0. -1.
         11    1    4    4    0    0  0.28522420318E+00  0.12479651011E+01  0.47423159376E+01  0.49120596956E+01  0.51100000000E-03 0. -1.
        -11    1    4    4    0    0  0.22335646522E+01  0.17825005910E+01 -0.16026852294E+02  0.16279622666E+02  0.51100000000E-03 0.  1.
         12    1    4    4    0    0 -0.25398073738E+02 -0.15397821213E+02 -0.14780128176E+02  0.33175401076E+02  0.00000000000E+00 0. -1.
</event>
<event>
 8    1  0.2514877E-006  0.9118800E+02  0.7816164E-02  0.1184000E+00
        -11   -1    0    0    0    0  0.00000000000E+00  0.00000000000E+00  0.45593999997E+02  0.45594000000E+02  0.51100000000E-03 0.  1.
         11   -1    0    0    0    0 -0.00000000000E+00 -0.00000000000E+00 -0.45593999997E+02  0.45594000000E+02  0.51100000000E-03 0. -1.
         23    2    1    2    0    0  0.00000000000E+00  0.00000000000E+00  0.22204460493E-15  0.91188000000E+02  0.91188000000E+02 0.  0.
    9900012    2    3    3    0    0 -0.17808379601E+02 -0.32190780273E+02 -0.15475342630E+01  0.54367087724E+02  0.40000008083E+02 0.  0.
         12    1    3    3    0    0  0.17808379601E+02  0.32190780273E+02  0.15475342630E+01  0.36820912276E+02  0.00000000000E+00 0. -1.
         11    1    4    4    0    0  0.84254378815E+01 -0.14206572650E+02 -0.45501412370E+01  0.17132381489E+02  0.51100000000E-03 0. -1.
        -11    1    4    4    0    0 -0.19576801004E+02 -0.11213136339E+02 -0.68237927702E+01  0.23570102081E+02  0.51100000000E-03 0.  1.
         12    1    4    4    0    0 -0.66570164781E+01 -0.67710712841E+01  0.98263997441E+01  0.13664604153E+02  0.00000000000E+00 0. -1.
</event>
<event>
 8    1  0.2514877E-006  0.9118800E+02  0.7816164E-02  0.1184000E+00
        -11   -1    0    0    0    0  0.00000000000E+00  0.00000000000E+00  0.45593999997E+02  0.45594000000E+02  0.51100000000E-03 0.  1.
         11   -1    0    0    0    0 -0.00000000000E+00 -0.00000000000E+00 -0.45593999997E+02  0.45594000000E+02  0.51100000000E-03 0. -1.
         23    2    1    2    0    0  0.00000000000E+00 -0.17763568394E-14 -0.17763568394E-14  0.91188000000E+02  0.91188000000E+02 0.  0.
    9900012    2    3    3    0    0  0.31884136028E+02 -0.13148103183E+02  0.12896099469E+02  0.54367080279E+02  0.39999991112E+02 0.  0.
         12    1    3    3    0    0 -0.31884136028E+02  0.13148103183E+02 -0.12896099469E+02  0.36820919721E+02  0.00000000000E+00 0. -1.
         11    1    4    4    0    0 -0.36533117972E+01 -0.13121714497E+02  0.59280993363E+01  0.14854913006E+02  0.51100000000E-03 0. -1.
        -11    1    4    4    0    0  0.23583453488E+02 -0.26811111982E+01 -0.27298931905E+01  0.23891838622E+02  0.51100000000E-03 0.  1.
        -12    1    4    4    0    0  0.11953994338E+02  0.26547225120E+01  0.96978933229E+01  0.15620328651E+02  0.00000000000E+00 0.  1.
</event>
<event>
 8    1  0.2514877E-006  0.9118800E+02  0.7816164E-02  0.1184000E+00
        -11   -1    0    0    0    0  0.00000000000E+00  0.00000000000E+00  0.45593999997E+02  0.45594000000E+02  0.51100000000E-03 0. -1.
         11   -1    0    0    0    0 -0.00000000000E+00 -0.00000000000E+00 -0.45593999997E+02  0.45594000000E+02  0.51100000000E-03 0.  1.
         23    2    1    2    0    0 -0.71054273576E-14 -0.17763568394E-14 -0.44408920985E-15  0.91188000000E+02  0.91188000000E+02 0.  0.
    9900012    2    3    3    0    0  0.35588721207E+02  0.89688506879E+01  0.29635923254E+01  0.54367078783E+02  0.39999987701E+02 0.  0.
         12    1    3    3    0    0 -0.35588721207E+02 -0.89688506879E+01 -0.29635923254E+01  0.36820921217E+02  0.00000000000E+00 0. -1.
         11    1    4    4    0    0  0.16033550639E+02  0.57268319981E+01 -0.33721725011E+00  0.17028947899E+02  0.51100000000E-03 0. -1.
        -11    1    4    4    0    0  0.26024923020E+02 -0.39296740598E+01 -0.18628354364E+01  0.26385774814E+02  0.51100000000E-03 0.  1.
         12    1    4    4    0    0 -0.64697524512E+01  0.71716927496E+01  0.51636450119E+01  0.10952356070E+02  0.00000000000E+00 0. -1.
</event>
<event>
 8    1  0.2514877E-006  0.9118800E+02  0.7816164E-02  0.1184000E+00
        -11   -1    0    0    0    0  0.00000000000E+00  0.00000000000E+00  0.45593999997E+02  0.45594000000E+02  0.51100000000E-03 0.  1.
         11   -1    0    0    0    0 -0.00000000000E+00 -0.00000000000E+00 -0.45593999997E+02  0.45594000000E+02  0.51100000000E-03 0. -1.
         23    2    1    2    0    0  0.35527136788E-14  0.00000000000E+00  0.35527136788E-14  0.91188000000E+02  0.91188000000E+02 0.  0.
    9900012    2    3    3    0    0  0.15937645079E+02 -0.24757359005E+02 -0.22109843290E+02  0.54367074892E+02  0.39999978830E+02 0.  0.
        -12    1    3    3    0    0 -0.15937645079E+02  0.24757359005E+02  0.22109843290E+02  0.36820925108E+02  0.00000000000E+00 0.  1.
         11    1    4    4    0    0  0.15890682708E+01 -0.29692077547E+00 -0.65368640399E+01  0.67337873187E+01  0.51100000000E-03 0.  1.
        -11    1    4    4    0    0  0.10303999308E+02 -0.12632640684E+02 -0.26445400735E+02  0.31066303814E+02  0.51100000000E-03 0. -1.
         12    1    4    4    0    0  0.40445775004E+01 -0.11827797545E+02  0.10872421485E+02  0.16566983759E+02  0.00000000000E+00 0. -1.
</event>
<event>
 8    1  0.2514877E-006  0.9118800E+02  0.7816164E-02  0.1184000E+00
        -11   -1    0    0    0    0  0.00000000000E+00  0.00000000000E+00  0.45593999997E+02  0.45594000000E+02  0.51100000000E-03 0. -1.
         11   -1    0    0    0    0 -0.00000000000E+00 -0.00000000000E+00 -0.45593999997E+02  0.45594000000E+02  0.51100000000E-03 0.  1.
         23    2    1    2    0    0 -0.35527136788E-14  0.00000000000E+00  0.00000000000E+00  0.91188000000E+02  0.91188000000E+02 0.  0.
    9900012    2    3    3    0    0 -0.28446518043E+02  0.21011333729E+02  0.10251808593E+02  0.54367080494E+02  0.39999991603E+02 0.  0.
         12    1    3    3    0    0  0.28446518043E+02 -0.21011333729E+02 -0.10251808593E+02  0.36820919506E+02  0.00000000000E+00 0. -1.
         11    1    4    4    0    0 -0.17274825126E+01 -0.13256324677E+01  0.14503890727E+02  0.14666435959E+02  0.51100000000E-03 0. -1.
        -11    1    4    4    0    0 -0.24407920700E+02  0.16571520201E+02  0.35646952306E+01  0.29716475683E+02  0.51100000000E-03 0.  1.
        -12    1    4    4    0    0 -0.23111148295E+01  0.57654459964E+01 -0.78167773648E+01  0.99841688519E+01  0.00000000000E+00 0.  1.
</event>
<event>
 8    1  0.2514877E-006  0.9118800E+02  0.7816164E-02  0.1184000E+00
        -11   -1    0    0    0    0  0.00000000000E+00  0.00000000000E+00  0.45593999997E+02  0.45594000000E+02  0.51100000000E-03 0.  1.
         11   -1    0    0    0    0 -0.00000000000E+00 -0.00000000000E+00 -0.45593999997E+02  0.45594000000E+02  0.51100000000E-03 0. -1.
         23    2    1    2    0    0  0.00000000000E+00  0.00000000000E+00  0.00000000000E+00  0.91188000000E+02  0.91188000000E+02 0.  0.
    9900012    2    3    3    0    0 -0.28548834413E+02  0.19900778453E+02  0.12029270250E+02  0.54367078337E+02  0.39999986685E+02 0.  0.
         12    1    3    3    0    0  0.28548834413E+02 -0.19900778453E+02 -0.12029270250E+02  0.36820921663E+02  0.00000000000E+00 0. -1.
         11    1    4    4    0    0  0.51945737645E+01  0.12371806687E+01 -0.47981370458E+01  0.71788809694E+01  0.51100000000E-03 0. -1.
        -11    1    4    4    0    0 -0.25033207534E+02  0.22848033518E+02  0.16030299671E+02  0.37492194159E+02  0.51100000000E-03 0.  1.
         12    1    4    4    0    0 -0.87102006436E+01 -0.41844357335E+01  0.79710762514E+00  0.96960032089E+01  0.00000000000E+00 0. -1.
</event>
<event>
 8    1  0.2514877E-006  0.9118800E+02  0.7816164E-02  0.1184000E+00
        -11   -1    0    0    0    0  0.00000000000E+00  0.00000000000E+00  0.45593999997E+02  0.45594000000E+02  0.51100000000E-03 0. -1.
         11   -1    0    0    0    0 -0.00000000000E+00 -0.00000000000E+00 -0.45593999997E+02  0.45594000000E+02  0.51100000000E-03 0.  1.
         23    2    1    2    0    0  0.35527136788E-14  0.71054273576E-14  0.00000000000E+00  0.91188000000E+02  0.91188000000E+02 0.  0.
    9900012    2    3    3    0    0 -0.14483175330E+02 -0.29115355345E+02 -0.17271638985E+02  0.54367139095E+02  0.40000125196E+02 0.  0.
         12    1    3    3    0    0  0.14483175330E+02  0.29115355345E+02  0.17271638985E+02  0.36820860905E+02  0.00000000000E+00 0. -1.
         11    1    4    4    0    0 -0.60431104249E+01  0.63925317156E+01 -0.18078110934E+01  0.89806361998E+01  0.51100000000E-03 0. -1.
        -11    1    4    4    0    0 -0.58913679410E+01  0.65380726800E+00 -0.47180067130E+01  0.75759664575E+01  0.51100000000E-03 0.  1.
        -12    1    4    4    0    0 -0.25486969639E+01 -0.36161694329E+02 -0.10745821179E+02  0.37810536438E+02  0.00000000000E+00 0.  1.
</event>
<event>
 8    1  0.2514877E-006  0.9118800E+02  0.7816164E-02  0.1184000E+00
        -11   -1    0    0    0    0  0.00000000000E+00  0.00000000000E+00  0.45593999997E+02  0.45594000000E+02  0.51100000000E-03 0.  1.
         11   -1    0    0    0    0 -0.00000000000E+00 -0.00000000000E+00 -0.45593999997E+02  0.45594000000E+02  0.51100000000E-03 0. -1.
         23    2    1    2    0    0  0.00000000000E+00  0.00000000000E+00  0.00000000000E+00  0.91188000000E+02  0.91188000000E+02 0.  0.
    9900012    2    3    3    0    0 -0.25024028851E+02 -0.17579392289E+02 -0.20507124847E+02  0.54367092587E+02  0.40000019172E+02 0.  0.
        -12    1    3    3    0    0  0.25024028851E+02  0.17579392289E+02  0.20507124847E+02  0.36820907413E+02  0.00000000000E+00 0.  1.
         11    1    4    4    0    0 -0.27870713073E+01 -0.67507524202E+01 -0.16872245458E+01  0.74958089383E+01  0.51100000000E-03 0. -1.
        -11    1    4    4    0    0 -0.28142195635E+02 -0.15965811064E+01 -0.21662005490E+02  0.35549609400E+02  0.51100000000E-03 0.  1.
        -12    1    4    4    0    0  0.59052380913E+01 -0.92320587619E+01  0.28421051884E+01  0.11321674249E+02  0.00000000000E+00 0.  1.
</event>
<event>
 8    1  0.2514877E-006  0.9118800E+02  0.7816164E-02  0.1184000E+00
        -11   -1    0    0    0    0  0.00000000000E+00  0.00000000000E+00  0.45593999997E+02  0.45594000000E+02  0.51100000000E-03 0. -1.
         11   -1    0    0    0    0 -0.00000000000E+00 -0.00000000000E+00 -0.45593999997E+02  0.45594000000E+02  0.51100000000E-03 0.  1.
         23    2    1    2    0    0  0.00000000000E+00  0.35527136788E-14  0.00000000000E+00  0.91188000000E+02  0.91188000000E+02 0.  0.
    9900012    2    3    3    0    0  0.17800851397E+02 -0.30724172350E+02  0.97434957803E+01  0.54367071344E+02  0.39999970742E+02 0.  0.
         12    1    3    3    0    0 -0.17800851397E+02  0.30724172350E+02 -0.97434957803E+01  0.36820928656E+02  0.00000000000E+00 0. -1.
         11    1    4    4    0    0 -0.53719989863E+01  0.50529812473E+01  0.55513245493E+01  0.92308286252E+01  0.51100000000E-03 0. -1.
        -11    1    4    4    0    0  0.24673515168E+02 -0.33975063549E+02  0.56611405409E+01  0.42369043019E+02  0.51100000000E-03 0.  1.
        -12    1    4    4    0    0 -0.15006647847E+01 -0.18020900493E+01 -0.14689693100E+01  0.27671996993E+01  0.00000000000E+00 0.  1.
</event>
<event>
 8    1  0.2514877E-006  0.9118800E+02  0.7816164E-02  0.1184000E+00
        -11   -1    0    0    0    0  0.00000000000E+00  0.00000000000E+00  0.45593999997E+02  0.45594000000E+02  0.51100000000E-03 0. -1.
         11   -1    0    0    0    0 -0.00000000000E+00 -0.00000000000E+00 -0.45593999997E+02  0.45594000000E+02  0.51100000000E-03 0.  1.
         23    2    1    2    0    0  0.35527136788E-14 -0.35527136788E-14 -0.17763568394E-14  0.91188000000E+02  0.91188000000E+02 0.  0.
    9900012    2    3    3    0    0  0.24062378930E+02 -0.27299012301E+02 -0.56164929549E+01  0.54367093636E+02  0.40000021561E+02 0.  0.
        -12    1    3    3    0    0 -0.24062378930E+02  0.27299012301E+02  0.56164929549E+01  0.36820906364E+02  0.00000000000E+00 0.  1.
         11    1    4    4    0    0  0.23208713124E+01  0.25253332934E+01 -0.38681430656E+01  0.51697468922E+01  0.51100000000E-03 0. -1.
        -11    1    4    4    0    0  0.47112140799E+01 -0.33445421290E+01  0.13152564945E+02  0.14365634864E+02  0.51100000000E-03 0.  1.
         12    1    4    4    0    0  0.17030293538E+02 -0.26479803465E+02 -0.14900914834E+02  0.34831711879E+02  0.00000000000E+00 0. -1.
</event>
<event>
 8    1  0.2514877E-006  0.9118800E+02  0.7816164E-02  0.1184000E+00
        -11   -1    0    0    0    0  0.00000000000E+00  0.00000000000E+00  0.45593999997E+02  0.45594000000E+02  0.51100000000E-03 0.  1.
         11   -1    0    0    0    0 -0.00000000000E+00 -0.00000000000E+00 -0.45593999997E+02  0.45594000000E+02  0.51100000000E-03 0. -1.
         23    2    1    2    0    0  0.00000000000E+00  0.00000000000E+00  0.00000000000E+00  0.91188000000E+02  0.91188000000E+02 0.  0.
    9900012    2    3    3    0    0  0.30015845514E+02 -0.10732871295E+02  0.18429137484E+02  0.54367100818E+02  0.40000037936E+02 0.  0.
         12    1    3    3    0    0 -0.30015845514E+02  0.10732871295E+02 -0.18429137484E+02  0.36820899182E+02  0.00000000000E+00 0. -1.
         11    1    4    4    0    0 -0.23646331716E+01  0.23163089932E-01 -0.31860828730E+01  0.39677639672E+01  0.51100000000E-03 0. -1.
        -11    1    4    4    0    0  0.23561750593E+02  0.12322700147E+01  0.25778209349E+02  0.34945538454E+02  0.51100000000E-03 0.  1.
        -12    1    4    4    0    0  0.88187280927E+01 -0.11988304399E+02 -0.41629889916E+01  0.15453798397E+02  0.00000000000E+00 0.  1.
</event>
<event>
 8    1  0.2514877E-006  0.9118800E+02  0.7816164E-02  0.1184000E+00
        -11   -1    0    0    0    0  0.00000000000E+00  0.00000000000E+00  0.45593999997E+02  0.45594000000E+02  0.51100000000E-03 0.  1.
         11   -1    0    0    0    0 -0.00000000000E+00 -0.00000000000E+00 -0.45593999997E+02  0.45594000000E+02  0.51100000000E-03 0. -1.
         23    2    1    2    0    0 -0.35527136788E-14  0.00000000000E+00  0.00000000000E+00  0.91188000000E+02  0.91188000000E+02 0.  0.
    9900012    2    3    3    0    0  0.15340034101E+02  0.78222563835E+01 -0.32546506635E+02  0.54367089701E+02  0.40000012591E+02 0.  0.
        -12    1    3    3    0    0 -0.15340034101E+02 -0.78222563835E+01  0.32546506635E+02  0.36820910299E+02  0.00000000000E+00 0.  1.
         11    1    4    4    0    0 -0.10666256013E+01  0.15801570601E+01 -0.15394962919E+02  0.15512558462E+02  0.51100000000E-03 0. -1.
        -11    1    4    4    0    0 -0.23696754369E+01  0.68202078543E+01  0.57529804174E+01  0.92318676765E+01  0.51100000000E-03 0.  1.
         12    1    4    4    0    0  0.18776335139E+02 -0.57810853088E+00 -0.22904524133E+02  0.29622663562E+02  0.00000000000E+00 0. -1.
</event>
<event>
 8    1  0.2514877E-006  0.9118800E+02  0.7816164E-02  0.1184000E+00
        -11   -1    0    0    0    0  0.00000000000E+00  0.00000000000E+00  0.45593999997E+02  0.45594000000E+02  0.51100000000E-03 0.  1.
         11   -1    0    0    0    0 -0.00000000000E+00 -0.00000000000E+00 -0.45593999997E+02  0.45594000000E+02  0.51100000000E-03 0. -1.
         23    2    1    2    0    0  0.35527136788E-14  0.00000000000E+00  0.00000000000E+00  0.91188000000E+02  0.91188000000E+02 0.  0.
    9900012    2    3    3    0    0  0.11499218406E+02 -0.16443473779E+02 -0.30873297922E+02  0.54367076893E+02  0.39999983393E+02 0.  0.
        -12    1    3    3    0    0 -0.11499218406E+02  0.16443473779E+02  0.30873297922E+02  0.36820923107E+02  0.00000000000E+00 0.  1.
         11    1    4    4    0    0  0.17579449186E+02 -0.14490792982E+02 -0.24843369574E+02  0.33707760634E+02  0.51100000000E-03 0.  1.
        -11    1    4    4    0    0 -0.30730557843E+01  0.30861333498E+01 -0.11709313154E+02  0.12493034287E+02  0.51100000000E-03 0. -1.
        -12    1    4    4    0    0 -0.30071749962E+01 -0.50388141469E+01  0.56793848059E+01  0.81662819715E+01  0.00000000000E+00 0.  1.
</event>
<event>
 8    1  0.2514877E-006  0.9118800E+02  0.7816164E-02  0.1184000E+00
        -11   -1    0    0    0    0  0.00000000000E+00  0.00000000000E+00  0.45593999997E+02  0.45594000000E+02  0.51100000000E-03 0.  1.
         11   -1    0    0    0    0 -0.00000000000E+00 -0.00000000000E+00 -0.45593999997E+02  0.45594000000E+02  0.51100000000E-03 0. -1.
         23    2    1    2    0    0  0.00000000000E+00  0.35527136788E-14 -0.35527136788E-14  0.91188000000E+02  0.91188000000E+02 0.  0.
    9900012    2    3    3    0    0  0.12734284670E+02 -0.19353034969E+02  0.28619503395E+02  0.54367109963E+02  0.40000058783E+02 0.  0.
         12    1    3    3    0    0 -0.12734284670E+02  0.19353034969E+02 -0.28619503395E+02  0.36820890037E+02  0.00000000000E+00 0. -1.
         11    1    4    4    0    0  0.19940532598E+01 -0.34523044013E+01  0.30847907919E+02  0.31104470375E+02  0.51100000000E-03 0. -1.
        -11    1    4    4    0    0  0.83342576778E+01 -0.16668839972E+02  0.15688487213E+01  0.18702175372E+02  0.51100000000E-03 0.  1.
         12    1    4    4    0    0  0.24059737324E+01  0.76810940465E+00 -0.37972532455E+01  0.45604642164E+01  0.00000000000E+00 0. -1.
</event>
<event>
 8    1  0.2514877E-006  0.9118800E+02  0.7816164E-02  0.1184000E+00
        -11   -1    0    0    0    0  0.00000000000E+00  0.00000000000E+00  0.45593999997E+02  0.45594000000E+02  0.51100000000E-03 0. -1.
         11   -1    0    0    0    0 -0.00000000000E+00 -0.00000000000E+00 -0.45593999997E+02  0.45594000000E+02  0.51100000000E-03 0.  1.
         23    2    1    2    0    0  0.35527136788E-14 -0.17763568394E-14  0.35527136788E-14  0.91188000000E+02  0.91188000000E+02 0.  0.
    9900012    2    3    3    0    0 -0.27508199224E+02  0.13295146246E+02  0.20550361298E+02  0.54367091705E+02  0.40000017159E+02 0.  0.
        -12    1    3    3    0    0  0.27508199224E+02 -0.13295146246E+02 -0.20550361298E+02  0.36820908295E+02  0.00000000000E+00 0.  1.
         11    1    4    4    0    0 -0.14611081682E+01  0.44934621815E+01 -0.22013495219E+01  0.52126748829E+01  0.51100000000E-03 0.  1.
        -11    1    4    4    0    0  0.74463628283E+00 -0.75973301707E+01  0.14952630999E+02  0.16788540228E+02  0.51100000000E-03 0. -1.
        -12    1    4    4    0    0 -0.26791727338E+02  0.16399014235E+02  0.77990798206E+01  0.32365876594E+02  0.00000000000E+00 0.  1.
</event>
<event>
 8    1  0.2514877E-006  0.9118800E+02  0.7816164E-02  0.1184000E+00
        -11   -1    0    0    0    0  0.00000000000E+00  0.00000000000E+00  0.45593999997E+02  0.45594000000E+02  0.51100000000E-03 0. -1.
         11   -1    0    0    0    0 -0.00000000000E+00 -0.00000000000E+00 -0.45593999997E+02  0.45594000000E+02  0.51100000000E-03 0.  1.
         23    2    1    2    0    0 -0.35527136788E-14 -0.35527136788E-14  0.00000000000E+00  0.91188000000E+02  0.91188000000E+02 0.  0.
    9900012    2    3    3    0    0  0.22649731950E+02 -0.24892420889E+02  0.14937805356E+02  0.54367068398E+02  0.39999964028E+02 0.  0.
        -12    1    3    3    0    0 -0.22649731950E+02  0.24892420889E+02 -0.14937805356E+02  0.36820931602E+02  0.00000000000E+00 0.  1.
         11    1    4    4    0    0  0.23656201608E+02 -0.34542076650E+01  0.76644932916E+01  0.25105614568E+02  0.51100000000E-03 0.  1.
        -11    1    4    4    0    0 -0.19475893940E+01 -0.19567208762E+02  0.12724471383E+02  0.23421804701E+02  0.51100000000E-03 0. -1.
        -12    1    4    4    0    0  0.94111973573E+00 -0.18710044619E+01 -0.54511593181E+01  0.58396491303E+01  0.00000000000E+00 0.  1.
</event>
<event>
 8    1  0.2514877E-006  0.9118800E+02  0.7816164E-02  0.1184000E+00
        -11   -1    0    0    0    0  0.00000000000E+00  0.00000000000E+00  0.45593999997E+02  0.45594000000E+02  0.51100000000E-03 0.  1.
         11   -1    0    0    0    0 -0.00000000000E+00 -0.00000000000E+00 -0.45593999997E+02  0.45594000000E+02  0.51100000000E-03 0. -1.
         23    2    1    2    0    0  0.00000000000E+00  0.00000000000E+00  0.00000000000E+00  0.91188000000E+02  0.91188000000E+02 0.  0.
    9900012    2    3    3    0    0  0.35215519157E+02  0.94346307214E+01  0.51608586162E+01  0.54367088713E+02  0.40000010338E+02 0.  0.
        -12    1    3    3    0    0 -0.35215519157E+02 -0.94346307214E+01 -0.51608586162E+01  0.36820911287E+02  0.00000000000E+00 0.  1.
         11    1    4    4    0    0  0.39749466610E+02  0.49097021520E+01  0.49340095557E+01  0.40354302392E+02  0.51100000000E-03 0. -1.
        -11    1    4    4    0    0  0.15302919677E+01  0.21526578245E+01  0.51912532545E+01  0.58245033976E+01  0.51100000000E-03 0.  1.
         12    1    4    4    0    0 -0.60642394198E+01  0.23722707449E+01 -0.49644041939E+01  0.81882829231E+01  0.00000000000E+00 0. -1.
</event>
<event>
 8    1  0.2514877E-006  0.9118800E+02  0.7816164E-02  0.1184000E+00
        -11   -1    0    0    0    0  0.00000000000E+00  0.00000000000E+00  0.45593999997E+02  0.45594000000E+02  0.51100000000E-03 0. -1.
         11   -1    0    0    0    0 -0.00000000000E+00 -0.00000000000E+00 -0.45593999997E+02  0.45594000000E+02  0.51100000000E-03 0.  1.
         23    2    1    2    0    0  0.66613381478E-15  0.35527136788E-14  0.00000000000E+00  0.91188000000E+02  0.91188000000E+02 0.  0.
    9900012    2    3    3    0    0 -0.19807627349E+01 -0.28670684349E+02 -0.23018437627E+02  0.54367081586E+02  0.39999994093E+02 0.  0.
         12    1    3    3    0    0  0.19807627349E+01  0.28670684349E+02  0.23018437627E+02  0.36820918414E+02  0.00000000000E+00 0. -1.
         11    1    4    4    0    0 -0.46557425219E+01  0.58657121418E+01 -0.84714916641E+01  0.11307019441E+02  0.51100000000E-03 0. -1.
        -11    1    4    4    0    0  0.84455573344E+01 -0.38309913501E+01 -0.28976194859E+01  0.97159730526E+01  0.51100000000E-03 0.  1.
        -12    1    4    4    0    0 -0.57705775474E+01 -0.30705405141E+02 -0.11649326477E+02  0.33344089093E+02  0.00000000000E+00 0.  1.
</event>
<event>
 8    1  0.2514877E-006  0.9118800E+02  0.7816164E-02  0.1184000E+00
        -11   -1    0    0    0    0  0.00000000000E+00  0.00000000000E+00  0.45593999997E+02  0.45594000000E+02  0.51100000000E-03 0. -1.
         11   -1    0    0    0    0 -0.00000000000E+00 -0.00000000000E+00 -0.45593999997E+02  0.45594000000E+02  0.51100000000E-03 0.  1.
         23    2    1    2    0    0  0.35527136788E-14 -0.33306690739E-15  0.00000000000E+00  0.91188000000E+02  0.91188000000E+02 0.  0.
    9900012    2    3    3    0    0 -0.30704417791E+02 -0.67912652361E+00 -0.20311512111E+02  0.54367081910E+02  0.39999994831E+02 0.  0.
         12    1    3    3    0    0  0.30704417791E+02  0.67912652361E+00  0.20311512111E+02  0.36820918090E+02  0.00000000000E+00 0. -1.
         11    1    4    4    0    0 -0.21140808615E+02  0.91849665896E+01 -0.73821605860E+01  0.24203175315E+02  0.51100000000E-03 0. -1.
        -11    1    4    4    0    0 -0.15608417704E+02 -0.13115980579E+02 -0.95684669577E+01  0.22521261287E+02  0.51100000000E-03 0.  1.
         12    1    4    4    0    0  0.60448085281E+01  0.32518874656E+01 -0.33608845676E+01  0.76426453082E+01  0.00000000000E+00 0. -1.
</event>
<event>
 8    1  0.2514877E-006  0.9118800E+02  0.7816164E-02  0.1184000E+00
        -11   -1    0    0    0    0  0.00000000000E+00  0.00000000000E+00  0.45593999997E+02  0.45594000000E+02  0.51100000000E-03 0.  1.
         11   -1    0    0    0    0 -0.00000000000E+00 -0.00000000000E+00 -0.45593999997E+02  0.45594000000E+02  0.51100000000E-03 0. -1.
         23    2    1    2    0    0 -0.35527136788E-14  0.88817841970E-15  0.35527136788E-14  0.91188000000E+02  0.91188000000E+02 0.  0.
    9900012    2    3    3    0    0 -0.27451083324E+02  0.52313495951E+01  0.23976071607E+02  0.54367068399E+02  0.39999964030E+02 0.  0.
         12    1    3    3    0    0  0.27451083324E+02 -0.52313495951E+01 -0.23976071607E+02  0.36820931601E+02  0.00000000000E+00 0. -1.
         11    1    4    4    0    0 -0.26678263392E+02  0.13553679858E+02  0.20464270745E+02  0.36252149628E+02  0.51100000000E-03 0.  1.
        -11    1    4    4    0    0 -0.74800302775E+01 -0.70022493856E+01 -0.37189026286E+00  0.10252836292E+02  0.51100000000E-03 0. -1.
        -12    1    4    4    0    0  0.67072103454E+01 -0.13200808778E+01  0.38836911258E+01  0.78620824787E+01  0.00000000000E+00 0.  1.
</event>
<event>
 8    1  0.2514877E-006  0.9118800E+02  0.7816164E-02  0.1184000E+00
        -11   -1    0    0    0    0  0.00000000000E+00  0.00000000000E+00  0.45593999997E+02  0.45594000000E+02  0.51100000000E-03 0.  1.
         11   -1    0    0    0    0 -0.00000000000E+00 -0.00000000000E+00 -0.45593999997E+02  0.45594000000E+02  0.51100000000E-03 0. -1.
         23    2    1    2    0    0  0.71054273576E-14  0.00000000000E+00  0.88817841970E-15  0.91188000000E+02  0.91188000000E+02 0.  0.
    9900012    2    3    3    0    0 -0.32393324649E+02  0.17342769041E+02  0.23833995927E+01  0.54367085923E+02  0.40000003980E+02 0.  0.
        -12    1    3    3    0    0  0.32393324649E+02 -0.17342769041E+02 -0.23833995927E+01  0.36820914077E+02  0.00000000000E+00 0.  1.
         11    1    4    4    0    0 -0.26079257655E+02  0.18608838572E+02 -0.19956469114E+01  0.32099831147E+02  0.51100000000E-03 0. -1.
        -11    1    4    4    0    0 -0.91766780999E+01  0.68697038667E+01  0.67754602366E+01  0.13315821937E+02  0.51100000000E-03 0.  1.
        -12    1    4    4    0    0  0.28626111058E+01 -0.81357733971E+01 -0.23964137326E+01  0.89514328400E+01  0.00000000000E+00 0.  1.
</event>
<event>
 8    1  0.2514877E-006  0.9118800E+02  0.7816164E-02  0.1184000E+00
        -11   -1    0    0    0    0  0.00000000000E+00  0.00000000000E+00  0.45593999997E+02  0.45594000000E+02  0.51100000000E-03 0.  1.
         11   -1    0    0    0    0 -0.00000000000E+00 -0.00000000000E+00 -0.45593999997E+02  0.45594000000E+02  0.51100000000E-03 0. -1.
         23    2    1    2    0    0 -0.88817841970E-15 -0.17763568394E-14 -0.14210854715E-13  0.91188000000E+02  0.91188000000E+02 0.  0.
    9900012    2    3    3    0    0  0.40309389718E+01  0.13653498764E+02  0.33957530779E+02  0.54367076681E+02  0.39999982909E+02 0.  0.
         12    1    3    3    0    0 -0.40309389718E+01 -0.13653498764E+02 -0.33957530779E+02  0.36820923319E+02  0.00000000000E+00 0. -1.
         11    1    4    4    0    0 -0.27214513599E+01 -0.32451611658E+01 -0.40536867243E+01  0.58625715191E+01  0.51100000000E-03 0. -1.
        -11    1    4    4    0    0 -0.57285915413E+01  0.47017559816E+01  0.26697224710E+02  0.27706769531E+02  0.51100000000E-03 0.  1.
         12    1    4    4    0    0  0.12480981873E+02  0.12196903948E+02  0.11313992793E+02  0.20797735630E+02  0.00000000000E+00 0. -1.
</event>
<event>
 8    1  0.2514877E-006  0.9118800E+02  0.7816164E-02  0.1184000E+00
        -11   -1    0    0    0    0  0.00000000000E+00  0.00000000000E+00  0.45593999997E+02  0.45594000000E+02  0.51100000000E-03 0.  1.
         11   -1    0    0    0    0 -0.00000000000E+00 -0.00000000000E+00 -0.45593999997E+02  0.45594000000E+02  0.51100000000E-03 0. -1.
         23    2    1    2    0    0  0.00000000000E+00  0.00000000000E+00  0.00000000000E+00  0.91188000000E+02  0.91188000000E+02 0.  0.
    9900012    2    3    3    0    0  0.20024904011E+02 -0.22735694728E+02 -0.20925378366E+02  0.54367081283E+02  0.39999993401E+02 0.  0.
        -12    1    3    3    0    0 -0.20024904011E+02  0.22735694728E+02  0.20925378366E+02  0.36820918717E+02  0.00000000000E+00 0.  1.
         11    1    4    4    0    0  0.33732165300E+01  0.55284768522E-01 -0.47872260898E+01  0.58565501842E+01  0.51100000000E-03 0. -1.
        -11    1    4    4    0    0 -0.54667670691E+01 -0.20159207636E+02 -0.15873529832E+02  0.26234483877E+02  0.51100000000E-03 0.  1.
         12    1    4    4    0    0  0.22118454550E+02 -0.26317718603E+01 -0.26462244450E+00  0.22276047222E+02  0.00000000000E+00 0. -1.
</event>
<event>
 8    1  0.2514877E-006  0.9118800E+02  0.7816164E-02  0.1184000E+00
        -11   -1    0    0    0    0  0.00000000000E+00  0.00000000000E+00  0.45593999997E+02  0.45594000000E+02  0.51100000000E-03 0. -1.
         11   -1    0    0    0    0 -0.00000000000E+00 -0.00000000000E+00 -0.45593999997E+02  0.45594000000E+02  0.51100000000E-03 0.  1.
         23    2    1    2    0    0  0.00000000000E+00  0.17763568394E-14  0.00000000000E+00  0.91188000000E+02  0.91188000000E+02 0.  0.
    9900012    2    3    3    0    0  0.32023627075E+02  0.12302056224E+02 -0.13376342335E+02  0.54367084577E+02  0.40000000909E+02 0.  0.
         12    1    3    3    0    0 -0.32023627075E+02 -0.12302056224E+02  0.13376342335E+02  0.36820915423E+02  0.00000000000E+00 0. -1.
         11    1    4    4    0    0 -0.36618608601E+01  0.36303295757E+01 -0.17115394241E+01  0.54330364667E+01  0.51100000000E-03 0. -1.
        -11    1    4    4    0    0  0.29809216309E+02 -0.38283352997E+01  0.11729913969E+01  0.30076925328E+02  0.51100000000E-03 0.  1.
        -12    1    4    4    0    0  0.58762716262E+01  0.12500061948E+02 -0.12837794308E+02  0.18857122782E+02  0.00000000000E+00 0.  1.
</event>
<event>
 8    1  0.2514877E-006  0.9118800E+02  0.7816164E-02  0.1184000E+00
        -11   -1    0    0    0    0  0.00000000000E+00  0.00000000000E+00  0.45593999997E+02  0.45594000000E+02  0.51100000000E-03 0.  1.
         11   -1    0    0    0    0 -0.00000000000E+00 -0.00000000000E+00 -0.45593999997E+02  0.45594000000E+02  0.51100000000E-03 0. -1.
         23    2    1    2    0    0 -0.35527136788E-14 -0.17763568394E-14  0.00000000000E+00  0.91188000000E+02  0.91188000000E+02 0.  0.
    9900012    2    3    3    0    0  0.29597806942E+02 -0.13730732633E+02  0.17065081683E+02  0.54367079218E+02  0.39999988693E+02 0.  0.
         12    1    3    3    0    0 -0.29597806942E+02  0.13730732633E+02 -0.17065081683E+02  0.36820920782E+02  0.00000000000E+00 0. -1.
         11    1    4    4    0    0  0.23217080714E+02  0.41765852072E+01  0.46938092413E+01  0.24052204604E+02  0.51100000000E-03 0. -1.
        -11    1    4    4    0    0  0.68825102639E+01 -0.55666332249E+01  0.15250048606E+02  0.17632933271E+02  0.51100000000E-03 0.  1.
         12    1    4    4    0    0 -0.50178403573E+00 -0.12340684616E+02 -0.28787761651E+01  0.12681941342E+02  0.00000000000E+00 0. -1.
</event>
<event>
 8    1  0.2514877E-006  0.9118800E+02  0.7816164E-02  0.1184000E+00
        -11   -1    0    0    0    0  0.00000000000E+00  0.00000000000E+00  0.45593999997E+02  0.45594000000E+02  0.51100000000E-03 0. -1.
         11   -1    0    0    0    0 -0.00000000000E+00 -0.00000000000E+00 -0.45593999997E+02  0.45594000000E+02  0.51100000000E-03 0.  1.
         23    2    1    2    0    0 -0.35527136788E-14  0.00000000000E+00  0.00000000000E+00  0.91188000000E+02  0.91188000000E+02 0.  0.
    9900012    2    3    3    0    0  0.23887245833E+02  0.26574605186E+02 -0.88864925645E+01  0.54367083330E+02  0.39999998068E+02 0.  0.
        -12    1    3    3    0    0 -0.23887245833E+02 -0.26574605186E+02  0.88864925645E+01  0.36820916670E+02  0.00000000000E+00 0.  1.
         11    1    4    4    0    0  0.25662268379E+02  0.15164819734E+02 -0.76179215536E+01  0.30766158437E+02  0.51100000000E-03 0.  1.
        -11    1    4    4    0    0  0.84247151473E+01  0.58270294346E+01 -0.49872812578E+01  0.11393115112E+02  0.51100000000E-03 0. -1.
         12    1    4    4    0    0 -0.10199737693E+02  0.55827560178E+01  0.37187102468E+01  0.12207809781E+02  0.00000000000E+00 0. -1.
</event>
<event>
 8    1  0.2514877E-006  0.9118800E+02  0.7816164E-02  0.1184000E+00
        -11   -1    0    0    0    0  0.00000000000E+00  0.00000000000E+00  0.45593999997E+02  0.45594000000E+02  0.51100000000E-03 0. -1.
         11   -1    0    0    0    0 -0.00000000000E+00 -0.00000000000E+00 -0.45593999997E+02  0.45594000000E+02  0.51100000000E-03 0.  1.
         23    2    1    2    0    0  0.88817841970E-15 -0.88817841970E-15  0.00000000000E+00  0.91188000000E+02  0.91188000000E+02 0.  0.
    9900012    2    3    3    0    0  0.76779274077E+01  0.14626280271E+01 -0.35981803164E+02  0.54367081910E+02  0.39999994830E+02 0.  0.
         12    1    3    3    0    0 -0.76779274077E+01 -0.14626280271E+01  0.35981803164E+02  0.36820918090E+02  0.00000000000E+00 0. -1.
         11    1    4    4    0    0  0.20980185498E+01  0.73235357004E+00  0.25954234858E+01  0.34167597104E+01  0.51100000000E-03 0. -1.
        -11    1    4    4    0    0  0.60156556710E+01 -0.15689942658E+02 -0.18070370030E+02  0.24675913095E+02  0.51100000000E-03 0.  1.
         12    1    4    4    0    0 -0.43574681299E+00  0.16420217115E+02 -0.20506856620E+02  0.26274409105E+02  0.00000000000E+00 0. -1.
</event>
<event>
 8    1  0.2514877E-006  0.9118800E+02  0.7816164E-02  0.1184000E+00
        -11   -1    0    0    0    0  0.00000000000E+00  0.00000000000E+00  0.45593999997E+02  0.45594000000E+02  0.51100000000E-03 0.  1.
         11   -1    0    0    0    0 -0.00000000000E+00 -0.00000000000E+00 -0.45593999997E+02  0.45594000000E+02  0.51100000000E-03 0. -1.
         23    2    1    2    0    0  0.00000000000E+00  0.35527136788E-14  0.00000000000E+00  0.91188000000E+02  0.91188000000E+02 0.  0.
    9900012    2    3    3    0    0 -0.77760660486E+01 -0.23272588307E+02  0.27453667640E+02  0.54367021787E+02  0.39999857767E+02 0.  0.
         12    1    3    3    0    0  0.77760660486E+01  0.23272588307E+02 -0.27453667640E+02  0.36820978213E+02  0.00000000000E+00 0. -1.
         11    1    4    4    0    0  0.48493157225E+01  0.28350312200E+01  0.78392587934E+01  0.96440263213E+01  0.51100000000E-03 0. -1.
        -11    1    4    4    0    0 -0.18022401497E+02 -0.83572666632E+01  0.35472318181E+01  0.20180032597E+02  0.51100000000E-03 0.  1.
         12    1    4    4    0    0  0.53970197255E+01 -0.17750352864E+02  0.16067177028E+02  0.24542962868E+02  0.00000000000E+00 0. -1.
</event>
<event>
 8    1  0.2514877E-006  0.9118800E+02  0.7816164E-02  0.1184000E+00
        -11   -1    0    0    0    0  0.00000000000E+00  0.00000000000E+00  0.45593999997E+02  0.45594000000E+02  0.51100000000E-03 0.  1.
         11   -1    0    0    0    0 -0.00000000000E+00 -0.00000000000E+00 -0.45593999997E+02  0.45594000000E+02  0.51100000000E-03 0. -1.
         23    2    1    2    0    0  0.00000000000E+00 -0.17763568394E-14  0.00000000000E+00  0.91188000000E+02  0.91188000000E+02 0.  0.
    9900012    2    3    3    0    0  0.34355486285E+02  0.11327309068E+02 -0.68681980191E+01  0.54367088650E+02  0.40000010195E+02 0.  0.
         12    1    3    3    0    0 -0.34355486285E+02 -0.11327309068E+02  0.68681980191E+01  0.36820911350E+02  0.00000000000E+00 0. -1.
         11    1    4    4    0    0  0.23986834088E+02 -0.28073129121E+01  0.48007430851E+00  0.24155324195E+02  0.51100000000E-03 0. -1.
        -11    1    4    4    0    0  0.12988929684E+02  0.18116549674E+02 -0.10545517196E+01  0.22316669689E+02  0.51100000000E-03 0.  1.
         12    1    4    4    0    0 -0.26202774866E+01 -0.39819276939E+01 -0.62937206080E+01  0.78950947656E+01  0.00000000000E+00 0. -1.
</event>
<event>
 8    1  0.2514877E-006  0.9118800E+02  0.7816164E-02  0.1184000E+00
        -11   -1    0    0    0    0  0.00000000000E+00  0.00000000000E+00  0.45593999997E+02  0.45594000000E+02  0.51100000000E-03 0. -1.
         11   -1    0    0    0    0 -0.00000000000E+00 -0.00000000000E+00 -0.45593999997E+02  0.45594000000E+02  0.51100000000E-03 0.  1.
         23    2    1    2    0    0  0.35527136788E-14  0.00000000000E+00 -0.35527136788E-14  0.91188000000E+02  0.91188000000E+02 0.  0.
    9900012    2    3    3    0    0 -0.29181003207E+02  0.15125149639E+02  0.16597555887E+02  0.54367082559E+02  0.39999996310E+02 0.  0.
        -12    1    3    3    0    0  0.29181003207E+02 -0.15125149639E+02 -0.16597555887E+02  0.36820917441E+02  0.00000000000E+00 0.  1.
         11    1    4    4    0    0 -0.26091994720E+02  0.44469572434E+01  0.58446272109E+01  0.27105853329E+02  0.51100000000E-03 0. -1.
        -11    1    4    4    0    0  0.20680169646E+01 -0.66491999809E+01  0.33196076052E+01  0.77141655068E+01  0.51100000000E-03 0.  1.
        -12    1    4    4    0    0 -0.51570254521E+01  0.17327392376E+02  0.74333210704E+01  0.19547063724E+02  0.00000000000E+00 0.  1.
</event>
<event>
 8    1  0.2514877E-006  0.9118800E+02  0.7816164E-02  0.1184000E+00
        -11   -1    0    0    0    0  0.00000000000E+00  0.00000000000E+00  0.45593999997E+02  0.45594000000E+02  0.51100000000E-03 0.  1.
         11   -1    0    0    0    0 -0.00000000000E+00 -0.00000000000E+00 -0.45593999997E+02  0.45594000000E+02  0.51100000000E-03 0. -1.
         23    2    1    2    0    0  0.00000000000E+00  0.35527136788E-14  0.00000000000E+00  0.91188000000E+02  0.91188000000E+02 0.  0.
    9900012    2    3    3    0    0 -0.31462173718E+02  0.17599733246E+02 -0.74942766547E+01  0.54367039013E+02  0.39999897039E+02 0.  0.
         12    1    3    3    0    0  0.31462173718E+02 -0.17599733246E+02  0.74942766547E+01  0.36820960987E+02  0.00000000000E+00 0. -1.
         11    1    4    4    0    0 -0.27850795891E+01 -0.21643177823E+01 -0.86035691025E+01  0.92985128565E+01  0.51100000000E-03 0. -1.
        -11    1    4    4    0    0 -0.20963955917E+02  0.20050306022E+01  0.10519954940E+02  0.23540965308E+02  0.51100000000E-03 0.  1.
        -12    1    4    4    0    0 -0.77131382117E+01  0.17759020426E+02 -0.94106624920E+01  0.21527560849E+02  0.00000000000E+00 0.  1.
</event>
<event>
 8    1  0.2514877E-006  0.9118800E+02  0.7816164E-02  0.1184000E+00
        -11   -1    0    0    0    0  0.00000000000E+00  0.00000000000E+00  0.45593999997E+02  0.45594000000E+02  0.51100000000E-03 0.  1.
         11   -1    0    0    0    0 -0.00000000000E+00 -0.00000000000E+00 -0.45593999997E+02  0.45594000000E+02  0.51100000000E-03 0. -1.
         23    2    1    2    0    0  0.00000000000E+00  0.35527136788E-14 -0.44408920985E-15  0.91188000000E+02  0.91188000000E+02 0.  0.
    9900012    2    3    3    0    0 -0.32663781547E+02 -0.16896326702E+02  0.18360783037E+01  0.54367086587E+02  0.40000005493E+02 0.  0.
        -12    1    3    3    0    0  0.32663781547E+02  0.16896326702E+02 -0.18360783037E+01  0.36820913413E+02  0.00000000000E+00 0.  1.
         11    1    4    4    0    0 -0.19661805161E+02 -0.99077012682E+01  0.12367419652E+01  0.22051726861E+02  0.51100000000E-03 0. -1.
        -11    1    4    4    0    0 -0.20439130830E+02  0.78755833840E+00  0.43658767403E+01  0.20915047148E+02  0.51100000000E-03 0.  1.
        -12    1    4    4    0    0  0.74371544439E+01 -0.77761837725E+01 -0.37665404018E+01  0.11400312578E+02  0.00000000000E+00 0.  1.
</event>
<event>
 8    1  0.2514877E-006  0.9118800E+02  0.7816164E-02  0.1184000E+00
        -11   -1    0    0    0    0  0.00000000000E+00  0.00000000000E+00  0.45593999997E+02  0.45594000000E+02  0.51100000000E-03 0. -1.
         11   -1    0    0    0    0 -0.00000000000E+00 -0.00000000000E+00 -0.45593999997E+02  0.45594000000E+02  0.51100000000E-03 0.  1.
         23    2    1    2    0    0  0.00000000000E+00  0.00000000000E+00  0.00000000000E+00  0.91188000000E+02  0.91188000000E+02 0.  0.
    9900012    2    3    3    0    0  0.16337368674E+02  0.15428828903E+02  0.29168919175E+02  0.54367024696E+02  0.39999864400E+02 0.  0.
        -12    1    3    3    0    0 -0.16337368674E+02 -0.15428828903E+02 -0.29168919175E+02  0.36820975304E+02  0.00000000000E+00 0.  1.
         11    1    4    4    0    0  0.15161793048E+02 -0.54117827925E+01  0.85137178375E+01  0.18211280930E+02  0.51100000000E-03 0. -1.
        -11    1    4    4    0    0  0.61990480479E+01 -0.15518590493E+01  0.68795177022E+01  0.93895807832E+01  0.51100000000E-03 0.  1.
        -12    1    4    4    0    0 -0.50234724221E+01  0.22392470744E+02  0.13775683635E+02  0.26766162983E+02  0.00000000000E+00 0.  1.
</event>
<event>
 8    1  0.2514877E-006  0.9118800E+02  0.7816164E-02  0.1184000E+00
        -11   -1    0    0    0    0  0.00000000000E+00  0.00000000000E+00  0.45593999997E+02  0.45594000000E+02  0.51100000000E-03 0. -1.
         11   -1    0    0    0    0 -0.00000000000E+00 -0.00000000000E+00 -0.45593999997E+02  0.45594000000E+02  0.51100000000E-03 0.  1.
         23    2    1    2    0    0  0.71054273576E-14  0.00000000000E+00  0.00000000000E+00  0.91188000000E+02  0.91188000000E+02 0.  0.
    9900012    2    3    3    0    0 -0.32330984289E+02  0.55422450965E+01 -0.16726285020E+02  0.54367114129E+02  0.40000068279E+02 0.  0.
         12    1    3    3    0    0  0.32330984289E+02 -0.55422450965E+01  0.16726285020E+02  0.36820885871E+02  0.00000000000E+00 0. -1.
         11    1    4    4    0    0 -0.17082156129E+02  0.57437870712E+01  0.66898423139E+01  0.19223556861E+02  0.51100000000E-03 0. -1.
        -11    1    4    4    0    0 -0.12737992291E+02  0.75023143266E+00 -0.12564396864E+01  0.12821775843E+02  0.51100000000E-03 0.  1.
        -12    1    4    4    0    0 -0.25108358685E+01 -0.95177340740E+00 -0.22159687647E+02  0.22321781425E+02  0.00000000000E+00 0.  1.
</event>
<event>
 8    1  0.2514877E-006  0.9118800E+02  0.7816164E-02  0.1184000E+00
        -11   -1    0    0    0    0  0.00000000000E+00  0.00000000000E+00  0.45593999997E+02  0.45594000000E+02  0.51100000000E-03 0. -1.
         11   -1    0    0    0    0 -0.00000000000E+00 -0.00000000000E+00 -0.45593999997E+02  0.45594000000E+02  0.51100000000E-03 0.  1.
         23    2    1    2    0    0  0.71054273576E-14 -0.17763568394E-14  0.00000000000E+00  0.91188000000E+02  0.91188000000E+02 0.  0.
    9900012    2    3    3    0    0  0.32704213885E+02 -0.98460765384E+01 -0.13757552625E+02  0.54367067322E+02  0.39999961574E+02 0.  0.
         12    1    3    3    0    0 -0.32704213885E+02  0.98460765384E+01  0.13757552625E+02  0.36820932678E+02  0.00000000000E+00 0. -1.
         11    1    4    4    0    0  0.30333079307E+01 -0.82582116349E+01  0.11084580337E+01  0.88672259407E+01  0.51100000000E-03 0. -1.
        -11    1    4    4    0    0  0.85217631750E+01 -0.83252894196E+01  0.74286980706E+01  0.14039816481E+02  0.51100000000E-03 0.  1.
         12    1    4    4    0    0  0.21149142779E+02  0.67374245161E+01 -0.22294708729E+02  0.31460024901E+02  0.00000000000E+00 0. -1.
</event>
<event>
 8    1  0.2514877E-006  0.9118800E+02  0.7816164E-02  0.1184000E+00
        -11   -1    0    0    0    0  0.00000000000E+00  0.00000000000E+00  0.45593999997E+02  0.45594000000E+02  0.51100000000E-03 0.  1.
         11   -1    0    0    0    0 -0.00000000000E+00 -0.00000000000E+00 -0.45593999997E+02  0.45594000000E+02  0.51100000000E-03 0. -1.
         23    2    1    2    0    0  0.00000000000E+00  0.00000000000E+00  0.00000000000E+00  0.91188000000E+02  0.91188000000E+02 0.  0.
    9900012    2    3    3    0    0 -0.77336795646E+01 -0.76534073588E+01  0.35176639929E+02  0.54367076050E+02  0.39999981471E+02 0.  0.
         12    1    3    3    0    0  0.77336795646E+01  0.76534073588E+01 -0.35176639929E+02  0.36820923950E+02  0.00000000000E+00 0. -1.
         11    1    4    4    0    0  0.74644041763E+01 -0.12806303745E+02  0.12610304601E+02  0.19461205710E+02  0.51100000000E-03 0. -1.
        -11    1    4    4    0    0  0.14933190320E+01 -0.57118079669E+01  0.18928404783E+01  0.61998062325E+01  0.51100000000E-03 0.  1.
        -12    1    4    4    0    0 -0.16691402773E+02  0.10864704353E+02  0.20673494850E+02  0.28706064107E+02  0.00000000000E+00 0.  1.
</event>
<event>
 8    1  0.2514877E-006  0.9118800E+02  0.7816164E-02  0.1184000E+00
        -11   -1    0    0    0    0  0.00000000000E+00  0.00000000000E+00  0.45593999997E+02  0.45594000000E+02  0.51100000000E-03 0. -1.
         11   -1    0    0    0    0 -0.00000000000E+00 -0.00000000000E+00 -0.45593999997E+02  0.45594000000E+02  0.51100000000E-03 0.  1.
         23    2    1    2    0    0  0.00000000000E+00 -0.88817841970E-15  0.00000000000E+00  0.91188000000E+02  0.91188000000E+02 0.  0.
    9900012    2    3    3    0    0  0.12719204841E+02  0.60531887723E+01  0.34020004888E+02  0.54367082050E+02  0.39999995149E+02 0.  0.
        -12    1    3    3    0    0 -0.12719204841E+02 -0.60531887723E+01 -0.34020004888E+02  0.36820917950E+02  0.00000000000E+00 0.  1.
         11    1    4    4    0    0  0.84592309728E+01 -0.19736397030E+01 -0.58432877670E+00  0.87060486277E+01  0.51100000000E-03 0. -1.
        -11    1    4    4    0    0  0.48362035825E+01 -0.70260524176E+00 -0.38517411503E+01  0.62224134680E+01  0.51100000000E-03 0.  1.
         12    1    4    4    0    0 -0.57622971454E+00  0.87294337170E+01  0.38456074815E+02  0.39438619954E+02  0.00000000000E+00 0. -1.
</event>
<event>
 8    1  0.2514877E-006  0.9118800E+02  0.7816164E-02  0.1184000E+00
        -11   -1    0    0    0    0  0.00000000000E+00  0.00000000000E+00  0.45593999997E+02  0.45594000000E+02  0.51100000000E-03 0.  1.
         11   -1    0    0    0    0 -0.00000000000E+00 -0.00000000000E+00 -0.45593999997E+02  0.45594000000E+02  0.51100000000E-03 0. -1.
         23    2    1    2    0    0  0.00000000000E+00  0.00000000000E+00 -0.35527136788E-14  0.91188000000E+02  0.91188000000E+02 0.  0.
    9900012    2    3    3    0    0 -0.22103967016E+02  0.27261878083E+02  0.11134815849E+02  0.54367089115E+02  0.40000011255E+02 0.  0.
         12    1    3    3    0    0  0.22103967016E+02 -0.27261878083E+02 -0.11134815849E+02  0.36820910885E+02  0.00000000000E+00 0. -1.
         11    1    4    4    0    0 -0.23455092910E+01  0.11703392619E+02 -0.84182270682E+01  0.14606072705E+02  0.51100000000E-03 0. -1.
        -11    1    4    4    0    0 -0.12952848991E+02  0.17708477669E+02  0.23042059692E+02  0.31816709343E+02  0.51100000000E-03 0.  1.
         12    1    4    4    0    0 -0.68056087342E+01 -0.21499922045E+01 -0.34890167746E+01  0.79443070671E+01  0.00000000000E+00 0. -1.
</event>
<event>
 8    1  0.2514877E-006  0.9118800E+02  0.7816164E-02  0.1184000E+00
        -11   -1    0    0    0    0  0.00000000000E+00  0.00000000000E+00  0.45593999997E+02  0.45594000000E+02  0.51100000000E-03 0.  1.
         11   -1    0    0    0    0 -0.00000000000E+00 -0.00000000000E+00 -0.45593999997E+02  0.45594000000E+02  0.51100000000E-03 0. -1.
         23    2    1    2    0    0  0.00000000000E+00  0.00000000000E+00 -0.88817841970E-15  0.91188000000E+02  0.91188000000E+02 0.  0.
    9900012    2    3    3    0    0  0.36079447723E+02  0.60899457343E+01  0.41190708206E+01  0.54367072100E+02  0.39999972466E+02 0.  0.
         12    1    3    3    0    0 -0.36079447723E+02 -0.60899457343E+01 -0.41190708206E+01  0.36820927900E+02  0.00000000000E+00 0. -1.
         11    1    4    4    0    0 -0.44023137814E+01  0.60633756895E+01 -0.57285563622E+01  0.94319271433E+01  0.51100000000E-03 0. -1.
        -11    1    4    4    0    0  0.22796602439E+02 -0.26033358243E+01 -0.26839140043E+01  0.23101208514E+02  0.51100000000E-03 0.  1.
         12    1    4    4    0    0  0.17685159065E+02  0.26299058691E+01  0.12531541187E+02  0.21833936442E+02  0.00000000000E+00 0. -1.
</event>
<event>
 8    1  0.2514877E-006  0.9118800E+02  0.7816164E-02  0.1184000E+00
        -11   -1    0    0    0    0  0.00000000000E+00  0.00000000000E+00  0.45593999997E+02  0.45594000000E+02  0.51100000000E-03 0.  1.
         11   -1    0    0    0    0 -0.00000000000E+00 -0.00000000000E+00 -0.45593999997E+02  0.45594000000E+02  0.51100000000E-03 0. -1.
         23    2    1    2    0    0  0.00000000000E+00  0.00000000000E+00  0.00000000000E+00  0.91188000000E+02  0.91188000000E+02 0.  0.
    9900012    2    3    3    0    0 -0.13427339267E+02  0.32266712396E+02 -0.11590817709E+02  0.54367065414E+02  0.39999957223E+02 0.  0.
        -12    1    3    3    0    0  0.13427339267E+02 -0.32266712396E+02  0.11590817709E+02  0.36820934586E+02  0.00000000000E+00 0.  1.
         11    1    4    4    0    0  0.33797690823E+01  0.18632229951E+02  0.57532649668E+01  0.19790980017E+02  0.51100000000E-03 0. -1.
        -11    1    4    4    0    0 -0.29975163522E+01 -0.83298145612E+00 -0.13946443105E+02  0.14289235037E+02  0.51100000000E-03 0.  1.
         12    1    4    4    0    0 -0.13809591997E+02  0.14467463902E+02 -0.33976395701E+01  0.20286850360E+02  0.00000000000E+00 0. -1.
</event>
<event>
 8    1  0.2514877E-006  0.9118800E+02  0.7816164E-02  0.1184000E+00
        -11   -1    0    0    0    0  0.00000000000E+00  0.00000000000E+00  0.45593999997E+02  0.45594000000E+02  0.51100000000E-03 0.  1.
         11   -1    0    0    0    0 -0.00000000000E+00 -0.00000000000E+00 -0.45593999997E+02  0.45594000000E+02  0.51100000000E-03 0. -1.
         23    2    1    2    0    0  0.00000000000E+00  0.00000000000E+00  0.88817841970E-15  0.91188000000E+02  0.91188000000E+02 0.  0.
    9900012    2    3    3    0    0  0.31794063310E+02 -0.17283685693E+02  0.67963998641E+01  0.54367091484E+02  0.40000016655E+02 0.  0.
        -12    1    3    3    0    0 -0.31794063310E+02  0.17283685693E+02 -0.67963998641E+01  0.36820908516E+02  0.00000000000E+00 0.  1.
         11    1    4    4    0    0  0.23830584707E+02 -0.16733320629E+02 -0.10618074660E+02  0.30994262316E+02  0.51100000000E-03 0. -1.
        -11    1    4    4    0    0  0.32567497317E+01 -0.45720565893E+01  0.16091029749E+02  0.17042046794E+02  0.51100000000E-03 0.  1.
         12    1    4    4    0    0  0.47067288710E+01  0.40216915257E+01  0.13234447754E+01  0.63307823740E+01  0.00000000000E+00 0. -1.
</event>
<event>
 8    1  0.2514877E-006  0.9118800E+02  0.7816164E-02  0.1184000E+00
        -11   -1    0    0    0    0  0.00000000000E+00  0.00000000000E+00  0.45593999997E+02  0.45594000000E+02  0.51100000000E-03 0. -1.
         11   -1    0    0    0    0 -0.00000000000E+00 -0.00000000000E+00 -0.45593999997E+02  0.45594000000E+02  0.51100000000E-03 0.  1.
         23    2    1    2    0    0  0.00000000000E+00  0.00000000000E+00  0.00000000000E+00  0.91188000000E+02  0.91188000000E+02 0.  0.
    9900012    2    3    3    0    0  0.60110599450E+01  0.10195509225E+02 -0.34866700800E+02  0.54367243969E+02  0.40000364274E+02 0.  0.
         12    1    3    3    0    0 -0.60110599450E+01 -0.10195509225E+02  0.34866700800E+02  0.36820756031E+02  0.00000000000E+00 0. -1.
         11    1    4    4    0    0  0.10177353150E+02  0.54305401861E+01  0.26572388859E+01  0.11837660352E+02  0.51100000000E-03 0. -1.
        -11    1    4    4    0    0 -0.11802679208E+02  0.27102630757E+01 -0.22775608398E+02  0.25794904547E+02  0.51100000000E-03 0.  1.
        -12    1    4    4    0    0  0.76363860031E+01  0.20547059630E+01 -0.14748331288E+02  0.16734679070E+02  0.00000000000E+00 0.  1.
</event>
<event>
 8    1  0.2514877E-006  0.9118800E+02  0.7816164E-02  0.1184000E+00
        -11   -1    0    0    0    0  0.00000000000E+00  0.00000000000E+00  0.45593999997E+02  0.45594000000E+02  0.51100000000E-03 0.  1.
         11   -1    0    0    0    0 -0.00000000000E+00 -0.00000000000E+00 -0.45593999997E+02  0.45594000000E+02  0.51100000000E-03 0. -1.
         23    2    1    2    0    0  0.00000000000E+00  0.00000000000E+00  0.35527136788E-14  0.91188000000E+02  0.91188000000E+02 0.  0.
    9900012    2    3    3    0    0  0.26774806733E+02  0.14669326259E+02  0.20583978224E+02  0.54367087898E+02  0.40000008481E+02 0.  0.
         12    1    3    3    0    0 -0.26774806733E+02 -0.14669326259E+02 -0.20583978224E+02  0.36820912102E+02  0.00000000000E+00 0. -1.
         11    1    4    4    0    0  0.29352586069E+01  0.45891507837E+01 -0.11177218529E+02  0.12434076657E+02  0.51100000000E-03 0. -1.
        -11    1    4    4    0    0  0.11243307598E+02  0.72370061333E+01  0.10267092280E+02  0.16858214843E+02  0.51100000000E-03 0.  1.
         12    1    4    4    0    0  0.12596240528E+02  0.28431693425E+01  0.21494104473E+02  0.25074796398E+02  0.00000000000E+00 0. -1.
</event>
<event>
 8    1  0.2514877E-006  0.9118800E+02  0.7816164E-02  0.1184000E+00
        -11   -1    0    0    0    0  0.00000000000E+00  0.00000000000E+00  0.45593999997E+02  0.45594000000E+02  0.51100000000E-03 0.  1.
         11   -1    0    0    0    0 -0.00000000000E+00 -0.00000000000E+00 -0.45593999997E+02  0.45594000000E+02  0.51100000000E-03 0. -1.
         23    2    1    2    0    0  0.00000000000E+00  0.00000000000E+00  0.00000000000E+00  0.91188000000E+02  0.91188000000E+02 0.  0.
    9900012    2    3    3    0    0  0.10952479575E+02  0.34721156630E+02  0.55013724489E+01  0.54367073539E+02  0.39999975748E+02 0.  0.
        -12    1    3    3    0    0 -0.10952479575E+02 -0.34721156630E+02 -0.55013724489E+01  0.36820926461E+02  0.00000000000E+00 0.  1.
         11    1    4    4    0    0  0.98679105495E+01 -0.44584037291E+01 -0.16799483263E+01  0.10957885246E+02  0.51100000000E-03 0.  1.
        -11    1    4    4    0    0  0.69984425692E+01  0.26835422082E+02  0.99133908758E+01  0.29451543179E+02  0.51100000000E-03 0. -1.
         12    1    4    4    0    0 -0.59138735433E+01  0.12344138278E+02 -0.27320701006E+01  0.13957645114E+02  0.00000000000E+00 0. -1.
</event>
<event>
 8    1  0.2514877E-006  0.9118800E+02  0.7816164E-02  0.1184000E+00
        -11   -1    0    0    0    0  0.00000000000E+00  0.00000000000E+00  0.45593999997E+02  0.45594000000E+02  0.51100000000E-03 0.  1.
         11   -1    0    0    0    0 -0.00000000000E+00 -0.00000000000E+00 -0.45593999997E+02  0.45594000000E+02  0.51100000000E-03 0. -1.
         23    2    1    2    0    0  0.00000000000E+00  0.00000000000E+00  0.00000000000E+00  0.91188000000E+02  0.91188000000E+02 0.  0.
    9900012    2    3    3    0    0 -0.32853345504E+02  0.10316264741E+02 -0.13038861445E+02  0.54367088322E+02  0.40000009447E+02 0.  0.
        -12    1    3    3    0    0  0.32853345504E+02 -0.10316264741E+02  0.13038861445E+02  0.36820911678E+02  0.00000000000E+00 0.  1.
         11    1    4    4    0    0 -0.10548967899E+02 -0.39825829132E+01 -0.14609448455E+02  0.18454746675E+02  0.51100000000E-03 0. -1.
        -11    1    4    4    0    0 -0.80933082671E+01  0.19118324273E+02 -0.48281492067E+00  0.20766441010E+02  0.51100000000E-03 0.  1.
         12    1    4    4    0    0 -0.14211069338E+02 -0.48194766190E+01  0.20534019305E+01  0.15145900637E+02  0.00000000000E+00 0. -1.
</event>
<event>
 8    1  0.2514877E-006  0.9118800E+02  0.7816164E-02  0.1184000E+00
        -11   -1    0    0    0    0  0.00000000000E+00  0.00000000000E+00  0.45593999997E+02  0.45594000000E+02  0.51100000000E-03 0.  1.
         11   -1    0    0    0    0 -0.00000000000E+00 -0.00000000000E+00 -0.45593999997E+02  0.45594000000E+02  0.51100000000E-03 0. -1.
         23    2    1    2    0    0  0.00000000000E+00  0.00000000000E+00  0.00000000000E+00  0.91188000000E+02  0.91188000000E+02 0.  0.
    9900012    2    3    3    0    0  0.15834098132E+02  0.29752915415E+02  0.14826518338E+02  0.54367078157E+02  0.39999986274E+02 0.  0.
         12    1    3    3    0    0 -0.15834098132E+02 -0.29752915415E+02 -0.14826518338E+02  0.36820921843E+02  0.00000000000E+00 0. -1.
         11    1    4    4    0    0  0.17607377786E+02 -0.15497453750E+01  0.72590408046E+01  0.19107986207E+02  0.51100000000E-03 0. -1.
        -11    1    4    4    0    0 -0.64033711270E+01  0.26897480605E+02  0.39916132925E+01  0.27935830069E+02  0.51100000000E-03 0.  1.
        -12    1    4    4    0    0  0.46300914725E+01  0.44051801851E+01  0.35758642410E+01  0.73232618809E+01  0.00000000000E+00 0.  1.
</event>
<event>
 8    1  0.2514877E-006  0.9118800E+02  0.7816164E-02  0.1184000E+00
        -11   -1    0    0    0    0  0.00000000000E+00  0.00000000000E+00  0.45593999997E+02  0.45594000000E+02  0.51100000000E-03 0. -1.
         11   -1    0    0    0    0 -0.00000000000E+00 -0.00000000000E+00 -0.45593999997E+02  0.45594000000E+02  0.51100000000E-03 0.  1.
         23    2    1    2    0    0 -0.17763568394E-14  0.00000000000E+00 -0.17763568394E-14  0.91188000000E+02  0.91188000000E+02 0.  0.
    9900012    2    3    3    0    0 -0.97080888774E+01  0.34278876403E+02 -0.93001271475E+01  0.54367072227E+02  0.39999972755E+02 0.  0.
         12    1    3    3    0    0  0.97080888774E+01 -0.34278876403E+02  0.93001271475E+01  0.36820927773E+02  0.00000000000E+00 0. -1.
         11    1    4    4    0    0  0.65309671511E+00  0.12408013103E+02 -0.15677432557E+02  0.20004179972E+02  0.51100000000E-03 0. -1.
        -11    1    4    4    0    0 -0.12458516103E+02  0.29826675511E+01 -0.30205920121E+01  0.13161873179E+02  0.51100000000E-03 0.  1.
         12    1    4    4    0    0  0.20973305104E+01  0.18888195749E+02  0.93978974218E+01  0.21201019076E+02  0.00000000000E+00 0. -1.
</event>
<event>
 8    1  0.2514877E-006  0.9118800E+02  0.7816164E-02  0.1184000E+00
        -11   -1    0    0    0    0  0.00000000000E+00  0.00000000000E+00  0.45593999997E+02  0.45594000000E+02  0.51100000000E-03 0.  1.
         11   -1    0    0    0    0 -0.00000000000E+00 -0.00000000000E+00 -0.45593999997E+02  0.45594000000E+02  0.51100000000E-03 0. -1.
         23    2    1    2    0    0 -0.26645352591E-14  0.00000000000E+00  0.00000000000E+00  0.91188000000E+02  0.91188000000E+02 0.  0.
    9900012    2    3    3    0    0  0.33833397374E+01 -0.70886019641E+01  0.35973448376E+02  0.54367024271E+02  0.39999863431E+02 0.  0.
         12    1    3    3    0    0 -0.33833397374E+01  0.70886019641E+01 -0.35973448376E+02  0.36820975729E+02  0.00000000000E+00 0. -1.
         11    1    4    4    0    0  0.19908993433E+02 -0.20043822208E+01  0.25605725733E+02  0.32496749963E+02  0.51100000000E-03 0. -1.
        -11    1    4    4    0    0 -0.60951051012E+01  0.40538109091E+00  0.76219489887E+01  0.97677401005E+01  0.51100000000E-03 0.  1.
         12    1    4    4    0    0 -0.10430548594E+02 -0.54896008341E+01  0.27457736543E+01  0.12102534208E+02  0.00000000000E+00 0. -1.
</event>
<event>
 8    1  0.2514877E-006  0.9118800E+02  0.7816164E-02  0.1184000E+00
        -11   -1    0    0    0    0  0.00000000000E+00  0.00000000000E+00  0.45593999997E+02  0.45594000000E+02  0.51100000000E-03 0.  1.
         11   -1    0    0    0    0 -0.00000000000E+00 -0.00000000000E+00 -0.45593999997E+02  0.45594000000E+02  0.51100000000E-03 0. -1.
         23    2    1    2    0    0  0.71054273576E-14 -0.99920072216E-15  0.35527136788E-14  0.91188000000E+02  0.91188000000E+02 0.  0.
    9900012    2    3    3    0    0  0.32836320077E+02  0.93631665905E+00  0.16633540875E+02  0.54367146030E+02  0.40000141004E+02 0.  0.
         12    1    3    3    0    0 -0.32836320077E+02 -0.93631665905E+00 -0.16633540875E+02  0.36820853970E+02  0.00000000000E+00 0. -1.
         11    1    4    4    0    0  0.12057095895E+02 -0.99107992654E+01 -0.75859151454E+01  0.17353489919E+02  0.51100000000E-03 0. -1.
        -11    1    4    4    0    0  0.16702658829E+02  0.40871013211E+01  0.23454548011E+02  0.29082624225E+02  0.51100000000E-03 0.  1.
         12    1    4    4    0    0  0.40765653526E+01  0.67600146033E+01  0.76490800895E+00  0.79310318858E+01  0.00000000000E+00 0. -1.
</event>
<event>
 8    1  0.2514877E-006  0.9118800E+02  0.7816164E-02  0.1184000E+00
        -11   -1    0    0    0    0  0.00000000000E+00  0.00000000000E+00  0.45593999997E+02  0.45594000000E+02  0.51100000000E-03 0.  1.
         11   -1    0    0    0    0 -0.00000000000E+00 -0.00000000000E+00 -0.45593999997E+02  0.45594000000E+02  0.51100000000E-03 0. -1.
         23    2    1    2    0    0 -0.17763568394E-14  0.00000000000E+00  0.00000000000E+00  0.91188000000E+02  0.91188000000E+02 0.  0.
    9900012    2    3    3    0    0 -0.25706903647E+01  0.29343176794E+02 -0.22094105601E+02  0.54367082363E+02  0.39999995863E+02 0.  0.
         12    1    3    3    0    0  0.25706903647E+01 -0.29343176794E+02  0.22094105601E+02  0.36820917637E+02  0.00000000000E+00 0. -1.
         11    1    4    4    0    0 -0.11066877234E+02  0.84936939643E+00 -0.83105385413E+01  0.13865866406E+02  0.51100000000E-03 0. -1.
        -11    1    4    4    0    0 -0.69019668746E+00  0.19217591828E+02  0.27598348106E+01  0.19427014582E+02  0.51100000000E-03 0.  1.
        -12    1    4    4    0    0  0.91863835568E+01  0.92762155704E+01 -0.16543401870E+02  0.21074201375E+02  0.00000000000E+00 0.  1.
</event>
<event>
 8    1  0.2514877E-006  0.9118800E+02  0.7816164E-02  0.1184000E+00
        -11   -1    0    0    0    0  0.00000000000E+00  0.00000000000E+00  0.45593999997E+02  0.45594000000E+02  0.51100000000E-03 0.  1.
         11   -1    0    0    0    0 -0.00000000000E+00 -0.00000000000E+00 -0.45593999997E+02  0.45594000000E+02  0.51100000000E-03 0. -1.
         23    2    1    2    0    0  0.00000000000E+00 -0.66613381478E-15  0.00000000000E+00  0.91188000000E+02  0.91188000000E+02 0.  0.
    9900012    2    3    3    0    0  0.31557963763E+02 -0.16610570857E+01  0.18897532848E+02  0.54367069332E+02  0.39999966156E+02 0.  0.
        -12    1    3    3    0    0 -0.31557963763E+02  0.16610570857E+01 -0.18897532848E+02  0.36820930668E+02  0.00000000000E+00 0.  1.
         11    1    4    4    0    0  0.65253040786E+01  0.96821579693E+01  0.12855349046E+02  0.17366167557E+02  0.51100000000E-03 0. -1.
        -11    1    4    4    0    0  0.15736851878E+02  0.86318225657E-01  0.13275303499E+02  0.20588580357E+02  0.51100000000E-03 0.  1.
        -12    1    4    4    0    0  0.92958078070E+01 -0.11429533281E+02 -0.72331196970E+01  0.16412321419E+02  0.00000000000E+00 0.  1.
</event>
<event>
 8    1  0.2514877E-006  0.9118800E+02  0.7816164E-02  0.1184000E+00
        -11   -1    0    0    0    0  0.00000000000E+00  0.00000000000E+00  0.45593999997E+02  0.45594000000E+02  0.51100000000E-03 0.  1.
         11   -1    0    0    0    0 -0.00000000000E+00 -0.00000000000E+00 -0.45593999997E+02  0.45594000000E+02  0.51100000000E-03 0. -1.
         23    2    1    2    0    0  0.00000000000E+00 -0.35527136788E-14  0.71054273576E-14  0.91188000000E+02  0.91188000000E+02 0.  0.
    9900012    2    3    3    0    0 -0.11501376808E+02  0.52505736686E+01  0.34582216422E+02  0.54367083594E+02  0.39999998669E+02 0.  0.
         12    1    3    3    0    0  0.11501376808E+02 -0.52505736686E+01 -0.34582216422E+02  0.36820916406E+02  0.00000000000E+00 0. -1.
         11    1    4    4    0    0  0.43007081046E+01  0.66473852438E+01  0.44714430550E+01  0.90927236863E+01  0.51100000000E-03 0. -1.
        -11    1    4    4    0    0 -0.16526159995E+01 -0.12828182397E+02  0.21634849393E+02  0.25206350624E+02  0.51100000000E-03 0.  1.
        -12    1    4    4    0    0 -0.14149468913E+02  0.11431370822E+02  0.84759239739E+01  0.20068009284E+02  0.00000000000E+00 0.  1.
</event>
<event>
 8    1  0.2514877E-006  0.9118800E+02  0.7816164E-02  0.1184000E+00
        -11   -1    0    0    0    0  0.00000000000E+00  0.00000000000E+00  0.45593999997E+02  0.45594000000E+02  0.51100000000E-03 0. -1.
         11   -1    0    0    0    0 -0.00000000000E+00 -0.00000000000E+00 -0.45593999997E+02  0.45594000000E+02  0.51100000000E-03 0.  1.
         23    2    1    2    0    0  0.00000000000E+00 -0.88817841970E-15 -0.71054273576E-14  0.91188000000E+02  0.91188000000E+02 0.  0.
    9900012    2    3    3    0    0 -0.15168807847E+02  0.68447354573E+01 -0.32845555802E+02  0.54367167976E+02  0.40000191035E+02 0.  0.
         12    1    3    3    0    0  0.15168807847E+02 -0.68447354573E+01  0.32845555802E+02  0.36820832024E+02  0.00000000000E+00 0. -1.
         11    1    4    4    0    0  0.83344221597E+01 -0.46685045718E+01  0.97798501926E+00  0.96028111838E+01  0.51100000000E-03 0. -1.
        -11    1    4    4    0    0 -0.26702950440E+01 -0.20171351642E+01 -0.91891854805E+01  0.97795930359E+01  0.51100000000E-03 0.  1.
        -12    1    4    4    0    0 -0.20832934963E+02  0.13530375193E+02 -0.24634355341E+02  0.34984763756E+02  0.00000000000E+00 0.  1.
</event>
<event>
 8    1  0.2514877E-006  0.9118800E+02  0.7816164E-02  0.1184000E+00
        -11   -1    0    0    0    0  0.00000000000E+00  0.00000000000E+00  0.45593999997E+02  0.45594000000E+02  0.51100000000E-03 0.  1.
         11   -1    0    0    0    0 -0.00000000000E+00 -0.00000000000E+00 -0.45593999997E+02  0.45594000000E+02  0.51100000000E-03 0. -1.
         23    2    1    2    0    0 -0.17763568394E-14 -0.35527136788E-14 -0.35527136788E-14  0.91188000000E+02  0.91188000000E+02 0.  0.
    9900012    2    3    3    0    0  0.10033500992E+02  0.29517284406E+02  0.19591800134E+02  0.54367084023E+02  0.39999999647E+02 0.  0.
         12    1    3    3    0    0 -0.10033500992E+02 -0.29517284406E+02 -0.19591800134E+02  0.36820915977E+02  0.00000000000E+00 0. -1.
         11    1    4    4    0    0  0.30984509386E+01  0.48462583325E+01 -0.63902480240E+01  0.85977839071E+01  0.51100000000E-03 0. -1.
        -11    1    4    4    0    0 -0.73696812266E+01 -0.17944398435E+01  0.56744934154E+01  0.94727024400E+01  0.51100000000E-03 0.  1.
         12    1    4    4    0    0  0.14304731280E+02  0.26465465917E+02  0.20307554743E+02  0.36296597676E+02  0.00000000000E+00 0. -1.
</event>
<event>
 8    1  0.2514877E-006  0.9118800E+02  0.7816164E-02  0.1184000E+00
        -11   -1    0    0    0    0  0.00000000000E+00  0.00000000000E+00  0.45593999997E+02  0.45594000000E+02  0.51100000000E-03 0.  1.
         11   -1    0    0    0    0 -0.00000000000E+00 -0.00000000000E+00 -0.45593999997E+02  0.45594000000E+02  0.51100000000E-03 0. -1.
         23    2    1    2    0    0  0.00000000000E+00  0.35527136788E-14  0.00000000000E+00  0.91188000000E+02  0.91188000000E+02 0.  0.
    9900012    2    3    3    0    0 -0.10476838174E+02  0.28524450814E+02 -0.20793531757E+02  0.54367090243E+02  0.40000013827E+02 0.  0.
        -12    1    3    3    0    0  0.10476838174E+02 -0.28524450814E+02  0.20793531757E+02  0.36820909757E+02  0.00000000000E+00 0.  1.
         11    1    4    4    0    0  0.93277668447E+00  0.23284891290E+02 -0.48968599748E+01  0.23812506643E+02  0.51100000000E-03 0. -1.
        -11    1    4    4    0    0 -0.31282862971E+01  0.39582084043E+01  0.55670438994E+01  0.75130264852E+01  0.51100000000E-03 0.  1.
        -12    1    4    4    0    0 -0.82813285619E+01  0.12813511201E+01 -0.21463715681E+02  0.23041557115E+02  0.00000000000E+00 0.  1.
</event>
<event>
 8    1  0.2514877E-006  0.9118800E+02  0.7816164E-02  0.1184000E+00
        -11   -1    0    0    0    0  0.00000000000E+00  0.00000000000E+00  0.45593999997E+02  0.45594000000E+02  0.51100000000E-03 0. -1.
         11   -1    0    0    0    0 -0.00000000000E+00 -0.00000000000E+00 -0.45593999997E+02  0.45594000000E+02  0.51100000000E-03 0.  1.
         23    2    1    2    0    0  0.00000000000E+00  0.00000000000E+00 -0.35527136788E-14  0.91188000000E+02  0.91188000000E+02 0.  0.
    9900012    2    3    3    0    0 -0.16170180252E+02  0.21460650845E+02 -0.25174334801E+02  0.54367063065E+02  0.39999951869E+02 0.  0.
         12    1    3    3    0    0  0.16170180252E+02 -0.21460650845E+02  0.25174334801E+02  0.36820936935E+02  0.00000000000E+00 0. -1.
         11    1    4    4    0    0 -0.51528259644E+01  0.11176137482E+01 -0.40139131460E+01  0.66266262090E+01  0.51100000000E-03 0. -1.
        -11    1    4    4    0    0 -0.20236199863E+02 -0.23655697675E+00 -0.95769776156E+01  0.22389243949E+02  0.51100000000E-03 0.  1.
        -12    1    4    4    0    0  0.92188455755E+01  0.20579594074E+02 -0.11583444040E+02  0.25351192907E+02  0.00000000000E+00 0.  1.
</event>
<event>
 8    1  0.2514877E-006  0.9118800E+02  0.7816164E-02  0.1184000E+00
        -11   -1    0    0    0    0  0.00000000000E+00  0.00000000000E+00  0.45593999997E+02  0.45594000000E+02  0.51100000000E-03 0.  1.
         11   -1    0    0    0    0 -0.00000000000E+00 -0.00000000000E+00 -0.45593999997E+02  0.45594000000E+02  0.51100000000E-03 0. -1.
         23    2    1    2    0    0  0.00000000000E+00 -0.77715611724E-15  0.35527136788E-14  0.91188000000E+02  0.91188000000E+02 0.  0.
    9900012    2    3    3    0    0 -0.19179235378E+02 -0.27556457785E+00  0.31430203660E+02  0.54367126740E+02  0.40000097028E+02 0.  0.
         12    1    3    3    0    0  0.19179235378E+02  0.27556457785E+00 -0.31430203660E+02  0.36820873260E+02  0.00000000000E+00 0. -1.
         11    1    4    4    0    0 -0.31479524909E+01  0.46718058718E+01  0.21457129197E+01  0.60282218924E+01  0.51100000000E-03 0. -1.
        -11    1    4    4    0    0 -0.30227431952E+01  0.11666831657E+02  0.23578268522E+02  0.26479929835E+02  0.51100000000E-03 0.  1.
         12    1    4    4    0    0 -0.13008539692E+02 -0.16614202107E+02  0.57062222190E+01  0.21858975012E+02  0.00000000000E+00 0. -1.
</event>
<event>
 8    1  0.2514877E-006  0.9118800E+02  0.7816164E-02  0.1184000E+00
        -11   -1    0    0    0    0  0.00000000000E+00  0.00000000000E+00  0.45593999997E+02  0.45594000000E+02  0.51100000000E-03 0.  1.
         11   -1    0    0    0    0 -0.00000000000E+00 -0.00000000000E+00 -0.45593999997E+02  0.45594000000E+02  0.51100000000E-03 0. -1.
         23    2    1    2    0    0 -0.17763568394E-14  0.00000000000E+00  0.35527136788E-14  0.91188000000E+02  0.91188000000E+02 0.  0.
    9900012    2    3    3    0    0 -0.40609883708E+01 -0.20938370185E+02 -0.30014549986E+02  0.54367079542E+02  0.39999989431E+02 0.  0.
        -12    1    3    3    0    0  0.40609883708E+01  0.20938370185E+02  0.30014549986E+02  0.36820920458E+02  0.00000000000E+00 0.  1.
         11    1    4    4    0    0 -0.18349935236E+02 -0.19392424670E+02 -0.25174443581E+02  0.36695215869E+02  0.51100000000E-03 0. -1.
        -11    1    4    4    0    0 -0.79568709584E+00  0.10813746868E+01  0.53335584140E+00  0.14446307080E+01  0.51100000000E-03 0.  1.
         12    1    4    4    0    0  0.15084633961E+02 -0.26273202024E+01 -0.53734622458E+01  0.16227232965E+02  0.00000000000E+00 0. -1.
</event>
<event>
 8    1  0.2514877E-006  0.9118800E+02  0.7816164E-02  0.1184000E+00
        -11   -1    0    0    0    0  0.00000000000E+00  0.00000000000E+00  0.45593999997E+02  0.45594000000E+02  0.51100000000E-03 0.  1.
         11   -1    0    0    0    0 -0.00000000000E+00 -0.00000000000E+00 -0.45593999997E+02  0.45594000000E+02  0.51100000000E-03 0. -1.
         23    2    1    2    0    0  0.00000000000E+00  0.00000000000E+00  0.88817841970E-15  0.91188000000E+02  0.91188000000E+02 0.  0.
    9900012    2    3    3    0    0 -0.34081132756E+02  0.12309288183E+02  0.65372633869E+01  0.54367109217E+02  0.40000057081E+02 0.  0.
         12    1    3    3    0    0  0.34081132756E+02 -0.12309288183E+02 -0.65372633869E+01  0.36820890783E+02  0.00000000000E+00 0. -1.
         11    1    4    4    0    0 -0.31786525311E+01 -0.48307868882E+01 -0.81003779702E+01  0.99527110575E+01  0.51100000000E-03 0. -1.
        -11    1    4    4    0    0 -0.80825417710E+01  0.17231438869E+02  0.52932871060E+01  0.19755223502E+02  0.51100000000E-03 0.  1.
        -12    1    4    4    0    0 -0.22819938454E+02 -0.91363798261E-01  0.93443542511E+01  0.24659174657E+02  0.00000000000E+00 0.  1.
</event>
<event>
 8    1  0.2514877E-006  0.9118800E+02  0.7816164E-02  0.1184000E+00
        -11   -1    0    0    0    0  0.00000000000E+00  0.00000000000E+00  0.45593999997E+02  0.45594000000E+02  0.51100000000E-03 0. -1.
         11   -1    0    0    0    0 -0.00000000000E+00 -0.00000000000E+00 -0.45593999997E+02  0.45594000000E+02  0.51100000000E-03 0.  1.
         23    2    1    2    0    0 -0.71054273576E-14  0.88817841970E-15  0.00000000000E+00  0.91188000000E+02  0.91188000000E+02 0.  0.
    9900012    2    3    3    0    0 -0.35439486730E+02 -0.42396103166E+01 -0.90470295008E+01  0.54367078528E+02  0.39999987119E+02 0.  0.
         12    1    3    3    0    0  0.35439486730E+02  0.42396103166E+01  0.90470295008E+01  0.36820921472E+02  0.00000000000E+00 0. -1.
         11    1    4    4    0    0 -0.93105614383E+01 -0.12486194256E+01  0.61466421352E+01  0.11226166512E+02  0.51100000000E-03 0. -1.
        -11    1    4    4    0    0  0.19788490089E+00  0.98787334409E+01 -0.86113536648E+01  0.13106637442E+02  0.51100000000E-03 0.  1.
        -12    1    4    4    0    0 -0.26326810192E+02 -0.12869724332E+02 -0.65823179712E+01  0.30034274573E+02  0.00000000000E+00 0.  1.
</event>
<event>
 8    1  0.2514877E-006  0.9118800E+02  0.7816164E-02  0.1184000E+00
        -11   -1    0    0    0    0  0.00000000000E+00  0.00000000000E+00  0.45593999997E+02  0.45594000000E+02  0.51100000000E-03 0.  1.
         11   -1    0    0    0    0 -0.00000000000E+00 -0.00000000000E+00 -0.45593999997E+02  0.45594000000E+02  0.51100000000E-03 0. -1.
         23    2    1    2    0    0  0.00000000000E+00  0.00000000000E+00  0.35527136788E-14  0.91188000000E+02  0.91188000000E+02 0.  0.
    9900012    2    3    3    0    0 -0.85540602301E+01 -0.23774807167E+02  0.26783688277E+02  0.54367090723E+02  0.40000014922E+02 0.  0.
         12    1    3    3    0    0  0.85540602301E+01  0.23774807167E+02 -0.26783688277E+02  0.36820909277E+02  0.00000000000E+00 0. -1.
         11    1    4    4    0    0  0.53750264680E+01 -0.24609880230E+02  0.23424896682E+02  0.34398588624E+02  0.51100000000E-03 0. -1.
        -11    1    4    4    0    0 -0.15185671373E+02 -0.30740454902E+01  0.18944123425E+01  0.15609073295E+02  0.51100000000E-03 0.  1.
         12    1    4    4    0    0  0.12565846751E+01  0.39091185537E+01  0.14643792528E+01  0.43594288053E+01  0.00000000000E+00 0. -1.
</event>
<event>
 8    1  0.2514877E-006  0.9118800E+02  0.7816164E-02  0.1184000E+00
        -11   -1    0    0    0    0  0.00000000000E+00  0.00000000000E+00  0.45593999997E+02  0.45594000000E+02  0.51100000000E-03 0. -1.
         11   -1    0    0    0    0 -0.00000000000E+00 -0.00000000000E+00 -0.45593999997E+02  0.45594000000E+02  0.51100000000E-03 0.  1.
         23    2    1    2    0    0  0.00000000000E+00 -0.88817841970E-15 -0.71054273576E-14  0.91188000000E+02  0.91188000000E+02 0.  0.
    9900012    2    3    3    0    0  0.89306253629E+01  0.75290998761E+01  0.34918977522E+02  0.54367103685E+02  0.40000044470E+02 0.  0.
        -12    1    3    3    0    0 -0.89306253629E+01 -0.75290998761E+01 -0.34918977522E+02  0.36820896315E+02  0.00000000000E+00 0.  1.
         11    1    4    4    0    0  0.46006305967E+01  0.57097435928E+01  0.24760700763E+02  0.25823618575E+02  0.51100000000E-03 0. -1.
        -11    1    4    4    0    0 -0.80927987250E+01  0.69793114631E+01  0.10643799081E+02  0.15082925407E+02  0.51100000000E-03 0.  1.
        -12    1    4    4    0    0  0.12422793491E+02 -0.51599551798E+01 -0.48552232174E+00  0.13460559703E+02  0.00000000000E+00 0.  1.
</event>
<event>
 8    1  0.2514877E-006  0.9118800E+02  0.7816164E-02  0.1184000E+00
        -11   -1    0    0    0    0  0.00000000000E+00  0.00000000000E+00  0.45593999997E+02  0.45594000000E+02  0.51100000000E-03 0.  1.
         11   -1    0    0    0    0 -0.00000000000E+00 -0.00000000000E+00 -0.45593999997E+02  0.45594000000E+02  0.51100000000E-03 0. -1.
         23    2    1    2    0    0  0.71054273576E-14 -0.35527136788E-14  0.00000000000E+00  0.91188000000E+02  0.91188000000E+02 0.  0.
    9900012    2    3    3    0    0 -0.34801565625E+02 -0.88546802579E+01  0.81381687390E+01  0.54367026047E+02  0.39999867478E+02 0.  0.
        -12    1    3    3    0    0  0.34801565625E+02  0.88546802579E+01 -0.81381687390E+01  0.36820973953E+02  0.00000000000E+00 0.  1.
         11    1    4    4    0    0 -0.37443186581E+02  0.41365984266E-01  0.70775148738E+01  0.38106235048E+02  0.51100000000E-03 0. -1.
        -11    1    4    4    0    0  0.81708292878E+00  0.67619572237E+00  0.54650976838E+01  0.55670600969E+01  0.51100000000E-03 0.  1.
        -12    1    4    4    0    0  0.18245380272E+01 -0.95722419646E+01 -0.44044438186E+01  0.10693730901E+02  0.00000000000E+00 0.  1.
</event>
<event>
 8    1  0.2514877E-006  0.9118800E+02  0.7816164E-02  0.1184000E+00
        -11   -1    0    0    0    0  0.00000000000E+00  0.00000000000E+00  0.45593999997E+02  0.45594000000E+02  0.51100000000E-03 0. -1.
         11   -1    0    0    0    0 -0.00000000000E+00 -0.00000000000E+00 -0.45593999997E+02  0.45594000000E+02  0.51100000000E-03 0.  1.
         23    2    1    2    0    0 -0.44408920985E-15  0.00000000000E+00  0.88817841970E-15  0.91188000000E+02  0.91188000000E+02 0.  0.
    9900012    2    3    3    0    0 -0.25641322966E+01 -0.36685030667E+02  0.18473005360E+01  0.54367098752E+02  0.40000033224E+02 0.  0.
        -12    1    3    3    0    0  0.25641322966E+01  0.36685030667E+02 -0.18473005360E+01  0.36820901248E+02  0.00000000000E+00 0.  1.
         11    1    4    4    0    0  0.93342054300E+01 -0.23358183327E+02  0.58542080015E+01  0.25826418082E+02  0.51100000000E-03 0. -1.
        -11    1    4    4    0    0 -0.61737791006E+01  0.50908784029E+01 -0.46277133663E+01  0.92438261861E+01  0.51100000000E-03 0.  1.
         12    1    4    4    0    0 -0.57245586260E+01 -0.18417725743E+02  0.62080590085E+00  0.19296854483E+02  0.00000000000E+00 0. -1.
</event>
<event>
 8    1  0.2514877E-006  0.9118800E+02  0.7816164E-02  0.1184000E+00
        -11   -1    0    0    0    0  0.00000000000E+00  0.00000000000E+00  0.45593999997E+02  0.45594000000E+02  0.51100000000E-03 0. -1.
         11   -1    0    0    0    0 -0.00000000000E+00 -0.00000000000E+00 -0.45593999997E+02  0.45594000000E+02  0.51100000000E-03 0.  1.
         23    2    1    2    0    0 -0.88817841970E-15  0.00000000000E+00  0.88817841970E-15  0.91188000000E+02  0.91188000000E+02 0.  0.
    9900012    2    3    3    0    0 -0.46758298196E+01  0.36153953914E+02 -0.51776540879E+01  0.54367083798E+02  0.39999999133E+02 0.  0.
         12    1    3    3    0    0  0.46758298196E+01 -0.36153953914E+02  0.51776540879E+01  0.36820916202E+02  0.00000000000E+00 0. -1.
         11    1    4    4    0    0  0.11718824533E+02  0.24313668331E+02 -0.89214150568E+01  0.28426694549E+02  0.51100000000E-03 0. -1.
        -11    1    4    4    0    0 -0.14252136180E+02  0.38999016309E+01 -0.32675395603E+01  0.15133057638E+02  0.51100000000E-03 0.  1.
         12    1    4    4    0    0 -0.21425181721E+01  0.79403839528E+01  0.70113005291E+01  0.10807331611E+02  0.00000000000E+00 0. -1.
</event>
<event>
 8    1  0.2514877E-006  0.9118800E+02  0.7816164E-02  0.1184000E+00
        -11   -1    0    0    0    0  0.00000000000E+00  0.00000000000E+00  0.45593999997E+02  0.45594000000E+02  0.51100000000E-03 0. -1.
         11   -1    0    0    0    0 -0.00000000000E+00 -0.00000000000E+00 -0.45593999997E+02  0.45594000000E+02  0.51100000000E-03 0.  1.
         23    2    1    2    0    0  0.35527136788E-14 -0.88817841970E-15  0.00000000000E+00  0.91188000000E+02  0.91188000000E+02 0.  0.
    9900012    2    3    3    0    0 -0.24449905228E+02  0.25534373761E+01 -0.27412790562E+02  0.54367095686E+02  0.40000026235E+02 0.  0.
         12    1    3    3    0    0  0.24449905228E+02 -0.25534373761E+01  0.27412790562E+02  0.36820904314E+02  0.00000000000E+00 0. -1.
         11    1    4    4    0    0 -0.13182447012E+02 -0.95495172725E+01 -0.14763174150E+02  0.21975474980E+02  0.51100000000E-03 0. -1.
        -11    1    4    4    0    0 -0.24561616529E+01 -0.10153997580E+01  0.68177980462E+01  0.73175226131E+01  0.51100000000E-03 0.  1.
        -12    1    4    4    0    0 -0.88112965634E+01  0.13118354407E+02 -0.19467414459E+02  0.25074098093E+02  0.00000000000E+00 0.  1.
</event>
<event>
 8    1  0.2514877E-006  0.9118800E+02  0.7816164E-02  0.1184000E+00
        -11   -1    0    0    0    0  0.00000000000E+00  0.00000000000E+00  0.45593999997E+02  0.45594000000E+02  0.51100000000E-03 0.  1.
         11   -1    0    0    0    0 -0.00000000000E+00 -0.00000000000E+00 -0.45593999997E+02  0.45594000000E+02  0.51100000000E-03 0. -1.
         23    2    1    2    0    0 -0.35527136788E-14 -0.17763568394E-14 -0.71054273576E-14  0.91188000000E+02  0.91188000000E+02 0.  0.
    9900012    2    3    3    0    0  0.25743608927E+02  0.60643143153E+01  0.25617785643E+02  0.54367078638E+02  0.39999987371E+02 0.  0.
         12    1    3    3    0    0 -0.25743608927E+02 -0.60643143153E+01 -0.25617785643E+02  0.36820921362E+02  0.00000000000E+00 0. -1.
         11    1    4    4    0    0 -0.14546167201E+01 -0.72059980025E+01  0.80169739375E+01  0.10877232570E+02  0.51100000000E-03 0. -1.
        -11    1    4    4    0    0  0.18285077623E+02  0.23442315561E+01 -0.28453188473E+01  0.18653024551E+02  0.51100000000E-03 0.  1.
         12    1    4    4    0    0  0.89131480236E+01  0.10926080762E+02  0.20446130552E+02  0.24836821517E+02  0.00000000000E+00 0. -1.
</event>
<event>
 8    1  0.2514877E-006  0.9118800E+02  0.7816164E-02  0.1184000E+00
        -11   -1    0    0    0    0  0.00000000000E+00  0.00000000000E+00  0.45593999997E+02  0.45594000000E+02  0.51100000000E-03 0.  1.
         11   -1    0    0    0    0 -0.00000000000E+00 -0.00000000000E+00 -0.45593999997E+02  0.45594000000E+02  0.51100000000E-03 0. -1.
         23    2    1    2    0    0  0.00000000000E+00  0.17763568394E-14  0.71054273576E-14  0.91188000000E+02  0.91188000000E+02 0.  0.
    9900012    2    3    3    0    0 -0.23682911112E+02 -0.72104295794E+01 -0.27256425552E+02  0.54367037121E+02  0.39999892724E+02 0.  0.
        -12    1    3    3    0    0  0.23682911112E+02  0.72104295794E+01  0.27256425552E+02  0.36820962879E+02  0.00000000000E+00 0.  1.
         11    1    4    4    0    0 -0.14239352299E+02 -0.13068925800E+01 -0.26193503399E+02  0.29842364898E+02  0.51100000000E-03 0. -1.
        -11    1    4    4    0    0 -0.26411713679E+01  0.51156113341E+01 -0.79826405869E+01  0.98421449144E+01  0.51100000000E-03 0.  1.
        -12    1    4    4    0    0 -0.68023874451E+01 -0.11019148334E+02  0.69197184340E+01  0.14682527308E+02  0.00000000000E+00 0.  1.
</event>
<event>
 8    1  0.2514877E-006  0.9118800E+02  0.7816164E-02  0.1184000E+00
        -11   -1    0    0    0    0  0.00000000000E+00  0.00000000000E+00  0.45593999997E+02  0.45594000000E+02  0.51100000000E-03 0.  1.
         11   -1    0    0    0    0 -0.00000000000E+00 -0.00000000000E+00 -0.45593999997E+02  0.45594000000E+02  0.51100000000E-03 0. -1.
         23    2    1    2    0    0 -0.17763568394E-14 -0.14210854715E-13 -0.17763568394E-14  0.91188000000E+02  0.91188000000E+02 0.  0.
    9900012    2    3    3    0    0  0.12698408500E+02  0.32078649199E+02  0.12864436826E+02  0.54367040646E+02  0.39999900762E+02 0.  0.
         12    1    3    3    0    0 -0.12698408500E+02 -0.32078649199E+02 -0.12864436826E+02  0.36820959354E+02  0.00000000000E+00 0. -1.
         11    1    4    4    0    0 -0.16693384025E-01 -0.79976175693E+01 -0.97895951594E+00  0.80573275625E+01  0.51100000000E-03 0. -1.
        -11    1    4    4    0    0 -0.42432984026E+00  0.73583893160E+01  0.74446339196E+01  0.10476092955E+02  0.51100000000E-03 0.  1.
         12    1    4    4    0    0  0.13139431724E+02  0.32717877452E+02  0.63987624225E+01  0.35833620129E+02  0.00000000000E+00 0. -1.
</event>
<event>
 8    1  0.2514877E-006  0.9118800E+02  0.7816164E-02  0.1184000E+00
        -11   -1    0    0    0    0  0.00000000000E+00  0.00000000000E+00  0.45593999997E+02  0.45594000000E+02  0.51100000000E-03 0.  1.
         11   -1    0    0    0    0 -0.00000000000E+00 -0.00000000000E+00 -0.45593999997E+02  0.45594000000E+02  0.51100000000E-03 0. -1.
         23    2    1    2    0    0  0.00000000000E+00  0.00000000000E+00  0.88817841970E-15  0.91188000000E+02  0.91188000000E+02 0.  0.
    9900012    2    3    3    0    0 -0.18426322302E+02 -0.31160461290E+02  0.67288294673E+01  0.54367070525E+02  0.39999968876E+02 0.  0.
        -12    1    3    3    0    0  0.18426322302E+02  0.31160461290E+02 -0.67288294673E+01  0.36820929475E+02  0.00000000000E+00 0.  1.
         11    1    4    4    0    0 -0.17196939127E+02 -0.12510555951E+02  0.10761785825E+02  0.23834109170E+02  0.51100000000E-03 0. -1.
        -11    1    4    4    0    0 -0.10029815558E+02 -0.18661946446E+02 -0.47196437034E+01  0.21705770713E+02  0.51100000000E-03 0.  1.
        -12    1    4    4    0    0  0.88004323830E+01  0.12041107442E-01  0.68668734596E+00  0.88271906419E+01  0.00000000000E+00 0.  1.
</event>
<event>
 8    1  0.2514877E-006  0.9118800E+02  0.7816164E-02  0.1184000E+00
        -11   -1    0    0    0    0  0.00000000000E+00  0.00000000000E+00  0.45593999997E+02  0.45594000000E+02  0.51100000000E-03 0. -1.
         11   -1    0    0    0    0 -0.00000000000E+00 -0.00000000000E+00 -0.45593999997E+02  0.45594000000E+02  0.51100000000E-03 0.  1.
         23    2    1    2    0    0  0.00000000000E+00  0.00000000000E+00  0.00000000000E+00  0.91188000000E+02  0.91188000000E+02 0.  0.
    9900012    2    3    3    0    0 -0.19416919462E+02 -0.17757662585E+02  0.25757105900E+02  0.54367084120E+02  0.39999999868E+02 0.  0.
        -12    1    3    3    0    0  0.19416919462E+02  0.17757662585E+02 -0.25757105900E+02  0.36820915880E+02  0.00000000000E+00 0.  1.
         11    1    4    4    0    0 -0.57672387412E+01 -0.80215358673E+01  0.29728767933E+02  0.31327395734E+02  0.51100000000E-03 0. -1.
        -11    1    4    4    0    0 -0.19791122421E+00 -0.50943635324E+01 -0.68324027514E+01  0.85248716278E+01  0.51100000000E-03 0.  1.
        -12    1    4    4    0    0 -0.13451769497E+02 -0.46417631857E+01  0.28607407187E+01  0.14514816758E+02  0.00000000000E+00 0.  1.
</event>
<event>
 8    1  0.2514877E-006  0.9118800E+02  0.7816164E-02  0.1184000E+00
        -11   -1    0    0    0    0  0.00000000000E+00  0.00000000000E+00  0.45593999997E+02  0.45594000000E+02  0.51100000000E-03 0.  1.
         11   -1    0    0    0    0 -0.00000000000E+00 -0.00000000000E+00 -0.45593999997E+02  0.45594000000E+02  0.51100000000E-03 0. -1.
         23    2    1    2    0    0  0.35527136788E-14  0.00000000000E+00  0.17763568394E-14  0.91188000000E+02  0.91188000000E+02 0.  0.
    9900012    2    3    3    0    0 -0.30929720442E+02 -0.16369869941E+02 -0.11452503473E+02  0.54367080887E+02  0.39999992498E+02 0.  0.
        -12    1    3    3    0    0  0.30929720442E+02  0.16369869941E+02  0.11452503473E+02  0.36820919113E+02  0.00000000000E+00 0.  1.
         11    1    4    4    0    0 -0.24455712716E+02 -0.94039781887E+01 -0.15411509908E+02  0.30397883612E+02  0.51100000000E-03 0. -1.
        -11    1    4    4    0    0  0.40478459412E+01 -0.90260425610E+01 -0.39442324136E+01  0.10649482179E+02  0.51100000000E-03 0.  1.
         12    1    4    4    0    0 -0.10521853668E+02  0.20601508083E+01  0.79032388479E+01  0.13319715096E+02  0.00000000000E+00 0. -1.
</event>
<event>
 8    1  0.2514877E-006  0.9118800E+02  0.7816164E-02  0.1184000E+00
        -11   -1    0    0    0    0  0.00000000000E+00  0.00000000000E+00  0.45593999997E+02  0.45594000000E+02  0.51100000000E-03 0.  1.
         11   -1    0    0    0    0 -0.00000000000E+00 -0.00000000000E+00 -0.45593999997E+02  0.45594000000E+02  0.51100000000E-03 0. -1.
         23    2    1    2    0    0  0.17763568394E-14  0.00000000000E+00 -0.17763568394E-14  0.91188000000E+02  0.91188000000E+02 0.  0.
    9900012    2    3    3    0    0 -0.59042563885E+01 -0.36067067037E+02 -0.44817720711E+01  0.54367084082E+02  0.39999999782E+02 0.  0.
         12    1    3    3    0    0  0.59042563885E+01  0.36067067037E+02  0.44817720711E+01  0.36820915918E+02  0.00000000000E+00 0. -1.
         11    1    4    4    0    0  0.30370917031E+01  0.34151671882E+01  0.35058223619E+01  0.57600419817E+01  0.51100000000E-03 0. -1.
        -11    1    4    4    0    0  0.19835941580E+01 -0.12568500314E+02  0.84094280565E+01  0.15251895831E+02  0.51100000000E-03 0.  1.
         12    1    4    4    0    0 -0.10924942250E+02 -0.26913733911E+02 -0.16397022490E+02  0.33355146270E+02  0.00000000000E+00 0. -1.
</event>
<event>
 8    1  0.2514877E-006  0.9118800E+02  0.7816164E-02  0.1184000E+00
        -11   -1    0    0    0    0  0.00000000000E+00  0.00000000000E+00  0.45593999997E+02  0.45594000000E+02  0.51100000000E-03 0.  1.
         11   -1    0    0    0    0 -0.00000000000E+00 -0.00000000000E+00 -0.45593999997E+02  0.45594000000E+02  0.51100000000E-03 0. -1.
         23    2    1    2    0    0  0.00000000000E+00  0.00000000000E+00  0.00000000000E+00  0.91188000000E+02  0.91188000000E+02 0.  0.
    9900012    2    3    3    0    0  0.23467096534E+02 -0.18464240073E+02 -0.21544059407E+02  0.54367091851E+02  0.40000017492E+02 0.  0.
        -12    1    3    3    0    0 -0.23467096534E+02  0.18464240073E+02  0.21544059407E+02  0.36820908149E+02  0.00000000000E+00 0.  1.
         11    1    4    4    0    0  0.22383347781E+02 -0.40316902921E+01  0.12081044175E+01  0.22775607589E+02  0.51100000000E-03 0. -1.
        -11    1    4    4    0    0 -0.41241020578E+01  0.10990627787E+01 -0.10402922439E+01  0.43929904380E+01  0.51100000000E-03 0.  1.
        -12    1    4    4    0    0  0.52078508114E+01 -0.15531612560E+02 -0.21711871580E+02  0.27198493824E+02  0.00000000000E+00 0.  1.
</event>
<event>
 8    1  0.2514877E-006  0.9118800E+02  0.7816164E-02  0.1184000E+00
        -11   -1    0    0    0    0  0.00000000000E+00  0.00000000000E+00  0.45593999997E+02  0.45594000000E+02  0.51100000000E-03 0. -1.
         11   -1    0    0    0    0 -0.00000000000E+00 -0.00000000000E+00 -0.45593999997E+02  0.45594000000E+02  0.51100000000E-03 0.  1.
         23    2    1    2    0    0  0.00000000000E+00 -0.35527136788E-14  0.00000000000E+00  0.91188000000E+02  0.91188000000E+02 0.  0.
    9900012    2    3    3    0    0  0.13300560134E+02  0.26561021629E+02 -0.21757468906E+02  0.54367079003E+02  0.39999988204E+02 0.  0.
         12    1    3    3    0    0 -0.13300560134E+02 -0.26561021629E+02  0.21757468906E+02  0.36820920997E+02  0.00000000000E+00 0. -1.
         11    1    4    4    0    0 -0.15749739786E+01 -0.30680748244E+01  0.61816804386E+00  0.35036778038E+01  0.51100000000E-03 0. -1.
        -11    1    4    4    0    0  0.73057401990E+01 -0.52261844706E+01 -0.91507740279E+01  0.12822773083E+02  0.51100000000E-03 0.  1.
         12    1    4    4    0    0  0.75697939132E+01  0.34855280924E+02 -0.13224862922E+02  0.38040628116E+02  0.00000000000E+00 0. -1.
</event>
<event>
 8    1  0.2514877E-006  0.9118800E+02  0.7816164E-02  0.1184000E+00
        -11   -1    0    0    0    0  0.00000000000E+00  0.00000000000E+00  0.45593999997E+02  0.45594000000E+02  0.51100000000E-03 0. -1.
         11   -1    0    0    0    0 -0.00000000000E+00 -0.00000000000E+00 -0.45593999997E+02  0.45594000000E+02  0.51100000000E-03 0.  1.
         23    2    1    2    0    0  0.88817841970E-15  0.00000000000E+00 -0.44408920985E-15  0.91188000000E+02  0.91188000000E+02 0.  0.
    9900012    2    3    3    0    0  0.55022646509E+01  0.36299038959E+02  0.28080071273E+01  0.54367081358E+02  0.39999993571E+02 0.  0.
        -12    1    3    3    0    0 -0.55022646509E+01 -0.36299038959E+02 -0.28080071273E+01  0.36820918642E+02  0.00000000000E+00 0.  1.
         11    1    4    4    0    0  0.26870588624E+01  0.40180687520E+02 -0.61739215107E+01  0.40740952885E+02  0.51100000000E-03 0.  1.
        -11    1    4    4    0    0 -0.16775893711E+01 -0.34851626045E+00  0.75389149741E+01  0.77311712521E+01  0.51100000000E-03 0. -1.
        -12    1    4    4    0    0  0.44927951596E+01 -0.35331323006E+01  0.14430136640E+01  0.58949572207E+01  0.00000000000E+00 0.  1.
</event>
<event>
 8    1  0.2514877E-006  0.9118800E+02  0.7816164E-02  0.1184000E+00
        -11   -1    0    0    0    0  0.00000000000E+00  0.00000000000E+00  0.45593999997E+02  0.45594000000E+02  0.51100000000E-03 0.  1.
         11   -1    0    0    0    0 -0.00000000000E+00 -0.00000000000E+00 -0.45593999997E+02  0.45594000000E+02  0.51100000000E-03 0. -1.
         23    2    1    2    0    0  0.35527136788E-14  0.35527136788E-14 -0.44408920985E-15  0.91188000000E+02  0.91188000000E+02 0.  0.
    9900012    2    3    3    0    0 -0.31274550588E+02 -0.19418901568E+02  0.76766244455E+00  0.54367074452E+02  0.39999977827E+02 0.  0.
         12    1    3    3    0    0  0.31274550588E+02  0.19418901568E+02 -0.76766244455E+00  0.36820925548E+02  0.00000000000E+00 0. -1.
         11    1    4    4    0    0 -0.20524903678E+02  0.65885939346E+01 -0.20845566383E+01  0.21657022364E+02  0.51100000000E-03 0. -1.
        -11    1    4    4    0    0 -0.29879752994E+01 -0.87312360121E+01 -0.67900051024E+01  0.11457165803E+02  0.51100000000E-03 0.  1.
        -12    1    4    4    0    0 -0.77616716110E+01 -0.17276259491E+02  0.96422241852E+01  0.21252886285E+02  0.00000000000E+00 0.  1.
</event>
<event>
 8    1  0.2514877E-006  0.9118800E+02  0.7816164E-02  0.1184000E+00
        -11   -1    0    0    0    0  0.00000000000E+00  0.00000000000E+00  0.45593999997E+02  0.45594000000E+02  0.51100000000E-03 0.  1.
         11   -1    0    0    0    0 -0.00000000000E+00 -0.00000000000E+00 -0.45593999997E+02  0.45594000000E+02  0.51100000000E-03 0. -1.
         23    2    1    2    0    0 -0.71054273576E-14  0.88817841970E-15  0.00000000000E+00  0.91188000000E+02  0.91188000000E+02 0.  0.
    9900012    2    3    3    0    0  0.25382722052E+02 -0.53393776929E+01  0.26134062515E+02  0.54367071760E+02  0.39999971691E+02 0.  0.
         12    1    3    3    0    0 -0.25382722052E+02  0.53393776929E+01 -0.26134062515E+02  0.36820928240E+02  0.00000000000E+00 0. -1.
         11    1    4    4    0    0  0.21535281567E+01  0.23381669885E+01 -0.27285305343E+01  0.41892227830E+01  0.51100000000E-03 0. -1.
        -11    1    4    4    0    0  0.19722335080E+01 -0.95731042118E+01  0.27047642549E+02  0.28759502725E+02  0.51100000000E-03 0.  1.
        -12    1    4    4    0    0  0.21256960387E+02  0.18955595304E+01  0.18149505004E+01  0.21418346252E+02  0.00000000000E+00 0.  1.
</event>
<event>
 8    1  0.2514877E-006  0.9118800E+02  0.7816164E-02  0.1184000E+00
        -11   -1    0    0    0    0  0.00000000000E+00  0.00000000000E+00  0.45593999997E+02  0.45594000000E+02  0.51100000000E-03 0.  1.
         11   -1    0    0    0    0 -0.00000000000E+00 -0.00000000000E+00 -0.45593999997E+02  0.45594000000E+02  0.51100000000E-03 0. -1.
         23    2    1    2    0    0  0.00000000000E+00  0.00000000000E+00  0.00000000000E+00  0.91188000000E+02  0.91188000000E+02 0.  0.
    9900012    2    3    3    0    0 -0.15141683972E+02  0.27358258596E+02  0.19443175544E+02  0.54367055116E+02  0.39999933747E+02 0.  0.
        -12    1    3    3    0    0  0.15141683972E+02 -0.27358258596E+02 -0.19443175544E+02  0.36820944884E+02  0.00000000000E+00 0.  1.
         11    1    4    4    0    0 -0.10723983641E+02  0.20166188476E+02 -0.11471019180E+01  0.22869080126E+02  0.51100000000E-03 0. -1.
        -11    1    4    4    0    0  0.42618683726E+01  0.97869001285E+01  0.19685922943E+02  0.22393804914E+02  0.51100000000E-03 0.  1.
        -12    1    4    4    0    0 -0.86795687040E+01 -0.25948300077E+01  0.90435451854E+00  0.91041700749E+01  0.00000000000E+00 0.  1.
</event>
<event>
 8    1  0.2514877E-006  0.9118800E+02  0.7816164E-02  0.1184000E+00
        -11   -1    0    0    0    0  0.00000000000E+00  0.00000000000E+00  0.45593999997E+02  0.45594000000E+02  0.51100000000E-03 0. -1.
         11   -1    0    0    0    0 -0.00000000000E+00 -0.00000000000E+00 -0.45593999997E+02  0.45594000000E+02  0.51100000000E-03 0.  1.
         23    2    1    2    0    0  0.71054273576E-14  0.00000000000E+00  0.53290705182E-14  0.91188000000E+02  0.91188000000E+02 0.  0.
    9900012    2    3    3    0    0 -0.32275738844E+02  0.87232048356E+01  0.15426030208E+02  0.54367081645E+02  0.39999994226E+02 0.  0.
        -12    1    3    3    0    0  0.32275738844E+02 -0.87232048356E+01 -0.15426030208E+02  0.36820918355E+02  0.00000000000E+00 0.  1.
         11    1    4    4    0    0 -0.16359693668E+02  0.10919982832E+02  0.10185666605E+02  0.22150246193E+02  0.51100000000E-03 0. -1.
        -11    1    4    4    0    0 -0.89194415029E+01  0.57564962668E+01 -0.93775042320E+01  0.14164436871E+02  0.51100000000E-03 0.  1.
        -12    1    4    4    0    0 -0.69966036737E+01 -0.79532742634E+01  0.14617867835E+02  0.18052398581E+02  0.00000000000E+00 0.  1.
</event>
<event>
 8    1  0.2514877E-006  0.9118800E+02  0.7816164E-02  0.1184000E+00
        -11   -1    0    0    0    0  0.00000000000E+00  0.00000000000E+00  0.45593999997E+02  0.45594000000E+02  0.51100000000E-03 0. -1.
         11   -1    0    0    0    0 -0.00000000000E+00 -0.00000000000E+00 -0.45593999997E+02  0.45594000000E+02  0.51100000000E-03 0.  1.
         23    2    1    2    0    0  0.00000000000E+00  0.00000000000E+00  0.00000000000E+00  0.91188000000E+02  0.91188000000E+02 0.  0.
    9900012    2    3    3    0    0  0.22926285840E+02 -0.26473012556E+02  0.11373062603E+02  0.54367061267E+02  0.39999947770E+02 0.  0.
         12    1    3    3    0    0 -0.22926285840E+02  0.26473012556E+02 -0.11373062603E+02  0.36820938733E+02  0.00000000000E+00 0. -1.
         11    1    4    4    0    0  0.31435561009E+01  0.25165138446E+00  0.11813100018E+02  0.12226798668E+02  0.51100000000E-03 0. -1.
        -11    1    4    4    0    0  0.18301806153E+02 -0.31145157190E+02 -0.39003765944E+01  0.36334417055E+02  0.51100000000E-03 0.  1.
        -12    1    4    4    0    0  0.14809235857E+01  0.44204932499E+01  0.34603391795E+01  0.58058455436E+01  0.00000000000E+00 0.  1.
</event>
<event>
 8    1  0.2514877E-006  0.9118800E+02  0.7816164E-02  0.1184000E+00
        -11   -1    0    0    0    0  0.00000000000E+00  0.00000000000E+00  0.45593999997E+02  0.45594000000E+02  0.51100000000E-03 0. -1.
         11   -1    0    0    0    0 -0.00000000000E+00 -0.00000000000E+00 -0.45593999997E+02  0.45594000000E+02  0.51100000000E-03 0.  1.
         23    2    1    2    0    0  0.00000000000E+00  0.13322676296E-14  0.00000000000E+00  0.91188000000E+02  0.91188000000E+02 0.  0.
    9900012    2    3    3    0    0 -0.24838607354E+02 -0.32361383779E+01  0.26987968265E+02  0.54367089664E+02  0.40000012508E+02 0.  0.
        -12    1    3    3    0    0  0.24838607354E+02  0.32361383779E+01 -0.26987968265E+02  0.36820910336E+02  0.00000000000E+00 0.  1.
         11    1    4    4    0    0 -0.22647539647E+02  0.49012236173E+01  0.28808756036E+02  0.36971306031E+02  0.51100000000E-03 0. -1.
        -11    1    4    4    0    0  0.18484019286E+01 -0.11421320728E+02 -0.32113660342E+01  0.12007332298E+02  0.51100000000E-03 0.  1.
        -12    1    4    4    0    0 -0.40394696350E+01  0.32839587324E+01  0.13905782635E+01  0.53884513355E+01  0.00000000000E+00 0.  1.
</event>
<event>
 8    1  0.2514877E-006  0.9118800E+02  0.7816164E-02  0.1184000E+00
        -11   -1    0    0    0    0  0.00000000000E+00  0.00000000000E+00  0.45593999997E+02  0.45594000000E+02  0.51100000000E-03 0. -1.
         11   -1    0    0    0    0 -0.00000000000E+00 -0.00000000000E+00 -0.45593999997E+02  0.45594000000E+02  0.51100000000E-03 0.  1.
         23    2    1    2    0    0 -0.71054273576E-14  0.44408920985E-15 -0.17763568394E-14  0.91188000000E+02  0.91188000000E+02 0.  0.
    9900012    2    3    3    0    0 -0.34491493671E+02 -0.35198767967E+01 -0.12398678887E+02  0.54367083302E+02  0.39999998005E+02 0.  0.
         12    1    3    3    0    0  0.34491493671E+02  0.35198767967E+01  0.12398678887E+02  0.36820916698E+02  0.00000000000E+00 0. -1.
         11    1    4    4    0    0 -0.45813754861E+01 -0.89229663267E+00 -0.95782350171E+01  0.10654941620E+02  0.51100000000E-03 0. -1.
        -11    1    4    4    0    0 -0.12464570244E+02  0.92684357103E+01 -0.13014789976E+02  0.20264603876E+02  0.51100000000E-03 0.  1.
         12    1    4    4    0    0 -0.17445547941E+02 -0.11896015874E+02  0.10194346106E+02  0.23447537806E+02  0.00000000000E+00 0. -1.
</event>
<event>
 8    1  0.2514877E-006  0.9118800E+02  0.7816164E-02  0.1184000E+00
        -11   -1    0    0    0    0  0.00000000000E+00  0.00000000000E+00  0.45593999997E+02  0.45594000000E+02  0.51100000000E-03 0. -1.
         11   -1    0    0    0    0 -0.00000000000E+00 -0.00000000000E+00 -0.45593999997E+02  0.45594000000E+02  0.51100000000E-03 0.  1.
         23    2    1    2    0    0  0.00000000000E+00  0.00000000000E+00 -0.17763568394E-14  0.91188000000E+02  0.91188000000E+02 0.  0.
    9900012    2    3    3    0    0 -0.87551234860E+01 -0.33996709227E+02  0.11106415889E+02  0.54367069819E+02  0.39999967266E+02 0.  0.
        -12    1    3    3    0    0  0.87551234860E+01  0.33996709227E+02 -0.11106415889E+02  0.36820930181E+02  0.00000000000E+00 0.  1.
         11    1    4    4    0    0 -0.65869964500E+01 -0.11116516383E+02  0.10243532830E+02  0.16489251767E+02  0.51100000000E-03 0. -1.
        -11    1    4    4    0    0 -0.17257690006E+01  0.55437258696E+01  0.66912528256E+01  0.88591218413E+01  0.51100000000E-03 0.  1.
        -12    1    4    4    0    0 -0.44235803542E+00 -0.28423918713E+02 -0.58283697671E+01  0.29018696211E+02  0.00000000000E+00 0.  1.
</event>
<event>
 8    1  0.2514877E-006  0.9118800E+02  0.7816164E-02  0.1184000E+00
        -11   -1    0    0    0    0  0.00000000000E+00  0.00000000000E+00  0.45593999997E+02  0.45594000000E+02  0.51100000000E-03 0.  1.
         11   -1    0    0    0    0 -0.00000000000E+00 -0.00000000000E+00 -0.45593999997E+02  0.45594000000E+02  0.51100000000E-03 0. -1.
         23    2    1    2    0    0  0.17763568394E-14  0.00000000000E+00  0.00000000000E+00  0.91188000000E+02  0.91188000000E+02 0.  0.
    9900012    2    3    3    0    0 -0.14398628263E+02 -0.28641926213E+02  0.18113509604E+02  0.54367086605E+02  0.40000005534E+02 0.  0.
         12    1    3    3    0    0  0.14398628263E+02  0.28641926213E+02 -0.18113509604E+02  0.36820913395E+02  0.00000000000E+00 0. -1.
         11    1    4    4    0    0 -0.24688130273E+02 -0.14177692569E+02  0.26625728688E+01  0.28593706257E+02  0.51100000000E-03 0. -1.
        -11    1    4    4    0    0  0.91667216424E+01 -0.16016037535E+02  0.12623818236E+02  0.22358511380E+02  0.51100000000E-03 0.  1.
         12    1    4    4    0    0  0.11227803676E+01  0.15518038905E+01  0.28271184985E+01  0.34148689686E+01  0.00000000000E+00 0. -1.
</event>
<event>
 8    1  0.2514877E-006  0.9118800E+02  0.7816164E-02  0.1184000E+00
        -11   -1    0    0    0    0  0.00000000000E+00  0.00000000000E+00  0.45593999997E+02  0.45594000000E+02  0.51100000000E-03 0. -1.
         11   -1    0    0    0    0 -0.00000000000E+00 -0.00000000000E+00 -0.45593999997E+02  0.45594000000E+02  0.51100000000E-03 0.  1.
         23    2    1    2    0    0  0.00000000000E+00  0.00000000000E+00  0.00000000000E+00  0.91188000000E+02  0.91188000000E+02 0.  0.
    9900012    2    3    3    0    0 -0.46570544410E+01  0.32959861365E+02 -0.15739769605E+02  0.54367068935E+02  0.39999965251E+02 0.  0.
         12    1    3    3    0    0  0.46570544410E+01 -0.32959861365E+02  0.15739769605E+02  0.36820931065E+02  0.00000000000E+00 0. -1.
         11    1    4    4    0    0 -0.17429629892E+01 -0.36424635975E+01  0.78412376817E+01  0.88198905709E+01  0.51100000000E-03 0. -1.
        -11    1    4    4    0    0  0.20435637459E+01  0.95367035097E+01 -0.73094034249E+00  0.97805490982E+01  0.51100000000E-03 0.  1.
         12    1    4    4    0    0 -0.49576551978E+01  0.27065621453E+02 -0.22850066944E+02  0.35766629266E+02  0.00000000000E+00 0. -1.
</event>
<event>
 8    1  0.2514877E-006  0.9118800E+02  0.7816164E-02  0.1184000E+00
        -11   -1    0    0    0    0  0.00000000000E+00  0.00000000000E+00  0.45593999997E+02  0.45594000000E+02  0.51100000000E-03 0.  1.
         11   -1    0    0    0    0 -0.00000000000E+00 -0.00000000000E+00 -0.45593999997E+02  0.45594000000E+02  0.51100000000E-03 0. -1.
         23    2    1    2    0    0  0.00000000000E+00  0.35527136788E-14  0.00000000000E+00  0.91188000000E+02  0.91188000000E+02 0.  0.
    9900012    2    3    3    0    0  0.55455396044E+01  0.15343159721E+02 -0.33009313063E+02  0.54367077841E+02  0.39999985555E+02 0.  0.
        -12    1    3    3    0    0 -0.55455396044E+01 -0.15343159721E+02  0.33009313063E+02  0.36820922159E+02  0.00000000000E+00 0.  1.
         11    1    4    4    0    0  0.46027263481E+01 -0.42311594911E+00  0.25730645386E+01  0.52900641133E+01  0.51100000000E-03 0. -1.
        -11    1    4    4    0    0  0.28186196850E+00 -0.46113094766E+01  0.29511902938E+01  0.54820749420E+01  0.51100000000E-03 0.  1.
         12    1    4    4    0    0  0.66095128778E+00  0.20377585147E+02 -0.38533567895E+02  0.43594938786E+02  0.00000000000E+00 0. -1.
</event>
<event>
 8    1  0.2514877E-006  0.9118800E+02  0.7816164E-02  0.1184000E+00
        -11   -1    0    0    0    0  0.00000000000E+00  0.00000000000E+00  0.45593999997E+02  0.45594000000E+02  0.51100000000E-03 0.  1.
         11   -1    0    0    0    0 -0.00000000000E+00 -0.00000000000E+00 -0.45593999997E+02  0.45594000000E+02  0.51100000000E-03 0. -1.
         23    2    1    2    0    0 -0.35527136788E-14  0.17763568394E-14  0.00000000000E+00  0.91188000000E+02  0.91188000000E+02 0.  0.
    9900012    2    3    3    0    0  0.30330169163E+02  0.12186681645E+02  0.16951258706E+02  0.54367088242E+02  0.40000009265E+02 0.  0.
         12    1    3    3    0    0 -0.30330169163E+02 -0.12186681645E+02 -0.16951258706E+02  0.36820911758E+02  0.00000000000E+00 0. -1.
         11    1    4    4    0    0  0.17293912448E+01 -0.11993342055E+02  0.49163442504E+01  0.13076753755E+02  0.51100000000E-03 0. -1.
        -11    1    4    4    0    0  0.15900667789E+02  0.14073539379E+02  0.25575126569E+00  0.21235846010E+02  0.51100000000E-03 0.  1.
         12    1    4    4    0    0  0.12700110130E+02  0.10106484321E+02  0.11779163190E+02  0.20054488477E+02  0.00000000000E+00 0. -1.
</event>
<event>
 8    1  0.2514877E-006  0.9118800E+02  0.7816164E-02  0.1184000E+00
        -11   -1    0    0    0    0  0.00000000000E+00  0.00000000000E+00  0.45593999997E+02  0.45594000000E+02  0.51100000000E-03 0. -1.
         11   -1    0    0    0    0 -0.00000000000E+00 -0.00000000000E+00 -0.45593999997E+02  0.45594000000E+02  0.51100000000E-03 0.  1.
         23    2    1    2    0    0 -0.71054273576E-14 -0.17763568394E-14  0.00000000000E+00  0.91188000000E+02  0.91188000000E+02 0.  0.
    9900012    2    3    3    0    0  0.33446995833E+02 -0.89565874034E+01 -0.12524491036E+02  0.54367015985E+02  0.39999844540E+02 0.  0.
         12    1    3    3    0    0 -0.33446995833E+02  0.89565874034E+01  0.12524491036E+02  0.36820984015E+02  0.00000000000E+00 0. -1.
         11    1    4    4    0    0  0.13979910158E+02  0.13459350910E+02 -0.93122273765E+01  0.21524627614E+02  0.51100000000E-03 0.  1.
        -11    1    4    4    0    0  0.13244917766E+02 -0.99056747519E+01 -0.75937469936E+01  0.18199319564E+02  0.51100000000E-03 0. -1.
        -12    1    4    4    0    0  0.62221679083E+01 -0.12510263562E+02  0.43814833339E+01  0.14643068807E+02  0.00000000000E+00 0.  1.
</event>
<event>
 8    1  0.2514877E-006  0.9118800E+02  0.7816164E-02  0.1184000E+00
        -11   -1    0    0    0    0  0.00000000000E+00  0.00000000000E+00  0.45593999997E+02  0.45594000000E+02  0.51100000000E-03 0. -1.
         11   -1    0    0    0    0 -0.00000000000E+00 -0.00000000000E+00 -0.45593999997E+02  0.45594000000E+02  0.51100000000E-03 0.  1.
         23    2    1    2    0    0  0.00000000000E+00  0.44408920985E-15  0.35527136788E-14  0.91188000000E+02  0.91188000000E+02 0.  0.
    9900012    2    3    3    0    0  0.26609881498E+02 -0.22958671957E+01  0.25346082895E+02  0.54367072287E+02  0.39999972892E+02 0.  0.
        -12    1    3    3    0    0 -0.26609881498E+02  0.22958671957E+01 -0.25346082895E+02  0.36820927713E+02  0.00000000000E+00 0.  1.
         11    1    4    4    0    0  0.27067671132E+02 -0.41766713425E+01  0.31979540969E+02  0.42104565606E+02  0.51100000000E-03 0. -1.
        -11    1    4    4    0    0 -0.37509521731E+01  0.37455429438E+01 -0.87614250334E+00  0.53727423255E+01  0.51100000000E-03 0.  1.
         12    1    4    4    0    0  0.32931625397E+01 -0.18647387971E+01 -0.57573155704E+01  0.68897643553E+01  0.00000000000E+00 0. -1.
</event>
<event>
 8    1  0.2514877E-006  0.9118800E+02  0.7816164E-02  0.1184000E+00
        -11   -1    0    0    0    0  0.00000000000E+00  0.00000000000E+00  0.45593999997E+02  0.45594000000E+02  0.51100000000E-03 0. -1.
         11   -1    0    0    0    0 -0.00000000000E+00 -0.00000000000E+00 -0.45593999997E+02  0.45594000000E+02  0.51100000000E-03 0.  1.
         23    2    1    2    0    0  0.51347814889E-15  0.71054273576E-14  0.00000000000E+00  0.91188000000E+02  0.91188000000E+02 0.  0.
    9900012    2    3    3    0    0 -0.89887894696E-01 -0.22124061633E+02 -0.29432957749E+02  0.54367065943E+02  0.39999958431E+02 0.  0.
         12    1    3    3    0    0  0.89887894696E-01  0.22124061633E+02  0.29432957749E+02  0.36820934057E+02  0.00000000000E+00 0. -1.
         11    1    4    4    0    0  0.23524371371E+01  0.59875131772E+01  0.25712095758E+01  0.69278707750E+01  0.51100000000E-03 0. -1.
        -11    1    4    4    0    0  0.51831980709E+01 -0.30749505044E+01  0.88839443819E-01  0.60273340337E+01  0.51100000000E-03 0.  1.
         12    1    4    4    0    0 -0.76255231027E+01 -0.25036624306E+02 -0.32093006768E+02  0.41411861135E+02  0.00000000000E+00 0. -1.
</event>
<event>
 8    1  0.2514877E-006  0.9118800E+02  0.7816164E-02  0.1184000E+00
        -11   -1    0    0    0    0  0.00000000000E+00  0.00000000000E+00  0.45593999997E+02  0.45594000000E+02  0.51100000000E-03 0.  1.
         11   -1    0    0    0    0 -0.00000000000E+00 -0.00000000000E+00 -0.45593999997E+02  0.45594000000E+02  0.51100000000E-03 0. -1.
         23    2    1    2    0    0  0.00000000000E+00  0.00000000000E+00  0.00000000000E+00  0.91188000000E+02  0.91188000000E+02 0.  0.
    9900012    2    3    3    0    0  0.30560480409E+01 -0.26902520476E+02 -0.24953829494E+02  0.54367100445E+02  0.40000037085E+02 0.  0.
        -12    1    3    3    0    0 -0.30560480409E+01  0.26902520476E+02  0.24953829494E+02  0.36820899555E+02  0.00000000000E+00 0.  1.
         11    1    4    4    0    0  0.15608386331E+02 -0.90580709479E+01 -0.20235995477E+02  0.27113942656E+02  0.51100000000E-03 0. -1.
        -11    1    4    4    0    0 -0.64288996073E+01  0.21004664052E+00 -0.50621812922E+01  0.81853863346E+01  0.51100000000E-03 0.  1.
         12    1    4    4    0    0 -0.61234386830E+01 -0.18054496169E+02  0.34434727424E+00  0.19067771455E+02  0.00000000000E+00 0. -1.
</event>
<event>
 8    1  0.2514877E-006  0.9118800E+02  0.7816164E-02  0.1184000E+00
        -11   -1    0    0    0    0  0.00000000000E+00  0.00000000000E+00  0.45593999997E+02  0.45594000000E+02  0.51100000000E-03 0.  1.
         11   -1    0    0    0    0 -0.00000000000E+00 -0.00000000000E+00 -0.45593999997E+02  0.45594000000E+02  0.51100000000E-03 0. -1.
         23    2    1    2    0    0 -0.35527136788E-14  0.00000000000E+00  0.00000000000E+00  0.91188000000E+02  0.91188000000E+02 0.  0.
    9900012    2    3    3    0    0  0.30431308137E+02  0.18784103617E+02 -0.87676679761E+01  0.54367094724E+02  0.40000024041E+02 0.  0.
         12    1    3    3    0    0 -0.30431308137E+02 -0.18784103617E+02  0.87676679761E+01  0.36820905276E+02  0.00000000000E+00 0. -1.
         11    1    4    4    0    0  0.21932229041E+01 -0.83593948473E+01  0.43903071346E+01  0.96935290745E+01  0.51100000000E-03 0. -1.
        -11    1    4    4    0    0  0.41394350286E+01  0.91124706773E+01  0.30843056021E+01  0.10473059988E+02  0.51100000000E-03 0.  1.
        -12    1    4    4    0    0  0.24098650205E+02  0.18031027787E+02 -0.16242280713E+02  0.34200505661E+02  0.00000000000E+00 0.  1.
</event>
<event>
 8    1  0.2514877E-006  0.9118800E+02  0.7816164E-02  0.1184000E+00
        -11   -1    0    0    0    0  0.00000000000E+00  0.00000000000E+00  0.45593999997E+02  0.45594000000E+02  0.51100000000E-03 0.  1.
         11   -1    0    0    0    0 -0.00000000000E+00 -0.00000000000E+00 -0.45593999997E+02  0.45594000000E+02  0.51100000000E-03 0. -1.
         23    2    1    2    0    0  0.71054273576E-14  0.88817841970E-15  0.00000000000E+00  0.91188000000E+02  0.91188000000E+02 0.  0.
    9900012    2    3    3    0    0 -0.31815763538E+02  0.66299783680E+01 -0.17308357801E+02  0.54367100059E+02  0.40000036204E+02 0.  0.
         12    1    3    3    0    0  0.31815763538E+02 -0.66299783680E+01  0.17308357801E+02  0.36820899941E+02  0.00000000000E+00 0. -1.
         11    1    4    4    0    0 -0.13259609578E+02 -0.88706944981E+01 -0.22133841075E+02  0.27283940112E+02  0.51100000000E-03 0. -1.
        -11    1    4    4    0    0  0.49788702557E+00  0.47392317416E+01  0.97350608328E+00  0.48637355341E+01  0.51100000000E-03 0.  1.
         12    1    4    4    0    0 -0.19054040986E+02  0.10761441125E+02  0.38519771901E+01  0.22219424413E+02  0.00000000000E+00 0. -1.
</event>
<event>
 8    1  0.2514877E-006  0.9118800E+02  0.7816164E-02  0.1184000E+00
        -11   -1    0    0    0    0  0.00000000000E+00  0.00000000000E+00  0.45593999997E+02  0.45594000000E+02  0.51100000000E-03 0. -1.
         11   -1    0    0    0    0 -0.00000000000E+00 -0.00000000000E+00 -0.45593999997E+02  0.45594000000E+02  0.51100000000E-03 0.  1.
         23    2    1    2    0    0  0.35527136788E-14  0.00000000000E+00  0.00000000000E+00  0.91188000000E+02  0.91188000000E+02 0.  0.
    9900012    2    3    3    0    0  0.25899170372E+02  0.18073226773E+02  0.18930701227E+02  0.54367082020E+02  0.39999995080E+02 0.  0.
        -12    1    3    3    0    0 -0.25899170372E+02 -0.18073226773E+02 -0.18930701227E+02  0.36820917980E+02  0.00000000000E+00 0.  1.
         11    1    4    4    0    0  0.13228816594E+02 -0.77581585625E+01  0.18433466429E+01  0.15446311529E+02  0.51100000000E-03 0. -1.
        -11    1    4    4    0    0  0.88926091367E-01  0.11942233642E+02 -0.20708902058E+01  0.12120785400E+02  0.51100000000E-03 0.  1.
        -12    1    4    4    0    0  0.12581427687E+02  0.13889151694E+02  0.19158244790E+02  0.26799985091E+02  0.00000000000E+00 0.  1.
</event>
<event>
 8    1  0.2514877E-006  0.9118800E+02  0.7816164E-02  0.1184000E+00
        -11   -1    0    0    0    0  0.00000000000E+00  0.00000000000E+00  0.45593999997E+02  0.45594000000E+02  0.51100000000E-03 0.  1.
         11   -1    0    0    0    0 -0.00000000000E+00 -0.00000000000E+00 -0.45593999997E+02  0.45594000000E+02  0.51100000000E-03 0. -1.
         23    2    1    2    0    0  0.35527136788E-14  0.00000000000E+00  0.71054273576E-14  0.91188000000E+02  0.91188000000E+02 0.  0.
    9900012    2    3    3    0    0 -0.15140259001E+02 -0.44672690545E+01 -0.33265529264E+02  0.54367090552E+02  0.40000014530E+02 0.  0.
        -12    1    3    3    0    0  0.15140259001E+02  0.44672690545E+01  0.33265529264E+02  0.36820909448E+02  0.00000000000E+00 0.  1.
         11    1    4    4    0    0 -0.12348546965E+02 -0.12077871565E+02 -0.57969680366E+01  0.18219946003E+02  0.51100000000E-03 0.  1.
        -11    1    4    4    0    0  0.76246361957E+01 -0.30008397425E+01 -0.65918486902E+01  0.10516300951E+02  0.51100000000E-03 0. -1.
         12    1    4    4    0    0 -0.10416348231E+02  0.10611442253E+02 -0.20876712537E+02  0.25630843597E+02  0.00000000000E+00 0. -1.
</event>
<event>
 8    1  0.2514877E-006  0.9118800E+02  0.7816164E-02  0.1184000E+00
        -11   -1    0    0    0    0  0.00000000000E+00  0.00000000000E+00  0.45593999997E+02  0.45594000000E+02  0.51100000000E-03 0.  1.
         11   -1    0    0    0    0 -0.00000000000E+00 -0.00000000000E+00 -0.45593999997E+02  0.45594000000E+02  0.51100000000E-03 0. -1.
         23    2    1    2    0    0  0.88817841970E-15 -0.11102230246E-15  0.71054273576E-14  0.91188000000E+02  0.91188000000E+02 0.  0.
    9900012    2    3    3    0    0  0.49212344306E+01  0.80852640674E+00  0.36481658324E+02  0.54367032368E+02  0.39999881889E+02 0.  0.
         12    1    3    3    0    0 -0.49212344306E+01 -0.80852640674E+00 -0.36481658324E+02  0.36820967632E+02  0.00000000000E+00 0. -1.
         11    1    4    4    0    0  0.16971733521E+01  0.99776765045E+01  0.75577403423E+00  0.10149168462E+02  0.51100000000E-03 0. -1.
        -11    1    4    4    0    0  0.21714965161E+01 -0.10555628800E+01  0.35952175509E+02  0.36033158816E+02  0.51100000000E-03 0.  1.
        -12    1    4    4    0    0  0.10525645623E+01 -0.81135872178E+01 -0.22629121904E+00  0.81847050903E+01  0.00000000000E+00 0.  1.
</event>
<event>
 8    1  0.2514877E-006  0.9118800E+02  0.7816164E-02  0.1184000E+00
        -11   -1    0    0    0    0  0.00000000000E+00  0.00000000000E+00  0.45593999997E+02  0.45594000000E+02  0.51100000000E-03 0.  1.
         11   -1    0    0    0    0 -0.00000000000E+00 -0.00000000000E+00 -0.45593999997E+02  0.45594000000E+02  0.51100000000E-03 0. -1.
         23    2    1    2    0    0  0.71054273576E-14 -0.88817841970E-15  0.00000000000E+00  0.91188000000E+02  0.91188000000E+02 0.  0.
    9900012    2    3    3    0    0  0.25224850600E+02 -0.59634648304E+01  0.26151935181E+02  0.54367085912E+02  0.40000003954E+02 0.  0.
         12    1    3    3    0    0 -0.25224850600E+02  0.59634648304E+01 -0.26151935181E+02  0.36820914088E+02  0.00000000000E+00 0. -1.
         11    1    4    4    0    0 -0.19483958609E+01 -0.27299105664E+01  0.62070947698E+01  0.70552593060E+01  0.51100000000E-03 0. -1.
        -11    1    4    4    0    0  0.27608121426E+01  0.10398794160E+02  0.15696790112E+02  0.19030139877E+02  0.51100000000E-03 0.  1.
         12    1    4    4    0    0  0.24412434318E+02 -0.13632348424E+02  0.42480502989E+01  0.28281686729E+02  0.00000000000E+00 0. -1.
</event>
<event>
 8    1  0.2514877E-006  0.9118800E+02  0.7816164E-02  0.1184000E+00
        -11   -1    0    0    0    0  0.00000000000E+00  0.00000000000E+00  0.45593999997E+02  0.45594000000E+02  0.51100000000E-03 0.  1.
         11   -1    0    0    0    0 -0.00000000000E+00 -0.00000000000E+00 -0.45593999997E+02  0.45594000000E+02  0.51100000000E-03 0. -1.
         23    2    1    2    0    0  0.00000000000E+00  0.24424906542E-14  0.00000000000E+00  0.91188000000E+02  0.91188000000E+02 0.  0.
    9900012    2    3    3    0    0  0.44932021705E+01  0.11128306795E+01 -0.36528797517E+02  0.54367077878E+02  0.39999985639E+02 0.  0.
        -12    1    3    3    0    0 -0.44932021705E+01 -0.11128306795E+01  0.36528797517E+02  0.36820922122E+02  0.00000000000E+00 0.  1.
         11    1    4    4    0    0  0.15426432530E+01 -0.88222916538E+01 -0.90943319086E+01  0.12763990417E+02  0.51100000000E-03 0. -1.
        -11    1    4    4    0    0  0.71432804603E+01 -0.91819202133E+01 -0.88892593667E+01  0.14640800760E+02  0.51100000000E-03 0.  1.
        -12    1    4    4    0    0 -0.41927215428E+01  0.19117042547E+02 -0.18545206241E+02  0.26962286702E+02  0.00000000000E+00 0.  1.
</event>
<event>
 8    1  0.2514877E-006  0.9118800E+02  0.7816164E-02  0.1184000E+00
        -11   -1    0    0    0    0  0.00000000000E+00  0.00000000000E+00  0.45593999997E+02  0.45594000000E+02  0.51100000000E-03 0.  1.
         11   -1    0    0    0    0 -0.00000000000E+00 -0.00000000000E+00 -0.45593999997E+02  0.45594000000E+02  0.51100000000E-03 0. -1.
         23    2    1    2    0    0  0.00000000000E+00  0.00000000000E+00  0.35527136788E-14  0.91188000000E+02  0.91188000000E+02 0.  0.
    9900012    2    3    3    0    0 -0.15069105728E+02  0.12538220346E+02  0.31168805014E+02  0.54367091227E+02  0.40000016069E+02 0.  0.
         12    1    3    3    0    0  0.15069105728E+02 -0.12538220346E+02 -0.31168805014E+02  0.36820908773E+02  0.00000000000E+00 0. -1.
         11    1    4    4    0    0 -0.31459383872E+01  0.16834491193E+01 -0.20188976475E+01  0.40996191586E+01  0.51100000000E-03 0. -1.
        -11    1    4    4    0    0  0.27511583449E+01  0.16737690863E+02  0.45601891444E+01  0.17564580637E+02  0.51100000000E-03 0.  1.
        -12    1    4    4    0    0 -0.14674325685E+02 -0.58829196358E+01  0.28627513517E+02  0.32702891431E+02  0.00000000000E+00 0.  1.
</event>
<event>
 8    1  0.2514877E-006  0.9118800E+02  0.7816164E-02  0.1184000E+00
        -11   -1    0    0    0    0  0.00000000000E+00  0.00000000000E+00  0.45593999997E+02  0.45594000000E+02  0.51100000000E-03 0. -1.
         11   -1    0    0    0    0 -0.00000000000E+00 -0.00000000000E+00 -0.45593999997E+02  0.45594000000E+02  0.51100000000E-03 0.  1.
         23    2    1    2    0    0  0.35527136788E-14  0.11102230246E-15  0.00000000000E+00  0.91188000000E+02  0.91188000000E+02 0.  0.
    9900012    2    3    3    0    0 -0.23916987356E+02  0.58439188138E+00  0.27989569407E+02  0.54367084835E+02  0.40000001498E+02 0.  0.
        -12    1    3    3    0    0  0.23916987356E+02 -0.58439188138E+00 -0.27989569407E+02  0.36820915165E+02  0.00000000000E+00 0.  1.
         11    1    4    4    0    0 -0.75327405114E+00  0.23669327161E+01 -0.22907130983E+01  0.33789286821E+01  0.51100000000E-03 0. -1.
        -11    1    4    4    0    0 -0.34636625024E+01  0.10912997856E+02  0.24206080523E+02  0.26777319034E+02  0.51100000000E-03 0.  1.
         12    1    4    4    0    0 -0.19700050802E+02 -0.12695538691E+02  0.60742019823E+01  0.24210837118E+02  0.00000000000E+00 0. -1.
</event>
<event>
 8    1  0.2514877E-006  0.9118800E+02  0.7816164E-02  0.1184000E+00
        -11   -1    0    0    0    0  0.00000000000E+00  0.00000000000E+00  0.45593999997E+02  0.45594000000E+02  0.51100000000E-03 0.  1.
         11   -1    0    0    0    0 -0.00000000000E+00 -0.00000000000E+00 -0.45593999997E+02  0.45594000000E+02  0.51100000000E-03 0. -1.
         23    2    1    2    0    0  0.00000000000E+00  0.00000000000E+00 -0.88817841970E-15  0.91188000000E+02  0.91188000000E+02 0.  0.
    9900012    2    3    3    0    0 -0.98922047391E+01  0.34975578312E+02  0.58865589533E+01  0.54366832593E+02  0.39999426459E+02 0.  0.
         12    1    3    3    0    0  0.98922047391E+01 -0.34975578312E+02 -0.58865589533E+01  0.36821167407E+02  0.00000000000E+00 0. -1.
         11    1    4    4    0    0  0.75493448408E+01  0.13901555643E+02 -0.47624564919E+01  0.16520497841E+02  0.51100000000E-03 0. -1.
        -11    1    4    4    0    0 -0.17951045596E+02  0.21881446712E+02  0.11777853898E+01  0.28327105869E+02  0.51100000000E-03 0.  1.
        -12    1    4    4    0    0  0.50949601574E+00 -0.80742404293E+00  0.94712300554E+01  0.95192288835E+01  0.00000000000E+00 0.  1.
</event>
<event>
 8    1  0.2514877E-006  0.9118800E+02  0.7816164E-02  0.1184000E+00
        -11   -1    0    0    0    0  0.00000000000E+00  0.00000000000E+00  0.45593999997E+02  0.45594000000E+02  0.51100000000E-03 0.  1.
         11   -1    0    0    0    0 -0.00000000000E+00 -0.00000000000E+00 -0.45593999997E+02  0.45594000000E+02  0.51100000000E-03 0. -1.
         23    2    1    2    0    0  0.00000000000E+00  0.00000000000E+00  0.44408920985E-15  0.91188000000E+02  0.91188000000E+02 0.  0.
    9900012    2    3    3    0    0 -0.17630878687E+02  0.32285033426E+02 -0.16149606173E+01  0.54367090663E+02  0.40000014785E+02 0.  0.
        -12    1    3    3    0    0  0.17630878687E+02 -0.32285033426E+02  0.16149606173E+01  0.36820909337E+02  0.00000000000E+00 0.  1.
         11    1    4    4    0    0 -0.51113772823E+01  0.32174514469E+02 -0.33699588872E+01  0.32751827158E+02  0.51100000000E-03 0. -1.
        -11    1    4    4    0    0 -0.14408212037E+02  0.31990769653E+01  0.60910426360E+01  0.15966573465E+02  0.51100000000E-03 0.  1.
        -12    1    4    4    0    0  0.18887106328E+01 -0.30885580085E+01 -0.43360443661E+01  0.56486900403E+01  0.00000000000E+00 0.  1.
</event>
<event>
 8    1  0.2514877E-006  0.9118800E+02  0.7816164E-02  0.1184000E+00
        -11   -1    0    0    0    0  0.00000000000E+00  0.00000000000E+00  0.45593999997E+02  0.45594000000E+02  0.51100000000E-03 0. -1.
         11   -1    0    0    0    0 -0.00000000000E+00 -0.00000000000E+00 -0.45593999997E+02  0.45594000000E+02  0.51100000000E-03 0.  1.
         23    2    1    2    0    0  0.00000000000E+00  0.00000000000E+00  0.71054273576E-14  0.91188000000E+02  0.91188000000E+02 0.  0.
    9900012    2    3    3    0    0  0.16357480390E+02  0.67036787543E+01 -0.32299755249E+02  0.54367073033E+02  0.39999974594E+02 0.  0.
         12    1    3    3    0    0 -0.16357480390E+02 -0.67036787543E+01  0.32299755249E+02  0.36820926967E+02  0.00000000000E+00 0. -1.
         11    1    4    4    0    0 -0.70225554821E+01  0.63563060402E+01 -0.16878911644E+02  0.19355014093E+02  0.51100000000E-03 0. -1.
        -11    1    4    4    0    0  0.21976122727E+02 -0.73852664083E-01 -0.20300113897E+02  0.29917387065E+02  0.51100000000E-03 0.  1.
         12    1    4    4    0    0  0.14039131447E+01  0.42122537824E+00  0.48792702919E+01  0.50946718755E+01  0.00000000000E+00 0. -1.
</event>
<event>
 8    1  0.2514877E-006  0.9118800E+02  0.7816164E-02  0.1184000E+00
        -11   -1    0    0    0    0  0.00000000000E+00  0.00000000000E+00  0.45593999997E+02  0.45594000000E+02  0.51100000000E-03 0.  1.
         11   -1    0    0    0    0 -0.00000000000E+00 -0.00000000000E+00 -0.45593999997E+02  0.45594000000E+02  0.51100000000E-03 0. -1.
         23    2    1    2    0    0 -0.66613381478E-15 -0.35527136788E-14  0.00000000000E+00  0.91188000000E+02  0.91188000000E+02 0.  0.
    9900012    2    3    3    0    0 -0.27320771418E+00  0.17470835847E+02 -0.32411033365E+02  0.54367084321E+02  0.40000000326E+02 0.  0.
        -12    1    3    3    0    0  0.27320771418E+00 -0.17470835847E+02  0.32411033365E+02  0.36820915679E+02  0.00000000000E+00 0.  1.
         11    1    4    4    0    0 -0.56712931339E+01  0.15726110685E+02 -0.65338364694E+01  0.17948959367E+02  0.51100000000E-03 0. -1.
        -11    1    4    4    0    0  0.56498137699E+01 -0.98058573612E-01 -0.30717433396E+02  0.31232846906E+02  0.51100000000E-03 0.  1.
        -12    1    4    4    0    0 -0.25172835019E+00  0.18427837359E+01  0.48402365006E+01  0.51852780486E+01  0.00000000000E+00 0.  1.
</event>
<event>
 8    1  0.2514877E-006  0.9118800E+02  0.7816164E-02  0.1184000E+00
        -11   -1    0    0    0    0  0.00000000000E+00  0.00000000000E+00  0.45593999997E+02  0.45594000000E+02  0.51100000000E-03 0.  1.
         11   -1    0    0    0    0 -0.00000000000E+00 -0.00000000000E+00 -0.45593999997E+02  0.45594000000E+02  0.51100000000E-03 0. -1.
         23    2    1    2    0    0 -0.88817841970E-15  0.00000000000E+00  0.17763568394E-14  0.91188000000E+02  0.91188000000E+02 0.  0.
    9900012    2    3    3    0    0  0.46891251068E+01  0.36180476962E+02  0.49765774450E+01  0.54367066680E+02  0.39999960111E+02 0.  0.
        -12    1    3    3    0    0 -0.46891251068E+01 -0.36180476962E+02 -0.49765774450E+01  0.36820933320E+02  0.00000000000E+00 0.  1.
         11    1    4    4    0    0 -0.14473268773E+01  0.16381368988E+01 -0.12453286691E+02  0.12643678154E+02  0.51100000000E-03 0. -1.
        -11    1    4    4    0    0  0.75301687391E+01  0.13255177541E+02  0.12772463069E+02  0.19888161956E+02  0.51100000000E-03 0.  1.
         12    1    4    4    0    0 -0.13937167549E+01  0.21287162522E+02  0.46574010668E+01  0.21835226570E+02  0.00000000000E+00 0. -1.
</event>
<event>
 8    1  0.2514877E-006  0.9118800E+02  0.7816164E-02  0.1184000E+00
        -11   -1    0    0    0    0  0.00000000000E+00  0.00000000000E+00  0.45593999997E+02  0.45594000000E+02  0.51100000000E-03 0. -1.
         11   -1    0    0    0    0 -0.00000000000E+00 -0.00000000000E+00 -0.45593999997E+02  0.45594000000E+02  0.51100000000E-03 0.  1.
         23    2    1    2    0    0  0.13322676296E-14  0.71054273576E-14  0.17763568394E-14  0.91188000000E+02  0.91188000000E+02 0.  0.
    9900012    2    3    3    0    0  0.34604834115E+01  0.35597098046E+02  0.87550799843E+01  0.54367085287E+02  0.40000002529E+02 0.  0.
        -12    1    3    3    0    0 -0.34604834115E+01 -0.35597098046E+02 -0.87550799843E+01  0.36820914713E+02  0.00000000000E+00 0.  1.
         11    1    4    4    0    0  0.66634068185E+01  0.25088891902E+02  0.57293711155E+01  0.26583438095E+02  0.51100000000E-03 0.  1.
        -11    1    4    4    0    0  0.71925211146E+01  0.14126148687E+02  0.49562894582E+01  0.16608589409E+02  0.51100000000E-03 0. -1.
        -12    1    4    4    0    0 -0.10395444522E+02 -0.36179425428E+01 -0.19305805895E+01  0.11175057783E+02  0.00000000000E+00 0.  1.
</event>
<event>
 8    1  0.2514877E-006  0.9118800E+02  0.7816164E-02  0.1184000E+00
        -11   -1    0    0    0    0  0.00000000000E+00  0.00000000000E+00  0.45593999997E+02  0.45594000000E+02  0.51100000000E-03 0. -1.
         11   -1    0    0    0    0 -0.00000000000E+00 -0.00000000000E+00 -0.45593999997E+02  0.45594000000E+02  0.51100000000E-03 0.  1.
         23    2    1    2    0    0  0.00000000000E+00 -0.35527136788E-14  0.71054273576E-14  0.91188000000E+02  0.91188000000E+02 0.  0.
    9900012    2    3    3    0    0 -0.13282213211E+02 -0.25210433029E+02  0.23319443044E+02  0.54367088208E+02  0.40000009189E+02 0.  0.
         12    1    3    3    0    0  0.13282213211E+02  0.25210433029E+02 -0.23319443044E+02  0.36820911792E+02  0.00000000000E+00 0. -1.
         11    1    4    4    0    0 -0.65593563490E+01  0.83585719943E+01  0.89869285135E+01  0.13916025505E+02  0.51100000000E-03 0. -1.
        -11    1    4    4    0    0 -0.39992472530E+01 -0.15576057012E+02 -0.17354628442E+01  0.16174651841E+02  0.51100000000E-03 0.  1.
        -12    1    4    4    0    0 -0.27236096084E+01 -0.17992948011E+02  0.16067977375E+02  0.24276410862E+02  0.00000000000E+00 0.  1.
</event>
<event>
 8    1  0.2514877E-006  0.9118800E+02  0.7816164E-02  0.1184000E+00
        -11   -1    0    0    0    0  0.00000000000E+00  0.00000000000E+00  0.45593999997E+02  0.45594000000E+02  0.51100000000E-03 0.  1.
         11   -1    0    0    0    0 -0.00000000000E+00 -0.00000000000E+00 -0.45593999997E+02  0.45594000000E+02  0.51100000000E-03 0. -1.
         23    2    1    2    0    0  0.00000000000E+00 -0.17763568394E-14 -0.17763568394E-14  0.91188000000E+02  0.91188000000E+02 0.  0.
    9900012    2    3    3    0    0  0.34745015372E+02  0.91582143780E+01  0.80429833868E+01  0.54367101511E+02  0.40000039515E+02 0.  0.
         12    1    3    3    0    0 -0.34745015372E+02 -0.91582143780E+01 -0.80429833868E+01  0.36820898489E+02  0.00000000000E+00 0. -1.
         11    1    4    4    0    0  0.27288296663E+01  0.71345603636E+00  0.26613448510E+00  0.28330828948E+01  0.51100000000E-03 0. -1.
        -11    1    4    4    0    0  0.13892307780E+02  0.18251273351E+02 -0.93200087621E+01  0.24758185676E+02  0.51100000000E-03 0.  1.
         12    1    4    4    0    0  0.18123877925E+02 -0.98065150089E+01  0.17096857664E+02  0.26775832940E+02  0.00000000000E+00 0. -1.
</event>
<event>
 8    1  0.2514877E-006  0.9118800E+02  0.7816164E-02  0.1184000E+00
        -11   -1    0    0    0    0  0.00000000000E+00  0.00000000000E+00  0.45593999997E+02  0.45594000000E+02  0.51100000000E-03 0. -1.
         11   -1    0    0    0    0 -0.00000000000E+00 -0.00000000000E+00 -0.45593999997E+02  0.45594000000E+02  0.51100000000E-03 0.  1.
         23    2    1    2    0    0  0.17763568394E-14  0.00000000000E+00  0.16653345369E-14  0.91188000000E+02  0.91188000000E+02 0.  0.
    9900012    2    3    3    0    0 -0.12089359557E+02  0.34773789675E+02  0.63998237721E+00  0.54367100495E+02  0.40000037199E+02 0.  0.
        -12    1    3    3    0    0  0.12089359557E+02 -0.34773789675E+02 -0.63998237721E+00  0.36820899505E+02  0.00000000000E+00 0.  1.
         11    1    4    4    0    0 -0.90770558885E+01  0.73059926003E+01  0.13602802560E+02  0.17911077835E+02  0.51100000000E-03 0. -1.
        -11    1    4    4    0    0  0.24056879081E+01  0.42524913534E+01 -0.11589600204E+02  0.12577354658E+02  0.51100000000E-03 0.  1.
        -12    1    4    4    0    0 -0.54179915766E+01  0.23215305722E+02 -0.13732199781E+01  0.23878668003E+02  0.00000000000E+00 0.  1.
</event>
<event>
 8    1  0.2514877E-006  0.9118800E+02  0.7816164E-02  0.1184000E+00
        -11   -1    0    0    0    0  0.00000000000E+00  0.00000000000E+00  0.45593999997E+02  0.45594000000E+02  0.51100000000E-03 0.  1.
         11   -1    0    0    0    0 -0.00000000000E+00 -0.00000000000E+00 -0.45593999997E+02  0.45594000000E+02  0.51100000000E-03 0. -1.
         23    2    1    2    0    0  0.17763568394E-14  0.88817841970E-15  0.71054273576E-14  0.91188000000E+02  0.91188000000E+02 0.  0.
    9900012    2    3    3    0    0  0.58916298832E+01  0.62572626555E+01  0.35803839289E+02  0.54367088191E+02  0.40000009148E+02 0.  0.
         12    1    3    3    0    0 -0.58916298832E+01 -0.62572626555E+01 -0.35803839289E+02  0.36820911809E+02  0.00000000000E+00 0. -1.
         11    1    4    4    0    0 -0.50782033854E+01 -0.12480645502E+01 -0.31843735933E+00  0.52390091962E+01  0.51100000000E-03 0. -1.
        -11    1    4    4    0    0  0.11009763100E+02  0.12549223443E+02  0.39617613782E+02  0.42991315571E+02  0.51100000000E-03 0.  1.
        -12    1    4    4    0    0 -0.39929831786E-01 -0.50438962368E+01 -0.34953371332E+01  0.61367634233E+01  0.00000000000E+00 0.  1.
</event>
<event>
 8    1  0.2514877E-006  0.9118800E+02  0.7816164E-02  0.1184000E+00
        -11   -1    0    0    0    0  0.00000000000E+00  0.00000000000E+00  0.45593999997E+02  0.45594000000E+02  0.51100000000E-03 0.  1.
         11   -1    0    0    0    0 -0.00000000000E+00 -0.00000000000E+00 -0.45593999997E+02  0.45594000000E+02  0.51100000000E-03 0. -1.
         23    2    1    2    0    0 -0.88817841970E-15  0.00000000000E+00  0.71054273576E-14  0.91188000000E+02  0.91188000000E+02 0.  0.
    9900012    2    3    3    0    0  0.24232442131E+01 -0.18048281355E+02  0.32002610661E+02  0.54367086629E+02  0.40000005588E+02 0.  0.
         12    1    3    3    0    0 -0.24232442131E+01  0.18048281355E+02 -0.32002610661E+02  0.36820913371E+02  0.00000000000E+00 0. -1.
         11    1    4    4    0    0  0.59538771097E+01 -0.55626180590E+01  0.18648241136E+01  0.83587643550E+01  0.51100000000E-03 0. -1.
        -11    1    4    4    0    0 -0.20527210338E+01  0.98225228232E+01  0.22832990056E+01  0.10291213382E+02  0.51100000000E-03 0.  1.
        -12    1    4    4    0    0 -0.14779118628E+01 -0.22308186120E+02  0.27854487541E+02  0.35717108892E+02  0.00000000000E+00 0.  1.
</event>
<event>
 8    1  0.2514877E-006  0.9118800E+02  0.7816164E-02  0.1184000E+00
        -11   -1    0    0    0    0  0.00000000000E+00  0.00000000000E+00  0.45593999997E+02  0.45594000000E+02  0.51100000000E-03 0.  1.
         11   -1    0    0    0    0 -0.00000000000E+00 -0.00000000000E+00 -0.45593999997E+02  0.45594000000E+02  0.51100000000E-03 0. -1.
         23    2    1    2    0    0  0.00000000000E+00  0.00000000000E+00 -0.35527136788E-14  0.91188000000E+02  0.91188000000E+02 0.  0.
    9900012    2    3    3    0    0  0.65730561103E+01 -0.18660243189E+02 -0.31054312391E+02  0.54367081209E+02  0.39999993233E+02 0.  0.
        -12    1    3    3    0    0 -0.65730561103E+01  0.18660243189E+02  0.31054312391E+02  0.36820918791E+02  0.00000000000E+00 0.  1.
         11    1    4    4    0    0  0.81940044240E+01  0.18241924031E+01 -0.16566089878E+01  0.85565027916E+01  0.51100000000E-03 0. -1.
        -11    1    4    4    0    0 -0.79711390307E+01 -0.53820999379E-01  0.16157326197E+01  0.81334215621E+01  0.51100000000E-03 0.  1.
         12    1    4    4    0    0  0.63501907171E+01 -0.20430614592E+02 -0.31013436023E+02  0.37677156856E+02  0.00000000000E+00 0. -1.
</event>
<event>
 8    1  0.2514877E-006  0.9118800E+02  0.7816164E-02  0.1184000E+00
        -11   -1    0    0    0    0  0.00000000000E+00  0.00000000000E+00  0.45593999997E+02  0.45594000000E+02  0.51100000000E-03 0. -1.
         11   -1    0    0    0    0 -0.00000000000E+00 -0.00000000000E+00 -0.45593999997E+02  0.45594000000E+02  0.51100000000E-03 0.  1.
         23    2    1    2    0    0  0.17763568394E-14 -0.71054273576E-14  0.00000000000E+00  0.91188000000E+02  0.91188000000E+02 0.  0.
    9900012    2    3    3    0    0 -0.99440369931E+01  0.27284008947E+02  0.22637984109E+02  0.54367090988E+02  0.40000015526E+02 0.  0.
        -12    1    3    3    0    0  0.99440369931E+01 -0.27284008947E+02 -0.22637984109E+02  0.36820909012E+02  0.00000000000E+00 0.  1.
         11    1    4    4    0    0 -0.35067210494E+01 -0.51571297778E+01  0.72285527969E+01  0.95469919798E+01  0.51100000000E-03 0. -1.
        -11    1    4    4    0    0  0.77678913978E+01  0.33495548006E+01 -0.10108842108E+01  0.85194801062E+01  0.51100000000E-03 0.  1.
         12    1    4    4    0    0 -0.14205207342E+02  0.29091583924E+02  0.16420315523E+02  0.36300618902E+02  0.00000000000E+00 0. -1.
</event>
<event>
 8    1  0.2514877E-006  0.9118800E+02  0.7816164E-02  0.1184000E+00
        -11   -1    0    0    0    0  0.00000000000E+00  0.00000000000E+00  0.45593999997E+02  0.45594000000E+02  0.51100000000E-03 0.  1.
         11   -1    0    0    0    0 -0.00000000000E+00 -0.00000000000E+00 -0.45593999997E+02  0.45594000000E+02  0.51100000000E-03 0. -1.
         23    2    1    2    0    0 -0.71054273576E-14  0.00000000000E+00 -0.88817841970E-15  0.91188000000E+02  0.91188000000E+02 0.  0.
    9900012    2    3    3    0    0  0.33162967757E+02 -0.14691126757E+02  0.63378907733E+01  0.54367075306E+02  0.39999979776E+02 0.  0.
         12    1    3    3    0    0 -0.33162967757E+02  0.14691126757E+02 -0.63378907733E+01  0.36820924694E+02  0.00000000000E+00 0. -1.
         11    1    4    4    0    0  0.96247852267E+01 -0.10023287970E+02  0.98026424717E+01  0.17005722333E+02  0.51100000000E-03 0. -1.
        -11    1    4    4    0    0  0.20584837949E+02 -0.15028555418E+02  0.14319690968E+01  0.25527310221E+02  0.51100000000E-03 0.  1.
         12    1    4    4    0    0  0.29533445811E+01  0.10360716631E+02 -0.48967207952E+01  0.11834042753E+02  0.00000000000E+00 0. -1.
</event>
<event>
 8    1  0.2514877E-006  0.9118800E+02  0.7816164E-02  0.1184000E+00
        -11   -1    0    0    0    0  0.00000000000E+00  0.00000000000E+00  0.45593999997E+02  0.45594000000E+02  0.51100000000E-03 0.  1.
         11   -1    0    0    0    0 -0.00000000000E+00 -0.00000000000E+00 -0.45593999997E+02  0.45594000000E+02  0.51100000000E-03 0. -1.
         23    2    1    2    0    0  0.00000000000E+00 -0.26645352591E-14  0.00000000000E+00  0.91188000000E+02  0.91188000000E+02 0.  0.
    9900012    2    3    3    0    0  0.17359452933E+02  0.73676719298E+01 -0.31625091388E+02  0.54367087449E+02  0.40000007457E+02 0.  0.
        -12    1    3    3    0    0 -0.17359452933E+02 -0.73676719298E+01  0.31625091388E+02  0.36820912551E+02  0.00000000000E+00 0.  1.
         11    1    4    4    0    0  0.56732035597E+01 -0.10627131051E+02 -0.26390020471E+02  0.29009555903E+02  0.51100000000E-03 0. -1.
        -11    1    4    4    0    0 -0.69843020684E+00  0.34445329504E+01 -0.51682448151E+01  0.62500693380E+01  0.51100000000E-03 0.  1.
        -12    1    4    4    0    0  0.12384679580E+02  0.14550270031E+02 -0.66826102534E-01  0.19107462207E+02  0.00000000000E+00 0.  1.
</event>
<event>
 8    1  0.2514877E-006  0.9118800E+02  0.7816164E-02  0.1184000E+00
        -11   -1    0    0    0    0  0.00000000000E+00  0.00000000000E+00  0.45593999997E+02  0.45594000000E+02  0.51100000000E-03 0. -1.
         11   -1    0    0    0    0 -0.00000000000E+00 -0.00000000000E+00 -0.45593999997E+02  0.45594000000E+02  0.51100000000E-03 0.  1.
         23    2    1    2    0    0  0.71054273576E-14 -0.35527136788E-14  0.00000000000E+00  0.91188000000E+02  0.91188000000E+02 0.  0.
    9900012    2    3    3    0    0 -0.30200861377E+02  0.17881796343E+02 -0.11132436593E+02  0.54367057414E+02  0.39999938988E+02 0.  0.
         12    1    3    3    0    0  0.30200861377E+02 -0.17881796343E+02  0.11132436593E+02  0.36820942586E+02  0.00000000000E+00 0. -1.
         11    1    4    4    0    0  0.46985650820E+01  0.24792522582E+01  0.65008981995E+01  0.83955275743E+01  0.51100000000E-03 0. -1.
        -11    1    4    4    0    0 -0.54874756112E+01  0.83838383649E+01 -0.11253660166E+02  0.15068045716E+02  0.51100000000E-03 0.  1.
         12    1    4    4    0    0 -0.29411950848E+02  0.70187057199E+01 -0.63796746271E+01  0.30903484124E+02  0.00000000000E+00 0. -1.
</event>
<event>
 8    1  0.2514877E-006  0.9118800E+02  0.7816164E-02  0.1184000E+00
        -11   -1    0    0    0    0  0.00000000000E+00  0.00000000000E+00  0.45593999997E+02  0.45594000000E+02  0.51100000000E-03 0.  1.
         11   -1    0    0    0    0 -0.00000000000E+00 -0.00000000000E+00 -0.45593999997E+02  0.45594000000E+02  0.51100000000E-03 0. -1.
         23    2    1    2    0    0  0.00000000000E+00 -0.88817841970E-15  0.35527136788E-14  0.91188000000E+02  0.91188000000E+02 0.  0.
    9900012    2    3    3    0    0 -0.23682443460E+02 -0.67723272792E+01  0.27368916384E+02  0.54367080280E+02  0.39999991114E+02 0.  0.
         12    1    3    3    0    0  0.23682443460E+02  0.67723272792E+01 -0.27368916384E+02  0.36820919720E+02  0.00000000000E+00 0. -1.
         11    1    4    4    0    0 -0.21776808755E+02 -0.16992140644E+02  0.78394382146E+01  0.28712698149E+02  0.51100000000E-03 0. -1.
        -11    1    4    4    0    0  0.25912553225E+01  0.74301636751E+01  0.32104237614E+01  0.84987503419E+01  0.51100000000E-03 0.  1.
        -12    1    4    4    0    0 -0.44968900269E+01  0.27896496893E+01  0.16319054408E+02  0.17155631789E+02  0.00000000000E+00 0.  1.
</event>
<event>
 8    1  0.2514877E-006  0.9118800E+02  0.7816164E-02  0.1184000E+00
        -11   -1    0    0    0    0  0.00000000000E+00  0.00000000000E+00  0.45593999997E+02  0.45594000000E+02  0.51100000000E-03 0.  1.
         11   -1    0    0    0    0 -0.00000000000E+00 -0.00000000000E+00 -0.45593999997E+02  0.45594000000E+02  0.51100000000E-03 0. -1.
         23    2    1    2    0    0 -0.35527136788E-14  0.00000000000E+00  0.35527136788E-14  0.91188000000E+02  0.91188000000E+02 0.  0.
    9900012    2    3    3    0    0 -0.25442058778E+02  0.18457359239E+02  0.19178337654E+02  0.54367067093E+02  0.39999961053E+02 0.  0.
         12    1    3    3    0    0  0.25442058778E+02 -0.18457359239E+02 -0.19178337654E+02  0.36820932907E+02  0.00000000000E+00 0. -1.
         11    1    4    4    0    0 -0.17138641435E+02  0.14069122500E+02 -0.33169127696E+01  0.22420418121E+02  0.51100000000E-03 0. -1.
        -11    1    4    4    0    0 -0.93478977832E+01 -0.49133721459E+01  0.41407571553E+01  0.11343292683E+02  0.51100000000E-03 0.  1.
         12    1    4    4    0    0  0.10444804401E+01  0.93016088845E+01  0.18354493269E+02  0.20603356289E+02  0.00000000000E+00 0. -1.
</event>
<event>
 8    1  0.2514877E-006  0.9118800E+02  0.7816164E-02  0.1184000E+00
        -11   -1    0    0    0    0  0.00000000000E+00  0.00000000000E+00  0.45593999997E+02  0.45594000000E+02  0.51100000000E-03 0. -1.
         11   -1    0    0    0    0 -0.00000000000E+00 -0.00000000000E+00 -0.45593999997E+02  0.45594000000E+02  0.51100000000E-03 0.  1.
         23    2    1    2    0    0  0.17763568394E-14 -0.35527136788E-14  0.00000000000E+00  0.91188000000E+02  0.91188000000E+02 0.  0.
    9900012    2    3    3    0    0  0.72856905934E+01  0.27072748922E+02 -0.23869755240E+02  0.54367078816E+02  0.39999987776E+02 0.  0.
         12    1    3    3    0    0 -0.72856905934E+01 -0.27072748922E+02  0.23869755240E+02  0.36820921184E+02  0.00000000000E+00 0. -1.
         11    1    4    4    0    0  0.65183839130E+01  0.14396112201E+02  0.92262829584E+00  0.15829991111E+02  0.51100000000E-03 0. -1.
        -11    1    4    4    0    0  0.12563355704E+02  0.48769540474E+01 -0.18910077661E+02  0.23220973811E+02  0.51100000000E-03 0.  1.
        -12    1    4    4    0    0 -0.11796049024E+02  0.77996826743E+01 -0.58823058752E+01  0.15316113894E+02  0.00000000000E+00 0.  1.
</event>
<event>
 8    1  0.2514877E-006  0.9118800E+02  0.7816164E-02  0.1184000E+00
        -11   -1    0    0    0    0  0.00000000000E+00  0.00000000000E+00  0.45593999997E+02  0.45594000000E+02  0.51100000000E-03 0. -1.
         11   -1    0    0    0    0 -0.00000000000E+00 -0.00000000000E+00 -0.45593999997E+02  0.45594000000E+02  0.51100000000E-03 0.  1.
         23    2    1    2    0    0  0.00000000000E+00  0.00000000000E+00 -0.35527136788E-14  0.91188000000E+02  0.91188000000E+02 0.  0.
    9900012    2    3    3    0    0  0.72375201095E+01  0.31640671233E+02  0.17385801715E+02  0.54367083734E+02  0.39999998988E+02 0.  0.
        -12    1    3    3    0    0 -0.72375201095E+01 -0.31640671233E+02 -0.17385801715E+02  0.36820916266E+02  0.00000000000E+00 0.  1.
         11    1    4    4    0    0 -0.13034085488E+02  0.11690244343E+02  0.23047731863E+00  0.17510063317E+02  0.51100000000E-03 0. -1.
        -11    1    4    4    0    0 -0.20001643419E+01  0.74733483316E+00 -0.93497293885E+00  0.23309528963E+01  0.51100000000E-03 0.  1.
         12    1    4    4    0    0  0.22271769939E+02  0.19203092057E+02  0.18090297336E+02  0.34526067521E+02  0.00000000000E+00 0. -1.
</event>
<event>
 8    1  0.2514877E-006  0.9118800E+02  0.7816164E-02  0.1184000E+00
        -11   -1    0    0    0    0  0.00000000000E+00  0.00000000000E+00  0.45593999997E+02  0.45594000000E+02  0.51100000000E-03 0. -1.
         11   -1    0    0    0    0 -0.00000000000E+00 -0.00000000000E+00 -0.45593999997E+02  0.45594000000E+02  0.51100000000E-03 0.  1.
         23    2    1    2    0    0 -0.35527136788E-14  0.00000000000E+00  0.00000000000E+00  0.91188000000E+02  0.91188000000E+02 0.  0.
    9900012    2    3    3    0    0 -0.25787886248E+02 -0.23005521579E+02  0.12708664249E+02  0.54367092254E+02  0.40000018410E+02 0.  0.
        -12    1    3    3    0    0  0.25787886248E+02  0.23005521579E+02 -0.12708664249E+02  0.36820907746E+02  0.00000000000E+00 0.  1.
         11    1    4    4    0    0 -0.19451679039E+02 -0.50286997832E+01  0.10739493201E+02  0.22781403675E+02  0.51100000000E-03 0. -1.
        -11    1    4    4    0    0  0.15824079261E+01 -0.16971957681E+02  0.10406324051E+02  0.19971052623E+02  0.51100000000E-03 0.  1.
        -12    1    4    4    0    0 -0.79186151359E+01 -0.10048641149E+01 -0.84371530036E+01  0.11614635955E+02  0.00000000000E+00 0.  1.
</event>
<event>
 8    1  0.2514877E-006  0.9118800E+02  0.7816164E-02  0.1184000E+00
        -11   -1    0    0    0    0  0.00000000000E+00  0.00000000000E+00  0.45593999997E+02  0.45594000000E+02  0.51100000000E-03 0. -1.
         11   -1    0    0    0    0 -0.00000000000E+00 -0.00000000000E+00 -0.45593999997E+02  0.45594000000E+02  0.51100000000E-03 0.  1.
         23    2    1    2    0    0 -0.35527136788E-14 -0.88817841970E-15  0.00000000000E+00  0.91188000000E+02  0.91188000000E+02 0.  0.
    9900012    2    3    3    0    0 -0.18418494232E+02  0.44305668935E+01 -0.31573868100E+02  0.54367082038E+02  0.39999995122E+02 0.  0.
         12    1    3    3    0    0  0.18418494232E+02 -0.44305668935E+01  0.31573868100E+02  0.36820917962E+02  0.00000000000E+00 0. -1.
         11    1    4    4    0    0  0.37011095818E+01  0.12617405774E+02  0.19111434726E+01  0.13287197230E+02  0.51100000000E-03 0. -1.
        -11    1    4    4    0    0 -0.17355605349E+02 -0.53696494675E+01 -0.24037737095E+02  0.30130764633E+02  0.51100000000E-03 0.  1.
         12    1    4    4    0    0 -0.47639984643E+01 -0.28171894129E+01 -0.94472744776E+01  0.10949120175E+02  0.00000000000E+00 0. -1.
</event>
<event>
 8    1  0.2514877E-006  0.9118800E+02  0.7816164E-02  0.1184000E+00
        -11   -1    0    0    0    0  0.00000000000E+00  0.00000000000E+00  0.45593999997E+02  0.45594000000E+02  0.51100000000E-03 0.  1.
         11   -1    0    0    0    0 -0.00000000000E+00 -0.00000000000E+00 -0.45593999997E+02  0.45594000000E+02  0.51100000000E-03 0. -1.
         23    2    1    2    0    0 -0.35527136788E-14 -0.35527136788E-14  0.00000000000E+00  0.91188000000E+02  0.91188000000E+02 0.  0.
    9900012    2    3    3    0    0  0.24886021419E+02 -0.18432710233E+02  0.19917307551E+02  0.54367109073E+02  0.40000056754E+02 0.  0.
         12    1    3    3    0    0 -0.24886021419E+02  0.18432710233E+02 -0.19917307551E+02  0.36820890927E+02  0.00000000000E+00 0. -1.
         11    1    4    4    0    0 -0.18153028514E+01 -0.24119725517E+01  0.45475077523E+01  0.54582747321E+01  0.51100000000E-03 0. -1.
        -11    1    4    4    0    0 -0.61776481016E+01 -0.11380307330E+02  0.19509776732E+01  0.13095077133E+02  0.51100000000E-03 0.  1.
         12    1    4    4    0    0  0.32878972372E+02 -0.46404303513E+01  0.13418822125E+02  0.35813757208E+02  0.00000000000E+00 0. -1.
</event>
<event>
 8    1  0.2514877E-006  0.9118800E+02  0.7816164E-02  0.1184000E+00
        -11   -1    0    0    0    0  0.00000000000E+00  0.00000000000E+00  0.45593999997E+02  0.45594000000E+02  0.51100000000E-03 0.  1.
         11   -1    0    0    0    0 -0.00000000000E+00 -0.00000000000E+00 -0.45593999997E+02  0.45594000000E+02  0.51100000000E-03 0. -1.
         23    2    1    2    0    0  0.71054273576E-14  0.44408920985E-15 -0.17763568394E-14  0.91188000000E+02  0.91188000000E+02 0.  0.
    9900012    2    3    3    0    0  0.34952373301E+02  0.39478865531E+01 -0.10886951953E+02  0.54367082976E+02  0.39999997261E+02 0.  0.
        -12    1    3    3    0    0 -0.34952373301E+02 -0.39478865531E+01  0.10886951953E+02  0.36820917024E+02  0.00000000000E+00 0.  1.
         11    1    4    4    0    0  0.75419611074E+01  0.48625193958E+01  0.39995021096E+01  0.98245249048E+01  0.51100000000E-03 0. -1.
        -11    1    4    4    0    0 -0.84503550732E+00  0.45105826529E+01  0.70155591061E+01  0.83831682978E+01  0.51100000000E-03 0.  1.
         12    1    4    4    0    0  0.28255447701E+02 -0.54252154956E+01 -0.21902013169E+02  0.36159389774E+02  0.00000000000E+00 0. -1.
</event>
<event>
 8    1  0.2514877E-006  0.9118800E+02  0.7816164E-02  0.1184000E+00
        -11   -1    0    0    0    0  0.00000000000E+00  0.00000000000E+00  0.45593999997E+02  0.45594000000E+02  0.51100000000E-03 0.  1.
         11   -1    0    0    0    0 -0.00000000000E+00 -0.00000000000E+00 -0.45593999997E+02  0.45594000000E+02  0.51100000000E-03 0. -1.
         23    2    1    2    0    0 -0.26645352591E-14  0.22204460493E-15  0.00000000000E+00  0.91188000000E+02  0.91188000000E+02 0.  0.
    9900012    2    3    3    0    0 -0.57321008884E+01  0.12561596484E+01  0.36350293105E+02  0.54367099326E+02  0.40000034533E+02 0.  0.
         12    1    3    3    0    0  0.57321008884E+01 -0.12561596484E+01 -0.36350293105E+02  0.36820900674E+02  0.00000000000E+00 0. -1.
         11    1    4    4    0    0 -0.91689089361E+01 -0.11204340287E+02  0.20447950008E+02  0.25054436576E+02  0.51100000000E-03 0. -1.
        -11    1    4    4    0    0  0.74534985781E+01  0.17509070478E+01  0.16148876040E+02  0.17871947688E+02  0.51100000000E-03 0.  1.
        -12    1    4    4    0    0 -0.40166905304E+01  0.10709592888E+02 -0.24653294327E+00  0.11440715062E+02  0.00000000000E+00 0.  1.
</event>
<event>
 8    1  0.2514877E-006  0.9118800E+02  0.7816164E-02  0.1184000E+00
        -11   -1    0    0    0    0  0.00000000000E+00  0.00000000000E+00  0.45593999997E+02  0.45594000000E+02  0.51100000000E-03 0.  1.
         11   -1    0    0    0    0 -0.00000000000E+00 -0.00000000000E+00 -0.45593999997E+02  0.45594000000E+02  0.51100000000E-03 0. -1.
         23    2    1    2    0    0  0.00000000000E+00  0.00000000000E+00  0.35527136788E-14  0.91188000000E+02  0.91188000000E+02 0.  0.
    9900012    2    3    3    0    0  0.21931293340E+02 -0.14965137294E+02  0.25511704693E+02  0.54367027197E+02  0.39999870101E+02 0.  0.
         12    1    3    3    0    0 -0.21931293340E+02  0.14965137294E+02 -0.25511704693E+02  0.36820972803E+02  0.00000000000E+00 0. -1.
         11    1    4    4    0    0 -0.39595725037E+00 -0.21269717425E+01 -0.26214826025E+01  0.33989648768E+01  0.51100000000E-03 0. -1.
        -11    1    4    4    0    0 -0.58110848763E+01 -0.12694726203E+02  0.12706593508E+02  0.18878090466E+02  0.51100000000E-03 0.  1.
         12    1    4    4    0    0  0.28138335467E+02 -0.14343934868E+00  0.15426593787E+02  0.32089971854E+02  0.00000000000E+00 0. -1.
</event>
<event>
 8    1  0.2514877E-006  0.9118800E+02  0.7816164E-02  0.1184000E+00
        -11   -1    0    0    0    0  0.00000000000E+00  0.00000000000E+00  0.45593999997E+02  0.45594000000E+02  0.51100000000E-03 0. -1.
         11   -1    0    0    0    0 -0.00000000000E+00 -0.00000000000E+00 -0.45593999997E+02  0.45594000000E+02  0.51100000000E-03 0.  1.
         23    2    1    2    0    0  0.35527136788E-14 -0.17763568394E-14  0.71054273576E-14  0.91188000000E+02  0.91188000000E+02 0.  0.
    9900012    2    3    3    0    0  0.24055054904E+02 -0.12325545823E+02  0.25004307262E+02  0.54367080296E+02  0.39999991150E+02 0.  0.
        -12    1    3    3    0    0 -0.24055054904E+02  0.12325545823E+02 -0.25004307262E+02  0.36820919704E+02  0.00000000000E+00 0.  1.
         11    1    4    4    0    0  0.42214653048E+01 -0.30189395248E+01 -0.42953740885E+01  0.67368393179E+01  0.51100000000E-03 0.  1.
        -11    1    4    4    0    0 -0.32056646132E+01  0.17273358728E+01 -0.41633892366E+01  0.55311648887E+01  0.51100000000E-03 0. -1.
         12    1    4    4    0    0  0.23039254212E+02 -0.11033942171E+02  0.33463070587E+02  0.42099076089E+02  0.00000000000E+00 0. -1.
</event>
<event>
 8    1  0.2514877E-006  0.9118800E+02  0.7816164E-02  0.1184000E+00
        -11   -1    0    0    0    0  0.00000000000E+00  0.00000000000E+00  0.45593999997E+02  0.45594000000E+02  0.51100000000E-03 0.  1.
         11   -1    0    0    0    0 -0.00000000000E+00 -0.00000000000E+00 -0.45593999997E+02  0.45594000000E+02  0.51100000000E-03 0. -1.
         23    2    1    2    0    0 -0.35527136788E-14 -0.17763568394E-14  0.00000000000E+00  0.91188000000E+02  0.91188000000E+02 0.  0.
    9900012    2    3    3    0    0  0.20210064187E+02  0.85273694177E+01 -0.29573909339E+02  0.54367097822E+02  0.40000031105E+02 0.  0.
        -12    1    3    3    0    0 -0.20210064187E+02 -0.85273694177E+01  0.29573909339E+02  0.36820902178E+02  0.00000000000E+00 0.  1.
         11    1    4    4    0    0  0.16566424484E+02  0.50228026169E+01 -0.20535452966E+02  0.26858514387E+02  0.51100000000E-03 0. -1.
        -11    1    4    4    0    0  0.10604725547E+02  0.10576033493E+02 -0.92136841675E+01  0.17584216348E+02  0.51100000000E-03 0.  1.
        -12    1    4    4    0    0 -0.69610858442E+01 -0.70714666919E+01  0.17522779473E+00  0.99243670873E+01  0.00000000000E+00 0.  1.
</event>
<event>
 8    1  0.2514877E-006  0.9118800E+02  0.7816164E-02  0.1184000E+00
        -11   -1    0    0    0    0  0.00000000000E+00  0.00000000000E+00  0.45593999997E+02  0.45594000000E+02  0.51100000000E-03 0.  1.
         11   -1    0    0    0    0 -0.00000000000E+00 -0.00000000000E+00 -0.45593999997E+02  0.45594000000E+02  0.51100000000E-03 0. -1.
         23    2    1    2    0    0  0.00000000000E+00  0.17763568394E-14  0.00000000000E+00  0.91188000000E+02  0.91188000000E+02 0.  0.
    9900012    2    3    3    0    0 -0.31178223366E+02 -0.95892215099E+01 -0.17080541292E+02  0.54367086483E+02  0.40000005255E+02 0.  0.
        -12    1    3    3    0    0  0.31178223366E+02  0.95892215099E+01  0.17080541292E+02  0.36820913517E+02  0.00000000000E+00 0.  1.
         11    1    4    4    0    0 -0.14417130544E+01  0.16831083638E+01 -0.11137515328E+02  0.11355863606E+02  0.51100000000E-03 0.  1.
        -11    1    4    4    0    0 -0.26576870128E+02 -0.35507521675E+01  0.69088380287E+01  0.27688804776E+02  0.51100000000E-03 0. -1.
         12    1    4    4    0    0 -0.31596401831E+01 -0.77215777062E+01 -0.12851863993E+02  0.15322418101E+02  0.00000000000E+00 0. -1.
</event>
<event>
 8    1  0.2514877E-006  0.9118800E+02  0.7816164E-02  0.1184000E+00
        -11   -1    0    0    0    0  0.00000000000E+00  0.00000000000E+00  0.45593999997E+02  0.45594000000E+02  0.51100000000E-03 0.  1.
         11   -1    0    0    0    0 -0.00000000000E+00 -0.00000000000E+00 -0.45593999997E+02  0.45594000000E+02  0.51100000000E-03 0. -1.
         23    2    1    2    0    0  0.17763568394E-14  0.71054273576E-14  0.88817841970E-15  0.91188000000E+02  0.91188000000E+02 0.  0.
    9900012    2    3    3    0    0  0.11465202291E+02  0.34574367336E+02  0.53797175191E+01  0.54367094242E+02  0.40000022944E+02 0.  0.
        -12    1    3    3    0    0 -0.11465202291E+02 -0.34574367336E+02 -0.53797175191E+01  0.36820905758E+02  0.00000000000E+00 0.  1.
         11    1    4    4    0    0  0.24355372374E+00  0.19850510155E+02  0.66119391656E-02  0.19852005335E+02  0.51100000000E-03 0. -1.
        -11    1    4    4    0    0  0.10233434737E+00  0.13282323417E+02 -0.91780471027E+01  0.16145189270E+02  0.51100000000E-03 0.  1.
        -12    1    4    4    0    0  0.11119314220E+02  0.14415337634E+01  0.14551152683E+02  0.18369899638E+02  0.00000000000E+00 0.  1.
</event>
<event>
 8    1  0.2514877E-006  0.9118800E+02  0.7816164E-02  0.1184000E+00
        -11   -1    0    0    0    0  0.00000000000E+00  0.00000000000E+00  0.45593999997E+02  0.45594000000E+02  0.51100000000E-03 0.  1.
         11   -1    0    0    0    0 -0.00000000000E+00 -0.00000000000E+00 -0.45593999997E+02  0.45594000000E+02  0.51100000000E-03 0. -1.
         23    2    1    2    0    0  0.00000000000E+00  0.00000000000E+00  0.00000000000E+00  0.91188000000E+02  0.91188000000E+02 0.  0.
    9900012    2    3    3    0    0 -0.25458462200E+02  0.24227535625E+02  0.10985190015E+02  0.54367066013E+02  0.39999958589E+02 0.  0.
         12    1    3    3    0    0  0.25458462200E+02 -0.24227535625E+02 -0.10985190015E+02  0.36820933987E+02  0.00000000000E+00 0. -1.
         11    1    4    4    0    0 -0.10756733954E+02  0.50623874698E+00 -0.87398518584E+01  0.13868980272E+02  0.51100000000E-03 0. -1.
        -11    1    4    4    0    0  0.30322651421E+01  0.73414353931E+01 -0.18111308686E+01  0.81468706144E+01  0.51100000000E-03 0.  1.
         12    1    4    4    0    0 -0.17733993388E+02  0.16379861485E+02  0.21536172742E+02  0.32351215126E+02  0.00000000000E+00 0. -1.
</event>
<event>
 8    1  0.2514877E-006  0.9118800E+02  0.7816164E-02  0.1184000E+00
        -11   -1    0    0    0    0  0.00000000000E+00  0.00000000000E+00  0.45593999997E+02  0.45594000000E+02  0.51100000000E-03 0.  1.
         11   -1    0    0    0    0 -0.00000000000E+00 -0.00000000000E+00 -0.45593999997E+02  0.45594000000E+02  0.51100000000E-03 0. -1.
         23    2    1    2    0    0 -0.10658141036E-13  0.00000000000E+00  0.35527136788E-14  0.91188000000E+02  0.91188000000E+02 0.  0.
    9900012    2    3    3    0    0  0.30191316024E+02 -0.97803342843E+01 -0.18671075606E+02  0.54367087922E+02  0.40000008535E+02 0.  0.
         12    1    3    3    0    0 -0.30191316024E+02  0.97803342843E+01  0.18671075606E+02  0.36820912078E+02  0.00000000000E+00 0. -1.
         11    1    4    4    0    0  0.88893534428E+00 -0.66836394002E+01 -0.16741138734E+02  0.18047907581E+02  0.51100000000E-03 0.  1.
        -11    1    4    4    0    0 -0.27879779166E+01  0.24303328374E+01 -0.40462441953E+00  0.37206262572E+01  0.51100000000E-03 0. -1.
        -12    1    4    4    0    0  0.32090358596E+02 -0.55270277215E+01 -0.15253124528E+01  0.32598554084E+02  0.00000000000E+00 0.  1.
</event>
<event>
 8    1  0.2514877E-006  0.9118800E+02  0.7816164E-02  0.1184000E+00
        -11   -1    0    0    0    0  0.00000000000E+00  0.00000000000E+00  0.45593999997E+02  0.45594000000E+02  0.51100000000E-03 0.  1.
         11   -1    0    0    0    0 -0.00000000000E+00 -0.00000000000E+00 -0.45593999997E+02  0.45594000000E+02  0.51100000000E-03 0. -1.
         23    2    1    2    0    0  0.00000000000E+00 -0.17763568394E-14  0.00000000000E+00  0.91188000000E+02  0.91188000000E+02 0.  0.
    9900012    2    3    3    0    0  0.28875197454E+02  0.48438607159E+01  0.22327978811E+02  0.54367100331E+02  0.40000036825E+02 0.  0.
         12    1    3    3    0    0 -0.28875197454E+02 -0.48438607159E+01 -0.22327978811E+02  0.36820899669E+02  0.00000000000E+00 0. -1.
         11    1    4    4    0    0  0.18306854472E+02  0.77783429671E+01  0.41602040492E+01  0.20321191844E+02  0.51100000000E-03 0. -1.
        -11    1    4    4    0    0  0.15119464196E+02 -0.11545605623E+02  0.12743413493E+02  0.22897462622E+02  0.51100000000E-03 0.  1.
        -12    1    4    4    0    0 -0.45511212143E+01  0.86111233719E+01  0.54243612683E+01  0.11148445865E+02  0.00000000000E+00 0.  1.
</event>
<event>
 8    1  0.2514877E-006  0.9118800E+02  0.7816164E-02  0.1184000E+00
        -11   -1    0    0    0    0  0.00000000000E+00  0.00000000000E+00  0.45593999997E+02  0.45594000000E+02  0.51100000000E-03 0.  1.
         11   -1    0    0    0    0 -0.00000000000E+00 -0.00000000000E+00 -0.45593999997E+02  0.45594000000E+02  0.51100000000E-03 0. -1.
         23    2    1    2    0    0  0.00000000000E+00  0.44408920985E-15  0.00000000000E+00  0.91188000000E+02  0.91188000000E+02 0.  0.
    9900012    2    3    3    0    0 -0.32933116316E+02  0.39910024420E+01 -0.15976924548E+02  0.54367077024E+02  0.39999983693E+02 0.  0.
        -12    1    3    3    0    0  0.32933116316E+02 -0.39910024420E+01  0.15976924548E+02  0.36820922976E+02  0.00000000000E+00 0.  1.
         11    1    4    4    0    0 -0.26416574247E+02 -0.15835090239E+01 -0.12415771785E+02  0.29231734213E+02  0.51100000000E-03 0. -1.
        -11    1    4    4    0    0 -0.13192722157E+02  0.36552624439E+01  0.45779271990E+01  0.14434897961E+02  0.51100000000E-03 0.  1.
        -12    1    4    4    0    0  0.66761800885E+01  0.19192490221E+01 -0.81390799617E+01  0.10700444851E+02  0.00000000000E+00 0.  1.
</event>
<event>
 8    1  0.2514877E-006  0.9118800E+02  0.7816164E-02  0.1184000E+00
        -11   -1    0    0    0    0  0.00000000000E+00  0.00000000000E+00  0.45593999997E+02  0.45594000000E+02  0.51100000000E-03 0.  1.
         11   -1    0    0    0    0 -0.00000000000E+00 -0.00000000000E+00 -0.45593999997E+02  0.45594000000E+02  0.51100000000E-03 0. -1.
         23    2    1    2    0    0  0.17763568394E-14 -0.35527136788E-14  0.00000000000E+00  0.91188000000E+02  0.91188000000E+02 0.  0.
    9900012    2    3    3    0    0  0.98711944269E+01 -0.16368903787E+02  0.31470636934E+02  0.54367048361E+02  0.39999918348E+02 0.  0.
         12    1    3    3    0    0 -0.98711944269E+01  0.16368903787E+02 -0.31470636934E+02  0.36820951639E+02  0.00000000000E+00 0. -1.
         11    1    4    4    0    0  0.15240854376E+02  0.46124793742E+01  0.10512777147E+02  0.19080804272E+02  0.51100000000E-03 0. -1.
        -11    1    4    4    0    0 -0.42783435088E+01 -0.24391135408E+02  0.17628726850E+02  0.30397429501E+02  0.51100000000E-03 0.  1.
        -12    1    4    4    0    0 -0.10913164399E+01  0.34097522470E+01  0.33291329374E+01  0.48888145877E+01  0.00000000000E+00 0.  1.
</event>
<event>
 8    1  0.2514877E-006  0.9118800E+02  0.7816164E-02  0.1184000E+00
        -11   -1    0    0    0    0  0.00000000000E+00  0.00000000000E+00  0.45593999997E+02  0.45594000000E+02  0.51100000000E-03 0. -1.
         11   -1    0    0    0    0 -0.00000000000E+00 -0.00000000000E+00 -0.45593999997E+02  0.45594000000E+02  0.51100000000E-03 0.  1.
         23    2    1    2    0    0 -0.17763568394E-14  0.00000000000E+00  0.00000000000E+00  0.91188000000E+02  0.91188000000E+02 0.  0.
    9900012    2    3    3    0    0 -0.15355542997E+02 -0.25194678414E+02 -0.22027569248E+02  0.54367104735E+02  0.40000046865E+02 0.  0.
        -12    1    3    3    0    0  0.15355542997E+02  0.25194678414E+02  0.22027569248E+02  0.36820895265E+02  0.00000000000E+00 0.  1.
         11    1    4    4    0    0 -0.12845751183E+02 -0.11531617765E+02  0.67965592505E+01  0.18552216839E+02  0.51100000000E-03 0. -1.
        -11    1    4    4    0    0  0.34167591487E+01 -0.12405820651E+02 -0.26246109184E+02  0.29230752243E+02  0.51100000000E-03 0.  1.
         12    1    4    4    0    0 -0.59265509621E+01 -0.12572399979E+01 -0.25780193145E+01  0.65841356536E+01  0.00000000000E+00 0. -1.
</event>
<event>
 8    1  0.2514877E-006  0.9118800E+02  0.7816164E-02  0.1184000E+00
        -11   -1    0    0    0    0  0.00000000000E+00  0.00000000000E+00  0.45593999997E+02  0.45594000000E+02  0.51100000000E-03 0. -1.
         11   -1    0    0    0    0 -0.00000000000E+00 -0.00000000000E+00 -0.45593999997E+02  0.45594000000E+02  0.51100000000E-03 0.  1.
         23    2    1    2    0    0  0.00000000000E+00 -0.44408920985E-15  0.35527136788E-14  0.91188000000E+02  0.91188000000E+02 0.  0.
    9900012    2    3    3    0    0 -0.24488867131E+02 -0.23991314333E+01  0.27391942936E+02  0.54367095844E+02  0.40000026597E+02 0.  0.
        -12    1    3    3    0    0  0.24488867131E+02  0.23991314333E+01 -0.27391942936E+02  0.36820904156E+02  0.00000000000E+00 0.  1.
         11    1    4    4    0    0 -0.17513684132E+01  0.48204887034E+01  0.94055873144E+01  0.10713051650E+02  0.51100000000E-03 0. -1.
        -11    1    4    4    0    0 -0.19441445430E+02  0.55336585911E+01 -0.13485363236E+01  0.20258571724E+02  0.51100000000E-03 0.  1.
        -12    1    4    4    0    0 -0.32960532876E+01 -0.12753278728E+02  0.19334891946E+02  0.23395472471E+02  0.00000000000E+00 0.  1.
</event>
<event>
 8    1  0.2514877E-006  0.9118800E+02  0.7816164E-02  0.1184000E+00
        -11   -1    0    0    0    0  0.00000000000E+00  0.00000000000E+00  0.45593999997E+02  0.45594000000E+02  0.51100000000E-03 0.  1.
         11   -1    0    0    0    0 -0.00000000000E+00 -0.00000000000E+00 -0.45593999997E+02  0.45594000000E+02  0.51100000000E-03 0. -1.
         23    2    1    2    0    0 -0.88817841970E-15  0.00000000000E+00  0.00000000000E+00  0.91188000000E+02  0.91188000000E+02 0.  0.
    9900012    2    3    3    0    0 -0.65927834914E+01  0.16541937945E+02 -0.32228563799E+02  0.54367070766E+02  0.39999969425E+02 0.  0.
        -12    1    3    3    0    0  0.65927834914E+01 -0.16541937945E+02  0.32228563799E+02  0.36820929234E+02  0.00000000000E+00 0.  1.
         11    1    4    4    0    0 -0.48871333732E+01  0.23473330155E+01 -0.19879143027E+02  0.20605202562E+02  0.51100000000E-03 0. -1.
        -11    1    4    4    0    0 -0.82245309915E+01  0.67788683046E+01  0.64994213851E+01  0.12483526910E+02  0.51100000000E-03 0.  1.
        -12    1    4    4    0    0  0.65188808733E+01  0.74157366246E+01 -0.18848842157E+02  0.21278341293E+02  0.00000000000E+00 0.  1.
</event>
<event>
 8    1  0.2514877E-006  0.9118800E+02  0.7816164E-02  0.1184000E+00
        -11   -1    0    0    0    0  0.00000000000E+00  0.00000000000E+00  0.45593999997E+02  0.45594000000E+02  0.51100000000E-03 0.  1.
         11   -1    0    0    0    0 -0.00000000000E+00 -0.00000000000E+00 -0.45593999997E+02  0.45594000000E+02  0.51100000000E-03 0. -1.
         23    2    1    2    0    0 -0.53290705182E-14 -0.71054273576E-14 -0.17763568394E-14  0.91188000000E+02  0.91188000000E+02 0.  0.
    9900012    2    3    3    0    0  0.94993955273E+01  0.35067233366E+02  0.59858459634E+01  0.54367085790E+02  0.40000003676E+02 0.  0.
         12    1    3    3    0    0 -0.94993955273E+01 -0.35067233366E+02 -0.59858459634E+01  0.36820914210E+02  0.00000000000E+00 0. -1.
         11    1    4    4    0    0  0.51516964625E-01  0.14351413060E+00  0.14557089236E+01  0.14636731311E+01  0.51100000000E-03 0. -1.
        -11    1    4    4    0    0 -0.14486682927E+02  0.16768374438E+02  0.55531802252E+01  0.22844696855E+02  0.51100000000E-03 0.  1.
         12    1    4    4    0    0  0.23934561490E+02  0.18155344797E+02 -0.10230431854E+01  0.30058715804E+02  0.00000000000E+00 0. -1.
</event>
<event>
 8    1  0.2514877E-006  0.9118800E+02  0.7816164E-02  0.1184000E+00
        -11   -1    0    0    0    0  0.00000000000E+00  0.00000000000E+00  0.45593999997E+02  0.45594000000E+02  0.51100000000E-03 0.  1.
         11   -1    0    0    0    0 -0.00000000000E+00 -0.00000000000E+00 -0.45593999997E+02  0.45594000000E+02  0.51100000000E-03 0. -1.
         23    2    1    2    0    0 -0.88817841970E-15  0.00000000000E+00  0.00000000000E+00  0.91188000000E+02  0.91188000000E+02 0.  0.
    9900012    2    3    3    0    0 -0.47227041350E+01  0.54083449160E+01 -0.36114054086E+02  0.54367095182E+02  0.40000025086E+02 0.  0.
        -12    1    3    3    0    0  0.47227041350E+01 -0.54083449160E+01  0.36114054086E+02  0.36820904818E+02  0.00000000000E+00 0.  1.
         11    1    4    4    0    0  0.10297981108E+02  0.84810177928E-02 -0.37796322542E+01  0.10969690381E+02  0.51100000000E-03 0. -1.
        -11    1    4    4    0    0 -0.13870373767E+02  0.12858051936E+02 -0.13880975781E+02  0.23460568129E+02  0.51100000000E-03 0.  1.
         12    1    4    4    0    0 -0.11503114753E+01 -0.74581880382E+01 -0.18453446051E+02  0.19936836672E+02  0.00000000000E+00 0. -1.
</event>
<event>
 8    1  0.2514877E-006  0.9118800E+02  0.7816164E-02  0.1184000E+00
        -11   -1    0    0    0    0  0.00000000000E+00  0.00000000000E+00  0.45593999997E+02  0.45594000000E+02  0.51100000000E-03 0.  1.
         11   -1    0    0    0    0 -0.00000000000E+00 -0.00000000000E+00 -0.45593999997E+02  0.45594000000E+02  0.51100000000E-03 0. -1.
         23    2    1    2    0    0 -0.35527136788E-14  0.00000000000E+00  0.44408920985E-15  0.91188000000E+02  0.91188000000E+02 0.  0.
    9900012    2    3    3    0    0  0.20334873989E+02  0.30559055082E+02 -0.29022602171E+01  0.54366999715E+02  0.39999807449E+02 0.  0.
        -12    1    3    3    0    0 -0.20334873989E+02 -0.30559055082E+02  0.29022602171E+01  0.36821000285E+02  0.00000000000E+00 0.  1.
         11    1    4    4    0    0  0.11052551080E+02  0.26193811573E+02 -0.55801699182E+01  0.28972624090E+02  0.51100000000E-03 0. -1.
        -11    1    4    4    0    0 -0.81838528254E+00  0.10314256009E+02 -0.48871884748E+01  0.11442824954E+02  0.51100000000E-03 0.  1.
        -12    1    4    4    0    0  0.10100708192E+02 -0.59490124999E+01  0.75650981759E+01  0.13951550671E+02  0.00000000000E+00 0.  1.
</event>
<event>
 8    1  0.2514877E-006  0.9118800E+02  0.7816164E-02  0.1184000E+00
        -11   -1    0    0    0    0  0.00000000000E+00  0.00000000000E+00  0.45593999997E+02  0.45594000000E+02  0.51100000000E-03 0. -1.
         11   -1    0    0    0    0 -0.00000000000E+00 -0.00000000000E+00 -0.45593999997E+02  0.45594000000E+02  0.51100000000E-03 0.  1.
         23    2    1    2    0    0  0.71054273576E-14  0.71054273576E-14  0.44408920985E-15  0.91188000000E+02  0.91188000000E+02 0.  0.
    9900012    2    3    3    0    0  0.31161333174E+02  0.19498616111E+02  0.21342252067E+01  0.54367087020E+02  0.40000006480E+02 0.  0.
         12    1    3    3    0    0 -0.31161333174E+02 -0.19498616111E+02 -0.21342252067E+01  0.36820912980E+02  0.00000000000E+00 0. -1.
         11    1    4    4    0    0  0.40208272208E+01  0.58872517604E+01 -0.75009307465E+00  0.71686417620E+01  0.51100000000E-03 0. -1.
        -11    1    4    4    0    0  0.30484499299E+02  0.19980938217E+02 -0.46929584630E+01  0.36750053727E+02  0.51100000000E-03 0.  1.
         12    1    4    4    0    0 -0.33439933456E+01 -0.63695738663E+01  0.75772767444E+01  0.10448391531E+02  0.00000000000E+00 0. -1.
</event>
<event>
 8    1  0.2514877E-006  0.9118800E+02  0.7816164E-02  0.1184000E+00
        -11   -1    0    0    0    0  0.00000000000E+00  0.00000000000E+00  0.45593999997E+02  0.45594000000E+02  0.51100000000E-03 0. -1.
         11   -1    0    0    0    0 -0.00000000000E+00 -0.00000000000E+00 -0.45593999997E+02  0.45594000000E+02  0.51100000000E-03 0.  1.
         23    2    1    2    0    0  0.00000000000E+00  0.00000000000E+00 -0.35527136788E-14  0.91188000000E+02  0.91188000000E+02 0.  0.
    9900012    2    3    3    0    0  0.70841767782E+01 -0.24015733469E+02 -0.26997060562E+02  0.54367050886E+02  0.39999924104E+02 0.  0.
         12    1    3    3    0    0 -0.70841767782E+01  0.24015733469E+02  0.26997060562E+02  0.36820949114E+02  0.00000000000E+00 0. -1.
         11    1    4    4    0    0  0.30479738620E+01 -0.20506782079E+02 -0.34207659452E+02  0.39999777766E+02  0.51100000000E-03 0.  1.
        -11    1    4    4    0    0  0.52753225793E+01 -0.18972698652E+01 -0.11841892474E+01  0.57298312097E+01  0.51100000000E-03 0. -1.
        -12    1    4    4    0    0 -0.12391196630E+01 -0.16116815247E+01  0.83947881373E+01  0.86374419099E+01  0.00000000000E+00 0.  1.
</event>
<event>
 8    1  0.2514877E-006  0.9118800E+02  0.7816164E-02  0.1184000E+00
        -11   -1    0    0    0    0  0.00000000000E+00  0.00000000000E+00  0.45593999997E+02  0.45594000000E+02  0.51100000000E-03 0.  1.
         11   -1    0    0    0    0 -0.00000000000E+00 -0.00000000000E+00 -0.45593999997E+02  0.45594000000E+02  0.51100000000E-03 0. -1.
         23    2    1    2    0    0 -0.35527136788E-14  0.35527136788E-14  0.00000000000E+00  0.91188000000E+02  0.91188000000E+02 0.  0.
    9900012    2    3    3    0    0 -0.17120652113E+02  0.17404436038E+02  0.27563554973E+02  0.54367072726E+02  0.39999973893E+02 0.  0.
         12    1    3    3    0    0  0.17120652113E+02 -0.17404436038E+02 -0.27563554973E+02  0.36820927274E+02  0.00000000000E+00 0. -1.
         11    1    4    4    0    0  0.24601537577E+01 -0.50147681407E+01  0.19143111947E+02  0.19941388901E+02  0.51100000000E-03 0. -1.
        -11    1    4    4    0    0 -0.17570639311E+02  0.88731107953E+01  0.48013302896E+01  0.20261101495E+02  0.51100000000E-03 0.  1.
         12    1    4    4    0    0 -0.20101665593E+01  0.13546093384E+02  0.36191127358E+01  0.14164582329E+02  0.00000000000E+00 0. -1.
</event>
<event>
 8    1  0.2514877E-006  0.9118800E+02  0.7816164E-02  0.1184000E+00
        -11   -1    0    0    0    0  0.00000000000E+00  0.00000000000E+00  0.45593999997E+02  0.45594000000E+02  0.51100000000E-03 0.  1.
         11   -1    0    0    0    0 -0.00000000000E+00 -0.00000000000E+00 -0.45593999997E+02  0.45594000000E+02  0.51100000000E-03 0. -1.
         23    2    1    2    0    0 -0.88817841970E-15 -0.35527136788E-14  0.35527136788E-14  0.91188000000E+02  0.91188000000E+02 0.  0.
    9900012    2    3    3    0    0 -0.21259276386E+01  0.27210924243E+02 -0.24714888381E+02  0.54367086456E+02  0.40000005195E+02 0.  0.
        -12    1    3    3    0    0  0.21259276386E+01 -0.27210924243E+02  0.24714888381E+02  0.36820913544E+02  0.00000000000E+00 0.  1.
         11    1    4    4    0    0 -0.77189210041E+01 -0.38340734755E+01 -0.15698953620E+00  0.86201222067E+01  0.51100000000E-03 0. -1.
        -11    1    4    4    0    0 -0.29092628360E+01  0.50517604510E+01  0.33080532271E+01  0.67027837737E+01  0.51100000000E-03 0.  1.
         12    1    4    4    0    0  0.85022562015E+01  0.25993237268E+02 -0.27865952072E+02  0.39044180476E+02  0.00000000000E+00 0. -1.
</event>
<event>
 8    1  0.2514877E-006  0.9118800E+02  0.7816164E-02  0.1184000E+00
        -11   -1    0    0    0    0  0.00000000000E+00  0.00000000000E+00  0.45593999997E+02  0.45594000000E+02  0.51100000000E-03 0. -1.
         11   -1    0    0    0    0 -0.00000000000E+00 -0.00000000000E+00 -0.45593999997E+02  0.45594000000E+02  0.51100000000E-03 0.  1.
         23    2    1    2    0    0  0.00000000000E+00  0.00000000000E+00  0.00000000000E+00  0.91188000000E+02  0.91188000000E+02 0.  0.
    9900012    2    3    3    0    0  0.25107141654E+02 -0.10911174349E+02  0.24624418795E+02  0.54367023795E+02  0.39999862345E+02 0.  0.
        -12    1    3    3    0    0 -0.25107141654E+02  0.10911174349E+02 -0.24624418795E+02  0.36820976205E+02  0.00000000000E+00 0.  1.
         11    1    4    4    0    0  0.12603249172E+02 -0.26662422525E+00  0.20703410517E+02  0.24239310746E+02  0.51100000000E-03 0. -1.
        -11    1    4    4    0    0  0.92019555729E+01  0.72115304571E+01  0.20948001984E+01  0.11877303820E+02  0.51100000000E-03 0.  1.
         12    1    4    4    0    0  0.33019369097E+01 -0.17856080581E+02  0.18262080798E+01  0.18250409229E+02  0.00000000000E+00 0. -1.
</event>
<event>
 8    1  0.2514877E-006  0.9118800E+02  0.7816164E-02  0.1184000E+00
        -11   -1    0    0    0    0  0.00000000000E+00  0.00000000000E+00  0.45593999997E+02  0.45594000000E+02  0.51100000000E-03 0. -1.
         11   -1    0    0    0    0 -0.00000000000E+00 -0.00000000000E+00 -0.45593999997E+02  0.45594000000E+02  0.51100000000E-03 0.  1.
         23    2    1    2    0    0  0.22204460493E-15  0.00000000000E+00  0.22204460493E-15  0.91188000000E+02  0.91188000000E+02 0.  0.
    9900012    2    3    3    0    0  0.18962387524E+01 -0.36738535393E+02 -0.15698146197E+01  0.54367081732E+02  0.39999994423E+02 0.  0.
        -12    1    3    3    0    0 -0.18962387524E+01  0.36738535393E+02  0.15698146197E+01  0.36820918268E+02  0.00000000000E+00 0.  1.
         11    1    4    4    0    0 -0.39205571382E+00 -0.29531472829E+02 -0.27401876223E+01  0.29660920815E+02  0.51100000000E-03 0. -1.
        -11    1    4    4    0    0 -0.38762247757E+01  0.11105453284E+01  0.10200395364E+02  0.10968431760E+02  0.51100000000E-03 0.  1.
         12    1    4    4    0    0  0.61645192419E+01 -0.83176078915E+01 -0.90300223611E+01  0.13737729156E+02  0.00000000000E+00 0. -1.
</event>
<event>
 8    1  0.2514877E-006  0.9118800E+02  0.7816164E-02  0.1184000E+00
        -11   -1    0    0    0    0  0.00000000000E+00  0.00000000000E+00  0.45593999997E+02  0.45594000000E+02  0.51100000000E-03 0.  1.
         11   -1    0    0    0    0 -0.00000000000E+00 -0.00000000000E+00 -0.45593999997E+02  0.45594000000E+02  0.51100000000E-03 0. -1.
         23    2    1    2    0    0  0.00000000000E+00 -0.17763568394E-14  0.00000000000E+00  0.91188000000E+02  0.91188000000E+02 0.  0.
    9900012    2    3    3    0    0 -0.25529395251E+02 -0.15646621959E+02 -0.21429247216E+02  0.54367089679E+02  0.40000012541E+02 0.  0.
        -12    1    3    3    0    0  0.25529395251E+02  0.15646621959E+02  0.21429247216E+02  0.36820910321E+02  0.00000000000E+00 0.  1.
         11    1    4    4    0    0 -0.56028503845E+01 -0.47394104984E+01 -0.42290819901E+01  0.84698925049E+01  0.51100000000E-03 0. -1.
        -11    1    4    4    0    0 -0.23679579135E+01 -0.20662065887E+02 -0.15100872786E+02  0.25701450359E+02  0.51100000000E-03 0.  1.
         12    1    4    4    0    0 -0.17558586953E+02  0.97548544264E+01 -0.20992924402E+01  0.20195746815E+02  0.00000000000E+00 0. -1.
</event>
<event>
 8    1  0.2514877E-006  0.9118800E+02  0.7816164E-02  0.1184000E+00
        -11   -1    0    0    0    0  0.00000000000E+00  0.00000000000E+00  0.45593999997E+02  0.45594000000E+02  0.51100000000E-03 0. -1.
         11   -1    0    0    0    0 -0.00000000000E+00 -0.00000000000E+00 -0.45593999997E+02  0.45594000000E+02  0.51100000000E-03 0.  1.
         23    2    1    2    0    0  0.35527136788E-14  0.00000000000E+00  0.00000000000E+00  0.91188000000E+02  0.91188000000E+02 0.  0.
    9900012    2    3    3    0    0  0.17552592560E+02 -0.12088127677E+02 -0.30026031360E+02  0.54367097030E+02  0.40000029299E+02 0.  0.
         12    1    3    3    0    0 -0.17552592560E+02  0.12088127677E+02  0.30026031360E+02  0.36820902970E+02  0.00000000000E+00 0. -1.
         11    1    4    4    0    0 -0.90057594340E+01 -0.11170037730E+01 -0.13925116584E+02  0.16621079163E+02  0.51100000000E-03 0. -1.
        -11    1    4    4    0    0  0.23011826700E+02 -0.11675282671E+02 -0.19836193760E+02  0.32547365126E+02  0.51100000000E-03 0.  1.
         12    1    4    4    0    0  0.35465252940E+01  0.70415876739E+00  0.37352789839E+01  0.51986527407E+01  0.00000000000E+00 0. -1.
</event>
<event>
 8    1  0.2514877E-006  0.9118800E+02  0.7816164E-02  0.1184000E+00
        -11   -1    0    0    0    0  0.00000000000E+00  0.00000000000E+00  0.45593999997E+02  0.45594000000E+02  0.51100000000E-03 0. -1.
         11   -1    0    0    0    0 -0.00000000000E+00 -0.00000000000E+00 -0.45593999997E+02  0.45594000000E+02  0.51100000000E-03 0.  1.
         23    2    1    2    0    0  0.00000000000E+00  0.88817841970E-15  0.00000000000E+00  0.91188000000E+02  0.91188000000E+02 0.  0.
    9900012    2    3    3    0    0 -0.15578994556E+02  0.59854651461E+01 -0.32821484428E+02  0.54367072466E+02  0.39999973301E+02 0.  0.
         12    1    3    3    0    0  0.15578994556E+02 -0.59854651461E+01  0.32821484428E+02  0.36820927534E+02  0.00000000000E+00 0. -1.
         11    1    4    4    0    0 -0.33858101604E+01  0.34718736043E+01  0.18675687201E+01  0.51966748938E+01  0.51100000000E-03 0.  1.
        -11    1    4    4    0    0 -0.19486289248E+02 -0.84915751095E+01 -0.24875395124E+02  0.32720140576E+02  0.51100000000E-03 0. -1.
        -12    1    4    4    0    0  0.72931048526E+01  0.11005166651E+02 -0.98136580247E+01  0.16450256996E+02  0.00000000000E+00 0.  1.
</event>
<event>
 8    1  0.2514877E-006  0.9118800E+02  0.7816164E-02  0.1184000E+00
        -11   -1    0    0    0    0  0.00000000000E+00  0.00000000000E+00  0.45593999997E+02  0.45594000000E+02  0.51100000000E-03 0.  1.
         11   -1    0    0    0    0 -0.00000000000E+00 -0.00000000000E+00 -0.45593999997E+02  0.45594000000E+02  0.51100000000E-03 0. -1.
         23    2    1    2    0    0  0.00000000000E+00  0.35527136788E-14 -0.35527136788E-14  0.91188000000E+02  0.91188000000E+02 0.  0.
    9900012    2    3    3    0    0 -0.20775436945E+02  0.19433142279E+02  0.23377642588E+02  0.54367082411E+02  0.39999995972E+02 0.  0.
        -12    1    3    3    0    0  0.20775436945E+02 -0.19433142279E+02 -0.23377642588E+02  0.36820917589E+02  0.00000000000E+00 0.  1.
         11    1    4    4    0    0 -0.71963948435E+01  0.75026673149E+01  0.67477012323E+01  0.12393933506E+02  0.51100000000E-03 0.  1.
        -11    1    4    4    0    0  0.11368616116E+02  0.23896737687E+01  0.30569538832E+01  0.12012532640E+02  0.51100000000E-03 0. -1.
        -12    1    4    4    0    0 -0.24947658218E+02  0.95408011955E+01  0.13572987473E+02  0.29960616265E+02  0.00000000000E+00 0.  1.
</event>
<event>
 8    1  0.2514877E-006  0.9118800E+02  0.7816164E-02  0.1184000E+00
        -11   -1    0    0    0    0  0.00000000000E+00  0.00000000000E+00  0.45593999997E+02  0.45594000000E+02  0.51100000000E-03 0.  1.
         11   -1    0    0    0    0 -0.00000000000E+00 -0.00000000000E+00 -0.45593999997E+02  0.45594000000E+02  0.51100000000E-03 0. -1.
         23    2    1    2    0    0  0.00000000000E+00  0.00000000000E+00 -0.35527136788E-14  0.91188000000E+02  0.91188000000E+02 0.  0.
    9900012    2    3    3    0    0  0.27651633391E+02  0.15118690697E+02 -0.19041713060E+02  0.54367157073E+02  0.40000166179E+02 0.  0.
        -12    1    3    3    0    0 -0.27651633391E+02 -0.15118690697E+02  0.19041713060E+02  0.36820842927E+02  0.00000000000E+00 0.  1.
         11    1    4    4    0    0  0.17556063275E+02  0.11990652003E+02 -0.84871964503E+00  0.21277016202E+02  0.51100000000E-03 0.  1.
        -11    1    4    4    0    0  0.13552704687E+02  0.75323483529E+01 -0.16113927721E+01  0.15588735130E+02  0.51100000000E-03 0. -1.
        -12    1    4    4    0    0 -0.34571345700E+01 -0.44043096591E+01 -0.16581600643E+02  0.17501405741E+02  0.00000000000E+00 0.  1.
</event>
<event>
 8    1  0.2514877E-006  0.9118800E+02  0.7816164E-02  0.1184000E+00
        -11   -1    0    0    0    0  0.00000000000E+00  0.00000000000E+00  0.45593999997E+02  0.45594000000E+02  0.51100000000E-03 0. -1.
         11   -1    0    0    0    0 -0.00000000000E+00 -0.00000000000E+00 -0.45593999997E+02  0.45594000000E+02  0.51100000000E-03 0.  1.
         23    2    1    2    0    0  0.35527136788E-14  0.00000000000E+00  0.35527136788E-14  0.91188000000E+02  0.91188000000E+02 0.  0.
    9900012    2    3    3    0    0  0.20477767204E+02 -0.30831926015E+01  0.30445614735E+02  0.54367075475E+02  0.39999980161E+02 0.  0.
        -12    1    3    3    0    0 -0.20477767204E+02  0.30831926015E+01 -0.30445614735E+02  0.36820924525E+02  0.00000000000E+00 0.  1.
         11    1    4    4    0    0  0.18312971787E+02 -0.11428886430E+01  0.10176565985E+02  0.20981745057E+02  0.51100000000E-03 0.  1.
        -11    1    4    4    0    0 -0.25913242950E+01  0.25349994970E+01  0.25037835431E+02  0.25298900913E+02  0.51100000000E-03 0. -1.
        -12    1    4    4    0    0  0.47561197120E+01 -0.44753034555E+01 -0.47687866820E+01  0.80864295057E+01  0.00000000000E+00 0.  1.
</event>
<event>
 8    1  0.2514877E-006  0.9118800E+02  0.7816164E-02  0.1184000E+00
        -11   -1    0    0    0    0  0.00000000000E+00  0.00000000000E+00  0.45593999997E+02  0.45594000000E+02  0.51100000000E-03 0. -1.
         11   -1    0    0    0    0 -0.00000000000E+00 -0.00000000000E+00 -0.45593999997E+02  0.45594000000E+02  0.51100000000E-03 0.  1.
         23    2    1    2    0    0  0.17763568394E-14  0.35527136788E-14  0.35527136788E-14  0.91188000000E+02  0.91188000000E+02 0.  0.
    9900012    2    3    3    0    0 -0.72556058537E+01 -0.28274650890E+02 -0.22442925614E+02  0.54367019440E+02  0.39999852418E+02 0.  0.
         12    1    3    3    0    0  0.72556058537E+01  0.28274650890E+02  0.22442925614E+02  0.36820980560E+02  0.00000000000E+00 0. -1.
         11    1    4    4    0    0  0.11980711556E+02 -0.95067224004E+01 -0.98459328902E+01  0.18189491882E+02  0.51100000000E-03 0. -1.
        -11    1    4    4    0    0 -0.81615492932E+01  0.23591775584E+01  0.12635473007E+01  0.85891302039E+01  0.51100000000E-03 0.  1.
        -12    1    4    4    0    0 -0.11074768117E+02 -0.21127106048E+02 -0.13860540025E+02  0.27588397354E+02  0.00000000000E+00 0.  1.
</event>
<event>
 8    1  0.2514877E-006  0.9118800E+02  0.7816164E-02  0.1184000E+00
        -11   -1    0    0    0    0  0.00000000000E+00  0.00000000000E+00  0.45593999997E+02  0.45594000000E+02  0.51100000000E-03 0.  1.
         11   -1    0    0    0    0 -0.00000000000E+00 -0.00000000000E+00 -0.45593999997E+02  0.45594000000E+02  0.51100000000E-03 0. -1.
         23    2    1    2    0    0  0.00000000000E+00  0.17763568394E-14  0.00000000000E+00  0.91188000000E+02  0.91188000000E+02 0.  0.
    9900012    2    3    3    0    0 -0.34136083338E+02  0.11384769459E+02 -0.78034774553E+01  0.54367089886E+02  0.40000013012E+02 0.  0.
         12    1    3    3    0    0  0.34136083338E+02 -0.11384769459E+02  0.78034774553E+01  0.36820910114E+02  0.00000000000E+00 0. -1.
         11    1    4    4    0    0  0.34323501236E+01 -0.71581735728E+01 -0.92016191162E+01  0.12152788606E+02  0.51100000000E-03 0. -1.
        -11    1    4    4    0    0 -0.13318625494E+02  0.40378013522E+01 -0.10190147373E+00  0.13917615060E+02  0.51100000000E-03 0.  1.
         12    1    4    4    0    0 -0.24249807968E+02  0.14505141679E+02  0.15000431347E+01  0.28296686220E+02  0.00000000000E+00 0. -1.
</event>
<event>
 8    1  0.2514877E-006  0.9118800E+02  0.7816164E-02  0.1184000E+00
        -11   -1    0    0    0    0  0.00000000000E+00  0.00000000000E+00  0.45593999997E+02  0.45594000000E+02  0.51100000000E-03 0. -1.
         11   -1    0    0    0    0 -0.00000000000E+00 -0.00000000000E+00 -0.45593999997E+02  0.45594000000E+02  0.51100000000E-03 0.  1.
         23    2    1    2    0    0 -0.53290705182E-14  0.71054273576E-14  0.00000000000E+00  0.91188000000E+02  0.91188000000E+02 0.  0.
    9900012    2    3    3    0    0  0.14414695665E+02 -0.30338208714E+02 -0.15086031401E+02  0.54367099651E+02  0.40000035274E+02 0.  0.
         12    1    3    3    0    0 -0.14414695665E+02  0.30338208714E+02  0.15086031401E+02  0.36820900349E+02  0.00000000000E+00 0. -1.
         11    1    4    4    0    0 -0.68773795830E+01 -0.18540329246E+02 -0.12149812078E+01  0.19812075562E+02  0.51100000000E-03 0. -1.
        -11    1    4    4    0    0 -0.33077840195E+01 -0.19485949138E+00  0.11208727048E+01  0.34979652975E+01  0.51100000000E-03 0.  1.
        -12    1    4    4    0    0  0.24599859268E+02 -0.11603019977E+02 -0.14991922898E+02  0.31057058791E+02  0.00000000000E+00 0.  1.
</event>
<event>
 8    1  0.2514877E-006  0.9118800E+02  0.7816164E-02  0.1184000E+00
        -11   -1    0    0    0    0  0.00000000000E+00  0.00000000000E+00  0.45593999997E+02  0.45594000000E+02  0.51100000000E-03 0. -1.
         11   -1    0    0    0    0 -0.00000000000E+00 -0.00000000000E+00 -0.45593999997E+02  0.45594000000E+02  0.51100000000E-03 0.  1.
         23    2    1    2    0    0  0.00000000000E+00  0.00000000000E+00  0.00000000000E+00  0.91188000000E+02  0.91188000000E+02 0.  0.
    9900012    2    3    3    0    0 -0.20851073299E+02  0.83345680392E+01 -0.29181323061E+02  0.54367056262E+02  0.39999936361E+02 0.  0.
         12    1    3    3    0    0  0.20851073299E+02 -0.83345680392E+01  0.29181323061E+02  0.36820943738E+02  0.00000000000E+00 0. -1.
         11    1    4    4    0    0 -0.56279834258E-01 -0.20946981050E+01  0.22928691836E+01  0.31061514653E+01  0.51100000000E-03 0. -1.
        -11    1    4    4    0    0 -0.29551350404E+02  0.10732330863E+02 -0.26898551296E+02  0.41376289087E+02  0.51100000000E-03 0.  1.
        -12    1    4    4    0    0  0.87565569394E+01 -0.30306471855E+00 -0.45756409484E+01  0.98846157105E+01  0.00000000000E+00 0.  1.
</event>
<event>
 8    1  0.2514877E-006  0.9118800E+02  0.7816164E-02  0.1184000E+00
        -11   -1    0    0    0    0  0.00000000000E+00  0.00000000000E+00  0.45593999997E+02  0.45594000000E+02  0.51100000000E-03 0. -1.
         11   -1    0    0    0    0 -0.00000000000E+00 -0.00000000000E+00 -0.45593999997E+02  0.45594000000E+02  0.51100000000E-03 0.  1.
         23    2    1    2    0    0  0.00000000000E+00  0.00000000000E+00 -0.17763568394E-14  0.91188000000E+02  0.91188000000E+02 0.  0.
    9900012    2    3    3    0    0  0.26256981383E+02 -0.20356009043E+02 -0.15873892078E+02  0.54367127859E+02  0.40000099580E+02 0.  0.
         12    1    3    3    0    0 -0.26256981383E+02  0.20356009043E+02  0.15873892078E+02  0.36820872141E+02  0.00000000000E+00 0. -1.
         11    1    4    4    0    0 -0.39150254523E+01 -0.16059876479E+02 -0.14078403139E+02  0.21712864666E+02  0.51100000000E-03 0. -1.
        -11    1    4    4    0    0  0.30366129805E+01  0.14030150571E+01 -0.35420119027E+01  0.48718906211E+01  0.51100000000E-03 0.  1.
         12    1    4    4    0    0  0.27135393855E+02 -0.56991476219E+01  0.17465229628E+01  0.27782372572E+02  0.00000000000E+00 0. -1.
</event>
<event>
 8    1  0.2514877E-006  0.9118800E+02  0.7816164E-02  0.1184000E+00
        -11   -1    0    0    0    0  0.00000000000E+00  0.00000000000E+00  0.45593999997E+02  0.45594000000E+02  0.51100000000E-03 0. -1.
         11   -1    0    0    0    0 -0.00000000000E+00 -0.00000000000E+00 -0.45593999997E+02  0.45594000000E+02  0.51100000000E-03 0.  1.
         23    2    1    2    0    0 -0.88817841970E-15 -0.71054273576E-14 -0.38857805862E-15  0.91188000000E+02  0.91188000000E+02 0.  0.
    9900012    2    3    3    0    0  0.72680886222E+01  0.36095105175E+02 -0.31313500365E+00  0.54367084974E+02  0.40000001815E+02 0.  0.
        -12    1    3    3    0    0 -0.72680886222E+01 -0.36095105175E+02  0.31313500365E+00  0.36820915026E+02  0.00000000000E+00 0.  1.
         11    1    4    4    0    0  0.63688286815E+01  0.36803420475E+02  0.10908095411E+02  0.38910670557E+02  0.51100000000E-03 0. -1.
        -11    1    4    4    0    0  0.54045335046E+01  0.36148037559E+00 -0.85186282313E+01  0.10094883737E+02  0.51100000000E-03 0.  1.
         12    1    4    4    0    0 -0.45052735638E+01 -0.10697956757E+01 -0.27026021829E+01  0.53615306799E+01  0.00000000000E+00 0. -1.
</event>
<event>
 8    1  0.2514877E-006  0.9118800E+02  0.7816164E-02  0.1184000E+00
        -11   -1    0    0    0    0  0.00000000000E+00  0.00000000000E+00  0.45593999997E+02  0.45594000000E+02  0.51100000000E-03 0.  1.
         11   -1    0    0    0    0 -0.00000000000E+00 -0.00000000000E+00 -0.45593999997E+02  0.45594000000E+02  0.51100000000E-03 0. -1.
         23    2    1    2    0    0  0.00000000000E+00  0.35527136788E-14  0.88817841970E-15  0.91188000000E+02  0.91188000000E+02 0.  0.
    9900012    2    3    3    0    0 -0.29839269570E+02  0.20897499798E+02  0.53564802219E+01  0.54367090361E+02  0.40000014095E+02 0.  0.
         12    1    3    3    0    0  0.29839269570E+02 -0.20897499798E+02 -0.53564802219E+01  0.36820909639E+02  0.00000000000E+00 0. -1.
         11    1    4    4    0    0  0.13179787106E+01  0.12614850952E+02 -0.33889747672E+01  0.13128468405E+02  0.51100000000E-03 0. -1.
        -11    1    4    4    0    0 -0.14279037521E+02  0.15863662280E+02  0.77577985026E+01  0.22709692454E+02  0.51100000000E-03 0.  1.
         12    1    4    4    0    0 -0.16878210760E+02 -0.75810134344E+01  0.98765648654E+00  0.18528929502E+02  0.00000000000E+00 0. -1.
</event>
<event>
 8    1  0.2514877E-006  0.9118800E+02  0.7816164E-02  0.1184000E+00
        -11   -1    0    0    0    0  0.00000000000E+00  0.00000000000E+00  0.45593999997E+02  0.45594000000E+02  0.51100000000E-03 0.  1.
         11   -1    0    0    0    0 -0.00000000000E+00 -0.00000000000E+00 -0.45593999997E+02  0.45594000000E+02  0.51100000000E-03 0. -1.
         23    2    1    2    0    0  0.00000000000E+00  0.00000000000E+00 -0.35527136788E-14  0.91188000000E+02  0.91188000000E+02 0.  0.
    9900012    2    3    3    0    0 -0.41548972552E+01  0.26153960998E+02 -0.25583126960E+02  0.54366956667E+02  0.39999709312E+02 0.  0.
        -12    1    3    3    0    0  0.41548972552E+01 -0.26153960998E+02  0.25583126960E+02  0.36821043333E+02  0.00000000000E+00 0.  1.
         11    1    4    4    0    0 -0.15379605856E+02  0.13670628071E+02 -0.23782987891E+02  0.31449147229E+02  0.51100000000E-03 0. -1.
        -11    1    4    4    0    0  0.19122252840E+01 -0.12791693352E+01  0.45740832998E+01  0.51200701185E+01  0.51100000000E-03 0.  1.
         12    1    4    4    0    0  0.93124833172E+01  0.13762502262E+02 -0.63742223692E+01  0.17797739319E+02  0.00000000000E+00 0. -1.
</event>
<event>
 8    1  0.2514877E-006  0.9118800E+02  0.7816164E-02  0.1184000E+00
        -11   -1    0    0    0    0  0.00000000000E+00  0.00000000000E+00  0.45593999997E+02  0.45594000000E+02  0.51100000000E-03 0. -1.
         11   -1    0    0    0    0 -0.00000000000E+00 -0.00000000000E+00 -0.45593999997E+02  0.45594000000E+02  0.51100000000E-03 0.  1.
         23    2    1    2    0    0  0.35527136788E-14  0.71054273576E-14  0.17763568394E-14  0.91188000000E+02  0.91188000000E+02 0.  0.
    9900012    2    3    3    0    0 -0.25533033377E+02 -0.24203954650E+02 -0.10863424264E+02  0.54367065725E+02  0.39999957934E+02 0.  0.
        -12    1    3    3    0    0  0.25533033377E+02  0.24203954650E+02  0.10863424264E+02  0.36820934275E+02  0.00000000000E+00 0.  1.
         11    1    4    4    0    0 -0.10208286282E+02 -0.23577817020E+02  0.37252900937E+01  0.25961516727E+02  0.51100000000E-03 0. -1.
        -11    1    4    4    0    0 -0.23406946759E+01  0.56180538883E+01 -0.12426287720E+02  0.13836690638E+02  0.51100000000E-03 0.  1.
         12    1    4    4    0    0 -0.12984052419E+02 -0.62441915189E+01 -0.21624266376E+01  0.14568858360E+02  0.00000000000E+00 0. -1.
</event>
<event>
 8    1  0.2514877E-006  0.9118800E+02  0.7816164E-02  0.1184000E+00
        -11   -1    0    0    0    0  0.00000000000E+00  0.00000000000E+00  0.45593999997E+02  0.45594000000E+02  0.51100000000E-03 0. -1.
         11   -1    0    0    0    0 -0.00000000000E+00 -0.00000000000E+00 -0.45593999997E+02  0.45594000000E+02  0.51100000000E-03 0.  1.
         23    2    1    2    0    0  0.35527136788E-14  0.00000000000E+00  0.00000000000E+00  0.91188000000E+02  0.91188000000E+02 0.  0.
    9900012    2    3    3    0    0  0.19826366890E+02  0.29378745390E+02  0.99791867076E+01  0.54367086485E+02  0.40000005259E+02 0.  0.
        -12    1    3    3    0    0 -0.19826366890E+02 -0.29378745390E+02 -0.99791867076E+01  0.36820913515E+02  0.00000000000E+00 0.  1.
         11    1    4    4    0    0  0.88352565248E+00  0.58824671468E+00 -0.37763383819E+01  0.39226755680E+01  0.51100000000E-03 0. -1.
        -11    1    4    4    0    0  0.10509093433E+02  0.12689480220E+02 -0.10942671492E+02  0.19778928502E+02  0.51100000000E-03 0.  1.
         12    1    4    4    0    0  0.84337478049E+01  0.16101018455E+02  0.24698196582E+02  0.30665482415E+02  0.00000000000E+00 0. -1.
</event>
<event>
 8    1  0.2514877E-006  0.9118800E+02  0.7816164E-02  0.1184000E+00
        -11   -1    0    0    0    0  0.00000000000E+00  0.00000000000E+00  0.45593999997E+02  0.45594000000E+02  0.51100000000E-03 0. -1.
         11   -1    0    0    0    0 -0.00000000000E+00 -0.00000000000E+00 -0.45593999997E+02  0.45594000000E+02  0.51100000000E-03 0.  1.
         23    2    1    2    0    0  0.00000000000E+00  0.00000000000E+00  0.17763568394E-14  0.91188000000E+02  0.91188000000E+02 0.  0.
    9900012    2    3    3    0    0  0.32672545613E+01  0.35309117838E+02  0.99181997765E+01  0.54367089614E+02  0.40000012393E+02 0.  0.
         12    1    3    3    0    0 -0.32672545613E+01 -0.35309117838E+02 -0.99181997765E+01  0.36820910386E+02  0.00000000000E+00 0. -1.
         11    1    4    4    0    0  0.58810794036E+01 -0.17314010154E+01  0.14577132564E+02  0.15813843255E+02  0.51100000000E-03 0. -1.
        -11    1    4    4    0    0 -0.10384069268E+01  0.39648807334E+01  0.23242796643E+01  0.47117772013E+01  0.51100000000E-03 0.  1.
         12    1    4    4    0    0 -0.15754179155E+01  0.33075638120E+02 -0.69832124520E+01  0.33841469158E+02  0.00000000000E+00 0. -1.
</event>
<event>
 8    1  0.2514877E-006  0.9118800E+02  0.7816164E-02  0.1184000E+00
        -11   -1    0    0    0    0  0.00000000000E+00  0.00000000000E+00  0.45593999997E+02  0.45594000000E+02  0.51100000000E-03 0. -1.
         11   -1    0    0    0    0 -0.00000000000E+00 -0.00000000000E+00 -0.45593999997E+02  0.45594000000E+02  0.51100000000E-03 0.  1.
         23    2    1    2    0    0  0.00000000000E+00  0.00000000000E+00 -0.35527136788E-14  0.91188000000E+02  0.91188000000E+02 0.  0.
    9900012    2    3    3    0    0  0.58791597152E+01  0.19254429842E+02  0.30829774875E+02  0.54367182433E+02  0.40000223992E+02 0.  0.
        -12    1    3    3    0    0 -0.58791597152E+01 -0.19254429842E+02 -0.30829774875E+02  0.36820817567E+02  0.00000000000E+00 0.  1.
         11    1    4    4    0    0  0.99335424193E+01  0.11836602210E+02  0.16670181934E+02  0.22730494557E+02  0.51100000000E-03 0. -1.
        -11    1    4    4    0    0 -0.45507979890E+01 -0.94705465928E+01  0.17002627842E+01  0.10643867197E+02  0.51100000000E-03 0.  1.
         12    1    4    4    0    0  0.49641528487E+00  0.16888374225E+02  0.12459330157E+02  0.20992820679E+02  0.00000000000E+00 0. -1.
</event>
<event>
 8    1  0.2514877E-006  0.9118800E+02  0.7816164E-02  0.1184000E+00
        -11   -1    0    0    0    0  0.00000000000E+00  0.00000000000E+00  0.45593999997E+02  0.45594000000E+02  0.51100000000E-03 0.  1.
         11   -1    0    0    0    0 -0.00000000000E+00 -0.00000000000E+00 -0.45593999997E+02  0.45594000000E+02  0.51100000000E-03 0. -1.
         23    2    1    2    0    0 -0.71054273576E-14  0.19984014443E-14 -0.17763568394E-14  0.91188000000E+02  0.91188000000E+02 0.  0.
    9900012    2    3    3    0    0 -0.35318213609E+02  0.19051828353E+01 -0.10235819385E+02  0.54367110105E+02  0.40000059107E+02 0.  0.
        -12    1    3    3    0    0  0.35318213609E+02 -0.19051828353E+01  0.10235819385E+02  0.36820889895E+02  0.00000000000E+00 0.  1.
         11    1    4    4    0    0 -0.67433159069E+01  0.48126113443E+01 -0.82001833776E+01  0.11656609501E+02  0.51100000000E-03 0. -1.
        -11    1    4    4    0    0 -0.16859004474E+01 -0.82521495359E+01  0.97372259559E+01  0.12874540841E+02  0.51100000000E-03 0.  1.
        -12    1    4    4    0    0 -0.26888997255E+02  0.53447210270E+01 -0.11772861963E+02  0.29835959764E+02  0.00000000000E+00 0.  1.
</event>
<event>
 8    1  0.2514877E-006  0.9118800E+02  0.7816164E-02  0.1184000E+00
        -11   -1    0    0    0    0  0.00000000000E+00  0.00000000000E+00  0.45593999997E+02  0.45594000000E+02  0.51100000000E-03 0. -1.
         11   -1    0    0    0    0 -0.00000000000E+00 -0.00000000000E+00 -0.45593999997E+02  0.45594000000E+02  0.51100000000E-03 0.  1.
         23    2    1    2    0    0  0.11102230246E-15  0.00000000000E+00  0.35527136788E-14  0.91188000000E+02  0.91188000000E+02 0.  0.
    9900012    2    3    3    0    0  0.45326995604E+00  0.29076516547E+02 -0.22586214648E+02  0.54366995664E+02  0.39999798214E+02 0.  0.
         12    1    3    3    0    0 -0.45326995604E+00 -0.29076516547E+02  0.22586214648E+02  0.36821004336E+02  0.00000000000E+00 0. -1.
         11    1    4    4    0    0 -0.10681626107E+02  0.41029319331E+01  0.44987472588E+01  0.12295117482E+02  0.51100000000E-03 0. -1.
        -11    1    4    4    0    0 -0.34184446632E+01  0.73204703702E+01 -0.12682768058E+02  0.15037541562E+02  0.51100000000E-03 0.  1.
         12    1    4    4    0    0  0.14553340726E+02  0.17653114244E+02 -0.14402193849E+02  0.27034336620E+02  0.00000000000E+00 0. -1.
</event>
<event>
 8    1  0.2514877E-006  0.9118800E+02  0.7816164E-02  0.1184000E+00
        -11   -1    0    0    0    0  0.00000000000E+00  0.00000000000E+00  0.45593999997E+02  0.45594000000E+02  0.51100000000E-03 0. -1.
         11   -1    0    0    0    0 -0.00000000000E+00 -0.00000000000E+00 -0.45593999997E+02  0.45594000000E+02  0.51100000000E-03 0.  1.
         23    2    1    2    0    0  0.17763568394E-14 -0.17763568394E-14  0.00000000000E+00  0.91188000000E+02  0.91188000000E+02 0.  0.
    9900012    2    3    3    0    0 -0.10508340676E+02 -0.85918425207E+01 -0.34227704546E+02  0.54367071981E+02  0.39999972195E+02 0.  0.
         12    1    3    3    0    0  0.10508340676E+02  0.85918425207E+01  0.34227704546E+02  0.36820928019E+02  0.00000000000E+00 0. -1.
         11    1    4    4    0    0 -0.10163909395E+02  0.28060565852E+01 -0.52512485712E+01  0.11779415078E+02  0.51100000000E-03 0. -1.
        -11    1    4    4    0    0 -0.73758956548E+01  0.55662550173E+01 -0.12404310317E+01  0.93233953597E+01  0.51100000000E-03 0.  1.
        -12    1    4    4    0    0  0.70314643739E+01 -0.16964154123E+02 -0.27736024944E+02  0.33264261543E+02  0.00000000000E+00 0.  1.
</event>
<event>
 8    1  0.2514877E-006  0.9118800E+02  0.7816164E-02  0.1184000E+00
        -11   -1    0    0    0    0  0.00000000000E+00  0.00000000000E+00  0.45593999997E+02  0.45594000000E+02  0.51100000000E-03 0.  1.
         11   -1    0    0    0    0 -0.00000000000E+00 -0.00000000000E+00 -0.45593999997E+02  0.45594000000E+02  0.51100000000E-03 0. -1.
         23    2    1    2    0    0  0.71054273576E-14  0.17763568394E-14 -0.35527136788E-14  0.91188000000E+02  0.91188000000E+02 0.  0.
    9900012    2    3    3    0    0  0.33002886667E+02  0.95075045945E+01 -0.13273912907E+02  0.54367082903E+02  0.39999997095E+02 0.  0.
        -12    1    3    3    0    0 -0.33002886667E+02 -0.95075045945E+01  0.13273912907E+02  0.36820917097E+02  0.00000000000E+00 0.  1.
         11    1    4    4    0    0  0.21275727515E+02  0.10172357262E+02  0.26739442111E+00  0.23583997405E+02  0.51100000000E-03 0. -1.
        -11    1    4    4    0    0  0.12192722505E+02  0.99102076616E+01 -0.33012518153E+01  0.16055309458E+02  0.51100000000E-03 0.  1.
         12    1    4    4    0    0 -0.46556335218E+00 -0.10575060329E+02 -0.10240055513E+02  0.14727776041E+02  0.00000000000E+00 0. -1.
</event>
<event>
 8    1  0.2514877E-006  0.9118800E+02  0.7816164E-02  0.1184000E+00
        -11   -1    0    0    0    0  0.00000000000E+00  0.00000000000E+00  0.45593999997E+02  0.45594000000E+02  0.51100000000E-03 0.  1.
         11   -1    0    0    0    0 -0.00000000000E+00 -0.00000000000E+00 -0.45593999997E+02  0.45594000000E+02  0.51100000000E-03 0. -1.
         23    2    1    2    0    0  0.00000000000E+00  0.35527136788E-14  0.00000000000E+00  0.91188000000E+02  0.91188000000E+02 0.  0.
    9900012    2    3    3    0    0 -0.19400702824E+02  0.25982782768E+02 -0.17443855108E+02  0.54367077260E+02  0.39999984229E+02 0.  0.
        -12    1    3    3    0    0  0.19400702824E+02 -0.25982782768E+02  0.17443855108E+02  0.36820922740E+02  0.00000000000E+00 0.  1.
         11    1    4    4    0    0 -0.15809440488E+02  0.36096887658E+02 -0.17518189242E+02  0.43125522162E+02  0.51100000000E-03 0. -1.
        -11    1    4    4    0    0 -0.19744956795E+01 -0.16247033992E+01 -0.39256954746E+00  0.25869683869E+01  0.51100000000E-03 0.  1.
         12    1    4    4    0    0 -0.16167666560E+01 -0.84894014909E+01  0.46690368214E+00  0.86545867112E+01  0.00000000000E+00 0. -1.
</event>
<event>
 8    1  0.2514877E-006  0.9118800E+02  0.7816164E-02  0.1184000E+00
        -11   -1    0    0    0    0  0.00000000000E+00  0.00000000000E+00  0.45593999997E+02  0.45594000000E+02  0.51100000000E-03 0.  1.
         11   -1    0    0    0    0 -0.00000000000E+00 -0.00000000000E+00 -0.45593999997E+02  0.45594000000E+02  0.51100000000E-03 0. -1.
         23    2    1    2    0    0 -0.17763568394E-14  0.00000000000E+00  0.00000000000E+00  0.91188000000E+02  0.91188000000E+02 0.  0.
    9900012    2    3    3    0    0 -0.14892891432E+02  0.33066469653E+02  0.63709575065E+01  0.54367099277E+02  0.40000034422E+02 0.  0.
         12    1    3    3    0    0  0.14892891432E+02 -0.33066469653E+02 -0.63709575065E+01  0.36820900723E+02  0.00000000000E+00 0. -1.
         11    1    4    4    0    0 -0.10194974336E+02  0.48718749598E+01 -0.64861596745E+01  0.13028543085E+02  0.51100000000E-03 0. -1.
        -11    1    4    4    0    0  0.82722874593E+01  0.12376200079E+01  0.68844377216E+01  0.10833186332E+02  0.51100000000E-03 0.  1.
        -12    1    4    4    0    0 -0.12970204556E+02  0.26956974685E+02  0.59726794594E+01  0.30505369860E+02  0.00000000000E+00 0.  1.
</event>
<event>
 8    1  0.2514877E-006  0.9118800E+02  0.7816164E-02  0.1184000E+00
        -11   -1    0    0    0    0  0.00000000000E+00  0.00000000000E+00  0.45593999997E+02  0.45594000000E+02  0.51100000000E-03 0.  1.
         11   -1    0    0    0    0 -0.00000000000E+00 -0.00000000000E+00 -0.45593999997E+02  0.45594000000E+02  0.51100000000E-03 0. -1.
         23    2    1    2    0    0 -0.88817841970E-15  0.00000000000E+00  0.00000000000E+00  0.91188000000E+02  0.91188000000E+02 0.  0.
    9900012    2    3    3    0    0 -0.73622879901E+01 -0.29594690309E+02 -0.20633180102E+02  0.54367121411E+02  0.40000084880E+02 0.  0.
         12    1    3    3    0    0  0.73622879901E+01  0.29594690309E+02  0.20633180102E+02  0.36820878589E+02  0.00000000000E+00 0. -1.
         11    1    4    4    0    0 -0.36138834966E+01  0.82822338274E+00 -0.21046482987E+01  0.42632912897E+01  0.51100000000E-03 0. -1.
        -11    1    4    4    0    0  0.85121033786E+01 -0.62958471905E+01  0.71668908066E+01  0.12785066283E+02  0.51100000000E-03 0.  1.
         12    1    4    4    0    0 -0.12260507872E+02 -0.24127066501E+02 -0.25695422610E+02  0.37318763838E+02  0.00000000000E+00 0. -1.
</event>
<event>
 8    1  0.2514877E-006  0.9118800E+02  0.7816164E-02  0.1184000E+00
        -11   -1    0    0    0    0  0.00000000000E+00  0.00000000000E+00  0.45593999997E+02  0.45594000000E+02  0.51100000000E-03 0.  1.
         11   -1    0    0    0    0 -0.00000000000E+00 -0.00000000000E+00 -0.45593999997E+02  0.45594000000E+02  0.51100000000E-03 0. -1.
         23    2    1    2    0    0 -0.17763568394E-14  0.00000000000E+00 -0.44408920985E-15  0.91188000000E+02  0.91188000000E+02 0.  0.
    9900012    2    3    3    0    0  0.68862174744E+01 -0.36014716599E+02  0.33616795689E+01  0.54367072630E+02  0.39999973675E+02 0.  0.
         12    1    3    3    0    0 -0.68862174744E+01  0.36014716599E+02 -0.33616795689E+01  0.36820927370E+02  0.00000000000E+00 0. -1.
         11    1    4    4    0    0 -0.41237962048E+01  0.53760873690E+01  0.97054384925E+00  0.68447035116E+01  0.51100000000E-03 0. -1.
        -11    1    4    4    0    0  0.16010804936E+02 -0.36719733451E+02  0.46234580589E+01  0.40324447474E+02  0.51100000000E-03 0.  1.
        -12    1    4    4    0    0 -0.50007912569E+01 -0.46710705176E+01 -0.22323223392E+01  0.71979216446E+01  0.00000000000E+00 0.  1.
</event>
<event>
 8    1  0.2514877E-006  0.9118800E+02  0.7816164E-02  0.1184000E+00
        -11   -1    0    0    0    0  0.00000000000E+00  0.00000000000E+00  0.45593999997E+02  0.45594000000E+02  0.51100000000E-03 0.  1.
         11   -1    0    0    0    0 -0.00000000000E+00 -0.00000000000E+00 -0.45593999997E+02  0.45594000000E+02  0.51100000000E-03 0. -1.
         23    2    1    2    0    0  0.12767564783E-14  0.00000000000E+00 -0.53290705182E-14  0.91188000000E+02  0.91188000000E+02 0.  0.
    9900012    2    3    3    0    0  0.44281597864E+00  0.33359603897E+02 -0.15579569312E+02  0.54367051640E+02  0.39999925825E+02 0.  0.
         12    1    3    3    0    0 -0.44281597864E+00 -0.33359603897E+02  0.15579569312E+02  0.36820948360E+02  0.00000000000E+00 0. -1.
         11    1    4    4    0    0 -0.92338431018E+01  0.13666865294E+02  0.76764862830E+01  0.18192732266E+02  0.51100000000E-03 0.  1.
        -11    1    4    4    0    0  0.11591506631E+02  0.16051249285E+02 -0.24840388554E+02  0.31765555770E+02  0.51100000000E-03 0. -1.
         12    1    4    4    0    0 -0.19148475509E+01  0.36414893181E+01  0.15843329589E+01  0.44087636046E+01  0.00000000000E+00 0. -1.
</event>
<event>
 8    1  0.2514877E-006  0.9118800E+02  0.7816164E-02  0.1184000E+00
        -11   -1    0    0    0    0  0.00000000000E+00  0.00000000000E+00  0.45593999997E+02  0.45594000000E+02  0.51100000000E-03 0.  1.
         11   -1    0    0    0    0 -0.00000000000E+00 -0.00000000000E+00 -0.45593999997E+02  0.45594000000E+02  0.51100000000E-03 0. -1.
         23    2    1    2    0    0 -0.88817841970E-15  0.00000000000E+00 -0.35527136788E-14  0.91188000000E+02  0.91188000000E+02 0.  0.
    9900012    2    3    3    0    0 -0.48667284390E+01 -0.22742762429E+02  0.28545784938E+02  0.54367080316E+02  0.39999991197E+02 0.  0.
         12    1    3    3    0    0  0.48667284390E+01  0.22742762429E+02 -0.28545784938E+02  0.36820919684E+02  0.00000000000E+00 0. -1.
         11    1    4    4    0    0 -0.73597338641E+01  0.12506647922E+01 -0.11187333483E+01  0.75486031515E+01  0.51100000000E-03 0. -1.
        -11    1    4    4    0    0 -0.32676064464E+01 -0.11938480334E+02 -0.19188108785E+01  0.12525430133E+02  0.51100000000E-03 0.  1.
        -12    1    4    4    0    0  0.57606118715E+01 -0.12054946888E+02  0.31583329165E+02  0.34293047032E+02  0.00000000000E+00 0.  1.
</event>
<event>
 8    1  0.2514877E-006  0.9118800E+02  0.7816164E-02  0.1184000E+00
        -11   -1    0    0    0    0  0.00000000000E+00  0.00000000000E+00  0.45593999997E+02  0.45594000000E+02  0.51100000000E-03 0. -1.
         11   -1    0    0    0    0 -0.00000000000E+00 -0.00000000000E+00 -0.45593999997E+02  0.45594000000E+02  0.51100000000E-03 0.  1.
         23    2    1    2    0    0  0.00000000000E+00  0.00000000000E+00 -0.88817841970E-15  0.91188000000E+02  0.91188000000E+02 0.  0.
    9900012    2    3    3    0    0 -0.35437462057E+02 -0.80050566078E+01  0.59904303462E+01  0.54367083335E+02  0.39999998079E+02 0.  0.
        -12    1    3    3    0    0  0.35437462057E+02  0.80050566078E+01 -0.59904303462E+01  0.36820916665E+02  0.00000000000E+00 0.  1.
         11    1    4    4    0    0 -0.27730584525E+02 -0.45629975725E+01  0.14918966493E+02  0.31817948180E+02  0.51100000000E-03 0. -1.
        -11    1    4    4    0    0 -0.13503676257E+02 -0.53034899997E+01 -0.52094543492E+01  0.15414755707E+02  0.51100000000E-03 0.  1.
         12    1    4    4    0    0  0.57967987249E+01  0.18614309644E+01 -0.37190817972E+01  0.71343794479E+01  0.00000000000E+00 0. -1.
</event>
<event>
 8    1  0.2514877E-006  0.9118800E+02  0.7816164E-02  0.1184000E+00
        -11   -1    0    0    0    0  0.00000000000E+00  0.00000000000E+00  0.45593999997E+02  0.45594000000E+02  0.51100000000E-03 0.  1.
         11   -1    0    0    0    0 -0.00000000000E+00 -0.00000000000E+00 -0.45593999997E+02  0.45594000000E+02  0.51100000000E-03 0. -1.
         23    2    1    2    0    0 -0.35527136788E-14  0.00000000000E+00  0.00000000000E+00  0.91188000000E+02  0.91188000000E+02 0.  0.
    9900012    2    3    3    0    0 -0.18807270689E+02  0.18587648178E+02  0.25623552197E+02  0.54367074934E+02  0.39999978926E+02 0.  0.
         12    1    3    3    0    0  0.18807270689E+02 -0.18587648178E+02 -0.25623552197E+02  0.36820925066E+02  0.00000000000E+00 0. -1.
         11    1    4    4    0    0  0.63510450103E+00  0.96275456145E+01  0.15490130923E+02  0.18249305427E+02  0.51100000000E-03 0. -1.
        -11    1    4    4    0    0 -0.19322824660E+02 -0.49766086920E+01  0.96693218057E+01  0.22172820555E+02  0.51100000000E-03 0.  1.
         12    1    4    4    0    0 -0.11955052907E+00  0.13936711255E+02  0.46409946821E+00  0.13944948952E+02  0.00000000000E+00 0. -1.
</event>
<event>
 8    1  0.2514877E-006  0.9118800E+02  0.7816164E-02  0.1184000E+00
        -11   -1    0    0    0    0  0.00000000000E+00  0.00000000000E+00  0.45593999997E+02  0.45594000000E+02  0.51100000000E-03 0. -1.
         11   -1    0    0    0    0 -0.00000000000E+00 -0.00000000000E+00 -0.45593999997E+02  0.45594000000E+02  0.51100000000E-03 0.  1.
         23    2    1    2    0    0  0.00000000000E+00 -0.17763568394E-14 -0.71054273576E-14  0.91188000000E+02  0.91188000000E+02 0.  0.
    9900012    2    3    3    0    0  0.18643276411E+01  0.12741465047E+02  0.34495782831E+02  0.54367086347E+02  0.40000004946E+02 0.  0.
        -12    1    3    3    0    0 -0.18643276411E+01 -0.12741465047E+02 -0.34495782831E+02  0.36820913653E+02  0.00000000000E+00 0.  1.
         11    1    4    4    0    0  0.26637345211E+01 -0.53818854840E+01  0.86141308091E+01  0.10500639162E+02  0.51100000000E-03 0. -1.
        -11    1    4    4    0    0  0.74732353336E+00  0.73151065108E+01 -0.64249727316E+01  0.97647094473E+01  0.51100000000E-03 0.  1.
        -12    1    4    4    0    0 -0.15467304133E+01  0.10808244020E+02  0.32306624753E+02  0.34101737738E+02  0.00000000000E+00 0.  1.
</event>
<event>
 8    1  0.2514877E-006  0.9118800E+02  0.7816164E-02  0.1184000E+00
        -11   -1    0    0    0    0  0.00000000000E+00  0.00000000000E+00  0.45593999997E+02  0.45594000000E+02  0.51100000000E-03 0. -1.
         11   -1    0    0    0    0 -0.00000000000E+00 -0.00000000000E+00 -0.45593999997E+02  0.45594000000E+02  0.51100000000E-03 0.  1.
         23    2    1    2    0    0  0.00000000000E+00  0.44408920985E-15  0.00000000000E+00  0.91188000000E+02  0.91188000000E+02 0.  0.
    9900012    2    3    3    0    0 -0.18700986129E+02 -0.72131893638E+00  0.31710131416E+02  0.54367087225E+02  0.40000006946E+02 0.  0.
        -12    1    3    3    0    0  0.18700986129E+02  0.72131893638E+00 -0.31710131416E+02  0.36820912775E+02  0.00000000000E+00 0.  1.
         11    1    4    4    0    0  0.39279863389E+00 -0.95105263789E+01  0.10313493157E+02  0.14034690739E+02  0.51100000000E-03 0.  1.
        -11    1    4    4    0    0 -0.39155651456E+01  0.16638538824E+02  0.10258529253E+02  0.19935146032E+02  0.51100000000E-03 0. -1.
        -12    1    4    4    0    0 -0.15178219617E+02 -0.78493313814E+01  0.11138109006E+02  0.20397250454E+02  0.00000000000E+00 0.  1.
</event>
<event>
 8    1  0.2514877E-006  0.9118800E+02  0.7816164E-02  0.1184000E+00
        -11   -1    0    0    0    0  0.00000000000E+00  0.00000000000E+00  0.45593999997E+02  0.45594000000E+02  0.51100000000E-03 0.  1.
         11   -1    0    0    0    0 -0.00000000000E+00 -0.00000000000E+00 -0.45593999997E+02  0.45594000000E+02  0.51100000000E-03 0. -1.
         23    2    1    2    0    0  0.17763568394E-14  0.00000000000E+00  0.00000000000E+00  0.91188000000E+02  0.91188000000E+02 0.  0.
    9900012    2    3    3    0    0  0.35592907356E+01 -0.33390701407E+02  0.15105396258E+02  0.54367075418E+02  0.39999980030E+02 0.  0.
         12    1    3    3    0    0 -0.35592907356E+01  0.33390701407E+02 -0.15105396258E+02  0.36820924582E+02  0.00000000000E+00 0. -1.
         11    1    4    4    0    0  0.14727753299E+01  0.57934168344E+01 -0.72714277300E+00  0.60217507972E+01  0.51100000000E-03 0. -1.
        -11    1    4    4    0    0 -0.99118774901E+01 -0.98551025016E+01  0.43053967172E+01  0.14625484671E+02  0.51100000000E-03 0.  1.
        -12    1    4    4    0    0  0.11998392896E+02 -0.29329015739E+02  0.11527142314E+02  0.33719839950E+02  0.00000000000E+00 0.  1.
</event>
<event>
 8    1  0.2514877E-006  0.9118800E+02  0.7816164E-02  0.1184000E+00
        -11   -1    0    0    0    0  0.00000000000E+00  0.00000000000E+00  0.45593999997E+02  0.45594000000E+02  0.51100000000E-03 0.  1.
         11   -1    0    0    0    0 -0.00000000000E+00 -0.00000000000E+00 -0.45593999997E+02  0.45594000000E+02  0.51100000000E-03 0. -1.
         23    2    1    2    0    0 -0.17763568394E-14 -0.88817841970E-15  0.00000000000E+00  0.91188000000E+02  0.91188000000E+02 0.  0.
    9900012    2    3    3    0    0 -0.87157583799E+01  0.32236013798E+01 -0.35628970009E+02  0.54367088090E+02  0.40000008918E+02 0.  0.
        -12    1    3    3    0    0  0.87157583799E+01 -0.32236013798E+01  0.35628970009E+02  0.36820911910E+02  0.00000000000E+00 0.  1.
         11    1    4    4    0    0 -0.12256177713E+02 -0.10103932398E+02 -0.28042582897E+02  0.32228710769E+02  0.51100000000E-03 0. -1.
        -11    1    4    4    0    0 -0.29167308731E+01  0.12725949311E+02 -0.13235388615E+01  0.13122837355E+02  0.51100000000E-03 0.  1.
         12    1    4    4    0    0  0.64571502067E+01  0.60158446654E+00 -0.62628482510E+01  0.90155399659E+01  0.00000000000E+00 0. -1.
</event>
<event>
 8    1  0.2514877E-006  0.9118800E+02  0.7816164E-02  0.1184000E+00
        -11   -1    0    0    0    0  0.00000000000E+00  0.00000000000E+00  0.45593999997E+02  0.45594000000E+02  0.51100000000E-03 0.  1.
         11   -1    0    0    0    0 -0.00000000000E+00 -0.00000000000E+00 -0.45593999997E+02  0.45594000000E+02  0.51100000000E-03 0. -1.
         23    2    1    2    0    0  0.00000000000E+00  0.00000000000E+00  0.00000000000E+00  0.91188000000E+02  0.91188000000E+02 0.  0.
    9900012    2    3    3    0    0  0.20209561199E+02 -0.52026323510E+01 -0.30336076821E+02  0.54367200116E+02  0.40000264304E+02 0.  0.
        -12    1    3    3    0    0 -0.20209561199E+02  0.52026323510E+01  0.30336076821E+02  0.36820799884E+02  0.00000000000E+00 0.  1.
         11    1    4    4    0    0  0.13616816229E+02 -0.15270350871E+02 -0.28128368767E+02  0.34782271772E+02  0.51100000000E-03 0. -1.
        -11    1    4    4    0    0 -0.35505508908E+01  0.13395004152E+01  0.33816053813E+01  0.50829054887E+01  0.51100000000E-03 0.  1.
         12    1    4    4    0    0  0.10143295861E+02  0.87282181045E+01 -0.55893134353E+01  0.14502022855E+02  0.00000000000E+00 0. -1.
</event>
<event>
 8    1  0.2514877E-006  0.9118800E+02  0.7816164E-02  0.1184000E+00
        -11   -1    0    0    0    0  0.00000000000E+00  0.00000000000E+00  0.45593999997E+02  0.45594000000E+02  0.51100000000E-03 0. -1.
         11   -1    0    0    0    0 -0.00000000000E+00 -0.00000000000E+00 -0.45593999997E+02  0.45594000000E+02  0.51100000000E-03 0.  1.
         23    2    1    2    0    0  0.00000000000E+00  0.00000000000E+00  0.17763568394E-14  0.91188000000E+02  0.91188000000E+02 0.  0.
    9900012    2    3    3    0    0 -0.12555717155E+02 -0.33258307342E+02  0.95927248949E+01  0.54367062866E+02  0.39999951416E+02 0.  0.
         12    1    3    3    0    0  0.12555717155E+02  0.33258307342E+02 -0.95927248949E+01  0.36820937134E+02  0.00000000000E+00 0. -1.
         11    1    4    4    0    0 -0.98817034316E+01  0.29956741727E-01 -0.75646790394E-01  0.98820383937E+01  0.51100000000E-03 0. -1.
        -11    1    4    4    0    0 -0.14516050097E+02 -0.25134363927E+02  0.58468894069E+01  0.29608074514E+02  0.51100000000E-03 0.  1.
         12    1    4    4    0    0  0.11842036374E+02 -0.81539001568E+01  0.38214822784E+01  0.14876949958E+02  0.00000000000E+00 0. -1.
</event>
<event>
 8    1  0.2514877E-006  0.9118800E+02  0.7816164E-02  0.1184000E+00
        -11   -1    0    0    0    0  0.00000000000E+00  0.00000000000E+00  0.45593999997E+02  0.45594000000E+02  0.51100000000E-03 0.  1.
         11   -1    0    0    0    0 -0.00000000000E+00 -0.00000000000E+00 -0.45593999997E+02  0.45594000000E+02  0.51100000000E-03 0. -1.
         23    2    1    2    0    0  0.00000000000E+00  0.00000000000E+00  0.00000000000E+00  0.91188000000E+02  0.91188000000E+02 0.  0.
    9900012    2    3    3    0    0  0.34506361642E+02  0.74335950728E+01 -0.10480181472E+02  0.54367061213E+02  0.39999947648E+02 0.  0.
        -12    1    3    3    0    0 -0.34506361642E+02 -0.74335950728E+01  0.10480181472E+02  0.36820938787E+02  0.00000000000E+00 0.  1.
         11    1    4    4    0    0  0.17629753888E+02  0.65564931873E+01  0.65587014858E+01  0.19920150363E+02  0.51100000000E-03 0. -1.
        -11    1    4    4    0    0 -0.41520923430E+01  0.31707019094E+01  0.23716413800E+01  0.57374127026E+01  0.51100000000E-03 0.  1.
         12    1    4    4    0    0  0.21028700097E+02 -0.22936000239E+01 -0.19410524337E+02  0.28709498148E+02  0.00000000000E+00 0. -1.
</event>
<event>
 8    1  0.2514877E-006  0.9118800E+02  0.7816164E-02  0.1184000E+00
        -11   -1    0    0    0    0  0.00000000000E+00  0.00000000000E+00  0.45593999997E+02  0.45594000000E+02  0.51100000000E-03 0.  1.
         11   -1    0    0    0    0 -0.00000000000E+00 -0.00000000000E+00 -0.45593999997E+02  0.45594000000E+02  0.51100000000E-03 0. -1.
         23    2    1    2    0    0  0.19081958236E-14  0.00000000000E+00 -0.17763568394E-14  0.91188000000E+02  0.91188000000E+02 0.  0.
    9900012    2    3    3    0    0  0.33112595853E-01  0.35450461744E+02  0.99520541664E+01  0.54367085883E+02  0.40000003887E+02 0.  0.
         12    1    3    3    0    0 -0.33112595853E-01 -0.35450461744E+02 -0.99520541664E+01  0.36820914117E+02  0.00000000000E+00 0. -1.
         11    1    4    4    0    0  0.16143602896E+02  0.12496530616E+02  0.73208020269E+01  0.21688091997E+02  0.51100000000E-03 0. -1.
        -11    1    4    4    0    0 -0.11666574486E+01  0.80696907268E+01  0.74491579560E+01  0.11044046022E+02  0.51100000000E-03 0.  1.
         12    1    4    4    0    0 -0.14943832851E+02  0.14884240401E+02 -0.48179058165E+01  0.21634947864E+02  0.00000000000E+00 0. -1.
</event>
<event>
 8    1  0.2514877E-006  0.9118800E+02  0.7816164E-02  0.1184000E+00
        -11   -1    0    0    0    0  0.00000000000E+00  0.00000000000E+00  0.45593999997E+02  0.45594000000E+02  0.51100000000E-03 0. -1.
         11   -1    0    0    0    0 -0.00000000000E+00 -0.00000000000E+00 -0.45593999997E+02  0.45594000000E+02  0.51100000000E-03 0.  1.
         23    2    1    2    0    0  0.17763568394E-14  0.00000000000E+00  0.00000000000E+00  0.91188000000E+02  0.91188000000E+02 0.  0.
    9900012    2    3    3    0    0 -0.13858674318E+02 -0.33644270616E+02 -0.56373737525E+01  0.54367084993E+02  0.40000001858E+02 0.  0.
         12    1    3    3    0    0  0.13858674318E+02  0.33644270616E+02  0.56373737525E+01  0.36820915007E+02  0.00000000000E+00 0. -1.
         11    1    4    4    0    0 -0.98423798063E+01 -0.12584304529E+02  0.13748224067E+02  0.21077258503E+02  0.51100000000E-03 0. -1.
        -11    1    4    4    0    0 -0.35568193870E+00 -0.17460654169E+02 -0.52277135940E+01  0.18229918906E+02  0.51100000000E-03 0.  1.
        -12    1    4    4    0    0 -0.36606125730E+01 -0.35993119186E+01 -0.14157884226E+02  0.15059907584E+02  0.00000000000E+00 0.  1.
</event>
<event>
 8    1  0.2514877E-006  0.9118800E+02  0.7816164E-02  0.1184000E+00
        -11   -1    0    0    0    0  0.00000000000E+00  0.00000000000E+00  0.45593999997E+02  0.45594000000E+02  0.51100000000E-03 0.  1.
         11   -1    0    0    0    0 -0.00000000000E+00 -0.00000000000E+00 -0.45593999997E+02  0.45594000000E+02  0.51100000000E-03 0. -1.
         23    2    1    2    0    0  0.00000000000E+00  0.35527136788E-14  0.71054273576E-14  0.91188000000E+02  0.91188000000E+02 0.  0.
    9900012    2    3    3    0    0 -0.22031844350E+01  0.11899074787E+02 -0.34775532196E+02  0.54367086894E+02  0.40000006192E+02 0.  0.
        -12    1    3    3    0    0  0.22031844350E+01 -0.11899074787E+02  0.34775532196E+02  0.36820913106E+02  0.00000000000E+00 0.  1.
         11    1    4    4    0    0  0.46523440193E+01  0.67587343411E+01 -0.24511599522E+02  0.25848468159E+02  0.51100000000E-03 0. -1.
        -11    1    4    4    0    0 -0.10502620092E+01 -0.66458190883E+01  0.49972898399E+01  0.83811018158E+01  0.51100000000E-03 0.  1.
        -12    1    4    4    0    0 -0.58052664451E+01  0.11786159534E+02 -0.15261222514E+02  0.20137516920E+02  0.00000000000E+00 0.  1.
</event>
<event>
 8    1  0.2514877E-006  0.9118800E+02  0.7816164E-02  0.1184000E+00
        -11   -1    0    0    0    0  0.00000000000E+00  0.00000000000E+00  0.45593999997E+02  0.45594000000E+02  0.51100000000E-03 0. -1.
         11   -1    0    0    0    0 -0.00000000000E+00 -0.00000000000E+00 -0.45593999997E+02  0.45594000000E+02  0.51100000000E-03 0.  1.
         23    2    1    2    0    0 -0.88817841970E-15  0.71054273576E-14  0.35527136788E-14  0.91188000000E+02  0.91188000000E+02 0.  0.
    9900012    2    3    3    0    0 -0.52830941373E+01  0.26278840661E+02 -0.25244621513E+02  0.54367089291E+02  0.40000011656E+02 0.  0.
         12    1    3    3    0    0  0.52830941373E+01 -0.26278840661E+02  0.25244621513E+02  0.36820910709E+02  0.00000000000E+00 0. -1.
         11    1    4    4    0    0  0.67080853315E+01  0.86040233128E+01 -0.16826445510E+01  0.11038972730E+02  0.51100000000E-03 0. -1.
        -11    1    4    4    0    0 -0.10865294065E+02  0.18984268548E+02 -0.29737433574E+02  0.36915742215E+02  0.51100000000E-03 0.  1.
         12    1    4    4    0    0 -0.11258854035E+01 -0.13094512001E+01  0.61754566123E+01  0.64123743463E+01  0.00000000000E+00 0. -1.
</event>
<event>
 8    1  0.2514877E-006  0.9118800E+02  0.7816164E-02  0.1184000E+00
        -11   -1    0    0    0    0  0.00000000000E+00  0.00000000000E+00  0.45593999997E+02  0.45594000000E+02  0.51100000000E-03 0.  1.
         11   -1    0    0    0    0 -0.00000000000E+00 -0.00000000000E+00 -0.45593999997E+02  0.45594000000E+02  0.51100000000E-03 0. -1.
         23    2    1    2    0    0  0.00000000000E+00 -0.35527136788E-14  0.17763568394E-14  0.91188000000E+02  0.91188000000E+02 0.  0.
    9900012    2    3    3    0    0 -0.23821053272E+02 -0.25698078780E+02  0.11310919780E+02  0.54367207800E+02  0.40000281821E+02 0.  0.
        -12    1    3    3    0    0  0.23821053272E+02  0.25698078780E+02 -0.11310919780E+02  0.36820792200E+02  0.00000000000E+00 0.  1.
         11    1    4    4    0    0 -0.32241328350E+01 -0.29077706616E+01  0.62407203254E+01  0.76024175892E+01  0.51100000000E-03 0. -1.
        -11    1    4    4    0    0 -0.22710007044E+02 -0.50704357348E+01  0.13635784136E+02  0.26970138074E+02  0.51100000000E-03 0.  1.
         12    1    4    4    0    0  0.21130866074E+01 -0.17719872383E+02 -0.85655846813E+01  0.19794652137E+02  0.00000000000E+00 0. -1.
</event>
<event>
 8    1  0.2514877E-006  0.9118800E+02  0.7816164E-02  0.1184000E+00
        -11   -1    0    0    0    0  0.00000000000E+00  0.00000000000E+00  0.45593999997E+02  0.45594000000E+02  0.51100000000E-03 0.  1.
         11   -1    0    0    0    0 -0.00000000000E+00 -0.00000000000E+00 -0.45593999997E+02  0.45594000000E+02  0.51100000000E-03 0. -1.
         23    2    1    2    0    0  0.88817841970E-15  0.00000000000E+00  0.00000000000E+00  0.91188000000E+02  0.91188000000E+02 0.  0.
    9900012    2    3    3    0    0  0.71949014476E+01 -0.19840276803E+02 -0.30172454869E+02  0.54367079000E+02  0.39999988196E+02 0.  0.
        -12    1    3    3    0    0 -0.71949014476E+01  0.19840276803E+02  0.30172454869E+02  0.36820921000E+02  0.00000000000E+00 0.  1.
         11    1    4    4    0    0  0.65621978044E+01 -0.10061941306E+02 -0.11378264382E+02  0.16545996600E+02  0.51100000000E-03 0. -1.
        -11    1    4    4    0    0  0.82039718389E+00 -0.15521099306E+02  0.25202405753E+01  0.15745767305E+02  0.51100000000E-03 0.  1.
        -12    1    4    4    0    0 -0.18769354075E+00  0.57427638092E+01 -0.21314431063E+02  0.22075315095E+02  0.00000000000E+00 0.  1.
</event>
<event>
 8    1  0.2514877E-006  0.9118800E+02  0.7816164E-02  0.1184000E+00
        -11   -1    0    0    0    0  0.00000000000E+00  0.00000000000E+00  0.45593999997E+02  0.45594000000E+02  0.51100000000E-03 0.  1.
         11   -1    0    0    0    0 -0.00000000000E+00 -0.00000000000E+00 -0.45593999997E+02  0.45594000000E+02  0.51100000000E-03 0. -1.
         23    2    1    2    0    0  0.17763568394E-14 -0.17763568394E-14  0.00000000000E+00  0.91188000000E+02  0.91188000000E+02 0.  0.
    9900012    2    3    3    0    0  0.11382147838E+02  0.13350687634E+02  0.32372597705E+02  0.54367092462E+02  0.40000018887E+02 0.  0.
         12    1    3    3    0    0 -0.11382147838E+02 -0.13350687634E+02 -0.32372597705E+02  0.36820907538E+02  0.00000000000E+00 0. -1.
         11    1    4    4    0    0 -0.16287202840E+01 -0.20303145145E+01  0.23532188849E+01  0.35089237912E+01  0.51100000000E-03 0. -1.
        -11    1    4    4    0    0 -0.80606317863E+01  0.43376402033E+01 -0.34611715388E+01  0.97861440828E+01  0.51100000000E-03 0.  1.
        -12    1    4    4    0    0  0.21071499908E+02  0.11043361945E+02  0.33480550359E+02  0.41072024588E+02  0.00000000000E+00 0.  1.
</event>
<event>
 8    1  0.2514877E-006  0.9118800E+02  0.7816164E-02  0.1184000E+00
        -11   -1    0    0    0    0  0.00000000000E+00  0.00000000000E+00  0.45593999997E+02  0.45594000000E+02  0.51100000000E-03 0.  1.
         11   -1    0    0    0    0 -0.00000000000E+00 -0.00000000000E+00 -0.45593999997E+02  0.45594000000E+02  0.51100000000E-03 0. -1.
         23    2    1    2    0    0  0.00000000000E+00  0.00000000000E+00 -0.88817841970E-15  0.91188000000E+02  0.91188000000E+02 0.  0.
    9900012    2    3    3    0    0  0.27748750692E+02 -0.23020341839E+02  0.74735654802E+01  0.54367034717E+02  0.39999887245E+02 0.  0.
         12    1    3    3    0    0 -0.27748750692E+02  0.23020341839E+02 -0.74735654802E+01  0.36820965283E+02  0.00000000000E+00 0. -1.
         11    1    4    4    0    0  0.26049784974E+02 -0.13627918774E+02  0.14334284845E+02  0.32707540255E+02  0.51100000000E-03 0. -1.
        -11    1    4    4    0    0  0.59467788480E+01 -0.70083226510E+01  0.37943723291E+01  0.99437430920E+01  0.51100000000E-03 0.  1.
         12    1    4    4    0    0 -0.42478131297E+01 -0.23841004140E+01 -0.10655091694E+02  0.11715751370E+02  0.00000000000E+00 0. -1.
</event>
<event>
 8    1  0.2514877E-006  0.9118800E+02  0.7816164E-02  0.1184000E+00
        -11   -1    0    0    0    0  0.00000000000E+00  0.00000000000E+00  0.45593999997E+02  0.45594000000E+02  0.51100000000E-03 0.  1.
         11   -1    0    0    0    0 -0.00000000000E+00 -0.00000000000E+00 -0.45593999997E+02  0.45594000000E+02  0.51100000000E-03 0. -1.
         23    2    1    2    0    0  0.00000000000E+00  0.00000000000E+00  0.00000000000E+00  0.91188000000E+02  0.91188000000E+02 0.  0.
    9900012    2    3    3    0    0  0.25596551420E+02 -0.82763063890E+01 -0.25141519421E+02  0.54367126967E+02  0.40000097548E+02 0.  0.
        -12    1    3    3    0    0 -0.25596551420E+02  0.82763063890E+01  0.25141519421E+02  0.36820873033E+02  0.00000000000E+00 0.  1.
         11    1    4    4    0    0  0.54866019738E+01 -0.43576349612E+01 -0.19177952306E+02  0.20417777513E+02  0.51100000000E-03 0. -1.
        -11    1    4    4    0    0 -0.44314781630E+01 -0.65627302127E+01 -0.47541090014E+01  0.92362860075E+01  0.51100000000E-03 0.  1.
         12    1    4    4    0    0  0.24541427610E+02  0.26440587849E+01 -0.12094581139E+01  0.24713063447E+02  0.00000000000E+00 0. -1.
</event>
<event>
 8    1  0.2514877E-006  0.9118800E+02  0.7816164E-02  0.1184000E+00
        -11   -1    0    0    0    0  0.00000000000E+00  0.00000000000E+00  0.45593999997E+02  0.45594000000E+02  0.51100000000E-03 0.  1.
         11   -1    0    0    0    0 -0.00000000000E+00 -0.00000000000E+00 -0.45593999997E+02  0.45594000000E+02  0.51100000000E-03 0. -1.
         23    2    1    2    0    0  0.35527136788E-14  0.00000000000E+00  0.00000000000E+00  0.91188000000E+02  0.91188000000E+02 0.  0.
    9900012    2    3    3    0    0  0.25657080977E+02 -0.17414142468E+02 -0.19855766889E+02  0.54366951116E+02  0.39999696659E+02 0.  0.
        -12    1    3    3    0    0 -0.25657080977E+02  0.17414142468E+02  0.19855766889E+02  0.36821048884E+02  0.00000000000E+00 0.  1.
         11    1    4    4    0    0 -0.82945232727E+00 -0.45503742581E+00  0.68915878520E+01  0.69562226535E+01  0.51100000000E-03 0. -1.
        -11    1    4    4    0    0 -0.27685607375E+01  0.24019879988E+01 -0.73706341496E+00  0.37386812705E+01  0.51100000000E-03 0.  1.
         12    1    4    4    0    0  0.29255094041E+02 -0.19361093041E+02 -0.26010291326E+02  0.43672047192E+02  0.00000000000E+00 0. -1.
</event>
<event>
 8    1  0.2514877E-006  0.9118800E+02  0.7816164E-02  0.1184000E+00
        -11   -1    0    0    0    0  0.00000000000E+00  0.00000000000E+00  0.45593999997E+02  0.45594000000E+02  0.51100000000E-03 0.  1.
         11   -1    0    0    0    0 -0.00000000000E+00 -0.00000000000E+00 -0.45593999997E+02  0.45594000000E+02  0.51100000000E-03 0. -1.
         23    2    1    2    0    0  0.00000000000E+00 -0.17763568394E-14 -0.71054273576E-14  0.91188000000E+02  0.91188000000E+02 0.  0.
    9900012    2    3    3    0    0  0.35011518625E+01  0.15281480987E+02  0.33316642010E+02  0.54367077139E+02  0.39999983954E+02 0.  0.
         12    1    3    3    0    0 -0.35011518625E+01 -0.15281480987E+02 -0.33316642010E+02  0.36820922861E+02  0.00000000000E+00 0. -1.
         11    1    4    4    0    0  0.84590150945E+01 -0.12236097455E+02  0.11582532407E+02  0.18852906262E+02  0.51100000000E-03 0. -1.
        -11    1    4    4    0    0 -0.20213934867E+01  0.15295818668E+02  0.10566962400E+02  0.18700502532E+02  0.51100000000E-03 0.  1.
         12    1    4    4    0    0 -0.29364697452E+01  0.12221759775E+02  0.11167147203E+02  0.16813668345E+02  0.00000000000E+00 0. -1.
</event>
<event>
 8    1  0.2514877E-006  0.9118800E+02  0.7816164E-02  0.1184000E+00
        -11   -1    0    0    0    0  0.00000000000E+00  0.00000000000E+00  0.45593999997E+02  0.45594000000E+02  0.51100000000E-03 0. -1.
         11   -1    0    0    0    0 -0.00000000000E+00 -0.00000000000E+00 -0.45593999997E+02  0.45594000000E+02  0.51100000000E-03 0.  1.
         23    2    1    2    0    0  0.26645352591E-14  0.00000000000E+00  0.00000000000E+00  0.91188000000E+02  0.91188000000E+02 0.  0.
    9900012    2    3    3    0    0 -0.38006916008E+01 -0.13303236412E+02  0.34122704480E+02  0.54367077731E+02  0.39999985304E+02 0.  0.
        -12    1    3    3    0    0  0.38006916008E+01  0.13303236412E+02 -0.34122704480E+02  0.36820922269E+02  0.00000000000E+00 0.  1.
         11    1    4    4    0    0  0.13158510197E+01  0.57279284453E+01  0.11360550626E+02  0.12790728633E+02  0.51100000000E-03 0. -1.
        -11    1    4    4    0    0  0.88879136672E+01 -0.18630413403E+02  0.15369536777E+02  0.25735383695E+02  0.51100000000E-03 0.  1.
        -12    1    4    4    0    0 -0.14004456288E+02 -0.40075145408E+00  0.73926170773E+01  0.15840965403E+02  0.00000000000E+00 0.  1.
</event>
<event>
 8    1  0.2514877E-006  0.9118800E+02  0.7816164E-02  0.1184000E+00
        -11   -1    0    0    0    0  0.00000000000E+00  0.00000000000E+00  0.45593999997E+02  0.45594000000E+02  0.51100000000E-03 0.  1.
         11   -1    0    0    0    0 -0.00000000000E+00 -0.00000000000E+00 -0.45593999997E+02  0.45594000000E+02  0.51100000000E-03 0. -1.
         23    2    1    2    0    0 -0.24424906542E-14  0.00000000000E+00 -0.88817841970E-15  0.91188000000E+02  0.91188000000E+02 0.  0.
    9900012    2    3    3    0    0  0.13800563616E+01  0.36643000606E+02 -0.33426064702E+01  0.54366986068E+02  0.39999776338E+02 0.  0.
        -12    1    3    3    0    0 -0.13800563616E+01 -0.36643000606E+02  0.33426064702E+01  0.36821013932E+02  0.00000000000E+00 0.  1.
         11    1    4    4    0    0 -0.84541781440E+01 -0.21575778271E+01 -0.51187302199E+01  0.10115812844E+02  0.51100000000E-03 0. -1.
        -11    1    4    4    0    0  0.66673787602E+01  0.15756815582E+01  0.31781439779E-01  0.68511110213E+01  0.51100000000E-03 0.  1.
         12    1    4    4    0    0  0.31668557454E+01  0.37224896875E+02  0.17443423099E+01  0.37400062203E+02  0.00000000000E+00 0. -1.
</event>
<event>
 8    1  0.2514877E-006  0.9118800E+02  0.7816164E-02  0.1184000E+00
        -11   -1    0    0    0    0  0.00000000000E+00  0.00000000000E+00  0.45593999997E+02  0.45594000000E+02  0.51100000000E-03 0. -1.
         11   -1    0    0    0    0 -0.00000000000E+00 -0.00000000000E+00 -0.45593999997E+02  0.45594000000E+02  0.51100000000E-03 0.  1.
         23    2    1    2    0    0 -0.35527136788E-14 -0.13322676296E-14  0.00000000000E+00  0.91188000000E+02  0.91188000000E+02 0.  0.
    9900012    2    3    3    0    0 -0.17843962125E+02 -0.23782291257E+01  0.32120347000E+02  0.54367086792E+02  0.40000005959E+02 0.  0.
        -12    1    3    3    0    0  0.17843962125E+02  0.23782291257E+01 -0.32120347000E+02  0.36820913208E+02  0.00000000000E+00 0.  1.
         11    1    4    4    0    0 -0.27295562913E+01  0.11063980350E+02  0.62552428087E+01  0.12999623133E+02  0.51100000000E-03 0. -1.
        -11    1    4    4    0    0 -0.10738697274E+02 -0.11578324879E+02  0.75374369570E+00  0.15809660210E+02  0.51100000000E-03 0.  1.
        -12    1    4    4    0    0 -0.43757085601E+01 -0.18638845965E+01  0.25111360496E+02  0.25557803449E+02  0.00000000000E+00 0.  1.
</event>
<event>
 8    1  0.2514877E-006  0.9118800E+02  0.7816164E-02  0.1184000E+00
        -11   -1    0    0    0    0  0.00000000000E+00  0.00000000000E+00  0.45593999997E+02  0.45594000000E+02  0.51100000000E-03 0.  1.
         11   -1    0    0    0    0 -0.00000000000E+00 -0.00000000000E+00 -0.45593999997E+02  0.45594000000E+02  0.51100000000E-03 0. -1.
         23    2    1    2    0    0  0.00000000000E+00  0.00000000000E+00  0.00000000000E+00  0.91188000000E+02  0.91188000000E+02 0.  0.
    9900012    2    3    3    0    0  0.12920256633E+02  0.27792022623E+02 -0.20407131963E+02  0.54367074049E+02  0.39999976910E+02 0.  0.
        -12    1    3    3    0    0 -0.12920256633E+02 -0.27792022623E+02  0.20407131963E+02  0.36820925951E+02  0.00000000000E+00 0.  1.
         11    1    4    4    0    0  0.69453718559E+01  0.19505616060E+01 -0.24582551334E+02  0.25619225421E+02  0.51100000000E-03 0. -1.
        -11    1    4    4    0    0  0.82810983007E+00  0.21164420568E+02  0.12939316282E+01  0.21220101866E+02  0.51100000000E-03 0.  1.
         12    1    4    4    0    0  0.51467749465E+01  0.46770404488E+01  0.28814877433E+01  0.75277467628E+01  0.00000000000E+00 0. -1.
</event>
<event>
 8    1  0.2514877E-006  0.9118800E+02  0.7816164E-02  0.1184000E+00
        -11   -1    0    0    0    0  0.00000000000E+00  0.00000000000E+00  0.45593999997E+02  0.45594000000E+02  0.51100000000E-03 0.  1.
         11   -1    0    0    0    0 -0.00000000000E+00 -0.00000000000E+00 -0.45593999997E+02  0.45594000000E+02  0.51100000000E-03 0. -1.
         23    2    1    2    0    0  0.44408920985E-15  0.00000000000E+00  0.00000000000E+00  0.91188000000E+02  0.91188000000E+02 0.  0.
    9900012    2    3    3    0    0  0.29917338808E+01 -0.33001433376E+02  0.16054113058E+02  0.54367087157E+02  0.40000006792E+02 0.  0.
        -12    1    3    3    0    0 -0.29917338808E+01  0.33001433376E+02 -0.16054113058E+02  0.36820912843E+02  0.00000000000E+00 0.  1.
         11    1    4    4    0    0 -0.70992508272E+00 -0.72184035663E+01 -0.11223972645E+02  0.13363641190E+02  0.51100000000E-03 0. -1.
        -11    1    4    4    0    0 -0.11602449240E+01 -0.14708074124E+00 -0.16651687687E+01  0.20348435609E+01  0.51100000000E-03 0.  1.
        -12    1    4    4    0    0  0.48619038875E+01 -0.25635949069E+02  0.28943254471E+02  0.38968602406E+02  0.00000000000E+00 0.  1.
</event>
<event>
 8    1  0.2514877E-006  0.9118800E+02  0.7816164E-02  0.1184000E+00
        -11   -1    0    0    0    0  0.00000000000E+00  0.00000000000E+00  0.45593999997E+02  0.45594000000E+02  0.51100000000E-03 0. -1.
         11   -1    0    0    0    0 -0.00000000000E+00 -0.00000000000E+00 -0.45593999997E+02  0.45594000000E+02  0.51100000000E-03 0.  1.
         23    2    1    2    0    0  0.00000000000E+00 -0.35527136788E-14 -0.35527136788E-14  0.91188000000E+02  0.91188000000E+02 0.  0.
    9900012    2    3    3    0    0 -0.15972874609E+02 -0.24583509339E+02  0.22277745296E+02  0.54367087597E+02  0.40000007796E+02 0.  0.
        -12    1    3    3    0    0  0.15972874609E+02  0.24583509339E+02 -0.22277745296E+02  0.36820912403E+02  0.00000000000E+00 0.  1.
         11    1    4    4    0    0 -0.86973364663E+01 -0.58679219063E+00  0.11376729026E+02  0.14332409089E+02  0.51100000000E-03 0. -1.
        -11    1    4    4    0    0 -0.39461732238E+01  0.42273931577E+01 -0.48449943259E+01  0.75443426686E+01  0.51100000000E-03 0.  1.
         12    1    4    4    0    0 -0.33293649187E+01 -0.28224110306E+02  0.15746010595E+02  0.32490335840E+02  0.00000000000E+00 0. -1.
</event>
<event>
 8    1  0.2514877E-006  0.9118800E+02  0.7816164E-02  0.1184000E+00
        -11   -1    0    0    0    0  0.00000000000E+00  0.00000000000E+00  0.45593999997E+02  0.45594000000E+02  0.51100000000E-03 0.  1.
         11   -1    0    0    0    0 -0.00000000000E+00 -0.00000000000E+00 -0.45593999997E+02  0.45594000000E+02  0.51100000000E-03 0. -1.
         23    2    1    2    0    0 -0.17763568394E-14  0.26645352591E-14  0.00000000000E+00  0.91188000000E+02  0.91188000000E+02 0.  0.
    9900012    2    3    3    0    0 -0.15962776287E+02  0.74784168046E+01  0.32327137747E+02  0.54367071445E+02  0.39999970974E+02 0.  0.
         12    1    3    3    0    0  0.15962776287E+02 -0.74784168046E+01 -0.32327137747E+02  0.36820928555E+02  0.00000000000E+00 0. -1.
         11    1    4    4    0    0 -0.13384374863E+02 -0.11026923044E+02  0.17987221406E+02  0.24985488918E+02  0.51100000000E-03 0. -1.
        -11    1    4    4    0    0 -0.88080870932E+01  0.13527648763E+02  0.14052721120E+02  0.21402304792E+02  0.51100000000E-03 0.  1.
         12    1    4    4    0    0  0.62296856686E+01  0.49776910860E+01  0.28719522077E+00  0.79792777350E+01  0.00000000000E+00 0. -1.
</event>
<event>
 8    1  0.2514877E-006  0.9118800E+02  0.7816164E-02  0.1184000E+00
        -11   -1    0    0    0    0  0.00000000000E+00  0.00000000000E+00  0.45593999997E+02  0.45594000000E+02  0.51100000000E-03 0.  1.
         11   -1    0    0    0    0 -0.00000000000E+00 -0.00000000000E+00 -0.45593999997E+02  0.45594000000E+02  0.51100000000E-03 0. -1.
         23    2    1    2    0    0  0.35527136788E-14  0.00000000000E+00 -0.88817841970E-15  0.91188000000E+02  0.91188000000E+02 0.  0.
    9900012    2    3    3    0    0 -0.10850994558E+02 -0.35088452923E+02 -0.26149499436E+01  0.54367060650E+02  0.39999946364E+02 0.  0.
         12    1    3    3    0    0  0.10850994558E+02  0.35088452923E+02  0.26149499436E+01  0.36820939350E+02  0.00000000000E+00 0. -1.
         11    1    4    4    0    0  0.12046774981E+01  0.33947607201E+01  0.18525143795E+00  0.36069331263E+01  0.51100000000E-03 0. -1.
        -11    1    4    4    0    0  0.57369945799E+01 -0.89898433112E+01 -0.11033609140E+02  0.15345061762E+02  0.51100000000E-03 0.  1.
        -12    1    4    4    0    0 -0.17792666636E+02 -0.29493370332E+02  0.82334077588E+01  0.35415065761E+02  0.00000000000E+00 0.  1.
</event>
<event>
 8    1  0.2514877E-006  0.9118800E+02  0.7816164E-02  0.1184000E+00
        -11   -1    0    0    0    0  0.00000000000E+00  0.00000000000E+00  0.45593999997E+02  0.45594000000E+02  0.51100000000E-03 0. -1.
         11   -1    0    0    0    0 -0.00000000000E+00 -0.00000000000E+00 -0.45593999997E+02  0.45594000000E+02  0.51100000000E-03 0.  1.
         23    2    1    2    0    0  0.00000000000E+00  0.17763568394E-14  0.00000000000E+00  0.91188000000E+02  0.91188000000E+02 0.  0.
    9900012    2    3    3    0    0 -0.32579138636E+02  0.15070114891E+02 -0.82019178959E+01  0.54367080752E+02  0.39999992190E+02 0.  0.
         12    1    3    3    0    0  0.32579138636E+02 -0.15070114891E+02  0.82019178959E+01  0.36820919248E+02  0.00000000000E+00 0. -1.
         11    1    4    4    0    0 -0.36972780555E+01 -0.37531136417E+01 -0.48414362652E+01  0.71550843740E+01  0.51100000000E-03 0. -1.
        -11    1    4    4    0    0 -0.17413408127E+02  0.26378413427E+01 -0.15913950547E+02  0.23736866091E+02  0.51100000000E-03 0.  1.
         12    1    4    4    0    0 -0.11468452454E+02  0.16185387189E+02  0.12553468916E+02  0.23475130287E+02  0.00000000000E+00 0. -1.
</event>
<event>
 8    1  0.2514877E-006  0.9118800E+02  0.7816164E-02  0.1184000E+00
        -11   -1    0    0    0    0  0.00000000000E+00  0.00000000000E+00  0.45593999997E+02  0.45594000000E+02  0.51100000000E-03 0. -1.
         11   -1    0    0    0    0 -0.00000000000E+00 -0.00000000000E+00 -0.45593999997E+02  0.45594000000E+02  0.51100000000E-03 0.  1.
         23    2    1    2    0    0  0.17763568394E-14  0.00000000000E+00  0.35527136788E-14  0.91188000000E+02  0.91188000000E+02 0.  0.
    9900012    2    3    3    0    0  0.11832167240E+02  0.26277727089E+02 -0.22918563309E+02  0.54367086558E+02  0.40000005427E+02 0.  0.
         12    1    3    3    0    0 -0.11832167240E+02 -0.26277727089E+02  0.22918563309E+02  0.36820913442E+02  0.00000000000E+00 0. -1.
         11    1    4    4    0    0 -0.35923260127E+01 -0.57008011698E+01 -0.65500615957E+01  0.93971935879E+01  0.51100000000E-03 0. -1.
        -11    1    4    4    0    0 -0.27994458577E+01  0.12771327302E+02 -0.12722730889E+02  0.18243124176E+02  0.51100000000E-03 0.  1.
         12    1    4    4    0    0  0.18223939110E+02  0.19207200957E+02 -0.36457708239E+01  0.26726768794E+02  0.00000000000E+00 0. -1.
</event>
<event>
 8    1  0.2514877E-006  0.9118800E+02  0.7816164E-02  0.1184000E+00
        -11   -1    0    0    0    0  0.00000000000E+00  0.00000000000E+00  0.45593999997E+02  0.45594000000E+02  0.51100000000E-03 0.  1.
         11   -1    0    0    0    0 -0.00000000000E+00 -0.00000000000E+00 -0.45593999997E+02  0.45594000000E+02  0.51100000000E-03 0. -1.
         23    2    1    2    0    0  0.00000000000E+00  0.00000000000E+00  0.00000000000E+00  0.91188000000E+02  0.91188000000E+02 0.  0.
    9900012    2    3    3    0    0  0.26269001837E+01  0.32871331880E+02 -0.16381549417E+02  0.54367078971E+02  0.39999988131E+02 0.  0.
        -12    1    3    3    0    0 -0.26269001837E+01 -0.32871331880E+02  0.16381549417E+02  0.36820921029E+02  0.00000000000E+00 0.  1.
         11    1    4    4    0    0 -0.51455898600E+01  0.10758387743E+01 -0.11954220529E+02  0.13059016533E+02  0.51100000000E-03 0.  1.
        -11    1    4    4    0    0 -0.80645583231E+01  0.12439333891E+02  0.31903641981E+01  0.15164186513E+02  0.51100000000E-03 0. -1.
         12    1    4    4    0    0  0.15837048367E+02  0.19356159214E+02 -0.76176930856E+01  0.26143875926E+02  0.00000000000E+00 0. -1.
</event>
<event>
 8    1  0.2514877E-006  0.9118800E+02  0.7816164E-02  0.1184000E+00
        -11   -1    0    0    0    0  0.00000000000E+00  0.00000000000E+00  0.45593999997E+02  0.45594000000E+02  0.51100000000E-03 0.  1.
         11   -1    0    0    0    0 -0.00000000000E+00 -0.00000000000E+00 -0.45593999997E+02  0.45594000000E+02  0.51100000000E-03 0. -1.
         23    2    1    2    0    0  0.88817841970E-15  0.00000000000E+00  0.00000000000E+00  0.91188000000E+02  0.91188000000E+02 0.  0.
    9900012    2    3    3    0    0 -0.22756348996E+01 -0.30864751841E+02  0.19949157045E+02  0.54367078132E+02  0.39999986217E+02 0.  0.
        -12    1    3    3    0    0  0.22756348996E+01  0.30864751841E+02 -0.19949157045E+02  0.36820921868E+02  0.00000000000E+00 0.  1.
         11    1    4    4    0    0  0.11032976901E+02 -0.10158669093E+02 -0.16664865112E+01  0.15089808302E+02  0.51100000000E-03 0. -1.
        -11    1    4    4    0    0  0.15623597581E+01 -0.98428234487E+01  0.17903869547E+02  0.20490746362E+02  0.51100000000E-03 0.  1.
         12    1    4    4    0    0 -0.14870971559E+02 -0.10863259299E+02  0.37117740093E+01  0.18786523468E+02  0.00000000000E+00 0. -1.
</event>
<event>
 8    1  0.2514877E-006  0.9118800E+02  0.7816164E-02  0.1184000E+00
        -11   -1    0    0    0    0  0.00000000000E+00  0.00000000000E+00  0.45593999997E+02  0.45594000000E+02  0.51100000000E-03 0.  1.
         11   -1    0    0    0    0 -0.00000000000E+00 -0.00000000000E+00 -0.45593999997E+02  0.45594000000E+02  0.51100000000E-03 0. -1.
         23    2    1    2    0    0  0.35527136788E-14  0.35527136788E-14 -0.17763568394E-14  0.91188000000E+02  0.91188000000E+02 0.  0.
    9900012    2    3    3    0    0  0.29160046241E+02 -0.17354908771E+02 -0.14292693493E+02  0.54367051580E+02  0.39999925688E+02 0.  0.
        -12    1    3    3    0    0 -0.29160046241E+02  0.17354908771E+02  0.14292693493E+02  0.36820948420E+02  0.00000000000E+00 0.  1.
         11    1    4    4    0    0  0.64167710965E+01  0.74704219625E+01 -0.88351505662E+01  0.13230345475E+02  0.51100000000E-03 0. -1.
        -11    1    4    4    0    0  0.87489632016E+01 -0.80145529917E+01 -0.13370645068E+02  0.17876005330E+02  0.51100000000E-03 0.  1.
        -12    1    4    4    0    0  0.13994311943E+02 -0.16810777742E+02  0.79131021413E+01  0.23260700775E+02  0.00000000000E+00 0.  1.
</event>
<event>
 8    1  0.2514877E-006  0.9118800E+02  0.7816164E-02  0.1184000E+00
        -11   -1    0    0    0    0  0.00000000000E+00  0.00000000000E+00  0.45593999997E+02  0.45594000000E+02  0.51100000000E-03 0.  1.
         11   -1    0    0    0    0 -0.00000000000E+00 -0.00000000000E+00 -0.45593999997E+02  0.45594000000E+02  0.51100000000E-03 0. -1.
         23    2    1    2    0    0  0.00000000000E+00  0.35527136788E-14  0.35527136788E-14  0.91188000000E+02  0.91188000000E+02 0.  0.
    9900012    2    3    3    0    0 -0.11565885296E+02  0.23507401359E+02  0.25873083074E+02  0.54367027049E+02  0.39999869763E+02 0.  0.
         12    1    3    3    0    0  0.11565885296E+02 -0.23507401359E+02 -0.25873083074E+02  0.36820972951E+02  0.00000000000E+00 0. -1.
         11    1    4    4    0    0 -0.38702865715E+01  0.34776462241E-01  0.10711522242E+02  0.11389338723E+02  0.51100000000E-03 0. -1.
        -11    1    4    4    0    0 -0.12665312611E+02  0.31641870296E+00  0.14541047742E+02  0.19286065800E+02  0.51100000000E-03 0.  1.
         12    1    4    4    0    0  0.49697138870E+01  0.23156206194E+02  0.62051308998E+00  0.23691622526E+02  0.00000000000E+00 0. -1.
</event>
<event>
 8    1  0.2514877E-006  0.9118800E+02  0.7816164E-02  0.1184000E+00
        -11   -1    0    0    0    0  0.00000000000E+00  0.00000000000E+00  0.45593999997E+02  0.45594000000E+02  0.51100000000E-03 0. -1.
         11   -1    0    0    0    0 -0.00000000000E+00 -0.00000000000E+00 -0.45593999997E+02  0.45594000000E+02  0.51100000000E-03 0.  1.
         23    2    1    2    0    0  0.00000000000E+00  0.00000000000E+00 -0.35527136788E-14  0.91188000000E+02  0.91188000000E+02 0.  0.
    9900012    2    3    3    0    0  0.30521270747E+02 -0.10448017120E+02  0.17750212787E+02  0.54367094474E+02  0.40000023473E+02 0.  0.
        -12    1    3    3    0    0 -0.30521270747E+02  0.10448017120E+02 -0.17750212787E+02  0.36820905526E+02  0.00000000000E+00 0.  1.
         11    1    4    4    0    0  0.13984495934E+02 -0.13963911891E+02  0.48921753649E+01  0.20359035878E+02  0.51100000000E-03 0. -1.
        -11    1    4    4    0    0  0.21914657825E+02  0.25531517620E+01  0.16405638034E+02  0.27493922438E+02  0.51100000000E-03 0.  1.
        -12    1    4    4    0    0 -0.53778830109E+01  0.96274300945E+00 -0.35476006117E+01  0.65141361577E+01  0.00000000000E+00 0.  1.
</event>
<event>
 8    1  0.2514877E-006  0.9118800E+02  0.7816164E-02  0.1184000E+00
        -11   -1    0    0    0    0  0.00000000000E+00  0.00000000000E+00  0.45593999997E+02  0.45594000000E+02  0.51100000000E-03 0.  1.
         11   -1    0    0    0    0 -0.00000000000E+00 -0.00000000000E+00 -0.45593999997E+02  0.45594000000E+02  0.51100000000E-03 0. -1.
         23    2    1    2    0    0  0.17763568394E-14  0.00000000000E+00  0.88817841970E-15  0.91188000000E+02  0.91188000000E+02 0.  0.
    9900012    2    3    3    0    0 -0.56443789623E+01 -0.35794664043E+02 -0.65316372348E+01  0.54367091907E+02  0.40000017620E+02 0.  0.
         12    1    3    3    0    0  0.56443789623E+01  0.35794664043E+02  0.65316372348E+01  0.36820908093E+02  0.00000000000E+00 0. -1.
         11    1    4    4    0    0 -0.59684778695E+01  0.46741826906E+01 -0.10575219493E+02  0.13011763120E+02  0.51100000000E-03 0. -1.
        -11    1    4    4    0    0  0.37380283987E+01 -0.15013179080E+02  0.17206647988E+01  0.15566922946E+02  0.51100000000E-03 0.  1.
        -12    1    4    4    0    0 -0.34139294915E+01 -0.25455667654E+02  0.23229174596E+01  0.25788405840E+02  0.00000000000E+00 0.  1.
</event>
<event>
 8    1  0.2514877E-006  0.9118800E+02  0.7816164E-02  0.1184000E+00
        -11   -1    0    0    0    0  0.00000000000E+00  0.00000000000E+00  0.45593999997E+02  0.45594000000E+02  0.51100000000E-03 0. -1.
         11   -1    0    0    0    0 -0.00000000000E+00 -0.00000000000E+00 -0.45593999997E+02  0.45594000000E+02  0.51100000000E-03 0.  1.
         23    2    1    2    0    0  0.00000000000E+00  0.99920072216E-15  0.17763568394E-14  0.91188000000E+02  0.91188000000E+02 0.  0.
    9900012    2    3    3    0    0  0.35305537481E+02 -0.63878744538E+00  0.10435062511E+02  0.54367088064E+02  0.40000008860E+02 0.  0.
        -12    1    3    3    0    0 -0.35305537481E+02  0.63878744538E+00 -0.10435062511E+02  0.36820911936E+02  0.00000000000E+00 0.  1.
         11    1    4    4    0    0  0.42273809002E+01 -0.65918605483E+01  0.60144496676E+01  0.98740558956E+01  0.51100000000E-03 0. -1.
        -11    1    4    4    0    0  0.89001273257E+01 -0.12525204734E+02  0.63167651440E+00  0.15378297549E+02  0.51100000000E-03 0.  1.
         12    1    4    4    0    0  0.22178029255E+02  0.18478277837E+02  0.37889363286E+01  0.29114734619E+02  0.00000000000E+00 0. -1.
</event>
<event>
 8    1  0.2514877E-006  0.9118800E+02  0.7816164E-02  0.1184000E+00
        -11   -1    0    0    0    0  0.00000000000E+00  0.00000000000E+00  0.45593999997E+02  0.45594000000E+02  0.51100000000E-03 0. -1.
         11   -1    0    0    0    0 -0.00000000000E+00 -0.00000000000E+00 -0.45593999997E+02  0.45594000000E+02  0.51100000000E-03 0.  1.
         23    2    1    2    0    0  0.00000000000E+00 -0.44408920985E-15 -0.35527136788E-14  0.91188000000E+02  0.91188000000E+02 0.  0.
    9900012    2    3    3    0    0 -0.24809140641E+02  0.29018645558E+01  0.27053015684E+02  0.54367082917E+02  0.39999997126E+02 0.  0.
        -12    1    3    3    0    0  0.24809140641E+02 -0.29018645558E+01 -0.27053015684E+02  0.36820917083E+02  0.00000000000E+00 0.  1.
         11    1    4    4    0    0  0.19613970715E+01  0.48551458780E+01  0.24078969010E+02  0.24641758639E+02  0.51100000000E-03 0. -1.
        -11    1    4    4    0    0 -0.25498291496E+02 -0.10715754511E+01  0.60977219337E+01  0.26239156926E+02  0.51100000000E-03 0.  1.
        -12    1    4    4    0    0 -0.12722462172E+01 -0.88170587106E+00 -0.31236752599E+01  0.34861673525E+01  0.00000000000E+00 0.  1.
</event>
<event>
 8    1  0.2514877E-006  0.9118800E+02  0.7816164E-02  0.1184000E+00
        -11   -1    0    0    0    0  0.00000000000E+00  0.00000000000E+00  0.45593999997E+02  0.45594000000E+02  0.51100000000E-03 0.  1.
         11   -1    0    0    0    0 -0.00000000000E+00 -0.00000000000E+00 -0.45593999997E+02  0.45594000000E+02  0.51100000000E-03 0. -1.
         23    2    1    2    0    0  0.00000000000E+00  0.11102230246E-15  0.00000000000E+00  0.91188000000E+02  0.91188000000E+02 0.  0.
    9900012    2    3    3    0    0 -0.14382586152E+02  0.80691315059E+00 -0.33886126175E+02  0.54367089631E+02  0.40000012431E+02 0.  0.
        -12    1    3    3    0    0  0.14382586152E+02 -0.80691315059E+00  0.33886126175E+02  0.36820910369E+02  0.00000000000E+00 0.  1.
         11    1    4    4    0    0 -0.12230929943E+02 -0.39551523506E+01 -0.33662793565E+02  0.36033630794E+02  0.51100000000E-03 0. -1.
        -11    1    4    4    0    0  0.27863219214E+01 -0.38820884050E+01  0.51461104062E+01  0.70225816341E+01  0.51100000000E-03 0.  1.
        -12    1    4    4    0    0 -0.49379781308E+01  0.86441539062E+01 -0.53694430170E+01  0.11310877202E+02  0.00000000000E+00 0.  1.
</event>
<event>
 8    1  0.2514877E-006  0.9118800E+02  0.7816164E-02  0.1184000E+00
        -11   -1    0    0    0    0  0.00000000000E+00  0.00000000000E+00  0.45593999997E+02  0.45594000000E+02  0.51100000000E-03 0.  1.
         11   -1    0    0    0    0 -0.00000000000E+00 -0.00000000000E+00 -0.45593999997E+02  0.45594000000E+02  0.51100000000E-03 0. -1.
         23    2    1    2    0    0 -0.17763568394E-14  0.00000000000E+00  0.00000000000E+00  0.91188000000E+02  0.91188000000E+02 0.  0.
    9900012    2    3    3    0    0  0.38091677294E+01  0.10846913075E+02 -0.34980196009E+02  0.54367090249E+02  0.40000013840E+02 0.  0.
        -12    1    3    3    0    0 -0.38091677294E+01 -0.10846913075E+02  0.34980196009E+02  0.36820909751E+02  0.00000000000E+00 0.  1.
         11    1    4    4    0    0 -0.19136030471E+01 -0.26658504781E+01 -0.15965314610E+02  0.16299076853E+02  0.51100000000E-03 0. -1.
        -11    1    4    4    0    0  0.16163195150E+02  0.12875072983E+02 -0.62995853307E+01  0.21603267285E+02  0.51100000000E-03 0.  1.
        -12    1    4    4    0    0 -0.10440424374E+02  0.63769057010E+00 -0.12715296068E+02  0.16464746110E+02  0.00000000000E+00 0.  1.
</event>
<event>
 8    1  0.2514877E-006  0.9118800E+02  0.7816164E-02  0.1184000E+00
        -11   -1    0    0    0    0  0.00000000000E+00  0.00000000000E+00  0.45593999997E+02  0.45594000000E+02  0.51100000000E-03 0.  1.
         11   -1    0    0    0    0 -0.00000000000E+00 -0.00000000000E+00 -0.45593999997E+02  0.45594000000E+02  0.51100000000E-03 0. -1.
         23    2    1    2    0    0 -0.36082248300E-15  0.00000000000E+00  0.00000000000E+00  0.91188000000E+02  0.91188000000E+02 0.  0.
    9900012    2    3    3    0    0 -0.17925582706E+00 -0.22324899989E+02  0.29280324850E+02  0.54367208109E+02  0.40000282525E+02 0.  0.
         12    1    3    3    0    0  0.17925582706E+00  0.22324899989E+02 -0.29280324850E+02  0.36820791891E+02  0.00000000000E+00 0. -1.
         11    1    4    4    0    0 -0.31434096806E+01  0.10577666111E+01  0.34414553263E+01  0.47794884295E+01  0.51100000000E-03 0. -1.
        -11    1    4    4    0    0 -0.46440163465E+01  0.65578852922E+01  0.14692190289E+02  0.16746139946E+02  0.51100000000E-03 0.  1.
        -12    1    4    4    0    0  0.76081702000E+01 -0.29940551893E+02  0.11146679234E+02  0.32841579733E+02  0.00000000000E+00 0.  1.
</event>
<event>
 8    1  0.2514877E-006  0.9118800E+02  0.7816164E-02  0.1184000E+00
        -11   -1    0    0    0    0  0.00000000000E+00  0.00000000000E+00  0.45593999997E+02  0.45594000000E+02  0.51100000000E-03 0.  1.
         11   -1    0    0    0    0 -0.00000000000E+00 -0.00000000000E+00 -0.45593999997E+02  0.45594000000E+02  0.51100000000E-03 0. -1.
         23    2    1    2    0    0 -0.35527136788E-14  0.00000000000E+00  0.17763568394E-14  0.91188000000E+02  0.91188000000E+02 0.  0.
    9900012    2    3    3    0    0 -0.31620411931E+02  0.10249112719E+02  0.15839317070E+02  0.54367099312E+02  0.40000034502E+02 0.  0.
         12    1    3    3    0    0  0.31620411931E+02 -0.10249112719E+02 -0.15839317070E+02  0.36820900688E+02  0.00000000000E+00 0. -1.
         11    1    4    4    0    0 -0.70788128737E+01  0.15272538254E+02 -0.47091880064E+01  0.17479601493E+02  0.51100000000E-03 0. -1.
        -11    1    4    4    0    0 -0.14849581332E+02  0.57654874437E+01  0.86396348052E+01  0.18121650064E+02  0.51100000000E-03 0.  1.
         12    1    4    4    0    0 -0.96920177246E+01 -0.10788912978E+02  0.11908870272E+02  0.18765847755E+02  0.00000000000E+00 0. -1.
</event>
<event>
 8    1  0.2514877E-006  0.9118800E+02  0.7816164E-02  0.1184000E+00
        -11   -1    0    0    0    0  0.00000000000E+00  0.00000000000E+00  0.45593999997E+02  0.45594000000E+02  0.51100000000E-03 0. -1.
         11   -1    0    0    0    0 -0.00000000000E+00 -0.00000000000E+00 -0.45593999997E+02  0.45594000000E+02  0.51100000000E-03 0.  1.
         23    2    1    2    0    0 -0.71054273576E-14  0.00000000000E+00  0.17763568394E-14  0.91188000000E+02  0.91188000000E+02 0.  0.
    9900012    2    3    3    0    0  0.35435214912E+02 -0.80264808380E+01  0.59750537249E+01  0.54367080436E+02  0.39999991470E+02 0.  0.
        -12    1    3    3    0    0 -0.35435214912E+02  0.80264808380E+01 -0.59750537249E+01  0.36820919564E+02  0.00000000000E+00 0.  1.
         11    1    4    4    0    0  0.22599839952E+02 -0.94769468659E+01  0.10136348743E+02  0.26520008556E+02  0.51100000000E-03 0. -1.
        -11    1    4    4    0    0 -0.52373539503E-01 -0.86466706386E+00 -0.12365050440E+02  0.12395356581E+02  0.51100000000E-03 0.  1.
        -12    1    4    4    0    0  0.12887748500E+02  0.23151330917E+01  0.82037554223E+01  0.15451715299E+02  0.00000000000E+00 0.  1.
</event>
<event>
 8    1  0.2514877E-006  0.9118800E+02  0.7816164E-02  0.1184000E+00
        -11   -1    0    0    0    0  0.00000000000E+00  0.00000000000E+00  0.45593999997E+02  0.45594000000E+02  0.51100000000E-03 0.  1.
         11   -1    0    0    0    0 -0.00000000000E+00 -0.00000000000E+00 -0.45593999997E+02  0.45594000000E+02  0.51100000000E-03 0. -1.
         23    2    1    2    0    0  0.17763568394E-14  0.72164496601E-15  0.00000000000E+00  0.91188000000E+02  0.91188000000E+02 0.  0.
    9900012    2    3    3    0    0  0.10515687735E+02  0.17181936560E+00  0.35286972385E+02  0.54367087049E+02  0.40000006546E+02 0.  0.
         12    1    3    3    0    0 -0.10515687735E+02 -0.17181936560E+00 -0.35286972385E+02  0.36820912951E+02  0.00000000000E+00 0. -1.
         11    1    4    4    0    0  0.15846076798E+01  0.10753256365E+02 -0.71427262673E+00  0.10892827438E+02  0.51100000000E-03 0. -1.
        -11    1    4    4    0    0  0.39053859986E+01  0.26312223271E+01  0.25325954550E+02  0.25760033868E+02  0.51100000000E-03 0.  1.
        -12    1    4    4    0    0  0.50256940565E+01 -0.13212659327E+02  0.10675290461E+02  0.17714225743E+02  0.00000000000E+00 0.  1.
</event>
<event>
 8    1  0.2514877E-006  0.9118800E+02  0.7816164E-02  0.1184000E+00
        -11   -1    0    0    0    0  0.00000000000E+00  0.00000000000E+00  0.45593999997E+02  0.45594000000E+02  0.51100000000E-03 0.  1.
         11   -1    0    0    0    0 -0.00000000000E+00 -0.00000000000E+00 -0.45593999997E+02  0.45594000000E+02  0.51100000000E-03 0. -1.
         23    2    1    2    0    0  0.00000000000E+00  0.00000000000E+00  0.00000000000E+00  0.91188000000E+02  0.91188000000E+02 0.  0.
    9900012    2    3    3    0    0 -0.16524880497E+02 -0.29372925884E+02 -0.14830353200E+02  0.54367084389E+02  0.40000000481E+02 0.  0.
        -12    1    3    3    0    0  0.16524880497E+02  0.29372925884E+02  0.14830353200E+02  0.36820915611E+02  0.00000000000E+00 0.  1.
         11    1    4    4    0    0  0.21323767742E+01 -0.13633204510E+02 -0.84126915415E+01  0.16161208964E+02  0.51100000000E-03 0. -1.
        -11    1    4    4    0    0  0.62310459513E+01 -0.10462576565E+02 -0.29430408307E+01  0.12528085712E+02  0.51100000000E-03 0.  1.
         12    1    4    4    0    0 -0.24888303223E+02 -0.52771448086E+01 -0.34746208280E+01  0.25677789713E+02  0.00000000000E+00 0. -1.
</event>
<event>
 8    1  0.2514877E-006  0.9118800E+02  0.7816164E-02  0.1184000E+00
        -11   -1    0    0    0    0  0.00000000000E+00  0.00000000000E+00  0.45593999997E+02  0.45594000000E+02  0.51100000000E-03 0.  1.
         11   -1    0    0    0    0 -0.00000000000E+00 -0.00000000000E+00 -0.45593999997E+02  0.45594000000E+02  0.51100000000E-03 0. -1.
         23    2    1    2    0    0  0.71054273576E-14  0.35527136788E-14  0.17763568394E-14  0.91188000000E+02  0.91188000000E+02 0.  0.
    9900012    2    3    3    0    0  0.28341037100E+02  0.21808077357E+02  0.87734590997E+01  0.54367079228E+02  0.39999988716E+02 0.  0.
         12    1    3    3    0    0 -0.28341037100E+02 -0.21808077357E+02 -0.87734590997E+01  0.36820920772E+02  0.00000000000E+00 0. -1.
         11    1    4    4    0    0  0.33846690712E+01  0.34493512422E+01  0.15665507997E+02  0.16393966872E+02  0.51100000000E-03 0. -1.
        -11    1    4    4    0    0  0.24660444331E+02  0.16349552241E+02  0.12176735792E+01  0.29612971859E+02  0.51100000000E-03 0.  1.
         12    1    4    4    0    0  0.29592369783E+00  0.20091738742E+01 -0.81097224767E+01  0.83601404977E+01  0.00000000000E+00 0. -1.
</event>
<event>
 8    1  0.2514877E-006  0.9118800E+02  0.7816164E-02  0.1184000E+00
        -11   -1    0    0    0    0  0.00000000000E+00  0.00000000000E+00  0.45593999997E+02  0.45594000000E+02  0.51100000000E-03 0. -1.
         11   -1    0    0    0    0 -0.00000000000E+00 -0.00000000000E+00 -0.45593999997E+02  0.45594000000E+02  0.51100000000E-03 0.  1.
         23    2    1    2    0    0  0.16653345369E-14  0.35527136788E-14  0.00000000000E+00  0.91188000000E+02  0.91188000000E+02 0.  0.
    9900012    2    3    3    0    0  0.84754545954E+00  0.30212717509E+02  0.21029880226E+02  0.54367048153E+02  0.39999917875E+02 0.  0.
         12    1    3    3    0    0 -0.84754545954E+00 -0.30212717509E+02 -0.21029880226E+02  0.36820951847E+02  0.00000000000E+00 0. -1.
         11    1    4    4    0    0  0.18767892463E+02  0.95121564965E+01  0.14218596068E+02  0.25394554202E+02  0.51100000000E-03 0. -1.
        -11    1    4    4    0    0 -0.42399993117E+01  0.20005679653E+01 -0.40281888408E+00  0.47055424407E+01  0.51100000000E-03 0.  1.
         12    1    4    4    0    0 -0.13680347691E+02  0.18699993047E+02  0.72141030416E+01  0.24266951511E+02  0.00000000000E+00 0. -1.
</event>
<event>
 8    1  0.2514877E-006  0.9118800E+02  0.7816164E-02  0.1184000E+00
        -11   -1    0    0    0    0  0.00000000000E+00  0.00000000000E+00  0.45593999997E+02  0.45594000000E+02  0.51100000000E-03 0.  1.
         11   -1    0    0    0    0 -0.00000000000E+00 -0.00000000000E+00 -0.45593999997E+02  0.45594000000E+02  0.51100000000E-03 0. -1.
         23    2    1    2    0    0  0.71054273576E-14  0.17763568394E-14  0.00000000000E+00  0.91188000000E+02  0.91188000000E+02 0.  0.
    9900012    2    3    3    0    0  0.32978442894E+02  0.14791624946E+02 -0.70291706655E+01  0.54367094192E+02  0.40000022829E+02 0.  0.
        -12    1    3    3    0    0 -0.32978442894E+02 -0.14791624946E+02  0.70291706655E+01  0.36820905808E+02  0.00000000000E+00 0.  1.
         11    1    4    4    0    0  0.24538780615E+02 -0.80582825892E+01 -0.69380558770E+01  0.26743677607E+02  0.51100000000E-03 0. -1.
        -11    1    4    4    0    0 -0.29369980659E+01  0.25329693473E+01  0.17712991660E+01  0.42637298636E+01  0.51100000000E-03 0.  1.
         12    1    4    4    0    0  0.11376660346E+02  0.20316938188E+02 -0.18624139545E+01  0.23359686721E+02  0.00000000000E+00 0. -1.
</event>
<event>
 8    1  0.2514877E-006  0.9118800E+02  0.7816164E-02  0.1184000E+00
        -11   -1    0    0    0    0  0.00000000000E+00  0.00000000000E+00  0.45593999997E+02  0.45594000000E+02  0.51100000000E-03 0. -1.
         11   -1    0    0    0    0 -0.00000000000E+00 -0.00000000000E+00 -0.45593999997E+02  0.45594000000E+02  0.51100000000E-03 0.  1.
         23    2    1    2    0    0  0.00000000000E+00  0.00000000000E+00  0.00000000000E+00  0.91188000000E+02  0.91188000000E+02 0.  0.
    9900012    2    3    3    0    0  0.30724262982E+02 -0.19861864172E+02  0.41599687139E+01  0.54367091214E+02  0.40000016040E+02 0.  0.
         12    1    3    3    0    0 -0.30724262982E+02  0.19861864172E+02 -0.41599687139E+01  0.36820908786E+02  0.00000000000E+00 0. -1.
         11    1    4    4    0    0 -0.97864827123E+00 -0.13895639754E+02 -0.72447531547E+01  0.15701369531E+02  0.51100000000E-03 0. -1.
        -11    1    4    4    0    0  0.26749648862E+02  0.26604987061E+01  0.69457937369E+01  0.27764474036E+02  0.51100000000E-03 0.  1.
        -12    1    4    4    0    0  0.49532623912E+01 -0.86267231238E+01  0.44589281317E+01  0.10901247647E+02  0.00000000000E+00 0.  1.
</event>
<event>
 8    1  0.2514877E-006  0.9118800E+02  0.7816164E-02  0.1184000E+00
        -11   -1    0    0    0    0  0.00000000000E+00  0.00000000000E+00  0.45593999997E+02  0.45594000000E+02  0.51100000000E-03 0.  1.
         11   -1    0    0    0    0 -0.00000000000E+00 -0.00000000000E+00 -0.45593999997E+02  0.45594000000E+02  0.51100000000E-03 0. -1.
         23    2    1    2    0    0  0.00000000000E+00 -0.35527136788E-14  0.17763568394E-14  0.91188000000E+02  0.91188000000E+02 0.  0.
    9900012    2    3    3    0    0 -0.29238681406E+02 -0.16373304493E+02  0.15257604657E+02  0.54367080806E+02  0.39999992314E+02 0.  0.
         12    1    3    3    0    0  0.29238681406E+02  0.16373304493E+02 -0.15257604657E+02  0.36820919194E+02  0.00000000000E+00 0. -1.
         11    1    4    4    0    0  0.89625475440E+01 -0.42137975673E+01 -0.14049488142E+01  0.10002861083E+02  0.51100000000E-03 0. -1.
        -11    1    4    4    0    0 -0.28228613460E+02 -0.68475761788E+01  0.15714062391E+02  0.33025379248E+02  0.51100000000E-03 0.  1.
         12    1    4    4    0    0 -0.99726154905E+01 -0.53119307471E+01  0.94849107961E+00  0.11338840475E+02  0.00000000000E+00 0. -1.
</event>
<event>
 8    1  0.2514877E-006  0.9118800E+02  0.7816164E-02  0.1184000E+00
        -11   -1    0    0    0    0  0.00000000000E+00  0.00000000000E+00  0.45593999997E+02  0.45594000000E+02  0.51100000000E-03 0. -1.
         11   -1    0    0    0    0 -0.00000000000E+00 -0.00000000000E+00 -0.45593999997E+02  0.45594000000E+02  0.51100000000E-03 0.  1.
         23    2    1    2    0    0 -0.17763568394E-14 -0.35527136788E-14  0.35527136788E-14  0.91188000000E+02  0.91188000000E+02 0.  0.
    9900012    2    3    3    0    0  0.86865866396E+01  0.31401956248E+02 -0.17153447550E+02  0.54367076512E+02  0.39999982524E+02 0.  0.
         12    1    3    3    0    0 -0.86865866396E+01 -0.31401956248E+02  0.17153447550E+02  0.36820923488E+02  0.00000000000E+00 0. -1.
         11    1    4    4    0    0 -0.12305095158E+01 -0.31015191267E+01  0.26128781036E+01  0.42380074100E+01  0.51100000000E-03 0. -1.
        -11    1    4    4    0    0 -0.18189079542E+01  0.58215057391E+01  0.69257867228E+01  0.92284818473E+01  0.51100000000E-03 0.  1.
        -12    1    4    4    0    0  0.11736004110E+02  0.28681969636E+02 -0.26692112376E+02  0.40900587255E+02  0.00000000000E+00 0.  1.
</event>
<event>
 8    1  0.2514877E-006  0.9118800E+02  0.7816164E-02  0.1184000E+00
        -11   -1    0    0    0    0  0.00000000000E+00  0.00000000000E+00  0.45593999997E+02  0.45594000000E+02  0.51100000000E-03 0.  1.
         11   -1    0    0    0    0 -0.00000000000E+00 -0.00000000000E+00 -0.45593999997E+02  0.45594000000E+02  0.51100000000E-03 0. -1.
         23    2    1    2    0    0  0.00000000000E+00  0.00000000000E+00  0.00000000000E+00  0.91188000000E+02  0.91188000000E+02 0.  0.
    9900012    2    3    3    0    0  0.26579955826E+02 -0.21952734300E+02  0.12936934237E+02  0.54367070321E+02  0.39999968410E+02 0.  0.
         12    1    3    3    0    0 -0.26579955826E+02  0.21952734300E+02 -0.12936934237E+02  0.36820929679E+02  0.00000000000E+00 0. -1.
         11    1    4    4    0    0 -0.39423785122E+01  0.10911233055E+01  0.21040472652E+01  0.45999906039E+01  0.51100000000E-03 0. -1.
        -11    1    4    4    0    0  0.19093638235E+02 -0.29401018873E+02  0.10822047430E+02  0.36689285120E+02  0.51100000000E-03 0.  1.
         12    1    4    4    0    0  0.11428696104E+02  0.63571612674E+01  0.10839542133E-01  0.13077794596E+02  0.00000000000E+00 0. -1.
</event>
<event>
 8    1  0.2514877E-006  0.9118800E+02  0.7816164E-02  0.1184000E+00
        -11   -1    0    0    0    0  0.00000000000E+00  0.00000000000E+00  0.45593999997E+02  0.45594000000E+02  0.51100000000E-03 0. -1.
         11   -1    0    0    0    0 -0.00000000000E+00 -0.00000000000E+00 -0.45593999997E+02  0.45594000000E+02  0.51100000000E-03 0.  1.
         23    2    1    2    0    0  0.00000000000E+00  0.00000000000E+00 -0.17763568394E-14  0.91188000000E+02  0.91188000000E+02 0.  0.
    9900012    2    3    3    0    0  0.98627772922E+01  0.32413876998E+02 -0.14416865680E+02  0.54367084558E+02  0.40000000867E+02 0.  0.
         12    1    3    3    0    0 -0.98627772922E+01 -0.32413876998E+02  0.14416865680E+02  0.36820915442E+02  0.00000000000E+00 0. -1.
         11    1    4    4    0    0  0.70881144122E+01  0.97643181364E+01  0.58890709590E+01  0.13426259033E+02  0.51100000000E-03 0. -1.
        -11    1    4    4    0    0  0.36385278115E+01  0.26907828881E+02 -0.23204927697E+02  0.35717486045E+02  0.51100000000E-03 0.  1.
         12    1    4    4    0    0 -0.86386493154E+00 -0.42582700189E+01  0.28989910580E+01  0.52233394805E+01  0.00000000000E+00 0. -1.
</event>
<event>
 8    1  0.2514877E-006  0.9118800E+02  0.7816164E-02  0.1184000E+00
        -11   -1    0    0    0    0  0.00000000000E+00  0.00000000000E+00  0.45593999997E+02  0.45594000000E+02  0.51100000000E-03 0.  1.
         11   -1    0    0    0    0 -0.00000000000E+00 -0.00000000000E+00 -0.45593999997E+02  0.45594000000E+02  0.51100000000E-03 0. -1.
         23    2    1    2    0    0  0.17763568394E-14 -0.71054273576E-14  0.00000000000E+00  0.91188000000E+02  0.91188000000E+02 0.  0.
    9900012    2    3    3    0    0  0.11378534579E+02 -0.19424684226E+02  0.29137435279E+02  0.54367088263E+02  0.40000009314E+02 0.  0.
         12    1    3    3    0    0 -0.11378534579E+02  0.19424684226E+02 -0.29137435279E+02  0.36820911737E+02  0.00000000000E+00 0. -1.
         11    1    4    4    0    0  0.56209797908E+01 -0.12120066954E+02 -0.14311550950E+01  0.13436504082E+02  0.51100000000E-03 0. -1.
        -11    1    4    4    0    0  0.21354214980E+01 -0.22849632487E+01 -0.44111645377E+01  0.54073519269E+01  0.51100000000E-03 0.  1.
        -12    1    4    4    0    0  0.36221332901E+01 -0.50196540236E+01  0.34979754912E+02  0.35523232254E+02  0.00000000000E+00 0.  1.
</event>
<event>
 8    1  0.2514877E-006  0.9118800E+02  0.7816164E-02  0.1184000E+00
        -11   -1    0    0    0    0  0.00000000000E+00  0.00000000000E+00  0.45593999997E+02  0.45594000000E+02  0.51100000000E-03 0.  1.
         11   -1    0    0    0    0 -0.00000000000E+00 -0.00000000000E+00 -0.45593999997E+02  0.45594000000E+02  0.51100000000E-03 0. -1.
         23    2    1    2    0    0 -0.35527136788E-14  0.35527136788E-14  0.35527136788E-14  0.91188000000E+02  0.91188000000E+02 0.  0.
    9900012    2    3    3    0    0  0.24253468549E+02 -0.19826825373E+02 -0.19350620325E+02  0.54367078665E+02  0.39999987432E+02 0.  0.
        -12    1    3    3    0    0 -0.24253468549E+02  0.19826825373E+02  0.19350620325E+02  0.36820921335E+02  0.00000000000E+00 0.  1.
         11    1    4    4    0    0  0.15579295509E+02 -0.23052117042E+02 -0.21997831439E+02  0.35468565476E+02  0.51100000000E-03 0. -1.
        -11    1    4    4    0    0  0.46916914672E+01  0.28976201655E+01  0.94891979120E+01  0.10975110420E+02  0.51100000000E-03 0.  1.
         12    1    4    4    0    0  0.39824815729E+01  0.32767150303E+00 -0.68419867981E+01  0.79234027689E+01  0.00000000000E+00 0. -1.
</event>
<event>
 8    1  0.2514877E-006  0.9118800E+02  0.7816164E-02  0.1184000E+00
        -11   -1    0    0    0    0  0.00000000000E+00  0.00000000000E+00  0.45593999997E+02  0.45594000000E+02  0.51100000000E-03 0.  1.
         11   -1    0    0    0    0 -0.00000000000E+00 -0.00000000000E+00 -0.45593999997E+02  0.45594000000E+02  0.51100000000E-03 0. -1.
         23    2    1    2    0    0 -0.88817841970E-15  0.00000000000E+00  0.00000000000E+00  0.91188000000E+02  0.91188000000E+02 0.  0.
    9900012    2    3    3    0    0 -0.77641627069E+01  0.23992297774E+02 -0.26830348063E+02  0.54367079966E+02  0.39999990397E+02 0.  0.
        -12    1    3    3    0    0  0.77641627069E+01 -0.23992297774E+02  0.26830348063E+02  0.36820920034E+02  0.00000000000E+00 0.  1.
         11    1    4    4    0    0 -0.19856591708E+01  0.11407541646E+01 -0.35478276575E+00  0.23173332688E+01  0.51100000000E-03 0. -1.
        -11    1    4    4    0    0  0.15985534012E+01  0.80509264816E+01  0.94402116536E+01  0.12509611765E+02  0.51100000000E-03 0.  1.
        -12    1    4    4    0    0 -0.73770569372E+01  0.14800617127E+02 -0.35915776951E+02  0.39540134932E+02  0.00000000000E+00 0.  1.
</event>
<event>
 8    1  0.2514877E-006  0.9118800E+02  0.7816164E-02  0.1184000E+00
        -11   -1    0    0    0    0  0.00000000000E+00  0.00000000000E+00  0.45593999997E+02  0.45594000000E+02  0.51100000000E-03 0. -1.
         11   -1    0    0    0    0 -0.00000000000E+00 -0.00000000000E+00 -0.45593999997E+02  0.45594000000E+02  0.51100000000E-03 0.  1.
         23    2    1    2    0    0  0.00000000000E+00 -0.35527136788E-14  0.00000000000E+00  0.91188000000E+02  0.91188000000E+02 0.  0.
    9900012    2    3    3    0    0  0.29496537877E+02 -0.21572718856E+02  0.45110581327E+01  0.54367114744E+02  0.40000069682E+02 0.  0.
        -12    1    3    3    0    0 -0.29496537877E+02  0.21572718856E+02 -0.45110581327E+01  0.36820885256E+02  0.00000000000E+00 0.  1.
         11    1    4    4    0    0  0.10295544112E+02 -0.71473035420E+01  0.12717981242E+01  0.12597604821E+02  0.51100000000E-03 0. -1.
        -11    1    4    4    0    0 -0.94462683617E+01 -0.36368604069E+00 -0.12771692972E+01  0.95391517008E+01  0.51100000000E-03 0.  1.
        -12    1    4    4    0    0  0.28647262127E+02 -0.14061729273E+02  0.45164293057E+01  0.32230358223E+02  0.00000000000E+00 0.  1.
</event>
<event>
 8    1  0.2514877E-006  0.9118800E+02  0.7816164E-02  0.1184000E+00
        -11   -1    0    0    0    0  0.00000000000E+00  0.00000000000E+00  0.45593999997E+02  0.45594000000E+02  0.51100000000E-03 0. -1.
         11   -1    0    0    0    0 -0.00000000000E+00 -0.00000000000E+00 -0.45593999997E+02  0.45594000000E+02  0.51100000000E-03 0.  1.
         23    2    1    2    0    0 -0.35527136788E-14  0.00000000000E+00  0.00000000000E+00  0.91188000000E+02  0.91188000000E+02 0.  0.
    9900012    2    3    3    0    0  0.31557650739E+02 -0.75489833357E+01 -0.17404211501E+02  0.54367094965E+02  0.40000024593E+02 0.  0.
         12    1    3    3    0    0 -0.31557650739E+02  0.75489833357E+01  0.17404211501E+02  0.36820905035E+02  0.00000000000E+00 0. -1.
         11    1    4    4    0    0 -0.38718983227E+01 -0.23750646546E+01 -0.46409126562E+01  0.64938893799E+01  0.51100000000E-03 0. -1.
        -11    1    4    4    0    0  0.64111332024E+01 -0.84597145290E+01 -0.15231502738E+02  0.18565238344E+02  0.51100000000E-03 0.  1.
        -12    1    4    4    0    0  0.29018415860E+02  0.32857958479E+01  0.24682038932E+01  0.29307967241E+02  0.00000000000E+00 0.  1.
</event>
<event>
 8    1  0.2514877E-006  0.9118800E+02  0.7816164E-02  0.1184000E+00
        -11   -1    0    0    0    0  0.00000000000E+00  0.00000000000E+00  0.45593999997E+02  0.45594000000E+02  0.51100000000E-03 0.  1.
         11   -1    0    0    0    0 -0.00000000000E+00 -0.00000000000E+00 -0.45593999997E+02  0.45594000000E+02  0.51100000000E-03 0. -1.
         23    2    1    2    0    0  0.00000000000E+00  0.00000000000E+00  0.35527136788E-14  0.91188000000E+02  0.91188000000E+02 0.  0.
    9900012    2    3    3    0    0 -0.24145201126E+02 -0.19178504928E+02  0.20123868416E+02  0.54367138132E+02  0.40000122999E+02 0.  0.
        -12    1    3    3    0    0  0.24145201126E+02  0.19178504928E+02 -0.20123868416E+02  0.36820861868E+02  0.00000000000E+00 0.  1.
         11    1    4    4    0    0  0.47692641406E+01 -0.58624983256E+01  0.22188138436E+01  0.78764142980E+01  0.51100000000E-03 0. -1.
        -11    1    4    4    0    0  0.14236356070E+00 -0.75236250831E+00  0.14646823723E+02  0.14666825225E+02  0.51100000000E-03 0.  1.
         12    1    4    4    0    0 -0.29056828827E+02 -0.12563644095E+02  0.32582308492E+01  0.31823898609E+02  0.00000000000E+00 0. -1.
</event>
<event>
 8    1  0.2514877E-006  0.9118800E+02  0.7816164E-02  0.1184000E+00
        -11   -1    0    0    0    0  0.00000000000E+00  0.00000000000E+00  0.45593999997E+02  0.45594000000E+02  0.51100000000E-03 0.  1.
         11   -1    0    0    0    0 -0.00000000000E+00 -0.00000000000E+00 -0.45593999997E+02  0.45594000000E+02  0.51100000000E-03 0. -1.
         23    2    1    2    0    0  0.00000000000E+00  0.00000000000E+00 -0.17763568394E-14  0.91188000000E+02  0.91188000000E+02 0.  0.
    9900012    2    3    3    0    0 -0.11330325721E+02  0.33906366053E+02 -0.88182465740E+01  0.54367090009E+02  0.40000013294E+02 0.  0.
        -12    1    3    3    0    0  0.11330325721E+02 -0.33906366053E+02  0.88182465740E+01  0.36820909991E+02  0.00000000000E+00 0.  1.
         11    1    4    4    0    0  0.11031267025E+02  0.17038833940E+02 -0.83970500191E+01  0.21966364367E+02  0.51100000000E-03 0. -1.
        -11    1    4    4    0    0 -0.68130128834E+01  0.13035634718E+01  0.63274613444E+01  0.93889930024E+01  0.51100000000E-03 0.  1.
        -12    1    4    4    0    0 -0.15548579863E+02  0.15563968641E+02 -0.67486578993E+01  0.23011732640E+02  0.00000000000E+00 0.  1.
</event>
<event>
 8    1  0.2514877E-006  0.9118800E+02  0.7816164E-02  0.1184000E+00
        -11   -1    0    0    0    0  0.00000000000E+00  0.00000000000E+00  0.45593999997E+02  0.45594000000E+02  0.51100000000E-03 0. -1.
         11   -1    0    0    0    0 -0.00000000000E+00 -0.00000000000E+00 -0.45593999997E+02  0.45594000000E+02  0.51100000000E-03 0.  1.
         23    2    1    2    0    0  0.00000000000E+00  0.35527136788E-14  0.17763568394E-14  0.91188000000E+02  0.91188000000E+02 0.  0.
    9900012    2    3    3    0    0  0.27216592557E+02 -0.22809662354E+02  0.97342763305E+01  0.54367085525E+02  0.40000003071E+02 0.  0.
        -12    1    3    3    0    0 -0.27216592557E+02  0.22809662354E+02 -0.97342763305E+01  0.36820914475E+02  0.00000000000E+00 0.  1.
         11    1    4    4    0    0  0.20681325187E+02 -0.27384546755E+02  0.84275109738E+00  0.34326969604E+02  0.51100000000E-03 0. -1.
        -11    1    4    4    0    0 -0.18361209282E+01  0.51836116862E+01  0.10158575350E+02  0.11551529058E+02  0.51100000000E-03 0.  1.
        -12    1    4    4    0    0  0.83713882975E+01 -0.60872728491E+00 -0.12670501170E+01  0.84885868632E+01  0.00000000000E+00 0.  1.
</event>
<event>
 8    1  0.2514877E-006  0.9118800E+02  0.7816164E-02  0.1184000E+00
        -11   -1    0    0    0    0  0.00000000000E+00  0.00000000000E+00  0.45593999997E+02  0.45594000000E+02  0.51100000000E-03 0.  1.
         11   -1    0    0    0    0 -0.00000000000E+00 -0.00000000000E+00 -0.45593999997E+02  0.45594000000E+02  0.51100000000E-03 0. -1.
         23    2    1    2    0    0  0.00000000000E+00 -0.17763568394E-14 -0.71054273576E-14  0.91188000000E+02  0.91188000000E+02 0.  0.
    9900012    2    3    3    0    0 -0.37335220075E+01  0.12104499384E+02  0.34573438077E+02  0.54367072358E+02  0.39999973055E+02 0.  0.
         12    1    3    3    0    0  0.37335220075E+01 -0.12104499384E+02 -0.34573438077E+02  0.36820927642E+02  0.00000000000E+00 0. -1.
         11    1    4    4    0    0  0.54427294113E+01 -0.69497148993E+01 -0.18458212447E+01  0.90182535424E+01  0.51100000000E-03 0. -1.
        -11    1    4    4    0    0 -0.13500638960E+01  0.15047540287E+02  0.11688387723E+02  0.19101558812E+02  0.51100000000E-03 0.  1.
        -12    1    4    4    0    0 -0.78261875229E+01  0.40066739961E+01  0.24730871599E+02  0.26247260004E+02  0.00000000000E+00 0.  1.
</event>
<event>
 8    1  0.2514877E-006  0.9118800E+02  0.7816164E-02  0.1184000E+00
        -11   -1    0    0    0    0  0.00000000000E+00  0.00000000000E+00  0.45593999997E+02  0.45594000000E+02  0.51100000000E-03 0. -1.
         11   -1    0    0    0    0 -0.00000000000E+00 -0.00000000000E+00 -0.45593999997E+02  0.45594000000E+02  0.51100000000E-03 0.  1.
         23    2    1    2    0    0  0.00000000000E+00  0.00000000000E+00  0.00000000000E+00  0.91188000000E+02  0.91188000000E+02 0.  0.
    9900012    2    3    3    0    0 -0.22609619549E+02 -0.16762003565E+02 -0.23740773808E+02  0.54367027706E+02  0.39999871261E+02 0.  0.
         12    1    3    3    0    0  0.22609619549E+02  0.16762003565E+02  0.23740773808E+02  0.36820972294E+02  0.00000000000E+00 0. -1.
         11    1    4    4    0    0  0.21455558292E+01 -0.43958176338E+01  0.28774801157E+00  0.48999409858E+01  0.51100000000E-03 0. -1.
        -11    1    4    4    0    0 -0.19454326620E+02  0.16884901843E+01  0.17769687493E+01  0.19608147325E+02  0.51100000000E-03 0.  1.
        -12    1    4    4    0    0 -0.53008487582E+01 -0.14054676116E+02 -0.25805490569E+02  0.29858939395E+02  0.00000000000E+00 0.  1.
</event>
<event>
 8    1  0.2514877E-006  0.9118800E+02  0.7816164E-02  0.1184000E+00
        -11   -1    0    0    0    0  0.00000000000E+00  0.00000000000E+00  0.45593999997E+02  0.45594000000E+02  0.51100000000E-03 0. -1.
         11   -1    0    0    0    0 -0.00000000000E+00 -0.00000000000E+00 -0.45593999997E+02  0.45594000000E+02  0.51100000000E-03 0.  1.
         23    2    1    2    0    0 -0.17763568394E-14 -0.66613381478E-15  0.00000000000E+00  0.91188000000E+02  0.91188000000E+02 0.  0.
    9900012    2    3    3    0    0  0.15590876058E+02 -0.81187411837E+00 -0.33347337609E+02  0.54367089074E+02  0.40000011161E+02 0.  0.
         12    1    3    3    0    0 -0.15590876058E+02  0.81187411837E+00  0.33347337609E+02  0.36820910926E+02  0.00000000000E+00 0. -1.
         11    1    4    4    0    0  0.25823109104E+01  0.15422508670E+02 -0.21297302926E+02  0.26421529394E+02  0.51100000000E-03 0.  1.
        -11    1    4    4    0    0  0.10831486989E+02 -0.30053081982E+01 -0.25848791372E+01  0.11534062085E+02  0.51100000000E-03 0. -1.
         12    1    4    4    0    0  0.21770781582E+01 -0.13229074590E+02 -0.94651555455E+01  0.16411497595E+02  0.00000000000E+00 0. -1.
</event>
<event>
 8    1  0.2514877E-006  0.9118800E+02  0.7816164E-02  0.1184000E+00
        -11   -1    0    0    0    0  0.00000000000E+00  0.00000000000E+00  0.45593999997E+02  0.45594000000E+02  0.51100000000E-03 0.  1.
         11   -1    0    0    0    0 -0.00000000000E+00 -0.00000000000E+00 -0.45593999997E+02  0.45594000000E+02  0.51100000000E-03 0. -1.
         23    2    1    2    0    0 -0.35527136788E-14  0.35527136788E-14 -0.35527136788E-14  0.91188000000E+02  0.91188000000E+02 0.  0.
    9900012    2    3    3    0    0 -0.17685719856E+02 -0.24178426724E+02  0.21410207173E+02  0.54367109505E+02  0.40000057739E+02 0.  0.
         12    1    3    3    0    0  0.17685719856E+02  0.24178426724E+02 -0.21410207173E+02  0.36820890495E+02  0.00000000000E+00 0. -1.
         11    1    4    4    0    0  0.10833393205E+01  0.16056300733E+01 -0.37387924646E+01  0.42107293157E+01  0.51100000000E-03 0. -1.
        -11    1    4    4    0    0 -0.17827746823E+02 -0.21039229021E+02  0.32944059885E+01  0.27772843312E+02  0.51100000000E-03 0.  1.
        -12    1    4    4    0    0 -0.94131235313E+00 -0.47448277762E+01  0.21854593649E+02  0.22383536877E+02  0.00000000000E+00 0.  1.
</event>
<event>
 8    1  0.2514877E-006  0.9118800E+02  0.7816164E-02  0.1184000E+00
        -11   -1    0    0    0    0  0.00000000000E+00  0.00000000000E+00  0.45593999997E+02  0.45594000000E+02  0.51100000000E-03 0.  1.
         11   -1    0    0    0    0 -0.00000000000E+00 -0.00000000000E+00 -0.45593999997E+02  0.45594000000E+02  0.51100000000E-03 0. -1.
         23    2    1    2    0    0 -0.88817841970E-15  0.00000000000E+00  0.33306690739E-15  0.91188000000E+02  0.91188000000E+02 0.  0.
    9900012    2    3    3    0    0  0.32572777296E+01  0.36674130293E+02  0.42197564974E+00  0.54367085367E+02  0.40000002711E+02 0.  0.
         12    1    3    3    0    0 -0.32572777296E+01 -0.36674130293E+02 -0.42197564974E+00  0.36820914633E+02  0.00000000000E+00 0. -1.
         11    1    4    4    0    0 -0.11084196066E+01  0.18790599349E+02  0.65021844125E+01  0.19914658428E+02  0.51100000000E-03 0. -1.
        -11    1    4    4    0    0  0.15861761220E+02  0.15478029535E+02 -0.37102844809E+01  0.22470671519E+02  0.51100000000E-03 0.  1.
         12    1    4    4    0    0 -0.11496063884E+02  0.24055014089E+01 -0.23699242819E+01  0.11981755420E+02  0.00000000000E+00 0. -1.
</event>
<event>
 8    1  0.2514877E-006  0.9118800E+02  0.7816164E-02  0.1184000E+00
        -11   -1    0    0    0    0  0.00000000000E+00  0.00000000000E+00  0.45593999997E+02  0.45594000000E+02  0.51100000000E-03 0.  1.
         11   -1    0    0    0    0 -0.00000000000E+00 -0.00000000000E+00 -0.45593999997E+02  0.45594000000E+02  0.51100000000E-03 0. -1.
         23    2    1    2    0    0 -0.17763568394E-14  0.17763568394E-14  0.00000000000E+00  0.91188000000E+02  0.91188000000E+02 0.  0.
    9900012    2    3    3    0    0  0.82961631500E+01  0.78415090833E+01 -0.35006619373E+02  0.54367095779E+02  0.40000026448E+02 0.  0.
        -12    1    3    3    0    0 -0.82961631500E+01 -0.78415090833E+01  0.35006619373E+02  0.36820904221E+02  0.00000000000E+00 0.  1.
         11    1    4    4    0    0  0.13244021138E+02  0.63734054127E+01 -0.15349778557E+02  0.21251825674E+02  0.51100000000E-03 0. -1.
        -11    1    4    4    0    0 -0.57014778464E+01  0.13371526683E+02 -0.12730243892E+02  0.19322621076E+02  0.51100000000E-03 0.  1.
        -12    1    4    4    0    0  0.75361985872E+00 -0.11903423012E+02 -0.69265969240E+01  0.13792649029E+02  0.00000000000E+00 0.  1.
</event>
<event>
 8    1  0.2514877E-006  0.9118800E+02  0.7816164E-02  0.1184000E+00
        -11   -1    0    0    0    0  0.00000000000E+00  0.00000000000E+00  0.45593999997E+02  0.45594000000E+02  0.51100000000E-03 0.  1.
         11   -1    0    0    0    0 -0.00000000000E+00 -0.00000000000E+00 -0.45593999997E+02  0.45594000000E+02  0.51100000000E-03 0. -1.
         23    2    1    2    0    0  0.00000000000E+00  0.17763568394E-14  0.00000000000E+00  0.91188000000E+02  0.91188000000E+02 0.  0.
    9900012    2    3    3    0    0  0.24169791213E+02 -0.11891692089E+02 -0.25103569253E+02  0.54367077452E+02  0.39999984668E+02 0.  0.
        -12    1    3    3    0    0 -0.24169791213E+02  0.11891692089E+02  0.25103569253E+02  0.36820922548E+02  0.00000000000E+00 0.  1.
         11    1    4    4    0    0 -0.31310634545E+01  0.36497035529E+00 -0.13006058045E+02  0.13382612146E+02  0.51100000000E-03 0. -1.
        -11    1    4    4    0    0  0.14635311902E+02 -0.10365579511E+02  0.59143017323E+01  0.18884293959E+02  0.51100000000E-03 0.  1.
        -12    1    4    4    0    0  0.12665542765E+02 -0.18910829336E+01 -0.18011812940E+02  0.22100171347E+02  0.00000000000E+00 0.  1.
</event>
<event>
 8    1  0.2514877E-006  0.9118800E+02  0.7816164E-02  0.1184000E+00
        -11   -1    0    0    0    0  0.00000000000E+00  0.00000000000E+00  0.45593999997E+02  0.45594000000E+02  0.51100000000E-03 0.  1.
         11   -1    0    0    0    0 -0.00000000000E+00 -0.00000000000E+00 -0.45593999997E+02  0.45594000000E+02  0.51100000000E-03 0. -1.
         23    2    1    2    0    0  0.17763568394E-14  0.00000000000E+00  0.71054273576E-14  0.91188000000E+02  0.91188000000E+02 0.  0.
    9900012    2    3    3    0    0 -0.83083692438E+01 -0.82283218381E+01 -0.34914827907E+02  0.54367088991E+02  0.40000010972E+02 0.  0.
        -12    1    3    3    0    0  0.83083692438E+01  0.82283218381E+01  0.34914827907E+02  0.36820911009E+02  0.00000000000E+00 0.  1.
         11    1    4    4    0    0  0.70959379597E+01 -0.37910237856E+01 -0.17928138749E+02  0.19650505238E+02  0.51100000000E-03 0. -1.
        -11    1    4    4    0    0 -0.54226743574E+01  0.92605576579E+01 -0.15436604920E-01  0.10731428790E+02  0.51100000000E-03 0.  1.
         12    1    4    4    0    0 -0.99816328461E+01 -0.13697855710E+02 -0.16971252554E+02  0.23985154962E+02  0.00000000000E+00 0. -1.
</event>
<event>
 8    1  0.2514877E-006  0.9118800E+02  0.7816164E-02  0.1184000E+00
        -11   -1    0    0    0    0  0.00000000000E+00  0.00000000000E+00  0.45593999997E+02  0.45594000000E+02  0.51100000000E-03 0.  1.
         11   -1    0    0    0    0 -0.00000000000E+00 -0.00000000000E+00 -0.45593999997E+02  0.45594000000E+02  0.51100000000E-03 0. -1.
         23    2    1    2    0    0  0.00000000000E+00 -0.17763568394E-14  0.00000000000E+00  0.91188000000E+02  0.91188000000E+02 0.  0.
    9900012    2    3    3    0    0  0.34876764101E+02 -0.84336249217E+01 -0.82622611395E+01  0.54367086614E+02  0.40000005554E+02 0.  0.
        -12    1    3    3    0    0 -0.34876764101E+02  0.84336249217E+01  0.82622611395E+01  0.36820913386E+02  0.00000000000E+00 0.  1.
         11    1    4    4    0    0  0.51675436477E+01  0.54863658440E+01  0.12428123329E+02  0.14534853534E+02  0.51100000000E-03 0. -1.
        -11    1    4    4    0    0  0.76744904011E+01 -0.49981435976E+01 -0.10595685995E+02  0.14005277730E+02  0.51100000000E-03 0.  1.
         12    1    4    4    0    0  0.22034730052E+02 -0.89218471681E+01 -0.10094698474E+02  0.25826955349E+02  0.00000000000E+00 0. -1.
</event>
<event>
 8    1  0.2514877E-006  0.9118800E+02  0.7816164E-02  0.1184000E+00
        -11   -1    0    0    0    0  0.00000000000E+00  0.00000000000E+00  0.45593999997E+02  0.45594000000E+02  0.51100000000E-03 0. -1.
         11   -1    0    0    0    0 -0.00000000000E+00 -0.00000000000E+00 -0.45593999997E+02  0.45594000000E+02  0.51100000000E-03 0.  1.
         23    2    1    2    0    0  0.00000000000E+00  0.00000000000E+00  0.35527136788E-14  0.91188000000E+02  0.91188000000E+02 0.  0.
    9900012    2    3    3    0    0  0.50333483153E+01 -0.17669794712E+02  0.31909621015E+02  0.54367079944E+02  0.39999990349E+02 0.  0.
        -12    1    3    3    0    0 -0.50333483153E+01  0.17669794712E+02 -0.31909621015E+02  0.36820920056E+02  0.00000000000E+00 0.  1.
         11    1    4    4    0    0 -0.24346370636E+01 -0.56420408804E+01  0.13799255452E+02  0.15105612672E+02  0.51100000000E-03 0. -1.
        -11    1    4    4    0    0  0.63600731105E+01  0.54665749863E+01  0.19944875619E+02  0.21636359116E+02  0.51100000000E-03 0.  1.
        -12    1    4    4    0    0  0.11079122684E+01 -0.17494328817E+02 -0.18345100555E+01  0.17625108156E+02  0.00000000000E+00 0.  1.
</event>
<event>
 8    1  0.2514877E-006  0.9118800E+02  0.7816164E-02  0.1184000E+00
        -11   -1    0    0    0    0  0.00000000000E+00  0.00000000000E+00  0.45593999997E+02  0.45594000000E+02  0.51100000000E-03 0. -1.
         11   -1    0    0    0    0 -0.00000000000E+00 -0.00000000000E+00 -0.45593999997E+02  0.45594000000E+02  0.51100000000E-03 0.  1.
         23    2    1    2    0    0 -0.17763568394E-14 -0.35527136788E-14  0.35527136788E-14  0.91188000000E+02  0.91188000000E+02 0.  0.
    9900012    2    3    3    0    0  0.11353957680E+02  0.28752924862E+02  0.20003407668E+02  0.54367090703E+02  0.40000014876E+02 0.  0.
        -12    1    3    3    0    0 -0.11353957680E+02 -0.28752924862E+02 -0.20003407668E+02  0.36820909297E+02  0.00000000000E+00 0.  1.
         11    1    4    4    0    0  0.85501251810E+01 -0.55004555132E+01  0.90711987453E+01  0.13625208197E+02  0.51100000000E-03 0. -1.
        -11    1    4    4    0    0  0.56831130414E+01  0.11264503675E+02 -0.39316200719E+01  0.13215311330E+02  0.51100000000E-03 0.  1.
        -12    1    4    4    0    0 -0.28792805429E+01  0.22988876700E+02  0.14863828995E+02  0.27526571177E+02  0.00000000000E+00 0.  1.
</event>
<event>
 8    1  0.2514877E-006  0.9118800E+02  0.7816164E-02  0.1184000E+00
        -11   -1    0    0    0    0  0.00000000000E+00  0.00000000000E+00  0.45593999997E+02  0.45594000000E+02  0.51100000000E-03 0. -1.
         11   -1    0    0    0    0 -0.00000000000E+00 -0.00000000000E+00 -0.45593999997E+02  0.45594000000E+02  0.51100000000E-03 0.  1.
         23    2    1    2    0    0 -0.28865798640E-14  0.00000000000E+00 -0.35527136788E-14  0.91188000000E+02  0.91188000000E+02 0.  0.
    9900012    2    3    3    0    0  0.16963598452E+01 -0.31951940111E+02  0.18220202039E+02  0.54367083717E+02  0.39999998949E+02 0.  0.
        -12    1    3    3    0    0 -0.16963598452E+01  0.31951940111E+02 -0.18220202039E+02  0.36820916283E+02  0.00000000000E+00 0.  1.
         11    1    4    4    0    0  0.10546728944E+02 -0.29556215728E+02  0.16443158678E+02  0.35428531541E+02  0.51100000000E-03 0. -1.
        -11    1    4    4    0    0 -0.94139772228E+01 -0.55292871639E+01  0.68938556434E+01  0.12912057527E+02  0.51100000000E-03 0.  1.
        -12    1    4    4    0    0  0.56360812385E+00  0.31335627800E+01 -0.51168122831E+01  0.60264946490E+01  0.00000000000E+00 0.  1.
</event>
<event>
 8    1  0.2514877E-006  0.9118800E+02  0.7816164E-02  0.1184000E+00
        -11   -1    0    0    0    0  0.00000000000E+00  0.00000000000E+00  0.45593999997E+02  0.45594000000E+02  0.51100000000E-03 0.  1.
         11   -1    0    0    0    0 -0.00000000000E+00 -0.00000000000E+00 -0.45593999997E+02  0.45594000000E+02  0.51100000000E-03 0. -1.
         23    2    1    2    0    0  0.00000000000E+00  0.00000000000E+00 -0.17763568394E-14  0.91188000000E+02  0.91188000000E+02 0.  0.
    9900012    2    3    3    0    0 -0.30937715699E+02  0.18541550743E+02  0.74060582990E+01  0.54367067690E+02  0.39999962414E+02 0.  0.
         12    1    3    3    0    0  0.30937715699E+02 -0.18541550743E+02 -0.74060582990E+01  0.36820932310E+02  0.00000000000E+00 0. -1.
         11    1    4    4    0    0  0.37119794206E+01 -0.80271604903E+00  0.30929025237E+01  0.48978761271E+01  0.51100000000E-03 0. -1.
        -11    1    4    4    0    0 -0.49177833118E+01  0.11347719591E+02  0.12527446861E+02  0.17603756922E+02  0.51100000000E-03 0.  1.
         12    1    4    4    0    0 -0.29731911807E+02  0.79965472010E+01 -0.82142910860E+01  0.31865434642E+02  0.00000000000E+00 0. -1.
</event>
<event>
 8    1  0.2514877E-006  0.9118800E+02  0.7816164E-02  0.1184000E+00
        -11   -1    0    0    0    0  0.00000000000E+00  0.00000000000E+00  0.45593999997E+02  0.45594000000E+02  0.51100000000E-03 0. -1.
         11   -1    0    0    0    0 -0.00000000000E+00 -0.00000000000E+00 -0.45593999997E+02  0.45594000000E+02  0.51100000000E-03 0.  1.
         23    2    1    2    0    0  0.00000000000E+00  0.35527136788E-14  0.00000000000E+00  0.91188000000E+02  0.91188000000E+02 0.  0.
    9900012    2    3    3    0    0 -0.15580374767E+02  0.31630240921E+02  0.10609482825E+02  0.54367063776E+02  0.39999953491E+02 0.  0.
         12    1    3    3    0    0  0.15580374767E+02 -0.31630240921E+02 -0.10609482825E+02  0.36820936224E+02  0.00000000000E+00 0. -1.
         11    1    4    4    0    0  0.47316236650E+01  0.52452453368E+01 -0.33987827981E+01  0.78391699764E+01  0.51100000000E-03 0. -1.
        -11    1    4    4    0    0 -0.17329209143E+02  0.52899000463E+01 -0.40888463401E+01  0.18574261673E+02  0.51100000000E-03 0.  1.
        -12    1    4    4    0    0 -0.29827892886E+01  0.21095095538E+02  0.18097111963E+02  0.27953632127E+02  0.00000000000E+00 0.  1.
</event>
<event>
 8    1  0.2514877E-006  0.9118800E+02  0.7816164E-02  0.1184000E+00
        -11   -1    0    0    0    0  0.00000000000E+00  0.00000000000E+00  0.45593999997E+02  0.45594000000E+02  0.51100000000E-03 0.  1.
         11   -1    0    0    0    0 -0.00000000000E+00 -0.00000000000E+00 -0.45593999997E+02  0.45594000000E+02  0.51100000000E-03 0. -1.
         23    2    1    2    0    0  0.00000000000E+00  0.00000000000E+00 -0.17763568394E-14  0.91188000000E+02  0.91188000000E+02 0.  0.
    9900012    2    3    3    0    0 -0.26972969186E+02  0.22517151293E+02  0.11009860607E+02  0.54367079321E+02  0.39999988928E+02 0.  0.
         12    1    3    3    0    0  0.26972969186E+02 -0.22517151293E+02 -0.11009860607E+02  0.36820920679E+02  0.00000000000E+00 0. -1.
         11    1    4    4    0    0  0.12582423341E+01  0.58788489486E+01 -0.54598856298E+01  0.81212308232E+01  0.51100000000E-03 0. -1.
        -11    1    4    4    0    0  0.13374493867E+01 -0.18634208725E+01 -0.48507704841E+01  0.53657322669E+01  0.51100000000E-03 0.  1.
        -12    1    4    4    0    0 -0.29568660907E+02  0.18501723216E+02  0.21320516721E+02  0.40880116231E+02  0.00000000000E+00 0.  1.
</event>
<event>
 8    1  0.2514877E-006  0.9118800E+02  0.7816164E-02  0.1184000E+00
        -11   -1    0    0    0    0  0.00000000000E+00  0.00000000000E+00  0.45593999997E+02  0.45594000000E+02  0.51100000000E-03 0.  1.
         11   -1    0    0    0    0 -0.00000000000E+00 -0.00000000000E+00 -0.45593999997E+02  0.45594000000E+02  0.51100000000E-03 0. -1.
         23    2    1    2    0    0  0.00000000000E+00  0.00000000000E+00 -0.35527136788E-14  0.91188000000E+02  0.91188000000E+02 0.  0.
    9900012    2    3    3    0    0 -0.71288784594E+01 -0.21195655204E+02 -0.29252392735E+02  0.54367093053E+02  0.40000020234E+02 0.  0.
        -12    1    3    3    0    0  0.71288784594E+01  0.21195655204E+02  0.29252392735E+02  0.36820906947E+02  0.00000000000E+00 0.  1.
         11    1    4    4    0    0 -0.11019317974E+02 -0.93779375504E+01 -0.34631217189E+02  0.37532549681E+02  0.51100000000E-03 0. -1.
        -11    1    4    4    0    0  0.49853769606E+01 -0.54155423870E+01 -0.13485699516E+01  0.74833631450E+01  0.51100000000E-03 0.  1.
         12    1    4    4    0    0 -0.10949374460E+01 -0.64021752667E+01  0.67273944054E+01  0.93511802272E+01  0.00000000000E+00 0. -1.
</event>
<event>
 8    1  0.2514877E-006  0.9118800E+02  0.7816164E-02  0.1184000E+00
        -11   -1    0    0    0    0  0.00000000000E+00  0.00000000000E+00  0.45593999997E+02  0.45594000000E+02  0.51100000000E-03 0.  1.
         11   -1    0    0    0    0 -0.00000000000E+00 -0.00000000000E+00 -0.45593999997E+02  0.45594000000E+02  0.51100000000E-03 0. -1.
         23    2    1    2    0    0  0.00000000000E+00 -0.26645352591E-14  0.66613381478E-15  0.91188000000E+02  0.91188000000E+02 0.  0.
    9900012    2    3    3    0    0  0.36333511828E+02 -0.58740279314E+01  0.10736951438E+01  0.54367066998E+02  0.39999960836E+02 0.  0.
         12    1    3    3    0    0 -0.36333511828E+02  0.58740279314E+01 -0.10736951438E+01  0.36820933002E+02  0.00000000000E+00 0. -1.
         11    1    4    4    0    0  0.19442062663E+02 -0.18017997778E+02  0.12169904841E+02  0.29167595523E+02  0.51100000000E-03 0. -1.
        -11    1    4    4    0    0  0.16121863524E+02  0.86143016423E+01 -0.66051583117E+01  0.19435760671E+02  0.51100000000E-03 0.  1.
         12    1    4    4    0    0  0.76958564086E+00  0.35296682042E+01 -0.44910513851E+01  0.57637108042E+01  0.00000000000E+00 0. -1.
</event>
<event>
 8    1  0.2514877E-006  0.9118800E+02  0.7816164E-02  0.1184000E+00
        -11   -1    0    0    0    0  0.00000000000E+00  0.00000000000E+00  0.45593999997E+02  0.45594000000E+02  0.51100000000E-03 0.  1.
         11   -1    0    0    0    0 -0.00000000000E+00 -0.00000000000E+00 -0.45593999997E+02  0.45594000000E+02  0.51100000000E-03 0. -1.
         23    2    1    2    0    0  0.44408920985E-15  0.00000000000E+00  0.00000000000E+00  0.91188000000E+02  0.91188000000E+02 0.  0.
    9900012    2    3    3    0    0  0.12818376818E+01  0.30145506932E+02 -0.21104132182E+02  0.54367094374E+02  0.40000023243E+02 0.  0.
        -12    1    3    3    0    0 -0.12818376818E+01 -0.30145506932E+02  0.21104132182E+02  0.36820905626E+02  0.00000000000E+00 0.  1.
         11    1    4    4    0    0 -0.21866138705E+01  0.46559031041E-01  0.38061011790E+01  0.43897442304E+01  0.51100000000E-03 0.  1.
        -11    1    4    4    0    0 -0.12182665988E+02  0.22711871691E+02 -0.17488290830E+02  0.31146216186E+02  0.51100000000E-03 0. -1.
        -12    1    4    4    0    0  0.15651117540E+02  0.73870762092E+01 -0.74219425308E+01  0.18831133957E+02  0.00000000000E+00 0.  1.
</event>
<event>
 8    1  0.2514877E-006  0.9118800E+02  0.7816164E-02  0.1184000E+00
        -11   -1    0    0    0    0  0.00000000000E+00  0.00000000000E+00  0.45593999997E+02  0.45594000000E+02  0.51100000000E-03 0.  1.
         11   -1    0    0    0    0 -0.00000000000E+00 -0.00000000000E+00 -0.45593999997E+02  0.45594000000E+02  0.51100000000E-03 0. -1.
         23    2    1    2    0    0 -0.71054273576E-14  0.00000000000E+00 -0.35527136788E-14  0.91188000000E+02  0.91188000000E+02 0.  0.
    9900012    2    3    3    0    0  0.24029575414E+02  0.22950108396E+01  0.27804494866E+02  0.54367115925E+02  0.40000072373E+02 0.  0.
         12    1    3    3    0    0 -0.24029575414E+02 -0.22950108396E+01 -0.27804494866E+02  0.36820884075E+02  0.00000000000E+00 0. -1.
         11    1    4    4    0    0  0.88441697107E+01  0.52292862127E+01 -0.58474574171E+00  0.10291098095E+02  0.51100000000E-03 0. -1.
        -11    1    4    4    0    0  0.12858622040E+02  0.11787025485E+02  0.90240424143E+01  0.19639538495E+02  0.51100000000E-03 0.  1.
         12    1    4    4    0    0  0.23267836637E+01 -0.14721300858E+02  0.19365198194E+02  0.24436479334E+02  0.00000000000E+00 0. -1.
</event>
<event>
 8    1  0.2514877E-006  0.9118800E+02  0.7816164E-02  0.1184000E+00
        -11   -1    0    0    0    0  0.00000000000E+00  0.00000000000E+00  0.45593999997E+02  0.45594000000E+02  0.51100000000E-03 0.  1.
         11   -1    0    0    0    0 -0.00000000000E+00 -0.00000000000E+00 -0.45593999997E+02  0.45594000000E+02  0.51100000000E-03 0. -1.
         23    2    1    2    0    0  0.00000000000E+00  0.00000000000E+00  0.17208456882E-14  0.91188000000E+02  0.91188000000E+02 0.  0.
    9900012    2    3    3    0    0 -0.33351557665E+02 -0.15598276935E+02  0.38238707444E+00  0.54367097486E+02  0.40000030339E+02 0.  0.
        -12    1    3    3    0    0  0.33351557665E+02  0.15598276935E+02 -0.38238707444E+00  0.36820902514E+02  0.00000000000E+00 0.  1.
         11    1    4    4    0    0 -0.10455289560E+02  0.44615464602E+01  0.12373531216E+02  0.16802462665E+02  0.51100000000E-03 0. -1.
        -11    1    4    4    0    0 -0.14229245176E+02 -0.54546665548E+00 -0.51681304920E+01  0.15148548617E+02  0.51100000000E-03 0.  1.
         12    1    4    4    0    0 -0.86670229291E+01 -0.19514356740E+02 -0.68230136496E+01  0.22416086204E+02  0.00000000000E+00 0. -1.
</event>
<event>
 8    1  0.2514877E-006  0.9118800E+02  0.7816164E-02  0.1184000E+00
        -11   -1    0    0    0    0  0.00000000000E+00  0.00000000000E+00  0.45593999997E+02  0.45594000000E+02  0.51100000000E-03 0. -1.
         11   -1    0    0    0    0 -0.00000000000E+00 -0.00000000000E+00 -0.45593999997E+02  0.45594000000E+02  0.51100000000E-03 0.  1.
         23    2    1    2    0    0  0.00000000000E+00  0.00000000000E+00  0.00000000000E+00  0.91188000000E+02  0.91188000000E+02 0.  0.
    9900012    2    3    3    0    0  0.21770641382E+02 -0.24170914922E+02 -0.17250740804E+02  0.54367054702E+02  0.39999932804E+02 0.  0.
         12    1    3    3    0    0 -0.21770641382E+02  0.24170914922E+02  0.17250740804E+02  0.36820945298E+02  0.00000000000E+00 0. -1.
         11    1    4    4    0    0  0.20628880767E+01 -0.70287619401E+01  0.24548845343E+01  0.77256365411E+01  0.51100000000E-03 0. -1.
        -11    1    4    4    0    0  0.28260802988E+02 -0.17970934634E+02 -0.13842742794E+02  0.36238777649E+02  0.51100000000E-03 0.  1.
        -12    1    4    4    0    0 -0.85530496829E+01  0.82878165190E+00 -0.58628825440E+01  0.10402640512E+02  0.00000000000E+00 0.  1.
</event>
<event>
 8    1  0.2514877E-006  0.9118800E+02  0.7816164E-02  0.1184000E+00
        -11   -1    0    0    0    0  0.00000000000E+00  0.00000000000E+00  0.45593999997E+02  0.45594000000E+02  0.51100000000E-03 0.  1.
         11   -1    0    0    0    0 -0.00000000000E+00 -0.00000000000E+00 -0.45593999997E+02  0.45594000000E+02  0.51100000000E-03 0. -1.
         23    2    1    2    0    0  0.00000000000E+00 -0.35527136788E-14  0.66613381478E-15  0.91188000000E+02  0.91188000000E+02 0.  0.
    9900012    2    3    3    0    0  0.29120712953E+02  0.22499287479E+02 -0.12434921959E+01  0.54367080229E+02  0.39999990998E+02 0.  0.
         12    1    3    3    0    0 -0.29120712953E+02 -0.22499287479E+02  0.12434921959E+01  0.36820919771E+02  0.00000000000E+00 0. -1.
         11    1    4    4    0    0  0.65587694651E+01  0.80301496976E+01 -0.16044577806E+02  0.19103121167E+02  0.51100000000E-03 0. -1.
        -11    1    4    4    0    0  0.24086930341E+02  0.82201634605E+01  0.10533237526E+02  0.27544516580E+02  0.51100000000E-03 0.  1.
        -12    1    4    4    0    0 -0.15249868532E+01  0.62489743209E+01  0.42678480846E+01  0.77194424824E+01  0.00000000000E+00 0.  1.
</event>
<event>
 8    1  0.2514877E-006  0.9118800E+02  0.7816164E-02  0.1184000E+00
        -11   -1    0    0    0    0  0.00000000000E+00  0.00000000000E+00  0.45593999997E+02  0.45594000000E+02  0.51100000000E-03 0.  1.
         11   -1    0    0    0    0 -0.00000000000E+00 -0.00000000000E+00 -0.45593999997E+02  0.45594000000E+02  0.51100000000E-03 0. -1.
         23    2    1    2    0    0  0.00000000000E+00 -0.39968028887E-14  0.35527136788E-14  0.91188000000E+02  0.91188000000E+02 0.  0.
    9900012    2    3    3    0    0  0.32822515971E+02 -0.27099019109E+01  0.16465727243E+02  0.54367064425E+02  0.39999954969E+02 0.  0.
        -12    1    3    3    0    0 -0.32822515971E+02  0.27099019109E+01 -0.16465727243E+02  0.36820935575E+02  0.00000000000E+00 0.  1.
         11    1    4    4    0    0  0.13599234265E+02  0.19226580767E+01  0.47207913099E+01  0.14523142136E+02  0.51100000000E-03 0. -1.
        -11    1    4    4    0    0  0.90177440663E+01  0.14102462475E+02  0.51963451662E+01  0.17527154910E+02  0.51100000000E-03 0.  1.
        -12    1    4    4    0    0  0.10205537640E+02 -0.18735022462E+02  0.65485907666E+01  0.22316767378E+02  0.00000000000E+00 0.  1.
</event>
<event>
 8    1  0.2514877E-006  0.9118800E+02  0.7816164E-02  0.1184000E+00
        -11   -1    0    0    0    0  0.00000000000E+00  0.00000000000E+00  0.45593999997E+02  0.45594000000E+02  0.51100000000E-03 0. -1.
         11   -1    0    0    0    0 -0.00000000000E+00 -0.00000000000E+00 -0.45593999997E+02  0.45594000000E+02  0.51100000000E-03 0.  1.
         23    2    1    2    0    0 -0.19151347175E-14 -0.71054273576E-14  0.35527136788E-14  0.91188000000E+02  0.91188000000E+02 0.  0.
    9900012    2    3    3    0    0  0.65780600824E-01 -0.19932653057E+02  0.30959082845E+02  0.54367084808E+02  0.40000001437E+02 0.  0.
        -12    1    3    3    0    0 -0.65780600824E-01  0.19932653057E+02 -0.30959082845E+02  0.36820915192E+02  0.00000000000E+00 0.  1.
         11    1    4    4    0    0  0.38210845518E-01 -0.21450201993E+02  0.29678620562E+02  0.36618753997E+02  0.51100000000E-03 0. -1.
        -11    1    4    4    0    0 -0.87539454613E+01  0.16319274743E+01  0.10106328572E+01  0.89619265481E+01  0.51100000000E-03 0.  1.
        -12    1    4    4    0    0  0.87815152166E+01 -0.11437853866E+00  0.26982942626E+00  0.87864042628E+01  0.00000000000E+00 0.  1.
</event>
<event>
 8    1  0.2514877E-006  0.9118800E+02  0.7816164E-02  0.1184000E+00
        -11   -1    0    0    0    0  0.00000000000E+00  0.00000000000E+00  0.45593999997E+02  0.45594000000E+02  0.51100000000E-03 0.  1.
         11   -1    0    0    0    0 -0.00000000000E+00 -0.00000000000E+00 -0.45593999997E+02  0.45594000000E+02  0.51100000000E-03 0. -1.
         23    2    1    2    0    0  0.71054273576E-14  0.00000000000E+00  0.13322676296E-14  0.91188000000E+02  0.91188000000E+02 0.  0.
    9900012    2    3    3    0    0  0.33876325141E+02  0.14206735640E+02 -0.25184995371E+01  0.54367087701E+02  0.40000008031E+02 0.  0.
         12    1    3    3    0    0 -0.33876325141E+02 -0.14206735640E+02  0.25184995371E+01  0.36820912299E+02  0.00000000000E+00 0. -1.
         11    1    4    4    0    0  0.10686989517E+02 -0.41496303090E+01  0.10261383103E+02  0.15385940338E+02  0.51100000000E-03 0.  1.
        -11    1    4    4    0    0  0.84949266775E+00  0.82982877558E+01 -0.11814386321E+02  0.14462466660E+02  0.51100000000E-03 0. -1.
         12    1    4    4    0    0  0.22339842956E+02  0.10058078193E+02 -0.96549631901E+00  0.24518680703E+02  0.00000000000E+00 0. -1.
</event>
<event>
 8    1  0.2514877E-006  0.9118800E+02  0.7816164E-02  0.1184000E+00
        -11   -1    0    0    0    0  0.00000000000E+00  0.00000000000E+00  0.45593999997E+02  0.45594000000E+02  0.51100000000E-03 0.  1.
         11   -1    0    0    0    0 -0.00000000000E+00 -0.00000000000E+00 -0.45593999997E+02  0.45594000000E+02  0.51100000000E-03 0. -1.
         23    2    1    2    0    0 -0.35527136788E-14  0.35527136788E-14  0.35527136788E-14  0.91188000000E+02  0.91188000000E+02 0.  0.
    9900012    2    3    3    0    0 -0.17520679941E+02  0.18389791840E+02  0.26657487786E+02  0.54367077625E+02  0.39999985062E+02 0.  0.
         12    1    3    3    0    0  0.17520679941E+02 -0.18389791840E+02 -0.26657487786E+02  0.36820922375E+02  0.00000000000E+00 0. -1.
         11    1    4    4    0    0  0.21575810064E+01 -0.29683457823E+01 -0.45422502583E+01  0.58393724109E+01  0.51100000000E-03 0. -1.
        -11    1    4    4    0    0 -0.40322405244E+01  0.20989215353E+02  0.20110371100E+02  0.29346774113E+02  0.51100000000E-03 0.  1.
         12    1    4    4    0    0 -0.15646020423E+02  0.36892226893E+00  0.11089366944E+02  0.19180931102E+02  0.00000000000E+00 0. -1.
</event>
<event>
 8    1  0.2514877E-006  0.9118800E+02  0.7816164E-02  0.1184000E+00
        -11   -1    0    0    0    0  0.00000000000E+00  0.00000000000E+00  0.45593999997E+02  0.45594000000E+02  0.51100000000E-03 0.  1.
         11   -1    0    0    0    0 -0.00000000000E+00 -0.00000000000E+00 -0.45593999997E+02  0.45594000000E+02  0.51100000000E-03 0. -1.
         23    2    1    2    0    0  0.00000000000E+00 -0.44408920985E-15  0.17763568394E-14  0.91188000000E+02  0.91188000000E+02 0.  0.
    9900012    2    3    3    0    0  0.33675631143E+02  0.26095097345E+01 -0.14660430825E+02  0.54367001834E+02  0.39999812281E+02 0.  0.
        -12    1    3    3    0    0 -0.33675631143E+02 -0.26095097345E+01  0.14660430825E+02  0.36820998166E+02  0.00000000000E+00 0.  1.
         11    1    4    4    0    0  0.15576871792E+02 -0.74846695164E+01 -0.15169384775E+02  0.22994987439E+02  0.51100000000E-03 0. -1.
        -11    1    4    4    0    0  0.12198326170E+02  0.29856257517E+01 -0.10943753243E+02  0.16657696653E+02  0.51100000000E-03 0.  1.
        -12    1    4    4    0    0  0.59004331813E+01  0.71085534993E+01  0.11452707193E+02  0.14714317742E+02  0.00000000000E+00 0.  1.
</event>
<event>
 8    1  0.2514877E-006  0.9118800E+02  0.7816164E-02  0.1184000E+00
        -11   -1    0    0    0    0  0.00000000000E+00  0.00000000000E+00  0.45593999997E+02  0.45594000000E+02  0.51100000000E-03 0.  1.
         11   -1    0    0    0    0 -0.00000000000E+00 -0.00000000000E+00 -0.45593999997E+02  0.45594000000E+02  0.51100000000E-03 0. -1.
         23    2    1    2    0    0  0.00000000000E+00  0.00000000000E+00  0.35527136788E-14  0.91188000000E+02  0.91188000000E+02 0.  0.
    9900012    2    3    3    0    0  0.90761366496E+01  0.25254340858E+02 -0.25211544681E+02  0.54367082387E+02  0.39999995918E+02 0.  0.
        -12    1    3    3    0    0 -0.90761366496E+01 -0.25254340858E+02  0.25211544681E+02  0.36820917613E+02  0.00000000000E+00 0.  1.
         11    1    4    4    0    0  0.12536178421E+02  0.17161387009E+01 -0.20884239824E+01  0.12824290095E+02  0.51100000000E-03 0. -1.
        -11    1    4    4    0    0  0.10765433770E+02  0.87647602056E+01 -0.11058297287E+02  0.17748282308E+02  0.51100000000E-03 0.  1.
        -12    1    4    4    0    0 -0.14225475542E+02  0.14773441951E+02 -0.12064823411E+02  0.23794509985E+02  0.00000000000E+00 0.  1.
</event>
<event>
 8    1  0.2514877E-006  0.9118800E+02  0.7816164E-02  0.1184000E+00
        -11   -1    0    0    0    0  0.00000000000E+00  0.00000000000E+00  0.45593999997E+02  0.45594000000E+02  0.51100000000E-03 0. -1.
         11   -1    0    0    0    0 -0.00000000000E+00 -0.00000000000E+00 -0.45593999997E+02  0.45594000000E+02  0.51100000000E-03 0.  1.
         23    2    1    2    0    0  0.00000000000E+00  0.17763568394E-14  0.00000000000E+00  0.91188000000E+02  0.91188000000E+02 0.  0.
    9900012    2    3    3    0    0 -0.29045149099E+02  0.11135555227E+02 -0.19701742448E+02  0.54367082957E+02  0.39999997217E+02 0.  0.
         12    1    3    3    0    0  0.29045149099E+02 -0.11135555227E+02  0.19701742448E+02  0.36820917043E+02  0.00000000000E+00 0. -1.
         11    1    4    4    0    0  0.57058659777E+01  0.76732926614E+01 -0.95421617211E+01  0.13508855518E+02  0.51100000000E-03 0. -1.
        -11    1    4    4    0    0  0.92487552179E+00  0.28323404834E+01 -0.34375782844E+01  0.45491199223E+01  0.51100000000E-03 0.  1.
         12    1    4    4    0    0 -0.35675890599E+02  0.62992208267E+00 -0.67220024424E+01  0.36309107517E+02  0.00000000000E+00 0. -1.
</event>
<event>
 8    1  0.2514877E-006  0.9118800E+02  0.7816164E-02  0.1184000E+00
        -11   -1    0    0    0    0  0.00000000000E+00  0.00000000000E+00  0.45593999997E+02  0.45594000000E+02  0.51100000000E-03 0. -1.
         11   -1    0    0    0    0 -0.00000000000E+00 -0.00000000000E+00 -0.45593999997E+02  0.45594000000E+02  0.51100000000E-03 0.  1.
         23    2    1    2    0    0 -0.35527136788E-14  0.00000000000E+00  0.00000000000E+00  0.91188000000E+02  0.91188000000E+02 0.  0.
    9900012    2    3    3    0    0  0.25980184458E+02  0.92279787601E+01 -0.24406037995E+02  0.54367078405E+02  0.39999986841E+02 0.  0.
         12    1    3    3    0    0 -0.25980184458E+02 -0.92279787601E+01  0.24406037995E+02  0.36820921595E+02  0.00000000000E+00 0. -1.
         11    1    4    4    0    0 -0.73209894263E+01  0.45904538243E+01 -0.14419423505E+02  0.16810381523E+02  0.51100000000E-03 0. -1.
        -11    1    4    4    0    0  0.17968824445E+02  0.55143559235E+01 -0.11643570216E+02  0.22110167362E+02  0.51100000000E-03 0.  1.
         12    1    4    4    0    0  0.15332349440E+02 -0.87683098773E+00  0.16569557250E+01  0.15446529520E+02  0.00000000000E+00 0. -1.
</event>
<event>
 8    1  0.2514877E-006  0.9118800E+02  0.7816164E-02  0.1184000E+00
        -11   -1    0    0    0    0  0.00000000000E+00  0.00000000000E+00  0.45593999997E+02  0.45594000000E+02  0.51100000000E-03 0.  1.
         11   -1    0    0    0    0 -0.00000000000E+00 -0.00000000000E+00 -0.45593999997E+02  0.45594000000E+02  0.51100000000E-03 0. -1.
         23    2    1    2    0    0 -0.44408920985E-15 -0.44408920985E-15  0.71054273576E-14  0.91188000000E+02  0.91188000000E+02 0.  0.
    9900012    2    3    3    0    0 -0.38780870844E+01 -0.33010396271E+01  0.36467016844E+02  0.54367085569E+02  0.40000003171E+02 0.  0.
         12    1    3    3    0    0  0.38780870844E+01  0.33010396271E+01 -0.36467016844E+02  0.36820914431E+02  0.00000000000E+00 0. -1.
         11    1    4    4    0    0 -0.29170658198E+01 -0.29695575793E+01  0.21916583860E+02  0.22308388413E+02  0.51100000000E-03 0. -1.
        -11    1    4    4    0    0  0.35227320311E+01 -0.18208702413E+01  0.22480657723E+02  0.22827728343E+02  0.51100000000E-03 0.  1.
         12    1    4    4    0    0 -0.44837532957E+01  0.14893881935E+01 -0.79302247390E+01  0.92309688126E+01  0.00000000000E+00 0. -1.
</event>
<event>
 8    1  0.2514877E-006  0.9118800E+02  0.7816164E-02  0.1184000E+00
        -11   -1    0    0    0    0  0.00000000000E+00  0.00000000000E+00  0.45593999997E+02  0.45594000000E+02  0.51100000000E-03 0.  1.
         11   -1    0    0    0    0 -0.00000000000E+00 -0.00000000000E+00 -0.45593999997E+02  0.45594000000E+02  0.51100000000E-03 0. -1.
         23    2    1    2    0    0  0.00000000000E+00  0.00000000000E+00 -0.35527136788E-14  0.91188000000E+02  0.91188000000E+02 0.  0.
    9900012    2    3    3    0    0  0.17579090069E+02  0.76722504429E+01  0.31430748766E+02  0.54367084714E+02  0.40000001222E+02 0.  0.
         12    1    3    3    0    0 -0.17579090069E+02 -0.76722504429E+01 -0.31430748766E+02  0.36820915286E+02  0.00000000000E+00 0. -1.
         11    1    4    4    0    0  0.79561546860E+01  0.53946356680E+01  0.13458925527E+02  0.16539200948E+02  0.51100000000E-03 0. -1.
        -11    1    4    4    0    0  0.20675241341E+01 -0.90973336345E+01  0.21744021760E+02  0.23660909067E+02  0.51100000000E-03 0.  1.
         12    1    4    4    0    0  0.75554112487E+01  0.11374948409E+02 -0.37721985212E+01  0.14166974700E+02  0.00000000000E+00 0. -1.
</event>
<event>
 8    1  0.2514877E-006  0.9118800E+02  0.7816164E-02  0.1184000E+00
        -11   -1    0    0    0    0  0.00000000000E+00  0.00000000000E+00  0.45593999997E+02  0.45594000000E+02  0.51100000000E-03 0. -1.
         11   -1    0    0    0    0 -0.00000000000E+00 -0.00000000000E+00 -0.45593999997E+02  0.45594000000E+02  0.51100000000E-03 0.  1.
         23    2    1    2    0    0 -0.17763568394E-14  0.35527136788E-14 -0.35527136788E-14  0.91188000000E+02  0.91188000000E+02 0.  0.
    9900012    2    3    3    0    0 -0.12995388614E+02  0.21305502448E+02 -0.27073188090E+02  0.54367325466E+02  0.40000550061E+02 0.  0.
         12    1    3    3    0    0  0.12995388614E+02 -0.21305502448E+02  0.27073188090E+02  0.36820674534E+02  0.00000000000E+00 0. -1.
         11    1    4    4    0    0  0.15465949076E+01  0.19888633461E+01  0.31291564342E+01  0.40173565275E+01  0.51100000000E-03 0. -1.
        -11    1    4    4    0    0  0.12429717194E+01 -0.66421653609E+01 -0.14838686108E+02  0.16304905552E+02  0.51100000000E-03 0.  1.
        -12    1    4    4    0    0 -0.15784955241E+02  0.25958804463E+02 -0.15363658416E+02  0.34045063387E+02  0.00000000000E+00 0.  1.
</event>
<event>
 8    1  0.2514877E-006  0.9118800E+02  0.7816164E-02  0.1184000E+00
        -11   -1    0    0    0    0  0.00000000000E+00  0.00000000000E+00  0.45593999997E+02  0.45594000000E+02  0.51100000000E-03 0.  1.
         11   -1    0    0    0    0 -0.00000000000E+00 -0.00000000000E+00 -0.45593999997E+02  0.45594000000E+02  0.51100000000E-03 0. -1.
         23    2    1    2    0    0  0.17763568394E-14  0.00000000000E+00  0.88817841970E-15  0.91188000000E+02  0.91188000000E+02 0.  0.
    9900012    2    3    3    0    0  0.10160565766E+02 -0.34740955686E+02  0.67538353583E+01  0.54367008830E+02  0.39999828230E+02 0.  0.
         12    1    3    3    0    0 -0.10160565766E+02  0.34740955686E+02 -0.67538353583E+01  0.36820991170E+02  0.00000000000E+00 0. -1.
         11    1    4    4    0    0  0.14957204454E+02 -0.20145028345E+02  0.73098949358E+01  0.26133784578E+02  0.51100000000E-03 0. -1.
        -11    1    4    4    0    0  0.75703123287E+01 -0.10740590118E+02  0.51038218689E+01  0.14096769232E+02  0.51100000000E-03 0.  1.
         12    1    4    4    0    0 -0.12366951017E+02 -0.38553372225E+01 -0.56598814464E+01  0.14136455021E+02  0.00000000000E+00 0. -1.
</event>
<event>
 8    1  0.2514877E-006  0.9118800E+02  0.7816164E-02  0.1184000E+00
        -11   -1    0    0    0    0  0.00000000000E+00  0.00000000000E+00  0.45593999997E+02  0.45594000000E+02  0.51100000000E-03 0.  1.
         11   -1    0    0    0    0 -0.00000000000E+00 -0.00000000000E+00 -0.45593999997E+02  0.45594000000E+02  0.51100000000E-03 0. -1.
         23    2    1    2    0    0  0.35527136788E-14 -0.35527136788E-14  0.00000000000E+00  0.91188000000E+02  0.91188000000E+02 0.  0.
    9900012    2    3    3    0    0  0.27805813877E+02  0.17530520954E+02 -0.16592092491E+02  0.54367082256E+02  0.39999995620E+02 0.  0.
        -12    1    3    3    0    0 -0.27805813877E+02 -0.17530520954E+02  0.16592092491E+02  0.36820917744E+02  0.00000000000E+00 0.  1.
         11    1    4    4    0    0 -0.41126479343E+01  0.63861358683E+01  0.50807389940E+00  0.76128013049E+01  0.51100000000E-03 0.  1.
        -11    1    4    4    0    0  0.24606800602E+02  0.19952680895E+02 -0.97336080983E+01  0.33141322207E+02  0.51100000000E-03 0. -1.
         12    1    4    4    0    0  0.73116612093E+01 -0.88082958094E+01 -0.73665582920E+01  0.13612958744E+02  0.00000000000E+00 0. -1.
</event>
<event>
 8    1  0.2514877E-006  0.9118800E+02  0.7816164E-02  0.1184000E+00
        -11   -1    0    0    0    0  0.00000000000E+00  0.00000000000E+00  0.45593999997E+02  0.45594000000E+02  0.51100000000E-03 0.  1.
         11   -1    0    0    0    0 -0.00000000000E+00 -0.00000000000E+00 -0.45593999997E+02  0.45594000000E+02  0.51100000000E-03 0. -1.
         23    2    1    2    0    0  0.00000000000E+00  0.00000000000E+00  0.00000000000E+00  0.91188000000E+02  0.91188000000E+02 0.  0.
    9900012    2    3    3    0    0  0.16241884964E+02 -0.82869742558E+01  0.31989107489E+02  0.54367139508E+02  0.40000126135E+02 0.  0.
         12    1    3    3    0    0 -0.16241884964E+02  0.82869742558E+01 -0.31989107489E+02  0.36820860492E+02  0.00000000000E+00 0. -1.
         11    1    4    4    0    0  0.11386664789E+02  0.57756921864E+01  0.77250423625E+01  0.14922836025E+02  0.51100000000E-03 0.  1.
        -11    1    4    4    0    0  0.14183756100E+02 -0.36801480596E+01  0.46551473132E+01  0.15375071499E+02  0.51100000000E-03 0. -1.
        -12    1    4    4    0    0 -0.93285359257E+01 -0.10382518383E+02  0.19608917813E+02  0.24069231983E+02  0.00000000000E+00 0.  1.
</event>
<event>
 8    1  0.2514877E-006  0.9118800E+02  0.7816164E-02  0.1184000E+00
        -11   -1    0    0    0    0  0.00000000000E+00  0.00000000000E+00  0.45593999997E+02  0.45594000000E+02  0.51100000000E-03 0.  1.
         11   -1    0    0    0    0 -0.00000000000E+00 -0.00000000000E+00 -0.45593999997E+02  0.45594000000E+02  0.51100000000E-03 0. -1.
         23    2    1    2    0    0  0.35527136788E-14  0.00000000000E+00  0.00000000000E+00  0.91188000000E+02  0.91188000000E+02 0.  0.
    9900012    2    3    3    0    0 -0.19354551403E+02  0.22724686159E+02  0.21558501695E+02  0.54367095388E+02  0.40000025557E+02 0.  0.
         12    1    3    3    0    0  0.19354551403E+02 -0.22724686159E+02 -0.21558501695E+02  0.36820904612E+02  0.00000000000E+00 0. -1.
         11    1    4    4    0    0 -0.35331167096E+00  0.11344983862E+02 -0.55248043767E+00  0.11363921984E+02  0.51100000000E-03 0. -1.
        -11    1    4    4    0    0 -0.21699475572E+02  0.17758103979E+02  0.22666425875E+02  0.36055295856E+02  0.51100000000E-03 0.  1.
         12    1    4    4    0    0  0.26982358397E+01 -0.63784016826E+01 -0.55544374218E+00  0.69478775480E+01  0.00000000000E+00 0. -1.
</event>
<event>
 8    1  0.2514877E-006  0.9118800E+02  0.7816164E-02  0.1184000E+00
        -11   -1    0    0    0    0  0.00000000000E+00  0.00000000000E+00  0.45593999997E+02  0.45594000000E+02  0.51100000000E-03 0.  1.
         11   -1    0    0    0    0 -0.00000000000E+00 -0.00000000000E+00 -0.45593999997E+02  0.45594000000E+02  0.51100000000E-03 0. -1.
         23    2    1    2    0    0  0.00000000000E+00  0.00000000000E+00  0.17763568394E-14  0.91188000000E+02  0.91188000000E+02 0.  0.
    9900012    2    3    3    0    0 -0.16826074950E+02  0.30384178925E+02 -0.12225565054E+02  0.54367087898E+02  0.40000008480E+02 0.  0.
        -12    1    3    3    0    0  0.16826074950E+02 -0.30384178925E+02  0.12225565054E+02  0.36820912102E+02  0.00000000000E+00 0.  1.
         11    1    4    4    0    0 -0.19430514342E+02  0.11975247534E+02 -0.11233510383E+02  0.25439009353E+02  0.51100000000E-03 0. -1.
        -11    1    4    4    0    0  0.51854265383E+01  0.54804297339E+01 -0.10315946568E+02  0.12780552113E+02  0.51100000000E-03 0.  1.
        -12    1    4    4    0    0 -0.25809871459E+01  0.12928501657E+02  0.93238918970E+01  0.16147526431E+02  0.00000000000E+00 0.  1.
</event>
<event>
 8    1  0.2514877E-006  0.9118800E+02  0.7816164E-02  0.1184000E+00
        -11   -1    0    0    0    0  0.00000000000E+00  0.00000000000E+00  0.45593999997E+02  0.45594000000E+02  0.51100000000E-03 0.  1.
         11   -1    0    0    0    0 -0.00000000000E+00 -0.00000000000E+00 -0.45593999997E+02  0.45594000000E+02  0.51100000000E-03 0. -1.
         23    2    1    2    0    0  0.00000000000E+00 -0.35527136788E-14  0.13322676296E-14  0.91188000000E+02  0.91188000000E+02 0.  0.
    9900012    2    3    3    0    0  0.32715611857E+02 -0.16858706397E+02 -0.11195497420E+01  0.54367073448E+02  0.39999975540E+02 0.  0.
         12    1    3    3    0    0 -0.32715611857E+02  0.16858706397E+02  0.11195497420E+01  0.36820926552E+02  0.00000000000E+00 0. -1.
         11    1    4    4    0    0  0.88096103641E+01  0.40185328005E+01 -0.14176514184E+02  0.17167742871E+02  0.51100000000E-03 0. -1.
        -11    1    4    4    0    0  0.44767639030E+01 -0.16579874723E+01 -0.28677989372E+01  0.55690760909E+01  0.51100000000E-03 0.  1.
        -12    1    4    4    0    0  0.19429237589E+02 -0.19219251725E+02  0.15924763379E+02  0.31630254486E+02  0.00000000000E+00 0.  1.
</event>
<event>
 8    1  0.2514877E-006  0.9118800E+02  0.7816164E-02  0.1184000E+00
        -11   -1    0    0    0    0  0.00000000000E+00  0.00000000000E+00  0.45593999997E+02  0.45594000000E+02  0.51100000000E-03 0. -1.
         11   -1    0    0    0    0 -0.00000000000E+00 -0.00000000000E+00 -0.45593999997E+02  0.45594000000E+02  0.51100000000E-03 0.  1.
         23    2    1    2    0    0  0.00000000000E+00  0.99920072216E-15  0.71054273576E-14  0.91188000000E+02  0.91188000000E+02 0.  0.
    9900012    2    3    3    0    0 -0.21828312205E+02  0.84977533482E+00  0.29640892854E+02  0.54367083919E+02  0.39999999410E+02 0.  0.
        -12    1    3    3    0    0  0.21828312205E+02 -0.84977533482E+00 -0.29640892854E+02  0.36820916081E+02  0.00000000000E+00 0.  1.
         11    1    4    4    0    0 -0.14365589998E+02 -0.41624101853E+01  0.21896638841E+02  0.26517138370E+02  0.51100000000E-03 0. -1.
        -11    1    4    4    0    0 -0.39189679546E+01 -0.10271007613E+02  0.41827163982E+01  0.11762101171E+02  0.51100000000E-03 0.  1.
        -12    1    4    4    0    0 -0.35437542522E+01  0.15283193134E+02  0.35615376151E+01  0.16087844378E+02  0.00000000000E+00 0.  1.
</event>
<event>
 8    1  0.2514877E-006  0.9118800E+02  0.7816164E-02  0.1184000E+00
        -11   -1    0    0    0    0  0.00000000000E+00  0.00000000000E+00  0.45593999997E+02  0.45594000000E+02  0.51100000000E-03 0. -1.
         11   -1    0    0    0    0 -0.00000000000E+00 -0.00000000000E+00 -0.45593999997E+02  0.45594000000E+02  0.51100000000E-03 0.  1.
         23    2    1    2    0    0 -0.17763568394E-14  0.17763568394E-14  0.00000000000E+00  0.91188000000E+02  0.91188000000E+02 0.  0.
    9900012    2    3    3    0    0 -0.11509034622E+02  0.49564798107E+01 -0.34623010551E+02  0.54367116935E+02  0.40000074676E+02 0.  0.
         12    1    3    3    0    0  0.11509034622E+02 -0.49564798107E+01  0.34623010551E+02  0.36820883065E+02  0.00000000000E+00 0. -1.
         11    1    4    4    0    0  0.53898350417E+01 -0.28764225154E+00  0.48051602736E+00  0.54188518853E+01  0.51100000000E-03 0. -1.
        -11    1    4    4    0    0 -0.39842161732E+01  0.15692271222E+02 -0.24061661096E+02  0.29001463576E+02  0.51100000000E-03 0.  1.
         12    1    4    4    0    0 -0.12914653491E+02 -0.10448149160E+02 -0.11041865483E+02  0.19946801473E+02  0.00000000000E+00 0. -1.
</event>
<event>
 8    1  0.2514877E-006  0.9118800E+02  0.7816164E-02  0.1184000E+00
        -11   -1    0    0    0    0  0.00000000000E+00  0.00000000000E+00  0.45593999997E+02  0.45594000000E+02  0.51100000000E-03 0.  1.
         11   -1    0    0    0    0 -0.00000000000E+00 -0.00000000000E+00 -0.45593999997E+02  0.45594000000E+02  0.51100000000E-03 0. -1.
         23    2    1    2    0    0 -0.17763568394E-14  0.00000000000E+00 -0.17763568394E-14  0.91188000000E+02  0.91188000000E+02 0.  0.
    9900012    2    3    3    0    0 -0.11906877637E+02  0.33345426711E+02 -0.10103973911E+02  0.54367061576E+02  0.39999948476E+02 0.  0.
        -12    1    3    3    0    0  0.11906877637E+02 -0.33345426711E+02  0.10103973911E+02  0.36820938424E+02  0.00000000000E+00 0.  1.
         11    1    4    4    0    0  0.61246767063E+01 -0.28714004761E+01 -0.38739946615E+01  0.77951549279E+01  0.51100000000E-03 0. -1.
        -11    1    4    4    0    0 -0.11227907908E+02  0.23244507339E+02  0.70931475056E+01  0.26770987640E+02  0.51100000000E-03 0.  1.
        -12    1    4    4    0    0 -0.68036464360E+01  0.12972319848E+02 -0.13323126755E+02  0.19800919009E+02  0.00000000000E+00 0.  1.
</event>
<event>
 8    1  0.2514877E-006  0.9118800E+02  0.7816164E-02  0.1184000E+00
        -11   -1    0    0    0    0  0.00000000000E+00  0.00000000000E+00  0.45593999997E+02  0.45594000000E+02  0.51100000000E-03 0.  1.
         11   -1    0    0    0    0 -0.00000000000E+00 -0.00000000000E+00 -0.45593999997E+02  0.45594000000E+02  0.51100000000E-03 0. -1.
         23    2    1    2    0    0  0.00000000000E+00 -0.35527136788E-14 -0.35527136788E-14  0.91188000000E+02  0.91188000000E+02 0.  0.
    9900012    2    3    3    0    0  0.84292282937E+01 -0.22838295387E+02 -0.27624997132E+02  0.54367080778E+02  0.39999992249E+02 0.  0.
        -12    1    3    3    0    0 -0.84292282937E+01  0.22838295387E+02  0.27624997132E+02  0.36820919222E+02  0.00000000000E+00 0.  1.
         11    1    4    4    0    0  0.10680901159E+02 -0.46632112344E+00 -0.18597136676E+01  0.10851619241E+02  0.51100000000E-03 0. -1.
        -11    1    4    4    0    0 -0.29693480375E+01  0.21471224798E+01 -0.17118766698E+02  0.17506551238E+02  0.51100000000E-03 0.  1.
        -12    1    4    4    0    0  0.71767517194E+00 -0.24519096743E+02 -0.86465167664E+01  0.26008910299E+02  0.00000000000E+00 0.  1.
</event>
<event>
 8    1  0.2514877E-006  0.9118800E+02  0.7816164E-02  0.1184000E+00
        -11   -1    0    0    0    0  0.00000000000E+00  0.00000000000E+00  0.45593999997E+02  0.45594000000E+02  0.51100000000E-03 0.  1.
         11   -1    0    0    0    0 -0.00000000000E+00 -0.00000000000E+00 -0.45593999997E+02  0.45594000000E+02  0.51100000000E-03 0. -1.
         23    2    1    2    0    0  0.00000000000E+00  0.00000000000E+00  0.00000000000E+00  0.91188000000E+02  0.91188000000E+02 0.  0.
    9900012    2    3    3    0    0 -0.19326448012E+02 -0.66891994616E+01 -0.30619036150E+02  0.54367050026E+02  0.39999922145E+02 0.  0.
        -12    1    3    3    0    0  0.19326448012E+02  0.66891994616E+01  0.30619036150E+02  0.36820949974E+02  0.00000000000E+00 0.  1.
         11    1    4    4    0    0 -0.15967990610E+02 -0.83356123418E+01 -0.30288284364E+02  0.35239740737E+02  0.51100000000E-03 0. -1.
        -11    1    4    4    0    0 -0.82190762893E+01  0.64539222040E+01 -0.42106236107E+01  0.11266573495E+02  0.51100000000E-03 0.  1.
         12    1    4    4    0    0  0.48606188868E+01 -0.48075093239E+01  0.38798718244E+01  0.78607357948E+01  0.00000000000E+00 0. -1.
</event>
<event>
 8    1  0.2514877E-006  0.9118800E+02  0.7816164E-02  0.1184000E+00
        -11   -1    0    0    0    0  0.00000000000E+00  0.00000000000E+00  0.45593999997E+02  0.45594000000E+02  0.51100000000E-03 0.  1.
         11   -1    0    0    0    0 -0.00000000000E+00 -0.00000000000E+00 -0.45593999997E+02  0.45594000000E+02  0.51100000000E-03 0. -1.
         23    2    1    2    0    0  0.17763568394E-14 -0.88817841970E-15 -0.71054273576E-14  0.91188000000E+02  0.91188000000E+02 0.  0.
    9900012    2    3    3    0    0  0.98837094685E+01 -0.43524680958E+01 -0.35201526479E+02  0.54367093468E+02  0.40000021179E+02 0.  0.
        -12    1    3    3    0    0 -0.98837094685E+01  0.43524680958E+01  0.35201526479E+02  0.36820906532E+02  0.00000000000E+00 0.  1.
         11    1    4    4    0    0 -0.11178137818E+01 -0.12186963126E+02 -0.23282513439E+02  0.26302984815E+02  0.51100000000E-03 0. -1.
        -11    1    4    4    0    0 -0.16354795387E+01  0.83830100602E+00 -0.13416964829E+02  0.13542248239E+02  0.51100000000E-03 0.  1.
        -12    1    4    4    0    0  0.12637002789E+02  0.69961940242E+01  0.14979517889E+01  0.14521860414E+02  0.00000000000E+00 0.  1.
</event>
<event>
 8    1  0.2514877E-006  0.9118800E+02  0.7816164E-02  0.1184000E+00
        -11   -1    0    0    0    0  0.00000000000E+00  0.00000000000E+00  0.45593999997E+02  0.45594000000E+02  0.51100000000E-03 0.  1.
         11   -1    0    0    0    0 -0.00000000000E+00 -0.00000000000E+00 -0.45593999997E+02  0.45594000000E+02  0.51100000000E-03 0. -1.
         23    2    1    2    0    0  0.00000000000E+00  0.00000000000E+00  0.00000000000E+00  0.91188000000E+02  0.91188000000E+02 0.  0.
    9900012    2    3    3    0    0  0.42473014526E+01  0.31146030666E+02 -0.19174594367E+02  0.54367083865E+02  0.39999999288E+02 0.  0.
        -12    1    3    3    0    0 -0.42473014526E+01 -0.31146030666E+02  0.19174594367E+02  0.36820916135E+02  0.00000000000E+00 0.  1.
         11    1    4    4    0    0 -0.12921810728E+01  0.32672631307E+01  0.66212957163E+01  0.74957519646E+01  0.51100000000E-03 0.  1.
        -11    1    4    4    0    0 -0.16692708351E+01 -0.41550742953E+01  0.88310774631E+00  0.45640976187E+01  0.51100000000E-03 0. -1.
         12    1    4    4    0    0  0.72087533604E+01  0.32033841830E+02 -0.26678997830E+02  0.42307234282E+02  0.00000000000E+00 0. -1.
</event>
<event>
 8    1  0.2514877E-006  0.9118800E+02  0.7816164E-02  0.1184000E+00
        -11   -1    0    0    0    0  0.00000000000E+00  0.00000000000E+00  0.45593999997E+02  0.45594000000E+02  0.51100000000E-03 0.  1.
         11   -1    0    0    0    0 -0.00000000000E+00 -0.00000000000E+00 -0.45593999997E+02  0.45594000000E+02  0.51100000000E-03 0. -1.
         23    2    1    2    0    0  0.17763568394E-14  0.00000000000E+00  0.00000000000E+00  0.91188000000E+02  0.91188000000E+02 0.  0.
    9900012    2    3    3    0    0 -0.12844610567E+02  0.29924299943E+02 -0.17185286452E+02  0.54367057343E+02  0.39999938825E+02 0.  0.
        -12    1    3    3    0    0  0.12844610567E+02 -0.29924299943E+02  0.17185286452E+02  0.36820942657E+02  0.00000000000E+00 0.  1.
         11    1    4    4    0    0 -0.15505308258E+02  0.67479359649E+01 -0.84112409750E+01  0.18886455437E+02  0.51100000000E-03 0. -1.
        -11    1    4    4    0    0  0.91699516376E+01  0.13258903820E+02 -0.15054969599E+02  0.22057621210E+02  0.51100000000E-03 0.  1.
         12    1    4    4    0    0 -0.65092539465E+01  0.99174601584E+01  0.62809241225E+01  0.13422980696E+02  0.00000000000E+00 0. -1.
</event>
<event>
 8    1  0.2514877E-006  0.9118800E+02  0.7816164E-02  0.1184000E+00
        -11   -1    0    0    0    0  0.00000000000E+00  0.00000000000E+00  0.45593999997E+02  0.45594000000E+02  0.51100000000E-03 0. -1.
         11   -1    0    0    0    0 -0.00000000000E+00 -0.00000000000E+00 -0.45593999997E+02  0.45594000000E+02  0.51100000000E-03 0.  1.
         23    2    1    2    0    0 -0.35527136788E-14  0.71054273576E-14  0.88817841970E-15  0.91188000000E+02  0.91188000000E+02 0.  0.
    9900012    2    3    3    0    0  0.10533125405E+02 -0.35190257347E+02  0.25469364287E+01  0.54366975733E+02  0.39999752777E+02 0.  0.
         12    1    3    3    0    0 -0.10533125405E+02  0.35190257347E+02 -0.25469364287E+01  0.36821024267E+02  0.00000000000E+00 0. -1.
         11    1    4    4    0    0 -0.26789740116E+01  0.96015445917E+00  0.27318706459E+01  0.39448594180E+01  0.51100000000E-03 0. -1.
        -11    1    4    4    0    0 -0.57734665894E+01 -0.13748547887E+02  0.11486558304E+02  0.18822765668E+02  0.51100000000E-03 0.  1.
        -12    1    4    4    0    0  0.18985566006E+02 -0.22401863919E+02 -0.11671492521E+02  0.31599350647E+02  0.00000000000E+00 0.  1.
</event>
<event>
 8    1  0.2514877E-006  0.9118800E+02  0.7816164E-02  0.1184000E+00
        -11   -1    0    0    0    0  0.00000000000E+00  0.00000000000E+00  0.45593999997E+02  0.45594000000E+02  0.51100000000E-03 0.  1.
         11   -1    0    0    0    0 -0.00000000000E+00 -0.00000000000E+00 -0.45593999997E+02  0.45594000000E+02  0.51100000000E-03 0. -1.
         23    2    1    2    0    0 -0.77715611724E-15  0.00000000000E+00  0.00000000000E+00  0.91188000000E+02  0.91188000000E+02 0.  0.
    9900012    2    3    3    0    0  0.36030139745E+00  0.10800222111E+02  0.35199511701E+02  0.54367078791E+02  0.39999987719E+02 0.  0.
         12    1    3    3    0    0 -0.36030139745E+00 -0.10800222111E+02 -0.35199511701E+02  0.36820921209E+02  0.00000000000E+00 0. -1.
         11    1    4    4    0    0 -0.32176874547E+01  0.10911722017E+02  0.31301607171E+01  0.11799029465E+02  0.51100000000E-03 0. -1.
        -11    1    4    4    0    0 -0.82270294510E+01  0.22251788980E+01  0.28890295447E+02  0.30121165416E+02  0.51100000000E-03 0.  1.
        -12    1    4    4    0    0  0.11805018303E+02 -0.23366788037E+01  0.31790555362E+01  0.12446883910E+02  0.00000000000E+00 0.  1.
</event>
<event>
 8    1  0.2514877E-006  0.9118800E+02  0.7816164E-02  0.1184000E+00
        -11   -1    0    0    0    0  0.00000000000E+00  0.00000000000E+00  0.45593999997E+02  0.45594000000E+02  0.51100000000E-03 0.  1.
         11   -1    0    0    0    0 -0.00000000000E+00 -0.00000000000E+00 -0.45593999997E+02  0.45594000000E+02  0.51100000000E-03 0. -1.
         23    2    1    2    0    0 -0.35527136788E-14  0.00000000000E+00  0.26645352591E-14  0.91188000000E+02  0.91188000000E+02 0.  0.
    9900012    2    3    3    0    0  0.13321280316E+02  0.33975384596E+02 -0.48986325588E+01  0.54367083816E+02  0.39999999175E+02 0.  0.
        -12    1    3    3    0    0 -0.13321280316E+02 -0.33975384596E+02  0.48986325588E+01  0.36820916184E+02  0.00000000000E+00 0.  1.
         11    1    4    4    0    0  0.30619514063E+01  0.33960304762E+01  0.96874082777E+01  0.10712350293E+02  0.51100000000E-03 0. -1.
        -11    1    4    4    0    0 -0.83577559866E+01  0.87749164404E+01 -0.70097118334E+01  0.13999546561E+02  0.51100000000E-03 0.  1.
         12    1    4    4    0    0  0.18617084896E+02  0.21804437679E+02 -0.75763290030E+01  0.29655186961E+02  0.00000000000E+00 0. -1.
</event>
<event>
 8    1  0.2514877E-006  0.9118800E+02  0.7816164E-02  0.1184000E+00
        -11   -1    0    0    0    0  0.00000000000E+00  0.00000000000E+00  0.45593999997E+02  0.45594000000E+02  0.51100000000E-03 0.  1.
         11   -1    0    0    0    0 -0.00000000000E+00 -0.00000000000E+00 -0.45593999997E+02  0.45594000000E+02  0.51100000000E-03 0. -1.
         23    2    1    2    0    0  0.00000000000E+00 -0.66613381478E-15 -0.17763568394E-14  0.91188000000E+02  0.91188000000E+02 0.  0.
    9900012    2    3    3    0    0 -0.36169738314E+02  0.77314971963E+00  0.68506663419E+01  0.54367090730E+02  0.40000014936E+02 0.  0.
         12    1    3    3    0    0  0.36169738314E+02 -0.77314971963E+00 -0.68506663419E+01  0.36820909270E+02  0.00000000000E+00 0. -1.
         11    1    4    4    0    0 -0.32545858950E+02  0.57780809651E+01  0.82952399711E+01  0.34079761749E+02  0.51100000000E-03 0. -1.
        -11    1    4    4    0    0 -0.46325994946E+01 -0.27906828607E+01  0.84860843103E+01  0.10062927809E+02  0.51100000000E-03 0.  1.
         12    1    4    4    0    0  0.10087201306E+01 -0.22142483848E+01 -0.99306579394E+01  0.10224401172E+02  0.00000000000E+00 0. -1.
</event>
<event>
 8    1  0.2514877E-006  0.9118800E+02  0.7816164E-02  0.1184000E+00
        -11   -1    0    0    0    0  0.00000000000E+00  0.00000000000E+00  0.45593999997E+02  0.45594000000E+02  0.51100000000E-03 0. -1.
         11   -1    0    0    0    0 -0.00000000000E+00 -0.00000000000E+00 -0.45593999997E+02  0.45594000000E+02  0.51100000000E-03 0.  1.
         23    2    1    2    0    0 -0.88817841970E-15  0.00000000000E+00  0.88817841970E-15  0.91188000000E+02  0.91188000000E+02 0.  0.
    9900012    2    3    3    0    0 -0.45114327546E+01  0.36189066933E+02 -0.50772020342E+01  0.54367087851E+02  0.40000008375E+02 0.  0.
         12    1    3    3    0    0  0.45114327546E+01 -0.36189066933E+02  0.50772020342E+01  0.36820912149E+02  0.00000000000E+00 0. -1.
         11    1    4    4    0    0 -0.18986482542E+02  0.29738848396E+02 -0.42740202783E+01  0.35540862016E+02  0.51100000000E-03 0. -1.
        -11    1    4    4    0    0  0.25802465035E+01  0.22104502373E+01  0.40602050568E+01  0.52942447653E+01  0.51100000000E-03 0.  1.
        -12    1    4    4    0    0  0.11894803284E+02  0.42397682992E+01 -0.48633868127E+01  0.13531981070E+02  0.00000000000E+00 0.  1.
</event>
<event>
 8    1  0.2514877E-006  0.9118800E+02  0.7816164E-02  0.1184000E+00
        -11   -1    0    0    0    0  0.00000000000E+00  0.00000000000E+00  0.45593999997E+02  0.45594000000E+02  0.51100000000E-03 0. -1.
         11   -1    0    0    0    0 -0.00000000000E+00 -0.00000000000E+00 -0.45593999997E+02  0.45594000000E+02  0.51100000000E-03 0.  1.
         23    2    1    2    0    0  0.00000000000E+00 -0.71054273576E-14 -0.88817841970E-15  0.91188000000E+02  0.91188000000E+02 0.  0.
    9900012    2    3    3    0    0  0.60909821674E+01 -0.35683398773E+02 -0.67359322461E+01  0.54367111974E+02  0.40000063368E+02 0.  0.
         12    1    3    3    0    0 -0.60909821674E+01  0.35683398773E+02  0.67359322461E+01  0.36820888026E+02  0.00000000000E+00 0. -1.
         11    1    4    4    0    0  0.20490765208E+01 -0.26859948602E+02  0.75094462695E+01  0.27965109280E+02  0.51100000000E-03 0. -1.
        -11    1    4    4    0    0  0.33689765295E+01 -0.39194544093E+01  0.45990301026E+01  0.69183237759E+01  0.51100000000E-03 0.  1.
        -12    1    4    4    0    0  0.67292911709E+00 -0.49039957616E+01 -0.18844408618E+02  0.19483678918E+02  0.00000000000E+00 0.  1.
</event>
<event>
 8    1  0.2514877E-006  0.9118800E+02  0.7816164E-02  0.1184000E+00
        -11   -1    0    0    0    0  0.00000000000E+00  0.00000000000E+00  0.45593999997E+02  0.45594000000E+02  0.51100000000E-03 0.  1.
         11   -1    0    0    0    0 -0.00000000000E+00 -0.00000000000E+00 -0.45593999997E+02  0.45594000000E+02  0.51100000000E-03 0. -1.
         23    2    1    2    0    0 -0.11102230246E-14  0.00000000000E+00  0.00000000000E+00  0.91188000000E+02  0.91188000000E+02 0.  0.
    9900012    2    3    3    0    0 -0.13214415197E+01 -0.34992171085E+02  0.11383524713E+02  0.54367042927E+02  0.39999905959E+02 0.  0.
         12    1    3    3    0    0  0.13214415197E+01  0.34992171085E+02 -0.11383524713E+02  0.36820957073E+02  0.00000000000E+00 0. -1.
         11    1    4    4    0    0  0.75982902624E+01  0.33343355999E+01  0.62659354382E+01  0.10397776492E+02  0.51100000000E-03 0. -1.
        -11    1    4    4    0    0 -0.11717127151E+02 -0.19432583970E+02  0.91176344768E+01  0.24455012720E+02  0.51100000000E-03 0.  1.
        -12    1    4    4    0    0  0.27973953691E+01 -0.18893922715E+02 -0.40000452023E+01  0.19514253714E+02  0.00000000000E+00 0.  1.
</event>
<event>
 8    1  0.2514877E-006  0.9118800E+02  0.7816164E-02  0.1184000E+00
        -11   -1    0    0    0    0  0.00000000000E+00  0.00000000000E+00  0.45593999997E+02  0.45594000000E+02  0.51100000000E-03 0.  1.
         11   -1    0    0    0    0 -0.00000000000E+00 -0.00000000000E+00 -0.45593999997E+02  0.45594000000E+02  0.51100000000E-03 0. -1.
         23    2    1    2    0    0  0.17763568394E-14  0.00000000000E+00 -0.35527136788E-14  0.91188000000E+02  0.91188000000E+02 0.  0.
    9900012    2    3    3    0    0  0.13365985688E+02 -0.32610656924E+02 -0.10661876544E+02  0.54367080268E+02  0.39999991088E+02 0.  0.
        -12    1    3    3    0    0 -0.13365985688E+02  0.32610656924E+02  0.10661876544E+02  0.36820919732E+02  0.00000000000E+00 0.  1.
         11    1    4    4    0    0 -0.37305152345E+01 -0.57767620503E+01 -0.81682445459E+01  0.10677450207E+02  0.51100000000E-03 0. -1.
        -11    1    4    4    0    0 -0.52160576878E+01 -0.84853331720E+01  0.81840730991E+01  0.12891361045E+02  0.51100000000E-03 0.  1.
        -12    1    4    4    0    0  0.22312558610E+02 -0.18348561702E+02 -0.10677705097E+02  0.30798269016E+02  0.00000000000E+00 0.  1.
</event>
<event>
 8    1  0.2514877E-006  0.9118800E+02  0.7816164E-02  0.1184000E+00
        -11   -1    0    0    0    0  0.00000000000E+00  0.00000000000E+00  0.45593999997E+02  0.45594000000E+02  0.51100000000E-03 0. -1.
         11   -1    0    0    0    0 -0.00000000000E+00 -0.00000000000E+00 -0.45593999997E+02  0.45594000000E+02  0.51100000000E-03 0.  1.
         23    2    1    2    0    0  0.88817841970E-15  0.00000000000E+00  0.17763568394E-14  0.91188000000E+02  0.91188000000E+02 0.  0.
    9900012    2    3    3    0    0  0.72239999196E+01  0.34289880863E+02 -0.11304787386E+02  0.54367077656E+02  0.39999985133E+02 0.  0.
        -12    1    3    3    0    0 -0.72239999196E+01 -0.34289880863E+02  0.11304787386E+02  0.36820922344E+02  0.00000000000E+00 0.  1.
         11    1    4    4    0    0  0.10537160128E+02 -0.13522041459E+01 -0.66485806825E+01  0.12532510721E+02  0.51100000000E-03 0. -1.
        -11    1    4    4    0    0 -0.11439276770E+01  0.35113202333E+02 -0.95915786337E+01  0.36417632124E+02  0.51100000000E-03 0.  1.
        -12    1    4    4    0    0 -0.21692325311E+01  0.52888267551E+00  0.49353719302E+01  0.54169348111E+01  0.00000000000E+00 0.  1.
</event>
<event>
 8    1  0.2514877E-006  0.9118800E+02  0.7816164E-02  0.1184000E+00
        -11   -1    0    0    0    0  0.00000000000E+00  0.00000000000E+00  0.45593999997E+02  0.45594000000E+02  0.51100000000E-03 0. -1.
         11   -1    0    0    0    0 -0.00000000000E+00 -0.00000000000E+00 -0.45593999997E+02  0.45594000000E+02  0.51100000000E-03 0.  1.
         23    2    1    2    0    0  0.00000000000E+00 -0.71054273576E-14  0.00000000000E+00  0.91188000000E+02  0.91188000000E+02 0.  0.
    9900012    2    3    3    0    0 -0.10662849314E+02  0.34170577193E+02 -0.86287399821E+01  0.54367084003E+02  0.39999999602E+02 0.  0.
         12    1    3    3    0    0  0.10662849314E+02 -0.34170577193E+02  0.86287399821E+01  0.36820915997E+02  0.00000000000E+00 0. -1.
         11    1    4    4    0    0  0.15893152378E+01 -0.33867251886E-01 -0.13644984699E+02  0.13737273296E+02  0.51100000000E-03 0. -1.
        -11    1    4    4    0    0 -0.72189252154E+01  0.20758501504E+02 -0.57109382802E+01  0.22707775810E+02  0.51100000000E-03 0.  1.
         12    1    4    4    0    0 -0.50332393365E+01  0.13445942941E+02  0.10727182997E+02  0.17922034897E+02  0.00000000000E+00 0. -1.
</event>
<event>
 8    1  0.2514877E-006  0.9118800E+02  0.7816164E-02  0.1184000E+00
        -11   -1    0    0    0    0  0.00000000000E+00  0.00000000000E+00  0.45593999997E+02  0.45594000000E+02  0.51100000000E-03 0.  1.
         11   -1    0    0    0    0 -0.00000000000E+00 -0.00000000000E+00 -0.45593999997E+02  0.45594000000E+02  0.51100000000E-03 0. -1.
         23    2    1    2    0    0  0.00000000000E+00  0.00000000000E+00  0.00000000000E+00  0.91188000000E+02  0.91188000000E+02 0.  0.
    9900012    2    3    3    0    0 -0.20721148962E+02  0.16259687697E+02 -0.25729799052E+02  0.54367271904E+02  0.40000427957E+02 0.  0.
        -12    1    3    3    0    0  0.20721148962E+02 -0.16259687697E+02  0.25729799052E+02  0.36820728096E+02  0.00000000000E+00 0.  1.
         11    1    4    4    0    0 -0.11043439975E+02  0.14428183119E+02 -0.35107135028E+02  0.39530253790E+02  0.51100000000E-03 0. -1.
        -11    1    4    4    0    0 -0.16859404763E+01 -0.18356569451E+01  0.97915996130E+00  0.26778323698E+01  0.51100000000E-03 0.  1.
         12    1    4    4    0    0 -0.79917685106E+01  0.36671615232E+01  0.83981760151E+01  0.12159185744E+02  0.00000000000E+00 0. -1.
</event>
<event>
 8    1  0.2514877E-006  0.9118800E+02  0.7816164E-02  0.1184000E+00
        -11   -1    0    0    0    0  0.00000000000E+00  0.00000000000E+00  0.45593999997E+02  0.45594000000E+02  0.51100000000E-03 0.  1.
         11   -1    0    0    0    0 -0.00000000000E+00 -0.00000000000E+00 -0.45593999997E+02  0.45594000000E+02  0.51100000000E-03 0. -1.
         23    2    1    2    0    0  0.00000000000E+00  0.00000000000E+00 -0.35527136788E-14  0.91188000000E+02  0.91188000000E+02 0.  0.
    9900012    2    3    3    0    0  0.16134449977E+02  0.27440963206E+02  0.18505522685E+02  0.54367064276E+02  0.39999954630E+02 0.  0.
         12    1    3    3    0    0 -0.16134449977E+02 -0.27440963206E+02 -0.18505522685E+02  0.36820935724E+02  0.00000000000E+00 0. -1.
         11    1    4    4    0    0 -0.20584734439E+00  0.28905298860E+02  0.50997343756E+01  0.29352443957E+02  0.51100000000E-03 0. -1.
        -11    1    4    4    0    0  0.70145878724E+01 -0.31401715910E+00  0.13934224081E+02  0.15603385876E+02  0.51100000000E-03 0.  1.
         12    1    4    4    0    0  0.93257094487E+01 -0.11503184944E+01 -0.52843577186E+00  0.94112344421E+01  0.00000000000E+00 0. -1.
</event>
<event>
 8    1  0.2514877E-006  0.9118800E+02  0.7816164E-02  0.1184000E+00
        -11   -1    0    0    0    0  0.00000000000E+00  0.00000000000E+00  0.45593999997E+02  0.45594000000E+02  0.51100000000E-03 0.  1.
         11   -1    0    0    0    0 -0.00000000000E+00 -0.00000000000E+00 -0.45593999997E+02  0.45594000000E+02  0.51100000000E-03 0. -1.
         23    2    1    2    0    0  0.35527136788E-14  0.35527136788E-14  0.00000000000E+00  0.91188000000E+02  0.91188000000E+02 0.  0.
    9900012    2    3    3    0    0  0.25393330085E+02 -0.18466620813E+02  0.19233868562E+02  0.54367095653E+02  0.40000026161E+02 0.  0.
         12    1    3    3    0    0 -0.25393330085E+02  0.18466620813E+02 -0.19233868562E+02  0.36820904347E+02  0.00000000000E+00 0. -1.
         11    1    4    4    0    0  0.20360298143E+02 -0.61937653475E+01  0.90449641367E+01  0.23123923676E+02  0.51100000000E-03 0. -1.
        -11    1    4    4    0    0  0.12185674105E+02 -0.83462995133E+01  0.15576240714E+02  0.21465568802E+02  0.51100000000E-03 0.  1.
         12    1    4    4    0    0 -0.71526421637E+01 -0.39265559522E+01 -0.53873362888E+01  0.97776031754E+01  0.00000000000E+00 0. -1.
</event>
<event>
 8    1  0.2514877E-006  0.9118800E+02  0.7816164E-02  0.1184000E+00
        -11   -1    0    0    0    0  0.00000000000E+00  0.00000000000E+00  0.45593999997E+02  0.45594000000E+02  0.51100000000E-03 0. -1.
         11   -1    0    0    0    0 -0.00000000000E+00 -0.00000000000E+00 -0.45593999997E+02  0.45594000000E+02  0.51100000000E-03 0.  1.
         23    2    1    2    0    0  0.71054273576E-14  0.17763568394E-14  0.00000000000E+00  0.91188000000E+02  0.91188000000E+02 0.  0.
    9900012    2    3    3    0    0 -0.32651937473E+02 -0.14586104406E+02  0.87679616234E+01  0.54367073701E+02  0.39999976116E+02 0.  0.
        -12    1    3    3    0    0  0.32651937473E+02  0.14586104406E+02 -0.87679616234E+01  0.36820926299E+02  0.00000000000E+00 0.  1.
         11    1    4    4    0    0  0.62069330454E+00 -0.14947030322E+02  0.54405379764E+01  0.15918493313E+02  0.51100000000E-03 0. -1.
        -11    1    4    4    0    0 -0.35217438108E+02  0.15454401426E+01  0.11079536937E+01  0.35268738194E+02  0.51100000000E-03 0.  1.
        -12    1    4    4    0    0  0.19448073305E+01 -0.11845142266E+01  0.22194699532E+01  0.31798421941E+01  0.00000000000E+00 0.  1.
</event>
<event>
 8    1  0.2514877E-006  0.9118800E+02  0.7816164E-02  0.1184000E+00
        -11   -1    0    0    0    0  0.00000000000E+00  0.00000000000E+00  0.45593999997E+02  0.45594000000E+02  0.51100000000E-03 0. -1.
         11   -1    0    0    0    0 -0.00000000000E+00 -0.00000000000E+00 -0.45593999997E+02  0.45594000000E+02  0.51100000000E-03 0.  1.
         23    2    1    2    0    0  0.00000000000E+00  0.00000000000E+00 -0.44408920985E-15  0.91188000000E+02  0.91188000000E+02 0.  0.
    9900012    2    3    3    0    0 -0.21958618832E+02  0.29325116355E+02  0.36927339057E+01  0.54367086460E+02  0.40000005202E+02 0.  0.
         12    1    3    3    0    0  0.21958618832E+02 -0.29325116355E+02 -0.36927339057E+01  0.36820913540E+02  0.00000000000E+00 0. -1.
         11    1    4    4    0    0  0.40107064837E+01 -0.67448405641E+01  0.91162062551E+00  0.78999805797E+01  0.51100000000E-03 0. -1.
        -11    1    4    4    0    0 -0.50309413254E+01  0.15832459654E+02 -0.27151662390E+01  0.16832981830E+02  0.51100000000E-03 0.  1.
         12    1    4    4    0    0 -0.20938383990E+02  0.20237497265E+02  0.54962795192E+01  0.29634124050E+02  0.00000000000E+00 0. -1.
</event>
<event>
 8    1  0.2514877E-006  0.9118800E+02  0.7816164E-02  0.1184000E+00
        -11   -1    0    0    0    0  0.00000000000E+00  0.00000000000E+00  0.45593999997E+02  0.45594000000E+02  0.51100000000E-03 0. -1.
         11   -1    0    0    0    0 -0.00000000000E+00 -0.00000000000E+00 -0.45593999997E+02  0.45594000000E+02  0.51100000000E-03 0.  1.
         23    2    1    2    0    0 -0.35527136788E-14 -0.35527136788E-14  0.00000000000E+00  0.91188000000E+02  0.91188000000E+02 0.  0.
    9900012    2    3    3    0    0 -0.13145876357E+02 -0.14962870848E+02  0.30969001838E+02  0.54367073286E+02  0.39999975171E+02 0.  0.
        -12    1    3    3    0    0  0.13145876357E+02  0.14962870848E+02 -0.30969001838E+02  0.36820926714E+02  0.00000000000E+00 0.  1.
         11    1    4    4    0    0 -0.75285591269E+01 -0.19571370471E+02  0.26701403611E+02  0.33951181123E+02  0.51100000000E-03 0. -1.
        -11    1    4    4    0    0  0.64799669294E+00  0.10993136494E+02  0.26309180101E+01  0.11322132287E+02  0.51100000000E-03 0.  1.
        -12    1    4    4    0    0 -0.62653139233E+01 -0.63846368717E+01  0.16366802170E+01  0.90937598755E+01  0.00000000000E+00 0.  1.
</event>
<event>
 8    1  0.2514877E-006  0.9118800E+02  0.7816164E-02  0.1184000E+00
        -11   -1    0    0    0    0  0.00000000000E+00  0.00000000000E+00  0.45593999997E+02  0.45594000000E+02  0.51100000000E-03 0. -1.
         11   -1    0    0    0    0 -0.00000000000E+00 -0.00000000000E+00 -0.45593999997E+02  0.45594000000E+02  0.51100000000E-03 0.  1.
         23    2    1    2    0    0  0.00000000000E+00  0.17763568394E-14  0.00000000000E+00  0.91188000000E+02  0.91188000000E+02 0.  0.
    9900012    2    3    3    0    0  0.15858709052E+02 -0.12301221591E+02 -0.30869976576E+02  0.54367161346E+02  0.40000175920E+02 0.  0.
         12    1    3    3    0    0 -0.15858709052E+02  0.12301221591E+02  0.30869976576E+02  0.36820838654E+02  0.00000000000E+00 0. -1.
         11    1    4    4    0    0 -0.23509937952E+01 -0.22970156210E+01 -0.14885428426E+02  0.15243996598E+02  0.51100000000E-03 0.  1.
        -11    1    4    4    0    0  0.13100850287E+02  0.71406085030E+01  0.31169665153E+00  0.14923730201E+02  0.51100000000E-03 0. -1.
         12    1    4    4    0    0  0.51088525599E+01 -0.17144814473E+02 -0.16296244801E+02  0.24199434547E+02  0.00000000000E+00 0. -1.
</event>
<event>
 8    1  0.2514877E-006  0.9118800E+02  0.7816164E-02  0.1184000E+00
        -11   -1    0    0    0    0  0.00000000000E+00  0.00000000000E+00  0.45593999997E+02  0.45594000000E+02  0.51100000000E-03 0. -1.
         11   -1    0    0    0    0 -0.00000000000E+00 -0.00000000000E+00 -0.45593999997E+02  0.45594000000E+02  0.51100000000E-03 0.  1.
         23    2    1    2    0    0  0.33306690739E-15  0.00000000000E+00  0.35527136788E-14  0.91188000000E+02  0.91188000000E+02 0.  0.
    9900012    2    3    3    0    0  0.34517039963E+00  0.20140585758E+02 -0.30822346230E+02  0.54367090663E+02  0.40000014784E+02 0.  0.
         12    1    3    3    0    0 -0.34517039963E+00 -0.20140585758E+02  0.30822346230E+02  0.36820909337E+02  0.00000000000E+00 0. -1.
         11    1    4    4    0    0  0.10869751873E+02  0.16800158615E+02 -0.14576770090E+02  0.24756394362E+02  0.51100000000E-03 0. -1.
        -11    1    4    4    0    0  0.14419015084E+01 -0.48569194465E+01 -0.14056269337E+02  0.14941467612E+02  0.51100000000E-03 0.  1.
         12    1    4    4    0    0 -0.11966482982E+02  0.81973465896E+01 -0.21893068030E+01  0.14669228689E+02  0.00000000000E+00 0. -1.
</event>
<event>
 8    1  0.2514877E-006  0.9118800E+02  0.7816164E-02  0.1184000E+00
        -11   -1    0    0    0    0  0.00000000000E+00  0.00000000000E+00  0.45593999997E+02  0.45594000000E+02  0.51100000000E-03 0. -1.
         11   -1    0    0    0    0 -0.00000000000E+00 -0.00000000000E+00 -0.45593999997E+02  0.45594000000E+02  0.51100000000E-03 0.  1.
         23    2    1    2    0    0  0.00000000000E+00 -0.35527136788E-14  0.17763568394E-14  0.91188000000E+02  0.91188000000E+02 0.  0.
    9900012    2    3    3    0    0 -0.16568529633E+02  0.31817427241E+02  0.83015425164E+01  0.54367075805E+02  0.39999980912E+02 0.  0.
         12    1    3    3    0    0  0.16568529633E+02 -0.31817427241E+02 -0.83015425164E+01  0.36820924195E+02  0.00000000000E+00 0. -1.
         11    1    4    4    0    0  0.40939926916E+01  0.15880056969E+02 -0.10932548245E+02  0.19709327662E+02  0.51100000000E-03 0. -1.
        -11    1    4    4    0    0 -0.32333123544E+01  0.91739929170E+01  0.94291271539E+01  0.13547136006E+02  0.51100000000E-03 0.  1.
        -12    1    4    4    0    0 -0.17429209970E+02  0.67633773548E+01  0.98049636071E+01  0.21110612136E+02  0.00000000000E+00 0.  1.
</event>
<event>
 8    1  0.2514877E-006  0.9118800E+02  0.7816164E-02  0.1184000E+00
        -11   -1    0    0    0    0  0.00000000000E+00  0.00000000000E+00  0.45593999997E+02  0.45594000000E+02  0.51100000000E-03 0.  1.
         11   -1    0    0    0    0 -0.00000000000E+00 -0.00000000000E+00 -0.45593999997E+02  0.45594000000E+02  0.51100000000E-03 0. -1.
         23    2    1    2    0    0 -0.17763568394E-14  0.00000000000E+00  0.00000000000E+00  0.91188000000E+02  0.91188000000E+02 0.  0.
    9900012    2    3    3    0    0  0.14803291158E+02  0.77388889813E+01 -0.32813885986E+02  0.54367096355E+02  0.40000027760E+02 0.  0.
        -12    1    3    3    0    0 -0.14803291158E+02 -0.77388889813E+01  0.32813885986E+02  0.36820903645E+02  0.00000000000E+00 0.  1.
         11    1    4    4    0    0  0.18157975114E+02  0.11250074298E+02 -0.25804434244E+02  0.33498433677E+02  0.51100000000E-03 0. -1.
        -11    1    4    4    0    0  0.38492075248E+01  0.58506169120E+01  0.24262262216E+00  0.70074947605E+01  0.51100000000E-03 0.  1.
         12    1    4    4    0    0 -0.72038914807E+01 -0.93618022285E+01 -0.72520743643E+01  0.13861167917E+02  0.00000000000E+00 0. -1.
</event>
<event>
 8    1  0.2514877E-006  0.9118800E+02  0.7816164E-02  0.1184000E+00
        -11   -1    0    0    0    0  0.00000000000E+00  0.00000000000E+00  0.45593999997E+02  0.45594000000E+02  0.51100000000E-03 0. -1.
         11   -1    0    0    0    0 -0.00000000000E+00 -0.00000000000E+00 -0.45593999997E+02  0.45594000000E+02  0.51100000000E-03 0.  1.
         23    2    1    2    0    0  0.00000000000E+00  0.17763568394E-14 -0.11102230246E-14  0.91188000000E+02  0.91188000000E+02 0.  0.
    9900012    2    3    3    0    0  0.36498864943E+02  0.46763348075E+01 -0.13208255084E+01  0.54367084349E+02  0.40000000391E+02 0.  0.
         12    1    3    3    0    0 -0.36498864943E+02 -0.46763348075E+01  0.13208255084E+01  0.36820915651E+02  0.00000000000E+00 0. -1.
         11    1    4    4    0    0  0.17241103553E+02 -0.48059046721E+01  0.10305684238E+02  0.20653316908E+02  0.51100000000E-03 0. -1.
        -11    1    4    4    0    0  0.10994845583E+02 -0.71197596179E+01 -0.50092626279E+01  0.14023919522E+02  0.51100000000E-03 0.  1.
         12    1    4    4    0    0  0.82629158065E+01  0.16601999097E+02 -0.66172471183E+01  0.19689847919E+02  0.00000000000E+00 0. -1.
</event>
<event>
 8    1  0.2514877E-006  0.9118800E+02  0.7816164E-02  0.1184000E+00
        -11   -1    0    0    0    0  0.00000000000E+00  0.00000000000E+00  0.45593999997E+02  0.45594000000E+02  0.51100000000E-03 0. -1.
         11   -1    0    0    0    0 -0.00000000000E+00 -0.00000000000E+00 -0.45593999997E+02  0.45594000000E+02  0.51100000000E-03 0.  1.
         23    2    1    2    0    0  0.00000000000E+00 -0.35527136788E-14  0.00000000000E+00  0.91188000000E+02  0.91188000000E+02 0.  0.
    9900012    2    3    3    0    0 -0.36221404383E+02 -0.40170044499E+01 -0.52585125430E+01  0.54367103563E+02  0.40000044193E+02 0.  0.
        -12    1    3    3    0    0  0.36221404383E+02  0.40170044499E+01  0.52585125430E+01  0.36820896437E+02  0.00000000000E+00 0.  1.
         11    1    4    4    0    0 -0.85275004957E+01  0.74591536779E+00  0.69952205553E+01  0.11054762110E+02  0.51100000000E-03 0.  1.
        -11    1    4    4    0    0 -0.20063476268E+02 -0.17420830181E+02 -0.58653080656E+01  0.27210847894E+02  0.51100000000E-03 0. -1.
        -12    1    4    4    0    0 -0.76304276198E+01  0.12657910363E+02 -0.63884250327E+01  0.16101493559E+02  0.00000000000E+00 0.  1.
</event>
<event>
 8    1  0.2514877E-006  0.9118800E+02  0.7816164E-02  0.1184000E+00
        -11   -1    0    0    0    0  0.00000000000E+00  0.00000000000E+00  0.45593999997E+02  0.45594000000E+02  0.51100000000E-03 0. -1.
         11   -1    0    0    0    0 -0.00000000000E+00 -0.00000000000E+00 -0.45593999997E+02  0.45594000000E+02  0.51100000000E-03 0.  1.
         23    2    1    2    0    0 -0.88817841970E-15  0.00000000000E+00  0.00000000000E+00  0.91188000000E+02  0.91188000000E+02 0.  0.
    9900012    2    3    3    0    0 -0.37118017738E+01  0.47834446048E+01 -0.36319708966E+02  0.54367081026E+02  0.39999992816E+02 0.  0.
         12    1    3    3    0    0  0.37118017738E+01 -0.47834446048E+01  0.36319708966E+02  0.36820918974E+02  0.00000000000E+00 0. -1.
         11    1    4    4    0    0 -0.62902672573E+01  0.84716358300E+00 -0.13358212503E+02  0.14789421552E+02  0.51100000000E-03 0. -1.
        -11    1    4    4    0    0  0.10251955068E+02  0.52671239009E+01 -0.28015272207E+02  0.30293574467E+02  0.51100000000E-03 0.  1.
         12    1    4    4    0    0 -0.76734895842E+01 -0.13308428792E+01  0.50537757436E+01  0.92840850080E+01  0.00000000000E+00 0. -1.
</event>
<event>
 8    1  0.2514877E-006  0.9118800E+02  0.7816164E-02  0.1184000E+00
        -11   -1    0    0    0    0  0.00000000000E+00  0.00000000000E+00  0.45593999997E+02  0.45594000000E+02  0.51100000000E-03 0. -1.
         11   -1    0    0    0    0 -0.00000000000E+00 -0.00000000000E+00 -0.45593999997E+02  0.45594000000E+02  0.51100000000E-03 0.  1.
         23    2    1    2    0    0 -0.17763568394E-14 -0.35527136788E-14  0.00000000000E+00  0.91188000000E+02  0.91188000000E+02 0.  0.
    9900012    2    3    3    0    0 -0.10679064888E+02 -0.27078887441E+02  0.22549336343E+02  0.54367066532E+02  0.39999959773E+02 0.  0.
        -12    1    3    3    0    0  0.10679064888E+02  0.27078887441E+02 -0.22549336343E+02  0.36820933468E+02  0.00000000000E+00 0.  1.
         11    1    4    4    0    0  0.66408490520E+01 -0.13647916686E+02  0.19182554924E+02  0.24460926386E+02  0.51100000000E-03 0. -1.
        -11    1    4    4    0    0 -0.15335391319E+00 -0.48911466040E+00 -0.63096202554E+01  0.63304074594E+01  0.51100000000E-03 0.  1.
         12    1    4    4    0    0 -0.17166560027E+02 -0.12941856094E+02  0.96764016744E+01  0.23575732686E+02  0.00000000000E+00 0. -1.
</event>
<event>
 8    1  0.2514877E-006  0.9118800E+02  0.7816164E-02  0.1184000E+00
        -11   -1    0    0    0    0  0.00000000000E+00  0.00000000000E+00  0.45593999997E+02  0.45594000000E+02  0.51100000000E-03 0.  1.
         11   -1    0    0    0    0 -0.00000000000E+00 -0.00000000000E+00 -0.45593999997E+02  0.45594000000E+02  0.51100000000E-03 0. -1.
         23    2    1    2    0    0 -0.35527136788E-14  0.00000000000E+00  0.00000000000E+00  0.91188000000E+02  0.91188000000E+02 0.  0.
    9900012    2    3    3    0    0  0.24365021811E+02  0.13854277964E+02  0.23878546758E+02  0.54367077944E+02  0.39999985789E+02 0.  0.
         12    1    3    3    0    0 -0.24365021811E+02 -0.13854277964E+02 -0.23878546758E+02  0.36820922056E+02  0.00000000000E+00 0. -1.
         11    1    4    4    0    0  0.73923320950E-01  0.25181072386E+01 -0.24692877455E+00  0.25312650599E+01  0.51100000000E-03 0. -1.
        -11    1    4    4    0    0  0.28608187370E+02  0.13021255104E+02  0.45988926852E+01  0.31766826774E+02  0.51100000000E-03 0.  1.
        -12    1    4    4    0    0 -0.43170888801E+01 -0.16850843794E+01  0.19526582848E+02  0.20068986110E+02  0.00000000000E+00 0.  1.
</event>
<event>
 8    1  0.2514877E-006  0.9118800E+02  0.7816164E-02  0.1184000E+00
        -11   -1    0    0    0    0  0.00000000000E+00  0.00000000000E+00  0.45593999997E+02  0.45594000000E+02  0.51100000000E-03 0.  1.
         11   -1    0    0    0    0 -0.00000000000E+00 -0.00000000000E+00 -0.45593999997E+02  0.45594000000E+02  0.51100000000E-03 0. -1.
         23    2    1    2    0    0  0.00000000000E+00 -0.35527136788E-14  0.00000000000E+00  0.91188000000E+02  0.91188000000E+02 0.  0.
    9900012    2    3    3    0    0 -0.29148971847E+02  0.17248468165E+02  0.14443243356E+02  0.54367088925E+02  0.40000010822E+02 0.  0.
         12    1    3    3    0    0  0.29148971847E+02 -0.17248468165E+02 -0.14443243356E+02  0.36820911075E+02  0.00000000000E+00 0. -1.
         11    1    4    4    0    0  0.73184173943E+01 -0.83904875492E+00  0.41634249245E+01  0.84615213368E+01  0.51100000000E-03 0. -1.
        -11    1    4    4    0    0 -0.21515736677E+02  0.65099694069E+00  0.73724104098E+01  0.22753091159E+02  0.51100000000E-03 0.  1.
        -12    1    4    4    0    0 -0.14951652564E+02  0.17436519979E+02  0.29074080218E+01  0.23152476429E+02  0.00000000000E+00 0.  1.
</event>
<event>
 8    1  0.2514877E-006  0.9118800E+02  0.7816164E-02  0.1184000E+00
        -11   -1    0    0    0    0  0.00000000000E+00  0.00000000000E+00  0.45593999997E+02  0.45594000000E+02  0.51100000000E-03 0.  1.
         11   -1    0    0    0    0 -0.00000000000E+00 -0.00000000000E+00 -0.45593999997E+02  0.45594000000E+02  0.51100000000E-03 0. -1.
         23    2    1    2    0    0  0.00000000000E+00  0.00000000000E+00  0.26645352591E-14  0.91188000000E+02  0.91188000000E+02 0.  0.
    9900012    2    3    3    0    0  0.21655406324E+02 -0.29013386950E+02 -0.67116056772E+01  0.54367097022E+02  0.40000029280E+02 0.  0.
         12    1    3    3    0    0 -0.21655406324E+02  0.29013386950E+02  0.67116056772E+01  0.36820902978E+02  0.00000000000E+00 0. -1.
         11    1    4    4    0    0  0.19317601300E+02 -0.40654065889E+01  0.96675680796E+01  0.21980880864E+02  0.51100000000E-03 0. -1.
        -11    1    4    4    0    0  0.45990804182E+01 -0.23849161119E+02 -0.11448315427E+02  0.26851405050E+02  0.51100000000E-03 0.  1.
         12    1    4    4    0    0 -0.22612753941E+01 -0.10988192425E+01 -0.49308583301E+01  0.55348111085E+01  0.00000000000E+00 0. -1.
</event>
<event>
 8    1  0.2514877E-006  0.9118800E+02  0.7816164E-02  0.1184000E+00
        -11   -1    0    0    0    0  0.00000000000E+00  0.00000000000E+00  0.45593999997E+02  0.45594000000E+02  0.51100000000E-03 0.  1.
         11   -1    0    0    0    0 -0.00000000000E+00 -0.00000000000E+00 -0.45593999997E+02  0.45594000000E+02  0.51100000000E-03 0. -1.
         23    2    1    2    0    0  0.00000000000E+00 -0.17763568394E-14  0.00000000000E+00  0.91188000000E+02  0.91188000000E+02 0.  0.
    9900012    2    3    3    0    0 -0.23355588578E+02 -0.83173393377E+01 -0.27223482400E+02  0.54367086846E+02  0.40000006083E+02 0.  0.
        -12    1    3    3    0    0  0.23355588578E+02  0.83173393377E+01  0.27223482400E+02  0.36820913154E+02  0.00000000000E+00 0.  1.
         11    1    4    4    0    0  0.65661534113E+01 -0.12225605847E+01 -0.40421871759E+01  0.78069393766E+01  0.51100000000E-03 0.  1.
        -11    1    4    4    0    0 -0.19114242304E+02 -0.16435672297E+02 -0.99896383465E+01  0.27116018462E+02  0.51100000000E-03 0. -1.
         12    1    4    4    0    0 -0.10807499686E+02  0.93408935438E+01 -0.13191656878E+02  0.19444129007E+02  0.00000000000E+00 0. -1.
</event>
<event>
 8    1  0.2514877E-006  0.9118800E+02  0.7816164E-02  0.1184000E+00
        -11   -1    0    0    0    0  0.00000000000E+00  0.00000000000E+00  0.45593999997E+02  0.45594000000E+02  0.51100000000E-03 0. -1.
         11   -1    0    0    0    0 -0.00000000000E+00 -0.00000000000E+00 -0.45593999997E+02  0.45594000000E+02  0.51100000000E-03 0.  1.
         23    2    1    2    0    0 -0.17763568394E-14  0.88817841970E-15  0.00000000000E+00  0.91188000000E+02  0.91188000000E+02 0.  0.
    9900012    2    3    3    0    0  0.13334712930E+02 -0.43942334400E+01  0.34039226590E+02  0.54366908174E+02  0.39999598762E+02 0.  0.
        -12    1    3    3    0    0 -0.13334712930E+02  0.43942334400E+01 -0.34039226590E+02  0.36821091826E+02  0.00000000000E+00 0.  1.
         11    1    4    4    0    0  0.18963449083E+01  0.85259531770E+01  0.15869952909E+02  0.18114729012E+02  0.51100000000E-03 0. -1.
        -11    1    4    4    0    0  0.57230482219E+01 -0.19709755489E+02  0.63736003534E+01  0.21490707855E+02  0.51100000000E-03 0.  1.
        -12    1    4    4    0    0  0.57153198002E+01  0.67895688722E+01  0.11795673327E+02  0.14761471306E+02  0.00000000000E+00 0.  1.
</event>
<event>
 8    1  0.2514877E-006  0.9118800E+02  0.7816164E-02  0.1184000E+00
        -11   -1    0    0    0    0  0.00000000000E+00  0.00000000000E+00  0.45593999997E+02  0.45594000000E+02  0.51100000000E-03 0.  1.
         11   -1    0    0    0    0 -0.00000000000E+00 -0.00000000000E+00 -0.45593999997E+02  0.45594000000E+02  0.51100000000E-03 0. -1.
         23    2    1    2    0    0  0.88817841970E-15  0.35527136788E-14  0.35527136788E-14  0.91188000000E+02  0.91188000000E+02 0.  0.
    9900012    2    3    3    0    0  0.52440637703E+01  0.25896735957E+02  0.25644441389E+02  0.54367102235E+02  0.40000041166E+02 0.  0.
         12    1    3    3    0    0 -0.52440637703E+01 -0.25896735957E+02 -0.25644441389E+02  0.36820897765E+02  0.00000000000E+00 0. -1.
         11    1    4    4    0    0  0.61490517260E+01  0.37064446778E+01  0.13651086764E+02  0.15424031229E+02  0.51100000000E-03 0. -1.
        -11    1    4    4    0    0  0.69073004427E+01  0.82255727933E+01  0.18722122579E+02  0.21584455548E+02  0.51100000000E-03 0.  1.
         12    1    4    4    0    0 -0.78122883983E+01  0.13964718486E+02 -0.67287679543E+01  0.17358615457E+02  0.00000000000E+00 0. -1.
</event>
<event>
 8    1  0.2514877E-006  0.9118800E+02  0.7816164E-02  0.1184000E+00
        -11   -1    0    0    0    0  0.00000000000E+00  0.00000000000E+00  0.45593999997E+02  0.45594000000E+02  0.51100000000E-03 0.  1.
         11   -1    0    0    0    0 -0.00000000000E+00 -0.00000000000E+00 -0.45593999997E+02  0.45594000000E+02  0.51100000000E-03 0. -1.
         23    2    1    2    0    0 -0.44408920985E-15  0.17763568394E-14 -0.71054273576E-14  0.91188000000E+02  0.91188000000E+02 0.  0.
    9900012    2    3    3    0    0 -0.32033459726E+01 -0.15665939430E+02 -0.33167702254E+02  0.54367088055E+02  0.40000008839E+02 0.  0.
        -12    1    3    3    0    0  0.32033459726E+01  0.15665939430E+02  0.33167702254E+02  0.36820911945E+02  0.00000000000E+00 0.  1.
         11    1    4    4    0    0 -0.16814827508E+02 -0.35255294868E+01 -0.20995799390E+02  0.27129160963E+02  0.51100000000E-03 0. -1.
        -11    1    4    4    0    0  0.25951938033E+01 -0.12628935230E+02 -0.39542842736E+01  0.13485599738E+02  0.51100000000E-03 0.  1.
         12    1    4    4    0    0  0.11016287732E+02  0.48852528644E+00 -0.82176185904E+01  0.13752327354E+02  0.00000000000E+00 0. -1.
</event>
<event>
 8    1  0.2514877E-006  0.9118800E+02  0.7816164E-02  0.1184000E+00
        -11   -1    0    0    0    0  0.00000000000E+00  0.00000000000E+00  0.45593999997E+02  0.45594000000E+02  0.51100000000E-03 0.  1.
         11   -1    0    0    0    0 -0.00000000000E+00 -0.00000000000E+00 -0.45593999997E+02  0.45594000000E+02  0.51100000000E-03 0. -1.
         23    2    1    2    0    0  0.00000000000E+00  0.35527136788E-14  0.00000000000E+00  0.91188000000E+02  0.91188000000E+02 0.  0.
    9900012    2    3    3    0    0  0.13899719832E+02  0.18504859622E+02 -0.28638220709E+02  0.54367085747E+02  0.40000003578E+02 0.  0.
         12    1    3    3    0    0 -0.13899719832E+02 -0.18504859622E+02  0.28638220709E+02  0.36820914253E+02  0.00000000000E+00 0. -1.
         11    1    4    4    0    0  0.12247792269E+02  0.12478939622E+02  0.13406198835E+01  0.17536522217E+02  0.51100000000E-03 0.  1.
        -11    1    4    4    0    0 -0.37903352245E+01 -0.65332150718E+01 -0.12839803508E+02  0.14896647095E+02  0.51100000000E-03 0. -1.
        -12    1    4    4    0    0  0.54422627875E+01  0.12559135072E+02 -0.17139037085E+02  0.21933916436E+02  0.00000000000E+00 0.  1.
</event>
<event>
 8    1  0.2514877E-006  0.9118800E+02  0.7816164E-02  0.1184000E+00
        -11   -1    0    0    0    0  0.00000000000E+00  0.00000000000E+00  0.45593999997E+02  0.45594000000E+02  0.51100000000E-03 0. -1.
         11   -1    0    0    0    0 -0.00000000000E+00 -0.00000000000E+00 -0.45593999997E+02  0.45594000000E+02  0.51100000000E-03 0.  1.
         23    2    1    2    0    0  0.00000000000E+00 -0.17763568394E-14  0.00000000000E+00  0.91188000000E+02  0.91188000000E+02 0.  0.
    9900012    2    3    3    0    0 -0.10700987468E+02  0.87907194006E+01  0.34117334996E+02  0.54367076226E+02  0.39999981872E+02 0.  0.
        -12    1    3    3    0    0  0.10700987468E+02 -0.87907194006E+01 -0.34117334996E+02  0.36820923774E+02  0.00000000000E+00 0.  1.
         11    1    4    4    0    0 -0.11281398475E+02  0.56043918033E+00  0.31796068932E+02  0.33742762830E+02  0.51100000000E-03 0. -1.
        -11    1    4    4    0    0 -0.57199596658E+01  0.10634407836E+02  0.53801767499E+01  0.13219488293E+02  0.51100000000E-03 0.  1.
         12    1    4    4    0    0  0.63003706737E+01 -0.24041276161E+01 -0.30589106854E+01  0.74048251027E+01  0.00000000000E+00 0. -1.
</event>
<event>
 8    1  0.2514877E-006  0.9118800E+02  0.7816164E-02  0.1184000E+00
        -11   -1    0    0    0    0  0.00000000000E+00  0.00000000000E+00  0.45593999997E+02  0.45594000000E+02  0.51100000000E-03 0.  1.
         11   -1    0    0    0    0 -0.00000000000E+00 -0.00000000000E+00 -0.45593999997E+02  0.45594000000E+02  0.51100000000E-03 0. -1.
         23    2    1    2    0    0  0.00000000000E+00  0.00000000000E+00  0.00000000000E+00  0.91188000000E+02  0.91188000000E+02 0.  0.
    9900012    2    3    3    0    0 -0.20637431707E+02  0.59526949570E+01 -0.29907180366E+02  0.54367114593E+02  0.40000069337E+02 0.  0.
        -12    1    3    3    0    0  0.20637431707E+02 -0.59526949570E+01  0.29907180366E+02  0.36820885407E+02  0.00000000000E+00 0.  1.
         11    1    4    4    0    0 -0.59051781014E+01 -0.63489882170E+01 -0.31112176284E+02  0.32297806321E+02  0.51100000000E-03 0. -1.
        -11    1    4    4    0    0 -0.32771115243E+01  0.51189389047E+01 -0.43265988169E+01  0.74607273799E+01  0.51100000000E-03 0.  1.
        -12    1    4    4    0    0 -0.11455142082E+02  0.71827442693E+01  0.55315947347E+01  0.14608580891E+02  0.00000000000E+00 0.  1.
</event>
<event>
 8    1  0.2514877E-006  0.9118800E+02  0.7816164E-02  0.1184000E+00
        -11   -1    0    0    0    0  0.00000000000E+00  0.00000000000E+00  0.45593999997E+02  0.45594000000E+02  0.51100000000E-03 0. -1.
         11   -1    0    0    0    0 -0.00000000000E+00 -0.00000000000E+00 -0.45593999997E+02  0.45594000000E+02  0.51100000000E-03 0.  1.
         23    2    1    2    0    0  0.00000000000E+00  0.17763568394E-14  0.00000000000E+00  0.91188000000E+02  0.91188000000E+02 0.  0.
    9900012    2    3    3    0    0  0.53395551870E+01  0.14965614965E+02 -0.33215841051E+02  0.54367182823E+02  0.40000224881E+02 0.  0.
         12    1    3    3    0    0 -0.53395551870E+01 -0.14965614965E+02  0.33215841051E+02  0.36820817177E+02  0.00000000000E+00 0. -1.
         11    1    4    4    0    0  0.11578434714E+02  0.13059469632E+02 -0.45846869605E+01  0.18045200256E+02  0.51100000000E-03 0.  1.
        -11    1    4    4    0    0 -0.36944509523E+01 -0.52208147301E+01  0.31445331506E+00  0.64034955636E+01  0.51100000000E-03 0. -1.
        -12    1    4    4    0    0 -0.25444285747E+01  0.71269600626E+01 -0.28945607405E+02  0.29918487003E+02  0.00000000000E+00 0.  1.
</event>
<event>
 8    1  0.2514877E-006  0.9118800E+02  0.7816164E-02  0.1184000E+00
        -11   -1    0    0    0    0  0.00000000000E+00  0.00000000000E+00  0.45593999997E+02  0.45594000000E+02  0.51100000000E-03 0. -1.
         11   -1    0    0    0    0 -0.00000000000E+00 -0.00000000000E+00 -0.45593999997E+02  0.45594000000E+02  0.51100000000E-03 0.  1.
         23    2    1    2    0    0 -0.17763568394E-14 -0.35527136788E-14  0.00000000000E+00  0.91188000000E+02  0.91188000000E+02 0.  0.
    9900012    2    3    3    0    0  0.15003344049E+02  0.22399362399E+02 -0.25078937107E+02  0.54367016105E+02  0.39999844815E+02 0.  0.
         12    1    3    3    0    0 -0.15003344049E+02 -0.22399362399E+02  0.25078937107E+02  0.36820983895E+02  0.00000000000E+00 0. -1.
         11    1    4    4    0    0 -0.49428867417E+01 -0.81220553305E+01 -0.86214281350E+01  0.12834677070E+02  0.51100000000E-03 0. -1.
        -11    1    4    4    0    0  0.39556742948E+01  0.38932628186E+00 -0.23544388509E+01  0.46197745231E+01  0.51100000000E-03 0.  1.
        -12    1    4    4    0    0  0.15990556496E+02  0.30132091448E+02 -0.14103070122E+02  0.36912564513E+02  0.00000000000E+00 0.  1.
</event>
<event>
 8    1  0.2514877E-006  0.9118800E+02  0.7816164E-02  0.1184000E+00
        -11   -1    0    0    0    0  0.00000000000E+00  0.00000000000E+00  0.45593999997E+02  0.45594000000E+02  0.51100000000E-03 0. -1.
         11   -1    0    0    0    0 -0.00000000000E+00 -0.00000000000E+00 -0.45593999997E+02  0.45594000000E+02  0.51100000000E-03 0.  1.
         23    2    1    2    0    0 -0.17763568394E-14  0.00000000000E+00  0.00000000000E+00  0.91188000000E+02  0.91188000000E+02 0.  0.
    9900012    2    3    3    0    0 -0.35048992641E+01  0.16502690583E+02  0.32728531645E+02  0.54367083404E+02  0.39999998236E+02 0.  0.
        -12    1    3    3    0    0  0.35048992641E+01 -0.16502690583E+02 -0.32728531645E+02  0.36820916596E+02  0.00000000000E+00 0.  1.
         11    1    4    4    0    0  0.11391298438E+01 -0.33271487490E+01  0.14028869567E+02  0.14462942895E+02  0.51100000000E-03 0. -1.
        -11    1    4    4    0    0 -0.16167493643E+02  0.13904500587E+02  0.16022377098E+02  0.26672824286E+02  0.51100000000E-03 0.  1.
        -12    1    4    4    0    0  0.11523464535E+02  0.59253387446E+01  0.26772849806E+01  0.13231316223E+02  0.00000000000E+00 0.  1.
</event>
<event>
 8    1  0.2514877E-006  0.9118800E+02  0.7816164E-02  0.1184000E+00
        -11   -1    0    0    0    0  0.00000000000E+00  0.00000000000E+00  0.45593999997E+02  0.45594000000E+02  0.51100000000E-03 0.  1.
         11   -1    0    0    0    0 -0.00000000000E+00 -0.00000000000E+00 -0.45593999997E+02  0.45594000000E+02  0.51100000000E-03 0. -1.
         23    2    1    2    0    0 -0.66613381478E-15  0.00000000000E+00  0.00000000000E+00  0.91188000000E+02  0.91188000000E+02 0.  0.
    9900012    2    3    3    0    0  0.19543751402E+01  0.10435404944E+02 -0.35257160775E+02  0.54367018964E+02  0.39999851331E+02 0.  0.
        -12    1    3    3    0    0 -0.19543751402E+01 -0.10435404944E+02  0.35257160775E+02  0.36820981036E+02  0.00000000000E+00 0.  1.
         11    1    4    4    0    0 -0.32440527460E+01  0.97688019070E+01 -0.23007786707E+02  0.25205388676E+02  0.51100000000E-03 0. -1.
        -11    1    4    4    0    0 -0.60357042169E+01 -0.91413096641E+01 -0.82738883000E+01  0.13727727257E+02  0.51100000000E-03 0.  1.
         12    1    4    4    0    0  0.11234132103E+02  0.98079127012E+01 -0.39754857687E+01  0.15433903031E+02  0.00000000000E+00 0. -1.
</event>
<event>
 8    1  0.2514877E-006  0.9118800E+02  0.7816164E-02  0.1184000E+00
        -11   -1    0    0    0    0  0.00000000000E+00  0.00000000000E+00  0.45593999997E+02  0.45594000000E+02  0.51100000000E-03 0.  1.
         11   -1    0    0    0    0 -0.00000000000E+00 -0.00000000000E+00 -0.45593999997E+02  0.45594000000E+02  0.51100000000E-03 0. -1.
         23    2    1    2    0    0  0.00000000000E+00  0.17763568394E-14  0.00000000000E+00  0.91188000000E+02  0.91188000000E+02 0.  0.
    9900012    2    3    3    0    0 -0.29508549160E+02 -0.14664659166E+02  0.16430849450E+02  0.54367088609E+02  0.40000010103E+02 0.  0.
        -12    1    3    3    0    0  0.29508549160E+02  0.14664659166E+02 -0.16430849450E+02  0.36820911391E+02  0.00000000000E+00 0.  1.
         11    1    4    4    0    0  0.46372173039E+01  0.36045424662E+01 -0.76036010485E+00  0.59223862138E+01  0.51100000000E-03 0. -1.
        -11    1    4    4    0    0  0.16040258990E+01 -0.47196239624E+01  0.74977981929E+01  0.90035952505E+01  0.51100000000E-03 0.  1.
         12    1    4    4    0    0 -0.35749792363E+02 -0.13549577670E+02  0.96934113619E+01  0.39441107145E+02  0.00000000000E+00 0. -1.
</event>
<event>
 8    1  0.2514877E-006  0.9118800E+02  0.7816164E-02  0.1184000E+00
        -11   -1    0    0    0    0  0.00000000000E+00  0.00000000000E+00  0.45593999997E+02  0.45594000000E+02  0.51100000000E-03 0.  1.
         11   -1    0    0    0    0 -0.00000000000E+00 -0.00000000000E+00 -0.45593999997E+02  0.45594000000E+02  0.51100000000E-03 0. -1.
         23    2    1    2    0    0 -0.35527136788E-14  0.35527136788E-14 -0.19984014443E-14  0.91188000000E+02  0.91188000000E+02 0.  0.
    9900012    2    3    3    0    0  0.30458564826E+02 -0.20644564673E+02 -0.13625493373E+01  0.54367098837E+02  0.40000033418E+02 0.  0.
        -12    1    3    3    0    0 -0.30458564826E+02  0.20644564673E+02  0.13625493373E+01  0.36820901163E+02  0.00000000000E+00 0.  1.
         11    1    4    4    0    0  0.80239934847E+01 -0.64516594098E+01  0.95132544613E+01  0.14018216409E+02  0.51100000000E-03 0. -1.
        -11    1    4    4    0    0  0.92231034375E+01  0.28619439977E+01  0.73271101727E+01  0.12122000834E+02  0.51100000000E-03 0.  1.
         12    1    4    4    0    0  0.13211467903E+02 -0.17054849261E+02 -0.18202913971E+02  0.28226881594E+02  0.00000000000E+00 0. -1.
</event>
<event>
 8    1  0.2514877E-006  0.9118800E+02  0.7816164E-02  0.1184000E+00
        -11   -1    0    0    0    0  0.00000000000E+00  0.00000000000E+00  0.45593999997E+02  0.45594000000E+02  0.51100000000E-03 0.  1.
         11   -1    0    0    0    0 -0.00000000000E+00 -0.00000000000E+00 -0.45593999997E+02  0.45594000000E+02  0.51100000000E-03 0. -1.
         23    2    1    2    0    0 -0.88817841970E-15  0.00000000000E+00 -0.35527136788E-14  0.91188000000E+02  0.91188000000E+02 0.  0.
    9900012    2    3    3    0    0  0.52311349936E+01 -0.18219921961E+02  0.31566578986E+02  0.54367092373E+02  0.40000018683E+02 0.  0.
         12    1    3    3    0    0 -0.52311349936E+01  0.18219921961E+02 -0.31566578986E+02  0.36820907627E+02  0.00000000000E+00 0. -1.
         11    1    4    4    0    0 -0.56278085059E+01 -0.15517133869E+02  0.23606162067E+01  0.16674117104E+02  0.51100000000E-03 0. -1.
        -11    1    4    4    0    0  0.85784187797E+01 -0.17711596333E+00  0.32099310499E+02  0.33226290398E+02  0.51100000000E-03 0.  1.
        -12    1    4    4    0    0  0.22805247198E+01 -0.25256721293E+01 -0.28933477201E+01  0.44666848704E+01  0.00000000000E+00 0.  1.
</event>
<event>
 8    1  0.2514877E-006  0.9118800E+02  0.7816164E-02  0.1184000E+00
        -11   -1    0    0    0    0  0.00000000000E+00  0.00000000000E+00  0.45593999997E+02  0.45594000000E+02  0.51100000000E-03 0.  1.
         11   -1    0    0    0    0 -0.00000000000E+00 -0.00000000000E+00 -0.45593999997E+02  0.45594000000E+02  0.51100000000E-03 0. -1.
         23    2    1    2    0    0 -0.35527136788E-14 -0.35527136788E-14 -0.17763568394E-14  0.91188000000E+02  0.91188000000E+02 0.  0.
    9900012    2    3    3    0    0 -0.28134804386E+02 -0.19752817369E+02  0.13192394735E+02  0.54367078084E+02  0.39999986109E+02 0.  0.
         12    1    3    3    0    0  0.28134804386E+02  0.19752817369E+02 -0.13192394735E+02  0.36820921916E+02  0.00000000000E+00 0. -1.
         11    1    4    4    0    0 -0.23291774757E+02 -0.12420654291E+01 -0.25302824473E+01  0.23461709814E+02  0.51100000000E-03 0. -1.
        -11    1    4    4    0    0 -0.10576090295E+02 -0.17855116015E+02  0.11257648047E+02  0.23609182401E+02  0.51100000000E-03 0.  1.
        -12    1    4    4    0    0  0.57330606654E+01 -0.65563592442E+00  0.44650291357E+01  0.72961858694E+01  0.00000000000E+00 0.  1.
</event>
<event>
 8    1  0.2514877E-006  0.9118800E+02  0.7816164E-02  0.1184000E+00
        -11   -1    0    0    0    0  0.00000000000E+00  0.00000000000E+00  0.45593999997E+02  0.45594000000E+02  0.51100000000E-03 0.  1.
         11   -1    0    0    0    0 -0.00000000000E+00 -0.00000000000E+00 -0.45593999997E+02  0.45594000000E+02  0.51100000000E-03 0. -1.
         23    2    1    2    0    0 -0.88817841970E-15  0.00000000000E+00  0.35527136788E-14  0.91188000000E+02  0.91188000000E+02 0.  0.
    9900012    2    3    3    0    0  0.58782135096E+01 -0.26469074951E+02 -0.24912155456E+02  0.54367071002E+02  0.39999969963E+02 0.  0.
        -12    1    3    3    0    0 -0.58782135096E+01  0.26469074951E+02  0.24912155456E+02  0.36820928998E+02  0.00000000000E+00 0.  1.
         11    1    4    4    0    0  0.11602864183E+02  0.12187678056E+01  0.35790167845E+01  0.12203327973E+02  0.51100000000E-03 0. -1.
        -11    1    4    4    0    0 -0.62136640468E+01 -0.19000636937E+02 -0.11470161887E+02  0.23047742598E+02  0.51100000000E-03 0.  1.
         12    1    4    4    0    0  0.48901337341E+00 -0.86872058202E+01 -0.17021010353E+02  0.19116000431E+02  0.00000000000E+00 0. -1.
</event>
<event>
 8    1  0.2514877E-006  0.9118800E+02  0.7816164E-02  0.1184000E+00
        -11   -1    0    0    0    0  0.00000000000E+00  0.00000000000E+00  0.45593999997E+02  0.45594000000E+02  0.51100000000E-03 0. -1.
         11   -1    0    0    0    0 -0.00000000000E+00 -0.00000000000E+00 -0.45593999997E+02  0.45594000000E+02  0.51100000000E-03 0.  1.
         23    2    1    2    0    0  0.00000000000E+00  0.00000000000E+00  0.00000000000E+00  0.91188000000E+02  0.91188000000E+02 0.  0.
    9900012    2    3    3    0    0 -0.27204354287E+02  0.24479425779E+02  0.40572679669E+01  0.54367073857E+02  0.39999976473E+02 0.  0.
        -12    1    3    3    0    0  0.27204354287E+02 -0.24479425779E+02 -0.40572679669E+01  0.36820926143E+02  0.00000000000E+00 0.  1.
         11    1    4    4    0    0 -0.12851170010E+02 -0.10873463650E+00  0.11999741314E+02  0.17582894690E+02  0.51100000000E-03 0. -1.
        -11    1    4    4    0    0 -0.34023648156E+00  0.21342815512E+02 -0.28976604401E+01  0.21541308482E+02  0.51100000000E-03 0.  1.
         12    1    4    4    0    0 -0.14012947795E+02  0.32453449045E+01 -0.50448129065E+01  0.15242870685E+02  0.00000000000E+00 0. -1.
</event>
<event>
 8    1  0.2514877E-006  0.9118800E+02  0.7816164E-02  0.1184000E+00
        -11   -1    0    0    0    0  0.00000000000E+00  0.00000000000E+00  0.45593999997E+02  0.45594000000E+02  0.51100000000E-03 0.  1.
         11   -1    0    0    0    0 -0.00000000000E+00 -0.00000000000E+00 -0.45593999997E+02  0.45594000000E+02  0.51100000000E-03 0. -1.
         23    2    1    2    0    0 -0.35527136788E-14  0.00000000000E+00  0.00000000000E+00  0.91188000000E+02  0.91188000000E+02 0.  0.
    9900012    2    3    3    0    0 -0.12995189965E+02 -0.33635822680E+02  0.74522773689E+01  0.54367082473E+02  0.39999996113E+02 0.  0.
         12    1    3    3    0    0  0.12995189965E+02  0.33635822680E+02 -0.74522773689E+01  0.36820917527E+02  0.00000000000E+00 0. -1.
         11    1    4    4    0    0 -0.64013570295E+01  0.36994830471E+01  0.21499047195E+01  0.76997166960E+01  0.51100000000E-03 0. -1.
        -11    1    4    4    0    0  0.56664069714E+01 -0.15425458923E+02  0.12388354728E+02  0.20579705636E+02  0.51100000000E-03 0.  1.
         12    1    4    4    0    0 -0.12260239907E+02 -0.21909846804E+02 -0.70859820789E+01  0.26087660140E+02  0.00000000000E+00 0. -1.
</event>
<event>
 8    1  0.2514877E-006  0.9118800E+02  0.7816164E-02  0.1184000E+00
        -11   -1    0    0    0    0  0.00000000000E+00  0.00000000000E+00  0.45593999997E+02  0.45594000000E+02  0.51100000000E-03 0. -1.
         11   -1    0    0    0    0 -0.00000000000E+00 -0.00000000000E+00 -0.45593999997E+02  0.45594000000E+02  0.51100000000E-03 0.  1.
         23    2    1    2    0    0  0.00000000000E+00  0.00000000000E+00  0.00000000000E+00  0.91188000000E+02  0.91188000000E+02 0.  0.
    9900012    2    3    3    0    0  0.14656088130E+02 -0.53245435428E+01 -0.33356091264E+02  0.54367075139E+02  0.39999979395E+02 0.  0.
         12    1    3    3    0    0 -0.14656088130E+02  0.53245435428E+01  0.33356091264E+02  0.36820924861E+02  0.00000000000E+00 0. -1.
         11    1    4    4    0    0  0.22216721885E+02 -0.97686704290E+01 -0.68394384901E+01  0.25214828423E+02  0.51100000000E-03 0. -1.
        -11    1    4    4    0    0  0.64686824515E+00  0.37955878553E+01 -0.94193716876E+01  0.10175926933E+02  0.51100000000E-03 0.  1.
         12    1    4    4    0    0 -0.82075020009E+01  0.64853903091E+00 -0.17097281086E+02  0.18976319783E+02  0.00000000000E+00 0. -1.
</event>
<event>
 8    1  0.2514877E-006  0.9118800E+02  0.7816164E-02  0.1184000E+00
        -11   -1    0    0    0    0  0.00000000000E+00  0.00000000000E+00  0.45593999997E+02  0.45594000000E+02  0.51100000000E-03 0. -1.
         11   -1    0    0    0    0 -0.00000000000E+00 -0.00000000000E+00 -0.45593999997E+02  0.45594000000E+02  0.51100000000E-03 0.  1.
         23    2    1    2    0    0  0.00000000000E+00 -0.88817841970E-15  0.00000000000E+00  0.91188000000E+02  0.91188000000E+02 0.  0.
    9900012    2    3    3    0    0  0.56996410438E+01  0.73698870660E+01  0.35622736616E+02  0.54367075142E+02  0.39999979400E+02 0.  0.
        -12    1    3    3    0    0 -0.56996410438E+01 -0.73698870660E+01 -0.35622736616E+02  0.36820924858E+02  0.00000000000E+00 0.  1.
         11    1    4    4    0    0 -0.78821624003E+01 -0.10524780091E+02  0.17159782402E+02  0.21618455366E+02  0.51100000000E-03 0. -1.
        -11    1    4    4    0    0  0.43739872531E+01  0.16518699186E+02  0.15239492992E+02  0.22896317044E+02  0.51100000000E-03 0.  1.
        -12    1    4    4    0    0  0.92078161910E+01  0.13759679714E+01  0.32234612229E+01  0.98523027319E+01  0.00000000000E+00 0.  1.
</event>
<event>
 8    1  0.2514877E-006  0.9118800E+02  0.7816164E-02  0.1184000E+00
        -11   -1    0    0    0    0  0.00000000000E+00  0.00000000000E+00  0.45593999997E+02  0.45594000000E+02  0.51100000000E-03 0. -1.
         11   -1    0    0    0    0 -0.00000000000E+00 -0.00000000000E+00 -0.45593999997E+02  0.45594000000E+02  0.51100000000E-03 0.  1.
         23    2    1    2    0    0  0.00000000000E+00  0.00000000000E+00  0.00000000000E+00  0.91188000000E+02  0.91188000000E+02 0.  0.
    9900012    2    3    3    0    0 -0.19799132351E+02 -0.12037899624E+02  0.28615801238E+02  0.54367071852E+02  0.39999971900E+02 0.  0.
        -12    1    3    3    0    0  0.19799132351E+02  0.12037899624E+02 -0.28615801238E+02  0.36820928148E+02  0.00000000000E+00 0.  1.
         11    1    4    4    0    0 -0.20025138337E+01 -0.85622162706E+00  0.23971181007E+02  0.24069912676E+02  0.51100000000E-03 0. -1.
        -11    1    4    4    0    0 -0.21686427511E+02 -0.11275317779E+02  0.73899804873E+01  0.25535186333E+02  0.51100000000E-03 0.  1.
         12    1    4    4    0    0  0.38898089933E+01  0.93639782424E-01 -0.27453602561E+01  0.47619728421E+01  0.00000000000E+00 0. -1.
</event>
<event>
 8    1  0.2514877E-006  0.9118800E+02  0.7816164E-02  0.1184000E+00
        -11   -1    0    0    0    0  0.00000000000E+00  0.00000000000E+00  0.45593999997E+02  0.45594000000E+02  0.51100000000E-03 0.  1.
         11   -1    0    0    0    0 -0.00000000000E+00 -0.00000000000E+00 -0.45593999997E+02  0.45594000000E+02  0.51100000000E-03 0. -1.
         23    2    1    2    0    0  0.00000000000E+00  0.00000000000E+00  0.00000000000E+00  0.91188000000E+02  0.91188000000E+02 0.  0.
    9900012    2    3    3    0    0  0.26364985843E+02 -0.16262665886E+02  0.19904631459E+02  0.54367066637E+02  0.39999960013E+02 0.  0.
         12    1    3    3    0    0 -0.26364985843E+02  0.16262665886E+02 -0.19904631459E+02  0.36820933363E+02  0.00000000000E+00 0. -1.
         11    1    4    4    0    0  0.42804736771E+01 -0.14229355585E+02 -0.55548926091E+01  0.15863601339E+02  0.51100000000E-03 0. -1.
        -11    1    4    4    0    0  0.37282023852E+01  0.70807038940E+01  0.10134436355E+02  0.12912887406E+02  0.51100000000E-03 0.  1.
         12    1    4    4    0    0  0.18356309780E+02 -0.91140141951E+01  0.15325087713E+02  0.25590577893E+02  0.00000000000E+00 0. -1.
</event>
<event>
 8    1  0.2514877E-006  0.9118800E+02  0.7816164E-02  0.1184000E+00
        -11   -1    0    0    0    0  0.00000000000E+00  0.00000000000E+00  0.45593999997E+02  0.45594000000E+02  0.51100000000E-03 0.  1.
         11   -1    0    0    0    0 -0.00000000000E+00 -0.00000000000E+00 -0.45593999997E+02  0.45594000000E+02  0.51100000000E-03 0. -1.
         23    2    1    2    0    0  0.35527136788E-14 -0.88817841970E-15  0.00000000000E+00  0.91188000000E+02  0.91188000000E+02 0.  0.
    9900012    2    3    3    0    0  0.16058416987E+02  0.66746075855E+01 -0.32455405504E+02  0.54367129709E+02  0.40000103797E+02 0.  0.
        -12    1    3    3    0    0 -0.16058416987E+02 -0.66746075855E+01  0.32455405504E+02  0.36820870291E+02  0.00000000000E+00 0.  1.
         11    1    4    4    0    0  0.19707688564E+02 -0.85380082186E+01 -0.89314573795E+01  0.23260728795E+02  0.51100000000E-03 0.  1.
        -11    1    4    4    0    0  0.86325696075E+00  0.40513952799E+01 -0.16828631835E+02  0.17330951099E+02  0.51100000000E-03 0. -1.
         12    1    4    4    0    0 -0.45125285378E+01  0.11161220524E+02 -0.66953162894E+01  0.13775449815E+02  0.00000000000E+00 0. -1.
</event>
<event>
 8    1  0.2514877E-006  0.9118800E+02  0.7816164E-02  0.1184000E+00
        -11   -1    0    0    0    0  0.00000000000E+00  0.00000000000E+00  0.45593999997E+02  0.45594000000E+02  0.51100000000E-03 0.  1.
         11   -1    0    0    0    0 -0.00000000000E+00 -0.00000000000E+00 -0.45593999997E+02  0.45594000000E+02  0.51100000000E-03 0. -1.
         23    2    1    2    0    0  0.35527136788E-14  0.35527136788E-14  0.00000000000E+00  0.91188000000E+02  0.91188000000E+02 0.  0.
    9900012    2    3    3    0    0 -0.22677306184E+02  0.22191065687E+02 -0.18683508047E+02  0.54367121615E+02  0.40000085346E+02 0.  0.
        -12    1    3    3    0    0  0.22677306184E+02 -0.22191065687E+02  0.18683508047E+02  0.36820878385E+02  0.00000000000E+00 0.  1.
         11    1    4    4    0    0 -0.13877945198E+02  0.99980595119E+01  0.31691051732E+01  0.17395452991E+02  0.51100000000E-03 0. -1.
        -11    1    4    4    0    0 -0.82020257680E+01  0.18047778478E+02 -0.23610674961E+02  0.30829523302E+02  0.51100000000E-03 0.  1.
        -12    1    4    4    0    0 -0.59733521793E+00 -0.58547723022E+01  0.17580617399E+01  0.61421453218E+01  0.00000000000E+00 0.  1.
</event>
<event>
 8    1  0.2514877E-006  0.9118800E+02  0.7816164E-02  0.1184000E+00
        -11   -1    0    0    0    0  0.00000000000E+00  0.00000000000E+00  0.45593999997E+02  0.45594000000E+02  0.51100000000E-03 0.  1.
         11   -1    0    0    0    0 -0.00000000000E+00 -0.00000000000E+00 -0.45593999997E+02  0.45594000000E+02  0.51100000000E-03 0. -1.
         23    2    1    2    0    0  0.00000000000E+00  0.71054273576E-14 -0.17763568394E-14  0.91188000000E+02  0.91188000000E+02 0.  0.
    9900012    2    3    3    0    0 -0.10182471359E+02  0.34454824215E+02  0.80598970749E+01  0.54367087796E+02  0.40000008249E+02 0.  0.
         12    1    3    3    0    0  0.10182471359E+02 -0.34454824215E+02 -0.80598970749E+01  0.36820912204E+02  0.00000000000E+00 0. -1.
         11    1    4    4    0    0 -0.21101312362E+01  0.71957142743E+01 -0.11888141571E+02  0.14055563597E+02  0.51100000000E-03 0. -1.
        -11    1    4    4    0    0  0.29661909051E+01  0.33135332116E+01  0.11960954381E+02  0.12760964728E+02  0.51100000000E-03 0.  1.
        -12    1    4    4    0    0 -0.11038531028E+02  0.23945576729E+02  0.79870842648E+01  0.27550559472E+02  0.00000000000E+00 0.  1.
</event>
<event>
 8    1  0.2514877E-006  0.9118800E+02  0.7816164E-02  0.1184000E+00
        -11   -1    0    0    0    0  0.00000000000E+00  0.00000000000E+00  0.45593999997E+02  0.45594000000E+02  0.51100000000E-03 0.  1.
         11   -1    0    0    0    0 -0.00000000000E+00 -0.00000000000E+00 -0.45593999997E+02  0.45594000000E+02  0.51100000000E-03 0. -1.
         23    2    1    2    0    0 -0.35527136788E-14  0.00000000000E+00  0.00000000000E+00  0.91188000000E+02  0.91188000000E+02 0.  0.
    9900012    2    3    3    0    0 -0.20979958712E+02  0.24347705741E+02 -0.17967129253E+02  0.54366984587E+02  0.39999772963E+02 0.  0.
        -12    1    3    3    0    0  0.20979958712E+02 -0.24347705741E+02  0.17967129253E+02  0.36821015413E+02  0.00000000000E+00 0.  1.
         11    1    4    4    0    0  0.14799863697E+01 -0.34730028725E+01 -0.68960077745E+01  0.78617448505E+01  0.51100000000E-03 0. -1.
        -11    1    4    4    0    0 -0.82031132608E+01  0.25131869771E+02 -0.16329681600E+02  0.31073468535E+02  0.51100000000E-03 0.  1.
         12    1    4    4    0    0 -0.14256831821E+02  0.26888388422E+01  0.52585601210E+01  0.15431771202E+02  0.00000000000E+00 0. -1.
</event>
<event>
 8    1  0.2514877E-006  0.9118800E+02  0.7816164E-02  0.1184000E+00
        -11   -1    0    0    0    0  0.00000000000E+00  0.00000000000E+00  0.45593999997E+02  0.45594000000E+02  0.51100000000E-03 0.  1.
         11   -1    0    0    0    0 -0.00000000000E+00 -0.00000000000E+00 -0.45593999997E+02  0.45594000000E+02  0.51100000000E-03 0. -1.
         23    2    1    2    0    0  0.00000000000E+00  0.00000000000E+00  0.00000000000E+00  0.91188000000E+02  0.91188000000E+02 0.  0.
    9900012    2    3    3    0    0 -0.24578339065E+02  0.25880618776E+02 -0.90486951310E+01  0.54367081177E+02  0.39999993159E+02 0.  0.
        -12    1    3    3    0    0  0.24578339065E+02 -0.25880618776E+02  0.90486951310E+01  0.36820918823E+02  0.00000000000E+00 0.  1.
         11    1    4    4    0    0  0.20818349659E+00  0.77699208368E+01 -0.11944972713E+02  0.14251223932E+02  0.51100000000E-03 0. -1.
        -11    1    4    4    0    0 -0.12099902545E+02  0.92086775056E+00 -0.95038170235E+01  0.15413571205E+02  0.51100000000E-03 0.  1.
        -12    1    4    4    0    0 -0.12686620016E+02  0.17189830189E+02  0.12400094606E+02  0.24702286040E+02  0.00000000000E+00 0.  1.
</event>
<event>
 8    1  0.2514877E-006  0.9118800E+02  0.7816164E-02  0.1184000E+00
        -11   -1    0    0    0    0  0.00000000000E+00  0.00000000000E+00  0.45593999997E+02  0.45594000000E+02  0.51100000000E-03 0.  1.
         11   -1    0    0    0    0 -0.00000000000E+00 -0.00000000000E+00 -0.45593999997E+02  0.45594000000E+02  0.51100000000E-03 0. -1.
         23    2    1    2    0    0  0.00000000000E+00  0.00000000000E+00  0.00000000000E+00  0.91188000000E+02  0.91188000000E+02 0.  0.
    9900012    2    3    3    0    0  0.25517467047E+02 -0.60998346523E+01  0.25834681326E+02  0.54367083845E+02  0.39999999241E+02 0.  0.
         12    1    3    3    0    0 -0.25517467047E+02  0.60998346523E+01 -0.25834681326E+02  0.36820916155E+02  0.00000000000E+00 0. -1.
         11    1    4    4    0    0  0.30630316161E+02 -0.70861839170E+01  0.27343231575E+02  0.41666324338E+02  0.51100000000E-03 0. -1.
        -11    1    4    4    0    0 -0.61603334573E+01  0.12632742165E+01  0.37567005154E+01  0.73251873065E+01  0.51100000000E-03 0.  1.
         12    1    4    4    0    0  0.10474843428E+01 -0.27692495183E+00 -0.52652507637E+01  0.53755722005E+01  0.00000000000E+00 0. -1.
</event>
<event>
 8    1  0.2514877E-006  0.9118800E+02  0.7816164E-02  0.1184000E+00
        -11   -1    0    0    0    0  0.00000000000E+00  0.00000000000E+00  0.45593999997E+02  0.45594000000E+02  0.51100000000E-03 0. -1.
         11   -1    0    0    0    0 -0.00000000000E+00 -0.00000000000E+00 -0.45593999997E+02  0.45594000000E+02  0.51100000000E-03 0.  1.
         23    2    1    2    0    0  0.00000000000E+00  0.00000000000E+00  0.00000000000E+00  0.91188000000E+02  0.91188000000E+02 0.  0.
    9900012    2    3    3    0    0  0.22367743543E+02  0.88476000370E+01  0.27878018917E+02  0.54367083168E+02  0.39999997698E+02 0.  0.
        -12    1    3    3    0    0 -0.22367743543E+02 -0.88476000370E+01 -0.27878018917E+02  0.36820916832E+02  0.00000000000E+00 0.  1.
         11    1    4    4    0    0  0.35670228209E+01  0.95107064570E+01  0.31843836283E+02  0.33424648070E+02  0.51100000000E-03 0. -1.
        -11    1    4    4    0    0  0.13701299897E+02 -0.20211997203E+01  0.74349112478E+00  0.13869522215E+02  0.51100000000E-03 0.  1.
        -12    1    4    4    0    0  0.50994208260E+01  0.13580933003E+01 -0.47093084916E+01  0.70729128825E+01  0.00000000000E+00 0.  1.
</event>
<event>
 8    1  0.2514877E-006  0.9118800E+02  0.7816164E-02  0.1184000E+00
        -11   -1    0    0    0    0  0.00000000000E+00  0.00000000000E+00  0.45593999997E+02  0.45594000000E+02  0.51100000000E-03 0.  1.
         11   -1    0    0    0    0 -0.00000000000E+00 -0.00000000000E+00 -0.45593999997E+02  0.45594000000E+02  0.51100000000E-03 0. -1.
         23    2    1    2    0    0 -0.17763568394E-14 -0.17763568394E-14 -0.35527136788E-14  0.91188000000E+02  0.91188000000E+02 0.  0.
    9900012    2    3    3    0    0  0.12096412267E+02  0.13634084131E+02  0.31993312543E+02  0.54367034677E+02  0.39999887153E+02 0.  0.
         12    1    3    3    0    0 -0.12096412267E+02 -0.13634084131E+02 -0.31993312543E+02  0.36820965323E+02  0.00000000000E+00 0. -1.
         11    1    4    4    0    0 -0.10270961225E+01  0.72056993490E+00 -0.89537069857E+00  0.15413748489E+01  0.51100000000E-03 0.  1.
        -11    1    4    4    0    0  0.23604724150E+02 -0.12665446064E+01  0.17344683025E+02  0.29319365050E+02  0.51100000000E-03 0. -1.
         12    1    4    4    0    0 -0.10481215761E+02  0.14180058802E+02  0.15544000217E+02  0.23506294778E+02  0.00000000000E+00 0. -1.
</event>
<event>
 8    1  0.2514877E-006  0.9118800E+02  0.7816164E-02  0.1184000E+00
        -11   -1    0    0    0    0  0.00000000000E+00  0.00000000000E+00  0.45593999997E+02  0.45594000000E+02  0.51100000000E-03 0.  1.
         11   -1    0    0    0    0 -0.00000000000E+00 -0.00000000000E+00 -0.45593999997E+02  0.45594000000E+02  0.51100000000E-03 0. -1.
         23    2    1    2    0    0  0.00000000000E+00  0.00000000000E+00  0.00000000000E+00  0.91188000000E+02  0.91188000000E+02 0.  0.
    9900012    2    3    3    0    0  0.25826230785E+02  0.43069353862E+01  0.25888895150E+02  0.54367098584E+02  0.40000032843E+02 0.  0.
         12    1    3    3    0    0 -0.25826230785E+02 -0.43069353862E+01 -0.25888895150E+02  0.36820901416E+02  0.00000000000E+00 0. -1.
         11    1    4    4    0    0 -0.30050538924E+01  0.66015229430E+01  0.35233527809E+01  0.80637751173E+01  0.51100000000E-03 0. -1.
        -11    1    4    4    0    0 -0.40392254584E+01  0.29438040235E+01  0.92757914897E+01  0.10536680334E+02  0.51100000000E-03 0.  1.
         12    1    4    4    0    0  0.32870510136E+02 -0.52383915803E+01  0.13089750879E+02  0.35766643133E+02  0.00000000000E+00 0. -1.
</event>
<event>
 8    1  0.2514877E-006  0.9118800E+02  0.7816164E-02  0.1184000E+00
        -11   -1    0    0    0    0  0.00000000000E+00  0.00000000000E+00  0.45593999997E+02  0.45594000000E+02  0.51100000000E-03 0.  1.
         11   -1    0    0    0    0 -0.00000000000E+00 -0.00000000000E+00 -0.45593999997E+02  0.45594000000E+02  0.51100000000E-03 0. -1.
         23    2    1    2    0    0 -0.71054273576E-14  0.00000000000E+00  0.53290705182E-14  0.91188000000E+02  0.91188000000E+02 0.  0.
    9900012    2    3    3    0    0  0.26494087855E+02  0.20610976499E+02 -0.15133765409E+02  0.54367083404E+02  0.39999998236E+02 0.  0.
        -12    1    3    3    0    0 -0.26494087855E+02 -0.20610976499E+02  0.15133765409E+02  0.36820916596E+02  0.00000000000E+00 0.  1.
         11    1    4    4    0    0  0.10278797353E+01 -0.73381511935E+01  0.16469029634E+01  0.75906053330E+01  0.51100000000E-03 0. -1.
        -11    1    4    4    0    0 -0.25529636400E+01 -0.32396439802E+00  0.14953104438E+01  0.29763282519E+01  0.51100000000E-03 0.  1.
         12    1    4    4    0    0  0.28019171760E+02  0.28273092090E+02 -0.18275978817E+02  0.43800149819E+02  0.00000000000E+00 0. -1.
</event>
<event>
 8    1  0.2514877E-006  0.9118800E+02  0.7816164E-02  0.1184000E+00
        -11   -1    0    0    0    0  0.00000000000E+00  0.00000000000E+00  0.45593999997E+02  0.45594000000E+02  0.51100000000E-03 0.  1.
         11   -1    0    0    0    0 -0.00000000000E+00 -0.00000000000E+00 -0.45593999997E+02  0.45594000000E+02  0.51100000000E-03 0. -1.
         23    2    1    2    0    0  0.35527136788E-14  0.00000000000E+00  0.00000000000E+00  0.91188000000E+02  0.91188000000E+02 0.  0.
    9900012    2    3    3    0    0  0.29131713976E+02 -0.16065018567E+02  0.15780966914E+02  0.54367075277E+02  0.39999979708E+02 0.  0.
         12    1    3    3    0    0 -0.29131713976E+02  0.16065018567E+02 -0.15780966914E+02  0.36820924723E+02  0.00000000000E+00 0. -1.
         11    1    4    4    0    0  0.14794967427E+02 -0.92428603011E+00  0.46056532450E+01  0.15522802837E+02  0.51100000000E-03 0. -1.
        -11    1    4    4    0    0  0.98743893429E+01 -0.10738233103E+02  0.21963677728E+02  0.26366955734E+02  0.51100000000E-03 0.  1.
         12    1    4    4    0    0  0.44623572059E+01 -0.44024994334E+01 -0.10788364059E+02  0.12477316706E+02  0.00000000000E+00 0. -1.
</event>
<event>
 8    1  0.2514877E-006  0.9118800E+02  0.7816164E-02  0.1184000E+00
        -11   -1    0    0    0    0  0.00000000000E+00  0.00000000000E+00  0.45593999997E+02  0.45594000000E+02  0.51100000000E-03 0. -1.
         11   -1    0    0    0    0 -0.00000000000E+00 -0.00000000000E+00 -0.45593999997E+02  0.45594000000E+02  0.51100000000E-03 0.  1.
         23    2    1    2    0    0 -0.71054273576E-14  0.00000000000E+00  0.00000000000E+00  0.91188000000E+02  0.91188000000E+02 0.  0.
    9900012    2    3    3    0    0  0.34639446702E+02 -0.11727497566E+02 -0.42841020296E+01  0.54367095649E+02  0.40000026152E+02 0.  0.
        -12    1    3    3    0    0 -0.34639446702E+02  0.11727497566E+02  0.42841020296E+01  0.36820904351E+02  0.00000000000E+00 0.  1.
         11    1    4    4    0    0  0.29825669992E+01 -0.54511417129E+01  0.96569506472E+01  0.11483350902E+02  0.51100000000E-03 0. -1.
        -11    1    4    4    0    0 -0.41271895736E+01  0.38289379825E+00 -0.17324349859E+01  0.44923972085E+01  0.51100000000E-03 0.  1.
         12    1    4    4    0    0  0.35784069277E+02 -0.66592496511E+01 -0.12208617691E+02  0.38391347539E+02  0.00000000000E+00 0. -1.
</event>
<event>
 8    1  0.2514877E-006  0.9118800E+02  0.7816164E-02  0.1184000E+00
        -11   -1    0    0    0    0  0.00000000000E+00  0.00000000000E+00  0.45593999997E+02  0.45594000000E+02  0.51100000000E-03 0.  1.
         11   -1    0    0    0    0 -0.00000000000E+00 -0.00000000000E+00 -0.45593999997E+02  0.45594000000E+02  0.51100000000E-03 0. -1.
         23    2    1    2    0    0  0.35527136788E-14  0.00000000000E+00  0.00000000000E+00  0.91188000000E+02  0.91188000000E+02 0.  0.
    9900012    2    3    3    0    0 -0.21081524880E+02  0.20666245067E+02  0.22005810980E+02  0.54367080764E+02  0.39999992218E+02 0.  0.
         12    1    3    3    0    0  0.21081524880E+02 -0.20666245067E+02 -0.22005810980E+02  0.36820919236E+02  0.00000000000E+00 0. -1.
         11    1    4    4    0    0 -0.63517267385E+00 -0.27989439919E+01  0.25529493013E+01  0.38412344619E+01  0.51100000000E-03 0. -1.
        -11    1    4    4    0    0 -0.16006006317E+01  0.20871995455E+02  0.23080788515E+02  0.31159668088E+02  0.51100000000E-03 0.  1.
         12    1    4    4    0    0 -0.18845751575E+02  0.25931936044E+01 -0.36279268359E+01  0.19366178214E+02  0.00000000000E+00 0. -1.
</event>
<event>
 8    1  0.2514877E-006  0.9118800E+02  0.7816164E-02  0.1184000E+00
        -11   -1    0    0    0    0  0.00000000000E+00  0.00000000000E+00  0.45593999997E+02  0.45594000000E+02  0.51100000000E-03 0.  1.
         11   -1    0    0    0    0 -0.00000000000E+00 -0.00000000000E+00 -0.45593999997E+02  0.45594000000E+02  0.51100000000E-03 0. -1.
         23    2    1    2    0    0  0.00000000000E+00  0.00000000000E+00 -0.44408920985E-15  0.91188000000E+02  0.91188000000E+02 0.  0.
    9900012    2    3    3    0    0 -0.23241786473E+02 -0.28308160443E+02 -0.37745079423E+01  0.54367088871E+02  0.40000010699E+02 0.  0.
         12    1    3    3    0    0  0.23241786473E+02  0.28308160443E+02  0.37745079423E+01  0.36820911129E+02  0.00000000000E+00 0. -1.
         11    1    4    4    0    0  0.54416656382E+01 -0.75437426952E+01 -0.47862988009E+01  0.10460804713E+02  0.51100000000E-03 0. -1.
        -11    1    4    4    0    0 -0.19133206022E+02 -0.26187197755E+02 -0.20743195355E+01  0.32498487669E+02  0.51100000000E-03 0.  1.
        -12    1    4    4    0    0 -0.95502460895E+01  0.54227800072E+01  0.30861103941E+01  0.11407796489E+02  0.00000000000E+00 0.  1.
</event>
<event>
 8    1  0.2514877E-006  0.9118800E+02  0.7816164E-02  0.1184000E+00
        -11   -1    0    0    0    0  0.00000000000E+00  0.00000000000E+00  0.45593999997E+02  0.45594000000E+02  0.51100000000E-03 0.  1.
         11   -1    0    0    0    0 -0.00000000000E+00 -0.00000000000E+00 -0.45593999997E+02  0.45594000000E+02  0.51100000000E-03 0. -1.
         23    2    1    2    0    0  0.35527136788E-14  0.00000000000E+00  0.00000000000E+00  0.91188000000E+02  0.91188000000E+02 0.  0.
    9900012    2    3    3    0    0  0.18535880579E+02  0.18363358572E+02 -0.25980543609E+02  0.54367075879E+02  0.39999981081E+02 0.  0.
        -12    1    3    3    0    0 -0.18535880579E+02 -0.18363358572E+02  0.25980543609E+02  0.36820924121E+02  0.00000000000E+00 0.  1.
         11    1    4    4    0    0  0.56616451329E+01 -0.32681903496E+01 -0.52650110211E+01  0.83937855039E+01  0.51100000000E-03 0. -1.
        -11    1    4    4    0    0  0.16010235257E+02  0.30050009314E+01  0.20205839733E+01  0.16414640521E+02  0.51100000000E-03 0.  1.
         12    1    4    4    0    0 -0.31359998113E+01  0.18626547991E+02 -0.22736116562E+02  0.29558649854E+02  0.00000000000E+00 0. -1.
</event>
<event>
 8    1  0.2514877E-006  0.9118800E+02  0.7816164E-02  0.1184000E+00
        -11   -1    0    0    0    0  0.00000000000E+00  0.00000000000E+00  0.45593999997E+02  0.45594000000E+02  0.51100000000E-03 0. -1.
         11   -1    0    0    0    0 -0.00000000000E+00 -0.00000000000E+00 -0.45593999997E+02  0.45594000000E+02  0.51100000000E-03 0.  1.
         23    2    1    2    0    0 -0.13322676296E-14 -0.35527136788E-14  0.00000000000E+00  0.91188000000E+02  0.91188000000E+02 0.  0.
    9900012    2    3    3    0    0 -0.31147077371E+01  0.19653001911E+02  0.30981252160E+02  0.54367083745E+02  0.39999999015E+02 0.  0.
        -12    1    3    3    0    0  0.31147077371E+01 -0.19653001911E+02 -0.30981252160E+02  0.36820916255E+02  0.00000000000E+00 0.  1.
         11    1    4    4    0    0  0.88253963198E+01  0.78936507706E+01  0.16133142591E+02  0.20011887287E+02  0.51100000000E-03 0. -1.
        -11    1    4    4    0    0 -0.13963637300E+02  0.17253082982E+02  0.17165196150E+02  0.28058795379E+02  0.51100000000E-03 0.  1.
        -12    1    4    4    0    0  0.20235332427E+01 -0.54937318411E+01 -0.23170865803E+01  0.62964010789E+01  0.00000000000E+00 0.  1.
</event>
<event>
 8    1  0.2514877E-006  0.9118800E+02  0.7816164E-02  0.1184000E+00
        -11   -1    0    0    0    0  0.00000000000E+00  0.00000000000E+00  0.45593999997E+02  0.45594000000E+02  0.51100000000E-03 0.  1.
         11   -1    0    0    0    0 -0.00000000000E+00 -0.00000000000E+00 -0.45593999997E+02  0.45594000000E+02  0.51100000000E-03 0. -1.
         23    2    1    2    0    0  0.00000000000E+00  0.00000000000E+00  0.00000000000E+00  0.91188000000E+02  0.91188000000E+02 0.  0.
    9900012    2    3    3    0    0  0.23864482668E+02 -0.17750236459E+02  0.21707046338E+02  0.54367078120E+02  0.39999986191E+02 0.  0.
         12    1    3    3    0    0 -0.23864482668E+02  0.17750236459E+02 -0.21707046338E+02  0.36820921880E+02  0.00000000000E+00 0. -1.
         11    1    4    4    0    0  0.21876913707E+02  0.39024096861E+01  0.58489178060E+01  0.22979077320E+02  0.51100000000E-03 0. -1.
        -11    1    4    4    0    0  0.57567747459E+01 -0.17114720327E+02  0.17622102229E+02  0.25230786642E+02  0.51100000000E-03 0.  1.
        -12    1    4    4    0    0 -0.37692057856E+01 -0.45379258180E+01 -0.17639736968E+01  0.61572141580E+01  0.00000000000E+00 0.  1.
</event>
<event>
 8    1  0.2514877E-006  0.9118800E+02  0.7816164E-02  0.1184000E+00
        -11   -1    0    0    0    0  0.00000000000E+00  0.00000000000E+00  0.45593999997E+02  0.45594000000E+02  0.51100000000E-03 0.  1.
         11   -1    0    0    0    0 -0.00000000000E+00 -0.00000000000E+00 -0.45593999997E+02  0.45594000000E+02  0.51100000000E-03 0. -1.
         23    2    1    2    0    0  0.17763568394E-14  0.35527136788E-14  0.35527136788E-14  0.91188000000E+02  0.91188000000E+02 0.  0.
    9900012    2    3    3    0    0  0.13761550551E+02  0.29871621195E+02  0.16555509067E+02  0.54367096876E+02  0.40000028949E+02 0.  0.
        -12    1    3    3    0    0 -0.13761550551E+02 -0.29871621195E+02 -0.16555509067E+02  0.36820903124E+02  0.00000000000E+00 0.  1.
         11    1    4    4    0    0  0.75421222754E+01  0.36216131731E+01 -0.98524996286E+01  0.12925611768E+02  0.51100000000E-03 0. -1.
        -11    1    4    4    0    0  0.15289258556E+01 -0.10492467524E+01  0.79314668686E+01  0.81453483638E+01  0.51100000000E-03 0.  1.
         12    1    4    4    0    0  0.46905024202E+01  0.27299254774E+02  0.18476541827E+02  0.33296136744E+02  0.00000000000E+00 0. -1.
</event>
<event>
 8    1  0.2514877E-006  0.9118800E+02  0.7816164E-02  0.1184000E+00
        -11   -1    0    0    0    0  0.00000000000E+00  0.00000000000E+00  0.45593999997E+02  0.45594000000E+02  0.51100000000E-03 0.  1.
         11   -1    0    0    0    0 -0.00000000000E+00 -0.00000000000E+00 -0.45593999997E+02  0.45594000000E+02  0.51100000000E-03 0. -1.
         23    2    1    2    0    0  0.00000000000E+00  0.00000000000E+00  0.00000000000E+00  0.91188000000E+02  0.91188000000E+02 0.  0.
    9900012    2    3    3    0    0 -0.20522004633E+02 -0.19317853330E+02 -0.23694863588E+02  0.54367099795E+02  0.40000035603E+02 0.  0.
        -12    1    3    3    0    0  0.20522004633E+02  0.19317853330E+02  0.23694863588E+02  0.36820900205E+02  0.00000000000E+00 0.  1.
         11    1    4    4    0    0 -0.11407453978E+02 -0.24692911532E+01  0.54103018093E+01  0.12864632563E+02  0.51100000000E-03 0. -1.
        -11    1    4    4    0    0 -0.15148956441E+01 -0.18616793214E+02 -0.10733925832E+02  0.21542912115E+02  0.51100000000E-03 0.  1.
         12    1    4    4    0    0 -0.75996550107E+01  0.17682310367E+01 -0.18371239566E+02  0.19959555117E+02  0.00000000000E+00 0. -1.
</event>
<event>
 8    1  0.2514877E-006  0.9118800E+02  0.7816164E-02  0.1184000E+00
        -11   -1    0    0    0    0  0.00000000000E+00  0.00000000000E+00  0.45593999997E+02  0.45594000000E+02  0.51100000000E-03 0.  1.
         11   -1    0    0    0    0 -0.00000000000E+00 -0.00000000000E+00 -0.45593999997E+02  0.45594000000E+02  0.51100000000E-03 0. -1.
         23    2    1    2    0    0  0.35527136788E-14  0.12767564783E-14  0.35527136788E-14  0.91188000000E+02  0.91188000000E+02 0.  0.
    9900012    2    3    3    0    0 -0.26477683693E+02  0.44076989028E+00  0.25583562297E+02  0.54367072912E+02  0.39999974317E+02 0.  0.
        -12    1    3    3    0    0  0.26477683693E+02 -0.44076989028E+00 -0.25583562297E+02  0.36820927088E+02  0.00000000000E+00 0.  1.
         11    1    4    4    0    0 -0.32540673043E+00  0.92381220798E+01  0.12470009241E+02  0.15522561639E+02  0.51100000000E-03 0. -1.
        -11    1    4    4    0    0  0.25797142641E+01  0.42346626427E+01  0.10571206187E+01  0.50699899059E+01  0.51100000000E-03 0.  1.
         12    1    4    4    0    0 -0.28731991227E+02 -0.13032014832E+02  0.12056432437E+02  0.33774521367E+02  0.00000000000E+00 0. -1.
</event>
<event>
 8    1  0.2514877E-006  0.9118800E+02  0.7816164E-02  0.1184000E+00
        -11   -1    0    0    0    0  0.00000000000E+00  0.00000000000E+00  0.45593999997E+02  0.45594000000E+02  0.51100000000E-03 0.  1.
         11   -1    0    0    0    0 -0.00000000000E+00 -0.00000000000E+00 -0.45593999997E+02  0.45594000000E+02  0.51100000000E-03 0. -1.
         23    2    1    2    0    0  0.00000000000E+00  0.00000000000E+00  0.00000000000E+00  0.91188000000E+02  0.91188000000E+02 0.  0.
    9900012    2    3    3    0    0  0.63131468923E+01 -0.10944772295E+02 -0.34585213878E+02  0.54367070038E+02  0.39999967765E+02 0.  0.
        -12    1    3    3    0    0 -0.63131468923E+01  0.10944772295E+02  0.34585213878E+02  0.36820929962E+02  0.00000000000E+00 0.  1.
         11    1    4    4    0    0  0.83042281962E+01  0.68186709940E+01 -0.17264954088E+01  0.10882796824E+02  0.51100000000E-03 0. -1.
        -11    1    4    4    0    0 -0.47122151714E+01 -0.20821646014E+01  0.17096506004E+01  0.54280094589E+01  0.51100000000E-03 0.  1.
         12    1    4    4    0    0  0.27211338675E+01 -0.15681278688E+02 -0.34568369070E+02  0.38056263755E+02  0.00000000000E+00 0. -1.
</event>
<event>
 8    1  0.2514877E-006  0.9118800E+02  0.7816164E-02  0.1184000E+00
        -11   -1    0    0    0    0  0.00000000000E+00  0.00000000000E+00  0.45593999997E+02  0.45594000000E+02  0.51100000000E-03 0. -1.
         11   -1    0    0    0    0 -0.00000000000E+00 -0.00000000000E+00 -0.45593999997E+02  0.45594000000E+02  0.51100000000E-03 0.  1.
         23    2    1    2    0    0  0.35527136788E-14 -0.35527136788E-14  0.17763568394E-14  0.91188000000E+02  0.91188000000E+02 0.  0.
    9900012    2    3    3    0    0  0.18759710987E+02 -0.27430885594E+02 -0.15855595125E+02  0.54367080164E+02  0.39999990850E+02 0.  0.
         12    1    3    3    0    0 -0.18759710987E+02  0.27430885594E+02  0.15855595125E+02  0.36820919836E+02  0.00000000000E+00 0. -1.
         11    1    4    4    0    0  0.65629480306E+01 -0.97156787832E+01  0.47557483803E+00  0.11734260640E+02  0.51100000000E-03 0. -1.
        -11    1    4    4    0    0 -0.50939034115E+01  0.36463139262E+01 -0.13651354840E+02  0.15020084768E+02  0.51100000000E-03 0.  1.
        -12    1    4    4    0    0  0.17290666368E+02 -0.21361520737E+02 -0.26798151234E+01  0.27612734756E+02  0.00000000000E+00 0.  1.
</event>
<event>
 8    1  0.2514877E-006  0.9118800E+02  0.7816164E-02  0.1184000E+00
        -11   -1    0    0    0    0  0.00000000000E+00  0.00000000000E+00  0.45593999997E+02  0.45594000000E+02  0.51100000000E-03 0.  1.
         11   -1    0    0    0    0 -0.00000000000E+00 -0.00000000000E+00 -0.45593999997E+02  0.45594000000E+02  0.51100000000E-03 0. -1.
         23    2    1    2    0    0  0.88817841970E-15 -0.35527136788E-14  0.00000000000E+00  0.91188000000E+02  0.91188000000E+02 0.  0.
    9900012    2    3    3    0    0  0.74220467070E+01  0.24735370464E+02  0.26246054340E+02  0.54367072558E+02  0.39999973509E+02 0.  0.
         12    1    3    3    0    0 -0.74220467070E+01 -0.24735370464E+02 -0.26246054340E+02  0.36820927442E+02  0.00000000000E+00 0. -1.
         11    1    4    4    0    0 -0.83239063878E+01  0.10878878261E+02  0.48815635273E+01  0.14541907457E+02  0.51100000000E-03 0. -1.
        -11    1    4    4    0    0 -0.11116494602E+01 -0.83162932140E-01  0.17592584426E+02  0.17627867359E+02  0.51100000000E-03 0.  1.
        -12    1    4    4    0    0  0.16857602555E+02  0.13939655136E+02  0.37719063863E+01  0.22197297741E+02  0.00000000000E+00 0.  1.
</event>
<event>
 8    1  0.2514877E-006  0.9118800E+02  0.7816164E-02  0.1184000E+00
        -11   -1    0    0    0    0  0.00000000000E+00  0.00000000000E+00  0.45593999997E+02  0.45594000000E+02  0.51100000000E-03 0. -1.
         11   -1    0    0    0    0 -0.00000000000E+00 -0.00000000000E+00 -0.45593999997E+02  0.45594000000E+02  0.51100000000E-03 0.  1.
         23    2    1    2    0    0 -0.35527136788E-14  0.71054273576E-14 -0.88817841970E-15  0.91188000000E+02  0.91188000000E+02 0.  0.
    9900012    2    3    3    0    0  0.11540264669E+02 -0.34611174879E+02  0.49667622402E+01  0.54367083902E+02  0.39999999372E+02 0.  0.
        -12    1    3    3    0    0 -0.11540264669E+02  0.34611174879E+02 -0.49667622402E+01  0.36820916098E+02  0.00000000000E+00 0.  1.
         11    1    4    4    0    0 -0.60940964381E+00  0.17885518493E+01  0.18235918737E+01  0.26259827521E+01  0.51100000000E-03 0. -1.
        -11    1    4    4    0    0 -0.60577737002E+01  0.33851100948E+01 -0.29973614840E+01  0.75590851751E+01  0.51100000000E-03 0.  1.
        -12    1    4    4    0    0  0.18207448013E+02 -0.39784836823E+02  0.61405318504E+01  0.44182015975E+02  0.00000000000E+00 0.  1.
</event>
<event>
 8    1  0.2514877E-006  0.9118800E+02  0.7816164E-02  0.1184000E+00
        -11   -1    0    0    0    0  0.00000000000E+00  0.00000000000E+00  0.45593999997E+02  0.45594000000E+02  0.51100000000E-03 0. -1.
         11   -1    0    0    0    0 -0.00000000000E+00 -0.00000000000E+00 -0.45593999997E+02  0.45594000000E+02  0.51100000000E-03 0.  1.
         23    2    1    2    0    0  0.00000000000E+00  0.66613381478E-15  0.00000000000E+00  0.91188000000E+02  0.91188000000E+02 0.  0.
    9900012    2    3    3    0    0 -0.18043803782E+02  0.10836007574E+01  0.32078405449E+02  0.54367120846E+02  0.40000083593E+02 0.  0.
        -12    1    3    3    0    0  0.18043803782E+02 -0.10836007574E+01 -0.32078405449E+02  0.36820879154E+02  0.00000000000E+00 0.  1.
         11    1    4    4    0    0 -0.16377787233E+02  0.67114401531E+01  0.12233354448E+02  0.21515815228E+02  0.51100000000E-03 0. -1.
        -11    1    4    4    0    0  0.95972082042E+01 -0.49205537488E+01  0.18595718499E+02  0.21496953302E+02  0.51100000000E-03 0.  1.
         12    1    4    4    0    0 -0.11263224753E+02 -0.70728564688E+00  0.12493325011E+01  0.11354352317E+02  0.00000000000E+00 0. -1.
</event>
<event>
 8    1  0.2514877E-006  0.9118800E+02  0.7816164E-02  0.1184000E+00
        -11   -1    0    0    0    0  0.00000000000E+00  0.00000000000E+00  0.45593999997E+02  0.45594000000E+02  0.51100000000E-03 0. -1.
         11   -1    0    0    0    0 -0.00000000000E+00 -0.00000000000E+00 -0.45593999997E+02  0.45594000000E+02  0.51100000000E-03 0.  1.
         23    2    1    2    0    0  0.00000000000E+00  0.00000000000E+00  0.17763568394E-14  0.91188000000E+02  0.91188000000E+02 0.  0.
    9900012    2    3    3    0    0 -0.15745081127E+02 -0.31477411606E+02  0.10818773013E+02  0.54367070210E+02  0.39999968158E+02 0.  0.
        -12    1    3    3    0    0  0.15745081127E+02  0.31477411606E+02 -0.10818773013E+02  0.36820929790E+02  0.00000000000E+00 0.  1.
         11    1    4    4    0    0 -0.24646355667E+01 -0.17026345231E+01  0.19793425796E+02  0.20018818592E+02  0.51100000000E-03 0. -1.
        -11    1    4    4    0    0 -0.65452208965E+01 -0.12312865003E+02 -0.67765183780E+01  0.15503798333E+02  0.51100000000E-03 0.  1.
         12    1    4    4    0    0 -0.67352246641E+01 -0.17461912080E+02 -0.21981344056E+01  0.18844453285E+02  0.00000000000E+00 0. -1.
</event>
<event>
 8    1  0.2514877E-006  0.9118800E+02  0.7816164E-02  0.1184000E+00
        -11   -1    0    0    0    0  0.00000000000E+00  0.00000000000E+00  0.45593999997E+02  0.45594000000E+02  0.51100000000E-03 0. -1.
         11   -1    0    0    0    0 -0.00000000000E+00 -0.00000000000E+00 -0.45593999997E+02  0.45594000000E+02  0.51100000000E-03 0.  1.
         23    2    1    2    0    0  0.00000000000E+00  0.00000000000E+00 -0.35527136788E-14  0.91188000000E+02  0.91188000000E+02 0.  0.
    9900012    2    3    3    0    0  0.24406441856E+02  0.17619633503E+02  0.21204982553E+02  0.54367120408E+02  0.40000082594E+02 0.  0.
        -12    1    3    3    0    0 -0.24406441856E+02 -0.17619633503E+02 -0.21204982553E+02  0.36820879592E+02  0.00000000000E+00 0.  1.
         11    1    4    4    0    0  0.15361078545E+02  0.40573280114E+01  0.60149987563E+01  0.16988374112E+02  0.51100000000E-03 0. -1.
        -11    1    4    4    0    0  0.20186379464E+02  0.92820992690E+01  0.98977488559E+01  0.24323090169E+02  0.51100000000E-03 0.  1.
        -12    1    4    4    0    0 -0.11141016153E+02  0.42802062226E+01  0.52922349410E+01  0.13055656127E+02  0.00000000000E+00 0.  1.
</event>
<event>
 8    1  0.2514877E-006  0.9118800E+02  0.7816164E-02  0.1184000E+00
        -11   -1    0    0    0    0  0.00000000000E+00  0.00000000000E+00  0.45593999997E+02  0.45594000000E+02  0.51100000000E-03 0. -1.
         11   -1    0    0    0    0 -0.00000000000E+00 -0.00000000000E+00 -0.45593999997E+02  0.45594000000E+02  0.51100000000E-03 0.  1.
         23    2    1    2    0    0  0.00000000000E+00  0.44408920985E-15 -0.22204460493E-15  0.91188000000E+02  0.91188000000E+02 0.  0.
    9900012    2    3    3    0    0 -0.36617784907E+02  0.35723064900E+01 -0.14668979613E+01  0.54367145382E+02  0.40000139527E+02 0.  0.
         12    1    3    3    0    0  0.36617784907E+02 -0.35723064900E+01  0.14668979613E+01  0.36820854618E+02  0.00000000000E+00 0. -1.
         11    1    4    4    0    0  0.12130928701E+01  0.19673810542E+01  0.12221534519E+01  0.26145442902E+01  0.51100000000E-03 0. -1.
        -11    1    4    4    0    0 -0.31720620882E+02  0.94621932573E+01  0.10951686246E+02  0.34866464149E+02  0.51100000000E-03 0.  1.
         12    1    4    4    0    0 -0.61102568956E+01 -0.78572678215E+01 -0.13640737659E+02  0.16886136943E+02  0.00000000000E+00 0. -1.
</event>
<event>
 8    1  0.2514877E-006  0.9118800E+02  0.7816164E-02  0.1184000E+00
        -11   -1    0    0    0    0  0.00000000000E+00  0.00000000000E+00  0.45593999997E+02  0.45594000000E+02  0.51100000000E-03 0.  1.
         11   -1    0    0    0    0 -0.00000000000E+00 -0.00000000000E+00 -0.45593999997E+02  0.45594000000E+02  0.51100000000E-03 0. -1.
         23    2    1    2    0    0 -0.35527136788E-14  0.88817841970E-15  0.35527136788E-14  0.91188000000E+02  0.91188000000E+02 0.  0.
    9900012    2    3    3    0    0 -0.27202083271E+02 -0.64981241058E+01 -0.23949955804E+02  0.54367091073E+02  0.40000015719E+02 0.  0.
        -12    1    3    3    0    0  0.27202083271E+02  0.64981241058E+01  0.23949955804E+02  0.36820908927E+02  0.00000000000E+00 0.  1.
         11    1    4    4    0    0 -0.31283922251E+02 -0.13276057205E+02 -0.22264524040E+02  0.40628149321E+02  0.51100000000E-03 0. -1.
        -11    1    4    4    0    0  0.58800224533E+00 -0.17729867974E+01 -0.38254329231E+01  0.42571312095E+01  0.51100000000E-03 0.  1.
        -12    1    4    4    0    0  0.34938367343E+01  0.85509198962E+01  0.21400011586E+01  0.94818105420E+01  0.00000000000E+00 0.  1.
</event>
<event>
 8    1  0.2514877E-006  0.9118800E+02  0.7816164E-02  0.1184000E+00
        -11   -1    0    0    0    0  0.00000000000E+00  0.00000000000E+00  0.45593999997E+02  0.45594000000E+02  0.51100000000E-03 0.  1.
         11   -1    0    0    0    0 -0.00000000000E+00 -0.00000000000E+00 -0.45593999997E+02  0.45594000000E+02  0.51100000000E-03 0. -1.
         23    2    1    2    0    0 -0.66613381478E-15  0.17763568394E-14  0.00000000000E+00  0.91188000000E+02  0.91188000000E+02 0.  0.
    9900012    2    3    3    0    0 -0.13742859355E+01  0.61466422897E+01 -0.36278212118E+02  0.54367101753E+02  0.40000040065E+02 0.  0.
        -12    1    3    3    0    0  0.13742859355E+01 -0.61466422897E+01  0.36278212118E+02  0.36820898247E+02  0.00000000000E+00 0.  1.
         11    1    4    4    0    0 -0.30343203108E+01 -0.16125621811E+02 -0.18461990547E+02  0.24699956959E+02  0.51100000000E-03 0. -1.
        -11    1    4    4    0    0  0.47080617013E+01  0.10671597432E+02 -0.98675797494E+01  0.15278022356E+02  0.51100000000E-03 0.  1.
         12    1    4    4    0    0 -0.30480273260E+01  0.11600666668E+02 -0.79486418212E+01  0.14389122438E+02  0.00000000000E+00 0. -1.
</event>
<event>
 8    1  0.2514877E-006  0.9118800E+02  0.7816164E-02  0.1184000E+00
        -11   -1    0    0    0    0  0.00000000000E+00  0.00000000000E+00  0.45593999997E+02  0.45594000000E+02  0.51100000000E-03 0. -1.
         11   -1    0    0    0    0 -0.00000000000E+00 -0.00000000000E+00 -0.45593999997E+02  0.45594000000E+02  0.51100000000E-03 0.  1.
         23    2    1    2    0    0  0.00000000000E+00 -0.88817841970E-15  0.11102230246E-14  0.91188000000E+02  0.91188000000E+02 0.  0.
    9900012    2    3    3    0    0  0.36196334720E+02  0.66289561394E+01  0.12891632769E+01  0.54367086803E+02  0.40000005985E+02 0.  0.
        -12    1    3    3    0    0 -0.36196334720E+02 -0.66289561394E+01 -0.12891632769E+01  0.36820913197E+02  0.00000000000E+00 0.  1.
         11    1    4    4    0    0  0.20370407950E+01  0.10045859814E+00  0.11736627282E+02  0.11912516416E+02  0.51100000000E-03 0. -1.
        -11    1    4    4    0    0  0.24545298317E+02 -0.26474136526E+01  0.12928897947E+01  0.24721489291E+02  0.51100000000E-03 0.  1.
         12    1    4    4    0    0  0.96139956087E+01  0.91759111939E+01 -0.11740353800E+02  0.17733081096E+02  0.00000000000E+00 0. -1.
</event>
<event>
 8    1  0.2514877E-006  0.9118800E+02  0.7816164E-02  0.1184000E+00
        -11   -1    0    0    0    0  0.00000000000E+00  0.00000000000E+00  0.45593999997E+02  0.45594000000E+02  0.51100000000E-03 0.  1.
         11   -1    0    0    0    0 -0.00000000000E+00 -0.00000000000E+00 -0.45593999997E+02  0.45594000000E+02  0.51100000000E-03 0. -1.
         23    2    1    2    0    0  0.00000000000E+00  0.35527136788E-14  0.44408920985E-15  0.91188000000E+02  0.91188000000E+02 0.  0.
    9900012    2    3    3    0    0  0.28413309251E+02  0.23083680195E+02 -0.39506536028E+01  0.54367080703E+02  0.39999992079E+02 0.  0.
        -12    1    3    3    0    0 -0.28413309251E+02 -0.23083680195E+02  0.39506536028E+01  0.36820919297E+02  0.00000000000E+00 0.  1.
         11    1    4    4    0    0 -0.96699318698E+00 -0.62634774734E+00 -0.28035375585E+01  0.30310411457E+01  0.51100000000E-03 0. -1.
        -11    1    4    4    0    0  0.23239446732E+02 -0.31672035534E+01 -0.32860817102E+01  0.23683356942E+02  0.51100000000E-03 0.  1.
        -12    1    4    4    0    0  0.61408557059E+01  0.26877231496E+02  0.21389656659E+01  0.27652682615E+02  0.00000000000E+00 0.  1.
</event>
<event>
 8    1  0.2514877E-006  0.9118800E+02  0.7816164E-02  0.1184000E+00
        -11   -1    0    0    0    0  0.00000000000E+00  0.00000000000E+00  0.45593999997E+02  0.45594000000E+02  0.51100000000E-03 0. -1.
         11   -1    0    0    0    0 -0.00000000000E+00 -0.00000000000E+00 -0.45593999997E+02  0.45594000000E+02  0.51100000000E-03 0.  1.
         23    2    1    2    0    0  0.35527136788E-14  0.00000000000E+00  0.00000000000E+00  0.91188000000E+02  0.91188000000E+02 0.  0.
    9900012    2    3    3    0    0  0.21482315071E+02 -0.17828400852E+02  0.24009132246E+02  0.54367079738E+02  0.39999989879E+02 0.  0.
        -12    1    3    3    0    0 -0.21482315071E+02  0.17828400852E+02 -0.24009132246E+02  0.36820920262E+02  0.00000000000E+00 0.  1.
         11    1    4    4    0    0  0.27049446369E+01  0.72917305197E+01  0.14527960740E+02  0.16478704530E+02  0.51100000000E-03 0. -1.
        -11    1    4    4    0    0  0.10583237864E+02 -0.11186066057E+02 -0.49950541788E+01  0.16188995152E+02  0.51100000000E-03 0.  1.
         12    1    4    4    0    0  0.81941325703E+01 -0.13934065315E+02  0.14476225684E+02  0.21699380056E+02  0.00000000000E+00 0. -1.
</event>
<event>
 8    1  0.2514877E-006  0.9118800E+02  0.7816164E-02  0.1184000E+00
        -11   -1    0    0    0    0  0.00000000000E+00  0.00000000000E+00  0.45593999997E+02  0.45594000000E+02  0.51100000000E-03 0.  1.
         11   -1    0    0    0    0 -0.00000000000E+00 -0.00000000000E+00 -0.45593999997E+02  0.45594000000E+02  0.51100000000E-03 0. -1.
         23    2    1    2    0    0  0.35527136788E-14  0.00000000000E+00 -0.35527136788E-14  0.91188000000E+02  0.91188000000E+02 0.  0.
    9900012    2    3    3    0    0 -0.18473939345E+02  0.85359372087E+01  0.30686020376E+02  0.54367075168E+02  0.39999979461E+02 0.  0.
         12    1    3    3    0    0  0.18473939345E+02 -0.85359372087E+01 -0.30686020376E+02  0.36820924832E+02  0.00000000000E+00 0. -1.
         11    1    4    4    0    0 -0.29958122847E-01 -0.27323756431E+01  0.15396707272E+02  0.15637306968E+02  0.51100000000E-03 0. -1.
        -11    1    4    4    0    0  0.35245805775E+01 -0.61768050034E+01  0.80087605818E+00  0.71566047130E+01  0.51100000000E-03 0.  1.
        -12    1    4    4    0    0 -0.21968561799E+02  0.17445117855E+02  0.14488437046E+02  0.31573163487E+02  0.00000000000E+00 0.  1.
</event>
<event>
 8    1  0.2514877E-006  0.9118800E+02  0.7816164E-02  0.1184000E+00
        -11   -1    0    0    0    0  0.00000000000E+00  0.00000000000E+00  0.45593999997E+02  0.45594000000E+02  0.51100000000E-03 0.  1.
         11   -1    0    0    0    0 -0.00000000000E+00 -0.00000000000E+00 -0.45593999997E+02  0.45594000000E+02  0.51100000000E-03 0. -1.
         23    2    1    2    0    0  0.00000000000E+00  0.35527136788E-14 -0.35527136788E-14  0.91188000000E+02  0.91188000000E+02 0.  0.
    9900012    2    3    3    0    0 -0.27218092179E+02 -0.16717842684E+02 -0.18315844753E+02  0.54367068794E+02  0.39999964929E+02 0.  0.
        -12    1    3    3    0    0  0.27218092179E+02  0.16717842684E+02  0.18315844753E+02  0.36820931206E+02  0.00000000000E+00 0.  1.
         11    1    4    4    0    0 -0.23711453511E+02  0.36179373448E+00  0.18838278866E-01  0.23714220996E+02  0.51100000000E-03 0. -1.
        -11    1    4    4    0    0 -0.78437724005E+01 -0.18224068890E+02 -0.13177215436E+02  0.23817650163E+02  0.51100000000E-03 0.  1.
         12    1    4    4    0    0  0.43371337323E+01  0.11444324716E+01 -0.51574675963E+01  0.68351976344E+01  0.00000000000E+00 0. -1.
</event>
<event>
 8    1  0.2514877E-006  0.9118800E+02  0.7816164E-02  0.1184000E+00
        -11   -1    0    0    0    0  0.00000000000E+00  0.00000000000E+00  0.45593999997E+02  0.45594000000E+02  0.51100000000E-03 0. -1.
         11   -1    0    0    0    0 -0.00000000000E+00 -0.00000000000E+00 -0.45593999997E+02  0.45594000000E+02  0.51100000000E-03 0.  1.
         23    2    1    2    0    0  0.00000000000E+00  0.00000000000E+00  0.00000000000E+00  0.91188000000E+02  0.91188000000E+02 0.  0.
    9900012    2    3    3    0    0 -0.35902919505E+02  0.59376861118E+01  0.56128044357E+01  0.54367091279E+02  0.40000016190E+02 0.  0.
         12    1    3    3    0    0  0.35902919505E+02 -0.59376861118E+01 -0.56128044357E+01  0.36820908721E+02  0.00000000000E+00 0. -1.
         11    1    4    4    0    0  0.54917001058E+01 -0.47708579470E+01 -0.64755670981E+01  0.97392415057E+01  0.51100000000E-03 0. -1.
        -11    1    4    4    0    0 -0.15003833434E+02  0.59631776615E+01  0.45672596246E+01  0.16778985854E+02  0.51100000000E-03 0.  1.
         12    1    4    4    0    0 -0.26390786177E+02  0.47453663974E+01  0.75211119092E+01  0.27848863920E+02  0.00000000000E+00 0. -1.
</event>
<event>
 8    1  0.2514877E-006  0.9118800E+02  0.7816164E-02  0.1184000E+00
        -11   -1    0    0    0    0  0.00000000000E+00  0.00000000000E+00  0.45593999997E+02  0.45594000000E+02  0.51100000000E-03 0.  1.
         11   -1    0    0    0    0 -0.00000000000E+00 -0.00000000000E+00 -0.45593999997E+02  0.45594000000E+02  0.51100000000E-03 0. -1.
         23    2    1    2    0    0  0.35527136788E-14  0.00000000000E+00 -0.44408920985E-14  0.91188000000E+02  0.91188000000E+02 0.  0.
    9900012    2    3    3    0    0 -0.31579846561E+02  0.17661695027E+02  0.68233751284E+01  0.54367073501E+02  0.39999975661E+02 0.  0.
        -12    1    3    3    0    0  0.31579846561E+02 -0.17661695027E+02 -0.68233751284E+01  0.36820926499E+02  0.00000000000E+00 0.  1.
         11    1    4    4    0    0 -0.65606465592E+01  0.15454265260E+01 -0.48964991427E+01  0.83310341817E+01  0.51100000000E-03 0. -1.
        -11    1    4    4    0    0 -0.14342042978E+02  0.79544878540E+00 -0.99169672809E+01  0.17454889741E+02  0.51100000000E-03 0.  1.
        -12    1    4    4    0    0 -0.10677157024E+02  0.15320819716E+02  0.21636841552E+02  0.28581149578E+02  0.00000000000E+00 0.  1.
</event>
<event>
 8    1  0.2514877E-006  0.9118800E+02  0.7816164E-02  0.1184000E+00
        -11   -1    0    0    0    0  0.00000000000E+00  0.00000000000E+00  0.45593999997E+02  0.45594000000E+02  0.51100000000E-03 0.  1.
         11   -1    0    0    0    0 -0.00000000000E+00 -0.00000000000E+00 -0.45593999997E+02  0.45594000000E+02  0.51100000000E-03 0. -1.
         23    2    1    2    0    0  0.00000000000E+00  0.00000000000E+00  0.00000000000E+00  0.91188000000E+02  0.91188000000E+02 0.  0.
    9900012    2    3    3    0    0  0.10222885373E+02 -0.10022492849E+02  0.33923764984E+02  0.54367087749E+02  0.40000008142E+02 0.  0.
         12    1    3    3    0    0 -0.10222885373E+02  0.10022492849E+02 -0.33923764984E+02  0.36820912251E+02  0.00000000000E+00 0. -1.
         11    1    4    4    0    0  0.54028188327E+01  0.98821182066E+01  0.16323482937E+02  0.19831863429E+02  0.51100000000E-03 0. -1.
        -11    1    4    4    0    0 -0.61943657853E+01  0.61304717719E+00  0.21354394715E+01  0.65807367613E+01  0.51100000000E-03 0.  1.
        -12    1    4    4    0    0  0.11014432326E+02 -0.20517658233E+02  0.15464842575E+02  0.27954487559E+02  0.00000000000E+00 0.  1.
</event>
<event>
 8    1  0.2514877E-006  0.9118800E+02  0.7816164E-02  0.1184000E+00
        -11   -1    0    0    0    0  0.00000000000E+00  0.00000000000E+00  0.45593999997E+02  0.45594000000E+02  0.51100000000E-03 0.  1.
         11   -1    0    0    0    0 -0.00000000000E+00 -0.00000000000E+00 -0.45593999997E+02  0.45594000000E+02  0.51100000000E-03 0. -1.
         23    2    1    2    0    0  0.00000000000E+00 -0.17763568394E-14  0.00000000000E+00  0.91188000000E+02  0.91188000000E+02 0.  0.
    9900012    2    3    3    0    0 -0.34986598714E+02  0.11243413217E+02  0.23028476357E+01  0.54367088311E+02  0.40000009423E+02 0.  0.
        -12    1    3    3    0    0  0.34986598714E+02 -0.11243413217E+02 -0.23028476357E+01  0.36820911689E+02  0.00000000000E+00 0.  1.
         11    1    4    4    0    0 -0.31663826816E+02  0.11984767724E+02  0.29255393119E+01  0.33982221330E+02  0.51100000000E-03 0. -1.
        -11    1    4    4    0    0 -0.61890256906E+01 -0.93949862401E+01 -0.64632495372E+00  0.11268874906E+02  0.51100000000E-03 0.  1.
         12    1    4    4    0    0  0.28662537922E+01  0.86536317329E+01  0.23633277519E-01  0.91159920745E+01  0.00000000000E+00 0. -1.
</event>
<event>
 8    1  0.2514877E-006  0.9118800E+02  0.7816164E-02  0.1184000E+00
        -11   -1    0    0    0    0  0.00000000000E+00  0.00000000000E+00  0.45593999997E+02  0.45594000000E+02  0.51100000000E-03 0. -1.
         11   -1    0    0    0    0 -0.00000000000E+00 -0.00000000000E+00 -0.45593999997E+02  0.45594000000E+02  0.51100000000E-03 0.  1.
         23    2    1    2    0    0 -0.17763568394E-14  0.13322676296E-14 -0.71054273576E-14  0.91188000000E+02  0.91188000000E+02 0.  0.
    9900012    2    3    3    0    0  0.11146935716E+02 -0.29842027704E+01  0.34965989150E+02  0.54367081499E+02  0.39999993893E+02 0.  0.
        -12    1    3    3    0    0 -0.11146935716E+02  0.29842027704E+01 -0.34965989150E+02  0.36820918501E+02  0.00000000000E+00 0.  1.
         11    1    4    4    0    0 -0.38392985275E+01  0.16114613106E+02  0.11143714625E+02  0.19965053084E+02  0.51100000000E-03 0. -1.
        -11    1    4    4    0    0  0.45486025241E+01 -0.43092524329E+01  0.92058425793E+01  0.11135842101E+02  0.51100000000E-03 0.  1.
         12    1    4    4    0    0  0.10437631719E+02 -0.14789563443E+02  0.14616431946E+02  0.23266186313E+02  0.00000000000E+00 0. -1.
</event>
<event>
 8    1  0.2514877E-006  0.9118800E+02  0.7816164E-02  0.1184000E+00
        -11   -1    0    0    0    0  0.00000000000E+00  0.00000000000E+00  0.45593999997E+02  0.45594000000E+02  0.51100000000E-03 0. -1.
         11   -1    0    0    0    0 -0.00000000000E+00 -0.00000000000E+00 -0.45593999997E+02  0.45594000000E+02  0.51100000000E-03 0.  1.
         23    2    1    2    0    0  0.22204460493E-14 -0.35527136788E-14  0.00000000000E+00  0.91188000000E+02  0.91188000000E+02 0.  0.
    9900012    2    3    3    0    0  0.10240129236E+01 -0.25197987994E+02 -0.26828956880E+02  0.54367080285E+02  0.39999991125E+02 0.  0.
         12    1    3    3    0    0 -0.10240129236E+01  0.25197987994E+02  0.26828956880E+02  0.36820919715E+02  0.00000000000E+00 0. -1.
         11    1    4    4    0    0 -0.11423357173E+02 -0.24019382460E+02 -0.96251505270E+01  0.28285461739E+02  0.51100000000E-03 0.  1.
        -11    1    4    4    0    0  0.14092238606E+02 -0.49892712904E+01 -0.10768795599E+02  0.18424195393E+02  0.51100000000E-03 0. -1.
        -12    1    4    4    0    0 -0.16448685098E+01  0.38106657571E+01 -0.64350107546E+01  0.76574231526E+01  0.00000000000E+00 0.  1.
</event>
<event>
 8    1  0.2514877E-006  0.9118800E+02  0.7816164E-02  0.1184000E+00
        -11   -1    0    0    0    0  0.00000000000E+00  0.00000000000E+00  0.45593999997E+02  0.45594000000E+02  0.51100000000E-03 0. -1.
         11   -1    0    0    0    0 -0.00000000000E+00 -0.00000000000E+00 -0.45593999997E+02  0.45594000000E+02  0.51100000000E-03 0.  1.
         23    2    1    2    0    0  0.35527136788E-14  0.35527136788E-14 -0.88817841970E-15  0.91188000000E+02  0.91188000000E+02 0.  0.
    9900012    2    3    3    0    0  0.18648781236E+02  0.31617804416E+02  0.28840911119E+01  0.54367074167E+02  0.39999977178E+02 0.  0.
        -12    1    3    3    0    0 -0.18648781236E+02 -0.31617804416E+02 -0.28840911119E+01  0.36820925833E+02  0.00000000000E+00 0.  1.
         11    1    4    4    0    0  0.24629415026E+02  0.77682853070E+01  0.11135037761E+02  0.28123716101E+02  0.51100000000E-03 0. -1.
        -11    1    4    4    0    0  0.24005426867E+00  0.20570944564E+01 -0.16227472786E+01  0.26310782288E+01  0.51100000000E-03 0.  1.
         12    1    4    4    0    0 -0.62206880590E+01  0.21792424653E+02 -0.66281993709E+01  0.23612279837E+02  0.00000000000E+00 0. -1.
</event>
<event>
 8    1  0.2514877E-006  0.9118800E+02  0.7816164E-02  0.1184000E+00
        -11   -1    0    0    0    0  0.00000000000E+00  0.00000000000E+00  0.45593999997E+02  0.45594000000E+02  0.51100000000E-03 0. -1.
         11   -1    0    0    0    0 -0.00000000000E+00 -0.00000000000E+00 -0.45593999997E+02  0.45594000000E+02  0.51100000000E-03 0.  1.
         23    2    1    2    0    0  0.71054273576E-14  0.00000000000E+00  0.00000000000E+00  0.91188000000E+02  0.91188000000E+02 0.  0.
    9900012    2    3    3    0    0 -0.33739784106E+02  0.30982452908E+01 -0.14415540990E+02  0.54367082339E+02  0.39999995808E+02 0.  0.
         12    1    3    3    0    0  0.33739784106E+02 -0.30982452908E+01  0.14415540990E+02  0.36820917661E+02  0.00000000000E+00 0. -1.
         11    1    4    4    0    0  0.31577798165E+01  0.17629279041E+01 -0.20243177472E+01  0.41445567637E+01  0.51100000000E-03 0. -1.
        -11    1    4    4    0    0 -0.32663206462E+02  0.93383538828E-01  0.43115572911E+01  0.32946673632E+02  0.51100000000E-03 0.  1.
        -12    1    4    4    0    0 -0.42343574599E+01  0.12419338479E+01 -0.16702780534E+02  0.17275851943E+02  0.00000000000E+00 0.  1.
</event>
<event>
 8    1  0.2514877E-006  0.9118800E+02  0.7816164E-02  0.1184000E+00
        -11   -1    0    0    0    0  0.00000000000E+00  0.00000000000E+00  0.45593999997E+02  0.45594000000E+02  0.51100000000E-03 0.  1.
         11   -1    0    0    0    0 -0.00000000000E+00 -0.00000000000E+00 -0.45593999997E+02  0.45594000000E+02  0.51100000000E-03 0. -1.
         23    2    1    2    0    0  0.22204460493E-14  0.00000000000E+00  0.00000000000E+00  0.91188000000E+02  0.91188000000E+02 0.  0.
    9900012    2    3    3    0    0 -0.21739974694E+01 -0.25329123152E+02  0.26636226590E+02  0.54367091381E+02  0.40000016420E+02 0.  0.
         12    1    3    3    0    0  0.21739974694E+01  0.25329123152E+02 -0.26636226590E+02  0.36820908619E+02  0.00000000000E+00 0. -1.
         11    1    4    4    0    0 -0.19550942869E+01  0.60249904464E+01  0.65218537456E+01  0.90916159229E+01  0.51100000000E-03 0.  1.
        -11    1    4    4    0    0  0.10056491401E+02 -0.32111312506E+01  0.43135481444E+01  0.11403994084E+02  0.51100000000E-03 0. -1.
        -12    1    4    4    0    0 -0.10275394584E+02 -0.28142982348E+02  0.15800824700E+02  0.33871481374E+02  0.00000000000E+00 0.  1.
</event>
<event>
 8    1  0.2514877E-006  0.9118800E+02  0.7816164E-02  0.1184000E+00
        -11   -1    0    0    0    0  0.00000000000E+00  0.00000000000E+00  0.45593999997E+02  0.45594000000E+02  0.51100000000E-03 0.  1.
         11   -1    0    0    0    0 -0.00000000000E+00 -0.00000000000E+00 -0.45593999997E+02  0.45594000000E+02  0.51100000000E-03 0. -1.
         23    2    1    2    0    0 -0.88817841970E-15  0.00000000000E+00  0.00000000000E+00  0.91188000000E+02  0.91188000000E+02 0.  0.
    9900012    2    3    3    0    0 -0.61465257245E+01  0.29929528381E+02  0.20548077426E+02  0.54367082935E+02  0.39999997168E+02 0.  0.
         12    1    3    3    0    0  0.61465257245E+01 -0.29929528381E+02 -0.20548077426E+02  0.36820917065E+02  0.00000000000E+00 0. -1.
         11    1    4    4    0    0 -0.70847303207E+01 -0.10899076713E+01  0.74370031950E+01  0.10329100601E+02  0.51100000000E-03 0. -1.
        -11    1    4    4    0    0  0.11750779757E+02  0.66042144976E+01  0.10731791657E+02  0.17229852770E+02  0.51100000000E-03 0.  1.
         12    1    4    4    0    0 -0.10812575161E+02  0.24415221554E+02  0.23792825737E+01  0.26808129564E+02  0.00000000000E+00 0. -1.
</event>
<event>
 8    1  0.2514877E-006  0.9118800E+02  0.7816164E-02  0.1184000E+00
        -11   -1    0    0    0    0  0.00000000000E+00  0.00000000000E+00  0.45593999997E+02  0.45594000000E+02  0.51100000000E-03 0.  1.
         11   -1    0    0    0    0 -0.00000000000E+00 -0.00000000000E+00 -0.45593999997E+02  0.45594000000E+02  0.51100000000E-03 0. -1.
         23    2    1    2    0    0 -0.88817841970E-15  0.00000000000E+00  0.17763568394E-14  0.91188000000E+02  0.91188000000E+02 0.  0.
    9900012    2    3    3    0    0  0.62013611197E+01 -0.34918745788E+02  0.98996194572E+01  0.54367107119E+02  0.40000052300E+02 0.  0.
         12    1    3    3    0    0 -0.62013611197E+01  0.34918745788E+02 -0.98996194572E+01  0.36820892881E+02  0.00000000000E+00 0. -1.
         11    1    4    4    0    0  0.14188361637E+02 -0.40076834563E+02  0.10213710190E+02  0.43723931098E+02  0.51100000000E-03 0. -1.
        -11    1    4    4    0    0 -0.31738939326E+01  0.24980759801E+01  0.21968126039E+01  0.45978225472E+01  0.51100000000E-03 0.  1.
         12    1    4    4    0    0 -0.48131065849E+01  0.26600127948E+01 -0.25109033365E+01  0.60453534744E+01  0.00000000000E+00 0. -1.
</event>
<event>
 8    1  0.2514877E-006  0.9118800E+02  0.7816164E-02  0.1184000E+00
        -11   -1    0    0    0    0  0.00000000000E+00  0.00000000000E+00  0.45593999997E+02  0.45594000000E+02  0.51100000000E-03 0.  1.
         11   -1    0    0    0    0 -0.00000000000E+00 -0.00000000000E+00 -0.45593999997E+02  0.45594000000E+02  0.51100000000E-03 0. -1.
         23    2    1    2    0    0  0.35527136788E-14  0.00000000000E+00  0.00000000000E+00  0.91188000000E+02  0.91188000000E+02 0.  0.
    9900012    2    3    3    0    0 -0.20097584939E+02 -0.27527197969E+02 -0.13932702542E+02  0.54367085447E+02  0.40000002893E+02 0.  0.
        -12    1    3    3    0    0  0.20097584939E+02  0.27527197969E+02  0.13932702542E+02  0.36820914553E+02  0.00000000000E+00 0.  1.
         11    1    4    4    0    0  0.18725598806E+01 -0.19695850768E+02  0.17313146727E+01  0.19860273632E+02  0.51100000000E-03 0. -1.
        -11    1    4    4    0    0 -0.13831045979E+02  0.79741490049E+00 -0.17694190855E+02  0.22472607630E+02  0.51100000000E-03 0.  1.
         12    1    4    4    0    0 -0.81390988414E+01 -0.86287621010E+01  0.20301736404E+01  0.12034204185E+02  0.00000000000E+00 0. -1.
</event>
<event>
 8    1  0.2514877E-006  0.9118800E+02  0.7816164E-02  0.1184000E+00
        -11   -1    0    0    0    0  0.00000000000E+00  0.00000000000E+00  0.45593999997E+02  0.45594000000E+02  0.51100000000E-03 0. -1.
         11   -1    0    0    0    0 -0.00000000000E+00 -0.00000000000E+00 -0.45593999997E+02  0.45594000000E+02  0.51100000000E-03 0.  1.
         23    2    1    2    0    0  0.00000000000E+00  0.00000000000E+00  0.00000000000E+00  0.91188000000E+02  0.91188000000E+02 0.  0.
    9900012    2    3    3    0    0  0.81056947517E+01  0.35473949801E+02 -0.56281915942E+01  0.54367082812E+02  0.39999996887E+02 0.  0.
         12    1    3    3    0    0 -0.81056947517E+01 -0.35473949801E+02  0.56281915942E+01  0.36820917188E+02  0.00000000000E+00 0. -1.
         11    1    4    4    0    0  0.10406516627E+02  0.38270365019E+02 -0.36779645035E+00  0.39661715816E+02  0.51100000000E-03 0. -1.
        -11    1    4    4    0    0 -0.39703032918E+01  0.18347151407E+01  0.28482170904E+01  0.52193705302E+01  0.51100000000E-03 0.  1.
         12    1    4    4    0    0  0.16694814165E+01 -0.46311303578E+01 -0.81086122342E+01  0.94859964662E+01  0.00000000000E+00 0. -1.
</event>
<event>
 8    1  0.2514877E-006  0.9118800E+02  0.7816164E-02  0.1184000E+00
        -11   -1    0    0    0    0  0.00000000000E+00  0.00000000000E+00  0.45593999997E+02  0.45594000000E+02  0.51100000000E-03 0.  1.
         11   -1    0    0    0    0 -0.00000000000E+00 -0.00000000000E+00 -0.45593999997E+02  0.45594000000E+02  0.51100000000E-03 0. -1.
         23    2    1    2    0    0 -0.17763568394E-14  0.00000000000E+00 -0.35527136788E-14  0.91188000000E+02  0.91188000000E+02 0.  0.
    9900012    2    3    3    0    0  0.14009317975E+02 -0.21607699244E+02  0.26317753156E+02  0.54367112071E+02  0.40000063587E+02 0.  0.
         12    1    3    3    0    0 -0.14009317975E+02  0.21607699244E+02 -0.26317753156E+02  0.36820887929E+02  0.00000000000E+00 0. -1.
         11    1    4    4    0    0  0.12848749507E+02 -0.57578348296E+01  0.96998526095E+01  0.17097665535E+02  0.51100000000E-03 0. -1.
        -11    1    4    4    0    0  0.80875842810E+01 -0.11129386608E+02  0.22954390315E+02  0.26761470452E+02  0.51100000000E-03 0.  1.
        -12    1    4    4    0    0 -0.69270158129E+01 -0.47204778063E+01 -0.63364897687E+01  0.10507976084E+02  0.00000000000E+00 0.  1.
</event>
<event>
 8    1  0.2514877E-006  0.9118800E+02  0.7816164E-02  0.1184000E+00
        -11   -1    0    0    0    0  0.00000000000E+00  0.00000000000E+00  0.45593999997E+02  0.45594000000E+02  0.51100000000E-03 0. -1.
         11   -1    0    0    0    0 -0.00000000000E+00 -0.00000000000E+00 -0.45593999997E+02  0.45594000000E+02  0.51100000000E-03 0.  1.
         23    2    1    2    0    0  0.00000000000E+00  0.35527136788E-14 -0.88817841970E-15  0.91188000000E+02  0.91188000000E+02 0.  0.
    9900012    2    3    3    0    0  0.21808645220E+02  0.29606313817E+02 -0.19046765628E+01  0.54367100812E+02  0.40000037922E+02 0.  0.
        -12    1    3    3    0    0 -0.21808645220E+02 -0.29606313817E+02  0.19046765628E+01  0.36820899188E+02  0.00000000000E+00 0.  1.
         11    1    4    4    0    0  0.40423963440E+01  0.11260100772E+01  0.11680227379E+02  0.12411147359E+02  0.51100000000E-03 0. -1.
        -11    1    4    4    0    0 -0.32698340869E+01  0.12587414374E+02 -0.19994900470E+01  0.13157992867E+02  0.51100000000E-03 0.  1.
         12    1    4    4    0    0  0.21036082962E+02  0.15892889366E+02 -0.11585413894E+02  0.28797960586E+02  0.00000000000E+00 0. -1.
</event>
<event>
 8    1  0.2514877E-006  0.9118800E+02  0.7816164E-02  0.1184000E+00
        -11   -1    0    0    0    0  0.00000000000E+00  0.00000000000E+00  0.45593999997E+02  0.45594000000E+02  0.51100000000E-03 0.  1.
         11   -1    0    0    0    0 -0.00000000000E+00 -0.00000000000E+00 -0.45593999997E+02  0.45594000000E+02  0.51100000000E-03 0. -1.
         23    2    1    2    0    0  0.00000000000E+00  0.00000000000E+00  0.17763568394E-14  0.91188000000E+02  0.91188000000E+02 0.  0.
    9900012    2    3    3    0    0  0.24923830231E+02 -0.23279187258E+02 -0.13880246546E+02  0.54367094024E+02  0.40000022446E+02 0.  0.
        -12    1    3    3    0    0 -0.24923830231E+02  0.23279187258E+02  0.13880246546E+02  0.36820905976E+02  0.00000000000E+00 0.  1.
         11    1    4    4    0    0  0.29503666126E+02 -0.11881996501E+02  0.13337699592E+01  0.31834369764E+02  0.51100000000E-03 0. -1.
        -11    1    4    4    0    0 -0.40357050916E+01 -0.17148356530E+01 -0.11217103085E+02  0.12043711171E+02  0.51100000000E-03 0.  1.
        -12    1    4    4    0    0 -0.54413080316E+00 -0.96823551034E+01 -0.39969134199E+01  0.10489013088E+02  0.00000000000E+00 0.  1.
</event>
<event>
 8    1  0.2514877E-006  0.9118800E+02  0.7816164E-02  0.1184000E+00
        -11   -1    0    0    0    0  0.00000000000E+00  0.00000000000E+00  0.45593999997E+02  0.45594000000E+02  0.51100000000E-03 0.  1.
         11   -1    0    0    0    0 -0.00000000000E+00 -0.00000000000E+00 -0.45593999997E+02  0.45594000000E+02  0.51100000000E-03 0. -1.
         23    2    1    2    0    0 -0.88817841970E-15  0.00000000000E+00  0.17763568394E-14  0.91188000000E+02  0.91188000000E+02 0.  0.
    9900012    2    3    3    0    0 -0.74352518298E+01  0.32951359454E+02 -0.14652742169E+02  0.54367110376E+02  0.40000059724E+02 0.  0.
        -12    1    3    3    0    0  0.74352518298E+01 -0.32951359454E+02  0.14652742169E+02  0.36820889624E+02  0.00000000000E+00 0.  1.
         11    1    4    4    0    0 -0.17873454565E+01  0.18992690448E+02 -0.15650389666E+02  0.24674918261E+02  0.51100000000E-03 0. -1.
        -11    1    4    4    0    0  0.86930176489E+01  0.12246749299E+02  0.22891234423E+01  0.15191823809E+02  0.51100000000E-03 0.  1.
         12    1    4    4    0    0 -0.14340924022E+02  0.17119197070E+01 -0.12914759452E+01  0.14500368306E+02  0.00000000000E+00 0. -1.
</event>
<event>
 8    1  0.2514877E-006  0.9118800E+02  0.7816164E-02  0.1184000E+00
        -11   -1    0    0    0    0  0.00000000000E+00  0.00000000000E+00  0.45593999997E+02  0.45594000000E+02  0.51100000000E-03 0.  1.
         11   -1    0    0    0    0 -0.00000000000E+00 -0.00000000000E+00 -0.45593999997E+02  0.45594000000E+02  0.51100000000E-03 0. -1.
         23    2    1    2    0    0  0.00000000000E+00  0.00000000000E+00 -0.35527136788E-14  0.91188000000E+02  0.91188000000E+02 0.  0.
    9900012    2    3    3    0    0  0.18738185484E+02 -0.18157091282E+02  0.25980370923E+02  0.54367092456E+02  0.40000018872E+02 0.  0.
         12    1    3    3    0    0 -0.18738185484E+02  0.18157091282E+02 -0.25980370923E+02  0.36820907544E+02  0.00000000000E+00 0. -1.
         11    1    4    4    0    0  0.20634536070E+02 -0.27614617530E+01  0.12606492425E+02  0.24337900513E+02  0.51100000000E-03 0.  1.
        -11    1    4    4    0    0 -0.13143457007E+01 -0.20607456684E+02  0.13690396691E+02  0.24775426080E+02  0.51100000000E-03 0. -1.
        -12    1    4    4    0    0 -0.58200488590E+00  0.52118271552E+01 -0.31651819250E+00  0.52537658636E+01  0.00000000000E+00 0.  1.
</event>
<event>
 8    1  0.2514877E-006  0.9118800E+02  0.7816164E-02  0.1184000E+00
        -11   -1    0    0    0    0  0.00000000000E+00  0.00000000000E+00  0.45593999997E+02  0.45594000000E+02  0.51100000000E-03 0. -1.
         11   -1    0    0    0    0 -0.00000000000E+00 -0.00000000000E+00 -0.45593999997E+02  0.45594000000E+02  0.51100000000E-03 0.  1.
         23    2    1    2    0    0 -0.35527136788E-14 -0.35527136788E-14 -0.17763568394E-14  0.91188000000E+02  0.91188000000E+02 0.  0.
    9900012    2    3    3    0    0 -0.17809786162E+02 -0.30454462010E+02  0.10541225600E+02  0.54367079634E+02  0.39999989642E+02 0.  0.
         12    1    3    3    0    0  0.17809786162E+02  0.30454462010E+02 -0.10541225600E+02  0.36820920366E+02  0.00000000000E+00 0. -1.
         11    1    4    4    0    0 -0.23690984804E+01 -0.22081362162E+01  0.16833896448E+02  0.17142594992E+02  0.51100000000E-03 0. -1.
        -11    1    4    4    0    0 -0.18029238164E+02 -0.17148134339E+02 -0.17071589776E+01  0.24940455732E+02  0.51100000000E-03 0.  1.
         12    1    4    4    0    0  0.25885504820E+01 -0.11098191454E+02 -0.45855118709E+01  0.12284028910E+02  0.00000000000E+00 0. -1.
</event>
<event>
 8    1  0.2514877E-006  0.9118800E+02  0.7816164E-02  0.1184000E+00
        -11   -1    0    0    0    0  0.00000000000E+00  0.00000000000E+00  0.45593999997E+02  0.45594000000E+02  0.51100000000E-03 0. -1.
         11   -1    0    0    0    0 -0.00000000000E+00 -0.00000000000E+00 -0.45593999997E+02  0.45594000000E+02  0.51100000000E-03 0.  1.
         23    2    1    2    0    0  0.71054273576E-14  0.00000000000E+00  0.00000000000E+00  0.91188000000E+02  0.91188000000E+02 0.  0.
    9900012    2    3    3    0    0  0.34331111802E+02  0.48618582900E+01  0.12390199809E+02  0.54367082644E+02  0.39999996504E+02 0.  0.
        -12    1    3    3    0    0 -0.34331111802E+02 -0.48618582900E+01 -0.12390199809E+02  0.36820917356E+02  0.00000000000E+00 0.  1.
         11    1    4    4    0    0  0.23638760809E+02  0.18159502184E+02  0.14371398976E+02  0.33092229313E+02  0.51100000000E-03 0. -1.
        -11    1    4    4    0    0 -0.20262814049E+01 -0.52495042963E+01  0.15059907649E+01  0.58250425006E+01  0.51100000000E-03 0.  1.
         12    1    4    4    0    0  0.12718632399E+02 -0.80481395974E+01 -0.34871899322E+01  0.15449810830E+02  0.00000000000E+00 0. -1.
</event>
<event>
 8    1  0.2514877E-006  0.9118800E+02  0.7816164E-02  0.1184000E+00
        -11   -1    0    0    0    0  0.00000000000E+00  0.00000000000E+00  0.45593999997E+02  0.45594000000E+02  0.51100000000E-03 0. -1.
         11   -1    0    0    0    0 -0.00000000000E+00 -0.00000000000E+00 -0.45593999997E+02  0.45594000000E+02  0.51100000000E-03 0.  1.
         23    2    1    2    0    0 -0.17763568394E-14  0.35527136788E-14  0.35527136788E-14  0.91188000000E+02  0.91188000000E+02 0.  0.
    9900012    2    3    3    0    0  0.94638514131E+01 -0.23379152085E+02 -0.26826042991E+02  0.54367003024E+02  0.39999814993E+02 0.  0.
         12    1    3    3    0    0 -0.94638514131E+01  0.23379152085E+02  0.26826042991E+02  0.36820996976E+02  0.00000000000E+00 0. -1.
         11    1    4    4    0    0  0.11280390901E+02 -0.13071811844E+02  0.43495428228E+01  0.17805561120E+02  0.51100000000E-03 0. -1.
        -11    1    4    4    0    0  0.48044644079E+01 -0.93105969809E+01 -0.10517893382E+02  0.14845746052E+02  0.51100000000E-03 0.  1.
        -12    1    4    4    0    0 -0.66210038959E+01 -0.99674325986E+00 -0.20657692431E+02  0.21715695851E+02  0.00000000000E+00 0.  1.
</event>
<event>
 8    1  0.2514877E-006  0.9118800E+02  0.7816164E-02  0.1184000E+00
        -11   -1    0    0    0    0  0.00000000000E+00  0.00000000000E+00  0.45593999997E+02  0.45594000000E+02  0.51100000000E-03 0.  1.
         11   -1    0    0    0    0 -0.00000000000E+00 -0.00000000000E+00 -0.45593999997E+02  0.45594000000E+02  0.51100000000E-03 0. -1.
         23    2    1    2    0    0  0.00000000000E+00  0.17763568394E-14  0.00000000000E+00  0.91188000000E+02  0.91188000000E+02 0.  0.
    9900012    2    3    3    0    0 -0.19517181072E+02  0.11695558543E+02  0.28949472617E+02  0.54367103604E+02  0.40000044285E+02 0.  0.
        -12    1    3    3    0    0  0.19517181072E+02 -0.11695558543E+02 -0.28949472617E+02  0.36820896396E+02  0.00000000000E+00 0.  1.
         11    1    4    4    0    0 -0.88138986923E+01  0.44130294087E+01  0.21575496312E+02  0.23720490722E+02  0.51100000000E-03 0. -1.
        -11    1    4    4    0    0  0.64906822031E+01  0.88577224791E+01 -0.17473143898E+01  0.11119411442E+02  0.51100000000E-03 0.  1.
         12    1    4    4    0    0 -0.17193964583E+02 -0.15751933446E+01  0.91212906951E+01  0.19527201440E+02  0.00000000000E+00 0. -1.
</event>
<event>
 8    1  0.2514877E-006  0.9118800E+02  0.7816164E-02  0.1184000E+00
        -11   -1    0    0    0    0  0.00000000000E+00  0.00000000000E+00  0.45593999997E+02  0.45594000000E+02  0.51100000000E-03 0.  1.
         11   -1    0    0    0    0 -0.00000000000E+00 -0.00000000000E+00 -0.45593999997E+02  0.45594000000E+02  0.51100000000E-03 0. -1.
         23    2    1    2    0    0  0.00000000000E+00  0.17763568394E-14  0.44408920985E-15  0.91188000000E+02  0.91188000000E+02 0.  0.
    9900012    2    3    3    0    0 -0.35203815181E+02 -0.10560996600E+02 -0.22215207749E+01  0.54367103663E+02  0.40000044421E+02 0.  0.
         12    1    3    3    0    0  0.35203815181E+02  0.10560996600E+02  0.22215207749E+01  0.36820896337E+02  0.00000000000E+00 0. -1.
         11    1    4    4    0    0  0.39821514969E+01 -0.12069515997E+02 -0.54873133746E+01  0.13843458935E+02  0.51100000000E-03 0. -1.
        -11    1    4    4    0    0 -0.20086817637E+02  0.18315902047E+01  0.64111356863E+01  0.21164537002E+02  0.51100000000E-03 0.  1.
         12    1    4    4    0    0 -0.19099149041E+02 -0.32307080781E+00 -0.31453430866E+01  0.19359107726E+02  0.00000000000E+00 0. -1.
</event>
<event>
 8    1  0.2514877E-006  0.9118800E+02  0.7816164E-02  0.1184000E+00
        -11   -1    0    0    0    0  0.00000000000E+00  0.00000000000E+00  0.45593999997E+02  0.45594000000E+02  0.51100000000E-03 0. -1.
         11   -1    0    0    0    0 -0.00000000000E+00 -0.00000000000E+00 -0.45593999997E+02  0.45594000000E+02  0.51100000000E-03 0.  1.
         23    2    1    2    0    0  0.13877787808E-14  0.00000000000E+00  0.00000000000E+00  0.91188000000E+02  0.91188000000E+02 0.  0.
    9900012    2    3    3    0    0 -0.12548843524E+00 -0.10036827779E+02 -0.35426352495E+02  0.54367080534E+02  0.39999991693E+02 0.  0.
         12    1    3    3    0    0  0.12548843524E+00  0.10036827779E+02  0.35426352495E+02  0.36820919466E+02  0.00000000000E+00 0. -1.
         11    1    4    4    0    0  0.54615605357E+01 -0.84897161795E+01  0.92505840654E+00  0.10137043830E+02  0.51100000000E-03 0. -1.
        -11    1    4    4    0    0 -0.82931657858E+00 -0.12864693253E+02 -0.19665885195E+02  0.23514572912E+02  0.51100000000E-03 0.  1.
         12    1    4    4    0    0 -0.47577323923E+01  0.11317581653E+02 -0.16685525707E+02  0.20715463792E+02  0.00000000000E+00 0. -1.
</event>
<event>
 8    1  0.2514877E-006  0.9118800E+02  0.7816164E-02  0.1184000E+00
        -11   -1    0    0    0    0  0.00000000000E+00  0.00000000000E+00  0.45593999997E+02  0.45594000000E+02  0.51100000000E-03 0.  1.
         11   -1    0    0    0    0 -0.00000000000E+00 -0.00000000000E+00 -0.45593999997E+02  0.45594000000E+02  0.51100000000E-03 0. -1.
         23    2    1    2    0    0  0.88817841970E-15  0.35527136788E-14  0.00000000000E+00  0.91188000000E+02  0.91188000000E+02 0.  0.
    9900012    2    3    3    0    0  0.53292274440E+01 -0.26191975376E+02 -0.25325078867E+02  0.54367083949E+02  0.39999999478E+02 0.  0.
        -12    1    3    3    0    0 -0.53292274440E+01  0.26191975376E+02  0.25325078867E+02  0.36820916051E+02  0.00000000000E+00 0.  1.
         11    1    4    4    0    0  0.15017361722E+02 -0.70994153069E+01 -0.12348867771E+02  0.20698245972E+02  0.51100000000E-03 0. -1.
        -11    1    4    4    0    0 -0.10164420045E+02 -0.23615491932E+02 -0.79966261239E+01  0.26924949836E+02  0.51100000000E-03 0.  1.
        -12    1    4    4    0    0  0.47628576666E+00  0.45229318634E+01 -0.49795849716E+01  0.67438881412E+01  0.00000000000E+00 0.  1.
</event>
<event>
 8    1  0.2514877E-006  0.9118800E+02  0.7816164E-02  0.1184000E+00
        -11   -1    0    0    0    0  0.00000000000E+00  0.00000000000E+00  0.45593999997E+02  0.45594000000E+02  0.51100000000E-03 0.  1.
         11   -1    0    0    0    0 -0.00000000000E+00 -0.00000000000E+00 -0.45593999997E+02  0.45594000000E+02  0.51100000000E-03 0. -1.
         23    2    1    2    0    0  0.35527136788E-14 -0.44408920985E-15 -0.35527136788E-14  0.91188000000E+02  0.91188000000E+02 0.  0.
    9900012    2    3    3    0    0 -0.26990521533E+02 -0.10251956953E+01  0.25024796134E+02  0.54367086101E+02  0.40000004385E+02 0.  0.
         12    1    3    3    0    0  0.26990521533E+02  0.10251956953E+01 -0.25024796134E+02  0.36820913899E+02  0.00000000000E+00 0. -1.
         11    1    4    4    0    0 -0.28905422347E+01 -0.27403876774E+01 -0.21600782865E+01  0.45311033422E+01  0.51100000000E-03 0. -1.
        -11    1    4    4    0    0 -0.15085757005E+02  0.17597465239E+02  0.12085969017E+02  0.26140418791E+02  0.51100000000E-03 0.  1.
        -12    1    4    4    0    0 -0.90142222935E+01 -0.15882273257E+02  0.15098905403E+02  0.23695563968E+02  0.00000000000E+00 0.  1.
</event>
<event>
 8    1  0.2514877E-006  0.9118800E+02  0.7816164E-02  0.1184000E+00
        -11   -1    0    0    0    0  0.00000000000E+00  0.00000000000E+00  0.45593999997E+02  0.45594000000E+02  0.51100000000E-03 0.  1.
         11   -1    0    0    0    0 -0.00000000000E+00 -0.00000000000E+00 -0.45593999997E+02  0.45594000000E+02  0.51100000000E-03 0. -1.
         23    2    1    2    0    0  0.00000000000E+00 -0.44408920985E-15 -0.17763568394E-14  0.91188000000E+02  0.91188000000E+02 0.  0.
    9900012    2    3    3    0    0 -0.35976072392E+02  0.13736607351E+01  0.77211388153E+01  0.54367072348E+02  0.39999973031E+02 0.  0.
        -12    1    3    3    0    0  0.35976072392E+02 -0.13736607351E+01 -0.77211388153E+01  0.36820927652E+02  0.00000000000E+00 0.  1.
         11    1    4    4    0    0 -0.33293844771E+01  0.42476585023E+01  0.12635706039E+01  0.55429247406E+01  0.51100000000E-03 0. -1.
        -11    1    4    4    0    0 -0.21356864629E+01  0.12919904950E+02  0.61471431512E+01  0.14466252789E+02  0.51100000000E-03 0.  1.
         12    1    4    4    0    0 -0.30511001452E+02 -0.15793902717E+02  0.31042506018E+00  0.34357894818E+02  0.00000000000E+00 0. -1.
</event>
<event>
 8    1  0.2514877E-006  0.9118800E+02  0.7816164E-02  0.1184000E+00
        -11   -1    0    0    0    0  0.00000000000E+00  0.00000000000E+00  0.45593999997E+02  0.45594000000E+02  0.51100000000E-03 0. -1.
         11   -1    0    0    0    0 -0.00000000000E+00 -0.00000000000E+00 -0.45593999997E+02  0.45594000000E+02  0.51100000000E-03 0.  1.
         23    2    1    2    0    0  0.00000000000E+00  0.00000000000E+00  0.00000000000E+00  0.91188000000E+02  0.91188000000E+02 0.  0.
    9900012    2    3    3    0    0  0.34820737051E+02 -0.90697285876E+01 -0.78126180328E+01  0.54367072445E+02  0.39999973254E+02 0.  0.
         12    1    3    3    0    0 -0.34820737051E+02  0.90697285876E+01  0.78126180328E+01  0.36820927555E+02  0.00000000000E+00 0. -1.
         11    1    4    4    0    0  0.11130541618E+02  0.10771679999E+02 -0.35461738558E+01  0.15890040780E+02  0.51100000000E-03 0. -1.
        -11    1    4    4    0    0  0.75040847859E+01  0.41049400518E+01  0.22573907421E+01  0.88463345250E+01  0.51100000000E-03 0.  1.
        -12    1    4    4    0    0  0.16186110648E+02 -0.23946348638E+02 -0.65238349191E+01  0.29630697141E+02  0.00000000000E+00 0.  1.
</event>
<event>
 8    1  0.2514877E-006  0.9118800E+02  0.7816164E-02  0.1184000E+00
        -11   -1    0    0    0    0  0.00000000000E+00  0.00000000000E+00  0.45593999997E+02  0.45594000000E+02  0.51100000000E-03 0. -1.
         11   -1    0    0    0    0 -0.00000000000E+00 -0.00000000000E+00 -0.45593999997E+02  0.45594000000E+02  0.51100000000E-03 0.  1.
         23    2    1    2    0    0 -0.17763568394E-14  0.00000000000E+00 -0.17763568394E-14  0.91188000000E+02  0.91188000000E+02 0.  0.
    9900012    2    3    3    0    0  0.91295793638E+01  0.34320520304E+02  0.97228080917E+01  0.54367077545E+02  0.39999984879E+02 0.  0.
        -12    1    3    3    0    0 -0.91295793638E+01 -0.34320520304E+02 -0.97228080917E+01  0.36820922455E+02  0.00000000000E+00 0.  1.
         11    1    4    4    0    0 -0.71405932264E+01  0.94547051742E+01 -0.97534589911E+01  0.15346318259E+02  0.51100000000E-03 0.  1.
        -11    1    4    4    0    0  0.88821038303E+01  0.19964162228E+02  0.20665334638E+02  0.30075165799E+02  0.51100000000E-03 0. -1.
        -12    1    4    4    0    0  0.73880687598E+01  0.49016529017E+01 -0.11890675552E+01  0.89455934862E+01  0.00000000000E+00 0.  1.
</event>
<event>
 8    1  0.2514877E-006  0.9118800E+02  0.7816164E-02  0.1184000E+00
        -11   -1    0    0    0    0  0.00000000000E+00  0.00000000000E+00  0.45593999997E+02  0.45594000000E+02  0.51100000000E-03 0.  1.
         11   -1    0    0    0    0 -0.00000000000E+00 -0.00000000000E+00 -0.45593999997E+02  0.45594000000E+02  0.51100000000E-03 0. -1.
         23    2    1    2    0    0  0.00000000000E+00  0.17763568394E-14 -0.35527136788E-14  0.91188000000E+02  0.91188000000E+02 0.  0.
    9900012    2    3    3    0    0 -0.28433010016E+02 -0.93053978782E+01  0.21465177278E+02  0.54367077635E+02  0.39999985084E+02 0.  0.
         12    1    3    3    0    0  0.28433010016E+02  0.93053978782E+01 -0.21465177278E+02  0.36820922365E+02  0.00000000000E+00 0. -1.
         11    1    4    4    0    0 -0.12776190952E+01  0.73529134973E+01 -0.33613480520E+01  0.81851272708E+01  0.51100000000E-03 0. -1.
        -11    1    4    4    0    0 -0.77729578556E+01 -0.54320347435E+01 -0.34658247674E+01  0.10096425945E+02  0.51100000000E-03 0.  1.
        -12    1    4    4    0    0 -0.19382433065E+02 -0.11226276632E+02  0.28292350098E+02  0.36085524419E+02  0.00000000000E+00 0.  1.
</event>
<event>
 8    1  0.2514877E-006  0.9118800E+02  0.7816164E-02  0.1184000E+00
        -11   -1    0    0    0    0  0.00000000000E+00  0.00000000000E+00  0.45593999997E+02  0.45594000000E+02  0.51100000000E-03 0.  1.
         11   -1    0    0    0    0 -0.00000000000E+00 -0.00000000000E+00 -0.45593999997E+02  0.45594000000E+02  0.51100000000E-03 0. -1.
         23    2    1    2    0    0 -0.26645352591E-14  0.00000000000E+00  0.00000000000E+00  0.91188000000E+02  0.91188000000E+02 0.  0.
    9900012    2    3    3    0    0  0.60800538345E+01  0.27558577822E+02  0.23650298549E+02  0.54367097137E+02  0.40000029544E+02 0.  0.
         12    1    3    3    0    0 -0.60800538345E+01 -0.27558577822E+02 -0.23650298549E+02  0.36820902863E+02  0.00000000000E+00 0. -1.
         11    1    4    4    0    0  0.21193344450E+02  0.20646270463E+02  0.13568152921E+02  0.32550285820E+02  0.51100000000E-03 0. -1.
        -11    1    4    4    0    0 -0.31250446267E+01  0.61339653024E+01  0.59905120512E+01  0.91256599293E+01  0.51100000000E-03 0.  1.
         12    1    4    4    0    0 -0.11988245988E+02  0.77834205643E+00  0.40916335764E+01  0.12691151388E+02  0.00000000000E+00 0. -1.
</event>
<event>
 8    1  0.2514877E-006  0.9118800E+02  0.7816164E-02  0.1184000E+00
        -11   -1    0    0    0    0  0.00000000000E+00  0.00000000000E+00  0.45593999997E+02  0.45594000000E+02  0.51100000000E-03 0. -1.
         11   -1    0    0    0    0 -0.00000000000E+00 -0.00000000000E+00 -0.45593999997E+02  0.45594000000E+02  0.51100000000E-03 0.  1.
         23    2    1    2    0    0 -0.71054273576E-14 -0.88817841970E-15  0.00000000000E+00  0.91188000000E+02  0.91188000000E+02 0.  0.
    9900012    2    3    3    0    0  0.36116266644E+02  0.41442376404E+01 -0.58498285980E+01  0.54367083165E+02  0.39999997691E+02 0.  0.
         12    1    3    3    0    0 -0.36116266644E+02 -0.41442376404E+01  0.58498285980E+01  0.36820916835E+02  0.00000000000E+00 0. -1.
         11    1    4    4    0    0  0.17396299691E+02  0.79675936422E+01  0.42534438737E+01  0.19601162630E+02  0.51100000000E-03 0. -1.
        -11    1    4    4    0    0  0.16338492856E+02  0.62897414045E+01 -0.15207620623E+02  0.23190060823E+02  0.51100000000E-03 0.  1.
         12    1    4    4    0    0  0.23814740980E+01 -0.10113097406E+02  0.51043481509E+01  0.11575859712E+02  0.00000000000E+00 0. -1.
</event>
<event>
 8    1  0.2514877E-006  0.9118800E+02  0.7816164E-02  0.1184000E+00
        -11   -1    0    0    0    0  0.00000000000E+00  0.00000000000E+00  0.45593999997E+02  0.45594000000E+02  0.51100000000E-03 0.  1.
         11   -1    0    0    0    0 -0.00000000000E+00 -0.00000000000E+00 -0.45593999997E+02  0.45594000000E+02  0.51100000000E-03 0. -1.
         23    2    1    2    0    0  0.00000000000E+00  0.00000000000E+00  0.35527136788E-14  0.91188000000E+02  0.91188000000E+02 0.  0.
    9900012    2    3    3    0    0 -0.11997529820E+02 -0.23842086129E+02  0.25365242242E+02  0.54367064288E+02  0.39999954657E+02 0.  0.
         12    1    3    3    0    0  0.11997529820E+02  0.23842086129E+02 -0.25365242242E+02  0.36820935712E+02  0.00000000000E+00 0. -1.
         11    1    4    4    0    0  0.33483348203E+01 -0.14722362852E+02 -0.45290019513E+01  0.15762968405E+02  0.51100000000E-03 0. -1.
        -11    1    4    4    0    0 -0.18100901186E+01  0.46439218305E+01  0.45787130392E+01  0.67680905403E+01  0.51100000000E-03 0.  1.
         12    1    4    4    0    0 -0.13535774522E+02 -0.13763645108E+02  0.25315531154E+02  0.31836005342E+02  0.00000000000E+00 0. -1.
</event>
<event>
 8    1  0.2514877E-006  0.9118800E+02  0.7816164E-02  0.1184000E+00
        -11   -1    0    0    0    0  0.00000000000E+00  0.00000000000E+00  0.45593999997E+02  0.45594000000E+02  0.51100000000E-03 0. -1.
         11   -1    0    0    0    0 -0.00000000000E+00 -0.00000000000E+00 -0.45593999997E+02  0.45594000000E+02  0.51100000000E-03 0.  1.
         23    2    1    2    0    0  0.00000000000E+00  0.17763568394E-14  0.88817841970E-15  0.91188000000E+02  0.91188000000E+02 0.  0.
    9900012    2    3    3    0    0  0.35285636454E+02  0.97143096578E+01  0.40417061408E+01  0.54367090986E+02  0.40000015520E+02 0.  0.
         12    1    3    3    0    0 -0.35285636454E+02 -0.97143096578E+01 -0.40417061408E+01  0.36820909014E+02  0.00000000000E+00 0. -1.
         11    1    4    4    0    0  0.14101836083E+02  0.17060005930E+02 -0.13575561414E+01  0.22175403991E+02  0.51100000000E-03 0. -1.
        -11    1    4    4    0    0  0.10516146991E+02  0.29580083244E+01 -0.69028097746E+01  0.12922381508E+02  0.51100000000E-03 0.  1.
         12    1    4    4    0    0  0.10667653380E+02 -0.10303704596E+02  0.12302072057E+02  0.19269305486E+02  0.00000000000E+00 0. -1.
</event>
<event>
 8    1  0.2514877E-006  0.9118800E+02  0.7816164E-02  0.1184000E+00
        -11   -1    0    0    0    0  0.00000000000E+00  0.00000000000E+00  0.45593999997E+02  0.45594000000E+02  0.51100000000E-03 0. -1.
         11   -1    0    0    0    0 -0.00000000000E+00 -0.00000000000E+00 -0.45593999997E+02  0.45594000000E+02  0.51100000000E-03 0.  1.
         23    2    1    2    0    0 -0.53290705182E-14  0.00000000000E+00  0.00000000000E+00  0.91188000000E+02  0.91188000000E+02 0.  0.
    9900012    2    3    3    0    0  0.12623257010E+02 -0.46400085135E+01  0.34276820883E+02  0.54367126213E+02  0.40000095829E+02 0.  0.
        -12    1    3    3    0    0 -0.12623257010E+02  0.46400085135E+01 -0.34276820883E+02  0.36820873787E+02  0.00000000000E+00 0.  1.
         11    1    4    4    0    0 -0.30333799928E+01  0.79900779538E+00  0.26546774234E+01  0.41093941307E+01  0.51100000000E-03 0. -1.
        -11    1    4    4    0    0 -0.10385227207E+02 -0.14345310762E+01  0.21076296537E+01  0.10693592781E+02  0.51100000000E-03 0.  1.
         12    1    4    4    0    0  0.26041864210E+02 -0.40044852327E+01  0.29514513806E+02  0.39564139302E+02  0.00000000000E+00 0. -1.
</event>
<event>
 8    1  0.2514877E-006  0.9118800E+02  0.7816164E-02  0.1184000E+00
        -11   -1    0    0    0    0  0.00000000000E+00  0.00000000000E+00  0.45593999997E+02  0.45594000000E+02  0.51100000000E-03 0. -1.
         11   -1    0    0    0    0 -0.00000000000E+00 -0.00000000000E+00 -0.45593999997E+02  0.45594000000E+02  0.51100000000E-03 0.  1.
         23    2    1    2    0    0  0.00000000000E+00  0.00000000000E+00  0.00000000000E+00  0.91188000000E+02  0.91188000000E+02 0.  0.
    9900012    2    3    3    0    0  0.21802732415E+01 -0.32874736022E+02 -0.16440158161E+02  0.54367073066E+02  0.39999974668E+02 0.  0.
        -12    1    3    3    0    0 -0.21802732415E+01  0.32874736022E+02  0.16440158161E+02  0.36820926934E+02  0.00000000000E+00 0.  1.
         11    1    4    4    0    0 -0.80919313759E+01 -0.44024227005E+01  0.96545780534E+01  0.13344345495E+02  0.51100000000E-03 0. -1.
        -11    1    4    4    0    0  0.34807743638E+01 -0.85251737960E+01 -0.28290332616E+01  0.96331618838E+01  0.51100000000E-03 0.  1.
         12    1    4    4    0    0  0.67914302536E+01 -0.19947139526E+02 -0.23265702953E+02  0.31389565687E+02  0.00000000000E+00 0. -1.
</event>
<event>
 8    1  0.2514877E-006  0.9118800E+02  0.7816164E-02  0.1184000E+00
        -11   -1    0    0    0    0  0.00000000000E+00  0.00000000000E+00  0.45593999997E+02  0.45594000000E+02  0.51100000000E-03 0.  1.
         11   -1    0    0    0    0 -0.00000000000E+00 -0.00000000000E+00 -0.45593999997E+02  0.45594000000E+02  0.51100000000E-03 0. -1.
         23    2    1    2    0    0  0.00000000000E+00  0.35527136788E-14  0.00000000000E+00  0.91188000000E+02  0.91188000000E+02 0.  0.
    9900012    2    3    3    0    0  0.30426249214E+02  0.18788781028E+02 -0.87752657555E+01  0.54367079006E+02  0.39999988211E+02 0.  0.
        -12    1    3    3    0    0 -0.30426249214E+02 -0.18788781028E+02  0.87752657555E+01  0.36820920994E+02  0.00000000000E+00 0.  1.
         11    1    4    4    0    0  0.25792755040E+01  0.41882234383E+00 -0.48462531581E+01  0.55058372855E+01  0.51100000000E-03 0. -1.
        -11    1    4    4    0    0  0.17141850208E+01 -0.99379707383E+01 -0.20390276120E+01  0.10288796166E+02  0.51100000000E-03 0.  1.
         12    1    4    4    0    0  0.26132788689E+02  0.28307929422E+02 -0.18899849854E+01  0.38572445555E+02  0.00000000000E+00 0. -1.
</event>
<event>
 8    1  0.2514877E-006  0.9118800E+02  0.7816164E-02  0.1184000E+00
        -11   -1    0    0    0    0  0.00000000000E+00  0.00000000000E+00  0.45593999997E+02  0.45594000000E+02  0.51100000000E-03 0.  1.
         11   -1    0    0    0    0 -0.00000000000E+00 -0.00000000000E+00 -0.45593999997E+02  0.45594000000E+02  0.51100000000E-03 0. -1.
         23    2    1    2    0    0  0.00000000000E+00  0.00000000000E+00  0.00000000000E+00  0.91188000000E+02  0.91188000000E+02 0.  0.
    9900012    2    3    3    0    0 -0.52905827552E+01  0.14686489926E+02 -0.33348134789E+02  0.54367063753E+02  0.39999953437E+02 0.  0.
        -12    1    3    3    0    0  0.52905827552E+01 -0.14686489926E+02  0.33348134789E+02  0.36820936247E+02  0.00000000000E+00 0.  1.
         11    1    4    4    0    0 -0.50264722922E+01 -0.64080748594E+01 -0.18461878783E+02  0.20178449285E+02  0.51100000000E-03 0. -1.
        -11    1    4    4    0    0 -0.94843737772E+01  0.17643936811E+02 -0.59594141142E+01  0.20899197807E+02  0.51100000000E-03 0.  1.
         12    1    4    4    0    0  0.92202633142E+01  0.34506279740E+01 -0.89268418921E+01  0.13289416660E+02  0.00000000000E+00 0. -1.
</event>
<event>
 8    1  0.2514877E-006  0.9118800E+02  0.7816164E-02  0.1184000E+00
        -11   -1    0    0    0    0  0.00000000000E+00  0.00000000000E+00  0.45593999997E+02  0.45594000000E+02  0.51100000000E-03 0.  1.
         11   -1    0    0    0    0 -0.00000000000E+00 -0.00000000000E+00 -0.45593999997E+02  0.45594000000E+02  0.51100000000E-03 0. -1.
         23    2    1    2    0    0  0.88817841970E-15  0.00000000000E+00  0.00000000000E+00  0.91188000000E+02  0.91188000000E+02 0.  0.
    9900012    2    3    3    0    0 -0.73910126919E+01 -0.34775657397E+02 -0.95815837979E+01  0.54367079804E+02  0.39999990028E+02 0.  0.
         12    1    3    3    0    0  0.73910126919E+01  0.34775657397E+02  0.95815837979E+01  0.36820920196E+02  0.00000000000E+00 0. -1.
         11    1    4    4    0    0  0.49807870822E+00 -0.52537009593E+01  0.41566321383E-01  0.52774221159E+01  0.51100000000E-03 0. -1.
        -11    1    4    4    0    0  0.48025229484E+01  0.75509013336E+01 -0.20134446182E+01  0.91724749720E+01  0.51100000000E-03 0.  1.
        -12    1    4    4    0    0 -0.12691614348E+02 -0.37072857772E+02 -0.76097055011E+01  0.39917182716E+02  0.00000000000E+00 0.  1.
</event>
<event>
 8    1  0.2514877E-006  0.9118800E+02  0.7816164E-02  0.1184000E+00
        -11   -1    0    0    0    0  0.00000000000E+00  0.00000000000E+00  0.45593999997E+02  0.45594000000E+02  0.51100000000E-03 0. -1.
         11   -1    0    0    0    0 -0.00000000000E+00 -0.00000000000E+00 -0.45593999997E+02  0.45594000000E+02  0.51100000000E-03 0.  1.
         23    2    1    2    0    0 -0.17763568394E-14  0.00000000000E+00  0.71054273576E-14  0.91188000000E+02  0.91188000000E+02 0.  0.
    9900012    2    3    3    0    0 -0.13109142573E+02  0.11346634084E+02 -0.32483590796E+02  0.54367090247E+02  0.40000013836E+02 0.  0.
         12    1    3    3    0    0  0.13109142573E+02 -0.11346634084E+02  0.32483590796E+02  0.36820909753E+02  0.00000000000E+00 0. -1.
         11    1    4    4    0    0 -0.96358364803E+00  0.55256351128E+01 -0.42789825272E+01  0.70548443339E+01  0.51100000000E-03 0. -1.
        -11    1    4    4    0    0 -0.18928971816E+02  0.95443925833E+01 -0.32239924488E+02  0.38585154335E+02  0.51100000000E-03 0.  1.
         12    1    4    4    0    0  0.67834128904E+01 -0.37233936116E+01  0.40353162190E+01  0.87270915783E+01  0.00000000000E+00 0. -1.
</event>
<event>
 8    1  0.2514877E-006  0.9118800E+02  0.7816164E-02  0.1184000E+00
        -11   -1    0    0    0    0  0.00000000000E+00  0.00000000000E+00  0.45593999997E+02  0.45594000000E+02  0.51100000000E-03 0.  1.
         11   -1    0    0    0    0 -0.00000000000E+00 -0.00000000000E+00 -0.45593999997E+02  0.45594000000E+02  0.51100000000E-03 0. -1.
         23    2    1    2    0    0  0.20261570199E-14  0.00000000000E+00  0.00000000000E+00  0.91188000000E+02  0.91188000000E+02 0.  0.
    9900012    2    3    3    0    0 -0.39867535157E-01 -0.35635582935E+02  0.92673441094E+01  0.54367081661E+02  0.39999994262E+02 0.  0.
        -12    1    3    3    0    0  0.39867535157E-01  0.35635582935E+02 -0.92673441094E+01  0.36820918339E+02  0.00000000000E+00 0.  1.
         11    1    4    4    0    0  0.19587656625E+02 -0.13952569520E+02  0.56963887500E+01  0.24714354803E+02  0.51100000000E-03 0. -1.
        -11    1    4    4    0    0 -0.11177875554E+02 -0.14027577016E+02  0.33625988414E+01  0.18248969562E+02  0.51100000000E-03 0.  1.
         12    1    4    4    0    0 -0.84496486064E+01 -0.76554363980E+01  0.20835651801E+00  0.11403757296E+02  0.00000000000E+00 0. -1.
</event>
<event>
 8    1  0.2514877E-006  0.9118800E+02  0.7816164E-02  0.1184000E+00
        -11   -1    0    0    0    0  0.00000000000E+00  0.00000000000E+00  0.45593999997E+02  0.45594000000E+02  0.51100000000E-03 0. -1.
         11   -1    0    0    0    0 -0.00000000000E+00 -0.00000000000E+00 -0.45593999997E+02  0.45594000000E+02  0.51100000000E-03 0.  1.
         23    2    1    2    0    0 -0.44408920985E-15 -0.35527136788E-14 -0.35527136788E-14  0.91188000000E+02  0.91188000000E+02 0.  0.
    9900012    2    3    3    0    0  0.37222163729E+01 -0.18071731062E+02  0.31864370297E+02  0.54367075884E+02  0.39999981094E+02 0.  0.
        -12    1    3    3    0    0 -0.37222163729E+01  0.18071731062E+02 -0.31864370297E+02  0.36820924116E+02  0.00000000000E+00 0.  1.
         11    1    4    4    0    0  0.20628123483E+01 -0.21666054988E+02  0.25181915636E+02  0.33283659788E+02  0.51100000000E-03 0. -1.
        -11    1    4    4    0    0  0.70008503600E+01  0.23353765911E+00  0.11278282057E+02  0.13276524094E+02  0.51100000000E-03 0.  1.
        -12    1    4    4    0    0 -0.53414463354E+01  0.33607862664E+01 -0.45958273963E+01  0.78068920025E+01  0.00000000000E+00 0.  1.
</event>
<event>
 8    1  0.2514877E-006  0.9118800E+02  0.7816164E-02  0.1184000E+00
        -11   -1    0    0    0    0  0.00000000000E+00  0.00000000000E+00  0.45593999997E+02  0.45594000000E+02  0.51100000000E-03 0.  1.
         11   -1    0    0    0    0 -0.00000000000E+00 -0.00000000000E+00 -0.45593999997E+02  0.45594000000E+02  0.51100000000E-03 0. -1.
         23    2    1    2    0    0  0.00000000000E+00  0.00000000000E+00 -0.17763568394E-14  0.91188000000E+02  0.91188000000E+02 0.  0.
    9900012    2    3    3    0    0 -0.32911124568E+02 -0.48221621037E+01  0.15791901955E+02  0.54367088346E+02  0.40000009503E+02 0.  0.
        -12    1    3    3    0    0  0.32911124568E+02  0.48221621037E+01 -0.15791901955E+02  0.36820911654E+02  0.00000000000E+00 0.  1.
         11    1    4    4    0    0 -0.20396853003E+02 -0.11049876336E+02  0.14667448474E+02  0.27445681344E+02  0.51100000000E-03 0. -1.
        -11    1    4    4    0    0 -0.10456034832E+02  0.39173678307E+01  0.11539039124E+02  0.16056894447E+02  0.51100000000E-03 0.  1.
         12    1    4    4    0    0 -0.20582367332E+01  0.23103464017E+01 -0.10414585643E+02  0.10864512555E+02  0.00000000000E+00 0. -1.
</event>
<event>
 8    1  0.2514877E-006  0.9118800E+02  0.7816164E-02  0.1184000E+00
        -11   -1    0    0    0    0  0.00000000000E+00  0.00000000000E+00  0.45593999997E+02  0.45594000000E+02  0.51100000000E-03 0. -1.
         11   -1    0    0    0    0 -0.00000000000E+00 -0.00000000000E+00 -0.45593999997E+02  0.45594000000E+02  0.51100000000E-03 0.  1.
         23    2    1    2    0    0  0.00000000000E+00 -0.17763568394E-14  0.00000000000E+00  0.91188000000E+02  0.91188000000E+02 0.  0.
    9900012    2    3    3    0    0  0.26318987911E+02  0.12079588442E+02 -0.22741481937E+02  0.54367074125E+02  0.39999977083E+02 0.  0.
         12    1    3    3    0    0 -0.26318987911E+02 -0.12079588442E+02  0.22741481937E+02  0.36820925875E+02  0.00000000000E+00 0. -1.
         11    1    4    4    0    0 -0.10420107729E+01  0.18934888763E+02 -0.17434654341E+01  0.19043515193E+02  0.51100000000E-03 0. -1.
        -11    1    4    4    0    0  0.16206731845E+01  0.22281596419E+00 -0.18567999060E+01  0.24746584970E+01  0.51100000000E-03 0.  1.
         12    1    4    4    0    0  0.25740325499E+02 -0.70781162858E+01 -0.19141216597E+02  0.32848900435E+02  0.00000000000E+00 0. -1.
</event>
<event>
 8    1  0.2514877E-006  0.9118800E+02  0.7816164E-02  0.1184000E+00
        -11   -1    0    0    0    0  0.00000000000E+00  0.00000000000E+00  0.45593999997E+02  0.45594000000E+02  0.51100000000E-03 0.  1.
         11   -1    0    0    0    0 -0.00000000000E+00 -0.00000000000E+00 -0.45593999997E+02  0.45594000000E+02  0.51100000000E-03 0. -1.
         23    2    1    2    0    0 -0.35527136788E-14  0.35527136788E-14  0.00000000000E+00  0.91188000000E+02  0.91188000000E+02 0.  0.
    9900012    2    3    3    0    0 -0.28254030448E+02  0.18344279201E+02 -0.14865293081E+02  0.54367085368E+02  0.40000002713E+02 0.  0.
        -12    1    3    3    0    0  0.28254030448E+02 -0.18344279201E+02  0.14865293081E+02  0.36820914632E+02  0.00000000000E+00 0.  1.
         11    1    4    4    0    0  0.10230950138E+01  0.89985569622E+01  0.84567725757E+00  0.90959288198E+01  0.51100000000E-03 0. -1.
        -11    1    4    4    0    0 -0.33495217214E+02  0.12507322026E+02 -0.17362675680E+02  0.39747014825E+02  0.51100000000E-03 0.  1.
        -12    1    4    4    0    0  0.42180917521E+01 -0.31615997874E+01  0.16517053405E+01  0.55241417231E+01  0.00000000000E+00 0.  1.
</event>
<event>
 8    1  0.2514877E-006  0.9118800E+02  0.7816164E-02  0.1184000E+00
        -11   -1    0    0    0    0  0.00000000000E+00  0.00000000000E+00  0.45593999997E+02  0.45594000000E+02  0.51100000000E-03 0.  1.
         11   -1    0    0    0    0 -0.00000000000E+00 -0.00000000000E+00 -0.45593999997E+02  0.45594000000E+02  0.51100000000E-03 0. -1.
         23    2    1    2    0    0  0.00000000000E+00 -0.71054273576E-14  0.00000000000E+00  0.91188000000E+02  0.91188000000E+02 0.  0.
    9900012    2    3    3    0    0  0.95236166946E+01  0.34015496726E+02 -0.10393481371E+02  0.54367112619E+02  0.40000064838E+02 0.  0.
        -12    1    3    3    0    0 -0.95236166946E+01 -0.34015496726E+02  0.10393481371E+02  0.36820887381E+02  0.00000000000E+00 0.  1.
         11    1    4    4    0    0  0.13903479493E+01  0.71247736791E+01 -0.13305504176E+02  0.15156909614E+02  0.51100000000E-03 0. -1.
        -11    1    4    4    0    0  0.76140658076E+00 -0.47093571845E+01  0.47205363577E+01  0.67112777352E+01  0.51100000000E-03 0.  1.
         12    1    4    4    0    0  0.73718621646E+01  0.31600080232E+02 -0.18085135526E+01  0.32498925270E+02  0.00000000000E+00 0. -1.
</event>
<event>
 8    1  0.2514877E-006  0.9118800E+02  0.7816164E-02  0.1184000E+00
        -11   -1    0    0    0    0  0.00000000000E+00  0.00000000000E+00  0.45593999997E+02  0.45594000000E+02  0.51100000000E-03 0.  1.
         11   -1    0    0    0    0 -0.00000000000E+00 -0.00000000000E+00 -0.45593999997E+02  0.45594000000E+02  0.51100000000E-03 0. -1.
         23    2    1    2    0    0 -0.71054273576E-14  0.88817841970E-15  0.22204460493E-15  0.91188000000E+02  0.91188000000E+02 0.  0.
    9900012    2    3    3    0    0 -0.36727019871E+02  0.23100323448E+01 -0.12529026950E+01  0.54367081989E+02  0.39999995009E+02 0.  0.
         12    1    3    3    0    0  0.36727019871E+02 -0.23100323448E+01  0.12529026950E+01  0.36820918011E+02  0.00000000000E+00 0. -1.
         11    1    4    4    0    0  0.32841661800E+01  0.60383951832E+01 -0.35764220800E+01  0.77484681739E+01  0.51100000000E-03 0. -1.
        -11    1    4    4    0    0 -0.37053657225E+02  0.48542833748E+01  0.58004369576E+00  0.37374778017E+02  0.51100000000E-03 0.  1.
        -12    1    4    4    0    0 -0.29575288256E+01 -0.85826462132E+01  0.17434756893E+01  0.92438357977E+01  0.00000000000E+00 0.  1.
</event>
<event>
 8    1  0.2514877E-006  0.9118800E+02  0.7816164E-02  0.1184000E+00
        -11   -1    0    0    0    0  0.00000000000E+00  0.00000000000E+00  0.45593999997E+02  0.45594000000E+02  0.51100000000E-03 0.  1.
         11   -1    0    0    0    0 -0.00000000000E+00 -0.00000000000E+00 -0.45593999997E+02  0.45594000000E+02  0.51100000000E-03 0. -1.
         23    2    1    2    0    0  0.35527136788E-14 -0.35527136788E-14  0.17763568394E-14  0.91188000000E+02  0.91188000000E+02 0.  0.
    9900012    2    3    3    0    0 -0.21344081811E+02  0.27739038619E+02 -0.11434949814E+02  0.54367052577E+02  0.39999927960E+02 0.  0.
        -12    1    3    3    0    0  0.21344081811E+02 -0.27739038619E+02  0.11434949814E+02  0.36820947423E+02  0.00000000000E+00 0.  1.
         11    1    4    4    0    0 -0.37108947640E+01  0.11359407154E+02 -0.46032834979E+01  0.12806134860E+02  0.51100000000E-03 0. -1.
        -11    1    4    4    0    0  0.37398316787E+01  0.17163366550E+01 -0.14062161986E+02  0.14651844679E+02  0.51100000000E-03 0.  1.
         12    1    4    4    0    0 -0.21373018726E+02  0.14663294811E+02  0.72304956705E+01  0.26909073038E+02  0.00000000000E+00 0. -1.
</event>
<event>
 8    1  0.2514877E-006  0.9118800E+02  0.7816164E-02  0.1184000E+00
        -11   -1    0    0    0    0  0.00000000000E+00  0.00000000000E+00  0.45593999997E+02  0.45594000000E+02  0.51100000000E-03 0.  1.
         11   -1    0    0    0    0 -0.00000000000E+00 -0.00000000000E+00 -0.45593999997E+02  0.45594000000E+02  0.51100000000E-03 0. -1.
         23    2    1    2    0    0  0.35527136788E-14  0.17763568394E-14  0.35527136788E-14  0.91188000000E+02  0.91188000000E+02 0.  0.
    9900012    2    3    3    0    0 -0.19834505557E+02 -0.48606646840E+01  0.30638969939E+02  0.54367079984E+02  0.39999990441E+02 0.  0.
         12    1    3    3    0    0  0.19834505557E+02  0.48606646840E+01 -0.30638969939E+02  0.36820920016E+02  0.00000000000E+00 0. -1.
         11    1    4    4    0    0 -0.61809224646E+01  0.83602401023E+01 -0.62182207909E+01  0.12114606355E+02  0.51100000000E-03 0. -1.
        -11    1    4    4    0    0 -0.42799704669E+01 -0.97728893123E+01  0.18680223100E+02  0.21512281330E+02  0.51100000000E-03 0.  1.
         12    1    4    4    0    0 -0.93736126254E+01 -0.34480154740E+01  0.18176967630E+02  0.20740192299E+02  0.00000000000E+00 0. -1.
</event>
<event>
 8    1  0.2514877E-006  0.9118800E+02  0.7816164E-02  0.1184000E+00
        -11   -1    0    0    0    0  0.00000000000E+00  0.00000000000E+00  0.45593999997E+02  0.45594000000E+02  0.51100000000E-03 0.  1.
         11   -1    0    0    0    0 -0.00000000000E+00 -0.00000000000E+00 -0.45593999997E+02  0.45594000000E+02  0.51100000000E-03 0. -1.
         23    2    1    2    0    0  0.00000000000E+00 -0.35527136788E-14  0.00000000000E+00  0.91188000000E+02  0.91188000000E+02 0.  0.
    9900012    2    3    3    0    0  0.13566160904E+02  0.29593411923E+02  0.17203912781E+02  0.54367009167E+02  0.39999828997E+02 0.  0.
         12    1    3    3    0    0 -0.13566160904E+02 -0.29593411923E+02 -0.17203912781E+02  0.36820990833E+02  0.00000000000E+00 0. -1.
         11    1    4    4    0    0 -0.16141605358E+01  0.84794859422E+01 -0.11583322782E+02  0.14445780111E+02  0.51100000000E-03 0. -1.
        -11    1    4    4    0    0  0.15514687437E+02  0.21772617620E+02  0.27044386581E+02  0.38028295388E+02  0.51100000000E-03 0.  1.
        -12    1    4    4    0    0 -0.33436599699E+00 -0.65869163917E+00  0.17428489825E+01  0.18929336679E+01  0.00000000000E+00 0.  1.
</event>
<event>
 8    1  0.2514877E-006  0.9118800E+02  0.7816164E-02  0.1184000E+00
        -11   -1    0    0    0    0  0.00000000000E+00  0.00000000000E+00  0.45593999997E+02  0.45594000000E+02  0.51100000000E-03 0.  1.
         11   -1    0    0    0    0 -0.00000000000E+00 -0.00000000000E+00 -0.45593999997E+02  0.45594000000E+02  0.51100000000E-03 0. -1.
         23    2    1    2    0    0  0.00000000000E+00 -0.35527136788E-14 -0.35527136788E-14  0.91188000000E+02  0.91188000000E+02 0.  0.
    9900012    2    3    3    0    0 -0.16404918967E+02  0.23714485138E+02 -0.22897190303E+02  0.54367088884E+02  0.40000010728E+02 0.  0.
        -12    1    3    3    0    0  0.16404918967E+02 -0.23714485138E+02  0.22897190303E+02  0.36820911116E+02  0.00000000000E+00 0.  1.
         11    1    4    4    0    0  0.63929840583E+01  0.56794835108E+01 -0.18427781136E+01  0.87477202490E+01  0.51100000000E-03 0. -1.
        -11    1    4    4    0    0 -0.16024636635E+02 -0.37534013389E+01 -0.34884599516E+01  0.16823981515E+02  0.51100000000E-03 0.  1.
         12    1    4    4    0    0 -0.67732663899E+01  0.21788402966E+02 -0.17565952237E+02  0.28795387120E+02  0.00000000000E+00 0. -1.
</event>
<event>
 8    1  0.2514877E-006  0.9118800E+02  0.7816164E-02  0.1184000E+00
        -11   -1    0    0    0    0  0.00000000000E+00  0.00000000000E+00  0.45593999997E+02  0.45594000000E+02  0.51100000000E-03 0. -1.
         11   -1    0    0    0    0 -0.00000000000E+00 -0.00000000000E+00 -0.45593999997E+02  0.45594000000E+02  0.51100000000E-03 0.  1.
         23    2    1    2    0    0  0.35527136788E-14  0.17763568394E-14 -0.35527136788E-14  0.91188000000E+02  0.91188000000E+02 0.  0.
    9900012    2    3    3    0    0  0.27160356935E+02 -0.13585802560E+02 -0.20821207875E+02  0.54367058711E+02  0.39999941942E+02 0.  0.
         12    1    3    3    0    0 -0.27160356935E+02  0.13585802560E+02  0.20821207875E+02  0.36820941289E+02  0.00000000000E+00 0. -1.
         11    1    4    4    0    0 -0.17277725094E+01 -0.14229720533E+02 -0.49862315631E+01  0.15176714063E+02  0.51100000000E-03 0.  1.
        -11    1    4    4    0    0  0.14797146676E+02  0.10910795508E+02 -0.73337676792E+01  0.19793563524E+02  0.51100000000E-03 0. -1.
         12    1    4    4    0    0  0.14090982769E+02 -0.10266877535E+02 -0.85012086332E+01  0.19396781123E+02  0.00000000000E+00 0. -1.
</event>
<event>
 8    1  0.2514877E-006  0.9118800E+02  0.7816164E-02  0.1184000E+00
        -11   -1    0    0    0    0  0.00000000000E+00  0.00000000000E+00  0.45593999997E+02  0.45594000000E+02  0.51100000000E-03 0.  1.
         11   -1    0    0    0    0 -0.00000000000E+00 -0.00000000000E+00 -0.45593999997E+02  0.45594000000E+02  0.51100000000E-03 0. -1.
         23    2    1    2    0    0  0.00000000000E+00 -0.17763568394E-14  0.88817841970E-15  0.91188000000E+02  0.91188000000E+02 0.  0.
    9900012    2    3    3    0    0  0.33401481649E+02  0.15400477135E+02 -0.17165232869E+01  0.54367080341E+02  0.39999991254E+02 0.  0.
         12    1    3    3    0    0 -0.33401481649E+02 -0.15400477135E+02  0.17165232869E+01  0.36820919659E+02  0.00000000000E+00 0. -1.
         11    1    4    4    0    0  0.42053770910E-01 -0.71437549824E+01 -0.71734850681E+01  0.10123926711E+02  0.51100000000E-03 0. -1.
        -11    1    4    4    0    0  0.27810808649E+02  0.10960648504E+02  0.84318864511E+01  0.31059195140E+02  0.51100000000E-03 0.  1.
         12    1    4    4    0    0  0.55486192282E+01  0.11583583614E+02 -0.29749246699E+01  0.13183958490E+02  0.00000000000E+00 0. -1.
</event>
<event>
 8    1  0.2514877E-006  0.9118800E+02  0.7816164E-02  0.1184000E+00
        -11   -1    0    0    0    0  0.00000000000E+00  0.00000000000E+00  0.45593999997E+02  0.45594000000E+02  0.51100000000E-03 0.  1.
         11   -1    0    0    0    0 -0.00000000000E+00 -0.00000000000E+00 -0.45593999997E+02  0.45594000000E+02  0.51100000000E-03 0. -1.
         23    2    1    2    0    0  0.00000000000E+00 -0.55511151231E-15  0.00000000000E+00  0.91188000000E+02  0.91188000000E+02 0.  0.
    9900012    2    3    3    0    0  0.21698457095E+02 -0.72911409207E+00  0.29739302856E+02  0.54367071413E+02  0.39999970900E+02 0.  0.
         12    1    3    3    0    0 -0.21698457095E+02  0.72911409207E+00 -0.29739302856E+02  0.36820928587E+02  0.00000000000E+00 0. -1.
         11    1    4    4    0    0  0.14506572140E+01 -0.10347667449E+02  0.34054228121E+00  0.10454405640E+02  0.51100000000E-03 0.  1.
        -11    1    4    4    0    0 -0.19170801694E+01 -0.54660612500E+01  0.57598782690E+01  0.81687954987E+01  0.51100000000E-03 0. -1.
         12    1    4    4    0    0  0.22164880050E+02  0.15084614607E+02  0.23638882306E+02  0.35743870274E+02  0.00000000000E+00 0. -1.
</event>
<event>
 8    1  0.2514877E-006  0.9118800E+02  0.7816164E-02  0.1184000E+00
        -11   -1    0    0    0    0  0.00000000000E+00  0.00000000000E+00  0.45593999997E+02  0.45594000000E+02  0.51100000000E-03 0. -1.
         11   -1    0    0    0    0 -0.00000000000E+00 -0.00000000000E+00 -0.45593999997E+02  0.45594000000E+02  0.51100000000E-03 0.  1.
         23    2    1    2    0    0  0.00000000000E+00 -0.35527136788E-14  0.00000000000E+00  0.91188000000E+02  0.91188000000E+02 0.  0.
    9900012    2    3    3    0    0  0.21971385207E+02  0.26988811292E+02  0.12026539221E+02  0.54367145196E+02  0.40000139102E+02 0.  0.
        -12    1    3    3    0    0 -0.21971385207E+02 -0.26988811292E+02 -0.12026539221E+02  0.36820854804E+02  0.00000000000E+00 0.  1.
         11    1    4    4    0    0  0.13070613575E+02  0.37122272360E+02  0.88696216745E+01  0.40343205541E+02  0.51100000000E-03 0. -1.
        -11    1    4    4    0    0  0.80942876392E+01 -0.81752557271E+01  0.30576088110E+01  0.11903834277E+02  0.51100000000E-03 0.  1.
         12    1    4    4    0    0  0.80648399248E+00 -0.19582053409E+01  0.99308735867E-01  0.21201053776E+01  0.00000000000E+00 0. -1.
</event>
<event>
 8    1  0.2514877E-006  0.9118800E+02  0.7816164E-02  0.1184000E+00
        -11   -1    0    0    0    0  0.00000000000E+00  0.00000000000E+00  0.45593999997E+02  0.45594000000E+02  0.51100000000E-03 0.  1.
         11   -1    0    0    0    0 -0.00000000000E+00 -0.00000000000E+00 -0.45593999997E+02  0.45594000000E+02  0.51100000000E-03 0. -1.
         23    2    1    2    0    0 -0.44408920985E-15  0.00000000000E+00 -0.71054273576E-14  0.91188000000E+02  0.91188000000E+02 0.  0.
    9900012    2    3    3    0    0  0.36252585795E+01  0.15610433931E+02  0.33150438174E+02  0.54367086127E+02  0.40000004444E+02 0.  0.
         12    1    3    3    0    0 -0.36252585795E+01 -0.15610433931E+02 -0.33150438174E+02  0.36820913873E+02  0.00000000000E+00 0. -1.
         11    1    4    4    0    0  0.41616085806E+01  0.36089629587E+01 -0.84341352756E+01  0.10073640738E+02  0.51100000000E-03 0. -1.
        -11    1    4    4    0    0 -0.33400255306E+01  0.10713312230E+02  0.37687906436E+02  0.39323137226E+02  0.51100000000E-03 0.  1.
         12    1    4    4    0    0  0.28036755295E+01  0.12881587426E+01  0.38966670132E+01  0.49703081628E+01  0.00000000000E+00 0. -1.
</event>
<event>
 8    1  0.2514877E-006  0.9118800E+02  0.7816164E-02  0.1184000E+00
        -11   -1    0    0    0    0  0.00000000000E+00  0.00000000000E+00  0.45593999997E+02  0.45594000000E+02  0.51100000000E-03 0.  1.
         11   -1    0    0    0    0 -0.00000000000E+00 -0.00000000000E+00 -0.45593999997E+02  0.45594000000E+02  0.51100000000E-03 0. -1.
         23    2    1    2    0    0  0.71054273576E-14 -0.15543122345E-14  0.00000000000E+00  0.91188000000E+02  0.91188000000E+02 0.  0.
    9900012    2    3    3    0    0  0.31065508364E+02 -0.15740654413E+01  0.19703684088E+02  0.54367100248E+02  0.40000036635E+02 0.  0.
         12    1    3    3    0    0 -0.31065508364E+02  0.15740654413E+01 -0.19703684088E+02  0.36820899752E+02  0.00000000000E+00 0. -1.
         11    1    4    4    0    0  0.63856678179E+01  0.56651453052E+01 -0.36083710932E+01  0.92677379665E+01  0.51100000000E-03 0. -1.
        -11    1    4    4    0    0  0.13504881267E+02 -0.18349582064E+02  0.12484382711E+02  0.25979776595E+02  0.51100000000E-03 0.  1.
         12    1    4    4    0    0  0.11174959279E+02  0.11110371318E+02  0.10827672470E+02  0.19119585686E+02  0.00000000000E+00 0. -1.
</event>
<event>
 8    1  0.2514877E-006  0.9118800E+02  0.7816164E-02  0.1184000E+00
        -11   -1    0    0    0    0  0.00000000000E+00  0.00000000000E+00  0.45593999997E+02  0.45594000000E+02  0.51100000000E-03 0.  1.
         11   -1    0    0    0    0 -0.00000000000E+00 -0.00000000000E+00 -0.45593999997E+02  0.45594000000E+02  0.51100000000E-03 0. -1.
         23    2    1    2    0    0 -0.35527136788E-14  0.00000000000E+00  0.00000000000E+00  0.91188000000E+02  0.91188000000E+02 0.  0.
    9900012    2    3    3    0    0 -0.26110527182E+02  0.18745595525E+02 -0.17961681396E+02  0.54367095884E+02  0.40000026687E+02 0.  0.
        -12    1    3    3    0    0  0.26110527182E+02 -0.18745595525E+02  0.17961681396E+02  0.36820904116E+02  0.00000000000E+00 0.  1.
         11    1    4    4    0    0 -0.11848923158E+02  0.16927135522E+02 -0.97011914446E+01  0.22826257089E+02  0.51100000000E-03 0. -1.
        -11    1    4    4    0    0 -0.84533345106E+00  0.78800894561E+01 -0.13715499258E+02  0.15840622419E+02  0.51100000000E-03 0.  1.
        -12    1    4    4    0    0 -0.13416270573E+02 -0.60616294528E+01  0.54550093061E+01  0.15700216376E+02  0.00000000000E+00 0.  1.
</event>
<event>
 8    1  0.2514877E-006  0.9118800E+02  0.7816164E-02  0.1184000E+00
        -11   -1    0    0    0    0  0.00000000000E+00  0.00000000000E+00  0.45593999997E+02  0.45594000000E+02  0.51100000000E-03 0. -1.
         11   -1    0    0    0    0 -0.00000000000E+00 -0.00000000000E+00 -0.45593999997E+02  0.45594000000E+02  0.51100000000E-03 0.  1.
         23    2    1    2    0    0  0.35527136788E-14 -0.11102230246E-15 -0.35527136788E-14  0.91188000000E+02  0.91188000000E+02 0.  0.
    9900012    2    3    3    0    0 -0.25103498164E+02 -0.95245254185E+00  0.26920022692E+02  0.54367076496E+02  0.39999982489E+02 0.  0.
         12    1    3    3    0    0  0.25103498164E+02  0.95245254185E+00 -0.26920022692E+02  0.36820923504E+02  0.00000000000E+00 0. -1.
         11    1    4    4    0    0 -0.32563326288E+01  0.53528338639E+00  0.25313417525E+02  0.25527619112E+02  0.51100000000E-03 0. -1.
        -11    1    4    4    0    0  0.23168810120E+00 -0.43413602214E+01 -0.39718397953E+01  0.58886840269E+01  0.51100000000E-03 0.  1.
        -12    1    4    4    0    0 -0.22078853636E+02  0.28536242931E+01  0.55784449626E+01  0.22950773357E+02  0.00000000000E+00 0.  1.
</event>
<event>
 8    1  0.2514877E-006  0.9118800E+02  0.7816164E-02  0.1184000E+00
        -11   -1    0    0    0    0  0.00000000000E+00  0.00000000000E+00  0.45593999997E+02  0.45594000000E+02  0.51100000000E-03 0.  1.
         11   -1    0    0    0    0 -0.00000000000E+00 -0.00000000000E+00 -0.45593999997E+02  0.45594000000E+02  0.51100000000E-03 0. -1.
         23    2    1    2    0    0 -0.35527136788E-14  0.00000000000E+00  0.35527136788E-14  0.91188000000E+02  0.91188000000E+02 0.  0.
    9900012    2    3    3    0    0  0.24207465331E+02 -0.82648461233E+01 -0.26485288841E+02  0.54367087678E+02  0.40000007981E+02 0.  0.
        -12    1    3    3    0    0 -0.24207465331E+02  0.82648461233E+01  0.26485288841E+02  0.36820912322E+02  0.00000000000E+00 0.  1.
         11    1    4    4    0    0  0.15984351694E+02 -0.47423308217E+01 -0.30834180562E+02  0.35053329256E+02  0.51100000000E-03 0. -1.
        -11    1    4    4    0    0 -0.39562001452E+01  0.58932192596E+00  0.50473962967E+01  0.64401109896E+01  0.51100000000E-03 0.  1.
        -12    1    4    4    0    0  0.12179313782E+02 -0.41118372276E+01 -0.69850457536E+00  0.12873647433E+02  0.00000000000E+00 0.  1.
</event>
<event>
 8    1  0.2514877E-006  0.9118800E+02  0.7816164E-02  0.1184000E+00
        -11   -1    0    0    0    0  0.00000000000E+00  0.00000000000E+00  0.45593999997E+02  0.45594000000E+02  0.51100000000E-03 0. -1.
         11   -1    0    0    0    0 -0.00000000000E+00 -0.00000000000E+00 -0.45593999997E+02  0.45594000000E+02  0.51100000000E-03 0.  1.
         23    2    1    2    0    0  0.00000000000E+00 -0.88817841970E-15  0.44408920985E-15  0.91188000000E+02  0.91188000000E+02 0.  0.
    9900012    2    3    3    0    0 -0.36386969892E+02 -0.45425433624E+01  0.33368411358E+01  0.54367071347E+02  0.39999970750E+02 0.  0.
        -12    1    3    3    0    0  0.36386969892E+02  0.45425433624E+01 -0.33368411358E+01  0.36820928653E+02  0.00000000000E+00 0.  1.
         11    1    4    4    0    0 -0.25629381120E+01 -0.12364598340E+02  0.49004955280E+01  0.13544991715E+02  0.51100000000E-03 0. -1.
        -11    1    4    4    0    0 -0.69929919076E+01  0.11523101133E+02 -0.25541733329E+01  0.13718877403E+02  0.51100000000E-03 0.  1.
         12    1    4    4    0    0 -0.26831039872E+02 -0.37010461547E+01  0.99051894066E+00  0.27103202228E+02  0.00000000000E+00 0. -1.
</event>
<event>
 8    1  0.2514877E-006  0.9118800E+02  0.7816164E-02  0.1184000E+00
        -11   -1    0    0    0    0  0.00000000000E+00  0.00000000000E+00  0.45593999997E+02  0.45594000000E+02  0.51100000000E-03 0.  1.
         11   -1    0    0    0    0 -0.00000000000E+00 -0.00000000000E+00 -0.45593999997E+02  0.45594000000E+02  0.51100000000E-03 0. -1.
         23    2    1    2    0    0  0.88817841970E-15  0.17763568394E-14  0.00000000000E+00  0.91188000000E+02  0.91188000000E+02 0.  0.
    9900012    2    3    3    0    0 -0.47130654441E+01 -0.13195465529E+02 -0.34050651631E+02  0.54367079685E+02  0.39999989757E+02 0.  0.
        -12    1    3    3    0    0  0.47130654441E+01  0.13195465529E+02  0.34050651631E+02  0.36820920315E+02  0.00000000000E+00 0.  1.
         11    1    4    4    0    0 -0.10676350385E+02 -0.73688664460E+01 -0.10151860710E+02  0.16472550695E+02  0.51100000000E-03 0. -1.
        -11    1    4    4    0    0  0.22146384920E+01 -0.16317202827E+02 -0.75601144415E+01  0.18119356015E+02  0.51100000000E-03 0.  1.
        -12    1    4    4    0    0  0.37486464493E+01  0.10490603744E+02 -0.16338676479E+02  0.19775172975E+02  0.00000000000E+00 0.  1.
</event>
<event>
 8    1  0.2514877E-006  0.9118800E+02  0.7816164E-02  0.1184000E+00
        -11   -1    0    0    0    0  0.00000000000E+00  0.00000000000E+00  0.45593999997E+02  0.45594000000E+02  0.51100000000E-03 0. -1.
         11   -1    0    0    0    0 -0.00000000000E+00 -0.00000000000E+00 -0.45593999997E+02  0.45594000000E+02  0.51100000000E-03 0.  1.
         23    2    1    2    0    0 -0.35527136788E-14  0.00000000000E+00  0.00000000000E+00  0.91188000000E+02  0.91188000000E+02 0.  0.
    9900012    2    3    3    0    0 -0.25720909540E+02 -0.24945591418E+02  0.84813374818E+01  0.54367071111E+02  0.39999970211E+02 0.  0.
         12    1    3    3    0    0  0.25720909540E+02  0.24945591418E+02 -0.84813374818E+01  0.36820928889E+02  0.00000000000E+00 0. -1.
         11    1    4    4    0    0 -0.55804548813E+01  0.22282591538E+01 -0.59312047331E+00  0.60380798020E+01  0.51100000000E-03 0. -1.
        -11    1    4    4    0    0  0.33024262396E+01 -0.21670348058E+02  0.10295322788E+02  0.24217837963E+02  0.51100000000E-03 0.  1.
        -12    1    4    4    0    0 -0.23442880898E+02 -0.55035025145E+01 -0.12208648329E+01  0.24111153346E+02  0.00000000000E+00 0.  1.
</event>
<event>
 8    1  0.2514877E-006  0.9118800E+02  0.7816164E-02  0.1184000E+00
        -11   -1    0    0    0    0  0.00000000000E+00  0.00000000000E+00  0.45593999997E+02  0.45594000000E+02  0.51100000000E-03 0. -1.
         11   -1    0    0    0    0 -0.00000000000E+00 -0.00000000000E+00 -0.45593999997E+02  0.45594000000E+02  0.51100000000E-03 0.  1.
         23    2    1    2    0    0  0.00000000000E+00 -0.35527136788E-14 -0.13322676296E-14  0.91188000000E+02  0.91188000000E+02 0.  0.
    9900012    2    3    3    0    0  0.22244590295E+02 -0.29340363341E+02 -0.32490398500E+00  0.54367023899E+02  0.39999862583E+02 0.  0.
        -12    1    3    3    0    0 -0.22244590295E+02  0.29340363341E+02  0.32490398500E+00  0.36820976101E+02  0.00000000000E+00 0.  1.
         11    1    4    4    0    0 -0.85778571463E+01 -0.42490204910E+01  0.35229981543E+01  0.10200261007E+02  0.51100000000E-03 0. -1.
        -11    1    4    4    0    0  0.94465791602E+01 -0.66609804139E+01  0.74648957750E+01  0.13759766971E+02  0.51100000000E-03 0.  1.
        -12    1    4    4    0    0  0.21375868281E+02 -0.18430362436E+02 -0.11312797914E+02  0.30406995921E+02  0.00000000000E+00 0.  1.
</event>
<event>
 8    1  0.2514877E-006  0.9118800E+02  0.7816164E-02  0.1184000E+00
        -11   -1    0    0    0    0  0.00000000000E+00  0.00000000000E+00  0.45593999997E+02  0.45594000000E+02  0.51100000000E-03 0. -1.
         11   -1    0    0    0    0 -0.00000000000E+00 -0.00000000000E+00 -0.45593999997E+02  0.45594000000E+02  0.51100000000E-03 0.  1.
         23    2    1    2    0    0  0.00000000000E+00  0.00000000000E+00  0.00000000000E+00  0.91188000000E+02  0.91188000000E+02 0.  0.
    9900012    2    3    3    0    0 -0.25626453426E+02  0.25145010416E+02 -0.81726890571E+01  0.54367088680E+02  0.40000010264E+02 0.  0.
         12    1    3    3    0    0  0.25626453426E+02 -0.25145010416E+02  0.81726890571E+01  0.36820911320E+02  0.00000000000E+00 0. -1.
         11    1    4    4    0    0 -0.20581034056E+02  0.33058123159E+02 -0.75966682480E+01  0.39675279940E+02  0.51100000000E-03 0. -1.
        -11    1    4    4    0    0 -0.59371966481E+01  0.50707084155E+00 -0.15813220809E+01  0.61650632325E+01  0.51100000000E-03 0.  1.
         12    1    4    4    0    0  0.89177727833E+00 -0.84201835840E+01  0.10053012718E+01  0.85267455075E+01  0.00000000000E+00 0. -1.
</event>
<event>
 8    1  0.2514877E-006  0.9118800E+02  0.7816164E-02  0.1184000E+00
        -11   -1    0    0    0    0  0.00000000000E+00  0.00000000000E+00  0.45593999997E+02  0.45594000000E+02  0.51100000000E-03 0. -1.
         11   -1    0    0    0    0 -0.00000000000E+00 -0.00000000000E+00 -0.45593999997E+02  0.45594000000E+02  0.51100000000E-03 0.  1.
         23    2    1    2    0    0  0.88817841970E-15  0.71054273576E-14  0.00000000000E+00  0.91188000000E+02  0.91188000000E+02 0.  0.
    9900012    2    3    3    0    0 -0.57342501296E+01  0.29964578889E+02  0.20616070177E+02  0.54367082547E+02  0.39999996282E+02 0.  0.
        -12    1    3    3    0    0  0.57342501296E+01 -0.29964578889E+02 -0.20616070177E+02  0.36820917453E+02  0.00000000000E+00 0.  1.
         11    1    4    4    0    0  0.48134811911E+01 -0.10380286918E+01  0.90533753501E+01  0.10305858054E+02  0.51100000000E-03 0. -1.
        -11    1    4    4    0    0 -0.11029519690E+02 -0.36340269429E+00  0.16215381566E+01  0.11154001630E+02  0.51100000000E-03 0.  1.
         12    1    4    4    0    0  0.48178836905E+00  0.31366010275E+02  0.99411566708E+01  0.32907222863E+02  0.00000000000E+00 0. -1.
</event>
<event>
 8    1  0.2514877E-006  0.9118800E+02  0.7816164E-02  0.1184000E+00
        -11   -1    0    0    0    0  0.00000000000E+00  0.00000000000E+00  0.45593999997E+02  0.45594000000E+02  0.51100000000E-03 0. -1.
         11   -1    0    0    0    0 -0.00000000000E+00 -0.00000000000E+00 -0.45593999997E+02  0.45594000000E+02  0.51100000000E-03 0.  1.
         23    2    1    2    0    0  0.35527136788E-14  0.00000000000E+00  0.00000000000E+00  0.91188000000E+02  0.91188000000E+02 0.  0.
    9900012    2    3    3    0    0  0.27601654561E+02 -0.17337886572E+02 -0.17126758279E+02  0.54367088897E+02  0.40000010759E+02 0.  0.
         12    1    3    3    0    0 -0.27601654561E+02  0.17337886572E+02  0.17126758279E+02  0.36820911103E+02  0.00000000000E+00 0. -1.
         11    1    4    4    0    0  0.24899737991E+02 -0.13953586132E+02  0.30660674815E+01  0.28707146985E+02  0.51100000000E-03 0. -1.
        -11    1    4    4    0    0  0.67418511785E+01 -0.40079707668E+01 -0.37075065407E+01  0.86753669658E+01  0.51100000000E-03 0.  1.
        -12    1    4    4    0    0 -0.40399346092E+01  0.62367032653E+00 -0.16485319220E+02  0.16984574946E+02  0.00000000000E+00 0.  1.
</event>
<event>
 8    1  0.2514877E-006  0.9118800E+02  0.7816164E-02  0.1184000E+00
        -11   -1    0    0    0    0  0.00000000000E+00  0.00000000000E+00  0.45593999997E+02  0.45594000000E+02  0.51100000000E-03 0.  1.
         11   -1    0    0    0    0 -0.00000000000E+00 -0.00000000000E+00 -0.45593999997E+02  0.45594000000E+02  0.51100000000E-03 0. -1.
         23    2    1    2    0    0  0.00000000000E+00  0.00000000000E+00  0.88817841970E-15  0.91188000000E+02  0.91188000000E+02 0.  0.
    9900012    2    3    3    0    0  0.35253393240E+02  0.81929642526E+01  0.67714948066E+01  0.54367088278E+02  0.40000009346E+02 0.  0.
         12    1    3    3    0    0 -0.35253393240E+02 -0.81929642526E+01 -0.67714948066E+01  0.36820911722E+02  0.00000000000E+00 0. -1.
         11    1    4    4    0    0 -0.11250694303E+01 -0.60033188859E+01 -0.16988414361E+00  0.61101947393E+01  0.51100000000E-03 0. -1.
        -11    1    4    4    0    0  0.36329295062E+02  0.70928732516E+01 -0.17199174884E+01  0.37055156821E+02  0.51100000000E-03 0.  1.
        -12    1    4    4    0    0  0.49167608508E-01  0.71034098869E+01  0.86612964386E+01  0.11201736717E+02  0.00000000000E+00 0.  1.
</event>
<event>
 8    1  0.2514877E-006  0.9118800E+02  0.7816164E-02  0.1184000E+00
        -11   -1    0    0    0    0  0.00000000000E+00  0.00000000000E+00  0.45593999997E+02  0.45594000000E+02  0.51100000000E-03 0.  1.
         11   -1    0    0    0    0 -0.00000000000E+00 -0.00000000000E+00 -0.45593999997E+02  0.45594000000E+02  0.51100000000E-03 0. -1.
         23    2    1    2    0    0  0.71054273576E-14  0.44408920985E-15 -0.35527136788E-14  0.91188000000E+02  0.91188000000E+02 0.  0.
    9900012    2    3    3    0    0  0.32973726504E+02  0.22450517257E+01  0.16232239109E+02  0.54366912519E+02  0.39999608667E+02 0.  0.
         12    1    3    3    0    0 -0.32973726504E+02 -0.22450517257E+01 -0.16232239109E+02  0.36821087481E+02  0.00000000000E+00 0. -1.
         11    1    4    4    0    0  0.21246945993E+02  0.66506724269E+01 -0.96768485603E+01  0.24275616493E+02  0.51100000000E-03 0. -1.
        -11    1    4    4    0    0  0.85149775105E+01 -0.77168900872E+00  0.22749326760E+02  0.24302926043E+02  0.51100000000E-03 0.  1.
         12    1    4    4    0    0  0.32118030004E+01 -0.36339316926E+01  0.31597609089E+01  0.57883699831E+01  0.00000000000E+00 0. -1.
</event>
<event>
 8    1  0.2514877E-006  0.9118800E+02  0.7816164E-02  0.1184000E+00
        -11   -1    0    0    0    0  0.00000000000E+00  0.00000000000E+00  0.45593999997E+02  0.45594000000E+02  0.51100000000E-03 0. -1.
         11   -1    0    0    0    0 -0.00000000000E+00 -0.00000000000E+00 -0.45593999997E+02  0.45594000000E+02  0.51100000000E-03 0.  1.
         23    2    1    2    0    0  0.00000000000E+00  0.00000000000E+00  0.35527136788E-14  0.91188000000E+02  0.91188000000E+02 0.  0.
    9900012    2    3    3    0    0 -0.14385229485E+02 -0.14956179556E+02 -0.30416405055E+02  0.54367084330E+02  0.40000000348E+02 0.  0.
         12    1    3    3    0    0  0.14385229485E+02  0.14956179556E+02  0.30416405055E+02  0.36820915670E+02  0.00000000000E+00 0. -1.
         11    1    4    4    0    0 -0.11344865064E+01 -0.17365063885E+02 -0.84519809747E+01  0.19346019902E+02  0.51100000000E-03 0. -1.
        -11    1    4    4    0    0 -0.16961721304E+02  0.30507633756E+00 -0.24691749404E+02  0.29957896289E+02  0.51100000000E-03 0.  1.
        -12    1    4    4    0    0  0.37109783247E+01  0.21038079913E+01  0.27273253236E+01  0.50631681397E+01  0.00000000000E+00 0.  1.
</event>
<event>
 8    1  0.2514877E-006  0.9118800E+02  0.7816164E-02  0.1184000E+00
        -11   -1    0    0    0    0  0.00000000000E+00  0.00000000000E+00  0.45593999997E+02  0.45594000000E+02  0.51100000000E-03 0.  1.
         11   -1    0    0    0    0 -0.00000000000E+00 -0.00000000000E+00 -0.45593999997E+02  0.45594000000E+02  0.51100000000E-03 0. -1.
         23    2    1    2    0    0 -0.35527136788E-14  0.00000000000E+00 -0.17763568394E-14  0.91188000000E+02  0.91188000000E+02 0.  0.
    9900012    2    3    3    0    0 -0.22879556699E+02 -0.28264940452E+02  0.57787191789E+01  0.54367155783E+02  0.40000163238E+02 0.  0.
         12    1    3    3    0    0  0.22879556699E+02  0.28264940452E+02 -0.57787191789E+01  0.36820844217E+02  0.00000000000E+00 0. -1.
         11    1    4    4    0    0  0.14198176490E+01 -0.95021079104E+01 -0.45609865824E+01  0.10635249680E+02  0.51100000000E-03 0. -1.
        -11    1    4    4    0    0  0.36661850629E+01 -0.12214523016E+02 -0.11335513300E+01  0.12803141189E+02  0.51100000000E-03 0.  1.
         12    1    4    4    0    0 -0.27965559411E+02 -0.65483095254E+01  0.11473257091E+02  0.30928764914E+02  0.00000000000E+00 0. -1.
</event>
<event>
 8    1  0.2514877E-006  0.9118800E+02  0.7816164E-02  0.1184000E+00
        -11   -1    0    0    0    0  0.00000000000E+00  0.00000000000E+00  0.45593999997E+02  0.45594000000E+02  0.51100000000E-03 0.  1.
         11   -1    0    0    0    0 -0.00000000000E+00 -0.00000000000E+00 -0.45593999997E+02  0.45594000000E+02  0.51100000000E-03 0. -1.
         23    2    1    2    0    0  0.44408920985E-15  0.17763568394E-14  0.00000000000E+00  0.91188000000E+02  0.91188000000E+02 0.  0.
    9900012    2    3    3    0    0 -0.36196074510E+01 -0.83886446307E+01  0.35669436896E+02  0.54367086849E+02  0.40000006089E+02 0.  0.
         12    1    3    3    0    0  0.36196074510E+01  0.83886446307E+01 -0.35669436896E+02  0.36820913151E+02  0.00000000000E+00 0. -1.
         11    1    4    4    0    0  0.26833624869E+01  0.27793462380E+01  0.17641944044E+02  0.18059994177E+02  0.51100000000E-03 0.  1.
        -11    1    4    4    0    0  0.93042878513E+01  0.21559915021E+00 -0.78857083567E+00  0.93401338126E+01  0.51100000000E-03 0. -1.
         12    1    4    4    0    0 -0.15607257789E+02 -0.11383590019E+02  0.18816063687E+02  0.26966958859E+02  0.00000000000E+00 0. -1.
</event>
<event>
 8    1  0.2514877E-006  0.9118800E+02  0.7816164E-02  0.1184000E+00
        -11   -1    0    0    0    0  0.00000000000E+00  0.00000000000E+00  0.45593999997E+02  0.45594000000E+02  0.51100000000E-03 0. -1.
         11   -1    0    0    0    0 -0.00000000000E+00 -0.00000000000E+00 -0.45593999997E+02  0.45594000000E+02  0.51100000000E-03 0.  1.
         23    2    1    2    0    0  0.17763568394E-14 -0.53290705182E-14  0.71054273576E-14  0.91188000000E+02  0.91188000000E+02 0.  0.
    9900012    2    3    3    0    0  0.74931941104E+01 -0.91075986173E+01  0.34880970089E+02  0.54367103964E+02  0.40000045106E+02 0.  0.
        -12    1    3    3    0    0 -0.74931941104E+01  0.91075986173E+01 -0.34880970089E+02  0.36820896036E+02  0.00000000000E+00 0.  1.
         11    1    4    4    0    0  0.38107044159E+01 -0.18505839116E+02  0.19210023048E+02  0.26944619783E+02  0.51100000000E-03 0. -1.
        -11    1    4    4    0    0  0.10727791731E+02  0.85191731785E+01  0.14963892523E+02  0.20287432237E+02  0.51100000000E-03 0.  1.
        -12    1    4    4    0    0 -0.70453020368E+01  0.87906731979E+00  0.70705451930E+00  0.71350519434E+01  0.00000000000E+00 0.  1.
</event>
<event>
 8    1  0.2514877E-006  0.9118800E+02  0.7816164E-02  0.1184000E+00
        -11   -1    0    0    0    0  0.00000000000E+00  0.00000000000E+00  0.45593999997E+02  0.45594000000E+02  0.51100000000E-03 0. -1.
         11   -1    0    0    0    0 -0.00000000000E+00 -0.00000000000E+00 -0.45593999997E+02  0.45594000000E+02  0.51100000000E-03 0.  1.
         23    2    1    2    0    0  0.00000000000E+00 -0.35527136788E-14  0.00000000000E+00  0.91188000000E+02  0.91188000000E+02 0.  0.
    9900012    2    3    3    0    0 -0.49569671637E+01  0.22537543981E+02 -0.28692651366E+02  0.54367073144E+02  0.39999974847E+02 0.  0.
         12    1    3    3    0    0  0.49569671637E+01 -0.22537543981E+02  0.28692651366E+02  0.36820926856E+02  0.00000000000E+00 0. -1.
         11    1    4    4    0    0  0.65112564753E+01  0.97654311911E+01 -0.11778123543E+01  0.11796073475E+02  0.51100000000E-03 0. -1.
        -11    1    4    4    0    0  0.35875087364E+01  0.15533459046E+02 -0.82040796561E+01  0.17929458780E+02  0.51100000000E-03 0.  1.
         12    1    4    4    0    0 -0.15055732375E+02 -0.27613462565E+01 -0.19310759355E+02  0.24641540889E+02  0.00000000000E+00 0. -1.
</event>
<event>
 8    1  0.2514877E-006  0.9118800E+02  0.7816164E-02  0.1184000E+00
        -11   -1    0    0    0    0  0.00000000000E+00  0.00000000000E+00  0.45593999997E+02  0.45594000000E+02  0.51100000000E-03 0. -1.
         11   -1    0    0    0    0 -0.00000000000E+00 -0.00000000000E+00 -0.45593999997E+02  0.45594000000E+02  0.51100000000E-03 0.  1.
         23    2    1    2    0    0  0.00000000000E+00  0.00000000000E+00  0.00000000000E+00  0.91188000000E+02  0.91188000000E+02 0.  0.
    9900012    2    3    3    0    0 -0.23098354690E+02  0.20576406131E+02  0.19971412389E+02  0.54367084863E+02  0.40000001563E+02 0.  0.
        -12    1    3    3    0    0  0.23098354690E+02 -0.20576406131E+02 -0.19971412389E+02  0.36820915137E+02  0.00000000000E+00 0.  1.
         11    1    4    4    0    0 -0.15174259354E+02  0.43403199253E+01  0.21525942368E+02  0.26691997286E+02  0.51100000000E-03 0. -1.
        -11    1    4    4    0    0 -0.13915249835E+02  0.10664649271E+02 -0.57888203864E+01  0.18462918614E+02  0.51100000000E-03 0.  1.
         12    1    4    4    0    0  0.59911544988E+01  0.55714369351E+01  0.42342904078E+01  0.92121689633E+01  0.00000000000E+00 0. -1.
</event>
<event>
 8    1  0.2514877E-006  0.9118800E+02  0.7816164E-02  0.1184000E+00
        -11   -1    0    0    0    0  0.00000000000E+00  0.00000000000E+00  0.45593999997E+02  0.45594000000E+02  0.51100000000E-03 0. -1.
         11   -1    0    0    0    0 -0.00000000000E+00 -0.00000000000E+00 -0.45593999997E+02  0.45594000000E+02  0.51100000000E-03 0.  1.
         23    2    1    2    0    0  0.00000000000E+00  0.35527136788E-14  0.00000000000E+00  0.91188000000E+02  0.91188000000E+02 0.  0.
    9900012    2    3    3    0    0  0.80237973115E+01  0.12544003465E+02 -0.33675616044E+02  0.54367075756E+02  0.39999980800E+02 0.  0.
         12    1    3    3    0    0 -0.80237973115E+01 -0.12544003465E+02  0.33675616044E+02  0.36820924244E+02  0.00000000000E+00 0. -1.
         11    1    4    4    0    0 -0.33867626664E+01 -0.29302746159E+01  0.12543067363E+00  0.44802236326E+01  0.51100000000E-03 0. -1.
        -11    1    4    4    0    0 -0.60523545558E+01 -0.12085602179E+01 -0.22297888158E+02  0.23136279521E+02  0.51100000000E-03 0.  1.
         12    1    4    4    0    0  0.17462914534E+02  0.16682838299E+02 -0.11503158560E+02  0.26750572603E+02  0.00000000000E+00 0. -1.
</event>
<event>
 8    1  0.2514877E-006  0.9118800E+02  0.7816164E-02  0.1184000E+00
        -11   -1    0    0    0    0  0.00000000000E+00  0.00000000000E+00  0.45593999997E+02  0.45594000000E+02  0.51100000000E-03 0. -1.
         11   -1    0    0    0    0 -0.00000000000E+00 -0.00000000000E+00 -0.45593999997E+02  0.45594000000E+02  0.51100000000E-03 0.  1.
         23    2    1    2    0    0  0.00000000000E+00 -0.17763568394E-14 -0.44408920985E-15  0.91188000000E+02  0.91188000000E+02 0.  0.
    9900012    2    3    3    0    0 -0.36309767830E+02  0.54470575643E+01  0.27767332208E+01  0.54367083073E+02  0.39999997482E+02 0.  0.
        -12    1    3    3    0    0  0.36309767830E+02 -0.54470575643E+01 -0.27767332208E+01  0.36820916927E+02  0.00000000000E+00 0.  1.
         11    1    4    4    0    0 -0.20542849661E+02  0.44014286703E+01 -0.17183012227E+01  0.21079226881E+02  0.51100000000E-03 0. -1.
        -11    1    4    4    0    0 -0.58889147099E+01 -0.12116614162E+02 -0.49035278657E+01  0.14336535181E+02  0.51100000000E-03 0.  1.
        -12    1    4    4    0    0 -0.98780034585E+01  0.13162243056E+02  0.93985623092E+01  0.18951321011E+02  0.00000000000E+00 0.  1.
</event>
<event>
 8    1  0.2514877E-006  0.9118800E+02  0.7816164E-02  0.1184000E+00
        -11   -1    0    0    0    0  0.00000000000E+00  0.00000000000E+00  0.45593999997E+02  0.45594000000E+02  0.51100000000E-03 0. -1.
         11   -1    0    0    0    0 -0.00000000000E+00 -0.00000000000E+00 -0.45593999997E+02  0.45594000000E+02  0.51100000000E-03 0.  1.
         23    2    1    2    0    0 -0.44408920985E-15  0.35527136788E-14  0.00000000000E+00  0.91188000000E+02  0.91188000000E+02 0.  0.
    9900012    2    3    3    0    0 -0.36907273931E+00  0.29527369355E+02  0.21994964300E+02  0.54367079177E+02  0.39999988599E+02 0.  0.
        -12    1    3    3    0    0  0.36907273931E+00 -0.29527369355E+02 -0.21994964300E+02  0.36820920823E+02  0.00000000000E+00 0.  1.
         11    1    4    4    0    0  0.54977634674E+01  0.26524757112E+02  0.31217636724E+01  0.27267811641E+02  0.51100000000E-03 0. -1.
        -11    1    4    4    0    0  0.37785796724E+01  0.73420430726E+00 -0.17430370641E+01  0.42255057418E+01  0.51100000000E-03 0.  1.
        -12    1    4    4    0    0 -0.96454158791E+01  0.22684079361E+01  0.20616237692E+02  0.22873761794E+02  0.00000000000E+00 0.  1.
</event>
<event>
 8    1  0.2514877E-006  0.9118800E+02  0.7816164E-02  0.1184000E+00
        -11   -1    0    0    0    0  0.00000000000E+00  0.00000000000E+00  0.45593999997E+02  0.45594000000E+02  0.51100000000E-03 0.  1.
         11   -1    0    0    0    0 -0.00000000000E+00 -0.00000000000E+00 -0.45593999997E+02  0.45594000000E+02  0.51100000000E-03 0. -1.
         23    2    1    2    0    0  0.00000000000E+00  0.00000000000E+00  0.00000000000E+00  0.91188000000E+02  0.91188000000E+02 0.  0.
    9900012    2    3    3    0    0  0.21141863624E+02 -0.23090737035E+02 -0.19380930544E+02  0.54367068411E+02  0.39999964056E+02 0.  0.
        -12    1    3    3    0    0 -0.21141863624E+02  0.23090737035E+02  0.19380930544E+02  0.36820931589E+02  0.00000000000E+00 0.  1.
         11    1    4    4    0    0  0.13418916124E+02 -0.20223181915E+01  0.86400506077E+01  0.16087496871E+02  0.51100000000E-03 0. -1.
        -11    1    4    4    0    0  0.94518887697E+01 -0.66870252201E+01 -0.13127440478E+02  0.17503833905E+02  0.51100000000E-03 0.  1.
        -12    1    4    4    0    0 -0.17289412694E+01 -0.14381393624E+02 -0.14893540674E+02  0.20775737635E+02  0.00000000000E+00 0.  1.
</event>
<event>
 8    1  0.2514877E-006  0.9118800E+02  0.7816164E-02  0.1184000E+00
        -11   -1    0    0    0    0  0.00000000000E+00  0.00000000000E+00  0.45593999997E+02  0.45594000000E+02  0.51100000000E-03 0.  1.
         11   -1    0    0    0    0 -0.00000000000E+00 -0.00000000000E+00 -0.45593999997E+02  0.45594000000E+02  0.51100000000E-03 0. -1.
         23    2    1    2    0    0  0.00000000000E+00 -0.35527136788E-14 -0.17763568394E-14  0.91188000000E+02  0.91188000000E+02 0.  0.
    9900012    2    3    3    0    0  0.17618290932E+02 -0.31738444645E+02 -0.61680816926E+01  0.54367105448E+02  0.40000048490E+02 0.  0.
        -12    1    3    3    0    0 -0.17618290932E+02  0.31738444645E+02  0.61680816926E+01  0.36820894552E+02  0.00000000000E+00 0.  1.
         11    1    4    4    0    0  0.91867439081E+01 -0.19919013883E+02 -0.12084077884E+02  0.25043728082E+02  0.51100000000E-03 0. -1.
        -11    1    4    4    0    0  0.28667799202E+01 -0.14378440243E+02 -0.60659106666E+01  0.15866733861E+02  0.51100000000E-03 0.  1.
        -12    1    4    4    0    0  0.55647671037E+01  0.25590094815E+01  0.11981906858E+02  0.13456643505E+02  0.00000000000E+00 0.  1.
</event>
<event>
 8    1  0.2514877E-006  0.9118800E+02  0.7816164E-02  0.1184000E+00
        -11   -1    0    0    0    0  0.00000000000E+00  0.00000000000E+00  0.45593999997E+02  0.45594000000E+02  0.51100000000E-03 0.  1.
         11   -1    0    0    0    0 -0.00000000000E+00 -0.00000000000E+00 -0.45593999997E+02  0.45594000000E+02  0.51100000000E-03 0. -1.
         23    2    1    2    0    0 -0.17763568394E-14  0.00000000000E+00  0.00000000000E+00  0.91188000000E+02  0.91188000000E+02 0.  0.
    9900012    2    3    3    0    0  0.12938415242E+02 -0.23607795220E+02 -0.25120689931E+02  0.54367086829E+02  0.40000006044E+02 0.  0.
        -12    1    3    3    0    0 -0.12938415242E+02  0.23607795220E+02  0.25120689931E+02  0.36820913171E+02  0.00000000000E+00 0.  1.
         11    1    4    4    0    0  0.12022062923E+02 -0.26091079719E+02 -0.85192237699E+01  0.29964172135E+02  0.51100000000E-03 0. -1.
        -11    1    4    4    0    0  0.31047633349E+01 -0.10755372941E+01  0.29465442926E+01  0.44134407628E+01  0.51100000000E-03 0.  1.
         12    1    4    4    0    0 -0.21884110158E+01  0.35588217938E+01 -0.19548010454E+02  0.19989473931E+02  0.00000000000E+00 0. -1.
</event>
<event>
 8    1  0.2514877E-006  0.9118800E+02  0.7816164E-02  0.1184000E+00
        -11   -1    0    0    0    0  0.00000000000E+00  0.00000000000E+00  0.45593999997E+02  0.45594000000E+02  0.51100000000E-03 0.  1.
         11   -1    0    0    0    0 -0.00000000000E+00 -0.00000000000E+00 -0.45593999997E+02  0.45594000000E+02  0.51100000000E-03 0. -1.
         23    2    1    2    0    0  0.00000000000E+00  0.00000000000E+00  0.00000000000E+00  0.91188000000E+02  0.91188000000E+02 0.  0.
    9900012    2    3    3    0    0  0.16418978199E+02 -0.28526735255E+02 -0.16505102882E+02  0.54367137836E+02  0.40000122324E+02 0.  0.
        -12    1    3    3    0    0 -0.16418978199E+02  0.28526735255E+02  0.16505102882E+02  0.36820862164E+02  0.00000000000E+00 0.  1.
         11    1    4    4    0    0  0.27376047556E+02 -0.23251382035E+02 -0.99601330718E+01  0.37273033113E+02  0.51100000000E-03 0. -1.
        -11    1    4    4    0    0 -0.86538990188E+01 -0.92526133222E+00 -0.81433510095E+01  0.11918902747E+02  0.51100000000E-03 0.  1.
        -12    1    4    4    0    0 -0.23031703382E+01 -0.43500918873E+01  0.15983811998E+01  0.51752019762E+01  0.00000000000E+00 0.  1.
</event>
<event>
 8    1  0.2514877E-006  0.9118800E+02  0.7816164E-02  0.1184000E+00
        -11   -1    0    0    0    0  0.00000000000E+00  0.00000000000E+00  0.45593999997E+02  0.45594000000E+02  0.51100000000E-03 0.  1.
         11   -1    0    0    0    0 -0.00000000000E+00 -0.00000000000E+00 -0.45593999997E+02  0.45594000000E+02  0.51100000000E-03 0. -1.
         23    2    1    2    0    0  0.00000000000E+00 -0.17763568394E-14  0.00000000000E+00  0.91188000000E+02  0.91188000000E+02 0.  0.
    9900012    2    3    3    0    0  0.63141860033E+01  0.12490763779E+02  0.34057183460E+02  0.54367083799E+02  0.39999999137E+02 0.  0.
         12    1    3    3    0    0 -0.63141860033E+01 -0.12490763779E+02 -0.34057183460E+02  0.36820916201E+02  0.00000000000E+00 0. -1.
         11    1    4    4    0    0  0.41525800021E+00 -0.79521738239E+01  0.12365770859E+02  0.14707882136E+02  0.51100000000E-03 0. -1.
        -11    1    4    4    0    0 -0.45719170085E+01  0.76923123577E+01 -0.34475327611E+01  0.95895556174E+01  0.51100000000E-03 0.  1.
        -12    1    4    4    0    0  0.10470845012E+02  0.12750625245E+02  0.25138945361E+02  0.30069646045E+02  0.00000000000E+00 0.  1.
</event>
<event>
 8    1  0.2514877E-006  0.9118800E+02  0.7816164E-02  0.1184000E+00
        -11   -1    0    0    0    0  0.00000000000E+00  0.00000000000E+00  0.45593999997E+02  0.45594000000E+02  0.51100000000E-03 0. -1.
         11   -1    0    0    0    0 -0.00000000000E+00 -0.00000000000E+00 -0.45593999997E+02  0.45594000000E+02  0.51100000000E-03 0.  1.
         23    2    1    2    0    0  0.35527136788E-14 -0.35527136788E-14 -0.35527136788E-14  0.91188000000E+02  0.91188000000E+02 0.  0.
    9900012    2    3    3    0    0 -0.19826908094E+02  0.23566626655E+02  0.20181354413E+02  0.54367092320E+02  0.40000018561E+02 0.  0.
        -12    1    3    3    0    0  0.19826908094E+02 -0.23566626655E+02 -0.20181354413E+02  0.36820907680E+02  0.00000000000E+00 0.  1.
         11    1    4    4    0    0 -0.12717274136E+02  0.11532067930E+02  0.97260730777E+01  0.19731045334E+02  0.51100000000E-03 0. -1.
        -11    1    4    4    0    0 -0.17689043222E+02  0.16807615056E+01  0.28568828760E+01  0.17996916107E+02  0.51100000000E-03 0.  1.
        -12    1    4    4    0    0  0.10579409264E+02  0.10353797219E+02  0.75983984591E+01  0.16639130878E+02  0.00000000000E+00 0.  1.
</event>
<event>
 8    1  0.2514877E-006  0.9118800E+02  0.7816164E-02  0.1184000E+00
        -11   -1    0    0    0    0  0.00000000000E+00  0.00000000000E+00  0.45593999997E+02  0.45594000000E+02  0.51100000000E-03 0.  1.
         11   -1    0    0    0    0 -0.00000000000E+00 -0.00000000000E+00 -0.45593999997E+02  0.45594000000E+02  0.51100000000E-03 0. -1.
         23    2    1    2    0    0  0.44408920985E-15 -0.35527136788E-14 -0.71054273576E-14  0.91188000000E+02  0.91188000000E+02 0.  0.
    9900012    2    3    3    0    0  0.28375965076E+01 -0.16661948318E+02  0.32712488352E+02  0.54367090589E+02  0.40000014615E+02 0.  0.
         12    1    3    3    0    0 -0.28375965076E+01  0.16661948318E+02 -0.32712488352E+02  0.36820909411E+02  0.00000000000E+00 0. -1.
         11    1    4    4    0    0  0.21066694928E+00  0.29379359982E+01  0.33396357853E+01  0.44529783216E+01  0.51100000000E-03 0. -1.
        -11    1    4    4    0    0  0.13036793198E+00  0.11314776923E+01  0.29007418624E+02  0.29029770462E+02  0.51100000000E-03 0.  1.
         12    1    4    4    0    0  0.24965616264E+01 -0.20731362008E+02  0.36543394257E+00  0.20884341805E+02  0.00000000000E+00 0. -1.
</event>
<event>
 8    1  0.2514877E-006  0.9118800E+02  0.7816164E-02  0.1184000E+00
        -11   -1    0    0    0    0  0.00000000000E+00  0.00000000000E+00  0.45593999997E+02  0.45594000000E+02  0.51100000000E-03 0.  1.
         11   -1    0    0    0    0 -0.00000000000E+00 -0.00000000000E+00 -0.45593999997E+02  0.45594000000E+02  0.51100000000E-03 0. -1.
         23    2    1    2    0    0  0.00000000000E+00  0.69388939039E-15  0.00000000000E+00  0.91188000000E+02  0.91188000000E+02 0.  0.
    9900012    2    3    3    0    0  0.16568200500E+02  0.24724338092E+00  0.32881788762E+02  0.54367103361E+02  0.40000043732E+02 0.  0.
         12    1    3    3    0    0 -0.16568200500E+02 -0.24724338092E+00 -0.32881788762E+02  0.36820896639E+02  0.00000000000E+00 0. -1.
         11    1    4    4    0    0 -0.23685220329E+01  0.13666096622E+02  0.25267872278E+02  0.28824251304E+02  0.51100000000E-03 0. -1.
        -11    1    4    4    0    0  0.14385274908E+02 -0.78365245720E+01  0.81950073721E+01  0.18316806425E+02  0.51100000000E-03 0.  1.
         12    1    4    4    0    0  0.45514476247E+01 -0.55823286691E+01 -0.58109088767E+00  0.72260456316E+01  0.00000000000E+00 0. -1.
</event>
<event>
 8    1  0.2514877E-006  0.9118800E+02  0.7816164E-02  0.1184000E+00
        -11   -1    0    0    0    0  0.00000000000E+00  0.00000000000E+00  0.45593999997E+02  0.45594000000E+02  0.51100000000E-03 0. -1.
         11   -1    0    0    0    0 -0.00000000000E+00 -0.00000000000E+00 -0.45593999997E+02  0.45594000000E+02  0.51100000000E-03 0.  1.
         23    2    1    2    0    0  0.00000000000E+00 -0.35527136788E-14  0.00000000000E+00  0.91188000000E+02  0.91188000000E+02 0.  0.
    9900012    2    3    3    0    0  0.22808718725E+02 -0.16592740074E+02 -0.23669029885E+02  0.54367086802E+02  0.40000005982E+02 0.  0.
         12    1    3    3    0    0 -0.22808718725E+02  0.16592740074E+02  0.23669029885E+02  0.36820913198E+02  0.00000000000E+00 0. -1.
         11    1    4    4    0    0  0.42372113743E+00 -0.20470805285E+02  0.13288644268E+01  0.20518267215E+02  0.51100000000E-03 0. -1.
        -11    1    4    4    0    0  0.11325906232E+02  0.20157127070E+01 -0.11047393332E+02  0.15949424735E+02  0.51100000000E-03 0.  1.
         12    1    4    4    0    0  0.11059091355E+02  0.18623525031E+01 -0.13950500980E+02  0.17899394851E+02  0.00000000000E+00 0. -1.
</event>
<event>
 8    1  0.2514877E-006  0.9118800E+02  0.7816164E-02  0.1184000E+00
        -11   -1    0    0    0    0  0.00000000000E+00  0.00000000000E+00  0.45593999997E+02  0.45594000000E+02  0.51100000000E-03 0.  1.
         11   -1    0    0    0    0 -0.00000000000E+00 -0.00000000000E+00 -0.45593999997E+02  0.45594000000E+02  0.51100000000E-03 0. -1.
         23    2    1    2    0    0  0.00000000000E+00  0.00000000000E+00  0.00000000000E+00  0.91188000000E+02  0.91188000000E+02 0.  0.
    9900012    2    3    3    0    0 -0.54547774327E+01  0.33057910269E+02 -0.15270951914E+02  0.54367054866E+02  0.39999933179E+02 0.  0.
        -12    1    3    3    0    0  0.54547774327E+01 -0.33057910269E+02  0.15270951914E+02  0.36820945134E+02  0.00000000000E+00 0.  1.
         11    1    4    4    0    0 -0.21167710925E+01 -0.47692167335E+01 -0.20330982165E+01  0.55999675649E+01  0.51100000000E-03 0. -1.
        -11    1    4    4    0    0 -0.75977474693E+01  0.33579444052E+01 -0.11242541141E+02  0.13978422257E+02  0.51100000000E-03 0.  1.
        -12    1    4    4    0    0  0.42597411291E+01  0.34469182597E+02 -0.19953125568E+01  0.34788665044E+02  0.00000000000E+00 0.  1.
</event>
<event>
 8    1  0.2514877E-006  0.9118800E+02  0.7816164E-02  0.1184000E+00
        -11   -1    0    0    0    0  0.00000000000E+00  0.00000000000E+00  0.45593999997E+02  0.45594000000E+02  0.51100000000E-03 0.  1.
         11   -1    0    0    0    0 -0.00000000000E+00 -0.00000000000E+00 -0.45593999997E+02  0.45594000000E+02  0.51100000000E-03 0. -1.
         23    2    1    2    0    0  0.17763568394E-14  0.17763568394E-14  0.00000000000E+00  0.91188000000E+02  0.91188000000E+02 0.  0.
    9900012    2    3    3    0    0 -0.12431072592E+02  0.12177764508E+02  0.32449166416E+02  0.54367110341E+02  0.40000059643E+02 0.  0.
         12    1    3    3    0    0  0.12431072592E+02 -0.12177764508E+02 -0.32449166416E+02  0.36820889659E+02  0.00000000000E+00 0. -1.
         11    1    4    4    0    0  0.15257039671E+01 -0.10309379121E+01 -0.51673001996E+01  0.54855808432E+01  0.51100000000E-03 0. -1.
        -11    1    4    4    0    0  0.35167550926E+01 -0.13988044497E+01  0.19264132732E+02  0.19632397470E+02  0.51100000000E-03 0.  1.
         12    1    4    4    0    0 -0.17473531652E+02  0.14607506870E+02  0.18352333884E+02  0.29249132027E+02  0.00000000000E+00 0. -1.
</event>
<event>
 8    1  0.2514877E-006  0.9118800E+02  0.7816164E-02  0.1184000E+00
        -11   -1    0    0    0    0  0.00000000000E+00  0.00000000000E+00  0.45593999997E+02  0.45594000000E+02  0.51100000000E-03 0. -1.
         11   -1    0    0    0    0 -0.00000000000E+00 -0.00000000000E+00 -0.45593999997E+02  0.45594000000E+02  0.51100000000E-03 0.  1.
         23    2    1    2    0    0  0.35527136788E-14 -0.35527136788E-14  0.00000000000E+00  0.91188000000E+02  0.91188000000E+02 0.  0.
    9900012    2    3    3    0    0 -0.26275763634E+02  0.25035021749E+02  0.62139469889E+01  0.54367065659E+02  0.39999957783E+02 0.  0.
         12    1    3    3    0    0  0.26275763634E+02 -0.25035021749E+02 -0.62139469889E+01  0.36820934341E+02  0.00000000000E+00 0. -1.
         11    1    4    4    0    0 -0.12431538408E+02  0.26675328123E+02  0.14134394322E+02  0.32648083876E+02  0.51100000000E-03 0. -1.
        -11    1    4    4    0    0 -0.11468728646E+02 -0.45716853417E+01  0.64103796105E+00  0.12362967829E+02  0.51100000000E-03 0.  1.
        -12    1    4    4    0    0 -0.23754965804E+01  0.29313789684E+01 -0.85614852946E+01  0.93560139541E+01  0.00000000000E+00 0.  1.
</event>
<event>
 8    1  0.2514877E-006  0.9118800E+02  0.7816164E-02  0.1184000E+00
        -11   -1    0    0    0    0  0.00000000000E+00  0.00000000000E+00  0.45593999997E+02  0.45594000000E+02  0.51100000000E-03 0.  1.
         11   -1    0    0    0    0 -0.00000000000E+00 -0.00000000000E+00 -0.45593999997E+02  0.45594000000E+02  0.51100000000E-03 0. -1.
         23    2    1    2    0    0 -0.35527136788E-14  0.00000000000E+00 -0.35527136788E-14  0.91188000000E+02  0.91188000000E+02 0.  0.
    9900012    2    3    3    0    0 -0.18762251505E+02  0.20379815095E+02  0.24257398860E+02  0.54367077357E+02  0.39999984451E+02 0.  0.
         12    1    3    3    0    0  0.18762251505E+02 -0.20379815095E+02 -0.24257398860E+02  0.36820922643E+02  0.00000000000E+00 0. -1.
         11    1    4    4    0    0  0.57201999976E+01  0.17769393902E+02 -0.85319204673E+00  0.18686893390E+02  0.51100000000E-03 0. -1.
        -11    1    4    4    0    0 -0.12581022361E+02  0.35969083622E+01  0.15941069264E+02  0.20623713608E+02  0.51100000000E-03 0.  1.
         12    1    4    4    0    0 -0.11901429141E+02 -0.98648716834E+00  0.91695216421E+01  0.15056470359E+02  0.00000000000E+00 0. -1.
</event>
<event>
 8    1  0.2514877E-006  0.9118800E+02  0.7816164E-02  0.1184000E+00
        -11   -1    0    0    0    0  0.00000000000E+00  0.00000000000E+00  0.45593999997E+02  0.45594000000E+02  0.51100000000E-03 0.  1.
         11   -1    0    0    0    0 -0.00000000000E+00 -0.00000000000E+00 -0.45593999997E+02  0.45594000000E+02  0.51100000000E-03 0. -1.
         23    2    1    2    0    0  0.35527136788E-14  0.00000000000E+00 -0.44408920985E-15  0.91188000000E+02  0.91188000000E+02 0.  0.
    9900012    2    3    3    0    0  0.27507303459E+02 -0.24262675641E+02  0.32328745496E+01  0.54367073196E+02  0.39999974964E+02 0.  0.
         12    1    3    3    0    0 -0.27507303459E+02  0.24262675641E+02 -0.32328745496E+01  0.36820926804E+02  0.00000000000E+00 0. -1.
         11    1    4    4    0    0  0.18251881802E+01 -0.91275786069E+01 -0.97453254069E+01  0.13476474712E+02  0.51100000000E-03 0. -1.
        -11    1    4    4    0    0  0.89156302100E+01 -0.17956527079E+02  0.96267224627E+00  0.20071174975E+02  0.51100000000E-03 0.  1.
         12    1    4    4    0    0  0.16766485069E+02  0.28214300445E+01  0.12015527710E+02  0.20819423508E+02  0.00000000000E+00 0. -1.
</event>
<event>
 8    1  0.2514877E-006  0.9118800E+02  0.7816164E-02  0.1184000E+00
        -11   -1    0    0    0    0  0.00000000000E+00  0.00000000000E+00  0.45593999997E+02  0.45594000000E+02  0.51100000000E-03 0.  1.
         11   -1    0    0    0    0 -0.00000000000E+00 -0.00000000000E+00 -0.45593999997E+02  0.45594000000E+02  0.51100000000E-03 0. -1.
         23    2    1    2    0    0  0.00000000000E+00  0.00000000000E+00  0.35527136788E-14  0.91188000000E+02  0.91188000000E+02 0.  0.
    9900012    2    3    3    0    0 -0.19185201444E+02  0.51241334066E+01 -0.31007278121E+02  0.54367082112E+02  0.39999995291E+02 0.  0.
        -12    1    3    3    0    0  0.19185201444E+02 -0.51241334066E+01  0.31007278121E+02  0.36820917888E+02  0.00000000000E+00 0.  1.
         11    1    4    4    0    0 -0.12892081682E+01 -0.58399402192E+01 -0.17004548060E+02  0.18025582222E+02  0.51100000000E-03 0. -1.
        -11    1    4    4    0    0  0.43959618019E+00 -0.74800265249E+01 -0.24455010818E+01  0.78819107720E+01  0.51100000000E-03 0.  1.
        -12    1    4    4    0    0 -0.18335589456E+02  0.18444100151E+02 -0.11557228979E+02  0.28459589118E+02  0.00000000000E+00 0.  1.
</event>
<event>
 8    1  0.2514877E-006  0.9118800E+02  0.7816164E-02  0.1184000E+00
        -11   -1    0    0    0    0  0.00000000000E+00  0.00000000000E+00  0.45593999997E+02  0.45594000000E+02  0.51100000000E-03 0. -1.
         11   -1    0    0    0    0 -0.00000000000E+00 -0.00000000000E+00 -0.45593999997E+02  0.45594000000E+02  0.51100000000E-03 0.  1.
         23    2    1    2    0    0  0.44408920985E-15  0.00000000000E+00 -0.35527136788E-14  0.91188000000E+02  0.91188000000E+02 0.  0.
    9900012    2    3    3    0    0  0.21818772261E+01  0.31191695799E+02 -0.19444742406E+02  0.54367075483E+02  0.39999980180E+02 0.  0.
         12    1    3    3    0    0 -0.21818772261E+01 -0.31191695799E+02  0.19444742406E+02  0.36820924517E+02  0.00000000000E+00 0. -1.
         11    1    4    4    0    0 -0.26224955669E+01 -0.49670067119E+01 -0.12357495125E+02  0.13574104932E+02  0.51100000000E-03 0. -1.
        -11    1    4    4    0    0  0.98247395892E+01  0.17183637540E+02  0.36638950488E+00  0.19797402573E+02  0.51100000000E-03 0.  1.
         12    1    4    4    0    0 -0.50203667963E+01  0.18975064971E+02 -0.74536367850E+01  0.20995567978E+02  0.00000000000E+00 0. -1.
</event>
<event>
 8    1  0.2514877E-006  0.9118800E+02  0.7816164E-02  0.1184000E+00
        -11   -1    0    0    0    0  0.00000000000E+00  0.00000000000E+00  0.45593999997E+02  0.45594000000E+02  0.51100000000E-03 0.  1.
         11   -1    0    0    0    0 -0.00000000000E+00 -0.00000000000E+00 -0.45593999997E+02  0.45594000000E+02  0.51100000000E-03 0. -1.
         23    2    1    2    0    0  0.88817841970E-15  0.00000000000E+00  0.00000000000E+00  0.91188000000E+02  0.91188000000E+02 0.  0.
    9900012    2    3    3    0    0 -0.40172580128E+01  0.35427384061E+01 -0.36429270924E+02  0.54367066587E+02  0.39999959899E+02 0.  0.
        -12    1    3    3    0    0  0.40172580128E+01 -0.35427384061E+01  0.36429270924E+02  0.36820933413E+02  0.00000000000E+00 0.  1.
         11    1    4    4    0    0 -0.68043835800E+01 -0.14095006962E+02 -0.24346926194E+02  0.28943767421E+02  0.51100000000E-03 0. -1.
        -11    1    4    4    0    0  0.27958234311E+01  0.73906402439E+01 -0.12917027458E+02  0.15142251830E+02  0.51100000000E-03 0.  1.
        -12    1    4    4    0    0 -0.86978638340E-02  0.10247105125E+02  0.83468272735E+00  0.10281047337E+02  0.00000000000E+00 0.  1.
</event>
<event>
 8    1  0.2514877E-006  0.9118800E+02  0.7816164E-02  0.1184000E+00
        -11   -1    0    0    0    0  0.00000000000E+00  0.00000000000E+00  0.45593999997E+02  0.45594000000E+02  0.51100000000E-03 0. -1.
         11   -1    0    0    0    0 -0.00000000000E+00 -0.00000000000E+00 -0.45593999997E+02  0.45594000000E+02  0.51100000000E-03 0.  1.
         23    2    1    2    0    0 -0.35527136788E-14  0.35527136788E-14 -0.27755575616E-16  0.91188000000E+02  0.91188000000E+02 0.  0.
    9900012    2    3    3    0    0 -0.24231378359E+02  0.27723353617E+02  0.22227228942E+00  0.54366899556E+02  0.39999579116E+02 0.  0.
        -12    1    3    3    0    0  0.24231378359E+02 -0.27723353617E+02 -0.22227228942E+00  0.36821100444E+02  0.00000000000E+00 0.  1.
         11    1    4    4    0    0  0.89798764691E+00  0.10356860514E+01  0.60610720623E+01  0.62141469419E+01  0.51100000000E-03 0. -1.
        -11    1    4    4    0    0  0.30117988991E+01 -0.29096169217E+01 -0.59943180272E+01  0.73122262077E+01  0.51100000000E-03 0.  1.
         12    1    4    4    0    0 -0.28141164905E+02  0.29597284487E+02  0.15551825440E+00  0.40840526406E+02  0.00000000000E+00 0. -1.
</event>
<event>
 8    1  0.2514877E-006  0.9118800E+02  0.7816164E-02  0.1184000E+00
        -11   -1    0    0    0    0  0.00000000000E+00  0.00000000000E+00  0.45593999997E+02  0.45594000000E+02  0.51100000000E-03 0.  1.
         11   -1    0    0    0    0 -0.00000000000E+00 -0.00000000000E+00 -0.45593999997E+02  0.45594000000E+02  0.51100000000E-03 0. -1.
         23    2    1    2    0    0  0.00000000000E+00  0.00000000000E+00  0.00000000000E+00  0.91188000000E+02  0.91188000000E+02 0.  0.
    9900012    2    3    3    0    0  0.32934449503E+02 -0.13341204845E+02 -0.96497041483E+01  0.54367048072E+02  0.39999917689E+02 0.  0.
         12    1    3    3    0    0 -0.32934449503E+02  0.13341204845E+02  0.96497041483E+01  0.36820951928E+02  0.00000000000E+00 0. -1.
         11    1    4    4    0    0  0.11451974876E+02 -0.44199029646E+01 -0.72670311988E+01  0.14265097738E+02  0.51100000000E-03 0. -1.
        -11    1    4    4    0    0  0.22138990869E+02  0.18463026472E+01 -0.12347174419E+02  0.25416460544E+02  0.51100000000E-03 0.  1.
        -12    1    4    4    0    0 -0.65651624259E+00 -0.10767604527E+02  0.99645014692E+01  0.14685489790E+02  0.00000000000E+00 0.  1.
</event>
<event>
 8    1  0.2514877E-006  0.9118800E+02  0.7816164E-02  0.1184000E+00
        -11   -1    0    0    0    0  0.00000000000E+00  0.00000000000E+00  0.45593999997E+02  0.45594000000E+02  0.51100000000E-03 0. -1.
         11   -1    0    0    0    0 -0.00000000000E+00 -0.00000000000E+00 -0.45593999997E+02  0.45594000000E+02  0.51100000000E-03 0.  1.
         23    2    1    2    0    0 -0.17763568394E-14 -0.92981178312E-15  0.71054273576E-14  0.91188000000E+02  0.91188000000E+02 0.  0.
    9900012    2    3    3    0    0 -0.99358189599E+01  0.58538226089E-01  0.35454999752E+02  0.54367069369E+02  0.39999966240E+02 0.  0.
        -12    1    3    3    0    0  0.99358189599E+01 -0.58538226089E-01 -0.35454999752E+02  0.36820930631E+02  0.00000000000E+00 0.  1.
         11    1    4    4    0    0  0.16000854486E+01  0.26072993938E+00  0.58802369985E+01  0.60996262971E+01  0.51100000000E-03 0. -1.
        -11    1    4    4    0    0 -0.12800699399E+01 -0.96019265569E+01  0.32618596226E+02  0.34026583618E+02  0.51100000000E-03 0.  1.
         12    1    4    4    0    0 -0.10255834469E+02  0.93997348436E+01 -0.30438334728E+01  0.14240859454E+02  0.00000000000E+00 0. -1.
</event>
<event>
 8    1  0.2514877E-006  0.9118800E+02  0.7816164E-02  0.1184000E+00
        -11   -1    0    0    0    0  0.00000000000E+00  0.00000000000E+00  0.45593999997E+02  0.45594000000E+02  0.51100000000E-03 0. -1.
         11   -1    0    0    0    0 -0.00000000000E+00 -0.00000000000E+00 -0.45593999997E+02  0.45594000000E+02  0.51100000000E-03 0.  1.
         23    2    1    2    0    0  0.00000000000E+00  0.88817841970E-15  0.00000000000E+00  0.91188000000E+02  0.91188000000E+02 0.  0.
    9900012    2    3    3    0    0  0.20547840011E+02 -0.41139247837E+01  0.30276231298E+02  0.54366969490E+02  0.39999738545E+02 0.  0.
        -12    1    3    3    0    0 -0.20547840011E+02  0.41139247837E+01 -0.30276231298E+02  0.36821030510E+02  0.00000000000E+00 0.  1.
         11    1    4    4    0    0  0.16781552099E+02 -0.19786506241E+01  0.10153507696E+02  0.19713682252E+02  0.51100000000E-03 0. -1.
        -11    1    4    4    0    0  0.12633689197E+02  0.51546447230E+01  0.28904086288E+01  0.13947577827E+02  0.51100000000E-03 0.  1.
        -12    1    4    4    0    0 -0.88674012852E+01 -0.72899188826E+01  0.17232314973E+02  0.20705709411E+02  0.00000000000E+00 0.  1.
</event>
<event>
 8    1  0.2514877E-006  0.9118800E+02  0.7816164E-02  0.1184000E+00
        -11   -1    0    0    0    0  0.00000000000E+00  0.00000000000E+00  0.45593999997E+02  0.45594000000E+02  0.51100000000E-03 0.  1.
         11   -1    0    0    0    0 -0.00000000000E+00 -0.00000000000E+00 -0.45593999997E+02  0.45594000000E+02  0.51100000000E-03 0. -1.
         23    2    1    2    0    0  0.00000000000E+00 -0.44408920985E-15 -0.17763568394E-14  0.91188000000E+02  0.91188000000E+02 0.  0.
    9900012    2    3    3    0    0  0.34775769301E+02  0.14912310009E+01  0.12008366323E+02  0.54367098841E+02  0.40000033428E+02 0.  0.
         12    1    3    3    0    0 -0.34775769301E+02 -0.14912310009E+01 -0.12008366323E+02  0.36820901159E+02  0.00000000000E+00 0. -1.
         11    1    4    4    0    0 -0.12580790690E+01 -0.23377369095E+01 -0.91359912062E+01  0.95138904967E+01  0.51100000000E-03 0. -1.
        -11    1    4    4    0    0  0.13164399690E+02 -0.35665144630E+00  0.16556922165E+02  0.21155620796E+02  0.51100000000E-03 0.  1.
         12    1    4    4    0    0  0.22869448681E+02  0.41856193567E+01  0.45874353644E+01  0.23697587548E+02  0.00000000000E+00 0. -1.
</event>
<event>
 8    1  0.2514877E-006  0.9118800E+02  0.7816164E-02  0.1184000E+00
        -11   -1    0    0    0    0  0.00000000000E+00  0.00000000000E+00  0.45593999997E+02  0.45594000000E+02  0.51100000000E-03 0.  1.
         11   -1    0    0    0    0 -0.00000000000E+00 -0.00000000000E+00 -0.45593999997E+02  0.45594000000E+02  0.51100000000E-03 0. -1.
         23    2    1    2    0    0  0.61062266354E-15 -0.71054273576E-14  0.00000000000E+00  0.91188000000E+02  0.91188000000E+02 0.  0.
    9900012    2    3    3    0    0 -0.49769019500E-01 -0.35181810107E+02  0.10863638674E+02  0.54367070020E+02  0.39999967725E+02 0.  0.
        -12    1    3    3    0    0  0.49769019500E-01  0.35181810107E+02 -0.10863638674E+02  0.36820929980E+02  0.00000000000E+00 0.  1.
         11    1    4    4    0    0 -0.19559359374E+01 -0.12883586789E+02  0.50283390594E+01  0.13967701597E+02  0.51100000000E-03 0. -1.
        -11    1    4    4    0    0 -0.15046674156E+02 -0.53075984877E+01  0.29359028004E+01  0.16223209620E+02  0.51100000000E-03 0.  1.
        -12    1    4    4    0    0  0.16952841074E+02 -0.16990624830E+02  0.28993968144E+01  0.24176158803E+02  0.00000000000E+00 0.  1.
</event>
<event>
 8    1  0.2514877E-006  0.9118800E+02  0.7816164E-02  0.1184000E+00
        -11   -1    0    0    0    0  0.00000000000E+00  0.00000000000E+00  0.45593999997E+02  0.45594000000E+02  0.51100000000E-03 0.  1.
         11   -1    0    0    0    0 -0.00000000000E+00 -0.00000000000E+00 -0.45593999997E+02  0.45594000000E+02  0.51100000000E-03 0. -1.
         23    2    1    2    0    0  0.17763568394E-14  0.00000000000E+00  0.35527136788E-14  0.91188000000E+02  0.91188000000E+02 0.  0.
    9900012    2    3    3    0    0  0.14714800642E+02 -0.18385744416E+02  0.28305804634E+02  0.54367088392E+02  0.40000009607E+02 0.  0.
         12    1    3    3    0    0 -0.14714800642E+02  0.18385744416E+02 -0.28305804634E+02  0.36820911608E+02  0.00000000000E+00 0. -1.
         11    1    4    4    0    0  0.44623513915E+01  0.22140882134E+01 -0.38081843626E+01  0.62703297328E+01  0.51100000000E-03 0. -1.
        -11    1    4    4    0    0  0.12555393285E+02 -0.20155164799E+02  0.36254033707E+02  0.43338476311E+02  0.51100000000E-03 0.  1.
        -12    1    4    4    0    0 -0.23029440343E+01 -0.44466782990E+00 -0.41400447104E+01  0.47582823485E+01  0.00000000000E+00 0.  1.
</event>
<event>
 8    1  0.2514877E-006  0.9118800E+02  0.7816164E-02  0.1184000E+00
        -11   -1    0    0    0    0  0.00000000000E+00  0.00000000000E+00  0.45593999997E+02  0.45594000000E+02  0.51100000000E-03 0. -1.
         11   -1    0    0    0    0 -0.00000000000E+00 -0.00000000000E+00 -0.45593999997E+02  0.45594000000E+02  0.51100000000E-03 0.  1.
         23    2    1    2    0    0  0.00000000000E+00  0.35527136788E-14  0.17763568394E-14  0.91188000000E+02  0.91188000000E+02 0.  0.
    9900012    2    3    3    0    0 -0.32173113513E+02  0.16980906452E+02 -0.56851733774E+01  0.54367060123E+02  0.39999945163E+02 0.  0.
        -12    1    3    3    0    0  0.32173113513E+02 -0.16980906452E+02  0.56851733774E+01  0.36820939877E+02  0.00000000000E+00 0.  1.
         11    1    4    4    0    0 -0.87621976895E+01  0.74911132238E+01  0.10926146845E+02  0.15883122200E+02  0.51100000000E-03 0. -1.
        -11    1    4    4    0    0  0.46021452300E+01  0.36839503398E+01 -0.13030011426E+01  0.60373042878E+01  0.51100000000E-03 0.  1.
         12    1    4    4    0    0 -0.28013061054E+02  0.58058428887E+01 -0.15308319079E+02  0.32446633636E+02  0.00000000000E+00 0. -1.
</event>
<event>
 8    1  0.2514877E-006  0.9118800E+02  0.7816164E-02  0.1184000E+00
        -11   -1    0    0    0    0  0.00000000000E+00  0.00000000000E+00  0.45593999997E+02  0.45594000000E+02  0.51100000000E-03 0.  1.
         11   -1    0    0    0    0 -0.00000000000E+00 -0.00000000000E+00 -0.45593999997E+02  0.45594000000E+02  0.51100000000E-03 0. -1.
         23    2    1    2    0    0  0.17763568394E-14  0.00000000000E+00  0.00000000000E+00  0.91188000000E+02  0.91188000000E+02 0.  0.
    9900012    2    3    3    0    0  0.67688746619E+01 -0.21520078874E+02 -0.29100689590E+02  0.54367060393E+02  0.39999945778E+02 0.  0.
        -12    1    3    3    0    0 -0.67688746619E+01  0.21520078874E+02  0.29100689590E+02  0.36820939607E+02  0.00000000000E+00 0.  1.
         11    1    4    4    0    0  0.12901187821E+02 -0.11706442041E+02 -0.55694520816E+01  0.18289347424E+02  0.51100000000E-03 0. -1.
        -11    1    4    4    0    0  0.96083914333E+01 -0.21945811137E+01 -0.81900268826E+01  0.12814597645E+02  0.51100000000E-03 0.  1.
        -12    1    4    4    0    0 -0.15740704592E+02 -0.76190557194E+01 -0.15341210626E+02  0.23263115324E+02  0.00000000000E+00 0.  1.
</event>
<event>
 8    1  0.2514877E-006  0.9118800E+02  0.7816164E-02  0.1184000E+00
        -11   -1    0    0    0    0  0.00000000000E+00  0.00000000000E+00  0.45593999997E+02  0.45594000000E+02  0.51100000000E-03 0.  1.
         11   -1    0    0    0    0 -0.00000000000E+00 -0.00000000000E+00 -0.45593999997E+02  0.45594000000E+02  0.51100000000E-03 0. -1.
         23    2    1    2    0    0  0.00000000000E+00  0.00000000000E+00  0.35527136788E-14  0.91188000000E+02  0.91188000000E+02 0.  0.
    9900012    2    3    3    0    0 -0.72539942619E+01  0.18677887996E+02 -0.30891684647E+02  0.54367080496E+02  0.39999991607E+02 0.  0.
        -12    1    3    3    0    0  0.72539942619E+01 -0.18677887996E+02  0.30891684647E+02  0.36820919504E+02  0.00000000000E+00 0.  1.
         11    1    4    4    0    0  0.45399766847E+01  0.11575219957E+02 -0.12236552574E+02  0.17445065907E+02  0.51100000000E-03 0. -1.
        -11    1    4    4    0    0 -0.50617233543E+01  0.16163920397E+02 -0.19221296905E+02  0.25619360275E+02  0.51100000000E-03 0.  1.
        -12    1    4    4    0    0 -0.67322475923E+01 -0.90612523577E+01  0.56616483175E+00  0.11302654314E+02  0.00000000000E+00 0.  1.
</event>
<event>
 8    1  0.2514877E-006  0.9118800E+02  0.7816164E-02  0.1184000E+00
        -11   -1    0    0    0    0  0.00000000000E+00  0.00000000000E+00  0.45593999997E+02  0.45594000000E+02  0.51100000000E-03 0.  1.
         11   -1    0    0    0    0 -0.00000000000E+00 -0.00000000000E+00 -0.45593999997E+02  0.45594000000E+02  0.51100000000E-03 0. -1.
         23    2    1    2    0    0 -0.71054273576E-14 -0.71054273576E-14  0.88817841970E-15  0.91188000000E+02  0.91188000000E+02 0.  0.
    9900012    2    3    3    0    0  0.27331284255E+02  0.23515724131E+02 -0.74691802558E+01  0.54367122307E+02  0.40000086922E+02 0.  0.
        -12    1    3    3    0    0 -0.27331284255E+02 -0.23515724131E+02  0.74691802558E+01  0.36820877693E+02  0.00000000000E+00 0.  1.
         11    1    4    4    0    0  0.27307692304E+02  0.15559155648E+02 -0.87956409276E+01  0.32636799522E+02  0.51100000000E-03 0. -1.
        -11    1    4    4    0    0 -0.46309167754E+01 -0.35365146850E+01 -0.51183811385E+01  0.77556529086E+01  0.51100000000E-03 0.  1.
        -12    1    4    4    0    0  0.46545087263E+01  0.11493083168E+02  0.64448418102E+01  0.13974669876E+02  0.00000000000E+00 0.  1.
</event>
<event>
 8    1  0.2514877E-006  0.9118800E+02  0.7816164E-02  0.1184000E+00
        -11   -1    0    0    0    0  0.00000000000E+00  0.00000000000E+00  0.45593999997E+02  0.45594000000E+02  0.51100000000E-03 0.  1.
         11   -1    0    0    0    0 -0.00000000000E+00 -0.00000000000E+00 -0.45593999997E+02  0.45594000000E+02  0.51100000000E-03 0. -1.
         23    2    1    2    0    0 -0.35527136788E-14  0.00000000000E+00 -0.35527136788E-14  0.91188000000E+02  0.91188000000E+02 0.  0.
    9900012    2    3    3    0    0  0.25945925109E+02 -0.41497066297E+01 -0.25794733634E+02  0.54367090477E+02  0.40000014360E+02 0.  0.
        -12    1    3    3    0    0 -0.25945925109E+02  0.41497066297E+01  0.25794733634E+02  0.36820909523E+02  0.00000000000E+00 0.  1.
         11    1    4    4    0    0 -0.97696290935E+01 -0.25019863416E+01 -0.55821380425E+01  0.11526745146E+02  0.51100000000E-03 0. -1.
        -11    1    4    4    0    0  0.10463010649E+02  0.44521441681E+01 -0.32948857566E+01  0.11838600084E+02  0.51100000000E-03 0.  1.
         12    1    4    4    0    0  0.25252543553E+02 -0.60998644562E+01 -0.16917709834E+02  0.31001745247E+02  0.00000000000E+00 0. -1.
</event>
<event>
 8    1  0.2514877E-006  0.9118800E+02  0.7816164E-02  0.1184000E+00
        -11   -1    0    0    0    0  0.00000000000E+00  0.00000000000E+00  0.45593999997E+02  0.45594000000E+02  0.51100000000E-03 0. -1.
         11   -1    0    0    0    0 -0.00000000000E+00 -0.00000000000E+00 -0.45593999997E+02  0.45594000000E+02  0.51100000000E-03 0.  1.
         23    2    1    2    0    0 -0.35527136788E-14  0.00000000000E+00  0.00000000000E+00  0.91188000000E+02  0.91188000000E+02 0.  0.
    9900012    2    3    3    0    0  0.24943499414E+02  0.19812030034E+01  0.27012277048E+02  0.54367266171E+02  0.40000414889E+02 0.  0.
        -12    1    3    3    0    0 -0.24943499414E+02 -0.19812030034E+01 -0.27012277048E+02  0.36820733829E+02  0.00000000000E+00 0.  1.
         11    1    4    4    0    0 -0.35746943271E+01  0.13157864260E+01  0.40196218527E+01  0.55377877850E+01  0.51100000000E-03 0.  1.
        -11    1    4    4    0    0  0.21125935011E+01  0.70854657556E+01  0.20201054448E+02  0.21511612616E+02  0.51100000000E-03 0. -1.
         12    1    4    4    0    0  0.26405600240E+02 -0.64200491782E+01  0.27916007471E+01  0.27317865770E+02  0.00000000000E+00 0. -1.
</event>
<event>
 8    1  0.2514877E-006  0.9118800E+02  0.7816164E-02  0.1184000E+00
        -11   -1    0    0    0    0  0.00000000000E+00  0.00000000000E+00  0.45593999997E+02  0.45594000000E+02  0.51100000000E-03 0. -1.
         11   -1    0    0    0    0 -0.00000000000E+00 -0.00000000000E+00 -0.45593999997E+02  0.45594000000E+02  0.51100000000E-03 0.  1.
         23    2    1    2    0    0 -0.17763568394E-14  0.00000000000E+00  0.00000000000E+00  0.91188000000E+02  0.91188000000E+02 0.  0.
    9900012    2    3    3    0    0  0.71255522469E+01 -0.16825319982E+02 -0.31967397694E+02  0.54367090144E+02  0.40000013602E+02 0.  0.
         12    1    3    3    0    0 -0.71255522469E+01  0.16825319982E+02  0.31967397694E+02  0.36820909856E+02  0.00000000000E+00 0. -1.
         11    1    4    4    0    0  0.80339821069E+00 -0.13080264860E+02 -0.12264541010E+02  0.17948753270E+02  0.51100000000E-03 0. -1.
        -11    1    4    4    0    0  0.15128758759E+02 -0.73684448803E+01 -0.28589954785E+01  0.17068895012E+02  0.51100000000E-03 0.  1.
        -12    1    4    4    0    0 -0.88066047226E+01  0.36233897585E+01 -0.16843861205E+02  0.19349441862E+02  0.00000000000E+00 0.  1.
</event>
<event>
 8    1  0.2514877E-006  0.9118800E+02  0.7816164E-02  0.1184000E+00
        -11   -1    0    0    0    0  0.00000000000E+00  0.00000000000E+00  0.45593999997E+02  0.45594000000E+02  0.51100000000E-03 0. -1.
         11   -1    0    0    0    0 -0.00000000000E+00 -0.00000000000E+00 -0.45593999997E+02  0.45594000000E+02  0.51100000000E-03 0.  1.
         23    2    1    2    0    0  0.00000000000E+00  0.35527136788E-14  0.00000000000E+00  0.91188000000E+02  0.91188000000E+02 0.  0.
    9900012    2    3    3    0    0 -0.54693316641E+01 -0.30812630183E+02 -0.19402265461E+02  0.54367086477E+02  0.40000005241E+02 0.  0.
        -12    1    3    3    0    0  0.54693316641E+01  0.30812630183E+02  0.19402265461E+02  0.36820913523E+02  0.00000000000E+00 0.  1.
         11    1    4    4    0    0 -0.31695485462E+00  0.66078417679E+01 -0.36815673541E+01  0.75708633361E+01  0.51100000000E-03 0. -1.
        -11    1    4    4    0    0 -0.45451779025E+01 -0.48039885907E+01 -0.12338629956E+02  0.13999240623E+02  0.51100000000E-03 0.  1.
         12    1    4    4    0    0 -0.60719890698E+00 -0.32616483360E+02 -0.33820681508E+01  0.32796982518E+02  0.00000000000E+00 0. -1.
</event>
<event>
 8    1  0.2514877E-006  0.9118800E+02  0.7816164E-02  0.1184000E+00
        -11   -1    0    0    0    0  0.00000000000E+00  0.00000000000E+00  0.45593999997E+02  0.45594000000E+02  0.51100000000E-03 0. -1.
         11   -1    0    0    0    0 -0.00000000000E+00 -0.00000000000E+00 -0.45593999997E+02  0.45594000000E+02  0.51100000000E-03 0.  1.
         23    2    1    2    0    0 -0.17763568394E-14  0.00000000000E+00  0.00000000000E+00  0.91188000000E+02  0.91188000000E+02 0.  0.
    9900012    2    3    3    0    0 -0.12018609814E+02  0.24088649138E+02  0.25121099525E+02  0.54367086914E+02  0.40000006237E+02 0.  0.
        -12    1    3    3    0    0  0.12018609814E+02 -0.24088649138E+02 -0.25121099525E+02  0.36820913086E+02  0.00000000000E+00 0.  1.
         11    1    4    4    0    0  0.41617715247E+01  0.56574608053E+01  0.25981645603E+02  0.26914180528E+02  0.51100000000E-03 0. -1.
        -11    1    4    4    0    0 -0.54181790400E+01  0.24181951576E+00 -0.30206966403E+01  0.62080390818E+01  0.51100000000E-03 0.  1.
         12    1    4    4    0    0 -0.10762202299E+02  0.18189368817E+02  0.21601505620E+01  0.21244867304E+02  0.00000000000E+00 0. -1.
</event>
<event>
 8    1  0.2514877E-006  0.9118800E+02  0.7816164E-02  0.1184000E+00
        -11   -1    0    0    0    0  0.00000000000E+00  0.00000000000E+00  0.45593999997E+02  0.45594000000E+02  0.51100000000E-03 0.  1.
         11   -1    0    0    0    0 -0.00000000000E+00 -0.00000000000E+00 -0.45593999997E+02  0.45594000000E+02  0.51100000000E-03 0. -1.
         23    2    1    2    0    0  0.35527136788E-14  0.00000000000E+00 -0.35527136788E-14  0.91188000000E+02  0.91188000000E+02 0.  0.
    9900012    2    3    3    0    0  0.16009751873E+02 -0.25560543434E+02 -0.21121672316E+02  0.54367101354E+02  0.40000039157E+02 0.  0.
        -12    1    3    3    0    0 -0.16009751873E+02  0.25560543434E+02  0.21121672316E+02  0.36820898646E+02  0.00000000000E+00 0.  1.
         11    1    4    4    0    0  0.11195877920E+02 -0.27662725261E+02 -0.18334782278E+02  0.35024823950E+02  0.51100000000E-03 0. -1.
        -11    1    4    4    0    0  0.54325455150E+01 -0.48357688933E+01  0.50522295841E+01  0.88556329866E+01  0.51100000000E-03 0.  1.
        -12    1    4    4    0    0 -0.61867156199E+00  0.69379507202E+01 -0.78391196212E+01  0.10486644417E+02  0.00000000000E+00 0.  1.
</event>
<event>
 8    1  0.2514877E-006  0.9118800E+02  0.7816164E-02  0.1184000E+00
        -11   -1    0    0    0    0  0.00000000000E+00  0.00000000000E+00  0.45593999997E+02  0.45594000000E+02  0.51100000000E-03 0.  1.
         11   -1    0    0    0    0 -0.00000000000E+00 -0.00000000000E+00 -0.45593999997E+02  0.45594000000E+02  0.51100000000E-03 0. -1.
         23    2    1    2    0    0  0.00000000000E+00  0.00000000000E+00  0.00000000000E+00  0.91188000000E+02  0.91188000000E+02 0.  0.
    9900012    2    3    3    0    0 -0.40755068665E+01  0.35935226266E+02 -0.69159515330E+01  0.54367073496E+02  0.39999975650E+02 0.  0.
        -12    1    3    3    0    0  0.40755068665E+01 -0.35935226266E+02  0.69159515330E+01  0.36820926504E+02  0.00000000000E+00 0.  1.
         11    1    4    4    0    0  0.18342751504E+01  0.35155871389E+02 -0.18256476669E+02  0.39656005839E+02  0.51100000000E-03 0. -1.
        -11    1    4    4    0    0 -0.36957279461E+01 -0.29847847003E+01  0.41995657740E+01  0.63406385885E+01  0.51100000000E-03 0.  1.
         12    1    4    4    0    0 -0.22140540707E+01  0.37641395769E+01  0.71409593624E+01  0.83704290690E+01  0.00000000000E+00 0. -1.
</event>
<event>
 8    1  0.2514877E-006  0.9118800E+02  0.7816164E-02  0.1184000E+00
        -11   -1    0    0    0    0  0.00000000000E+00  0.00000000000E+00  0.45593999997E+02  0.45594000000E+02  0.51100000000E-03 0.  1.
         11   -1    0    0    0    0 -0.00000000000E+00 -0.00000000000E+00 -0.45593999997E+02  0.45594000000E+02  0.51100000000E-03 0. -1.
         23    2    1    2    0    0  0.00000000000E+00  0.22204460493E-15  0.00000000000E+00  0.91188000000E+02  0.91188000000E+02 0.  0.
    9900012    2    3    3    0    0 -0.18326226984E+02 -0.10565705935E+01 -0.31918851158E+02  0.54367082084E+02  0.39999995228E+02 0.  0.
        -12    1    3    3    0    0  0.18326226984E+02  0.10565705935E+01  0.31918851158E+02  0.36820917916E+02  0.00000000000E+00 0.  1.
         11    1    4    4    0    0 -0.32343087171E+01 -0.23293586148E+01 -0.23567359617E+02  0.23902031378E+02  0.51100000000E-03 0. -1.
        -11    1    4    4    0    0  0.24474651234E+01 -0.56809759909E+01 -0.97489553417E+01  0.11545808948E+02  0.51100000000E-03 0.  1.
         12    1    4    4    0    0 -0.17539383390E+02  0.69537640122E+01  0.13974638004E+01  0.18919241759E+02  0.00000000000E+00 0. -1.
</event>
<event>
 8    1  0.2514877E-006  0.9118800E+02  0.7816164E-02  0.1184000E+00
        -11   -1    0    0    0    0  0.00000000000E+00  0.00000000000E+00  0.45593999997E+02  0.45594000000E+02  0.51100000000E-03 0. -1.
         11   -1    0    0    0    0 -0.00000000000E+00 -0.00000000000E+00 -0.45593999997E+02  0.45594000000E+02  0.51100000000E-03 0.  1.
         23    2    1    2    0    0  0.00000000000E+00  0.00000000000E+00 -0.35527136788E-14  0.91188000000E+02  0.91188000000E+02 0.  0.
    9900012    2    3    3    0    0 -0.97161219649E+01  0.20859028892E+02  0.28745066521E+02  0.54367068973E+02  0.39999965338E+02 0.  0.
        -12    1    3    3    0    0  0.97161219649E+01 -0.20859028892E+02 -0.28745066521E+02  0.36820931027E+02  0.00000000000E+00 0.  1.
         11    1    4    4    0    0  0.25499678147E+01  0.88368984002E+01  0.74563131228E+01  0.11840173767E+02  0.51100000000E-03 0. -1.
        -11    1    4    4    0    0  0.81540321991E+01  0.64093639453E+01 -0.25090204191E+01  0.10670678095E+02  0.51100000000E-03 0.  1.
         12    1    4    4    0    0 -0.20420121979E+02  0.56127665467E+01  0.23797773818E+02  0.31856217111E+02  0.00000000000E+00 0. -1.
</event>
<event>
 8    1  0.2514877E-006  0.9118800E+02  0.7816164E-02  0.1184000E+00
        -11   -1    0    0    0    0  0.00000000000E+00  0.00000000000E+00  0.45593999997E+02  0.45594000000E+02  0.51100000000E-03 0. -1.
         11   -1    0    0    0    0 -0.00000000000E+00 -0.00000000000E+00 -0.45593999997E+02  0.45594000000E+02  0.51100000000E-03 0.  1.
         23    2    1    2    0    0  0.00000000000E+00  0.00000000000E+00  0.00000000000E+00  0.91188000000E+02  0.91188000000E+02 0.  0.
    9900012    2    3    3    0    0 -0.49239687761E+01 -0.61119752824E+00  0.36485084751E+02  0.54367076055E+02  0.39999981482E+02 0.  0.
        -12    1    3    3    0    0  0.49239687761E+01  0.61119752824E+00 -0.36485084751E+02  0.36820923945E+02  0.00000000000E+00 0.  1.
         11    1    4    4    0    0 -0.42999278532E+01 -0.29478621664E+01  0.52484593171E+01  0.73976750644E+01  0.51100000000E-03 0. -1.
        -11    1    4    4    0    0  0.11871606531E+01  0.45997722916E+01 -0.70894292534E+01  0.85338890871E+01  0.51100000000E-03 0.  1.
         12    1    4    4    0    0 -0.18112015760E+01 -0.22631076534E+01  0.38326054687E+02  0.38435511903E+02  0.00000000000E+00 0. -1.
</event>
<event>
 8    1  0.2514877E-006  0.9118800E+02  0.7816164E-02  0.1184000E+00
        -11   -1    0    0    0    0  0.00000000000E+00  0.00000000000E+00  0.45593999997E+02  0.45594000000E+02  0.51100000000E-03 0.  1.
         11   -1    0    0    0    0 -0.00000000000E+00 -0.00000000000E+00 -0.45593999997E+02  0.45594000000E+02  0.51100000000E-03 0. -1.
         23    2    1    2    0    0  0.00000000000E+00  0.66613381478E-15  0.00000000000E+00  0.91188000000E+02  0.91188000000E+02 0.  0.
    9900012    2    3    3    0    0  0.75165442429E+00  0.18265250577E+01 -0.36767894033E+02  0.54367092763E+02  0.40000019571E+02 0.  0.
        -12    1    3    3    0    0 -0.75165442429E+00 -0.18265250577E+01  0.36767894033E+02  0.36820907237E+02  0.00000000000E+00 0.  1.
         11    1    4    4    0    0  0.66578673583E+01  0.16957324360E+02 -0.21267350664E+02  0.28003182886E+02  0.51100000000E-03 0. -1.
        -11    1    4    4    0    0  0.28397792087E+01 -0.76402525487E+01 -0.15882869240E+01  0.83042435282E+01  0.51100000000E-03 0.  1.
         12    1    4    4    0    0 -0.87459921427E+01 -0.74905467541E+01 -0.13912256445E+02  0.18059666349E+02  0.00000000000E+00 0. -1.
</event>
<event>
 8    1  0.2514877E-006  0.9118800E+02  0.7816164E-02  0.1184000E+00
        -11   -1    0    0    0    0  0.00000000000E+00  0.00000000000E+00  0.45593999997E+02  0.45594000000E+02  0.51100000000E-03 0.  1.
         11   -1    0    0    0    0 -0.00000000000E+00 -0.00000000000E+00 -0.45593999997E+02  0.45594000000E+02  0.51100000000E-03 0. -1.
         23    2    1    2    0    0  0.35527136788E-14  0.35527136788E-14 -0.44408920985E-15  0.91188000000E+02  0.91188000000E+02 0.  0.
    9900012    2    3    3    0    0  0.31035860890E+02  0.19792058362E+02 -0.91180481751E+00  0.54367059988E+02  0.39999944854E+02 0.  0.
         12    1    3    3    0    0 -0.31035860890E+02 -0.19792058362E+02  0.91180481751E+00  0.36820940012E+02  0.00000000000E+00 0. -1.
         11    1    4    4    0    0  0.10953117036E+02  0.54888584864E+00 -0.85052160400E+01  0.13878427455E+02  0.51100000000E-03 0. -1.
        -11    1    4    4    0    0  0.19638278104E+02  0.22002670923E+01 -0.36101208724E+01  0.20088208361E+02  0.51100000000E-03 0.  1.
        -12    1    4    4    0    0  0.44446574915E+00  0.17042905421E+02  0.11203532095E+02  0.20400424172E+02  0.00000000000E+00 0.  1.
</event>
<event>
 8    1  0.2514877E-006  0.9118800E+02  0.7816164E-02  0.1184000E+00
        -11   -1    0    0    0    0  0.00000000000E+00  0.00000000000E+00  0.45593999997E+02  0.45594000000E+02  0.51100000000E-03 0. -1.
         11   -1    0    0    0    0 -0.00000000000E+00 -0.00000000000E+00 -0.45593999997E+02  0.45594000000E+02  0.51100000000E-03 0.  1.
         23    2    1    2    0    0  0.88817841970E-15  0.00000000000E+00 -0.17763568394E-14  0.91188000000E+02  0.91188000000E+02 0.  0.
    9900012    2    3    3    0    0 -0.46584448637E+01  0.34288139984E+02  0.12585740136E+02  0.54367102308E+02  0.40000041331E+02 0.  0.
        -12    1    3    3    0    0  0.46584448637E+01 -0.34288139984E+02 -0.12585740136E+02  0.36820897692E+02  0.00000000000E+00 0.  1.
         11    1    4    4    0    0  0.16215726679E+02  0.12790725416E+02  0.10793444307E+02  0.23303452290E+02  0.51100000000E-03 0. -1.
        -11    1    4    4    0    0 -0.60484896401E+01  0.84953792196E+01 -0.28381724965E+01  0.10807909992E+02  0.51100000000E-03 0.  1.
         12    1    4    4    0    0 -0.14825681902E+02  0.13002035348E+02  0.46304683254E+01  0.20255740025E+02  0.00000000000E+00 0. -1.
</event>
<event>
 8    1  0.2514877E-006  0.9118800E+02  0.7816164E-02  0.1184000E+00
        -11   -1    0    0    0    0  0.00000000000E+00  0.00000000000E+00  0.45593999997E+02  0.45594000000E+02  0.51100000000E-03 0. -1.
         11   -1    0    0    0    0 -0.00000000000E+00 -0.00000000000E+00 -0.45593999997E+02  0.45594000000E+02  0.51100000000E-03 0.  1.
         23    2    1    2    0    0  0.17763568394E-14 -0.71054273576E-14  0.00000000000E+00  0.91188000000E+02  0.91188000000E+02 0.  0.
    9900012    2    3    3    0    0  0.96546302675E+01 -0.35401712172E+02  0.30473635154E+01  0.54367088350E+02  0.40000009512E+02 0.  0.
         12    1    3    3    0    0 -0.96546302675E+01  0.35401712172E+02 -0.30473635154E+01  0.36820911650E+02  0.00000000000E+00 0. -1.
         11    1    4    4    0    0 -0.72322561735E+01 -0.17227028314E+01 -0.28385970570E+01  0.79580693586E+01  0.51100000000E-03 0. -1.
        -11    1    4    4    0    0 -0.59358004862E+01 -0.11968801473E+01  0.25513067942E+01  0.65708002646E+01  0.51100000000E-03 0.  1.
        -12    1    4    4    0    0  0.22822686927E+02 -0.32482129193E+02  0.33346537782E+01  0.39838218727E+02  0.00000000000E+00 0.  1.
</event>
<event>
 8    1  0.2514877E-006  0.9118800E+02  0.7816164E-02  0.1184000E+00
        -11   -1    0    0    0    0  0.00000000000E+00  0.00000000000E+00  0.45593999997E+02  0.45594000000E+02  0.51100000000E-03 0.  1.
         11   -1    0    0    0    0 -0.00000000000E+00 -0.00000000000E+00 -0.45593999997E+02  0.45594000000E+02  0.51100000000E-03 0. -1.
         23    2    1    2    0    0 -0.17763568394E-14 -0.17763568394E-14  0.00000000000E+00  0.91188000000E+02  0.91188000000E+02 0.  0.
    9900012    2    3    3    0    0  0.10820290344E+02  0.10570312472E+02 -0.33570368362E+02  0.54367084465E+02  0.40000000654E+02 0.  0.
        -12    1    3    3    0    0 -0.10820290344E+02 -0.10570312472E+02  0.33570368362E+02  0.36820915535E+02  0.00000000000E+00 0.  1.
         11    1    4    4    0    0  0.17499633386E+02  0.79587698185E+01 -0.22075556685E+02  0.29273014687E+02  0.51100000000E-03 0. -1.
        -11    1    4    4    0    0 -0.37609995508E+01  0.62019773250E+00 -0.17617504479E+02  0.18025155400E+02  0.51100000000E-03 0.  1.
        -12    1    4    4    0    0 -0.29183434907E+01  0.19913449209E+01  0.61226928024E+01  0.70689143775E+01  0.00000000000E+00 0.  1.
</event>
<event>
 8    1  0.2514877E-006  0.9118800E+02  0.7816164E-02  0.1184000E+00
        -11   -1    0    0    0    0  0.00000000000E+00  0.00000000000E+00  0.45593999997E+02  0.45594000000E+02  0.51100000000E-03 0. -1.
         11   -1    0    0    0    0 -0.00000000000E+00 -0.00000000000E+00 -0.45593999997E+02  0.45594000000E+02  0.51100000000E-03 0.  1.
         23    2    1    2    0    0  0.00000000000E+00 -0.17763568394E-14  0.00000000000E+00  0.91188000000E+02  0.91188000000E+02 0.  0.
    9900012    2    3    3    0    0  0.35721714029E+02  0.44139541773E+01  0.77624712024E+01  0.54367084696E+02  0.40000001182E+02 0.  0.
        -12    1    3    3    0    0 -0.35721714029E+02 -0.44139541773E+01 -0.77624712024E+01  0.36820915304E+02  0.00000000000E+00 0.  1.
         11    1    4    4    0    0  0.25765224261E+02  0.81031456263E+00  0.57784415693E+01  0.26417679272E+02  0.51100000000E-03 0. -1.
        -11    1    4    4    0    0  0.80181529026E+01  0.10781439304E+02 -0.78959268053E+01  0.15584475282E+02  0.51100000000E-03 0.  1.
         12    1    4    4    0    0  0.19383368652E+01 -0.71777996897E+01  0.98799564385E+01  0.12364930142E+02  0.00000000000E+00 0. -1.
</event>
<event>
 8    1  0.2514877E-006  0.9118800E+02  0.7816164E-02  0.1184000E+00
        -11   -1    0    0    0    0  0.00000000000E+00  0.00000000000E+00  0.45593999997E+02  0.45594000000E+02  0.51100000000E-03 0.  1.
         11   -1    0    0    0    0 -0.00000000000E+00 -0.00000000000E+00 -0.45593999997E+02  0.45594000000E+02  0.51100000000E-03 0. -1.
         23    2    1    2    0    0  0.00000000000E+00  0.00000000000E+00  0.00000000000E+00  0.91188000000E+02  0.91188000000E+02 0.  0.
    9900012    2    3    3    0    0 -0.44623662498E+01  0.33574814623E+02  0.14442919226E+02  0.54367098256E+02  0.40000032093E+02 0.  0.
         12    1    3    3    0    0  0.44623662498E+01 -0.33574814623E+02 -0.14442919226E+02  0.36820901744E+02  0.00000000000E+00 0. -1.
         11    1    4    4    0    0  0.10042089072E+01  0.14676804568E+02  0.12802508678E+02  0.19501827006E+02  0.51100000000E-03 0. -1.
        -11    1    4    4    0    0 -0.15317504865E+00  0.20176882063E+02  0.11767114179E+02  0.23357975271E+02  0.51100000000E-03 0.  1.
         12    1    4    4    0    0 -0.53134001083E+01 -0.12788720087E+01 -0.10126703630E+02  0.11507295979E+02  0.00000000000E+00 0. -1.
</event>
<event>
 8    1  0.2514877E-006  0.9118800E+02  0.7816164E-02  0.1184000E+00
        -11   -1    0    0    0    0  0.00000000000E+00  0.00000000000E+00  0.45593999997E+02  0.45594000000E+02  0.51100000000E-03 0. -1.
         11   -1    0    0    0    0 -0.00000000000E+00 -0.00000000000E+00 -0.45593999997E+02  0.45594000000E+02  0.51100000000E-03 0.  1.
         23    2    1    2    0    0  0.00000000000E+00  0.00000000000E+00  0.35527136788E-14  0.91188000000E+02  0.91188000000E+02 0.  0.
    9900012    2    3    3    0    0  0.31568590183E+02  0.81809786492E+01 -0.17095897315E+02  0.54367163470E+02  0.40000180761E+02 0.  0.
         12    1    3    3    0    0 -0.31568590183E+02 -0.81809786492E+01  0.17095897315E+02  0.36820836530E+02  0.00000000000E+00 0. -1.
         11    1    4    4    0    0  0.10301677488E+02  0.60139599547E+01 -0.57103975017E+00  0.11942292915E+02  0.51100000000E-03 0.  1.
        -11    1    4    4    0    0  0.19978951453E+01  0.53639527085E+00 -0.22180621201E+02  0.22276877295E+02  0.51100000000E-03 0. -1.
         12    1    4    4    0    0  0.19269017550E+02  0.16306234237E+01  0.56557636365E+01  0.20147993260E+02  0.00000000000E+00 0. -1.
</event>
<event>
 8    1  0.2514877E-006  0.9118800E+02  0.7816164E-02  0.1184000E+00
        -11   -1    0    0    0    0  0.00000000000E+00  0.00000000000E+00  0.45593999997E+02  0.45594000000E+02  0.51100000000E-03 0.  1.
         11   -1    0    0    0    0 -0.00000000000E+00 -0.00000000000E+00 -0.45593999997E+02  0.45594000000E+02  0.51100000000E-03 0. -1.
         23    2    1    2    0    0  0.00000000000E+00 -0.88817841970E-15 -0.35527136788E-14  0.91188000000E+02  0.91188000000E+02 0.  0.
    9900012    2    3    3    0    0  0.28965614907E+02 -0.50216439024E+01  0.22171065016E+02  0.54367083684E+02  0.39999998874E+02 0.  0.
         12    1    3    3    0    0 -0.28965614907E+02  0.50216439024E+01 -0.22171065016E+02  0.36820916316E+02  0.00000000000E+00 0. -1.
         11    1    4    4    0    0 -0.18873667010E+01 -0.87185020525E+01  0.67851869929E+01  0.11207729203E+02  0.51100000000E-03 0. -1.
        -11    1    4    4    0    0  0.30198721443E+02  0.25750687730E+01  0.27233622127E+01  0.30430419945E+02  0.51100000000E-03 0.  1.
         12    1    4    4    0    0  0.65426016444E+00  0.11217893771E+01  0.12662515810E+02  0.12728934536E+02  0.00000000000E+00 0. -1.
</event>
<event>
 8    1  0.2514877E-006  0.9118800E+02  0.7816164E-02  0.1184000E+00
        -11   -1    0    0    0    0  0.00000000000E+00  0.00000000000E+00  0.45593999997E+02  0.45594000000E+02  0.51100000000E-03 0.  1.
         11   -1    0    0    0    0 -0.00000000000E+00 -0.00000000000E+00 -0.45593999997E+02  0.45594000000E+02  0.51100000000E-03 0. -1.
         23    2    1    2    0    0  0.00000000000E+00 -0.35527136788E-14  0.17763568394E-14  0.91188000000E+02  0.91188000000E+02 0.  0.
    9900012    2    3    3    0    0  0.31376761220E+02  0.15477818463E+02  0.11477049642E+02  0.54366991357E+02  0.39999788395E+02 0.  0.
        -12    1    3    3    0    0 -0.31376761220E+02 -0.15477818463E+02 -0.11477049642E+02  0.36821008643E+02  0.00000000000E+00 0.  1.
         11    1    4    4    0    0  0.12657330589E+02 -0.91338045092E+01  0.68487152684E+01  0.17045213508E+02  0.51100000000E-03 0. -1.
        -11    1    4    4    0    0  0.34341259191E+01  0.45893788734E+00  0.78277112369E+01  0.85601932386E+01  0.51100000000E-03 0.  1.
         12    1    4    4    0    0  0.15285304712E+02  0.24152685085E+02 -0.31993768635E+01  0.28761584610E+02  0.00000000000E+00 0. -1.
</event>
<event>
 8    1  0.2514877E-006  0.9118800E+02  0.7816164E-02  0.1184000E+00
        -11   -1    0    0    0    0  0.00000000000E+00  0.00000000000E+00  0.45593999997E+02  0.45594000000E+02  0.51100000000E-03 0.  1.
         11   -1    0    0    0    0 -0.00000000000E+00 -0.00000000000E+00 -0.45593999997E+02  0.45594000000E+02  0.51100000000E-03 0. -1.
         23    2    1    2    0    0  0.17763568394E-14  0.35527136788E-14  0.00000000000E+00  0.91188000000E+02  0.91188000000E+02 0.  0.
    9900012    2    3    3    0    0 -0.13193275739E+02 -0.30264365212E+02 -0.16302903404E+02  0.54367095804E+02  0.40000026505E+02 0.  0.
        -12    1    3    3    0    0  0.13193275739E+02  0.30264365212E+02  0.16302903404E+02  0.36820904196E+02  0.00000000000E+00 0.  1.
         11    1    4    4    0    0 -0.39797288856E+01  0.18335323155E+01  0.46516847655E+01  0.63904815291E+01  0.51100000000E-03 0.  1.
        -11    1    4    4    0    0  0.46331956622E+01 -0.12142986343E+02 -0.19769698748E+02  0.23659239384E+02  0.51100000000E-03 0. -1.
         12    1    4    4    0    0 -0.13846742516E+02 -0.19954911184E+02 -0.11848894213E+01  0.24317374892E+02  0.00000000000E+00 0. -1.
</event>
<event>
 8    1  0.2514877E-006  0.9118800E+02  0.7816164E-02  0.1184000E+00
        -11   -1    0    0    0    0  0.00000000000E+00  0.00000000000E+00  0.45593999997E+02  0.45594000000E+02  0.51100000000E-03 0. -1.
         11   -1    0    0    0    0 -0.00000000000E+00 -0.00000000000E+00 -0.45593999997E+02  0.45594000000E+02  0.51100000000E-03 0.  1.
         23    2    1    2    0    0 -0.35527136788E-14 -0.88817841970E-15  0.00000000000E+00  0.91188000000E+02  0.91188000000E+02 0.  0.
    9900012    2    3    3    0    0  0.19643585687E+02  0.65554226328E+01  0.30445607970E+02  0.54367094672E+02  0.40000023924E+02 0.  0.
        -12    1    3    3    0    0 -0.19643585687E+02 -0.65554226328E+01 -0.30445607970E+02  0.36820905328E+02  0.00000000000E+00 0.  1.
         11    1    4    4    0    0  0.83293172396E+01  0.22803273256E+01  0.10797828447E+02  0.13826442703E+02  0.51100000000E-03 0. -1.
        -11    1    4    4    0    0 -0.11256778049E+02  0.12583713426E+00  0.11744860641E+02  0.16268762669E+02  0.51100000000E-03 0.  1.
         12    1    4    4    0    0  0.22571046497E+02  0.41492581729E+01  0.79029188809E+01  0.24271889300E+02  0.00000000000E+00 0. -1.
</event>
<event>
 8    1  0.2514877E-006  0.9118800E+02  0.7816164E-02  0.1184000E+00
        -11   -1    0    0    0    0  0.00000000000E+00  0.00000000000E+00  0.45593999997E+02  0.45594000000E+02  0.51100000000E-03 0.  1.
         11   -1    0    0    0    0 -0.00000000000E+00 -0.00000000000E+00 -0.45593999997E+02  0.45594000000E+02  0.51100000000E-03 0. -1.
         23    2    1    2    0    0 -0.99920072216E-15  0.00000000000E+00  0.00000000000E+00  0.91188000000E+02  0.91188000000E+02 0.  0.
    9900012    2    3    3    0    0  0.72984993159E+00  0.19570044099E+02 -0.31181157746E+02  0.54367029001E+02  0.39999874214E+02 0.  0.
        -12    1    3    3    0    0 -0.72984993159E+00 -0.19570044099E+02  0.31181157746E+02  0.36820970999E+02  0.00000000000E+00 0.  1.
         11    1    4    4    0    0 -0.35047658566E+01  0.16105643920E+02 -0.27054191867E+02  0.31679716659E+02  0.51100000000E-03 0. -1.
        -11    1    4    4    0    0  0.11249644495E+02  0.80955711129E+01 -0.18828818094E+01  0.13987066064E+02  0.51100000000E-03 0.  1.
        -12    1    4    4    0    0 -0.70150287070E+01 -0.46311709342E+01 -0.22440840694E+01  0.87002462777E+01  0.00000000000E+00 0.  1.
</event>
<event>
 8    1  0.2514877E-006  0.9118800E+02  0.7816164E-02  0.1184000E+00
        -11   -1    0    0    0    0  0.00000000000E+00  0.00000000000E+00  0.45593999997E+02  0.45594000000E+02  0.51100000000E-03 0.  1.
         11   -1    0    0    0    0 -0.00000000000E+00 -0.00000000000E+00 -0.45593999997E+02  0.45594000000E+02  0.51100000000E-03 0. -1.
         23    2    1    2    0    0  0.88817841970E-15  0.35527136788E-14  0.35527136788E-14  0.91188000000E+02  0.91188000000E+02 0.  0.
    9900012    2    3    3    0    0 -0.75182474596E+01 -0.28857190954E+02 -0.21599101432E+02  0.54367045405E+02  0.39999911609E+02 0.  0.
        -12    1    3    3    0    0  0.75182474596E+01  0.28857190954E+02  0.21599101432E+02  0.36820954595E+02  0.00000000000E+00 0.  1.
         11    1    4    4    0    0 -0.28621845345E+01 -0.95763013160E+01  0.76295203318E+01  0.12574069666E+02  0.51100000000E-03 0.  1.
        -11    1    4    4    0    0  0.55750243283E+01 -0.14705323735E+02 -0.76748800405E+01  0.17499463601E+02  0.51100000000E-03 0. -1.
        -12    1    4    4    0    0 -0.10231087253E+02 -0.45755659030E+01 -0.21553741724E+02  0.24293512138E+02  0.00000000000E+00 0.  1.
</event>
<event>
 8    1  0.2514877E-006  0.9118800E+02  0.7816164E-02  0.1184000E+00
        -11   -1    0    0    0    0  0.00000000000E+00  0.00000000000E+00  0.45593999997E+02  0.45594000000E+02  0.51100000000E-03 0. -1.
         11   -1    0    0    0    0 -0.00000000000E+00 -0.00000000000E+00 -0.45593999997E+02  0.45594000000E+02  0.51100000000E-03 0.  1.
         23    2    1    2    0    0  0.00000000000E+00 -0.17763568394E-14  0.00000000000E+00  0.91188000000E+02  0.91188000000E+02 0.  0.
    9900012    2    3    3    0    0 -0.20488596291E+02  0.53570297784E+01 -0.30121175932E+02  0.54367277770E+02  0.40000441330E+02 0.  0.
         12    1    3    3    0    0  0.20488596291E+02 -0.53570297784E+01  0.30121175932E+02  0.36820722230E+02  0.00000000000E+00 0. -1.
         11    1    4    4    0    0  0.65810262451E+01  0.86377721803E+01 -0.87444948288E+01  0.13942281189E+02  0.51100000000E-03 0. -1.
        -11    1    4    4    0    0 -0.15442339075E+02  0.71129425232E+01 -0.17406494850E+02  0.24331992329E+02  0.51100000000E-03 0.  1.
        -12    1    4    4    0    0 -0.11627283460E+02 -0.10393684925E+02 -0.39701862531E+01  0.16093004253E+02  0.00000000000E+00 0.  1.
</event>
<event>
 8    1  0.2514877E-006  0.9118800E+02  0.7816164E-02  0.1184000E+00
        -11   -1    0    0    0    0  0.00000000000E+00  0.00000000000E+00  0.45593999997E+02  0.45594000000E+02  0.51100000000E-03 0.  1.
         11   -1    0    0    0    0 -0.00000000000E+00 -0.00000000000E+00 -0.45593999997E+02  0.45594000000E+02  0.51100000000E-03 0. -1.
         23    2    1    2    0    0 -0.13322676296E-14  0.35527136788E-14  0.35527136788E-14  0.91188000000E+02  0.91188000000E+02 0.  0.
    9900012    2    3    3    0    0  0.30443384590E+01  0.18635246202E+02  0.31610745752E+02  0.54367086857E+02  0.40000006108E+02 0.  0.
         12    1    3    3    0    0 -0.30443384590E+01 -0.18635246202E+02 -0.31610745752E+02  0.36820913143E+02  0.00000000000E+00 0. -1.
         11    1    4    4    0    0 -0.10181783416E+02 -0.86672473732E+00 -0.33226632489E+00  0.10224007359E+02  0.51100000000E-03 0. -1.
        -11    1    4    4    0    0  0.33263409082E+01  0.11915372141E+02  0.28704820658E+02  0.31257117052E+02  0.51100000000E-03 0.  1.
         12    1    4    4    0    0  0.98997809665E+01  0.75865987982E+01  0.32381914188E+01  0.12885962447E+02  0.00000000000E+00 0. -1.
</event>
<event>
 8    1  0.2514877E-006  0.9118800E+02  0.7816164E-02  0.1184000E+00
        -11   -1    0    0    0    0  0.00000000000E+00  0.00000000000E+00  0.45593999997E+02  0.45594000000E+02  0.51100000000E-03 0.  1.
         11   -1    0    0    0    0 -0.00000000000E+00 -0.00000000000E+00 -0.45593999997E+02  0.45594000000E+02  0.51100000000E-03 0. -1.
         23    2    1    2    0    0  0.35527136788E-14 -0.35527136788E-14 -0.88817841970E-15  0.91188000000E+02  0.91188000000E+02 0.  0.
    9900012    2    3    3    0    0  0.27407072033E+02 -0.24544869989E+02  0.14778070594E+01  0.54367052783E+02  0.39999928430E+02 0.  0.
        -12    1    3    3    0    0 -0.27407072033E+02  0.24544869989E+02 -0.14778070594E+01  0.36820947217E+02  0.00000000000E+00 0.  1.
         11    1    4    4    0    0 -0.24309421919E+01 -0.14587975792E+02  0.68651572723E+00  0.14805060681E+02  0.51100000000E-03 0. -1.
        -11    1    4    4    0    0  0.15377711192E+02  0.27438924955E+01  0.96648905708E+01  0.18368806644E+02  0.51100000000E-03 0.  1.
         12    1    4    4    0    0  0.14460303033E+02 -0.12700786692E+02 -0.88735992387E+01  0.21193185458E+02  0.00000000000E+00 0. -1.
</event>
<event>
 8    1  0.2514877E-006  0.9118800E+02  0.7816164E-02  0.1184000E+00
        -11   -1    0    0    0    0  0.00000000000E+00  0.00000000000E+00  0.45593999997E+02  0.45594000000E+02  0.51100000000E-03 0.  1.
         11   -1    0    0    0    0 -0.00000000000E+00 -0.00000000000E+00 -0.45593999997E+02  0.45594000000E+02  0.51100000000E-03 0. -1.
         23    2    1    2    0    0  0.00000000000E+00 -0.44408920985E-15  0.00000000000E+00  0.91188000000E+02  0.91188000000E+02 0.  0.
    9900012    2    3    3    0    0 -0.12885614511E+02  0.12778225097E+01  0.34468930776E+02  0.54367094517E+02  0.40000023571E+02 0.  0.
         12    1    3    3    0    0  0.12885614511E+02 -0.12778225097E+01 -0.34468930776E+02  0.36820905483E+02  0.00000000000E+00 0. -1.
         11    1    4    4    0    0  0.31277953552E+01  0.38999331968E+01  0.24870862648E+02  0.25368334431E+02  0.51100000000E-03 0. -1.
        -11    1    4    4    0    0 -0.11033797676E+02  0.24278523034E+01 -0.53147403159E+01  0.12485416407E+02  0.51100000000E-03 0.  1.
         12    1    4    4    0    0 -0.49796121903E+01 -0.50499629905E+01  0.14912808445E+02  0.16513343680E+02  0.00000000000E+00 0. -1.
</event>
<event>
 8    1  0.2514877E-006  0.9118800E+02  0.7816164E-02  0.1184000E+00
        -11   -1    0    0    0    0  0.00000000000E+00  0.00000000000E+00  0.45593999997E+02  0.45594000000E+02  0.51100000000E-03 0. -1.
         11   -1    0    0    0    0 -0.00000000000E+00 -0.00000000000E+00 -0.45593999997E+02  0.45594000000E+02  0.51100000000E-03 0.  1.
         23    2    1    2    0    0  0.00000000000E+00  0.00000000000E+00  0.88817841970E-15  0.91188000000E+02  0.91188000000E+02 0.  0.
    9900012    2    3    3    0    0 -0.26971580676E+02  0.24874801878E+02 -0.30915829802E+01  0.54367084504E+02  0.40000000744E+02 0.  0.
         12    1    3    3    0    0  0.26971580676E+02 -0.24874801878E+02  0.30915829802E+01  0.36820915496E+02  0.00000000000E+00 0. -1.
         11    1    4    4    0    0  0.55328450273E+00 -0.98228303321E+00 -0.77946841094E+01  0.78757922982E+01  0.51100000000E-03 0. -1.
        -11    1    4    4    0    0 -0.23354453552E+02  0.87802899651E+01 -0.63250729245E+01  0.25739668614E+02  0.51100000000E-03 0.  1.
         12    1    4    4    0    0 -0.41704116269E+01  0.17076794946E+02  0.11028174054E+02  0.20751623592E+02  0.00000000000E+00 0. -1.
</event>
<event>
 8    1  0.2514877E-006  0.9118800E+02  0.7816164E-02  0.1184000E+00
        -11   -1    0    0    0    0  0.00000000000E+00  0.00000000000E+00  0.45593999997E+02  0.45594000000E+02  0.51100000000E-03 0.  1.
         11   -1    0    0    0    0 -0.00000000000E+00 -0.00000000000E+00 -0.45593999997E+02  0.45594000000E+02  0.51100000000E-03 0. -1.
         23    2    1    2    0    0  0.00000000000E+00  0.00000000000E+00  0.00000000000E+00  0.91188000000E+02  0.91188000000E+02 0.  0.
    9900012    2    3    3    0    0 -0.35804235319E+02 -0.19208646202E+01 -0.83753657035E+01  0.54367085585E+02  0.40000003209E+02 0.  0.
         12    1    3    3    0    0  0.35804235319E+02  0.19208646202E+01  0.83753657035E+01  0.36820914415E+02  0.00000000000E+00 0. -1.
         11    1    4    4    0    0 -0.23376097861E+02  0.55122313242E+01 -0.24265617246E+01  0.24139487307E+02  0.51100000000E-03 0. -1.
        -11    1    4    4    0    0 -0.11566206982E+02  0.55871759257E+01  0.43952756953E+01  0.13576160262E+02  0.51100000000E-03 0.  1.
         12    1    4    4    0    0 -0.86193047658E+00 -0.13020271870E+02 -0.10344079674E+02  0.16651438017E+02  0.00000000000E+00 0. -1.
</event>
<event>
 8    1  0.2514877E-006  0.9118800E+02  0.7816164E-02  0.1184000E+00
        -11   -1    0    0    0    0  0.00000000000E+00  0.00000000000E+00  0.45593999997E+02  0.45594000000E+02  0.51100000000E-03 0.  1.
         11   -1    0    0    0    0 -0.00000000000E+00 -0.00000000000E+00 -0.45593999997E+02  0.45594000000E+02  0.51100000000E-03 0. -1.
         23    2    1    2    0    0  0.17763568394E-14  0.88817841970E-15 -0.71054273576E-14  0.91188000000E+02  0.91188000000E+02 0.  0.
    9900012    2    3    3    0    0  0.69120886220E+01  0.60899714494E+01 -0.35649894153E+02  0.54367086452E+02  0.40000005185E+02 0.  0.
        -12    1    3    3    0    0 -0.69120886220E+01 -0.60899714494E+01  0.35649894153E+02  0.36820913548E+02  0.00000000000E+00 0.  1.
         11    1    4    4    0    0 -0.51456746144E+00 -0.13993623144E+02 -0.20107895598E+02  0.24503341282E+02  0.51100000000E-03 0. -1.
        -11    1    4    4    0    0  0.24823785177E+01 -0.24224788209E-01 -0.70659362104E+01  0.74893420763E+01  0.51100000000E-03 0.  1.
        -12    1    4    4    0    0  0.49442775657E+01  0.20107819381E+02 -0.84760623450E+01  0.22374403094E+02  0.00000000000E+00 0.  1.
</event>
<event>
 8    1  0.2514877E-006  0.9118800E+02  0.7816164E-02  0.1184000E+00
        -11   -1    0    0    0    0  0.00000000000E+00  0.00000000000E+00  0.45593999997E+02  0.45594000000E+02  0.51100000000E-03 0.  1.
         11   -1    0    0    0    0 -0.00000000000E+00 -0.00000000000E+00 -0.45593999997E+02  0.45594000000E+02  0.51100000000E-03 0. -1.
         23    2    1    2    0    0  0.71054273576E-14 -0.71054273576E-14  0.17763568394E-14  0.91188000000E+02  0.91188000000E+02 0.  0.
    9900012    2    3    3    0    0 -0.25847741739E+02  0.22599347121E+02 -0.13302023094E+02  0.54367081194E+02  0.39999993199E+02 0.  0.
        -12    1    3    3    0    0  0.25847741739E+02 -0.22599347121E+02  0.13302023094E+02  0.36820918806E+02  0.00000000000E+00 0.  1.
         11    1    4    4    0    0 -0.30780090355E+02  0.91009160112E+01 -0.14983684332E+01  0.32132316174E+02  0.51100000000E-03 0. -1.
        -11    1    4    4    0    0 -0.23522314739E+01  0.10476005467E+01  0.11749086813E+01  0.28303481204E+01  0.51100000000E-03 0.  1.
        -12    1    4    4    0    0  0.72845800896E+01  0.12450830563E+02 -0.12978563342E+02  0.19404416900E+02  0.00000000000E+00 0.  1.
</event>
<event>
 8    1  0.2514877E-006  0.9118800E+02  0.7816164E-02  0.1184000E+00
        -11   -1    0    0    0    0  0.00000000000E+00  0.00000000000E+00  0.45593999997E+02  0.45594000000E+02  0.51100000000E-03 0. -1.
         11   -1    0    0    0    0 -0.00000000000E+00 -0.00000000000E+00 -0.45593999997E+02  0.45594000000E+02  0.51100000000E-03 0.  1.
         23    2    1    2    0    0  0.00000000000E+00  0.71054273576E-14 -0.26645352591E-14  0.91188000000E+02  0.91188000000E+02 0.  0.
    9900012    2    3    3    0    0  0.10764202846E+02 -0.34612444646E+02  0.64723073964E+01  0.54367079990E+02  0.39999990454E+02 0.  0.
        -12    1    3    3    0    0 -0.10764202846E+02  0.34612444646E+02 -0.64723073964E+01  0.36820920010E+02  0.00000000000E+00 0.  1.
         11    1    4    4    0    0  0.19376791201E+01 -0.15826322546E+02  0.10690003013E+02  0.19196438481E+02  0.51100000000E-03 0. -1.
        -11    1    4    4    0    0  0.60878350015E+01  0.47152166283E+01 -0.81200314909E+01  0.11190617254E+02  0.51100000000E-03 0.  1.
        -12    1    4    4    0    0  0.27386887248E+01 -0.23501338729E+02  0.39023358746E+01  0.23980024255E+02  0.00000000000E+00 0.  1.
</event>
<event>
 8    1  0.2514877E-006  0.9118800E+02  0.7816164E-02  0.1184000E+00
        -11   -1    0    0    0    0  0.00000000000E+00  0.00000000000E+00  0.45593999997E+02  0.45594000000E+02  0.51100000000E-03 0.  1.
         11   -1    0    0    0    0 -0.00000000000E+00 -0.00000000000E+00 -0.45593999997E+02  0.45594000000E+02  0.51100000000E-03 0. -1.
         23    2    1    2    0    0  0.17763568394E-14  0.17763568394E-14  0.00000000000E+00  0.91188000000E+02  0.91188000000E+02 0.  0.
    9900012    2    3    3    0    0 -0.11986149371E+02  0.12810095684E+02 -0.32373037233E+02  0.54367083827E+02  0.39999999200E+02 0.  0.
        -12    1    3    3    0    0  0.11986149371E+02 -0.12810095684E+02  0.32373037233E+02  0.36820916173E+02  0.00000000000E+00 0.  1.
         11    1    4    4    0    0  0.13309154546E+01 -0.17686287999E+01 -0.61301479188E+01  0.65175223472E+01  0.51100000000E-03 0. -1.
        -11    1    4    4    0    0 -0.61502863746E+00  0.17104707829E+01 -0.29432931064E+02  0.29489004761E+02  0.51100000000E-03 0.  1.
         12    1    4    4    0    0 -0.12702036189E+02  0.12868253701E+02  0.31900417501E+01  0.18360556718E+02  0.00000000000E+00 0. -1.
</event>
<event>
 8    1  0.2514877E-006  0.9118800E+02  0.7816164E-02  0.1184000E+00
        -11   -1    0    0    0    0  0.00000000000E+00  0.00000000000E+00  0.45593999997E+02  0.45594000000E+02  0.51100000000E-03 0.  1.
         11   -1    0    0    0    0 -0.00000000000E+00 -0.00000000000E+00 -0.45593999997E+02  0.45594000000E+02  0.51100000000E-03 0. -1.
         23    2    1    2    0    0  0.44408920985E-15  0.00000000000E+00  0.00000000000E+00  0.91188000000E+02  0.91188000000E+02 0.  0.
    9900012    2    3    3    0    0 -0.16586713079E+01 -0.30876030003E+02  0.19992484273E+02  0.54367084114E+02  0.39999999855E+02 0.  0.
         12    1    3    3    0    0  0.16586713079E+01  0.30876030003E+02 -0.19992484273E+02  0.36820915886E+02  0.00000000000E+00 0. -1.
         11    1    4    4    0    0  0.92085414726E+01 -0.20166571229E+02  0.34693047612E+01  0.22439338381E+02  0.51100000000E-03 0. -1.
        -11    1    4    4    0    0 -0.65169653943E+01 -0.23760056041E+00  0.19199415396E+02  0.20276706927E+02  0.51100000000E-03 0.  1.
        -12    1    4    4    0    0 -0.43502473862E+01 -0.10471858213E+02 -0.26762358843E+01  0.11651038806E+02  0.00000000000E+00 0.  1.
</event>
<event>
 8    1  0.2514877E-006  0.9118800E+02  0.7816164E-02  0.1184000E+00
        -11   -1    0    0    0    0  0.00000000000E+00  0.00000000000E+00  0.45593999997E+02  0.45594000000E+02  0.51100000000E-03 0.  1.
         11   -1    0    0    0    0 -0.00000000000E+00 -0.00000000000E+00 -0.45593999997E+02  0.45594000000E+02  0.51100000000E-03 0. -1.
         23    2    1    2    0    0  0.17763568394E-14  0.00000000000E+00  0.00000000000E+00  0.91188000000E+02  0.91188000000E+02 0.  0.
    9900012    2    3    3    0    0 -0.80699157287E+01 -0.34483457047E+02  0.10077095226E+02  0.54367079344E+02  0.39999988980E+02 0.  0.
        -12    1    3    3    0    0  0.80699157287E+01  0.34483457047E+02 -0.10077095226E+02  0.36820920656E+02  0.00000000000E+00 0.  1.
         11    1    4    4    0    0 -0.20873379608E+02 -0.17816514761E+02  0.66205173899E+01  0.28230434380E+02  0.51100000000E-03 0. -1.
        -11    1    4    4    0    0  0.14400799431E+02 -0.90573003276E+01 -0.12321963831E+01  0.17056846768E+02  0.51100000000E-03 0.  1.
         12    1    4    4    0    0 -0.15973355512E+01 -0.76096419588E+01  0.46887742193E+01  0.90797981962E+01  0.00000000000E+00 0. -1.
</event>
<event>
 8    1  0.2514877E-006  0.9118800E+02  0.7816164E-02  0.1184000E+00
        -11   -1    0    0    0    0  0.00000000000E+00  0.00000000000E+00  0.45593999997E+02  0.45594000000E+02  0.51100000000E-03 0. -1.
         11   -1    0    0    0    0 -0.00000000000E+00 -0.00000000000E+00 -0.45593999997E+02  0.45594000000E+02  0.51100000000E-03 0.  1.
         23    2    1    2    0    0  0.00000000000E+00  0.13322676296E-14  0.00000000000E+00  0.91188000000E+02  0.91188000000E+02 0.  0.
    9900012    2    3    3    0    0  0.36359426483E+02 -0.24294321342E+01  0.52792336476E+01  0.54367077380E+02  0.39999984503E+02 0.  0.
        -12    1    3    3    0    0 -0.36359426483E+02  0.24294321342E+01 -0.52792336476E+01  0.36820922620E+02  0.00000000000E+00 0.  1.
         11    1    4    4    0    0  0.23971851051E+02  0.14928594972E+01 -0.16361103159E+01  0.24073951265E+02  0.51100000000E-03 0. -1.
        -11    1    4    4    0    0  0.14841419030E+02 -0.13003649726E+02  0.24622010474E+01  0.19885297566E+02  0.51100000000E-03 0.  1.
        -12    1    4    4    0    0 -0.24538435984E+01  0.90813580951E+01  0.44531429161E+01  0.10407828548E+02  0.00000000000E+00 0.  1.
</event>
<event>
 8    1  0.2514877E-006  0.9118800E+02  0.7816164E-02  0.1184000E+00
        -11   -1    0    0    0    0  0.00000000000E+00  0.00000000000E+00  0.45593999997E+02  0.45594000000E+02  0.51100000000E-03 0. -1.
         11   -1    0    0    0    0 -0.00000000000E+00 -0.00000000000E+00 -0.45593999997E+02  0.45594000000E+02  0.51100000000E-03 0.  1.
         23    2    1    2    0    0 -0.17763568394E-14  0.00000000000E+00  0.00000000000E+00  0.91188000000E+02  0.91188000000E+02 0.  0.
    9900012    2    3    3    0    0  0.97533086687E+01 -0.20595733735E+02 -0.28921765693E+02  0.54367084627E+02  0.40000001025E+02 0.  0.
         12    1    3    3    0    0 -0.97533086687E+01  0.20595733735E+02  0.28921765693E+02  0.36820915373E+02  0.00000000000E+00 0. -1.
         11    1    4    4    0    0 -0.58450681652E+01  0.92997742673E+01 -0.79721221916E+01  0.13572227370E+02  0.51100000000E-03 0. -1.
        -11    1    4    4    0    0  0.48377128895E+01 -0.23614010085E+01 -0.23932316015E+01  0.58912849603E+01  0.51100000000E-03 0.  1.
         12    1    4    4    0    0  0.10760663944E+02 -0.27534106994E+02 -0.18556411900E+02  0.34903572297E+02  0.00000000000E+00 0. -1.
</event>
<event>
 8    1  0.2514877E-006  0.9118800E+02  0.7816164E-02  0.1184000E+00
        -11   -1    0    0    0    0  0.00000000000E+00  0.00000000000E+00  0.45593999997E+02  0.45594000000E+02  0.51100000000E-03 0. -1.
         11   -1    0    0    0    0 -0.00000000000E+00 -0.00000000000E+00 -0.45593999997E+02  0.45594000000E+02  0.51100000000E-03 0.  1.
         23    2    1    2    0    0  0.35527136788E-14  0.35527136788E-14  0.00000000000E+00  0.91188000000E+02  0.91188000000E+02 0.  0.
    9900012    2    3    3    0    0  0.14768466063E+02 -0.21357032896E+02 -0.26106482334E+02  0.54367097460E+02  0.40000030280E+02 0.  0.
         12    1    3    3    0    0 -0.14768466063E+02  0.21357032896E+02  0.26106482334E+02  0.36820902540E+02  0.00000000000E+00 0. -1.
         11    1    4    4    0    0  0.16496121456E+02 -0.10546560908E+02  0.11614516741E+01  0.19613794644E+02  0.51100000000E-03 0. -1.
        -11    1    4    4    0    0 -0.18976394131E+01  0.16508902833E+01 -0.20339344986E+02  0.20494277952E+02  0.51100000000E-03 0.  1.
         12    1    4    4    0    0  0.16998401970E+00 -0.12461362271E+02 -0.69285890224E+01  0.14259024863E+02  0.00000000000E+00 0. -1.
</event>
<event>
 8    1  0.2514877E-006  0.9118800E+02  0.7816164E-02  0.1184000E+00
        -11   -1    0    0    0    0  0.00000000000E+00  0.00000000000E+00  0.45593999997E+02  0.45594000000E+02  0.51100000000E-03 0.  1.
         11   -1    0    0    0    0 -0.00000000000E+00 -0.00000000000E+00 -0.45593999997E+02  0.45594000000E+02  0.51100000000E-03 0. -1.
         23    2    1    2    0    0  0.00000000000E+00  0.35527136788E-14 -0.35527136788E-14  0.91188000000E+02  0.91188000000E+02 0.  0.
    9900012    2    3    3    0    0 -0.18227629430E+02  0.28186620476E+02  0.15134359184E+02  0.54367070131E+02  0.39999967977E+02 0.  0.
         12    1    3    3    0    0  0.18227629430E+02 -0.28186620476E+02 -0.15134359184E+02  0.36820929869E+02  0.00000000000E+00 0. -1.
         11    1    4    4    0    0 -0.12290928122E+02 -0.68241168767E+01  0.79899583082E+01  0.16170186123E+02  0.51100000000E-03 0. -1.
        -11    1    4    4    0    0 -0.76344299714E+01  0.11291287639E+02  0.40323109871E+01  0.14213980079E+02  0.51100000000E-03 0.  1.
         12    1    4    4    0    0  0.16977286631E+01  0.23719449714E+02  0.31120898890E+01  0.23982903928E+02  0.00000000000E+00 0. -1.
</event>
<event>
 8    1  0.2514877E-006  0.9118800E+02  0.7816164E-02  0.1184000E+00
        -11   -1    0    0    0    0  0.00000000000E+00  0.00000000000E+00  0.45593999997E+02  0.45594000000E+02  0.51100000000E-03 0.  1.
         11   -1    0    0    0    0 -0.00000000000E+00 -0.00000000000E+00 -0.45593999997E+02  0.45594000000E+02  0.51100000000E-03 0. -1.
         23    2    1    2    0    0  0.00000000000E+00  0.00000000000E+00  0.00000000000E+00  0.91188000000E+02  0.91188000000E+02 0.  0.
    9900012    2    3    3    0    0  0.52570375135E+01 -0.34691627809E+02  0.11163969820E+02  0.54367086030E+02  0.40000004222E+02 0.  0.
        -12    1    3    3    0    0 -0.52570375135E+01  0.34691627809E+02 -0.11163969820E+02  0.36820913970E+02  0.00000000000E+00 0.  1.
         11    1    4    4    0    0  0.43404105108E+01 -0.21371763690E+02 -0.96677288076E+01  0.23854903630E+02  0.51100000000E-03 0. -1.
        -11    1    4    4    0    0  0.47909515376E+01 -0.31753181770E+01  0.18544408700E+02  0.19414709796E+02  0.51100000000E-03 0.  1.
         12    1    4    4    0    0 -0.38743245349E+01 -0.10144545942E+02  0.22872899270E+01  0.11097472603E+02  0.00000000000E+00 0. -1.
</event>
<event>
 8    1  0.2514877E-006  0.9118800E+02  0.7816164E-02  0.1184000E+00
        -11   -1    0    0    0    0  0.00000000000E+00  0.00000000000E+00  0.45593999997E+02  0.45594000000E+02  0.51100000000E-03 0.  1.
         11   -1    0    0    0    0 -0.00000000000E+00 -0.00000000000E+00 -0.45593999997E+02  0.45594000000E+02  0.51100000000E-03 0. -1.
         23    2    1    2    0    0  0.00000000000E+00  0.35527136788E-14 -0.35527136788E-14  0.91188000000E+02  0.91188000000E+02 0.  0.
    9900012    2    3    3    0    0 -0.51245892927E+01 -0.30898741565E+02  0.19359374810E+02  0.54367095085E+02  0.40000024866E+02 0.  0.
         12    1    3    3    0    0  0.51245892927E+01  0.30898741565E+02 -0.19359374810E+02  0.36820904915E+02  0.00000000000E+00 0. -1.
         11    1    4    4    0    0  0.11996195811E+02 -0.61836120201E+01  0.61762047648E-01  0.13496280464E+02  0.51100000000E-03 0. -1.
        -11    1    4    4    0    0 -0.12739256229E+02 -0.27566939604E+02  0.14040709411E+02  0.33456932457E+02  0.51100000000E-03 0.  1.
         12    1    4    4    0    0 -0.43815288751E+01  0.28518100596E+01  0.52569033517E+01  0.74138821644E+01  0.00000000000E+00 0. -1.
</event>
<event>
 8    1  0.2514877E-006  0.9118800E+02  0.7816164E-02  0.1184000E+00
        -11   -1    0    0    0    0  0.00000000000E+00  0.00000000000E+00  0.45593999997E+02  0.45594000000E+02  0.51100000000E-03 0.  1.
         11   -1    0    0    0    0 -0.00000000000E+00 -0.00000000000E+00 -0.45593999997E+02  0.45594000000E+02  0.51100000000E-03 0. -1.
         23    2    1    2    0    0  0.19984014443E-14 -0.44408920985E-15  0.00000000000E+00  0.91188000000E+02  0.91188000000E+02 0.  0.
    9900012    2    3    3    0    0 -0.16148533075E+01  0.31648121750E+01  0.36649064938E+02  0.54367112611E+02  0.40000064819E+02 0.  0.
         12    1    3    3    0    0  0.16148533075E+01 -0.31648121750E+01 -0.36649064938E+02  0.36820887389E+02  0.00000000000E+00 0. -1.
         11    1    4    4    0    0  0.10349998880E+02 -0.37781220561E+01  0.18323535628E+02  0.21381034616E+02  0.51100000000E-03 0. -1.
        -11    1    4    4    0    0 -0.15106621949E+02 -0.14814973292E+01  0.18578959106E+02  0.23991302232E+02  0.51100000000E-03 0.  1.
         12    1    4    4    0    0  0.31417697621E+01  0.84244315603E+01 -0.25342979685E+00  0.89947757623E+01  0.00000000000E+00 0. -1.
</event>
<event>
 8    1  0.2514877E-006  0.9118800E+02  0.7816164E-02  0.1184000E+00
        -11   -1    0    0    0    0  0.00000000000E+00  0.00000000000E+00  0.45593999997E+02  0.45594000000E+02  0.51100000000E-03 0. -1.
         11   -1    0    0    0    0 -0.00000000000E+00 -0.00000000000E+00 -0.45593999997E+02  0.45594000000E+02  0.51100000000E-03 0.  1.
         23    2    1    2    0    0  0.00000000000E+00  0.00000000000E+00 -0.17763568394E-14  0.91188000000E+02  0.91188000000E+02 0.  0.
    9900012    2    3    3    0    0  0.32108437168E+02 -0.11648861346E+02  0.13752504844E+02  0.54367094287E+02  0.40000023046E+02 0.  0.
        -12    1    3    3    0    0 -0.32108437168E+02  0.11648861346E+02 -0.13752504844E+02  0.36820905713E+02  0.00000000000E+00 0.  1.
         11    1    4    4    0    0  0.96667547856E+01 -0.23624771733E+01  0.19994770017E+02  0.22334239964E+02  0.51100000000E-03 0. -1.
        -11    1    4    4    0    0  0.31048203646E+01 -0.72612095960E+01 -0.94629543006E+01  0.12325282092E+02  0.51100000000E-03 0.  1.
        -12    1    4    4    0    0  0.19336862018E+02 -0.20251745770E+01  0.32206891278E+01  0.19707572230E+02  0.00000000000E+00 0.  1.
</event>
<event>
 8    1  0.2514877E-006  0.9118800E+02  0.7816164E-02  0.1184000E+00
        -11   -1    0    0    0    0  0.00000000000E+00  0.00000000000E+00  0.45593999997E+02  0.45594000000E+02  0.51100000000E-03 0.  1.
         11   -1    0    0    0    0 -0.00000000000E+00 -0.00000000000E+00 -0.45593999997E+02  0.45594000000E+02  0.51100000000E-03 0. -1.
         23    2    1    2    0    0 -0.35527136788E-14  0.17763568394E-14  0.00000000000E+00  0.91188000000E+02  0.91188000000E+02 0.  0.
    9900012    2    3    3    0    0  0.24070786679E+02 -0.11151873055E+02 -0.25534550595E+02  0.54367077713E+02  0.39999985262E+02 0.  0.
        -12    1    3    3    0    0 -0.24070786679E+02  0.11151873055E+02  0.25534550595E+02  0.36820922287E+02  0.00000000000E+00 0.  1.
         11    1    4    4    0    0  0.12542573097E+02  0.91414622503E+01  0.95789506005E-01  0.15520684516E+02  0.51100000000E-03 0. -1.
        -11    1    4    4    0    0 -0.16555084563E+01  0.15286132792E+01 -0.67647886164E+01  0.71301986012E+01  0.51100000000E-03 0.  1.
        -12    1    4    4    0    0  0.13183722038E+02 -0.21821948584E+02 -0.18865551485E+02  0.31716194596E+02  0.00000000000E+00 0.  1.
</event>
<event>
 8    1  0.2514877E-006  0.9118800E+02  0.7816164E-02  0.1184000E+00
        -11   -1    0    0    0    0  0.00000000000E+00  0.00000000000E+00  0.45593999997E+02  0.45594000000E+02  0.51100000000E-03 0. -1.
         11   -1    0    0    0    0 -0.00000000000E+00 -0.00000000000E+00 -0.45593999997E+02  0.45594000000E+02  0.51100000000E-03 0.  1.
         23    2    1    2    0    0  0.00000000000E+00 -0.44408920985E-15  0.00000000000E+00  0.91188000000E+02  0.91188000000E+02 0.  0.
    9900012    2    3    3    0    0  0.17709542707E+02  0.33775437689E+01 -0.32105287807E+02  0.54367011285E+02  0.39999833826E+02 0.  0.
         12    1    3    3    0    0 -0.17709542707E+02 -0.33775437689E+01  0.32105287807E+02  0.36820988715E+02  0.00000000000E+00 0. -1.
         11    1    4    4    0    0 -0.64241490614E+01  0.22663399802E+01 -0.24757553264E+02  0.25677664067E+02  0.51100000000E-03 0. -1.
        -11    1    4    4    0    0  0.93497584535E+01  0.58194521513E+01  0.10220672341E+01  0.11060227311E+02  0.51100000000E-03 0.  1.
        -12    1    4    4    0    0  0.14783933315E+02 -0.47082483626E+01 -0.83698017772E+01  0.17629119907E+02  0.00000000000E+00 0.  1.
</event>
<event>
 8    1  0.2514877E-006  0.9118800E+02  0.7816164E-02  0.1184000E+00
        -11   -1    0    0    0    0  0.00000000000E+00  0.00000000000E+00  0.45593999997E+02  0.45594000000E+02  0.51100000000E-03 0. -1.
         11   -1    0    0    0    0 -0.00000000000E+00 -0.00000000000E+00 -0.45593999997E+02  0.45594000000E+02  0.51100000000E-03 0.  1.
         23    2    1    2    0    0  0.00000000000E+00 -0.71054273576E-14  0.00000000000E+00  0.91188000000E+02  0.91188000000E+02 0.  0.
    9900012    2    3    3    0    0  0.13514979063E+02 -0.29911325724E+02  0.16686559714E+02  0.54367036667E+02  0.39999891690E+02 0.  0.
        -12    1    3    3    0    0 -0.13514979063E+02  0.29911325724E+02 -0.16686559714E+02  0.36820963333E+02  0.00000000000E+00 0.  1.
         11    1    4    4    0    0  0.55979616395E+01 -0.14892899750E+02  0.19610095759E+01  0.16030633060E+02  0.51100000000E-03 0. -1.
        -11    1    4    4    0    0  0.13765552269E+02  0.31182318963E+00  0.16884477112E+02  0.21786996823E+02  0.51100000000E-03 0.  1.
        -12    1    4    4    0    0 -0.58485348448E+01 -0.15330249164E+02 -0.21589269732E+01  0.16549406785E+02  0.00000000000E+00 0.  1.
</event>
<event>
 8    1  0.2514877E-006  0.9118800E+02  0.7816164E-02  0.1184000E+00
        -11   -1    0    0    0    0  0.00000000000E+00  0.00000000000E+00  0.45593999997E+02  0.45594000000E+02  0.51100000000E-03 0. -1.
         11   -1    0    0    0    0 -0.00000000000E+00 -0.00000000000E+00 -0.45593999997E+02  0.45594000000E+02  0.51100000000E-03 0.  1.
         23    2    1    2    0    0 -0.88817841970E-15  0.00000000000E+00 -0.71054273576E-14  0.91188000000E+02  0.91188000000E+02 0.  0.
    9900012    2    3    3    0    0 -0.65029737224E+01  0.65405639169E+01  0.35647063782E+02  0.54367071171E+02  0.39999970348E+02 0.  0.
        -12    1    3    3    0    0  0.65029737224E+01 -0.65405639169E+01 -0.35647063782E+02  0.36820928829E+02  0.00000000000E+00 0.  1.
         11    1    4    4    0    0 -0.34570087950E+01  0.12065080814E+01 -0.70519765226E+01  0.79458759552E+01  0.51100000000E-03 0. -1.
        -11    1    4    4    0    0  0.68903300279E+01  0.21429659967E+01  0.12064023305E+02  0.14057368521E+02  0.51100000000E-03 0.  1.
         12    1    4    4    0    0 -0.99362949552E+01  0.31910898388E+01  0.30635016999E+02  0.32363826695E+02  0.00000000000E+00 0. -1.
</event>
<event>
 8    1  0.2514877E-006  0.9118800E+02  0.7816164E-02  0.1184000E+00
        -11   -1    0    0    0    0  0.00000000000E+00  0.00000000000E+00  0.45593999997E+02  0.45594000000E+02  0.51100000000E-03 0.  1.
         11   -1    0    0    0    0 -0.00000000000E+00 -0.00000000000E+00 -0.45593999997E+02  0.45594000000E+02  0.51100000000E-03 0. -1.
         23    2    1    2    0    0  0.00000000000E+00 -0.17763568394E-14  0.15543122345E-14  0.91188000000E+02  0.91188000000E+02 0.  0.
    9900012    2    3    3    0    0 -0.36056174778E+02 -0.73355524651E+01 -0.13869168406E+01  0.54367060198E+02  0.39999945334E+02 0.  0.
        -12    1    3    3    0    0  0.36056174778E+02  0.73355524651E+01  0.13869168406E+01  0.36820939802E+02  0.00000000000E+00 0.  1.
         11    1    4    4    0    0 -0.65692450841E+01  0.63920075488E+01 -0.83839637340E+01  0.12421899598E+02  0.51100000000E-03 0. -1.
        -11    1    4    4    0    0 -0.99988720967E+01 -0.16086307979E+01  0.14600830842E+02  0.17769338699E+02  0.51100000000E-03 0.  1.
        -12    1    4    4    0    0 -0.19488057597E+02 -0.12118929216E+02 -0.76037839491E+01  0.24175821901E+02  0.00000000000E+00 0.  1.
</event>
<event>
 8    1  0.2514877E-006  0.9118800E+02  0.7816164E-02  0.1184000E+00
        -11   -1    0    0    0    0  0.00000000000E+00  0.00000000000E+00  0.45593999997E+02  0.45594000000E+02  0.51100000000E-03 0.  1.
         11   -1    0    0    0    0 -0.00000000000E+00 -0.00000000000E+00 -0.45593999997E+02  0.45594000000E+02  0.51100000000E-03 0. -1.
         23    2    1    2    0    0  0.71054273576E-14 -0.44408920985E-15  0.00000000000E+00  0.91188000000E+02  0.91188000000E+02 0.  0.
    9900012    2    3    3    0    0  0.34125104446E+02  0.35965117652E+01 -0.13353713183E+02  0.54367091455E+02  0.40000016590E+02 0.  0.
        -12    1    3    3    0    0 -0.34125104446E+02 -0.35965117652E+01  0.13353713183E+02  0.36820908545E+02  0.00000000000E+00 0.  1.
         11    1    4    4    0    0  0.90050887503E+01 -0.19478485213E+01 -0.18903520215E+02  0.21029237125E+02  0.51100000000E-03 0. -1.
        -11    1    4    4    0    0 -0.32251072384E+01  0.29959389809E+01  0.44718129603E+00  0.44245834210E+01  0.51100000000E-03 0.  1.
        -12    1    4    4    0    0  0.28345122934E+02  0.25484213056E+01  0.51026257362E+01  0.28913270910E+02  0.00000000000E+00 0.  1.
</event>
<event>
 8    1  0.2514877E-006  0.9118800E+02  0.7816164E-02  0.1184000E+00
        -11   -1    0    0    0    0  0.00000000000E+00  0.00000000000E+00  0.45593999997E+02  0.45594000000E+02  0.51100000000E-03 0.  1.
         11   -1    0    0    0    0 -0.00000000000E+00 -0.00000000000E+00 -0.45593999997E+02  0.45594000000E+02  0.51100000000E-03 0. -1.
         23    2    1    2    0    0  0.00000000000E+00  0.00000000000E+00  0.00000000000E+00  0.91188000000E+02  0.91188000000E+02 0.  0.
    9900012    2    3    3    0    0 -0.45091021648E+01 -0.29557183502E+01 -0.36424043417E+02  0.54367092731E+02  0.40000019498E+02 0.  0.
        -12    1    3    3    0    0  0.45091021648E+01  0.29557183502E+01  0.36424043417E+02  0.36820907269E+02  0.00000000000E+00 0.  1.
         11    1    4    4    0    0 -0.48591850800E+01  0.10890416240E+02 -0.18415998860E+02  0.21939960342E+02  0.51100000000E-03 0. -1.
        -11    1    4    4    0    0  0.10449555122E+02 -0.24154334980E+01 -0.11836243802E+02  0.15972607453E+02  0.51100000000E-03 0.  1.
        -12    1    4    4    0    0 -0.10099472207E+02 -0.11430701092E+02 -0.61718007548E+01  0.16454524936E+02  0.00000000000E+00 0.  1.
</event>
<event>
 8    1  0.2514877E-006  0.9118800E+02  0.7816164E-02  0.1184000E+00
        -11   -1    0    0    0    0  0.00000000000E+00  0.00000000000E+00  0.45593999997E+02  0.45594000000E+02  0.51100000000E-03 0.  1.
         11   -1    0    0    0    0 -0.00000000000E+00 -0.00000000000E+00 -0.45593999997E+02  0.45594000000E+02  0.51100000000E-03 0. -1.
         23    2    1    2    0    0  0.35527136788E-14 -0.35527136788E-14 -0.88817841970E-15  0.91188000000E+02  0.91188000000E+02 0.  0.
    9900012    2    3    3    0    0 -0.22241005240E+02  0.29284004399E+02  0.18878213796E+01  0.54367094290E+02  0.40000023052E+02 0.  0.
        -12    1    3    3    0    0  0.22241005240E+02 -0.29284004399E+02 -0.18878213796E+01  0.36820905710E+02  0.00000000000E+00 0.  1.
         11    1    4    4    0    0 -0.61047028590E+01 -0.64834352016E+01 -0.52619493844E+01  0.10343618351E+02  0.51100000000E-03 0. -1.
        -11    1    4    4    0    0 -0.35939460408E+01 -0.14692988219E+01 -0.72507139708E+00  0.39498121429E+01  0.51100000000E-03 0.  1.
         12    1    4    4    0    0 -0.12542356341E+02  0.37236738423E+02  0.78748421610E+01  0.40073663796E+02  0.00000000000E+00 0. -1.
</event>
<event>
 8    1  0.2514877E-006  0.9118800E+02  0.7816164E-02  0.1184000E+00
        -11   -1    0    0    0    0  0.00000000000E+00  0.00000000000E+00  0.45593999997E+02  0.45594000000E+02  0.51100000000E-03 0.  1.
         11   -1    0    0    0    0 -0.00000000000E+00 -0.00000000000E+00 -0.45593999997E+02  0.45594000000E+02  0.51100000000E-03 0. -1.
         23    2    1    2    0    0 -0.35527136788E-14  0.00000000000E+00 -0.44408920985E-15  0.91188000000E+02  0.91188000000E+02 0.  0.
    9900012    2    3    3    0    0 -0.24764941516E+02  0.27091285038E+02  0.29224520730E+01  0.54367071449E+02  0.39999970982E+02 0.  0.
         12    1    3    3    0    0  0.24764941516E+02 -0.27091285038E+02 -0.29224520730E+01  0.36820928551E+02  0.00000000000E+00 0. -1.
         11    1    4    4    0    0 -0.52699434598E+01  0.15983776483E+02  0.61105756943E+01  0.17905098444E+02  0.51100000000E-03 0. -1.
        -11    1    4    4    0    0 -0.10053024701E+02  0.52348586546E+01  0.12730116005E+02  0.17044732457E+02  0.51100000000E-03 0.  1.
        -12    1    4    4    0    0 -0.94419733546E+01  0.58726499005E+01 -0.15918239626E+02  0.19417240547E+02  0.00000000000E+00 0.  1.
</event>
<event>
 8    1  0.2514877E-006  0.9118800E+02  0.7816164E-02  0.1184000E+00
        -11   -1    0    0    0    0  0.00000000000E+00  0.00000000000E+00  0.45593999997E+02  0.45594000000E+02  0.51100000000E-03 0. -1.
         11   -1    0    0    0    0 -0.00000000000E+00 -0.00000000000E+00 -0.45593999997E+02  0.45594000000E+02  0.51100000000E-03 0.  1.
         23    2    1    2    0    0  0.00000000000E+00  0.00000000000E+00  0.35527136788E-14  0.91188000000E+02  0.91188000000E+02 0.  0.
    9900012    2    3    3    0    0 -0.17397703740E+02 -0.13458093936E+02 -0.29529267812E+02  0.54367108575E+02  0.40000055619E+02 0.  0.
         12    1    3    3    0    0  0.17397703740E+02  0.13458093936E+02  0.29529267812E+02  0.36820891425E+02  0.00000000000E+00 0. -1.
         11    1    4    4    0    0  0.43183366281E+01  0.71109693745E+01  0.13128278542E+01  0.84224363408E+01  0.51100000000E-03 0. -1.
        -11    1    4    4    0    0 -0.14357618169E+02 -0.25402258654E+01 -0.13053699331E+02  0.19570207291E+02  0.51100000000E-03 0.  1.
        -12    1    4    4    0    0 -0.73584221990E+01 -0.18028837445E+02 -0.17788396335E+02  0.26374464943E+02  0.00000000000E+00 0.  1.
</event>
<event>
 8    1  0.2514877E-006  0.9118800E+02  0.7816164E-02  0.1184000E+00
        -11   -1    0    0    0    0  0.00000000000E+00  0.00000000000E+00  0.45593999997E+02  0.45594000000E+02  0.51100000000E-03 0.  1.
         11   -1    0    0    0    0 -0.00000000000E+00 -0.00000000000E+00 -0.45593999997E+02  0.45594000000E+02  0.51100000000E-03 0. -1.
         23    2    1    2    0    0  0.71054273576E-14  0.35527136788E-14  0.00000000000E+00  0.91188000000E+02  0.91188000000E+02 0.  0.
    9900012    2    3    3    0    0 -0.20758914156E+02 -0.18324248441E+02  0.24270757715E+02  0.54367078258E+02  0.39999986505E+02 0.  0.
         12    1    3    3    0    0  0.20758914156E+02  0.18324248441E+02 -0.24270757715E+02  0.36820921742E+02  0.00000000000E+00 0. -1.
         11    1    4    4    0    0  0.31413117563E+01 -0.63622124820E+01  0.16589297840E+02  0.18043015001E+02  0.51100000000E-03 0. -1.
        -11    1    4    4    0    0  0.47628146737E+00  0.47471249550E+01 -0.20737164322E+01  0.52021475832E+01  0.51100000000E-03 0.  1.
        -12    1    4    4    0    0 -0.24376507380E+02 -0.16709160914E+02  0.97551763068E+01  0.31121915674E+02  0.00000000000E+00 0.  1.
</event>
<event>
 8    1  0.2514877E-006  0.9118800E+02  0.7816164E-02  0.1184000E+00
        -11   -1    0    0    0    0  0.00000000000E+00  0.00000000000E+00  0.45593999997E+02  0.45594000000E+02  0.51100000000E-03 0. -1.
         11   -1    0    0    0    0 -0.00000000000E+00 -0.00000000000E+00 -0.45593999997E+02  0.45594000000E+02  0.51100000000E-03 0.  1.
         23    2    1    2    0    0 -0.35527136788E-14  0.00000000000E+00 -0.44408920985E-15  0.91188000000E+02  0.91188000000E+02 0.  0.
    9900012    2    3    3    0    0  0.17224791533E+02  0.32335053461E+02 -0.36783497605E+01  0.54367090415E+02  0.40000014220E+02 0.  0.
         12    1    3    3    0    0 -0.17224791533E+02 -0.32335053461E+02  0.36783497605E+01  0.36820909585E+02  0.00000000000E+00 0. -1.
         11    1    4    4    0    0  0.13707217155E+02  0.30907434007E+02  0.39524739147E+01  0.34040847953E+02  0.51100000000E-03 0. -1.
        -11    1    4    4    0    0 -0.68666176492E+01  0.29214943272E+01 -0.19067155270E+00  0.74647118462E+01  0.51100000000E-03 0.  1.
         12    1    4    4    0    0  0.10384192027E+02 -0.14938748731E+01 -0.74401521225E+01  0.12861530617E+02  0.00000000000E+00 0. -1.
</event>
<event>
 8    1  0.2514877E-006  0.9118800E+02  0.7816164E-02  0.1184000E+00
        -11   -1    0    0    0    0  0.00000000000E+00  0.00000000000E+00  0.45593999997E+02  0.45594000000E+02  0.51100000000E-03 0. -1.
         11   -1    0    0    0    0 -0.00000000000E+00 -0.00000000000E+00 -0.45593999997E+02  0.45594000000E+02  0.51100000000E-03 0.  1.
         23    2    1    2    0    0  0.13322676296E-14  0.00000000000E+00  0.00000000000E+00  0.91188000000E+02  0.91188000000E+02 0.  0.
    9900012    2    3    3    0    0 -0.32401145362E+01 -0.32461660418E+02 -0.17073925175E+02  0.54367127385E+02  0.40000098499E+02 0.  0.
         12    1    3    3    0    0  0.32401145362E+01  0.32461660418E+02  0.17073925175E+02  0.36820872615E+02  0.00000000000E+00 0. -1.
         11    1    4    4    0    0 -0.11596600962E+01 -0.84625831369E+01  0.60376897721E+01  0.10460106258E+02  0.51100000000E-03 0. -1.
        -11    1    4    4    0    0  0.10469799835E+02 -0.30745440025E+01 -0.14249815541E+02  0.17947890478E+02  0.51100000000E-03 0.  1.
        -12    1    4    4    0    0 -0.12550254275E+02 -0.20924533278E+02 -0.88617994059E+01  0.25959130648E+02  0.00000000000E+00 0.  1.
</event>
<event>
 8    1  0.2514877E-006  0.9118800E+02  0.7816164E-02  0.1184000E+00
        -11   -1    0    0    0    0  0.00000000000E+00  0.00000000000E+00  0.45593999997E+02  0.45594000000E+02  0.51100000000E-03 0.  1.
         11   -1    0    0    0    0 -0.00000000000E+00 -0.00000000000E+00 -0.45593999997E+02  0.45594000000E+02  0.51100000000E-03 0. -1.
         23    2    1    2    0    0  0.00000000000E+00  0.35527136788E-14  0.00000000000E+00  0.91188000000E+02  0.91188000000E+02 0.  0.
    9900012    2    3    3    0    0  0.16443949711E+02  0.21728482527E+02 -0.24763880404E+02  0.54367079212E+02  0.39999988679E+02 0.  0.
        -12    1    3    3    0    0 -0.16443949711E+02 -0.21728482527E+02  0.24763880404E+02  0.36820920788E+02  0.00000000000E+00 0.  1.
         11    1    4    4    0    0  0.61534503944E+01  0.18280213752E+02 -0.10734237375E+02  0.22073853738E+02  0.51100000000E-03 0. -1.
        -11    1    4    4    0    0  0.19115039575E+02  0.23649712234E+01 -0.56414405845E+01  0.20069969581E+02  0.51100000000E-03 0.  1.
         12    1    4    4    0    0 -0.88245402586E+01  0.10832975518E+01 -0.83882024444E+01  0.12223255892E+02  0.00000000000E+00 0. -1.
</event>
<event>
 8    1  0.2514877E-006  0.9118800E+02  0.7816164E-02  0.1184000E+00
        -11   -1    0    0    0    0  0.00000000000E+00  0.00000000000E+00  0.45593999997E+02  0.45594000000E+02  0.51100000000E-03 0. -1.
         11   -1    0    0    0    0 -0.00000000000E+00 -0.00000000000E+00 -0.45593999997E+02  0.45594000000E+02  0.51100000000E-03 0.  1.
         23    2    1    2    0    0  0.22204460493E-15  0.00000000000E+00 -0.88817841970E-15  0.91188000000E+02  0.91188000000E+02 0.  0.
    9900012    2    3    3    0    0  0.61947382865E+00 -0.36584110569E+02  0.41227088159E+01  0.54367114324E+02  0.40000068725E+02 0.  0.
        -12    1    3    3    0    0 -0.61947382865E+00  0.36584110569E+02 -0.41227088159E+01  0.36820885676E+02  0.00000000000E+00 0.  1.
         11    1    4    4    0    0  0.13444046519E+02 -0.11674556807E+02  0.10628214067E+02  0.20736359322E+02  0.51100000000E-03 0. -1.
        -11    1    4    4    0    0 -0.10540005462E+02 -0.26238051490E+02 -0.19235176206E+01  0.28341259348E+02  0.51100000000E-03 0.  1.
         12    1    4    4    0    0 -0.22845672277E+01  0.13284977273E+01 -0.45819876301E+01  0.52894956538E+01  0.00000000000E+00 0. -1.
</event>
<event>
 8    1  0.2514877E-006  0.9118800E+02  0.7816164E-02  0.1184000E+00
        -11   -1    0    0    0    0  0.00000000000E+00  0.00000000000E+00  0.45593999997E+02  0.45594000000E+02  0.51100000000E-03 0.  1.
         11   -1    0    0    0    0 -0.00000000000E+00 -0.00000000000E+00 -0.45593999997E+02  0.45594000000E+02  0.51100000000E-03 0. -1.
         23    2    1    2    0    0  0.00000000000E+00 -0.35527136788E-14 -0.35527136788E-14  0.91188000000E+02  0.91188000000E+02 0.  0.
    9900012    2    3    3    0    0 -0.21123977613E+02 -0.23007149148E+02 -0.19499447516E+02  0.54367084808E+02  0.40000001437E+02 0.  0.
        -12    1    3    3    0    0  0.21123977613E+02  0.23007149148E+02  0.19499447516E+02  0.36820915192E+02  0.00000000000E+00 0.  1.
         11    1    4    4    0    0 -0.17878691874E+02 -0.10242938701E+02 -0.16223405162E+02  0.26225260564E+02  0.51100000000E-03 0. -1.
        -11    1    4    4    0    0 -0.13823976978E+02 -0.51956098308E+01 -0.17161374044E+00  0.14769094506E+02  0.51100000000E-03 0.  1.
        -12    1    4    4    0    0  0.10578691239E+02 -0.75686006164E+01 -0.31044286140E+01  0.13372729737E+02  0.00000000000E+00 0.  1.
</event>
<event>
 8    1  0.2514877E-006  0.9118800E+02  0.7816164E-02  0.1184000E+00
        -11   -1    0    0    0    0  0.00000000000E+00  0.00000000000E+00  0.45593999997E+02  0.45594000000E+02  0.51100000000E-03 0.  1.
         11   -1    0    0    0    0 -0.00000000000E+00 -0.00000000000E+00 -0.45593999997E+02  0.45594000000E+02  0.51100000000E-03 0. -1.
         23    2    1    2    0    0  0.00000000000E+00  0.35527136788E-14  0.00000000000E+00  0.91188000000E+02  0.91188000000E+02 0.  0.
    9900012    2    3    3    0    0 -0.20833230738E+02  0.25104312499E+02 -0.17074232783E+02  0.54367089716E+02  0.40000012626E+02 0.  0.
        -12    1    3    3    0    0  0.20833230738E+02 -0.25104312499E+02  0.17074232783E+02  0.36820910284E+02  0.00000000000E+00 0.  1.
         11    1    4    4    0    0 -0.12873720497E+02  0.22064310028E+02 -0.19096876213E+02  0.31894468765E+02  0.51100000000E-03 0. -1.
        -11    1    4    4    0    0 -0.98179530214E+01  0.47027584500E+01  0.95882438722E+01  0.14506638459E+02  0.51100000000E-03 0.  1.
        -12    1    4    4    0    0  0.18584427807E+01 -0.16627559793E+01 -0.75656004422E+01  0.79659824922E+01  0.00000000000E+00 0.  1.
</event>
<event>
 8    1  0.2514877E-006  0.9118800E+02  0.7816164E-02  0.1184000E+00
        -11   -1    0    0    0    0  0.00000000000E+00  0.00000000000E+00  0.45593999997E+02  0.45594000000E+02  0.51100000000E-03 0.  1.
         11   -1    0    0    0    0 -0.00000000000E+00 -0.00000000000E+00 -0.45593999997E+02  0.45594000000E+02  0.51100000000E-03 0. -1.
         23    2    1    2    0    0 -0.17763568394E-14  0.00000000000E+00 -0.10658141036E-13  0.91188000000E+02  0.91188000000E+02 0.  0.
    9900012    2    3    3    0    0 -0.85102819917E+01  0.22680207281E+02 -0.27730165000E+02  0.54367098968E+02  0.40000033716E+02 0.  0.
        -12    1    3    3    0    0  0.85102819917E+01 -0.22680207281E+02  0.27730165000E+02  0.36820901032E+02  0.00000000000E+00 0.  1.
         11    1    4    4    0    0 -0.10951165442E+02  0.10319845317E+02 -0.31011585629E+02  0.34469489051E+02  0.51100000000E-03 0. -1.
        -11    1    4    4    0    0  0.20625464580E+00  0.62323899869E+01  0.91838172602E+01  0.11100798424E+02  0.51100000000E-03 0.  1.
        -12    1    4    4    0    0  0.22346288042E+01  0.61279719774E+01 -0.59023966310E+01  0.87968114927E+01  0.00000000000E+00 0.  1.
</event>
<event>
 8    1  0.2514877E-006  0.9118800E+02  0.7816164E-02  0.1184000E+00
        -11   -1    0    0    0    0  0.00000000000E+00  0.00000000000E+00  0.45593999997E+02  0.45594000000E+02  0.51100000000E-03 0.  1.
         11   -1    0    0    0    0 -0.00000000000E+00 -0.00000000000E+00 -0.45593999997E+02  0.45594000000E+02  0.51100000000E-03 0. -1.
         23    2    1    2    0    0  0.88817841970E-15 -0.35527136788E-14  0.00000000000E+00  0.91188000000E+02  0.91188000000E+02 0.  0.
    9900012    2    3    3    0    0 -0.43637885660E+01  0.13937070941E+02 -0.33800807388E+02  0.54367093206E+02  0.40000020582E+02 0.  0.
        -12    1    3    3    0    0  0.43637885660E+01 -0.13937070941E+02  0.33800807388E+02  0.36820906794E+02  0.00000000000E+00 0.  1.
         11    1    4    4    0    0  0.51413465635E+01  0.35062748531E+01 -0.16024494377E+02  0.17190457473E+02  0.51100000000E-03 0. -1.
        -11    1    4    4    0    0  0.86053398776E+01  0.11319688254E+02 -0.10327524179E+02  0.17573985675E+02  0.51100000000E-03 0.  1.
         12    1    4    4    0    0 -0.18110475007E+02 -0.88889216578E+00 -0.74487888319E+01  0.19602650059E+02  0.00000000000E+00 0. -1.
</event>
<event>
 8    1  0.2514877E-006  0.9118800E+02  0.7816164E-02  0.1184000E+00
        -11   -1    0    0    0    0  0.00000000000E+00  0.00000000000E+00  0.45593999997E+02  0.45594000000E+02  0.51100000000E-03 0. -1.
         11   -1    0    0    0    0 -0.00000000000E+00 -0.00000000000E+00 -0.45593999997E+02  0.45594000000E+02  0.51100000000E-03 0.  1.
         23    2    1    2    0    0  0.35527136788E-14 -0.88817841970E-15  0.00000000000E+00  0.91188000000E+02  0.91188000000E+02 0.  0.
    9900012    2    3    3    0    0 -0.31956083885E+02  0.70588306616E+01  0.16874861114E+02  0.54367091196E+02  0.40000015999E+02 0.  0.
        -12    1    3    3    0    0  0.31956083885E+02 -0.70588306616E+01 -0.16874861114E+02  0.36820908804E+02  0.00000000000E+00 0.  1.
         11    1    4    4    0    0 -0.25802290034E+01  0.43276763001E+01  0.17798146717E+02  0.18497577968E+02  0.51100000000E-03 0. -1.
        -11    1    4    4    0    0  0.16732876285E+01 -0.37472693433E+01  0.40556923045E+00  0.41238823554E+01  0.51100000000E-03 0.  1.
         12    1    4    4    0    0 -0.31049142510E+02  0.64784237048E+01 -0.13288548330E+01  0.31745630872E+02  0.00000000000E+00 0. -1.
</event>
<event>
 8    1  0.2514877E-006  0.9118800E+02  0.7816164E-02  0.1184000E+00
        -11   -1    0    0    0    0  0.00000000000E+00  0.00000000000E+00  0.45593999997E+02  0.45594000000E+02  0.51100000000E-03 0. -1.
         11   -1    0    0    0    0 -0.00000000000E+00 -0.00000000000E+00 -0.45593999997E+02  0.45594000000E+02  0.51100000000E-03 0.  1.
         23    2    1    2    0    0  0.17763568394E-14 -0.35527136788E-14  0.00000000000E+00  0.91188000000E+02  0.91188000000E+02 0.  0.
    9900012    2    3    3    0    0 -0.12981407597E+02  0.22032258294E+02 -0.26492284948E+02  0.54367102258E+02  0.40000041217E+02 0.  0.
         12    1    3    3    0    0  0.12981407597E+02 -0.22032258294E+02  0.26492284948E+02  0.36820897742E+02  0.00000000000E+00 0. -1.
         11    1    4    4    0    0  0.19401799398E+01  0.13168947686E+02 -0.31027579303E+01  0.13667940166E+02  0.51100000000E-03 0. -1.
        -11    1    4    4    0    0 -0.54591837004E+01  0.91012433045E+01 -0.28164361719E+02  0.30097617641E+02  0.51100000000E-03 0.  1.
        -12    1    4    4    0    0 -0.94624038366E+01 -0.23793269618E+00  0.47748347004E+01  0.10601544451E+02  0.00000000000E+00 0.  1.
</event>
<event>
 8    1  0.2514877E-006  0.9118800E+02  0.7816164E-02  0.1184000E+00
        -11   -1    0    0    0    0  0.00000000000E+00  0.00000000000E+00  0.45593999997E+02  0.45594000000E+02  0.51100000000E-03 0.  1.
         11   -1    0    0    0    0 -0.00000000000E+00 -0.00000000000E+00 -0.45593999997E+02  0.45594000000E+02  0.51100000000E-03 0. -1.
         23    2    1    2    0    0  0.00000000000E+00  0.00000000000E+00 -0.55511151231E-15  0.91188000000E+02  0.91188000000E+02 0.  0.
    9900012    2    3    3    0    0 -0.35542414834E+02  0.96168069822E+01 -0.18237679645E+00  0.54367088957E+02  0.40000010895E+02 0.  0.
        -12    1    3    3    0    0  0.35542414834E+02 -0.96168069822E+01  0.18237679645E+00  0.36820911043E+02  0.00000000000E+00 0.  1.
         11    1    4    4    0    0 -0.13721289579E+02  0.17340753970E+01 -0.61596322469E+01  0.15140075128E+02  0.51100000000E-03 0. -1.
        -11    1    4    4    0    0 -0.26844520794E+02  0.98204175274E+01 -0.30182244563E+01  0.28743322289E+02  0.51100000000E-03 0.  1.
        -12    1    4    4    0    0  0.50233955397E+01 -0.19376859422E+01  0.89954799067E+01  0.10483691540E+02  0.00000000000E+00 0.  1.
</event>
<event>
 8    1  0.2514877E-006  0.9118800E+02  0.7816164E-02  0.1184000E+00
        -11   -1    0    0    0    0  0.00000000000E+00  0.00000000000E+00  0.45593999997E+02  0.45594000000E+02  0.51100000000E-03 0.  1.
         11   -1    0    0    0    0 -0.00000000000E+00 -0.00000000000E+00 -0.45593999997E+02  0.45594000000E+02  0.51100000000E-03 0. -1.
         23    2    1    2    0    0  0.00000000000E+00  0.17763568394E-14 -0.35527136788E-14  0.91188000000E+02  0.91188000000E+02 0.  0.
    9900012    2    3    3    0    0  0.16016256462E+02 -0.10069922224E+02 -0.31588855851E+02  0.54367087211E+02  0.40000006914E+02 0.  0.
        -12    1    3    3    0    0 -0.16016256462E+02  0.10069922224E+02  0.31588855851E+02  0.36820912789E+02  0.00000000000E+00 0.  1.
         11    1    4    4    0    0  0.12399819516E+02  0.86788282572E+01 -0.83222977835E+01  0.17272470136E+02  0.51100000000E-03 0. -1.
        -11    1    4    4    0    0  0.92241783351E+01 -0.10292492063E+02 -0.25886567461E+01  0.14061365611E+02  0.51100000000E-03 0.  1.
         12    1    4    4    0    0 -0.56077413891E+01 -0.84562584186E+01 -0.20677901322E+02  0.23033251464E+02  0.00000000000E+00 0. -1.
</event>
<event>
 8    1  0.2514877E-006  0.9118800E+02  0.7816164E-02  0.1184000E+00
        -11   -1    0    0    0    0  0.00000000000E+00  0.00000000000E+00  0.45593999997E+02  0.45594000000E+02  0.51100000000E-03 0.  1.
         11   -1    0    0    0    0 -0.00000000000E+00 -0.00000000000E+00 -0.45593999997E+02  0.45594000000E+02  0.51100000000E-03 0. -1.
         23    2    1    2    0    0  0.00000000000E+00  0.00000000000E+00 -0.35527136788E-14  0.91188000000E+02  0.91188000000E+02 0.  0.
    9900012    2    3    3    0    0 -0.32986933423E+02  0.53612194062E+01 -0.15456320104E+02  0.54367105370E+02  0.40000048313E+02 0.  0.
         12    1    3    3    0    0  0.32986933423E+02 -0.53612194062E+01  0.15456320104E+02  0.36820894630E+02  0.00000000000E+00 0. -1.
         11    1    4    4    0    0 -0.12315196948E+02  0.65482034245E+01 -0.11188864091E+02  0.17881099627E+02  0.51100000000E-03 0. -1.
        -11    1    4    4    0    0 -0.25471683130E+02  0.72577712463E+01 -0.23945750045E+01  0.26593530692E+02  0.51100000000E-03 0.  1.
        -12    1    4    4    0    0  0.47999466556E+01 -0.84447552647E+01 -0.18728810087E+01  0.98924750517E+01  0.00000000000E+00 0.  1.
</event>
<event>
 8    1  0.2514877E-006  0.9118800E+02  0.7816164E-02  0.1184000E+00
        -11   -1    0    0    0    0  0.00000000000E+00  0.00000000000E+00  0.45593999997E+02  0.45594000000E+02  0.51100000000E-03 0.  1.
         11   -1    0    0    0    0 -0.00000000000E+00 -0.00000000000E+00 -0.45593999997E+02  0.45594000000E+02  0.51100000000E-03 0. -1.
         23    2    1    2    0    0  0.00000000000E+00 -0.88817841970E-15 -0.17763568394E-14  0.91188000000E+02  0.91188000000E+02 0.  0.
    9900012    2    3    3    0    0  0.32992369338E+02  0.72989962035E+01 -0.14628975054E+02  0.54367099804E+02  0.40000035622E+02 0.  0.
         12    1    3    3    0    0 -0.32992369338E+02 -0.72989962035E+01  0.14628975054E+02  0.36820900196E+02  0.00000000000E+00 0. -1.
         11    1    4    4    0    0  0.32733486485E+01  0.48348132025E+01 -0.15241025811E+02  0.16321124290E+02  0.51100000000E-03 0. -1.
        -11    1    4    4    0    0  0.25320211393E+01 -0.42085455578E+00  0.90713689120E+01  0.94275120687E+01  0.51100000000E-03 0.  1.
        -12    1    4    4    0    0  0.27186999551E+02  0.28850375568E+01 -0.84593181558E+01  0.28618463445E+02  0.00000000000E+00 0.  1.
</event>
<event>
 8    1  0.2514877E-006  0.9118800E+02  0.7816164E-02  0.1184000E+00
        -11   -1    0    0    0    0  0.00000000000E+00  0.00000000000E+00  0.45593999997E+02  0.45594000000E+02  0.51100000000E-03 0.  1.
         11   -1    0    0    0    0 -0.00000000000E+00 -0.00000000000E+00 -0.45593999997E+02  0.45594000000E+02  0.51100000000E-03 0. -1.
         23    2    1    2    0    0  0.88817841970E-15  0.00000000000E+00  0.00000000000E+00  0.91188000000E+02  0.91188000000E+02 0.  0.
    9900012    2    3    3    0    0 -0.49428636728E+01 -0.26851683244E+02  0.24704956359E+02  0.54367086608E+02  0.40000005540E+02 0.  0.
         12    1    3    3    0    0  0.49428636728E+01  0.26851683244E+02 -0.24704956359E+02  0.36820913392E+02  0.00000000000E+00 0. -1.
         11    1    4    4    0    0  0.14578566585E+02 -0.12222612681E+02  0.18486984991E+00  0.19025273757E+02  0.51100000000E-03 0. -1.
        -11    1    4    4    0    0 -0.16890395308E+02 -0.15047751528E+02  0.23063439889E+02  0.32305456807E+02  0.51100000000E-03 0.  1.
        -12    1    4    4    0    0 -0.26310349490E+01  0.41868096449E+00  0.14566466200E+01  0.30363560444E+01  0.00000000000E+00 0.  1.
</event>
<event>
 8    1  0.2514877E-006  0.9118800E+02  0.7816164E-02  0.1184000E+00
        -11   -1    0    0    0    0  0.00000000000E+00  0.00000000000E+00  0.45593999997E+02  0.45594000000E+02  0.51100000000E-03 0. -1.
         11   -1    0    0    0    0 -0.00000000000E+00 -0.00000000000E+00 -0.45593999997E+02  0.45594000000E+02  0.51100000000E-03 0.  1.
         23    2    1    2    0    0  0.00000000000E+00 -0.71054273576E-14  0.17763568394E-14  0.91188000000E+02  0.91188000000E+02 0.  0.
    9900012    2    3    3    0    0 -0.10423893254E+02  0.34730375089E+02  0.63972676904E+01  0.54367061143E+02  0.39999947488E+02 0.  0.
         12    1    3    3    0    0  0.10423893254E+02 -0.34730375089E+02 -0.63972676904E+01  0.36820938857E+02  0.00000000000E+00 0. -1.
         11    1    4    4    0    0 -0.12256805017E+02  0.12230579759E+02  0.14225517214E+02  0.22409410763E+02  0.51100000000E-03 0. -1.
        -11    1    4    4    0    0 -0.56510385006E+01  0.17048716472E+01 -0.78941661355E+01  0.98569104036E+01  0.51100000000E-03 0.  1.
         12    1    4    4    0    0  0.74839502628E+01  0.20794923683E+02  0.65916611603E-01  0.22100739977E+02  0.00000000000E+00 0. -1.
</event>
<event>
 8    1  0.2514877E-006  0.9118800E+02  0.7816164E-02  0.1184000E+00
        -11   -1    0    0    0    0  0.00000000000E+00  0.00000000000E+00  0.45593999997E+02  0.45594000000E+02  0.51100000000E-03 0. -1.
         11   -1    0    0    0    0 -0.00000000000E+00 -0.00000000000E+00 -0.45593999997E+02  0.45594000000E+02  0.51100000000E-03 0.  1.
         23    2    1    2    0    0  0.00000000000E+00  0.00000000000E+00  0.35527136788E-14  0.91188000000E+02  0.91188000000E+02 0.  0.
    9900012    2    3    3    0    0 -0.15705076071E+02 -0.11969026179E+02  0.31078546221E+02  0.54367040788E+02  0.39999901084E+02 0.  0.
        -12    1    3    3    0    0  0.15705076071E+02  0.11969026179E+02 -0.31078546221E+02  0.36820959212E+02  0.00000000000E+00 0.  1.
         11    1    4    4    0    0 -0.39018290702E+00 -0.80292510755E+01  0.30007489438E+02  0.31065584466E+02  0.51100000000E-03 0. -1.
        -11    1    4    4    0    0 -0.73411895144E+01 -0.10154761833E+02 -0.21019207614E+01  0.12705523308E+02  0.51100000000E-03 0.  1.
         12    1    4    4    0    0 -0.79737036500E+01  0.62149867300E+01  0.31729775441E+01  0.10595933015E+02  0.00000000000E+00 0. -1.
</event>
<event>
 8    1  0.2514877E-006  0.9118800E+02  0.7816164E-02  0.1184000E+00
        -11   -1    0    0    0    0  0.00000000000E+00  0.00000000000E+00  0.45593999997E+02  0.45594000000E+02  0.51100000000E-03 0.  1.
         11   -1    0    0    0    0 -0.00000000000E+00 -0.00000000000E+00 -0.45593999997E+02  0.45594000000E+02  0.51100000000E-03 0. -1.
         23    2    1    2    0    0  0.17763568394E-14 -0.35527136788E-14  0.00000000000E+00  0.91188000000E+02  0.91188000000E+02 0.  0.
    9900012    2    3    3    0    0  0.77599386407E+01  0.20423943771E+02 -0.29638254691E+02  0.54367078393E+02  0.39999986812E+02 0.  0.
        -12    1    3    3    0    0 -0.77599386407E+01 -0.20423943771E+02  0.29638254691E+02  0.36820921607E+02  0.00000000000E+00 0.  1.
         11    1    4    4    0    0  0.36261923009E+01  0.12492935686E+02 -0.67382358167E+01  0.14650137707E+02  0.51100000000E-03 0. -1.
        -11    1    4    4    0    0 -0.93198689839E+01 -0.20794658758E+01  0.19421828188E+01  0.97445477355E+01  0.51100000000E-03 0.  1.
        -12    1    4    4    0    0  0.13453615324E+02  0.10010473961E+02 -0.24842201693E+02  0.29972392950E+02  0.00000000000E+00 0.  1.
</event>
<event>
 8    1  0.2514877E-006  0.9118800E+02  0.7816164E-02  0.1184000E+00
        -11   -1    0    0    0    0  0.00000000000E+00  0.00000000000E+00  0.45593999997E+02  0.45594000000E+02  0.51100000000E-03 0.  1.
         11   -1    0    0    0    0 -0.00000000000E+00 -0.00000000000E+00 -0.45593999997E+02  0.45594000000E+02  0.51100000000E-03 0. -1.
         23    2    1    2    0    0  0.00000000000E+00  0.00000000000E+00  0.00000000000E+00  0.91188000000E+02  0.91188000000E+02 0.  0.
    9900012    2    3    3    0    0 -0.64739512420E+01 -0.16311346167E+02 -0.32369816022E+02  0.54367122122E+02  0.40000086500E+02 0.  0.
        -12    1    3    3    0    0  0.64739512420E+01  0.16311346167E+02  0.32369816022E+02  0.36820877878E+02  0.00000000000E+00 0.  1.
         11    1    4    4    0    0  0.39951458201E+01  0.47167097821E+01 -0.23687019233E+02  0.24480265965E+02  0.51100000000E-03 0. -1.
        -11    1    4    4    0    0 -0.47364186908E+01 -0.10273383150E+02  0.42795185498E+01  0.12095054470E+02  0.51100000000E-03 0.  1.
        -12    1    4    4    0    0 -0.57326783713E+01 -0.10754672799E+02 -0.12962315339E+02  0.17791801687E+02  0.00000000000E+00 0.  1.
</event>
<event>
 8    1  0.2514877E-006  0.9118800E+02  0.7816164E-02  0.1184000E+00
        -11   -1    0    0    0    0  0.00000000000E+00  0.00000000000E+00  0.45593999997E+02  0.45594000000E+02  0.51100000000E-03 0. -1.
         11   -1    0    0    0    0 -0.00000000000E+00 -0.00000000000E+00 -0.45593999997E+02  0.45594000000E+02  0.51100000000E-03 0.  1.
         23    2    1    2    0    0  0.00000000000E+00  0.00000000000E+00  0.00000000000E+00  0.91188000000E+02  0.91188000000E+02 0.  0.
    9900012    2    3    3    0    0 -0.12575154505E+02  0.17196668455E+02  0.30031956573E+02  0.54367104677E+02  0.40000046733E+02 0.  0.
        -12    1    3    3    0    0  0.12575154505E+02 -0.17196668455E+02 -0.30031956573E+02  0.36820895323E+02  0.00000000000E+00 0.  1.
         11    1    4    4    0    0 -0.13631656135E+02  0.74210353630E+01  0.15143404874E+02  0.21684476620E+02  0.51100000000E-03 0. -1.
        -11    1    4    4    0    0 -0.13135104427E+02  0.36600210541E+01  0.66566905446E+01  0.15173603780E+02  0.51100000000E-03 0.  1.
        -12    1    4    4    0    0  0.14191606057E+02  0.61156120376E+01  0.82318611546E+01  0.17509024277E+02  0.00000000000E+00 0.  1.
</event>
<event>
 8    1  0.2514877E-006  0.9118800E+02  0.7816164E-02  0.1184000E+00
        -11   -1    0    0    0    0  0.00000000000E+00  0.00000000000E+00  0.45593999997E+02  0.45594000000E+02  0.51100000000E-03 0.  1.
         11   -1    0    0    0    0 -0.00000000000E+00 -0.00000000000E+00 -0.45593999997E+02  0.45594000000E+02  0.51100000000E-03 0. -1.
         23    2    1    2    0    0  0.88817841970E-15 -0.17763568394E-14  0.71054273576E-14  0.91188000000E+02  0.91188000000E+02 0.  0.
    9900012    2    3    3    0    0 -0.75848766224E+01  0.15014922219E+02 -0.32753666076E+02  0.54367070028E+02  0.39999967743E+02 0.  0.
        -12    1    3    3    0    0  0.75848766224E+01 -0.15014922219E+02  0.32753666076E+02  0.36820929972E+02  0.00000000000E+00 0.  1.
         11    1    4    4    0    0 -0.79494740429E+00  0.10684751393E+02 -0.34609024187E+02  0.36229551600E+02  0.51100000000E-03 0. -1.
        -11    1    4    4    0    0 -0.20018186411E+01 -0.24872254415E+01  0.74480517122E+01  0.81035203978E+01  0.51100000000E-03 0.  1.
        -12    1    4    4    0    0 -0.47881105770E+01  0.68173962668E+01 -0.55926936012E+01  0.10033998030E+02  0.00000000000E+00 0.  1.
</event>
<event>
 8    1  0.2514877E-006  0.9118800E+02  0.7816164E-02  0.1184000E+00
        -11   -1    0    0    0    0  0.00000000000E+00  0.00000000000E+00  0.45593999997E+02  0.45594000000E+02  0.51100000000E-03 0. -1.
         11   -1    0    0    0    0 -0.00000000000E+00 -0.00000000000E+00 -0.45593999997E+02  0.45594000000E+02  0.51100000000E-03 0.  1.
         23    2    1    2    0    0  0.00000000000E+00  0.17763568394E-14  0.00000000000E+00  0.91188000000E+02  0.91188000000E+02 0.  0.
    9900012    2    3    3    0    0 -0.63099006538E+01  0.49114827281E+01 -0.35942213470E+02  0.54367079072E+02  0.39999988361E+02 0.  0.
         12    1    3    3    0    0  0.63099006538E+01 -0.49114827281E+01  0.35942213470E+02  0.36820920928E+02  0.00000000000E+00 0. -1.
         11    1    4    4    0    0  0.20472403840E+01 -0.10331574169E+02 -0.61779634289E+01  0.12210644962E+02  0.51100000000E-03 0. -1.
        -11    1    4    4    0    0 -0.15939189234E+02  0.14790400147E+02 -0.18384266050E+02  0.28474460985E+02  0.51100000000E-03 0.  1.
         12    1    4    4    0    0  0.75820481957E+01  0.45265675075E+00 -0.11379983991E+02  0.13681973125E+02  0.00000000000E+00 0. -1.
</event>
<event>
 8    1  0.2514877E-006  0.9118800E+02  0.7816164E-02  0.1184000E+00
        -11   -1    0    0    0    0  0.00000000000E+00  0.00000000000E+00  0.45593999997E+02  0.45594000000E+02  0.51100000000E-03 0.  1.
         11   -1    0    0    0    0 -0.00000000000E+00 -0.00000000000E+00 -0.45593999997E+02  0.45594000000E+02  0.51100000000E-03 0. -1.
         23    2    1    2    0    0  0.00000000000E+00  0.00000000000E+00 -0.88817841970E-15  0.91188000000E+02  0.91188000000E+02 0.  0.
    9900012    2    3    3    0    0  0.34136747208E+02 -0.13390508939E+02  0.33402130641E+01  0.54367078462E+02  0.39999986970E+02 0.  0.
         12    1    3    3    0    0 -0.34136747208E+02  0.13390508939E+02 -0.33402130641E+01  0.36820921538E+02  0.00000000000E+00 0. -1.
         11    1    4    4    0    0  0.13273244312E+02 -0.60743661474E+01 -0.82539281647E+01  0.16769146343E+02  0.51100000000E-03 0. -1.
        -11    1    4    4    0    0  0.22426708508E+02 -0.15443593558E+02  0.10763498571E+02  0.29279937470E+02  0.51100000000E-03 0.  1.
        -12    1    4    4    0    0 -0.15632056119E+01  0.81274507671E+01  0.83064265821E+00  0.83179946491E+01  0.00000000000E+00 0.  1.
</event>
<event>
 8    1  0.2514877E-006  0.9118800E+02  0.7816164E-02  0.1184000E+00
        -11   -1    0    0    0    0  0.00000000000E+00  0.00000000000E+00  0.45593999997E+02  0.45594000000E+02  0.51100000000E-03 0.  1.
         11   -1    0    0    0    0 -0.00000000000E+00 -0.00000000000E+00 -0.45593999997E+02  0.45594000000E+02  0.51100000000E-03 0. -1.
         23    2    1    2    0    0  0.00000000000E+00 -0.35527136788E-14  0.00000000000E+00  0.91188000000E+02  0.91188000000E+02 0.  0.
    9900012    2    3    3    0    0  0.65571976055E+01  0.19016011421E+02  0.30841115408E+02  0.54367082977E+02  0.39999997263E+02 0.  0.
         12    1    3    3    0    0 -0.65571976055E+01 -0.19016011421E+02 -0.30841115408E+02  0.36820917023E+02  0.00000000000E+00 0. -1.
         11    1    4    4    0    0  0.12780583289E+02  0.25526640573E+02  0.21164520367E+02  0.35537158170E+02  0.51100000000E-03 0. -1.
        -11    1    4    4    0    0 -0.24924270869E+01  0.36936422714E+01  0.27903804876E+00  0.44646442755E+01  0.51100000000E-03 0.  1.
         12    1    4    4    0    0 -0.37309585969E+01 -0.10204271423E+02  0.93975569917E+01  0.14365280532E+02  0.00000000000E+00 0. -1.
</event>
<event>
 8    1  0.2514877E-006  0.9118800E+02  0.7816164E-02  0.1184000E+00
        -11   -1    0    0    0    0  0.00000000000E+00  0.00000000000E+00  0.45593999997E+02  0.45594000000E+02  0.51100000000E-03 0.  1.
         11   -1    0    0    0    0 -0.00000000000E+00 -0.00000000000E+00 -0.45593999997E+02  0.45594000000E+02  0.51100000000E-03 0. -1.
         23    2    1    2    0    0  0.44408920985E-14  0.35527136788E-14  0.35527136788E-14  0.91188000000E+02  0.91188000000E+02 0.  0.
    9900012    2    3    3    0    0  0.29053842435E+01 -0.27958863787E+02  0.23783150932E+02  0.54367114757E+02  0.40000069711E+02 0.  0.
        -12    1    3    3    0    0 -0.29053842435E+01  0.27958863787E+02 -0.23783150932E+02  0.36820885243E+02  0.00000000000E+00 0.  1.
         11    1    4    4    0    0 -0.15515667843E+02 -0.28913154599E+01  0.36210205516E+01  0.16192820748E+02  0.51100000000E-03 0. -1.
        -11    1    4    4    0    0  0.37678514697E+01 -0.94971249337E+01  0.10694680523E+02  0.14790817369E+02  0.51100000000E-03 0.  1.
         12    1    4    4    0    0  0.14653200616E+02 -0.15570423393E+02  0.94674498577E+01  0.23383476640E+02  0.00000000000E+00 0. -1.
</event>
<event>
 8    1  0.2514877E-006  0.9118800E+02  0.7816164E-02  0.1184000E+00
        -11   -1    0    0    0    0  0.00000000000E+00  0.00000000000E+00  0.45593999997E+02  0.45594000000E+02  0.51100000000E-03 0. -1.
         11   -1    0    0    0    0 -0.00000000000E+00 -0.00000000000E+00 -0.45593999997E+02  0.45594000000E+02  0.51100000000E-03 0.  1.
         23    2    1    2    0    0  0.00000000000E+00  0.00000000000E+00  0.00000000000E+00  0.91188000000E+02  0.91188000000E+02 0.  0.
    9900012    2    3    3    0    0  0.10742285924E+02  0.35189763669E+02  0.14363821566E+01  0.54367090619E+02  0.40000014684E+02 0.  0.
        -12    1    3    3    0    0 -0.10742285924E+02 -0.35189763669E+02 -0.14363821566E+01  0.36820909381E+02  0.00000000000E+00 0.  1.
         11    1    4    4    0    0  0.18751510239E+02  0.15946334360E+02 -0.65316464874E+01  0.25466981012E+02  0.51100000000E-03 0.  1.
        -11    1    4    4    0    0 -0.45865057268E+01  0.18236705202E+02  0.12906527165E+02  0.22807715693E+02  0.51100000000E-03 0. -1.
        -12    1    4    4    0    0 -0.34227185881E+01  0.10067241074E+01 -0.49384985215E+01  0.60923939144E+01  0.00000000000E+00 0.  1.
</event>
<event>
 8    1  0.2514877E-006  0.9118800E+02  0.7816164E-02  0.1184000E+00
        -11   -1    0    0    0    0  0.00000000000E+00  0.00000000000E+00  0.45593999997E+02  0.45594000000E+02  0.51100000000E-03 0. -1.
         11   -1    0    0    0    0 -0.00000000000E+00 -0.00000000000E+00 -0.45593999997E+02  0.45594000000E+02  0.51100000000E-03 0.  1.
         23    2    1    2    0    0  0.00000000000E+00 -0.17763568394E-14 -0.71054273576E-14  0.91188000000E+02  0.91188000000E+02 0.  0.
    9900012    2    3    3    0    0  0.17753643995E+02 -0.11801188845E+02  0.30022037419E+02  0.54367045856E+02  0.39999912639E+02 0.  0.
        -12    1    3    3    0    0 -0.17753643995E+02  0.11801188845E+02 -0.30022037419E+02  0.36820954144E+02  0.00000000000E+00 0.  1.
         11    1    4    4    0    0  0.54843611332E+01 -0.17503574258E+02  0.58873589484E+01  0.19264327771E+02  0.51100000000E-03 0. -1.
        -11    1    4    4    0    0 -0.23191466958E+00 -0.70919711327E+01  0.39071841754E+01  0.81003658808E+01  0.51100000000E-03 0.  1.
        -12    1    4    4    0    0  0.12501197531E+02  0.12794356545E+02  0.20227494295E+02  0.27002352204E+02  0.00000000000E+00 0.  1.
</event>
<event>
 8    1  0.2514877E-006  0.9118800E+02  0.7816164E-02  0.1184000E+00
        -11   -1    0    0    0    0  0.00000000000E+00  0.00000000000E+00  0.45593999997E+02  0.45594000000E+02  0.51100000000E-03 0.  1.
         11   -1    0    0    0    0 -0.00000000000E+00 -0.00000000000E+00 -0.45593999997E+02  0.45594000000E+02  0.51100000000E-03 0. -1.
         23    2    1    2    0    0 -0.88817841970E-15 -0.88817841970E-15  0.00000000000E+00  0.91188000000E+02  0.91188000000E+02 0.  0.
    9900012    2    3    3    0    0  0.56606301713E+01 -0.23339069855E+01 -0.36308279195E+02  0.54367068536E+02  0.39999964342E+02 0.  0.
        -12    1    3    3    0    0 -0.56606301713E+01  0.23339069855E+01  0.36308279195E+02  0.36820931464E+02  0.00000000000E+00 0.  1.
         11    1    4    4    0    0  0.37303853764E+01 -0.11467734317E+02 -0.18987468390E+02  0.22493302593E+02  0.51100000000E-03 0. -1.
        -11    1    4    4    0    0 -0.42554354951E+01  0.31180698754E+01  0.54123978486E+01  0.75581176051E+01  0.51100000000E-03 0.  1.
        -12    1    4    4    0    0  0.61856802900E+01  0.60157574561E+01 -0.22733208653E+02  0.24315648338E+02  0.00000000000E+00 0.  1.
</event>
<event>
 8    1  0.2514877E-006  0.9118800E+02  0.7816164E-02  0.1184000E+00
        -11   -1    0    0    0    0  0.00000000000E+00  0.00000000000E+00  0.45593999997E+02  0.45594000000E+02  0.51100000000E-03 0. -1.
         11   -1    0    0    0    0 -0.00000000000E+00 -0.00000000000E+00 -0.45593999997E+02  0.45594000000E+02  0.51100000000E-03 0.  1.
         23    2    1    2    0    0  0.00000000000E+00  0.00000000000E+00  0.00000000000E+00  0.91188000000E+02  0.91188000000E+02 0.  0.
    9900012    2    3    3    0    0  0.23928177447E+02 -0.21607543150E+02  0.17785864185E+02  0.54367074404E+02  0.39999977719E+02 0.  0.
        -12    1    3    3    0    0 -0.23928177447E+02  0.21607543150E+02 -0.17785864185E+02  0.36820925596E+02  0.00000000000E+00 0.  1.
         11    1    4    4    0    0  0.22273032754E+02 -0.26125007493E+02  0.86997197656E+01  0.35415944557E+02  0.51100000000E-03 0. -1.
        -11    1    4    4    0    0  0.12007808094E+01 -0.59910201380E+01  0.31825849609E+01  0.68893427945E+01  0.51100000000E-03 0.  1.
        -12    1    4    4    0    0  0.45436388337E+00  0.10508484481E+02  0.59035594587E+01  0.12061787053E+02  0.00000000000E+00 0.  1.
</event>
<event>
 8    1  0.2514877E-006  0.9118800E+02  0.7816164E-02  0.1184000E+00
        -11   -1    0    0    0    0  0.00000000000E+00  0.00000000000E+00  0.45593999997E+02  0.45594000000E+02  0.51100000000E-03 0.  1.
         11   -1    0    0    0    0 -0.00000000000E+00 -0.00000000000E+00 -0.45593999997E+02  0.45594000000E+02  0.51100000000E-03 0. -1.
         23    2    1    2    0    0  0.35527136788E-14 -0.71054273576E-14 -0.35527136788E-14  0.91188000000E+02  0.91188000000E+02 0.  0.
    9900012    2    3    3    0    0  0.14252169324E+02 -0.26118977727E+02 -0.21689957068E+02  0.54367087932E+02  0.40000008558E+02 0.  0.
        -12    1    3    3    0    0 -0.14252169324E+02  0.26118977727E+02  0.21689957068E+02  0.36820912068E+02  0.00000000000E+00 0.  1.
         11    1    4    4    0    0  0.10505347660E+01  0.43452245368E+01 -0.89733286305E+00  0.45595839830E+01  0.51100000000E-03 0. -1.
        -11    1    4    4    0    0 -0.45242871053E+01  0.41145489384E+01 -0.98988790775E+00  0.61950435922E+01  0.51100000000E-03 0.  1.
         12    1    4    4    0    0  0.17725921664E+02 -0.34578751202E+02 -0.19802736297E+02  0.43612460357E+02  0.00000000000E+00 0. -1.
</event>
<event>
 8    1  0.2514877E-006  0.9118800E+02  0.7816164E-02  0.1184000E+00
        -11   -1    0    0    0    0  0.00000000000E+00  0.00000000000E+00  0.45593999997E+02  0.45594000000E+02  0.51100000000E-03 0.  1.
         11   -1    0    0    0    0 -0.00000000000E+00 -0.00000000000E+00 -0.45593999997E+02  0.45594000000E+02  0.51100000000E-03 0. -1.
         23    2    1    2    0    0  0.00000000000E+00  0.12490009027E-14  0.35527136788E-14  0.91188000000E+02  0.91188000000E+02 0.  0.
    9900012    2    3    3    0    0  0.27156139563E+02  0.21806446643E+00 -0.24864940091E+02  0.54367235291E+02  0.40000344490E+02 0.  0.
        -12    1    3    3    0    0 -0.27156139563E+02 -0.21806446643E+00  0.24864940091E+02  0.36820764709E+02  0.00000000000E+00 0.  1.
         11    1    4    4    0    0  0.14842517211E+02 -0.85962760147E+01 -0.43525602293E+01  0.17695792135E+02  0.51100000000E-03 0. -1.
        -11    1    4    4    0    0 -0.80627092348E+01 -0.15500999277E+00 -0.65818628978E+01  0.10409237617E+02  0.51100000000E-03 0.  1.
        -12    1    4    4    0    0  0.20376331587E+02  0.89693504739E+01 -0.13930516964E+02  0.26262205538E+02  0.00000000000E+00 0.  1.
</event>
<event>
 8    1  0.2514877E-006  0.9118800E+02  0.7816164E-02  0.1184000E+00
        -11   -1    0    0    0    0  0.00000000000E+00  0.00000000000E+00  0.45593999997E+02  0.45594000000E+02  0.51100000000E-03 0. -1.
         11   -1    0    0    0    0 -0.00000000000E+00 -0.00000000000E+00 -0.45593999997E+02  0.45594000000E+02  0.51100000000E-03 0.  1.
         23    2    1    2    0    0  0.71054273576E-14 -0.26645352591E-14  0.35527136788E-14  0.91188000000E+02  0.91188000000E+02 0.  0.
    9900012    2    3    3    0    0 -0.29800660287E+02  0.13061202337E+01  0.21586895133E+02  0.54367090925E+02  0.40000015382E+02 0.  0.
        -12    1    3    3    0    0  0.29800660287E+02 -0.13061202337E+01 -0.21586895133E+02  0.36820909075E+02  0.00000000000E+00 0.  1.
         11    1    4    4    0    0 -0.94906431201E+01 -0.21473760503E+00 -0.45535443097E+01  0.10528683921E+02  0.51100000000E-03 0. -1.
        -11    1    4    4    0    0 -0.10123138916E+01 -0.96378342512E+01  0.17356277869E+02  0.19878455931E+02  0.51100000000E-03 0.  1.
        -12    1    4    4    0    0 -0.19297703276E+02  0.11158692090E+02  0.87841615739E+01  0.23959951073E+02  0.00000000000E+00 0.  1.
</event>
<event>
 8    1  0.2514877E-006  0.9118800E+02  0.7816164E-02  0.1184000E+00
        -11   -1    0    0    0    0  0.00000000000E+00  0.00000000000E+00  0.45593999997E+02  0.45594000000E+02  0.51100000000E-03 0.  1.
         11   -1    0    0    0    0 -0.00000000000E+00 -0.00000000000E+00 -0.45593999997E+02  0.45594000000E+02  0.51100000000E-03 0. -1.
         23    2    1    2    0    0  0.00000000000E+00  0.00000000000E+00  0.00000000000E+00  0.91188000000E+02  0.91188000000E+02 0.  0.
    9900012    2    3    3    0    0  0.35152283744E+02 -0.74988616743E+01  0.79915034889E+01  0.54367080582E+02  0.39999991802E+02 0.  0.
         12    1    3    3    0    0 -0.35152283744E+02  0.74988616743E+01 -0.79915034889E+01  0.36820919418E+02  0.00000000000E+00 0. -1.
         11    1    4    4    0    0 -0.19329217058E+01 -0.18915500746E+00 -0.35172604411E+01  0.40178460908E+01  0.51100000000E-03 0. -1.
        -11    1    4    4    0    0  0.20723327263E+02  0.13445059398E+01 -0.90784723339E+01  0.22664568146E+02  0.51100000000E-03 0.  1.
        -12    1    4    4    0    0  0.16361878186E+02 -0.86542126066E+01  0.20587236264E+02  0.27684666345E+02  0.00000000000E+00 0.  1.
</event>
<event>
 8    1  0.2514877E-006  0.9118800E+02  0.7816164E-02  0.1184000E+00
        -11   -1    0    0    0    0  0.00000000000E+00  0.00000000000E+00  0.45593999997E+02  0.45594000000E+02  0.51100000000E-03 0. -1.
         11   -1    0    0    0    0 -0.00000000000E+00 -0.00000000000E+00 -0.45593999997E+02  0.45594000000E+02  0.51100000000E-03 0.  1.
         23    2    1    2    0    0  0.00000000000E+00  0.35527136788E-14 -0.17763568394E-14  0.91188000000E+02  0.91188000000E+02 0.  0.
    9900012    2    3    3    0    0 -0.28246567812E+02  0.18972746282E+02  0.14069318928E+02  0.54367089776E+02  0.40000012763E+02 0.  0.
        -12    1    3    3    0    0  0.28246567812E+02 -0.18972746282E+02 -0.14069318928E+02  0.36820910224E+02  0.00000000000E+00 0.  1.
         11    1    4    4    0    0 -0.95847491511E+00  0.55516545029E+01 -0.11071800243E+01  0.57415494207E+01  0.51100000000E-03 0. -1.
        -11    1    4    4    0    0 -0.52303194041E+01  0.18126407312E+02 -0.36870599748E+01  0.19222832638E+02  0.51100000000E-03 0.  1.
        -12    1    4    4    0    0 -0.22057773492E+02 -0.47053155334E+01  0.18863558927E+02  0.29402707717E+02  0.00000000000E+00 0.  1.
</event>
<event>
 8    1  0.2514877E-006  0.9118800E+02  0.7816164E-02  0.1184000E+00
        -11   -1    0    0    0    0  0.00000000000E+00  0.00000000000E+00  0.45593999997E+02  0.45594000000E+02  0.51100000000E-03 0. -1.
         11   -1    0    0    0    0 -0.00000000000E+00 -0.00000000000E+00 -0.45593999997E+02  0.45594000000E+02  0.51100000000E-03 0.  1.
         23    2    1    2    0    0  0.00000000000E+00  0.00000000000E+00 -0.35527136788E-14  0.91188000000E+02  0.91188000000E+02 0.  0.
    9900012    2    3    3    0    0  0.23028981872E+02  0.19050513377E+02 -0.21506378108E+02  0.54367077071E+02  0.39999983799E+02 0.  0.
         12    1    3    3    0    0 -0.23028981872E+02 -0.19050513377E+02  0.21506378108E+02  0.36820922929E+02  0.00000000000E+00 0. -1.
         11    1    4    4    0    0  0.96891120732E-01  0.13341230305E+02  0.30423691248E+01  0.13684071912E+02  0.51100000000E-03 0. -1.
        -11    1    4    4    0    0  0.44473826131E+01  0.81329566044E+01  0.70164803827E+00  0.92960478412E+01  0.51100000000E-03 0.  1.
         12    1    4    4    0    0  0.18484708138E+02 -0.24236735320E+01 -0.25250395271E+02  0.31386957318E+02  0.00000000000E+00 0. -1.
</event>
<event>
 8    1  0.2514877E-006  0.9118800E+02  0.7816164E-02  0.1184000E+00
        -11   -1    0    0    0    0  0.00000000000E+00  0.00000000000E+00  0.45593999997E+02  0.45594000000E+02  0.51100000000E-03 0.  1.
         11   -1    0    0    0    0 -0.00000000000E+00 -0.00000000000E+00 -0.45593999997E+02  0.45594000000E+02  0.51100000000E-03 0. -1.
         23    2    1    2    0    0  0.17763568394E-14  0.00000000000E+00  0.00000000000E+00  0.91188000000E+02  0.91188000000E+02 0.  0.
    9900012    2    3    3    0    0 -0.88460833883E+01  0.30415765039E+02 -0.18772560356E+02  0.54367068771E+02  0.39999964878E+02 0.  0.
        -12    1    3    3    0    0  0.88460833883E+01 -0.30415765039E+02  0.18772560356E+02  0.36820931229E+02  0.00000000000E+00 0.  1.
         11    1    4    4    0    0 -0.23207800938E+02  0.16136002469E+02 -0.14474800098E+02  0.31756769958E+02  0.51100000000E-03 0. -1.
        -11    1    4    4    0    0  0.24137154592E+01  0.85513224429E+01 -0.25578172378E+01  0.92462731478E+01  0.51100000000E-03 0.  1.
         12    1    4    4    0    0  0.11948002091E+02  0.57284401280E+01 -0.17399430199E+01  0.13364025665E+02  0.00000000000E+00 0. -1.
</event>
<event>
 8    1  0.2514877E-006  0.9118800E+02  0.7816164E-02  0.1184000E+00
        -11   -1    0    0    0    0  0.00000000000E+00  0.00000000000E+00  0.45593999997E+02  0.45594000000E+02  0.51100000000E-03 0.  1.
         11   -1    0    0    0    0 -0.00000000000E+00 -0.00000000000E+00 -0.45593999997E+02  0.45594000000E+02  0.51100000000E-03 0. -1.
         23    2    1    2    0    0  0.00000000000E+00  0.35527136788E-14  0.00000000000E+00  0.91188000000E+02  0.91188000000E+02 0.  0.
    9900012    2    3    3    0    0  0.17467672522E+02  0.31038060504E+02  0.93433851793E+01  0.54367087059E+02  0.40000006569E+02 0.  0.
        -12    1    3    3    0    0 -0.17467672522E+02 -0.31038060504E+02 -0.93433851793E+01  0.36820912941E+02  0.00000000000E+00 0.  1.
         11    1    4    4    0    0  0.16271910064E+01  0.17792660275E+01  0.15746210840E+02  0.15929742441E+02  0.51100000000E-03 0.  1.
        -11    1    4    4    0    0  0.61517715144E+00  0.27239632213E+01  0.50504449292E+01  0.57710841965E+01  0.51100000000E-03 0. -1.
         12    1    4    4    0    0  0.15225304364E+02  0.26534831255E+02 -0.11453270590E+02  0.32666260422E+02  0.00000000000E+00 0. -1.
</event>
<event>
 8    1  0.2514877E-006  0.9118800E+02  0.7816164E-02  0.1184000E+00
        -11   -1    0    0    0    0  0.00000000000E+00  0.00000000000E+00  0.45593999997E+02  0.45594000000E+02  0.51100000000E-03 0.  1.
         11   -1    0    0    0    0 -0.00000000000E+00 -0.00000000000E+00 -0.45593999997E+02  0.45594000000E+02  0.51100000000E-03 0. -1.
         23    2    1    2    0    0  0.00000000000E+00 -0.35527136788E-14  0.00000000000E+00  0.91188000000E+02  0.91188000000E+02 0.  0.
    9900012    2    3    3    0    0  0.27057759950E+02  0.22273420147E+02 -0.11293856784E+02  0.54367098061E+02  0.40000031649E+02 0.  0.
         12    1    3    3    0    0 -0.27057759950E+02 -0.22273420147E+02  0.11293856784E+02  0.36820901939E+02  0.00000000000E+00 0. -1.
         11    1    4    4    0    0  0.10837371850E+02 -0.33914854258E+01 -0.42566049967E+01  0.12127220966E+02  0.51100000000E-03 0. -1.
        -11    1    4    4    0    0  0.49718773330E+01  0.88347395283E+01 -0.16911213031E+02  0.19717031044E+02  0.51100000000E-03 0.  1.
        -12    1    4    4    0    0  0.11248510767E+02  0.16830166045E+02  0.98739612440E+01  0.22522846050E+02  0.00000000000E+00 0.  1.
</event>
<event>
 8    1  0.2514877E-006  0.9118800E+02  0.7816164E-02  0.1184000E+00
        -11   -1    0    0    0    0  0.00000000000E+00  0.00000000000E+00  0.45593999997E+02  0.45594000000E+02  0.51100000000E-03 0. -1.
         11   -1    0    0    0    0 -0.00000000000E+00 -0.00000000000E+00 -0.45593999997E+02  0.45594000000E+02  0.51100000000E-03 0.  1.
         23    2    1    2    0    0  0.00000000000E+00  0.00000000000E+00 -0.35527136788E-14  0.91188000000E+02  0.91188000000E+02 0.  0.
    9900012    2    3    3    0    0  0.29105013816E+02 -0.13801497848E+02  0.17838122944E+02  0.54367057559E+02  0.39999939317E+02 0.  0.
        -12    1    3    3    0    0 -0.29105013816E+02  0.13801497848E+02 -0.17838122944E+02  0.36820942441E+02  0.00000000000E+00 0.  1.
         11    1    4    4    0    0  0.87783117117E+01 -0.21064105491E+02  0.16577755640E+02  0.28205979490E+02  0.51100000000E-03 0. -1.
        -11    1    4    4    0    0  0.11755904568E+02 -0.32849723417E+01 -0.14834870674E+01  0.12296059110E+02  0.51100000000E-03 0.  1.
        -12    1    4    4    0    0  0.85707975363E+01  0.10547579984E+02  0.27438543713E+01  0.13865018959E+02  0.00000000000E+00 0.  1.
</event>
<event>
 8    1  0.2514877E-006  0.9118800E+02  0.7816164E-02  0.1184000E+00
        -11   -1    0    0    0    0  0.00000000000E+00  0.00000000000E+00  0.45593999997E+02  0.45594000000E+02  0.51100000000E-03 0. -1.
         11   -1    0    0    0    0 -0.00000000000E+00 -0.00000000000E+00 -0.45593999997E+02  0.45594000000E+02  0.51100000000E-03 0.  1.
         23    2    1    2    0    0  0.00000000000E+00  0.22204460493E-15 -0.35527136788E-14  0.91188000000E+02  0.91188000000E+02 0.  0.
    9900012    2    3    3    0    0 -0.23813446063E+02  0.11688256016E+01  0.28059452420E+02  0.54367092396E+02  0.40000018735E+02 0.  0.
        -12    1    3    3    0    0  0.23813446063E+02 -0.11688256016E+01 -0.28059452420E+02  0.36820907604E+02  0.00000000000E+00 0.  1.
         11    1    4    4    0    0 -0.21643253136E+02  0.84406549752E+00  0.11566748603E+02  0.24554684408E+02  0.51100000000E-03 0. -1.
        -11    1    4    4    0    0 -0.12377144091E+02 -0.37560455574E+01  0.48863356979E+01  0.13826707883E+02  0.51100000000E-03 0.  1.
        -12    1    4    4    0    0  0.10206951164E+02  0.40808056615E+01  0.11606368120E+02  0.15985700105E+02  0.00000000000E+00 0.  1.
</event>
<event>
 8    1  0.2514877E-006  0.9118800E+02  0.7816164E-02  0.1184000E+00
        -11   -1    0    0    0    0  0.00000000000E+00  0.00000000000E+00  0.45593999997E+02  0.45594000000E+02  0.51100000000E-03 0. -1.
         11   -1    0    0    0    0 -0.00000000000E+00 -0.00000000000E+00 -0.45593999997E+02  0.45594000000E+02  0.51100000000E-03 0.  1.
         23    2    1    2    0    0  0.17763568394E-14  0.00000000000E+00  0.00000000000E+00  0.91188000000E+02  0.91188000000E+02 0.  0.
    9900012    2    3    3    0    0 -0.23464706805E+01  0.23952959424E+02  0.27866184502E+02  0.54367157688E+02  0.40000167581E+02 0.  0.
         12    1    3    3    0    0  0.23464706805E+01 -0.23952959424E+02 -0.27866184502E+02  0.36820842312E+02  0.00000000000E+00 0. -1.
         11    1    4    4    0    0  0.40782902785E+01  0.11608449259E+02  0.24648046235E+02  0.27548407018E+02  0.51100000000E-03 0. -1.
        -11    1    4    4    0    0 -0.89812885541E+01  0.17974185644E+02  0.59390681453E+00  0.20101930734E+02  0.51100000000E-03 0.  1.
        -12    1    4    4    0    0  0.25565275951E+01 -0.56296754782E+01  0.26242314527E+01  0.67168199360E+01  0.00000000000E+00 0.  1.
</event>
<event>
 8    1  0.2514877E-006  0.9118800E+02  0.7816164E-02  0.1184000E+00
        -11   -1    0    0    0    0  0.00000000000E+00  0.00000000000E+00  0.45593999997E+02  0.45594000000E+02  0.51100000000E-03 0. -1.
         11   -1    0    0    0    0 -0.00000000000E+00 -0.00000000000E+00 -0.45593999997E+02  0.45594000000E+02  0.51100000000E-03 0.  1.
         23    2    1    2    0    0  0.00000000000E+00  0.17763568394E-14  0.00000000000E+00  0.91188000000E+02  0.91188000000E+02 0.  0.
    9900012    2    3    3    0    0 -0.33666747944E+02 -0.10896728763E+02  0.10177996936E+02  0.54367078821E+02  0.39999987788E+02 0.  0.
        -12    1    3    3    0    0  0.33666747944E+02  0.10896728763E+02 -0.10177996936E+02  0.36820921179E+02  0.00000000000E+00 0.  1.
         11    1    4    4    0    0 -0.20533416300E+02 -0.21198262186E+02  0.19082703600E+01  0.29574127218E+02  0.51100000000E-03 0. -1.
        -11    1    4    4    0    0 -0.11830877528E+02  0.13636395644E+02  0.28196659516E+01  0.18272149999E+02  0.51100000000E-03 0.  1.
        -12    1    4    4    0    0 -0.13024541161E+01 -0.33348622205E+01  0.54500606239E+01  0.65208016040E+01  0.00000000000E+00 0.  1.
</event>
<event>
 8    1  0.2514877E-006  0.9118800E+02  0.7816164E-02  0.1184000E+00
        -11   -1    0    0    0    0  0.00000000000E+00  0.00000000000E+00  0.45593999997E+02  0.45594000000E+02  0.51100000000E-03 0.  1.
         11   -1    0    0    0    0 -0.00000000000E+00 -0.00000000000E+00 -0.45593999997E+02  0.45594000000E+02  0.51100000000E-03 0. -1.
         23    2    1    2    0    0  0.00000000000E+00  0.17763568394E-14  0.17763568394E-14  0.91188000000E+02  0.91188000000E+02 0.  0.
    9900012    2    3    3    0    0  0.35030346171E+02 -0.95670968745E+01  0.60929951404E+01  0.54367094454E+02  0.40000023427E+02 0.  0.
        -12    1    3    3    0    0 -0.35030346171E+02  0.95670968745E+01 -0.60929951404E+01  0.36820905546E+02  0.00000000000E+00 0.  1.
         11    1    4    4    0    0  0.20912259725E+01  0.65460089663E+01 -0.44271554599E+01  0.81745437293E+01  0.51100000000E-03 0. -1.
        -11    1    4    4    0    0  0.15193040858E+02 -0.32504814534E+01  0.17297983739E+02  0.23251115283E+02  0.51100000000E-03 0.  1.
         12    1    4    4    0    0  0.17746079340E+02 -0.12862624387E+02 -0.67778331391E+01  0.22941435442E+02  0.00000000000E+00 0. -1.
</event>
<event>
 8    1  0.2514877E-006  0.9118800E+02  0.7816164E-02  0.1184000E+00
        -11   -1    0    0    0    0  0.00000000000E+00  0.00000000000E+00  0.45593999997E+02  0.45594000000E+02  0.51100000000E-03 0. -1.
         11   -1    0    0    0    0 -0.00000000000E+00 -0.00000000000E+00 -0.45593999997E+02  0.45594000000E+02  0.51100000000E-03 0.  1.
         23    2    1    2    0    0  0.35527136788E-14 -0.35527136788E-14 -0.17763568394E-14  0.91188000000E+02  0.91188000000E+02 0.  0.
    9900012    2    3    3    0    0  0.18269476515E+02 -0.27841922697E+02 -0.15710923225E+02  0.54367088276E+02  0.40000009343E+02 0.  0.
         12    1    3    3    0    0 -0.18269476515E+02  0.27841922697E+02  0.15710923225E+02  0.36820911724E+02  0.00000000000E+00 0. -1.
         11    1    4    4    0    0  0.61692845109E+01 -0.98748602141E+01  0.60222439614E+01  0.13108789350E+02  0.51100000000E-03 0. -1.
        -11    1    4    4    0    0  0.18027188477E+02 -0.29205350833E+01 -0.75981969185E+01  0.19779829277E+02  0.51100000000E-03 0.  1.
        -12    1    4    4    0    0 -0.59269964732E+01 -0.15046527400E+02 -0.14134970268E+02  0.21478469649E+02  0.00000000000E+00 0.  1.
</event>
<event>
 8    1  0.2514877E-006  0.9118800E+02  0.7816164E-02  0.1184000E+00
        -11   -1    0    0    0    0  0.00000000000E+00  0.00000000000E+00  0.45593999997E+02  0.45594000000E+02  0.51100000000E-03 0.  1.
         11   -1    0    0    0    0 -0.00000000000E+00 -0.00000000000E+00 -0.45593999997E+02  0.45594000000E+02  0.51100000000E-03 0. -1.
         23    2    1    2    0    0  0.17763568394E-14 -0.35527136788E-14 -0.35527136788E-14  0.91188000000E+02  0.91188000000E+02 0.  0.
    9900012    2    3    3    0    0  0.10710608126E+02 -0.30637637244E+02 -0.17389578059E+02  0.54367090622E+02  0.40000014692E+02 0.  0.
        -12    1    3    3    0    0 -0.10710608126E+02  0.30637637244E+02  0.17389578059E+02  0.36820909378E+02  0.00000000000E+00 0.  1.
         11    1    4    4    0    0  0.12155265457E+01 -0.10165657093E+02  0.92326347538E+01  0.13786211723E+02  0.51100000000E-03 0. -1.
        -11    1    4    4    0    0 -0.50581324184E+01  0.50728359104E+00 -0.48411958284E+01  0.70199157768E+01  0.51100000000E-03 0.  1.
         12    1    4    4    0    0  0.14553213999E+02 -0.20979263743E+02 -0.21781016984E+02  0.33560963123E+02  0.00000000000E+00 0. -1.
</event>
<event>
 8    1  0.2514877E-006  0.9118800E+02  0.7816164E-02  0.1184000E+00
        -11   -1    0    0    0    0  0.00000000000E+00  0.00000000000E+00  0.45593999997E+02  0.45594000000E+02  0.51100000000E-03 0.  1.
         11   -1    0    0    0    0 -0.00000000000E+00 -0.00000000000E+00 -0.45593999997E+02  0.45594000000E+02  0.51100000000E-03 0. -1.
         23    2    1    2    0    0 -0.35527136788E-14  0.00000000000E+00  0.00000000000E+00  0.91188000000E+02  0.91188000000E+02 0.  0.
    9900012    2    3    3    0    0 -0.22433138877E+02  0.19109715156E+02  0.22076076735E+02  0.54367080712E+02  0.39999992099E+02 0.  0.
         12    1    3    3    0    0  0.22433138877E+02 -0.19109715156E+02 -0.22076076735E+02  0.36820919288E+02  0.00000000000E+00 0. -1.
         11    1    4    4    0    0 -0.63071413746E+01  0.10038485498E+02 -0.53505932088E+01  0.13006923977E+02  0.51100000000E-03 0. -1.
        -11    1    4    4    0    0 -0.74105973993E+01  0.10608556314E+01  0.28506980289E+02  0.29473552448E+02  0.51100000000E-03 0.  1.
        -12    1    4    4    0    0 -0.87154001034E+01  0.80103740270E+01 -0.10803103451E+01  0.11886604286E+02  0.00000000000E+00 0.  1.
</event>
<event>
 8    1  0.2514877E-006  0.9118800E+02  0.7816164E-02  0.1184000E+00
        -11   -1    0    0    0    0  0.00000000000E+00  0.00000000000E+00  0.45593999997E+02  0.45594000000E+02  0.51100000000E-03 0. -1.
         11   -1    0    0    0    0 -0.00000000000E+00 -0.00000000000E+00 -0.45593999997E+02  0.45594000000E+02  0.51100000000E-03 0.  1.
         23    2    1    2    0    0 -0.27755575616E-15  0.00000000000E+00  0.00000000000E+00  0.91188000000E+02  0.91188000000E+02 0.  0.
    9900012    2    3    3    0    0  0.34876015603E+00  0.16930154132E+02 -0.32695989536E+02  0.54367089035E+02  0.40000011073E+02 0.  0.
         12    1    3    3    0    0 -0.34876015603E+00 -0.16930154132E+02  0.32695989536E+02  0.36820910965E+02  0.00000000000E+00 0. -1.
         11    1    4    4    0    0 -0.40872891638E+01  0.14139433584E+01  0.59946874671E+01  0.73919852961E+01  0.51100000000E-03 0. -1.
        -11    1    4    4    0    0 -0.82683197472E+01  0.87485700246E+01 -0.20564848645E+02  0.23828881404E+02  0.51100000000E-03 0.  1.
         12    1    4    4    0    0  0.12704369067E+02  0.67676407489E+01 -0.18125828358E+02  0.23146222334E+02  0.00000000000E+00 0. -1.
</event>
<event>
 8    1  0.2514877E-006  0.9118800E+02  0.7816164E-02  0.1184000E+00
        -11   -1    0    0    0    0  0.00000000000E+00  0.00000000000E+00  0.45593999997E+02  0.45594000000E+02  0.51100000000E-03 0. -1.
         11   -1    0    0    0    0 -0.00000000000E+00 -0.00000000000E+00 -0.45593999997E+02  0.45594000000E+02  0.51100000000E-03 0.  1.
         23    2    1    2    0    0  0.00000000000E+00  0.00000000000E+00  0.00000000000E+00  0.91188000000E+02  0.91188000000E+02 0.  0.
    9900012    2    3    3    0    0 -0.26112355749E+02 -0.14218316376E+02 -0.21720113066E+02  0.54367096223E+02  0.40000027461E+02 0.  0.
         12    1    3    3    0    0  0.26112355749E+02  0.14218316376E+02  0.21720113066E+02  0.36820903777E+02  0.00000000000E+00 0. -1.
         11    1    4    4    0    0 -0.23378362694E+02 -0.66393936623E+01 -0.13253187961E+02  0.27681697597E+02  0.51100000000E-03 0.  1.
        -11    1    4    4    0    0  0.26780353296E+01  0.51883190042E+01 -0.11126771269E+02  0.12565650260E+02  0.51100000000E-03 0. -1.
        -12    1    4    4    0    0 -0.54120283845E+01 -0.12767241718E+02  0.26598461642E+01  0.14119748367E+02  0.00000000000E+00 0.  1.
</event>
<event>
 8    1  0.2514877E-006  0.9118800E+02  0.7816164E-02  0.1184000E+00
        -11   -1    0    0    0    0  0.00000000000E+00  0.00000000000E+00  0.45593999997E+02  0.45594000000E+02  0.51100000000E-03 0.  1.
         11   -1    0    0    0    0 -0.00000000000E+00 -0.00000000000E+00 -0.45593999997E+02  0.45594000000E+02  0.51100000000E-03 0. -1.
         23    2    1    2    0    0  0.35527136788E-14  0.00000000000E+00 -0.17763568394E-14  0.91188000000E+02  0.91188000000E+02 0.  0.
    9900012    2    3    3    0    0  0.17523094467E+02  0.29689521692E+02 -0.12932628365E+02  0.54367089984E+02  0.40000013236E+02 0.  0.
        -12    1    3    3    0    0 -0.17523094467E+02 -0.29689521692E+02  0.12932628365E+02  0.36820910016E+02  0.00000000000E+00 0.  1.
         11    1    4    4    0    0  0.73862597501E+01  0.12191337935E+02 -0.23903862393E+00  0.14256321176E+02  0.51100000000E-03 0. -1.
        -11    1    4    4    0    0  0.10423946020E+02 -0.62425274053E+01  0.18168424907E+01  0.12285304877E+02  0.51100000000E-03 0.  1.
         12    1    4    4    0    0 -0.28711130324E+00  0.23740711162E+02 -0.14510432232E+02  0.27825463930E+02  0.00000000000E+00 0. -1.
</event>
<event>
 8    1  0.2514877E-006  0.9118800E+02  0.7816164E-02  0.1184000E+00
        -11   -1    0    0    0    0  0.00000000000E+00  0.00000000000E+00  0.45593999997E+02  0.45594000000E+02  0.51100000000E-03 0.  1.
         11   -1    0    0    0    0 -0.00000000000E+00 -0.00000000000E+00 -0.45593999997E+02  0.45594000000E+02  0.51100000000E-03 0. -1.
         23    2    1    2    0    0  0.35527136788E-14  0.35527136788E-14  0.71054273576E-14  0.91188000000E+02  0.91188000000E+02 0.  0.
    9900012    2    3    3    0    0 -0.17028729582E+02 -0.17282572770E+02 -0.27696837715E+02  0.54367085126E+02  0.40000002162E+02 0.  0.
         12    1    3    3    0    0  0.17028729582E+02  0.17282572770E+02  0.27696837715E+02  0.36820914874E+02  0.00000000000E+00 0. -1.
         11    1    4    4    0    0 -0.62446190936E+01 -0.20054685240E+02 -0.30508340376E+02  0.37039769174E+02  0.51100000000E-03 0. -1.
        -11    1    4    4    0    0 -0.67422428282E+01  0.10022372617E+01 -0.49329704129E+01  0.84140665103E+01  0.51100000000E-03 0.  1.
        -12    1    4    4    0    0 -0.40418676604E+01  0.17698752085E+01  0.77444730733E+01  0.89132494423E+01  0.00000000000E+00 0.  1.
</event>
<event>
 8    1  0.2514877E-006  0.9118800E+02  0.7816164E-02  0.1184000E+00
        -11   -1    0    0    0    0  0.00000000000E+00  0.00000000000E+00  0.45593999997E+02  0.45594000000E+02  0.51100000000E-03 0.  1.
         11   -1    0    0    0    0 -0.00000000000E+00 -0.00000000000E+00 -0.45593999997E+02  0.45594000000E+02  0.51100000000E-03 0. -1.
         23    2    1    2    0    0  0.00000000000E+00  0.17763568394E-14  0.00000000000E+00  0.91188000000E+02  0.91188000000E+02 0.  0.
    9900012    2    3    3    0    0  0.28558794395E+02  0.10426636900E+02  0.20771628204E+02  0.54367081590E+02  0.39999994101E+02 0.  0.
         12    1    3    3    0    0 -0.28558794395E+02 -0.10426636900E+02 -0.20771628204E+02  0.36820918410E+02  0.00000000000E+00 0. -1.
         11    1    4    4    0    0  0.96209796937E+01  0.15759928978E+02  0.19412984228E+02  0.26791837723E+02  0.51100000000E-03 0. -1.
        -11    1    4    4    0    0  0.22759165039E+02 -0.28305974681E+01  0.16802686947E+01  0.22995981789E+02  0.51100000000E-03 0.  1.
        -12    1    4    4    0    0 -0.38213503380E+01 -0.25026946107E+01 -0.32162471843E+00  0.45792620781E+01  0.00000000000E+00 0.  1.
</event>
<event>
 8    1  0.2514877E-006  0.9118800E+02  0.7816164E-02  0.1184000E+00
        -11   -1    0    0    0    0  0.00000000000E+00  0.00000000000E+00  0.45593999997E+02  0.45594000000E+02  0.51100000000E-03 0.  1.
         11   -1    0    0    0    0 -0.00000000000E+00 -0.00000000000E+00 -0.45593999997E+02  0.45594000000E+02  0.51100000000E-03 0. -1.
         23    2    1    2    0    0  0.35527136788E-14  0.00000000000E+00  0.00000000000E+00  0.91188000000E+02  0.91188000000E+02 0.  0.
    9900012    2    3    3    0    0 -0.27628155302E+02  0.19219669242E+02 -0.14935494385E+02  0.54367086871E+02  0.40000006139E+02 0.  0.
         12    1    3    3    0    0  0.27628155302E+02 -0.19219669242E+02  0.14935494385E+02  0.36820913129E+02  0.00000000000E+00 0. -1.
         11    1    4    4    0    0 -0.77506586185E+01 -0.19474086850E+01 -0.13645684765E+02  0.15813596130E+02  0.51100000000E-03 0. -1.
        -11    1    4    4    0    0 -0.32835299750E+01 -0.25077030104E+01  0.73044664748E+01  0.83919827352E+01  0.51100000000E-03 0.  1.
        -12    1    4    4    0    0 -0.16593966708E+02  0.23674780938E+02 -0.85942760946E+01  0.30161508005E+02  0.00000000000E+00 0.  1.
</event>
<event>
 8    1  0.2514877E-006  0.9118800E+02  0.7816164E-02  0.1184000E+00
        -11   -1    0    0    0    0  0.00000000000E+00  0.00000000000E+00  0.45593999997E+02  0.45594000000E+02  0.51100000000E-03 0. -1.
         11   -1    0    0    0    0 -0.00000000000E+00 -0.00000000000E+00 -0.45593999997E+02  0.45594000000E+02  0.51100000000E-03 0.  1.
         23    2    1    2    0    0  0.00000000000E+00  0.00000000000E+00  0.88817841970E-15  0.91188000000E+02  0.91188000000E+02 0.  0.
    9900012    2    3    3    0    0  0.34075965331E+02 -0.13916755419E+02  0.96931189100E+00  0.54366986160E+02  0.39999776548E+02 0.  0.
         12    1    3    3    0    0 -0.34075965331E+02  0.13916755419E+02 -0.96931189100E+00  0.36821013840E+02  0.00000000000E+00 0. -1.
         11    1    4    4    0    0 -0.96758562048E+00  0.42162060507E+01 -0.48455003886E+01  0.64954976462E+01  0.51100000000E-03 0. -1.
        -11    1    4    4    0    0  0.10098733011E+02  0.65051566332E+01 -0.13423828170E+01  0.12087326550E+02  0.51100000000E-03 0.  1.
         12    1    4    4    0    0  0.24944817941E+02 -0.24638118103E+02  0.71571950966E+01  0.35784161963E+02  0.00000000000E+00 0. -1.
</event>
<event>
 8    1  0.2514877E-006  0.9118800E+02  0.7816164E-02  0.1184000E+00
        -11   -1    0    0    0    0  0.00000000000E+00  0.00000000000E+00  0.45593999997E+02  0.45594000000E+02  0.51100000000E-03 0. -1.
         11   -1    0    0    0    0 -0.00000000000E+00 -0.00000000000E+00 -0.45593999997E+02  0.45594000000E+02  0.51100000000E-03 0.  1.
         23    2    1    2    0    0  0.13322676296E-14  0.00000000000E+00  0.00000000000E+00  0.91188000000E+02  0.91188000000E+02 0.  0.
    9900012    2    3    3    0    0 -0.35914497901E+01 -0.81321654390E+01  0.35731629302E+02  0.54367082590E+02  0.39999996381E+02 0.  0.
        -12    1    3    3    0    0  0.35914497901E+01  0.81321654390E+01 -0.35731629302E+02  0.36820917410E+02  0.00000000000E+00 0.  1.
         11    1    4    4    0    0  0.73857783430E+01  0.79374691924E+01  0.19609654603E+02  0.22407402635E+02  0.51100000000E-03 0. -1.
        -11    1    4    4    0    0  0.45159181127E+01 -0.31350855716E+01  0.90212608144E+01  0.10564346875E+02  0.51100000000E-03 0.  1.
        -12    1    4    4    0    0 -0.15493146246E+02 -0.12934549060E+02  0.71007138846E+01  0.21395333081E+02  0.00000000000E+00 0.  1.
</event>
<event>
 8    1  0.2514877E-006  0.9118800E+02  0.7816164E-02  0.1184000E+00
        -11   -1    0    0    0    0  0.00000000000E+00  0.00000000000E+00  0.45593999997E+02  0.45594000000E+02  0.51100000000E-03 0.  1.
         11   -1    0    0    0    0 -0.00000000000E+00 -0.00000000000E+00 -0.45593999997E+02  0.45594000000E+02  0.51100000000E-03 0. -1.
         23    2    1    2    0    0 -0.17763568394E-14  0.35527136788E-14  0.00000000000E+00  0.91188000000E+02  0.91188000000E+02 0.  0.
    9900012    2    3    3    0    0  0.85025732878E+01  0.20977905579E+02 -0.29041561650E+02  0.54367101341E+02  0.40000039127E+02 0.  0.
        -12    1    3    3    0    0 -0.85025732878E+01 -0.20977905579E+02  0.29041561650E+02  0.36820898659E+02  0.00000000000E+00 0.  1.
         11    1    4    4    0    0  0.55248309276E+01  0.75992668029E+01 -0.30568871398E+02  0.31980126822E+02  0.51100000000E-03 0. -1.
        -11    1    4    4    0    0 -0.55924405693E+01  0.50773290347E+01  0.59981990212E+01  0.96453643481E+01  0.51100000000E-03 0.  1.
         12    1    4    4    0    0  0.85701829295E+01  0.83013097410E+01 -0.44708892728E+01  0.12741610171E+02  0.00000000000E+00 0. -1.
</event>
<event>
 8    1  0.2514877E-006  0.9118800E+02  0.7816164E-02  0.1184000E+00
        -11   -1    0    0    0    0  0.00000000000E+00  0.00000000000E+00  0.45593999997E+02  0.45594000000E+02  0.51100000000E-03 0. -1.
         11   -1    0    0    0    0 -0.00000000000E+00 -0.00000000000E+00 -0.45593999997E+02  0.45594000000E+02  0.51100000000E-03 0.  1.
         23    2    1    2    0    0 -0.71054273576E-14  0.35527136788E-14  0.00000000000E+00  0.91188000000E+02  0.91188000000E+02 0.  0.
    9900012    2    3    3    0    0 -0.31364192010E+02  0.15561378543E+02 -0.11397835635E+02  0.54367086109E+02  0.40000004403E+02 0.  0.
        -12    1    3    3    0    0  0.31364192010E+02 -0.15561378543E+02  0.11397835635E+02  0.36820913891E+02  0.00000000000E+00 0.  1.
         11    1    4    4    0    0  0.41803034877E+01  0.38849561372E+01 -0.88000037587E+01  0.10488464514E+02  0.51100000000E-03 0. -1.
        -11    1    4    4    0    0  0.20252380360E+01  0.42841782652E+01 -0.29592190134E+01  0.55868372037E+01  0.51100000000E-03 0.  1.
         12    1    4    4    0    0 -0.37569733534E+02  0.73922441405E+01  0.36138713731E+00  0.38291784392E+02  0.00000000000E+00 0. -1.
</event>
<event>
 8    1  0.2514877E-006  0.9118800E+02  0.7816164E-02  0.1184000E+00
        -11   -1    0    0    0    0  0.00000000000E+00  0.00000000000E+00  0.45593999997E+02  0.45594000000E+02  0.51100000000E-03 0.  1.
         11   -1    0    0    0    0 -0.00000000000E+00 -0.00000000000E+00 -0.45593999997E+02  0.45594000000E+02  0.51100000000E-03 0. -1.
         23    2    1    2    0    0  0.00000000000E+00  0.00000000000E+00  0.00000000000E+00  0.91188000000E+02  0.91188000000E+02 0.  0.
    9900012    2    3    3    0    0  0.30131409581E+02 -0.19020016279E+02 -0.92794509997E+01  0.54367203248E+02  0.40000271444E+02 0.  0.
        -12    1    3    3    0    0 -0.30131409581E+02  0.19020016279E+02  0.92794509997E+01  0.36820796752E+02  0.00000000000E+00 0.  1.
         11    1    4    4    0    0  0.12005505302E+02 -0.33253587308E+01 -0.18073677880E+02  0.21951036437E+02  0.51100000000E-03 0. -1.
        -11    1    4    4    0    0  0.48711272158E+01  0.47395164259E+01  0.11873471995E+01  0.68993253248E+01  0.51100000000E-03 0.  1.
         12    1    4    4    0    0  0.13254777063E+02 -0.20434173974E+02  0.76068796812E+01  0.25516841487E+02  0.00000000000E+00 0. -1.
</event>
<event>
 8    1  0.2514877E-006  0.9118800E+02  0.7816164E-02  0.1184000E+00
        -11   -1    0    0    0    0  0.00000000000E+00  0.00000000000E+00  0.45593999997E+02  0.45594000000E+02  0.51100000000E-03 0.  1.
         11   -1    0    0    0    0 -0.00000000000E+00 -0.00000000000E+00 -0.45593999997E+02  0.45594000000E+02  0.51100000000E-03 0. -1.
         23    2    1    2    0    0  0.35527136788E-14  0.00000000000E+00  0.00000000000E+00  0.91188000000E+02  0.91188000000E+02 0.  0.
    9900012    2    3    3    0    0 -0.17604669938E+02 -0.21888504263E+02 -0.23806464571E+02  0.54367098628E+02  0.40000032941E+02 0.  0.
        -12    1    3    3    0    0  0.17604669938E+02  0.21888504263E+02  0.23806464571E+02  0.36820901372E+02  0.00000000000E+00 0.  1.
         11    1    4    4    0    0  0.71848277190E+01 -0.80554376776E+01 -0.43352293557E+01  0.11632112420E+02  0.51100000000E-03 0. -1.
        -11    1    4    4    0    0 -0.20412091048E+01  0.69335153787E+01 -0.41281051066E+01  0.83235462483E+01  0.51100000000E-03 0.  1.
         12    1    4    4    0    0 -0.22748288552E+02 -0.20766581964E+02 -0.15343130109E+02  0.34411439959E+02  0.00000000000E+00 0. -1.
</event>
<event>
 8    1  0.2514877E-006  0.9118800E+02  0.7816164E-02  0.1184000E+00
        -11   -1    0    0    0    0  0.00000000000E+00  0.00000000000E+00  0.45593999997E+02  0.45594000000E+02  0.51100000000E-03 0.  1.
         11   -1    0    0    0    0 -0.00000000000E+00 -0.00000000000E+00 -0.45593999997E+02  0.45594000000E+02  0.51100000000E-03 0. -1.
         23    2    1    2    0    0 -0.11102230246E-15  0.17763568394E-14  0.00000000000E+00  0.91188000000E+02  0.91188000000E+02 0.  0.
    9900012    2    3    3    0    0  0.99356110298E+00  0.84933566719E+01  0.35814193858E+02  0.54367071808E+02  0.39999971801E+02 0.  0.
         12    1    3    3    0    0 -0.99356110298E+00 -0.84933566719E+01 -0.35814193858E+02  0.36820928192E+02  0.00000000000E+00 0. -1.
         11    1    4    4    0    0 -0.87964488883E+01  0.51227986988E+01  0.92178872897E+01  0.13732808376E+02  0.51100000000E-03 0. -1.
        -11    1    4    4    0    0  0.63478884942E+01  0.15803358645E+02  0.19575986752E+02  0.25947275201E+02  0.51100000000E-03 0.  1.
         12    1    4    4    0    0  0.34421214971E+01 -0.12432800672E+02  0.70203198163E+01  0.14686988230E+02  0.00000000000E+00 0. -1.
</event>
<event>
 8    1  0.2514877E-006  0.9118800E+02  0.7816164E-02  0.1184000E+00
        -11   -1    0    0    0    0  0.00000000000E+00  0.00000000000E+00  0.45593999997E+02  0.45594000000E+02  0.51100000000E-03 0.  1.
         11   -1    0    0    0    0 -0.00000000000E+00 -0.00000000000E+00 -0.45593999997E+02  0.45594000000E+02  0.51100000000E-03 0. -1.
         23    2    1    2    0    0 -0.35527136788E-14 -0.17763568394E-14  0.35527136788E-14  0.91188000000E+02  0.91188000000E+02 0.  0.
    9900012    2    3    3    0    0 -0.22868908680E+02 -0.12704091054E+02  0.25911309728E+02  0.54367124324E+02  0.40000091522E+02 0.  0.
         12    1    3    3    0    0  0.22868908680E+02  0.12704091054E+02 -0.25911309728E+02  0.36820875676E+02  0.00000000000E+00 0. -1.
         11    1    4    4    0    0  0.19082626127E+01  0.66588300105E+01  0.16981925063E+02  0.18340317948E+02  0.51100000000E-03 0. -1.
        -11    1    4    4    0    0 -0.60494421736E+01  0.21026123528E+01  0.12834234767E+01  0.65317612785E+01  0.51100000000E-03 0.  1.
        -12    1    4    4    0    0 -0.18727729119E+02 -0.21465533417E+02  0.76459611880E+01  0.29495045098E+02  0.00000000000E+00 0.  1.
</event>
<event>
 8    1  0.2514877E-006  0.9118800E+02  0.7816164E-02  0.1184000E+00
        -11   -1    0    0    0    0  0.00000000000E+00  0.00000000000E+00  0.45593999997E+02  0.45594000000E+02  0.51100000000E-03 0.  1.
         11   -1    0    0    0    0 -0.00000000000E+00 -0.00000000000E+00 -0.45593999997E+02  0.45594000000E+02  0.51100000000E-03 0. -1.
         23    2    1    2    0    0  0.00000000000E+00  0.00000000000E+00  0.00000000000E+00  0.91188000000E+02  0.91188000000E+02 0.  0.
    9900012    2    3    3    0    0  0.65841767742E+01  0.33399176781E+01  0.36073145288E+02  0.54367105865E+02  0.40000049441E+02 0.  0.
         12    1    3    3    0    0 -0.65841767742E+01 -0.33399176781E+01 -0.36073145288E+02  0.36820894135E+02  0.00000000000E+00 0. -1.
         11    1    4    4    0    0  0.12126281482E+02  0.19488565556E+01  0.63597109294E+01  0.13830786956E+02  0.51100000000E-03 0. -1.
        -11    1    4    4    0    0  0.11099682054E+01 -0.16337569534E+00  0.32955610193E+02  0.32974701887E+02  0.51100000000E-03 0.  1.
         12    1    4    4    0    0 -0.66520729129E+01  0.15544368178E+01 -0.32421758344E+01  0.75616170229E+01  0.00000000000E+00 0. -1.
</event>
<event>
 8    1  0.2514877E-006  0.9118800E+02  0.7816164E-02  0.1184000E+00
        -11   -1    0    0    0    0  0.00000000000E+00  0.00000000000E+00  0.45593999997E+02  0.45594000000E+02  0.51100000000E-03 0. -1.
         11   -1    0    0    0    0 -0.00000000000E+00 -0.00000000000E+00 -0.45593999997E+02  0.45594000000E+02  0.51100000000E-03 0.  1.
         23    2    1    2    0    0  0.35527136788E-14  0.00000000000E+00  0.35527136788E-14  0.91188000000E+02  0.91188000000E+02 0.  0.
    9900012    2    3    3    0    0  0.22330376652E+02 -0.16447567024E+02  0.24220086605E+02  0.54367071473E+02  0.39999971037E+02 0.  0.
        -12    1    3    3    0    0 -0.22330376652E+02  0.16447567024E+02 -0.24220086605E+02  0.36820928527E+02  0.00000000000E+00 0.  1.
         11    1    4    4    0    0  0.14783515654E+02  0.61943974565E+01 -0.14505987493E+01  0.16094319866E+02  0.51100000000E-03 0. -1.
        -11    1    4    4    0    0  0.53903086809E+01 -0.23502224261E+02  0.17540216442E+02  0.29817262886E+02  0.51100000000E-03 0.  1.
         12    1    4    4    0    0  0.21565523167E+01  0.86025978080E+00  0.81304689129E+01  0.84554887220E+01  0.00000000000E+00 0. -1.
</event>
<event>
 8    1  0.2514877E-006  0.9118800E+02  0.7816164E-02  0.1184000E+00
        -11   -1    0    0    0    0  0.00000000000E+00  0.00000000000E+00  0.45593999997E+02  0.45594000000E+02  0.51100000000E-03 0. -1.
         11   -1    0    0    0    0 -0.00000000000E+00 -0.00000000000E+00 -0.45593999997E+02  0.45594000000E+02  0.51100000000E-03 0.  1.
         23    2    1    2    0    0 -0.35527136788E-14  0.17763568394E-14 -0.35527136788E-14  0.91188000000E+02  0.91188000000E+02 0.  0.
    9900012    2    3    3    0    0  0.26769683677E+02 -0.13814955206E+02 -0.21173325245E+02  0.54367100317E+02  0.40000036793E+02 0.  0.
         12    1    3    3    0    0 -0.26769683677E+02  0.13814955206E+02  0.21173325245E+02  0.36820899683E+02  0.00000000000E+00 0. -1.
         11    1    4    4    0    0  0.64544635104E+01  0.14595940467E+01  0.69146519216E+01  0.95709417220E+01  0.51100000000E-03 0. -1.
        -11    1    4    4    0    0  0.68935861279E+01  0.57902887077E+01 -0.32503231974E+01  0.95714980107E+01  0.51100000000E-03 0.  1.
         12    1    4    4    0    0  0.13421634039E+02 -0.21064837961E+02 -0.24837653969E+02  0.35224660584E+02  0.00000000000E+00 0. -1.
</event>
<event>
 8    1  0.2514877E-006  0.9118800E+02  0.7816164E-02  0.1184000E+00
        -11   -1    0    0    0    0  0.00000000000E+00  0.00000000000E+00  0.45593999997E+02  0.45594000000E+02  0.51100000000E-03 0.  1.
         11   -1    0    0    0    0 -0.00000000000E+00 -0.00000000000E+00 -0.45593999997E+02  0.45594000000E+02  0.51100000000E-03 0. -1.
         23    2    1    2    0    0  0.00000000000E+00  0.00000000000E+00 -0.35527136788E-14  0.91188000000E+02  0.91188000000E+02 0.  0.
    9900012    2    3    3    0    0  0.17754068907E+02  0.17349281024E+02  0.27195173592E+02  0.54367055125E+02  0.39999933768E+02 0.  0.
         12    1    3    3    0    0 -0.17754068907E+02 -0.17349281024E+02 -0.27195173592E+02  0.36820944875E+02  0.00000000000E+00 0. -1.
         11    1    4    4    0    0  0.32713585805E+01 -0.98515984339E+00  0.11326537641E+02  0.11830586717E+02  0.51100000000E-03 0. -1.
        -11    1    4    4    0    0  0.20684388684E+02  0.15491170433E+02  0.21557592671E+02  0.33653381682E+02  0.51100000000E-03 0.  1.
         12    1    4    4    0    0 -0.62016783573E+01  0.28432704343E+01 -0.56889567198E+01  0.88830867253E+01  0.00000000000E+00 0. -1.
</event>
<event>
 8    1  0.2514877E-006  0.9118800E+02  0.7816164E-02  0.1184000E+00
        -11   -1    0    0    0    0  0.00000000000E+00  0.00000000000E+00  0.45593999997E+02  0.45594000000E+02  0.51100000000E-03 0. -1.
         11   -1    0    0    0    0 -0.00000000000E+00 -0.00000000000E+00 -0.45593999997E+02  0.45594000000E+02  0.51100000000E-03 0.  1.
         23    2    1    2    0    0 -0.35527136788E-14  0.00000000000E+00  0.00000000000E+00  0.91188000000E+02  0.91188000000E+02 0.  0.
    9900012    2    3    3    0    0 -0.26671942166E+02  0.23639229670E+02  0.92504985408E+01  0.54367117317E+02  0.40000075547E+02 0.  0.
        -12    1    3    3    0    0  0.26671942166E+02 -0.23639229670E+02 -0.92504985408E+01  0.36820882683E+02  0.00000000000E+00 0.  1.
         11    1    4    4    0    0 -0.35091613726E+02  0.12557786139E+02  0.89356513709E+00  0.37281601435E+02  0.51100000000E-03 0. -1.
        -11    1    4    4    0    0  0.28480401905E+01  0.59692071351E+00  0.82355062398E+00  0.30242161226E+01  0.51100000000E-03 0.  1.
         12    1    4    4    0    0  0.55716313694E+01  0.10484522817E+02  0.75333827797E+01  0.14061299760E+02  0.00000000000E+00 0. -1.
</event>
<event>
 8    1  0.2514877E-006  0.9118800E+02  0.7816164E-02  0.1184000E+00
        -11   -1    0    0    0    0  0.00000000000E+00  0.00000000000E+00  0.45593999997E+02  0.45594000000E+02  0.51100000000E-03 0.  1.
         11   -1    0    0    0    0 -0.00000000000E+00 -0.00000000000E+00 -0.45593999997E+02  0.45594000000E+02  0.51100000000E-03 0. -1.
         23    2    1    2    0    0  0.00000000000E+00  0.35527136788E-14  0.35527136788E-14  0.91188000000E+02  0.91188000000E+02 0.  0.
    9900012    2    3    3    0    0  0.16320025833E+02  0.25067926479E+02 -0.21471783377E+02  0.54367059456E+02  0.39999943643E+02 0.  0.
        -12    1    3    3    0    0 -0.16320025833E+02 -0.25067926479E+02  0.21471783377E+02  0.36820940544E+02  0.00000000000E+00 0.  1.
         11    1    4    4    0    0 -0.29501743044E+01  0.73609499874E+01  0.78506815543E+01  0.11158867069E+02  0.51100000000E-03 0. -1.
        -11    1    4    4    0    0  0.84759886532E+01 -0.24083604856E+01 -0.97072538329E+01  0.13110048097E+02  0.51100000000E-03 0.  1.
         12    1    4    4    0    0  0.10794211484E+02  0.20115336977E+02 -0.19615211098E+02  0.30098144290E+02  0.00000000000E+00 0. -1.
</event>
<event>
 8    1  0.2514877E-006  0.9118800E+02  0.7816164E-02  0.1184000E+00
        -11   -1    0    0    0    0  0.00000000000E+00  0.00000000000E+00  0.45593999997E+02  0.45594000000E+02  0.51100000000E-03 0. -1.
         11   -1    0    0    0    0 -0.00000000000E+00 -0.00000000000E+00 -0.45593999997E+02  0.45594000000E+02  0.51100000000E-03 0.  1.
         23    2    1    2    0    0 -0.83266726847E-15  0.00000000000E+00  0.00000000000E+00  0.91188000000E+02  0.91188000000E+02 0.  0.
    9900012    2    3    3    0    0  0.14041033618E+00 -0.27110096678E+02  0.24915936054E+02  0.54367069452E+02  0.39999966430E+02 0.  0.
        -12    1    3    3    0    0 -0.14041033618E+00  0.27110096678E+02 -0.24915936054E+02  0.36820930548E+02  0.00000000000E+00 0.  1.
         11    1    4    4    0    0 -0.16800406146E+02 -0.93760851260E+01  0.56072211449E+01  0.20040098508E+02  0.51100000000E-03 0.  1.
        -11    1    4    4    0    0  0.14804721341E+02 -0.15998168646E+02  0.88724472657E+01  0.23533837230E+02  0.51100000000E-03 0. -1.
        -12    1    4    4    0    0  0.21360951409E+01 -0.17358429059E+01  0.10436267644E+02  0.10793133715E+02  0.00000000000E+00 0.  1.
</event>
<event>
 8    1  0.2514877E-006  0.9118800E+02  0.7816164E-02  0.1184000E+00
        -11   -1    0    0    0    0  0.00000000000E+00  0.00000000000E+00  0.45593999997E+02  0.45594000000E+02  0.51100000000E-03 0. -1.
         11   -1    0    0    0    0 -0.00000000000E+00 -0.00000000000E+00 -0.45593999997E+02  0.45594000000E+02  0.51100000000E-03 0.  1.
         23    2    1    2    0    0  0.88817841970E-15  0.00000000000E+00  0.71054273576E-14  0.91188000000E+02  0.91188000000E+02 0.  0.
    9900012    2    3    3    0    0 -0.49300271396E+01 -0.58195265497E+01 -0.36022317962E+02  0.54367089525E+02  0.40000012190E+02 0.  0.
         12    1    3    3    0    0  0.49300271396E+01  0.58195265497E+01  0.36022317962E+02  0.36820910475E+02  0.00000000000E+00 0. -1.
         11    1    4    4    0    0 -0.84951855502E+01  0.13539143669E+02 -0.24248427059E+02  0.29042431095E+02  0.51100000000E-03 0.  1.
        -11    1    4    4    0    0 -0.24566451029E+01 -0.44046845566E+01  0.49274268523E+00  0.50674596022E+01  0.51100000000E-03 0. -1.
        -12    1    4    4    0    0  0.60218035135E+01 -0.14953985662E+02 -0.12266633588E+02  0.20257198827E+02  0.00000000000E+00 0.  1.
</event>
<event>
 8    1  0.2514877E-006  0.9118800E+02  0.7816164E-02  0.1184000E+00
        -11   -1    0    0    0    0  0.00000000000E+00  0.00000000000E+00  0.45593999997E+02  0.45594000000E+02  0.51100000000E-03 0. -1.
         11   -1    0    0    0    0 -0.00000000000E+00 -0.00000000000E+00 -0.45593999997E+02  0.45594000000E+02  0.51100000000E-03 0.  1.
         23    2    1    2    0    0  0.00000000000E+00  0.35527136788E-14  0.35527136788E-14  0.91188000000E+02  0.91188000000E+02 0.  0.
    9900012    2    3    3    0    0 -0.17801283955E+02  0.26007886118E+02  0.19039006200E+02  0.54367087357E+02  0.40000007248E+02 0.  0.
        -12    1    3    3    0    0  0.17801283955E+02 -0.26007886118E+02 -0.19039006200E+02  0.36820912643E+02  0.00000000000E+00 0.  1.
         11    1    4    4    0    0 -0.16598788280E+02  0.24059040412E+02  0.68674737154E+01  0.30025312545E+02  0.51100000000E-03 0. -1.
        -11    1    4    4    0    0  0.75930690400E+01 -0.51643600333E+01  0.26543893980E+01  0.95588229054E+01  0.51100000000E-03 0.  1.
        -12    1    4    4    0    0 -0.87955647153E+01  0.71132057391E+01  0.95171430869E+01  0.14782951907E+02  0.00000000000E+00 0.  1.
</event>
<event>
 8    1  0.2514877E-006  0.9118800E+02  0.7816164E-02  0.1184000E+00
        -11   -1    0    0    0    0  0.00000000000E+00  0.00000000000E+00  0.45593999997E+02  0.45594000000E+02  0.51100000000E-03 0. -1.
         11   -1    0    0    0    0 -0.00000000000E+00 -0.00000000000E+00 -0.45593999997E+02  0.45594000000E+02  0.51100000000E-03 0.  1.
         23    2    1    2    0    0  0.35527136788E-14  0.00000000000E+00 -0.35527136788E-14  0.91188000000E+02  0.91188000000E+02 0.  0.
    9900012    2    3    3    0    0  0.26360990083E+02 -0.10998194648E+02 -0.23236142130E+02  0.54367076808E+02  0.39999983199E+02 0.  0.
         12    1    3    3    0    0 -0.26360990083E+02  0.10998194648E+02  0.23236142130E+02  0.36820923192E+02  0.00000000000E+00 0. -1.
         11    1    4    4    0    0 -0.93279976417E+01  0.14392458775E+01 -0.23608044790E+01  0.97291503611E+01  0.51100000000E-03 0. -1.
        -11    1    4    4    0    0  0.12237786394E+02 -0.24814192496E+01 -0.13906251003E+01  0.12564023868E+02  0.51100000000E-03 0.  1.
        -12    1    4    4    0    0  0.23451201330E+02 -0.99560212764E+01 -0.19484712550E+02  0.32073902579E+02  0.00000000000E+00 0.  1.
</event>
<event>
 8    1  0.2514877E-006  0.9118800E+02  0.7816164E-02  0.1184000E+00
        -11   -1    0    0    0    0  0.00000000000E+00  0.00000000000E+00  0.45593999997E+02  0.45594000000E+02  0.51100000000E-03 0. -1.
         11   -1    0    0    0    0 -0.00000000000E+00 -0.00000000000E+00 -0.45593999997E+02  0.45594000000E+02  0.51100000000E-03 0.  1.
         23    2    1    2    0    0  0.00000000000E+00 -0.66613381478E-15  0.00000000000E+00  0.91188000000E+02  0.91188000000E+02 0.  0.
    9900012    2    3    3    0    0 -0.20899921675E+02 -0.17134650517E+01  0.30266114168E+02  0.54367077207E+02  0.39999984109E+02 0.  0.
        -12    1    3    3    0    0  0.20899921675E+02  0.17134650517E+01 -0.30266114168E+02  0.36820922793E+02  0.00000000000E+00 0.  1.
         11    1    4    4    0    0 -0.15028393918E+02 -0.63365493772E+01  0.27939903317E+02  0.32351857434E+02  0.51100000000E-03 0. -1.
        -11    1    4    4    0    0 -0.76431214908E+01  0.57409949963E+01 -0.73857110609E+01  0.12079944446E+02  0.51100000000E-03 0.  1.
         12    1    4    4    0    0  0.17715937341E+01 -0.11179106708E+01  0.97119219114E+01  0.99352753279E+01  0.00000000000E+00 0. -1.
</event>
<event>
 8    1  0.2514877E-006  0.9118800E+02  0.7816164E-02  0.1184000E+00
        -11   -1    0    0    0    0  0.00000000000E+00  0.00000000000E+00  0.45593999997E+02  0.45594000000E+02  0.51100000000E-03 0.  1.
         11   -1    0    0    0    0 -0.00000000000E+00 -0.00000000000E+00 -0.45593999997E+02  0.45594000000E+02  0.51100000000E-03 0. -1.
         23    2    1    2    0    0  0.00000000000E+00  0.88817841970E-15 -0.35527136788E-14  0.91188000000E+02  0.91188000000E+02 0.  0.
    9900012    2    3    3    0    0 -0.24115710021E+02  0.63832153738E+01 -0.27082578559E+02  0.54367096022E+02  0.40000027002E+02 0.  0.
        -12    1    3    3    0    0  0.24115710021E+02 -0.63832153738E+01  0.27082578559E+02  0.36820903978E+02  0.00000000000E+00 0.  1.
         11    1    4    4    0    0 -0.47636471461E+01 -0.42333949098E+01  0.28247127723E+01  0.69708657355E+01  0.51100000000E-03 0. -1.
        -11    1    4    4    0    0  0.19231731201E+01  0.55006359650E+01  0.39811138643E+01  0.70572557507E+01  0.51100000000E-03 0.  1.
         12    1    4    4    0    0 -0.21275235995E+02  0.51159743186E+01 -0.33888405196E+02  0.40338974536E+02  0.00000000000E+00 0. -1.
</event>
<event>
 8    1  0.2514877E-006  0.9118800E+02  0.7816164E-02  0.1184000E+00
        -11   -1    0    0    0    0  0.00000000000E+00  0.00000000000E+00  0.45593999997E+02  0.45594000000E+02  0.51100000000E-03 0. -1.
         11   -1    0    0    0    0 -0.00000000000E+00 -0.00000000000E+00 -0.45593999997E+02  0.45594000000E+02  0.51100000000E-03 0.  1.
         23    2    1    2    0    0  0.00000000000E+00  0.35527136788E-14  0.35527136788E-14  0.91188000000E+02  0.91188000000E+02 0.  0.
    9900012    2    3    3    0    0 -0.14209138336E+02  0.19993572981E+02  0.27461604339E+02  0.54367050995E+02  0.39999924352E+02 0.  0.
        -12    1    3    3    0    0  0.14209138336E+02 -0.19993572981E+02 -0.27461604339E+02  0.36820949005E+02  0.00000000000E+00 0.  1.
         11    1    4    4    0    0 -0.15035410247E+02  0.39833438614E+01  0.13793124795E+01  0.15615155868E+02  0.51100000000E-03 0. -1.
        -11    1    4    4    0    0  0.17083718889E+01 -0.62003873513E+01  0.57235856194E+01  0.86094581956E+01  0.51100000000E-03 0.  1.
         12    1    4    4    0    0 -0.88209997830E+00  0.22210616470E+02  0.20358706240E+02  0.30142436931E+02  0.00000000000E+00 0. -1.
</event>
<event>
 8    1  0.2514877E-006  0.9118800E+02  0.7816164E-02  0.1184000E+00
        -11   -1    0    0    0    0  0.00000000000E+00  0.00000000000E+00  0.45593999997E+02  0.45594000000E+02  0.51100000000E-03 0.  1.
         11   -1    0    0    0    0 -0.00000000000E+00 -0.00000000000E+00 -0.45593999997E+02  0.45594000000E+02  0.51100000000E-03 0. -1.
         23    2    1    2    0    0  0.00000000000E+00  0.97144514655E-15  0.00000000000E+00  0.91188000000E+02  0.91188000000E+02 0.  0.
    9900012    2    3    3    0    0  0.36270549732E+02  0.19315450256E+00 -0.63395340382E+01  0.54367085042E+02  0.40000001969E+02 0.  0.
        -12    1    3    3    0    0 -0.36270549732E+02 -0.19315450256E+00  0.63395340382E+01  0.36820914958E+02  0.00000000000E+00 0.  1.
         11    1    4    4    0    0  0.18857219390E+02 -0.11062300047E+02 -0.16596818901E+02  0.27448562864E+02  0.51100000000E-03 0. -1.
        -11    1    4    4    0    0 -0.23888000324E+01  0.12967675859E+01  0.12775709461E+01  0.30033580456E+01  0.51100000000E-03 0.  1.
        -12    1    4    4    0    0  0.19802130375E+02  0.99586869633E+01  0.89797139165E+01  0.23915164132E+02  0.00000000000E+00 0.  1.
</event>
<event>
 8    1  0.2514877E-006  0.9118800E+02  0.7816164E-02  0.1184000E+00
        -11   -1    0    0    0    0  0.00000000000E+00  0.00000000000E+00  0.45593999997E+02  0.45594000000E+02  0.51100000000E-03 0.  1.
         11   -1    0    0    0    0 -0.00000000000E+00 -0.00000000000E+00 -0.45593999997E+02  0.45594000000E+02  0.51100000000E-03 0. -1.
         23    2    1    2    0    0  0.26645352591E-14  0.00000000000E+00  0.00000000000E+00  0.91188000000E+02  0.91188000000E+02 0.  0.
    9900012    2    3    3    0    0  0.67608919561E+01  0.15140627080E+02  0.32876023118E+02  0.54367066491E+02  0.39999959679E+02 0.  0.
         12    1    3    3    0    0 -0.67608919561E+01 -0.15140627080E+02 -0.32876023118E+02  0.36820933509E+02  0.00000000000E+00 0. -1.
         11    1    4    4    0    0 -0.88035763585E+01  0.10793767534E+01  0.28195068472E+02  0.29557230880E+02  0.51100000000E-03 0. -1.
        -11    1    4    4    0    0  0.34964586073E+01  0.10687287585E+02 -0.48688939660E+00  0.11255238792E+02  0.51100000000E-03 0.  1.
         12    1    4    4    0    0  0.12068009707E+02  0.33739627416E+01  0.51678440423E+01  0.13554596819E+02  0.00000000000E+00 0. -1.
</event>
<event>
 8    1  0.2514877E-006  0.9118800E+02  0.7816164E-02  0.1184000E+00
        -11   -1    0    0    0    0  0.00000000000E+00  0.00000000000E+00  0.45593999997E+02  0.45594000000E+02  0.51100000000E-03 0. -1.
         11   -1    0    0    0    0 -0.00000000000E+00 -0.00000000000E+00 -0.45593999997E+02  0.45594000000E+02  0.51100000000E-03 0.  1.
         23    2    1    2    0    0  0.00000000000E+00  0.00000000000E+00  0.17763568394E-14  0.91188000000E+02  0.91188000000E+02 0.  0.
    9900012    2    3    3    0    0 -0.11596894031E+02  0.32340708405E+02  0.13242981646E+02  0.54367001450E+02  0.39999811406E+02 0.  0.
        -12    1    3    3    0    0  0.11596894031E+02 -0.32340708405E+02 -0.13242981646E+02  0.36820998550E+02  0.00000000000E+00 0.  1.
         11    1    4    4    0    0 -0.91781836941E+01  0.10295934074E+02  0.63602537566E+01  0.15188750524E+02  0.51100000000E-03 0. -1.
        -11    1    4    4    0    0  0.68508346700E+01  0.12964962599E+02  0.17198875621E+02  0.22601449373E+02  0.51100000000E-03 0.  1.
        -12    1    4    4    0    0 -0.92695450073E+01  0.90798117312E+01 -0.10316147731E+02  0.16576801553E+02  0.00000000000E+00 0.  1.
</event>
<event>
 8    1  0.2514877E-006  0.9118800E+02  0.7816164E-02  0.1184000E+00
        -11   -1    0    0    0    0  0.00000000000E+00  0.00000000000E+00  0.45593999997E+02  0.45594000000E+02  0.51100000000E-03 0.  1.
         11   -1    0    0    0    0 -0.00000000000E+00 -0.00000000000E+00 -0.45593999997E+02  0.45594000000E+02  0.51100000000E-03 0. -1.
         23    2    1    2    0    0  0.00000000000E+00  0.00000000000E+00 -0.71054273576E-14  0.91188000000E+02  0.91188000000E+02 0.  0.
    9900012    2    3    3    0    0 -0.91777490706E+01  0.49826811525E+01  0.35308947073E+02  0.54367082943E+02  0.39999997186E+02 0.  0.
         12    1    3    3    0    0  0.91777490706E+01 -0.49826811525E+01 -0.35308947073E+02  0.36820917057E+02  0.00000000000E+00 0. -1.
         11    1    4    4    0    0 -0.10916056052E+02  0.78224197473E+01  0.86125033858E+01  0.15953863020E+02  0.51100000000E-03 0.  1.
        -11    1    4    4    0    0  0.44380576890E+01  0.81064557097E+01  0.25443068486E+02  0.27069553275E+02  0.51100000000E-03 0. -1.
         12    1    4    4    0    0 -0.26997507072E+01 -0.10946194305E+02  0.12533752010E+01  0.11343666648E+02  0.00000000000E+00 0. -1.
</event>
<event>
 8    1  0.2514877E-006  0.9118800E+02  0.7816164E-02  0.1184000E+00
        -11   -1    0    0    0    0  0.00000000000E+00  0.00000000000E+00  0.45593999997E+02  0.45594000000E+02  0.51100000000E-03 0.  1.
         11   -1    0    0    0    0 -0.00000000000E+00 -0.00000000000E+00 -0.45593999997E+02  0.45594000000E+02  0.51100000000E-03 0. -1.
         23    2    1    2    0    0  0.88817841970E-15 -0.88817841970E-15  0.00000000000E+00  0.91188000000E+02  0.91188000000E+02 0.  0.
    9900012    2    3    3    0    0  0.35469367355E+01  0.78636927938E+01  0.35796094870E+02  0.54367097886E+02  0.40000031250E+02 0.  0.
         12    1    3    3    0    0 -0.35469367355E+01 -0.78636927938E+01 -0.35796094870E+02  0.36820902114E+02  0.00000000000E+00 0. -1.
         11    1    4    4    0    0  0.17055354933E+01 -0.35532375176E+01  0.15833877385E+02  0.16317046959E+02  0.51100000000E-03 0. -1.
        -11    1    4    4    0    0  0.10360625593E+02 -0.61786740005E+01  0.11768866689E+02  0.16853035290E+02  0.51100000000E-03 0.  1.
         12    1    4    4    0    0 -0.85192243504E+01  0.17595604312E+02  0.81933507958E+01  0.21197015637E+02  0.00000000000E+00 0. -1.
</event>
<event>
 8    1  0.2514877E-006  0.9118800E+02  0.7816164E-02  0.1184000E+00
        -11   -1    0    0    0    0  0.00000000000E+00  0.00000000000E+00  0.45593999997E+02  0.45594000000E+02  0.51100000000E-03 0.  1.
         11   -1    0    0    0    0 -0.00000000000E+00 -0.00000000000E+00 -0.45593999997E+02  0.45594000000E+02  0.51100000000E-03 0. -1.
         23    2    1    2    0    0 -0.88817841970E-15  0.00000000000E+00  0.71054273576E-14  0.91188000000E+02  0.91188000000E+02 0.  0.
    9900012    2    3    3    0    0 -0.55453195495E+01 -0.68015841191E+01 -0.35759854327E+02  0.54367091580E+02  0.40000016874E+02 0.  0.
        -12    1    3    3    0    0  0.55453195495E+01  0.68015841191E+01  0.35759854327E+02  0.36820908420E+02  0.00000000000E+00 0.  1.
         11    1    4    4    0    0 -0.38284040752E+01 -0.11106458139E+02 -0.16440118823E+02  0.20206127717E+02  0.51100000000E-03 0. -1.
        -11    1    4    4    0    0 -0.24288544187E+01 -0.99580684391E+01 -0.14297307430E+00  0.10250995190E+02  0.51100000000E-03 0.  1.
         12    1    4    4    0    0  0.71193894435E+00  0.14262942459E+02 -0.19176762429E+02  0.23909968672E+02  0.00000000000E+00 0. -1.
</event>
<event>
 8    1  0.2514877E-006  0.9118800E+02  0.7816164E-02  0.1184000E+00
        -11   -1    0    0    0    0  0.00000000000E+00  0.00000000000E+00  0.45593999997E+02  0.45594000000E+02  0.51100000000E-03 0.  1.
         11   -1    0    0    0    0 -0.00000000000E+00 -0.00000000000E+00 -0.45593999997E+02  0.45594000000E+02  0.51100000000E-03 0. -1.
         23    2    1    2    0    0  0.00000000000E+00  0.26645352591E-14  0.71054273576E-14  0.91188000000E+02  0.91188000000E+02 0.  0.
    9900012    2    3    3    0    0  0.81693314075E+01 -0.58624693331E+01  0.35421355999E+02  0.54367095841E+02  0.40000026588E+02 0.  0.
         12    1    3    3    0    0 -0.81693314075E+01  0.58624693331E+01 -0.35421355999E+02  0.36820904159E+02  0.00000000000E+00 0. -1.
         11    1    4    4    0    0  0.13133872373E+02  0.90148647898E+01  0.64070545602E+01  0.17170228277E+02  0.51100000000E-03 0. -1.
        -11    1    4    4    0    0  0.41536999826E+00  0.34549551848E+01  0.17238038013E+01  0.38833937955E+01  0.51100000000E-03 0.  1.
        -12    1    4    4    0    0 -0.53799109633E+01 -0.18332289308E+02  0.27290497637E+02  0.33313473768E+02  0.00000000000E+00 0.  1.
</event>
<event>
 8    1  0.2514877E-006  0.9118800E+02  0.7816164E-02  0.1184000E+00
        -11   -1    0    0    0    0  0.00000000000E+00  0.00000000000E+00  0.45593999997E+02  0.45594000000E+02  0.51100000000E-03 0. -1.
         11   -1    0    0    0    0 -0.00000000000E+00 -0.00000000000E+00 -0.45593999997E+02  0.45594000000E+02  0.51100000000E-03 0.  1.
         23    2    1    2    0    0 -0.71054273576E-14  0.00000000000E+00  0.00000000000E+00  0.91188000000E+02  0.91188000000E+02 0.  0.
    9900012    2    3    3    0    0  0.34546612111E+02 -0.90189112865E+01  0.89984636256E+01  0.54367061435E+02  0.39999948154E+02 0.  0.
         12    1    3    3    0    0 -0.34546612111E+02  0.90189112865E+01 -0.89984636256E+01  0.36820938565E+02  0.00000000000E+00 0. -1.
         11    1    4    4    0    0  0.14603424093E+02  0.50486131645E+01  0.15741825401E+02  0.22057959047E+02  0.51100000000E-03 0. -1.
        -11    1    4    4    0    0  0.10993892391E+02 -0.53903183821E+00  0.51923324086E+01  0.12170313937E+02  0.51100000000E-03 0.  1.
         12    1    4    4    0    0  0.89492956280E+01 -0.13528492613E+02 -0.11935694184E+02  0.20138788451E+02  0.00000000000E+00 0. -1.
</event>
<event>
 8    1  0.2514877E-006  0.9118800E+02  0.7816164E-02  0.1184000E+00
        -11   -1    0    0    0    0  0.00000000000E+00  0.00000000000E+00  0.45593999997E+02  0.45594000000E+02  0.51100000000E-03 0.  1.
         11   -1    0    0    0    0 -0.00000000000E+00 -0.00000000000E+00 -0.45593999997E+02  0.45594000000E+02  0.51100000000E-03 0. -1.
         23    2    1    2    0    0  0.00000000000E+00  0.17763568394E-14  0.00000000000E+00  0.91188000000E+02  0.91188000000E+02 0.  0.
    9900012    2    3    3    0    0 -0.14555914592E+02 -0.66412801540E+01 -0.33163214678E+02  0.54367081224E+02  0.39999993267E+02 0.  0.
        -12    1    3    3    0    0  0.14555914592E+02  0.66412801540E+01  0.33163214678E+02  0.36820918776E+02  0.00000000000E+00 0.  1.
         11    1    4    4    0    0 -0.49896949013E+01 -0.10139395649E+02 -0.16491139482E+02  0.19991550240E+02  0.51100000000E-03 0. -1.
        -11    1    4    4    0    0 -0.57589181517E+01 -0.12389197842E+02 -0.86993374915E+01  0.16196784697E+02  0.51100000000E-03 0.  1.
        -12    1    4    4    0    0 -0.38073015386E+01  0.15887313337E+02 -0.79727377048E+01  0.18178746287E+02  0.00000000000E+00 0.  1.
</event>
<event>
 8    1  0.2514877E-006  0.9118800E+02  0.7816164E-02  0.1184000E+00
        -11   -1    0    0    0    0  0.00000000000E+00  0.00000000000E+00  0.45593999997E+02  0.45594000000E+02  0.51100000000E-03 0.  1.
         11   -1    0    0    0    0 -0.00000000000E+00 -0.00000000000E+00 -0.45593999997E+02  0.45594000000E+02  0.51100000000E-03 0. -1.
         23    2    1    2    0    0  0.00000000000E+00  0.00000000000E+00  0.35527136788E-14  0.91188000000E+02  0.91188000000E+02 0.  0.
    9900012    2    3    3    0    0 -0.21195428014E+02 -0.25363518739E+02  0.16224269588E+02  0.54367066074E+02  0.39999958728E+02 0.  0.
         12    1    3    3    0    0  0.21195428014E+02  0.25363518739E+02 -0.16224269588E+02  0.36820933926E+02  0.00000000000E+00 0. -1.
         11    1    4    4    0    0  0.53577179496E+01  0.23237845871E+01  0.29504228789E+01  0.65429436693E+01  0.51100000000E-03 0. -1.
        -11    1    4    4    0    0 -0.26490687863E+02 -0.26099588043E+02  0.19085241095E+02  0.41799419462E+02  0.51100000000E-03 0.  1.
        -12    1    4    4    0    0 -0.62458100626E-01 -0.15877152833E+01 -0.58113943858E+01  0.60247029422E+01  0.00000000000E+00 0.  1.
</event>
<event>
 8    1  0.2514877E-006  0.9118800E+02  0.7816164E-02  0.1184000E+00
        -11   -1    0    0    0    0  0.00000000000E+00  0.00000000000E+00  0.45593999997E+02  0.45594000000E+02  0.51100000000E-03 0. -1.
         11   -1    0    0    0    0 -0.00000000000E+00 -0.00000000000E+00 -0.45593999997E+02  0.45594000000E+02  0.51100000000E-03 0.  1.
         23    2    1    2    0    0  0.13322676296E-14 -0.71054273576E-14  0.00000000000E+00  0.91188000000E+02  0.91188000000E+02 0.  0.
    9900012    2    3    3    0    0 -0.29000084282E+01 -0.24543688851E+02  0.27294243285E+02  0.54367103381E+02  0.40000043777E+02 0.  0.
        -12    1    3    3    0    0  0.29000084282E+01  0.24543688851E+02 -0.27294243285E+02  0.36820896619E+02  0.00000000000E+00 0.  1.
         11    1    4    4    0    0  0.55459014211E+01  0.37581557051E+00  0.14473648746E+02  0.15504346751E+02  0.51100000000E-03 0. -1.
        -11    1    4    4    0    0 -0.64595057038E+01  0.40626382500E+01  0.23800016005E+01  0.79934129987E+01  0.51100000000E-03 0.  1.
         12    1    4    4    0    0 -0.19864041454E+01 -0.28982142672E+02  0.10440592939E+02  0.30869343631E+02  0.00000000000E+00 0. -1.
</event>
<event>
 8    1  0.2514877E-006  0.9118800E+02  0.7816164E-02  0.1184000E+00
        -11   -1    0    0    0    0  0.00000000000E+00  0.00000000000E+00  0.45593999997E+02  0.45594000000E+02  0.51100000000E-03 0. -1.
         11   -1    0    0    0    0 -0.00000000000E+00 -0.00000000000E+00 -0.45593999997E+02  0.45594000000E+02  0.51100000000E-03 0.  1.
         23    2    1    2    0    0 -0.26645352591E-14  0.00000000000E+00 -0.35527136788E-14  0.91188000000E+02  0.91188000000E+02 0.  0.
    9900012    2    3    3    0    0 -0.68179695680E+01  0.32900906270E+02 -0.15060759239E+02  0.54367071016E+02  0.39999969995E+02 0.  0.
        -12    1    3    3    0    0  0.68179695680E+01 -0.32900906270E+02  0.15060759239E+02  0.36820928984E+02  0.00000000000E+00 0.  1.
         11    1    4    4    0    0 -0.65543379846E+01  0.25490335635E+02 -0.21636419848E+02  0.34071266800E+02  0.51100000000E-03 0. -1.
        -11    1    4    4    0    0  0.85287723982E+01  0.41928207266E+01  0.51979240108E+01  0.10832272086E+02  0.51100000000E-03 0.  1.
        -12    1    4    4    0    0 -0.87924039816E+01  0.32177499078E+01  0.13777365985E+01  0.94635321303E+01  0.00000000000E+00 0.  1.
</event>
<event>
 8    1  0.2514877E-006  0.9118800E+02  0.7816164E-02  0.1184000E+00
        -11   -1    0    0    0    0  0.00000000000E+00  0.00000000000E+00  0.45593999997E+02  0.45594000000E+02  0.51100000000E-03 0.  1.
         11   -1    0    0    0    0 -0.00000000000E+00 -0.00000000000E+00 -0.45593999997E+02  0.45594000000E+02  0.51100000000E-03 0. -1.
         23    2    1    2    0    0  0.00000000000E+00  0.00000000000E+00 -0.35527136788E-14  0.91188000000E+02  0.91188000000E+02 0.  0.
    9900012    2    3    3    0    0  0.21034932929E+02 -0.51076099575E+01  0.29786330224E+02  0.54367060970E+02  0.39999947094E+02 0.  0.
         12    1    3    3    0    0 -0.21034932929E+02  0.51076099575E+01 -0.29786330224E+02  0.36820939030E+02  0.00000000000E+00 0. -1.
         11    1    4    4    0    0 -0.63083580384E+01  0.31388138779E+01 -0.31496218009E+01  0.77180082567E+01  0.51100000000E-03 0. -1.
        -11    1    4    4    0    0  0.16848551419E+02 -0.51975244433E+00  0.83243580532E+01  0.18799967149E+02  0.51100000000E-03 0.  1.
         12    1    4    4    0    0  0.10494739548E+02 -0.77266713911E+01  0.24611593972E+02  0.27849085565E+02  0.00000000000E+00 0. -1.
</event>
<event>
 8    1  0.2514877E-006  0.9118800E+02  0.7816164E-02  0.1184000E+00
        -11   -1    0    0    0    0  0.00000000000E+00  0.00000000000E+00  0.45593999997E+02  0.45594000000E+02  0.51100000000E-03 0.  1.
         11   -1    0    0    0    0 -0.00000000000E+00 -0.00000000000E+00 -0.45593999997E+02  0.45594000000E+02  0.51100000000E-03 0. -1.
         23    2    1    2    0    0  0.00000000000E+00  0.00000000000E+00  0.00000000000E+00  0.91188000000E+02  0.91188000000E+02 0.  0.
    9900012    2    3    3    0    0  0.35471152378E+01 -0.21688793840E+02  0.29543075700E+02  0.54367093893E+02  0.40000022148E+02 0.  0.
         12    1    3    3    0    0 -0.35471152378E+01  0.21688793840E+02 -0.29543075700E+02  0.36820906107E+02  0.00000000000E+00 0. -1.
         11    1    4    4    0    0  0.36222799657E+01 -0.50146613606E+01 -0.19685027255E+01  0.64917442920E+01  0.51100000000E-03 0. -1.
        -11    1    4    4    0    0  0.36154121367E+01 -0.25432852160E+02  0.27280316625E+02  0.37471547197E+02  0.51100000000E-03 0.  1.
         12    1    4    4    0    0 -0.36905768645E+01  0.87587196807E+01  0.42312618001E+01  0.10403802404E+02  0.00000000000E+00 0. -1.
</event>
<event>
 8    1  0.2514877E-006  0.9118800E+02  0.7816164E-02  0.1184000E+00
        -11   -1    0    0    0    0  0.00000000000E+00  0.00000000000E+00  0.45593999997E+02  0.45594000000E+02  0.51100000000E-03 0.  1.
         11   -1    0    0    0    0 -0.00000000000E+00 -0.00000000000E+00 -0.45593999997E+02  0.45594000000E+02  0.51100000000E-03 0. -1.
         23    2    1    2    0    0  0.00000000000E+00  0.00000000000E+00  0.00000000000E+00  0.91188000000E+02  0.91188000000E+02 0.  0.
    9900012    2    3    3    0    0 -0.31446985610E+02  0.49210965447E+01 -0.18510777242E+02  0.54367096029E+02  0.40000027018E+02 0.  0.
        -12    1    3    3    0    0  0.31446985610E+02 -0.49210965447E+01  0.18510777242E+02  0.36820903971E+02  0.00000000000E+00 0.  1.
         11    1    4    4    0    0 -0.14543078247E+01  0.10007897270E+02 -0.14030672224E+02  0.17295455539E+02  0.51100000000E-03 0. -1.
        -11    1    4    4    0    0 -0.60718095548E+01 -0.35615984862E+00  0.77018299054E+01  0.98138629122E+01  0.51100000000E-03 0.  1.
        -12    1    4    4    0    0 -0.23920868230E+02 -0.47306408762E+01 -0.12181934923E+02  0.27257777578E+02  0.00000000000E+00 0.  1.
</event>
<event>
 8    1  0.2514877E-006  0.9118800E+02  0.7816164E-02  0.1184000E+00
        -11   -1    0    0    0    0  0.00000000000E+00  0.00000000000E+00  0.45593999997E+02  0.45594000000E+02  0.51100000000E-03 0. -1.
         11   -1    0    0    0    0 -0.00000000000E+00 -0.00000000000E+00 -0.45593999997E+02  0.45594000000E+02  0.51100000000E-03 0.  1.
         23    2    1    2    0    0 -0.88817841970E-15  0.00000000000E+00  0.16098233857E-14  0.91188000000E+02  0.91188000000E+02 0.  0.
    9900012    2    3    3    0    0 -0.73719875083E+01  0.36072308385E+02 -0.47040543954E+00  0.54367096789E+02  0.40000028749E+02 0.  0.
         12    1    3    3    0    0  0.73719875083E+01 -0.36072308385E+02  0.47040543954E+00  0.36820903211E+02  0.00000000000E+00 0. -1.
         11    1    4    4    0    0 -0.11382441515E+01 -0.11368488045E+01 -0.16784282031E+01  0.23248970830E+01  0.51100000000E-03 0. -1.
        -11    1    4    4    0    0 -0.25559204622E+01  0.27848996841E+01  0.14479986925E+02  0.14965240301E+02  0.51100000000E-03 0.  1.
        -12    1    4    4    0    0 -0.36778228946E+01  0.34424257505E+02 -0.13271964161E+02  0.37076959405E+02  0.00000000000E+00 0.  1.
</event>
<event>
 8    1  0.2514877E-006  0.9118800E+02  0.7816164E-02  0.1184000E+00
        -11   -1    0    0    0    0  0.00000000000E+00  0.00000000000E+00  0.45593999997E+02  0.45594000000E+02  0.51100000000E-03 0.  1.
         11   -1    0    0    0    0 -0.00000000000E+00 -0.00000000000E+00 -0.45593999997E+02  0.45594000000E+02  0.51100000000E-03 0. -1.
         23    2    1    2    0    0  0.35527136788E-14 -0.88817841970E-15 -0.35527136788E-14  0.91188000000E+02  0.91188000000E+02 0.  0.
    9900012    2    3    3    0    0 -0.29685646987E+02 -0.17697141593E+01  0.21711955351E+02  0.54367101988E+02  0.40000040602E+02 0.  0.
         12    1    3    3    0    0  0.29685646987E+02  0.17697141593E+01 -0.21711955351E+02  0.36820898012E+02  0.00000000000E+00 0. -1.
         11    1    4    4    0    0 -0.22391277666E+02 -0.99503777159E+01 -0.35905160282E+00  0.24505269852E+02  0.51100000000E-03 0. -1.
        -11    1    4    4    0    0 -0.47746885890E+01 -0.43558343571E+01  0.36045504724E+01  0.74002519172E+01  0.51100000000E-03 0.  1.
        -12    1    4    4    0    0 -0.25196807319E+01  0.12536497914E+02  0.18466456481E+02  0.22461580219E+02  0.00000000000E+00 0.  1.
</event>
<event>
 8    1  0.2514877E-006  0.9118800E+02  0.7816164E-02  0.1184000E+00
        -11   -1    0    0    0    0  0.00000000000E+00  0.00000000000E+00  0.45593999997E+02  0.45594000000E+02  0.51100000000E-03 0.  1.
         11   -1    0    0    0    0 -0.00000000000E+00 -0.00000000000E+00 -0.45593999997E+02  0.45594000000E+02  0.51100000000E-03 0. -1.
         23    2    1    2    0    0 -0.35527136788E-14 -0.35527136788E-14  0.00000000000E+00  0.91188000000E+02  0.91188000000E+02 0.  0.
    9900012    2    3    3    0    0  0.14764100282E+02 -0.27508117875E+02  0.19521765251E+02  0.54367156383E+02  0.40000164606E+02 0.  0.
        -12    1    3    3    0    0 -0.14764100282E+02  0.27508117875E+02 -0.19521765251E+02  0.36820843617E+02  0.00000000000E+00 0.  1.
         11    1    4    4    0    0  0.16950607213E+02 -0.27250790626E+02  0.12240641566E+01  0.32115837338E+02  0.51100000000E-03 0. -1.
        -11    1    4    4    0    0  0.45152850574E+01 -0.29583380701E+01  0.69816919416E+01  0.88251677556E+01  0.51100000000E-03 0.  1.
        -12    1    4    4    0    0 -0.67017919881E+01  0.27010108208E+01  0.11316009153E+02  0.13426151289E+02  0.00000000000E+00 0.  1.
</event>
<event>
 8    1  0.2514877E-006  0.9118800E+02  0.7816164E-02  0.1184000E+00
        -11   -1    0    0    0    0  0.00000000000E+00  0.00000000000E+00  0.45593999997E+02  0.45594000000E+02  0.51100000000E-03 0. -1.
         11   -1    0    0    0    0 -0.00000000000E+00 -0.00000000000E+00 -0.45593999997E+02  0.45594000000E+02  0.51100000000E-03 0.  1.
         23    2    1    2    0    0  0.00000000000E+00  0.35527136788E-14  0.00000000000E+00  0.91188000000E+02  0.91188000000E+02 0.  0.
    9900012    2    3    3    0    0 -0.51323567123E+01  0.31414861149E+02 -0.18507972364E+02  0.54367087091E+02  0.40000006641E+02 0.  0.
         12    1    3    3    0    0  0.51323567123E+01 -0.31414861149E+02  0.18507972364E+02  0.36820912909E+02  0.00000000000E+00 0. -1.
         11    1    4    4    0    0 -0.79014532547E+01  0.21295478491E+02 -0.16739996971E+02  0.28216269536E+02  0.51100000000E-03 0. -1.
        -11    1    4    4    0    0 -0.29581829617E+01  0.57322725281E+01 -0.12004270919E+02  0.13627630584E+02  0.51100000000E-03 0.  1.
         12    1    4    4    0    0  0.57272795040E+01  0.43871101302E+01  0.10236295526E+02  0.12523186971E+02  0.00000000000E+00 0. -1.
</event>
<event>
 8    1  0.2514877E-006  0.9118800E+02  0.7816164E-02  0.1184000E+00
        -11   -1    0    0    0    0  0.00000000000E+00  0.00000000000E+00  0.45593999997E+02  0.45594000000E+02  0.51100000000E-03 0.  1.
         11   -1    0    0    0    0 -0.00000000000E+00 -0.00000000000E+00 -0.45593999997E+02  0.45594000000E+02  0.51100000000E-03 0. -1.
         23    2    1    2    0    0  0.35527136788E-14  0.00000000000E+00  0.35527136788E-14  0.91188000000E+02  0.91188000000E+02 0.  0.
    9900012    2    3    3    0    0  0.20704597004E+02  0.97939355000E+01  0.28830167591E+02  0.54367081041E+02  0.39999992849E+02 0.  0.
         12    1    3    3    0    0 -0.20704597004E+02 -0.97939355000E+01 -0.28830167591E+02  0.36820918959E+02  0.00000000000E+00 0. -1.
         11    1    4    4    0    0 -0.72354647357E+01 -0.24399074839E+01 -0.94777442004E+00  0.76943729493E+01  0.51100000000E-03 0. -1.
        -11    1    4    4    0    0  0.92085800172E+01  0.14269858820E+02  0.15977104547E+02  0.23317261559E+02  0.51100000000E-03 0.  1.
         12    1    4    4    0    0  0.18731481723E+02 -0.20360158357E+01  0.13800837464E+02  0.23355446532E+02  0.00000000000E+00 0. -1.
</event>
<event>
 8    1  0.2514877E-006  0.9118800E+02  0.7816164E-02  0.1184000E+00
        -11   -1    0    0    0    0  0.00000000000E+00  0.00000000000E+00  0.45593999997E+02  0.45594000000E+02  0.51100000000E-03 0.  1.
         11   -1    0    0    0    0 -0.00000000000E+00 -0.00000000000E+00 -0.45593999997E+02  0.45594000000E+02  0.51100000000E-03 0. -1.
         23    2    1    2    0    0 -0.17763568394E-14 -0.35527136788E-14  0.00000000000E+00  0.91188000000E+02  0.91188000000E+02 0.  0.
    9900012    2    3    3    0    0  0.92145279990E+01  0.26247972993E+02  0.24122931453E+02  0.54367089713E+02  0.40000012619E+02 0.  0.
         12    1    3    3    0    0 -0.92145279990E+01 -0.26247972993E+02 -0.24122931453E+02  0.36820910287E+02  0.00000000000E+00 0. -1.
         11    1    4    4    0    0  0.58883138842E+01 -0.80960522453E+01  0.95304819995E+01  0.13822025530E+02  0.51100000000E-03 0. -1.
        -11    1    4    4    0    0  0.67755282563E+01  0.16221345787E+02  0.13315004880E+02  0.22052872772E+02  0.51100000000E-03 0.  1.
        -12    1    4    4    0    0 -0.34493141415E+01  0.18122679451E+02  0.12774445736E+01  0.18492191411E+02  0.00000000000E+00 0.  1.
</event>
<event>
 8    1  0.2514877E-006  0.9118800E+02  0.7816164E-02  0.1184000E+00
        -11   -1    0    0    0    0  0.00000000000E+00  0.00000000000E+00  0.45593999997E+02  0.45594000000E+02  0.51100000000E-03 0. -1.
         11   -1    0    0    0    0 -0.00000000000E+00 -0.00000000000E+00 -0.45593999997E+02  0.45594000000E+02  0.51100000000E-03 0.  1.
         23    2    1    2    0    0  0.00000000000E+00 -0.17763568394E-14  0.00000000000E+00  0.91188000000E+02  0.91188000000E+02 0.  0.
    9900012    2    3    3    0    0 -0.32072842032E+02  0.13235868970E+02 -0.12325771938E+02  0.54367080983E+02  0.39999992718E+02 0.  0.
         12    1    3    3    0    0  0.32072842032E+02 -0.13235868970E+02  0.12325771938E+02  0.36820919017E+02  0.00000000000E+00 0. -1.
         11    1    4    4    0    0 -0.20816076020E+02  0.74696637106E+01  0.54466358993E+00  0.22122422008E+02  0.51100000000E-03 0. -1.
        -11    1    4    4    0    0 -0.79737191883E+00  0.15353242489E+02 -0.68966362438E+01  0.16849968802E+02  0.51100000000E-03 0.  1.
         12    1    4    4    0    0 -0.10459394093E+02 -0.95870372296E+01 -0.59737992838E+01  0.15394690173E+02  0.00000000000E+00 0. -1.
</event>
<event>
 8    1  0.2514877E-006  0.9118800E+02  0.7816164E-02  0.1184000E+00
        -11   -1    0    0    0    0  0.00000000000E+00  0.00000000000E+00  0.45593999997E+02  0.45594000000E+02  0.51100000000E-03 0.  1.
         11   -1    0    0    0    0 -0.00000000000E+00 -0.00000000000E+00 -0.45593999997E+02  0.45594000000E+02  0.51100000000E-03 0. -1.
         23    2    1    2    0    0  0.00000000000E+00  0.71054273576E-14  0.00000000000E+00  0.91188000000E+02  0.91188000000E+02 0.  0.
    9900012    2    3    3    0    0 -0.45438163046E+01 -0.34636938314E+02 -0.11636768178E+02  0.54367107343E+02  0.40000052811E+02 0.  0.
         12    1    3    3    0    0  0.45438163046E+01  0.34636938314E+02  0.11636768178E+02  0.36820892657E+02  0.00000000000E+00 0. -1.
         11    1    4    4    0    0  0.61552623080E+01 -0.19471873145E+02 -0.95670328169E+01  0.22551479220E+02  0.51100000000E-03 0. -1.
        -11    1    4    4    0    0  0.56492572756E+01 -0.13509188117E+02 -0.42316973187E+01  0.15242031814E+02  0.51100000000E-03 0.  1.
         12    1    4    4    0    0 -0.16348335888E+02 -0.16558770527E+01  0.21619619577E+01  0.16573596310E+02  0.00000000000E+00 0. -1.
</event>
<event>
 8    1  0.2514877E-006  0.9118800E+02  0.7816164E-02  0.1184000E+00
        -11   -1    0    0    0    0  0.00000000000E+00  0.00000000000E+00  0.45593999997E+02  0.45594000000E+02  0.51100000000E-03 0.  1.
         11   -1    0    0    0    0 -0.00000000000E+00 -0.00000000000E+00 -0.45593999997E+02  0.45594000000E+02  0.51100000000E-03 0. -1.
         23    2    1    2    0    0 -0.35527136788E-14  0.17763568394E-14  0.00000000000E+00  0.91188000000E+02  0.91188000000E+02 0.  0.
    9900012    2    3    3    0    0 -0.16605412043E+02  0.13368286674E+02  0.30022144538E+02  0.54367082571E+02  0.39999996336E+02 0.  0.
         12    1    3    3    0    0  0.16605412043E+02 -0.13368286674E+02 -0.30022144538E+02  0.36820917429E+02  0.00000000000E+00 0. -1.
         11    1    4    4    0    0 -0.69656169560E+01 -0.80478366636E+00  0.16679664075E+01  0.72076076839E+01  0.51100000000E-03 0. -1.
        -11    1    4    4    0    0 -0.21343827356E+02  0.11839641633E+02  0.24586822918E+02  0.34644594696E+02  0.51100000000E-03 0.  1.
         12    1    4    4    0    0  0.11704032269E+02  0.23334287067E+01  0.37673552121E+01  0.12514880190E+02  0.00000000000E+00 0. -1.
</event>
<event>
 8    1  0.2514877E-006  0.9118800E+02  0.7816164E-02  0.1184000E+00
        -11   -1    0    0    0    0  0.00000000000E+00  0.00000000000E+00  0.45593999997E+02  0.45594000000E+02  0.51100000000E-03 0. -1.
         11   -1    0    0    0    0 -0.00000000000E+00 -0.00000000000E+00 -0.45593999997E+02  0.45594000000E+02  0.51100000000E-03 0.  1.
         23    2    1    2    0    0  0.00000000000E+00  0.35527136788E-14 -0.35527136788E-14  0.91188000000E+02  0.91188000000E+02 0.  0.
    9900012    2    3    3    0    0  0.19622636956E+02 -0.23064612051E+02  0.20946499245E+02  0.54367081478E+02  0.39999993846E+02 0.  0.
        -12    1    3    3    0    0 -0.19622636956E+02  0.23064612051E+02 -0.20946499245E+02  0.36820918522E+02  0.00000000000E+00 0.  1.
         11    1    4    4    0    0  0.24814600179E+02 -0.15490259015E+02  0.13803888457E+02  0.32345940135E+02  0.51100000000E-03 0. -1.
        -11    1    4    4    0    0  0.49065052921E+01  0.31717181779E+01  0.55029489318E+00  0.58682548608E+01  0.51100000000E-03 0.  1.
        -12    1    4    4    0    0 -0.10098468515E+02 -0.10746071214E+02  0.65923158943E+01  0.16152886483E+02  0.00000000000E+00 0.  1.
</event>
<event>
 8    1  0.2514877E-006  0.9118800E+02  0.7816164E-02  0.1184000E+00
        -11   -1    0    0    0    0  0.00000000000E+00  0.00000000000E+00  0.45593999997E+02  0.45594000000E+02  0.51100000000E-03 0. -1.
         11   -1    0    0    0    0 -0.00000000000E+00 -0.00000000000E+00 -0.45593999997E+02  0.45594000000E+02  0.51100000000E-03 0.  1.
         23    2    1    2    0    0 -0.17763568394E-14 -0.71054273576E-14 -0.17763568394E-14  0.91188000000E+02  0.91188000000E+02 0.  0.
    9900012    2    3    3    0    0 -0.80054825868E+01 -0.32429917494E+02  0.15491693429E+02  0.54367083860E+02  0.39999999275E+02 0.  0.
         12    1    3    3    0    0  0.80054825868E+01  0.32429917494E+02 -0.15491693429E+02  0.36820916140E+02  0.00000000000E+00 0. -1.
         11    1    4    4    0    0  0.67154749501E+01 -0.18162814348E+02  0.23192703345E+02  0.30214018561E+02  0.51100000000E-03 0. -1.
        -11    1    4    4    0    0 -0.10973629431E+02 -0.12677930523E+02 -0.99552174694E+01  0.19500174881E+02  0.51100000000E-03 0.  1.
         12    1    4    4    0    0 -0.37473281053E+01 -0.15891726225E+01  0.22542075529E+01  0.46528904183E+01  0.00000000000E+00 0. -1.
</event>
<event>
 8    1  0.2514877E-006  0.9118800E+02  0.7816164E-02  0.1184000E+00
        -11   -1    0    0    0    0  0.00000000000E+00  0.00000000000E+00  0.45593999997E+02  0.45594000000E+02  0.51100000000E-03 0.  1.
         11   -1    0    0    0    0 -0.00000000000E+00 -0.00000000000E+00 -0.45593999997E+02  0.45594000000E+02  0.51100000000E-03 0. -1.
         23    2    1    2    0    0  0.00000000000E+00 -0.35527136788E-14  0.88817841970E-15  0.91188000000E+02  0.91188000000E+02 0.  0.
    9900012    2    3    3    0    0 -0.25303335224E+02 -0.25600019536E+02 -0.77562776865E+01  0.54367087230E+02  0.40000006958E+02 0.  0.
        -12    1    3    3    0    0  0.25303335224E+02  0.25600019536E+02  0.77562776865E+01  0.36820912770E+02  0.00000000000E+00 0.  1.
         11    1    4    4    0    0 -0.92355269622E+01 -0.79358668582E+01 -0.20263859386E+02  0.23641001217E+02  0.51100000000E-03 0. -1.
        -11    1    4    4    0    0 -0.52351893676E+01 -0.26516656058E+01 -0.29869080194E+01  0.65848430487E+01  0.51100000000E-03 0.  1.
        -12    1    4    4    0    0 -0.10832618894E+02 -0.15012487072E+02  0.15494489719E+02  0.24141242964E+02  0.00000000000E+00 0.  1.
</event>
<event>
 8    1  0.2514877E-006  0.9118800E+02  0.7816164E-02  0.1184000E+00
        -11   -1    0    0    0    0  0.00000000000E+00  0.00000000000E+00  0.45593999997E+02  0.45594000000E+02  0.51100000000E-03 0. -1.
         11   -1    0    0    0    0 -0.00000000000E+00 -0.00000000000E+00 -0.45593999997E+02  0.45594000000E+02  0.51100000000E-03 0.  1.
         23    2    1    2    0    0  0.00000000000E+00  0.00000000000E+00  0.00000000000E+00  0.91188000000E+02  0.91188000000E+02 0.  0.
    9900012    2    3    3    0    0  0.17182937400E+02 -0.22598168217E+02  0.23448880975E+02  0.54367074381E+02  0.39999977667E+02 0.  0.
        -12    1    3    3    0    0 -0.17182937400E+02  0.22598168217E+02 -0.23448880975E+02  0.36820925619E+02  0.00000000000E+00 0.  1.
         11    1    4    4    0    0 -0.31394083767E+01 -0.11192983613E+01  0.42852231179E+01  0.54287983209E+01  0.51100000000E-03 0. -1.
        -11    1    4    4    0    0  0.33560422096E+01 -0.13989137689E+02 -0.76826099833E+01  0.16308938930E+02  0.51100000000E-03 0.  1.
         12    1    4    4    0    0  0.16966303567E+02 -0.74897321668E+01  0.26846267840E+02  0.32629337131E+02  0.00000000000E+00 0. -1.
</event>
<event>
 8    1  0.2514877E-006  0.9118800E+02  0.7816164E-02  0.1184000E+00
        -11   -1    0    0    0    0  0.00000000000E+00  0.00000000000E+00  0.45593999997E+02  0.45594000000E+02  0.51100000000E-03 0. -1.
         11   -1    0    0    0    0 -0.00000000000E+00 -0.00000000000E+00 -0.45593999997E+02  0.45594000000E+02  0.51100000000E-03 0.  1.
         23    2    1    2    0    0  0.00000000000E+00  0.00000000000E+00  0.35527136788E-14  0.91188000000E+02  0.91188000000E+02 0.  0.
    9900012    2    3    3    0    0 -0.31316214036E+02 -0.16652408355E+02  0.98879523694E+01  0.54367087904E+02  0.40000008494E+02 0.  0.
        -12    1    3    3    0    0  0.31316214036E+02  0.16652408355E+02 -0.98879523694E+01  0.36820912096E+02  0.00000000000E+00 0.  1.
         11    1    4    4    0    0 -0.15344091238E+02 -0.36191996936E+00 -0.11784566736E+02  0.19350662402E+02  0.51100000000E-03 0. -1.
        -11    1    4    4    0    0 -0.56846203219E+01  0.22344891796E+01  0.67266122165E+01  0.90859871379E+01  0.51100000000E-03 0.  1.
         12    1    4    4    0    0 -0.10287502475E+02 -0.18524977566E+02  0.14945906889E+02  0.25930438363E+02  0.00000000000E+00 0. -1.
</event>
<event>
 8    1  0.2514877E-006  0.9118800E+02  0.7816164E-02  0.1184000E+00
        -11   -1    0    0    0    0  0.00000000000E+00  0.00000000000E+00  0.45593999997E+02  0.45594000000E+02  0.51100000000E-03 0.  1.
         11   -1    0    0    0    0 -0.00000000000E+00 -0.00000000000E+00 -0.45593999997E+02  0.45594000000E+02  0.51100000000E-03 0. -1.
         23    2    1    2    0    0  0.00000000000E+00  0.00000000000E+00  0.44408920985E-15  0.91188000000E+02  0.91188000000E+02 0.  0.
    9900012    2    3    3    0    0  0.31477798651E+02  0.18727491404E+02 -0.37696380056E+01  0.54367069636E+02  0.39999966850E+02 0.  0.
        -12    1    3    3    0    0 -0.31477798651E+02 -0.18727491404E+02  0.37696380056E+01  0.36820930364E+02  0.00000000000E+00 0.  1.
         11    1    4    4    0    0  0.24708918381E+02  0.15933688752E+02  0.10038865363E+02  0.31067537766E+02  0.51100000000E-03 0. -1.
        -11    1    4    4    0    0 -0.39222413984E+01  0.32671999558E+01 -0.11164453310E+02  0.12276139097E+02  0.51100000000E-03 0.  1.
         12    1    4    4    0    0  0.10691121668E+02 -0.47339730387E+00 -0.26440500585E+01  0.11023392774E+02  0.00000000000E+00 0. -1.
</event>
<event>
 8    1  0.2514877E-006  0.9118800E+02  0.7816164E-02  0.1184000E+00
        -11   -1    0    0    0    0  0.00000000000E+00  0.00000000000E+00  0.45593999997E+02  0.45594000000E+02  0.51100000000E-03 0.  1.
         11   -1    0    0    0    0 -0.00000000000E+00 -0.00000000000E+00 -0.45593999997E+02  0.45594000000E+02  0.51100000000E-03 0. -1.
         23    2    1    2    0    0  0.00000000000E+00  0.00000000000E+00  0.00000000000E+00  0.91188000000E+02  0.91188000000E+02 0.  0.
    9900012    2    3    3    0    0 -0.26493553150E+01  0.31475480147E+02  0.18922364292E+02  0.54367071108E+02  0.39999970204E+02 0.  0.
         12    1    3    3    0    0  0.26493553150E+01 -0.31475480147E+02 -0.18922364292E+02  0.36820928892E+02  0.00000000000E+00 0. -1.
         11    1    4    4    0    0 -0.93346955634E+01  0.79136844625E+01 -0.82024678552E+01  0.14732393635E+02  0.51100000000E-03 0. -1.
        -11    1    4    4    0    0 -0.17008191856E+01  0.71066212205E+01  0.17155365441E+02  0.18646807092E+02  0.51100000000E-03 0.  1.
         12    1    4    4    0    0  0.83861594340E+01  0.16455174464E+02  0.99694667069E+01  0.20987870381E+02  0.00000000000E+00 0. -1.
</event>
<event>
 8    1  0.2514877E-006  0.9118800E+02  0.7816164E-02  0.1184000E+00
        -11   -1    0    0    0    0  0.00000000000E+00  0.00000000000E+00  0.45593999997E+02  0.45594000000E+02  0.51100000000E-03 0. -1.
         11   -1    0    0    0    0 -0.00000000000E+00 -0.00000000000E+00 -0.45593999997E+02  0.45594000000E+02  0.51100000000E-03 0.  1.
         23    2    1    2    0    0 -0.35527136788E-14 -0.44408920985E-15  0.00000000000E+00  0.91188000000E+02  0.91188000000E+02 0.  0.
    9900012    2    3    3    0    0  0.29352157534E+02  0.35512003534E+01  0.21945837893E+02  0.54367082349E+02  0.39999995831E+02 0.  0.
        -12    1    3    3    0    0 -0.29352157534E+02 -0.35512003534E+01 -0.21945837893E+02  0.36820917651E+02  0.00000000000E+00 0.  1.
         11    1    4    4    0    0  0.11888793781E+02  0.12352456921E+01  0.27477347261E+02  0.29964543418E+02  0.51100000000E-03 0. -1.
        -11    1    4    4    0    0 -0.21821178143E+00  0.51358240081E+01  0.11918433073E+01  0.52768167823E+01  0.51100000000E-03 0.  1.
        -12    1    4    4    0    0  0.17681575534E+02 -0.28198693467E+01 -0.67233526753E+01  0.19125722148E+02  0.00000000000E+00 0.  1.
</event>
<event>
 8    1  0.2514877E-006  0.9118800E+02  0.7816164E-02  0.1184000E+00
        -11   -1    0    0    0    0  0.00000000000E+00  0.00000000000E+00  0.45593999997E+02  0.45594000000E+02  0.51100000000E-03 0.  1.
         11   -1    0    0    0    0 -0.00000000000E+00 -0.00000000000E+00 -0.45593999997E+02  0.45594000000E+02  0.51100000000E-03 0. -1.
         23    2    1    2    0    0  0.66613381478E-15  0.00000000000E+00  0.00000000000E+00  0.91188000000E+02  0.91188000000E+02 0.  0.
    9900012    2    3    3    0    0  0.13342097939E+01 -0.17790187578E+02  0.32210373193E+02  0.54367095189E+02  0.40000025103E+02 0.  0.
         12    1    3    3    0    0 -0.13342097939E+01  0.17790187578E+02 -0.32210373193E+02  0.36820904811E+02  0.00000000000E+00 0. -1.
         11    1    4    4    0    0 -0.10003120395E+02 -0.15316716597E+01  0.30385386563E+02  0.32026241625E+02  0.51100000000E-03 0. -1.
        -11    1    4    4    0    0  0.82798900138E+01 -0.80934647259E+01  0.55739677353E+01  0.12850286630E+02  0.51100000000E-03 0.  1.
         12    1    4    4    0    0  0.30574401756E+01 -0.81650511925E+01 -0.37489811054E+01  0.94905669342E+01  0.00000000000E+00 0. -1.
</event>
<event>
 8    1  0.2514877E-006  0.9118800E+02  0.7816164E-02  0.1184000E+00
        -11   -1    0    0    0    0  0.00000000000E+00  0.00000000000E+00  0.45593999997E+02  0.45594000000E+02  0.51100000000E-03 0. -1.
         11   -1    0    0    0    0 -0.00000000000E+00 -0.00000000000E+00 -0.45593999997E+02  0.45594000000E+02  0.51100000000E-03 0.  1.
         23    2    1    2    0    0  0.00000000000E+00 -0.88817841970E-15  0.00000000000E+00  0.91188000000E+02  0.91188000000E+02 0.  0.
    9900012    2    3    3    0    0  0.34615237325E+02 -0.68640079409E+01 -0.10509509489E+02  0.54367094935E+02  0.40000024524E+02 0.  0.
         12    1    3    3    0    0 -0.34615237325E+02  0.68640079409E+01  0.10509509489E+02  0.36820905065E+02  0.00000000000E+00 0. -1.
         11    1    4    4    0    0  0.45107462055E+01  0.12013609438E+02  0.36964077894E+01  0.13354290467E+02  0.51100000000E-03 0. -1.
        -11    1    4    4    0    0  0.68461026021E+01 -0.59818806133E+01  0.27196153516E+01  0.94893795599E+01  0.51100000000E-03 0.  1.
        -12    1    4    4    0    0  0.23258388518E+02 -0.12895736766E+02 -0.16925532630E+02  0.31523424909E+02  0.00000000000E+00 0.  1.
</event>
<event>
 8    1  0.2514877E-006  0.9118800E+02  0.7816164E-02  0.1184000E+00
        -11   -1    0    0    0    0  0.00000000000E+00  0.00000000000E+00  0.45593999997E+02  0.45594000000E+02  0.51100000000E-03 0.  1.
         11   -1    0    0    0    0 -0.00000000000E+00 -0.00000000000E+00 -0.45593999997E+02  0.45594000000E+02  0.51100000000E-03 0. -1.
         23    2    1    2    0    0  0.00000000000E+00  0.17763568394E-14  0.26645352591E-14  0.91188000000E+02  0.91188000000E+02 0.  0.
    9900012    2    3    3    0    0 -0.34758527107E+02  0.10679231107E+02 -0.57951359854E+01  0.54367017059E+02  0.39999846989E+02 0.  0.
        -12    1    3    3    0    0  0.34758527107E+02 -0.10679231107E+02  0.57951359854E+01  0.36820982941E+02  0.00000000000E+00 0.  1.
         11    1    4    4    0    0 -0.76351511450E+01 -0.79199510480E+01 -0.16157147237E+02  0.19546727723E+02  0.51100000000E-03 0. -1.
        -11    1    4    4    0    0 -0.20640886100E+02  0.12554835785E+02  0.57726476150E+01  0.24839354688E+02  0.51100000000E-03 0.  1.
         12    1    4    4    0    0 -0.64824898614E+01  0.60443463700E+01  0.45893636362E+01  0.99809346471E+01  0.00000000000E+00 0. -1.
</event>
<event>
 8    1  0.2514877E-006  0.9118800E+02  0.7816164E-02  0.1184000E+00
        -11   -1    0    0    0    0  0.00000000000E+00  0.00000000000E+00  0.45593999997E+02  0.45594000000E+02  0.51100000000E-03 0. -1.
         11   -1    0    0    0    0 -0.00000000000E+00 -0.00000000000E+00 -0.45593999997E+02  0.45594000000E+02  0.51100000000E-03 0.  1.
         23    2    1    2    0    0 -0.35527136788E-14  0.44408920985E-15  0.35527136788E-14  0.91188000000E+02  0.91188000000E+02 0.  0.
    9900012    2    3    3    0    0 -0.27706297843E+02 -0.20404364211E+01  0.24165646864E+02  0.54367071042E+02  0.39999970055E+02 0.  0.
        -12    1    3    3    0    0  0.27706297843E+02  0.20404364211E+01 -0.24165646864E+02  0.36820928958E+02  0.00000000000E+00 0.  1.
         11    1    4    4    0    0 -0.79354735799E+01  0.39796008080E+01  0.14243927166E+02  0.16783873953E+02  0.51100000000E-03 0. -1.
        -11    1    4    4    0    0  0.51395152826E+01  0.56896166785E+01 -0.14469023049E+01  0.78025561087E+01  0.51100000000E-03 0.  1.
        -12    1    4    4    0    0 -0.24910339546E+02 -0.11709653908E+02  0.11368622004E+02  0.29780640980E+02  0.00000000000E+00 0.  1.
</event>
<event>
 8    1  0.2514877E-006  0.9118800E+02  0.7816164E-02  0.1184000E+00
        -11   -1    0    0    0    0  0.00000000000E+00  0.00000000000E+00  0.45593999997E+02  0.45594000000E+02  0.51100000000E-03 0.  1.
         11   -1    0    0    0    0 -0.00000000000E+00 -0.00000000000E+00 -0.45593999997E+02  0.45594000000E+02  0.51100000000E-03 0. -1.
         23    2    1    2    0    0 -0.17763568394E-14  0.71054273576E-14  0.00000000000E+00  0.91188000000E+02  0.91188000000E+02 0.  0.
    9900012    2    3    3    0    0 -0.15987871703E+02  0.27857954642E+02  0.18002843368E+02  0.54367081384E+02  0.39999993631E+02 0.  0.
        -12    1    3    3    0    0  0.15987871703E+02 -0.27857954642E+02 -0.18002843368E+02  0.36820918616E+02  0.00000000000E+00 0.  1.
         11    1    4    4    0    0 -0.40768672882E+01  0.26320563678E+02  0.85413657047E+01  0.27970481718E+02  0.51100000000E-03 0. -1.
        -11    1    4    4    0    0 -0.14707670683E+02  0.83496740325E+01  0.86262426782E+01  0.18985381122E+02  0.51100000000E-03 0.  1.
        -12    1    4    4    0    0  0.27966662678E+01 -0.68122830683E+01  0.83523498477E+00  0.74112185432E+01  0.00000000000E+00 0.  1.
</event>
<event>
 8    1  0.2514877E-006  0.9118800E+02  0.7816164E-02  0.1184000E+00
        -11   -1    0    0    0    0  0.00000000000E+00  0.00000000000E+00  0.45593999997E+02  0.45594000000E+02  0.51100000000E-03 0. -1.
         11   -1    0    0    0    0 -0.00000000000E+00 -0.00000000000E+00 -0.45593999997E+02  0.45594000000E+02  0.51100000000E-03 0.  1.
         23    2    1    2    0    0  0.00000000000E+00  0.71054273576E-14  0.00000000000E+00  0.91188000000E+02  0.91188000000E+02 0.  0.
    9900012    2    3    3    0    0  0.70340112469E+01 -0.34948277674E+02  0.92152595780E+01  0.54367076116E+02  0.39999981622E+02 0.  0.
        -12    1    3    3    0    0 -0.70340112469E+01  0.34948277674E+02 -0.92152595780E+01  0.36820923884E+02  0.00000000000E+00 0.  1.
         11    1    4    4    0    0 -0.57659216627E+01 -0.27057334666E+02  0.25726138664E+01  0.27784232114E+02  0.51100000000E-03 0. -1.
        -11    1    4    4    0    0  0.28867510150E+01 -0.69701076804E+01 -0.65941290933E+01  0.10019893775E+02  0.51100000000E-03 0.  1.
        -12    1    4    4    0    0  0.99131818946E+01 -0.92083532776E+00  0.13236774805E+02  0.16562950227E+02  0.00000000000E+00 0.  1.
</event>
<event>
 8    1  0.2514877E-006  0.9118800E+02  0.7816164E-02  0.1184000E+00
        -11   -1    0    0    0    0  0.00000000000E+00  0.00000000000E+00  0.45593999997E+02  0.45594000000E+02  0.51100000000E-03 0. -1.
         11   -1    0    0    0    0 -0.00000000000E+00 -0.00000000000E+00 -0.45593999997E+02  0.45594000000E+02  0.51100000000E-03 0.  1.
         23    2    1    2    0    0  0.88817841970E-15  0.00000000000E+00 -0.71054273576E-14  0.91188000000E+02  0.91188000000E+02 0.  0.
    9900012    2    3    3    0    0  0.54061118115E+01 -0.79209009900E+01 -0.35550118019E+02  0.54367114506E+02  0.40000069139E+02 0.  0.
         12    1    3    3    0    0 -0.54061118115E+01  0.79209009900E+01  0.35550118019E+02  0.36820885494E+02  0.00000000000E+00 0. -1.
         11    1    4    4    0    0  0.39275817530E+01 -0.20160337595E+02 -0.12018263212E+02  0.23797137669E+02  0.51100000000E-03 0. -1.
        -11    1    4    4    0    0 -0.44338562977E+01  0.20904281421E+01 -0.77784591963E+00  0.49632666684E+01  0.51100000000E-03 0.  1.
        -12    1    4    4    0    0  0.59123863561E+01  0.10149008462E+02 -0.22754008887E+02  0.25606710168E+02  0.00000000000E+00 0.  1.
</event>
<event>
 8    1  0.2514877E-006  0.9118800E+02  0.7816164E-02  0.1184000E+00
        -11   -1    0    0    0    0  0.00000000000E+00  0.00000000000E+00  0.45593999997E+02  0.45594000000E+02  0.51100000000E-03 0. -1.
         11   -1    0    0    0    0 -0.00000000000E+00 -0.00000000000E+00 -0.45593999997E+02  0.45594000000E+02  0.51100000000E-03 0.  1.
         23    2    1    2    0    0 -0.35527136788E-14 -0.35527136788E-14  0.00000000000E+00  0.91188000000E+02  0.91188000000E+02 0.  0.
    9900012    2    3    3    0    0  0.21478694978E+02  0.22664827852E+02 -0.19512837511E+02  0.54367087637E+02  0.40000007887E+02 0.  0.
         12    1    3    3    0    0 -0.21478694978E+02 -0.22664827852E+02  0.19512837511E+02  0.36820912363E+02  0.00000000000E+00 0. -1.
         11    1    4    4    0    0  0.18315063142E+02  0.24401071125E+01 -0.53065595102E+01  0.19223819462E+02  0.51100000000E-03 0. -1.
        -11    1    4    4    0    0  0.45414579794E+01 -0.50490349160E+01 -0.22851225296E+01  0.71651503402E+01  0.51100000000E-03 0.  1.
        -12    1    4    4    0    0 -0.13778261437E+01  0.25273755655E+02 -0.11921155471E+02  0.27978117835E+02  0.00000000000E+00 0.  1.
</event>
<event>
 8    1  0.2514877E-006  0.9118800E+02  0.7816164E-02  0.1184000E+00
        -11   -1    0    0    0    0  0.00000000000E+00  0.00000000000E+00  0.45593999997E+02  0.45594000000E+02  0.51100000000E-03 0.  1.
         11   -1    0    0    0    0 -0.00000000000E+00 -0.00000000000E+00 -0.45593999997E+02  0.45594000000E+02  0.51100000000E-03 0. -1.
         23    2    1    2    0    0  0.17763568394E-14 -0.35527136788E-14 -0.35527136788E-14  0.91188000000E+02  0.91188000000E+02 0.  0.
    9900012    2    3    3    0    0  0.74037599070E+01  0.19048409213E+02  0.30628758611E+02  0.54367103645E+02  0.40000044380E+02 0.  0.
         12    1    3    3    0    0 -0.74037599070E+01 -0.19048409213E+02 -0.30628758611E+02  0.36820896355E+02  0.00000000000E+00 0. -1.
         11    1    4    4    0    0 -0.79920089875E+01  0.13988542275E+02  0.44581943354E+01  0.16716070699E+02  0.51100000000E-03 0. -1.
        -11    1    4    4    0    0 -0.49081359202E+01 -0.17355419124E+01  0.26392340175E+01  0.58367337100E+01  0.51100000000E-03 0.  1.
        -12    1    4    4    0    0  0.20303904815E+02  0.67954088502E+01  0.23531330258E+02  0.31814299236E+02  0.00000000000E+00 0.  1.
</event>
<event>
 8    1  0.2514877E-006  0.9118800E+02  0.7816164E-02  0.1184000E+00
        -11   -1    0    0    0    0  0.00000000000E+00  0.00000000000E+00  0.45593999997E+02  0.45594000000E+02  0.51100000000E-03 0.  1.
         11   -1    0    0    0    0 -0.00000000000E+00 -0.00000000000E+00 -0.45593999997E+02  0.45594000000E+02  0.51100000000E-03 0. -1.
         23    2    1    2    0    0  0.00000000000E+00  0.35527136788E-14  0.00000000000E+00  0.91188000000E+02  0.91188000000E+02 0.  0.
    9900012    2    3    3    0    0 -0.16404683170E+02  0.31491575415E+02  0.97440227266E+01  0.54367096549E+02  0.40000028203E+02 0.  0.
         12    1    3    3    0    0  0.16404683170E+02 -0.31491575415E+02 -0.97440227266E+01  0.36820903451E+02  0.00000000000E+00 0. -1.
         11    1    4    4    0    0 -0.12048094774E+02  0.20192691199E+02  0.37746230344E+01  0.23814893341E+02  0.51100000000E-03 0. -1.
        -11    1    4    4    0    0 -0.14815029493E+02  0.12429099008E+02  0.26343210600E+01  0.19516845256E+02  0.51100000000E-03 0.  1.
         12    1    4    4    0    0  0.10458441097E+02 -0.11302147923E+01  0.33350786322E+01  0.11035357952E+02  0.00000000000E+00 0. -1.
</event>
<event>
 8    1  0.2514877E-006  0.9118800E+02  0.7816164E-02  0.1184000E+00
        -11   -1    0    0    0    0  0.00000000000E+00  0.00000000000E+00  0.45593999997E+02  0.45594000000E+02  0.51100000000E-03 0.  1.
         11   -1    0    0    0    0 -0.00000000000E+00 -0.00000000000E+00 -0.45593999997E+02  0.45594000000E+02  0.51100000000E-03 0. -1.
         23    2    1    2    0    0  0.88817841970E-15 -0.35527136788E-14  0.00000000000E+00  0.91188000000E+02  0.91188000000E+02 0.  0.
    9900012    2    3    3    0    0 -0.31184904263E+01  0.27709361779E+02  0.24046810798E+02  0.54367043707E+02  0.39999907739E+02 0.  0.
         12    1    3    3    0    0  0.31184904263E+01 -0.27709361779E+02 -0.24046810798E+02  0.36820956293E+02  0.00000000000E+00 0. -1.
         11    1    4    4    0    0 -0.12451690052E+02  0.82344414981E+00  0.45623828836E+01  0.13286759698E+02  0.51100000000E-03 0. -1.
        -11    1    4    4    0    0  0.43348043333E+01  0.22556663697E+02  0.23884905385E+02  0.33137325047E+02  0.51100000000E-03 0.  1.
        -12    1    4    4    0    0  0.49983952926E+01  0.43292539324E+01 -0.44004774703E+01  0.79429589625E+01  0.00000000000E+00 0.  1.
</event>
<event>
 8    1  0.2514877E-006  0.9118800E+02  0.7816164E-02  0.1184000E+00
        -11   -1    0    0    0    0  0.00000000000E+00  0.00000000000E+00  0.45593999997E+02  0.45594000000E+02  0.51100000000E-03 0.  1.
         11   -1    0    0    0    0 -0.00000000000E+00 -0.00000000000E+00 -0.45593999997E+02  0.45594000000E+02  0.51100000000E-03 0. -1.
         23    2    1    2    0    0  0.17763568394E-14  0.00000000000E+00  0.00000000000E+00  0.91188000000E+02  0.91188000000E+02 0.  0.
    9900012    2    3    3    0    0  0.49227829654E+01 -0.34724005768E+02 -0.11215644748E+02  0.54367067695E+02  0.39999962424E+02 0.  0.
        -12    1    3    3    0    0 -0.49227829654E+01  0.34724005768E+02  0.11215644748E+02  0.36820932305E+02  0.00000000000E+00 0.  1.
         11    1    4    4    0    0  0.13101105754E+02 -0.80895557535E+01  0.79416577859E+01  0.17324832262E+02  0.51100000000E-03 0. -1.
        -11    1    4    4    0    0 -0.85852681277E+01 -0.73091690231E+01 -0.25540783842E+01  0.11560886527E+02  0.51100000000E-03 0.  1.
        -12    1    4    4    0    0  0.40694533912E+00 -0.19325280991E+02 -0.16603224150E+02  0.25481348906E+02  0.00000000000E+00 0.  1.
</event>
<event>
 8    1  0.2514877E-006  0.9118800E+02  0.7816164E-02  0.1184000E+00
        -11   -1    0    0    0    0  0.00000000000E+00  0.00000000000E+00  0.45593999997E+02  0.45594000000E+02  0.51100000000E-03 0.  1.
         11   -1    0    0    0    0 -0.00000000000E+00 -0.00000000000E+00 -0.45593999997E+02  0.45594000000E+02  0.51100000000E-03 0. -1.
         23    2    1    2    0    0 -0.35527136788E-14  0.17763568394E-14  0.17763568394E-14  0.91188000000E+02  0.91188000000E+02 0.  0.
    9900012    2    3    3    0    0  0.31259245864E+02 -0.14017260929E+02 -0.13496531817E+02  0.54367076233E+02  0.39999981889E+02 0.  0.
         12    1    3    3    0    0 -0.31259245864E+02  0.14017260929E+02  0.13496531817E+02  0.36820923767E+02  0.00000000000E+00 0. -1.
         11    1    4    4    0    0  0.20458853131E+02  0.91070592185E+00 -0.19353399339E+02  0.28177085069E+02  0.51100000000E-03 0.  1.
        -11    1    4    4    0    0 -0.47282706418E+01 -0.35059222658E+01  0.32887271181E+01  0.67426819971E+01  0.51100000000E-03 0. -1.
        -12    1    4    4    0    0  0.15528663375E+02 -0.11422044585E+02  0.25681404046E+01  0.19447309167E+02  0.00000000000E+00 0.  1.
</event>
<event>
 8    1  0.2514877E-006  0.9118800E+02  0.7816164E-02  0.1184000E+00
        -11   -1    0    0    0    0  0.00000000000E+00  0.00000000000E+00  0.45593999997E+02  0.45594000000E+02  0.51100000000E-03 0.  1.
         11   -1    0    0    0    0 -0.00000000000E+00 -0.00000000000E+00 -0.45593999997E+02  0.45594000000E+02  0.51100000000E-03 0. -1.
         23    2    1    2    0    0 -0.35527136788E-14  0.71054273576E-14  0.00000000000E+00  0.91188000000E+02  0.91188000000E+02 0.  0.
    9900012    2    3    3    0    0 -0.22308838976E+02  0.24155278777E+02 -0.16571626298E+02  0.54367074056E+02  0.39999976925E+02 0.  0.
        -12    1    3    3    0    0  0.22308838976E+02 -0.24155278777E+02  0.16571626298E+02  0.36820925944E+02  0.00000000000E+00 0.  1.
         11    1    4    4    0    0 -0.87656466699E+00  0.17724723826E+01  0.10816463018E+01  0.22538817506E+01  0.51100000000E-03 0. -1.
        -11    1    4    4    0    0 -0.27578132644E+02  0.27426853957E+01 -0.56338447547E+01  0.28281017137E+02  0.51100000000E-03 0.  1.
         12    1    4    4    0    0  0.61458583354E+01  0.19640120999E+02 -0.12019427845E+02  0.23832175168E+02  0.00000000000E+00 0. -1.
</event>
<event>
 8    1  0.2514877E-006  0.9118800E+02  0.7816164E-02  0.1184000E+00
        -11   -1    0    0    0    0  0.00000000000E+00  0.00000000000E+00  0.45593999997E+02  0.45594000000E+02  0.51100000000E-03 0. -1.
         11   -1    0    0    0    0 -0.00000000000E+00 -0.00000000000E+00 -0.45593999997E+02  0.45594000000E+02  0.51100000000E-03 0.  1.
         23    2    1    2    0    0  0.71054273576E-14  0.00000000000E+00  0.00000000000E+00  0.91188000000E+02  0.91188000000E+02 0.  0.
    9900012    2    3    3    0    0 -0.34128062563E+02 -0.13563567196E+02  0.26617727850E+01  0.54367081438E+02  0.39999993753E+02 0.  0.
        -12    1    3    3    0    0  0.34128062563E+02  0.13563567196E+02 -0.26617727850E+01  0.36820918562E+02  0.00000000000E+00 0.  1.
         11    1    4    4    0    0  0.22264638536E+01 -0.11464480806E+02  0.40793747649E+00  0.11685797991E+02  0.51100000000E-03 0. -1.
        -11    1    4    4    0    0 -0.17880798138E+02  0.10007533371E+02  0.12025378447E+00  0.20491171940E+02  0.51100000000E-03 0.  1.
        -12    1    4    4    0    0 -0.18473728279E+02 -0.12106619761E+02  0.21335815241E+01  0.22190111507E+02  0.00000000000E+00 0.  1.
</event>
<event>
 8    1  0.2514877E-006  0.9118800E+02  0.7816164E-02  0.1184000E+00
        -11   -1    0    0    0    0  0.00000000000E+00  0.00000000000E+00  0.45593999997E+02  0.45594000000E+02  0.51100000000E-03 0. -1.
         11   -1    0    0    0    0 -0.00000000000E+00 -0.00000000000E+00 -0.45593999997E+02  0.45594000000E+02  0.51100000000E-03 0.  1.
         23    2    1    2    0    0  0.00000000000E+00  0.00000000000E+00  0.00000000000E+00  0.91188000000E+02  0.91188000000E+02 0.  0.
    9900012    2    3    3    0    0  0.84039071864E+01  0.19697034814E+02  0.29952975208E+02  0.54367088003E+02  0.40000008721E+02 0.  0.
        -12    1    3    3    0    0 -0.84039071864E+01 -0.19697034814E+02 -0.29952975208E+02  0.36820911997E+02  0.00000000000E+00 0.  1.
         11    1    4    4    0    0 -0.41896249910E+01  0.62136529879E+01  0.10601892724E+02  0.12983164892E+02  0.51100000000E-03 0. -1.
        -11    1    4    4    0    0  0.11872010900E+02  0.24009734990E+01 -0.61391830130E+01  0.13579355098E+02  0.51100000000E-03 0.  1.
        -12    1    4    4    0    0  0.72152127729E+00  0.11082408327E+02  0.25490265497E+02  0.27804568013E+02  0.00000000000E+00 0.  1.
</event>
<event>
 8    1  0.2514877E-006  0.9118800E+02  0.7816164E-02  0.1184000E+00
        -11   -1    0    0    0    0  0.00000000000E+00  0.00000000000E+00  0.45593999997E+02  0.45594000000E+02  0.51100000000E-03 0. -1.
         11   -1    0    0    0    0 -0.00000000000E+00 -0.00000000000E+00 -0.45593999997E+02  0.45594000000E+02  0.51100000000E-03 0.  1.
         23    2    1    2    0    0  0.17763568394E-14  0.00000000000E+00 -0.35527136788E-14  0.91188000000E+02  0.91188000000E+02 0.  0.
    9900012    2    3    3    0    0 -0.15081381606E+02  0.10685840816E+02  0.31845621086E+02  0.54367097683E+02  0.40000030788E+02 0.  0.
        -12    1    3    3    0    0  0.15081381606E+02 -0.10685840816E+02 -0.31845621086E+02  0.36820902317E+02  0.00000000000E+00 0.  1.
         11    1    4    4    0    0 -0.10160499618E+02  0.14338773619E+02  0.35213405715E+00  0.17577263156E+02  0.51100000000E-03 0. -1.
        -11    1    4    4    0    0  0.18935020373E+01 -0.64450188621E+01  0.29942830753E+01  0.73545461787E+01  0.51100000000E-03 0.  1.
         12    1    4    4    0    0 -0.68143840256E+01  0.27920860594E+01  0.28499203953E+02  0.29435288349E+02  0.00000000000E+00 0. -1.
</event>
<event>
 8    1  0.2514877E-006  0.9118800E+02  0.7816164E-02  0.1184000E+00
        -11   -1    0    0    0    0  0.00000000000E+00  0.00000000000E+00  0.45593999997E+02  0.45594000000E+02  0.51100000000E-03 0.  1.
         11   -1    0    0    0    0 -0.00000000000E+00 -0.00000000000E+00 -0.45593999997E+02  0.45594000000E+02  0.51100000000E-03 0. -1.
         23    2    1    2    0    0  0.00000000000E+00  0.00000000000E+00  0.35527136788E-14  0.91188000000E+02  0.91188000000E+02 0.  0.
    9900012    2    3    3    0    0  0.52876867676E+01  0.23525348304E+02  0.27827632109E+02  0.54367098966E+02  0.40000033712E+02 0.  0.
        -12    1    3    3    0    0 -0.52876867676E+01 -0.23525348304E+02 -0.27827632109E+02  0.36820901034E+02  0.00000000000E+00 0.  1.
         11    1    4    4    0    0 -0.77047011265E+01  0.12999484742E+02  0.24102141878E+02  0.28447535331E+02  0.51100000000E-03 0. -1.
        -11    1    4    4    0    0  0.60520823326E+01  0.11330543576E+02  0.10193375825E+02  0.16398592295E+02  0.51100000000E-03 0.  1.
        -12    1    4    4    0    0  0.69403055615E+01 -0.80468001437E+00 -0.64678855937E+01  0.95209713405E+01  0.00000000000E+00 0.  1.
</event>
<event>
 8    1  0.2514877E-006  0.9118800E+02  0.7816164E-02  0.1184000E+00
        -11   -1    0    0    0    0  0.00000000000E+00  0.00000000000E+00  0.45593999997E+02  0.45594000000E+02  0.51100000000E-03 0.  1.
         11   -1    0    0    0    0 -0.00000000000E+00 -0.00000000000E+00 -0.45593999997E+02  0.45594000000E+02  0.51100000000E-03 0. -1.
         23    2    1    2    0    0  0.17763568394E-14 -0.27755575616E-15  0.00000000000E+00  0.91188000000E+02  0.91188000000E+02 0.  0.
    9900012    2    3    3    0    0  0.88316111335E+01  0.19973772172E+00  0.35745360006E+02  0.54367244816E+02  0.40000366205E+02 0.  0.
         12    1    3    3    0    0 -0.88316111335E+01 -0.19973772172E+00 -0.35745360006E+02  0.36820755184E+02  0.00000000000E+00 0. -1.
         11    1    4    4    0    0  0.84567740259E+01  0.78031721635E+00  0.29704154828E+02  0.30894380334E+02  0.51100000000E-03 0. -1.
        -11    1    4    4    0    0 -0.25602232536E+01  0.44176286154E+01  0.13263471669E+02  0.14212313909E+02  0.51100000000E-03 0.  1.
         12    1    4    4    0    0  0.29350603612E+01 -0.49982081100E+01 -0.72222664914E+01  0.92605505726E+01  0.00000000000E+00 0. -1.
</event>
<event>
 8    1  0.2514877E-006  0.9118800E+02  0.7816164E-02  0.1184000E+00
        -11   -1    0    0    0    0  0.00000000000E+00  0.00000000000E+00  0.45593999997E+02  0.45594000000E+02  0.51100000000E-03 0. -1.
         11   -1    0    0    0    0 -0.00000000000E+00 -0.00000000000E+00 -0.45593999997E+02  0.45594000000E+02  0.51100000000E-03 0.  1.
         23    2    1    2    0    0  0.00000000000E+00  0.00000000000E+00 -0.88817841970E-15  0.91188000000E+02  0.91188000000E+02 0.  0.
    9900012    2    3    3    0    0 -0.88876487252E+01  0.35209388687E+02  0.60900178509E+01  0.54367086527E+02  0.40000005356E+02 0.  0.
        -12    1    3    3    0    0  0.88876487252E+01 -0.35209388687E+02 -0.60900178509E+01  0.36820913473E+02  0.00000000000E+00 0.  1.
         11    1    4    4    0    0 -0.12509915269E+02  0.17093825089E+02  0.14297291429E+02  0.25556004748E+02  0.51100000000E-03 0.  1.
        -11    1    4    4    0    0 -0.45896938698E+01  0.81434086942E+01  0.47749166182E+01  0.10496676805E+02  0.51100000000E-03 0. -1.
        -12    1    4    4    0    0  0.82119604133E+01  0.99721549031E+01 -0.12982190197E+02  0.18314404974E+02  0.00000000000E+00 0.  1.
</event>
<event>
 8    1  0.2514877E-006  0.9118800E+02  0.7816164E-02  0.1184000E+00
        -11   -1    0    0    0    0  0.00000000000E+00  0.00000000000E+00  0.45593999997E+02  0.45594000000E+02  0.51100000000E-03 0.  1.
         11   -1    0    0    0    0 -0.00000000000E+00 -0.00000000000E+00 -0.45593999997E+02  0.45594000000E+02  0.51100000000E-03 0. -1.
         23    2    1    2    0    0  0.00000000000E+00  0.00000000000E+00  0.17763568394E-14  0.91188000000E+02  0.91188000000E+02 0.  0.
    9900012    2    3    3    0    0 -0.22488078838E+02 -0.28016460743E+02 -0.80712205245E+01  0.54367077101E+02  0.39999983866E+02 0.  0.
        -12    1    3    3    0    0  0.22488078838E+02  0.28016460743E+02  0.80712205245E+01  0.36820922899E+02  0.00000000000E+00 0.  1.
         11    1    4    4    0    0 -0.24818651930E+02 -0.19016803407E+02 -0.40771271936E+01  0.31531369489E+02  0.51100000000E-03 0. -1.
        -11    1    4    4    0    0  0.32596639659E+01 -0.78564617861E+01  0.74439589045E+01  0.11303182092E+02  0.51100000000E-03 0.  1.
         12    1    4    4    0    0 -0.92909087404E+00 -0.11431955496E+01 -0.11438052235E+02  0.11532525519E+02  0.00000000000E+00 0. -1.
</event>
<event>
 8    1  0.2514877E-006  0.9118800E+02  0.7816164E-02  0.1184000E+00
        -11   -1    0    0    0    0  0.00000000000E+00  0.00000000000E+00  0.45593999997E+02  0.45594000000E+02  0.51100000000E-03 0.  1.
         11   -1    0    0    0    0 -0.00000000000E+00 -0.00000000000E+00 -0.45593999997E+02  0.45594000000E+02  0.51100000000E-03 0. -1.
         23    2    1    2    0    0  0.00000000000E+00  0.14210854715E-13  0.17763568394E-14  0.91188000000E+02  0.91188000000E+02 0.  0.
    9900012    2    3    3    0    0  0.87867132474E+01  0.32165009153E+02  0.15619946309E+02  0.54367124587E+02  0.40000092120E+02 0.  0.
         12    1    3    3    0    0 -0.87867132474E+01 -0.32165009153E+02 -0.15619946309E+02  0.36820875413E+02  0.00000000000E+00 0. -1.
         11    1    4    4    0    0  0.58256437044E+01  0.79860465394E+01 -0.84099192803E+01  0.12978513261E+02  0.51100000000E-03 0. -1.
        -11    1    4    4    0    0  0.48949059199E+01 -0.43181008887E+00 -0.21865803863E+01  0.53784475423E+01  0.51100000000E-03 0.  1.
        -12    1    4    4    0    0 -0.19338363769E+01  0.24610772703E+02  0.26216445975E+02  0.36010163784E+02  0.00000000000E+00 0.  1.
</event>
<event>
 8    1  0.2514877E-006  0.9118800E+02  0.7816164E-02  0.1184000E+00
        -11   -1    0    0    0    0  0.00000000000E+00  0.00000000000E+00  0.45593999997E+02  0.45594000000E+02  0.51100000000E-03 0.  1.
         11   -1    0    0    0    0 -0.00000000000E+00 -0.00000000000E+00 -0.45593999997E+02  0.45594000000E+02  0.51100000000E-03 0. -1.
         23    2    1    2    0    0 -0.35527136788E-14  0.00000000000E+00  0.71054273576E-14  0.91188000000E+02  0.91188000000E+02 0.  0.
    9900012    2    3    3    0    0 -0.28546748543E+02 -0.51600618509E+01 -0.22676772491E+02  0.54367094236E+02  0.40000022929E+02 0.  0.
        -12    1    3    3    0    0  0.28546748543E+02  0.51600618509E+01  0.22676772491E+02  0.36820905764E+02  0.00000000000E+00 0.  1.
         11    1    4    4    0    0 -0.25918495437E+02  0.96269755260E+01 -0.19745153555E+02  0.33975257949E+02  0.51100000000E-03 0. -1.
        -11    1    4    4    0    0  0.10077583359E+01 -0.13609291760E+02 -0.65425459339E+01  0.15133846393E+02  0.51100000000E-03 0.  1.
        -12    1    4    4    0    0 -0.36360114416E+01 -0.11777456167E+01  0.36109269982E+01  0.52579898942E+01  0.00000000000E+00 0.  1.
</event>
<event>
 8    1  0.2514877E-006  0.9118800E+02  0.7816164E-02  0.1184000E+00
        -11   -1    0    0    0    0  0.00000000000E+00  0.00000000000E+00  0.45593999997E+02  0.45594000000E+02  0.51100000000E-03 0. -1.
         11   -1    0    0    0    0 -0.00000000000E+00 -0.00000000000E+00 -0.45593999997E+02  0.45594000000E+02  0.51100000000E-03 0.  1.
         23    2    1    2    0    0  0.00000000000E+00  0.00000000000E+00  0.35527136788E-14  0.91188000000E+02  0.91188000000E+02 0.  0.
    9900012    2    3    3    0    0  0.20345715366E+02  0.18456370923E+02 -0.24519250478E+02  0.54367090106E+02  0.40000013515E+02 0.  0.
         12    1    3    3    0    0 -0.20345715366E+02 -0.18456370923E+02  0.24519250478E+02  0.36820909894E+02  0.00000000000E+00 0. -1.
         11    1    4    4    0    0 -0.44325742828E+00 -0.41602824044E+01 -0.22312628341E+01  0.47416200742E+01  0.51100000000E-03 0. -1.
        -11    1    4    4    0    0  0.17493444901E+02  0.26924098080E+01 -0.23470234048E+02  0.29395944816E+02  0.51100000000E-03 0.  1.
        -12    1    4    4    0    0  0.32955278934E+01  0.19924243519E+02  0.11822464045E+01  0.20229525216E+02  0.00000000000E+00 0.  1.
</event>
<event>
 8    1  0.2514877E-006  0.9118800E+02  0.7816164E-02  0.1184000E+00
        -11   -1    0    0    0    0  0.00000000000E+00  0.00000000000E+00  0.45593999997E+02  0.45594000000E+02  0.51100000000E-03 0. -1.
         11   -1    0    0    0    0 -0.00000000000E+00 -0.00000000000E+00 -0.45593999997E+02  0.45594000000E+02  0.51100000000E-03 0.  1.
         23    2    1    2    0    0 -0.35527136788E-14  0.00000000000E+00  0.00000000000E+00  0.91188000000E+02  0.91188000000E+02 0.  0.
    9900012    2    3    3    0    0 -0.26714985594E+02  0.11309541637E+02 -0.22675602582E+02  0.54367093713E+02  0.40000021738E+02 0.  0.
         12    1    3    3    0    0  0.26714985594E+02 -0.11309541637E+02  0.22675602582E+02  0.36820906287E+02  0.00000000000E+00 0. -1.
         11    1    4    4    0    0  0.46959504781E+00  0.54263925006E+01 -0.18569031984E+02  0.19351361817E+02  0.51100000000E-03 0. -1.
        -11    1    4    4    0    0 -0.79218357571E+01  0.31071953839E+01 -0.11405690167E+02  0.14230246427E+02  0.51100000000E-03 0.  1.
         12    1    4    4    0    0 -0.19262744885E+02  0.27759537522E+01  0.72991195687E+01  0.20785485470E+02  0.00000000000E+00 0. -1.
</event>
<event>
 8    1  0.2514877E-006  0.9118800E+02  0.7816164E-02  0.1184000E+00
        -11   -1    0    0    0    0  0.00000000000E+00  0.00000000000E+00  0.45593999997E+02  0.45594000000E+02  0.51100000000E-03 0. -1.
         11   -1    0    0    0    0 -0.00000000000E+00 -0.00000000000E+00 -0.45593999997E+02  0.45594000000E+02  0.51100000000E-03 0.  1.
         23    2    1    2    0    0 -0.88817841970E-15  0.00000000000E+00 -0.17763568394E-14  0.91188000000E+02  0.91188000000E+02 0.  0.
    9900012    2    3    3    0    0  0.27777893509E+01 -0.33641978922E+02  0.14706416926E+02  0.54367115189E+02  0.40000070697E+02 0.  0.
         12    1    3    3    0    0 -0.27777893509E+01  0.33641978922E+02 -0.14706416926E+02  0.36820884811E+02  0.00000000000E+00 0. -1.
         11    1    4    4    0    0  0.14083490344E+02 -0.26269106232E+02  0.15364222465E+02  0.33533117581E+02  0.51100000000E-03 0. -1.
        -11    1    4    4    0    0 -0.93533547829E+01 -0.11508831749E+02 -0.37699302611E+01  0.15301987725E+02  0.51100000000E-03 0.  1.
         12    1    4    4    0    0 -0.19523462098E+01  0.41359590587E+01  0.31121247217E+01  0.55320098826E+01  0.00000000000E+00 0. -1.
</event>
<event>
 8    1  0.2514877E-006  0.9118800E+02  0.7816164E-02  0.1184000E+00
        -11   -1    0    0    0    0  0.00000000000E+00  0.00000000000E+00  0.45593999997E+02  0.45594000000E+02  0.51100000000E-03 0.  1.
         11   -1    0    0    0    0 -0.00000000000E+00 -0.00000000000E+00 -0.45593999997E+02  0.45594000000E+02  0.51100000000E-03 0. -1.
         23    2    1    2    0    0  0.00000000000E+00 -0.35527136788E-14 -0.15543122345E-14  0.91188000000E+02  0.91188000000E+02 0.  0.
    9900012    2    3    3    0    0 -0.32967372382E+02 -0.16358077230E+02  0.11579700592E+01  0.54367146845E+02  0.40000142862E+02 0.  0.
         12    1    3    3    0    0  0.32967372382E+02  0.16358077230E+02 -0.11579700592E+01  0.36820853155E+02  0.00000000000E+00 0. -1.
         11    1    4    4    0    0 -0.18037633505E+02  0.66715891368E+01  0.92843230330E+01  0.21355677899E+02  0.51100000000E-03 0.  1.
        -11    1    4    4    0    0 -0.15587712504E+02 -0.10677381678E+02 -0.83090136188E+01  0.20640323839E+02  0.51100000000E-03 0. -1.
        -12    1    4    4    0    0  0.65797362764E+00 -0.12352284689E+02  0.18266064499E+00  0.12371145106E+02  0.00000000000E+00 0.  1.
</event>
<event>
 8    1  0.2514877E-006  0.9118800E+02  0.7816164E-02  0.1184000E+00
        -11   -1    0    0    0    0  0.00000000000E+00  0.00000000000E+00  0.45593999997E+02  0.45594000000E+02  0.51100000000E-03 0.  1.
         11   -1    0    0    0    0 -0.00000000000E+00 -0.00000000000E+00 -0.45593999997E+02  0.45594000000E+02  0.51100000000E-03 0. -1.
         23    2    1    2    0    0  0.00000000000E+00  0.00000000000E+00  0.35527136788E-14  0.91188000000E+02  0.91188000000E+02 0.  0.
    9900012    2    3    3    0    0 -0.26482265830E+02 -0.36252118673E+01 -0.25324433888E+02  0.54367088600E+02  0.40000010080E+02 0.  0.
        -12    1    3    3    0    0  0.26482265830E+02  0.36252118673E+01  0.25324433888E+02  0.36820911400E+02  0.00000000000E+00 0.  1.
         11    1    4    4    0    0 -0.13543167785E+02  0.44507598734E+01 -0.30550276940E+02  0.33712699069E+02  0.51100000000E-03 0. -1.
        -11    1    4    4    0    0 -0.32985766739E+00 -0.38579174419E+01 -0.31057037893E+01  0.49636407362E+01  0.51100000000E-03 0.  1.
         12    1    4    4    0    0 -0.12609240378E+02 -0.42180542988E+01  0.83315468412E+01  0.15690748795E+02  0.00000000000E+00 0. -1.
</event>
<event>
 8    1  0.2514877E-006  0.9118800E+02  0.7816164E-02  0.1184000E+00
        -11   -1    0    0    0    0  0.00000000000E+00  0.00000000000E+00  0.45593999997E+02  0.45594000000E+02  0.51100000000E-03 0.  1.
         11   -1    0    0    0    0 -0.00000000000E+00 -0.00000000000E+00 -0.45593999997E+02  0.45594000000E+02  0.51100000000E-03 0. -1.
         23    2    1    2    0    0  0.00000000000E+00  0.00000000000E+00  0.00000000000E+00  0.91188000000E+02  0.91188000000E+02 0.  0.
    9900012    2    3    3    0    0  0.24079414119E+02 -0.25950450154E+02 -0.10125939160E+02  0.54367099802E+02  0.40000035619E+02 0.  0.
        -12    1    3    3    0    0 -0.24079414119E+02  0.25950450154E+02  0.10125939160E+02  0.36820900198E+02  0.00000000000E+00 0.  1.
         11    1    4    4    0    0 -0.12038343334E+01 -0.27107607110E+00 -0.61579917541E+01  0.62804109772E+01  0.51100000000E-03 0. -1.
        -11    1    4    4    0    0  0.12382779079E+02 -0.24347719552E+02 -0.14908570860E+02  0.31119289041E+02  0.51100000000E-03 0.  1.
        -12    1    4    4    0    0  0.12900469373E+02 -0.13316545315E+01  0.10940623454E+02  0.16967399784E+02  0.00000000000E+00 0.  1.
</event>
<event>
 8    1  0.2514877E-006  0.9118800E+02  0.7816164E-02  0.1184000E+00
        -11   -1    0    0    0    0  0.00000000000E+00  0.00000000000E+00  0.45593999997E+02  0.45594000000E+02  0.51100000000E-03 0.  1.
         11   -1    0    0    0    0 -0.00000000000E+00 -0.00000000000E+00 -0.45593999997E+02  0.45594000000E+02  0.51100000000E-03 0. -1.
         23    2    1    2    0    0 -0.88817841970E-15  0.00000000000E+00  0.35527136788E-14  0.91188000000E+02  0.91188000000E+02 0.  0.
    9900012    2    3    3    0    0 -0.70452813187E+01 -0.21032484169E+02 -0.29390095557E+02  0.54367094307E+02  0.40000023093E+02 0.  0.
        -12    1    3    3    0    0  0.70452813187E+01  0.21032484169E+02  0.29390095557E+02  0.36820905693E+02  0.00000000000E+00 0.  1.
         11    1    4    4    0    0 -0.63531042698E+01 -0.25289296118E+02 -0.16924406825E+02  0.31086105878E+02  0.51100000000E-03 0. -1.
        -11    1    4    4    0    0  0.41699297286E+01 -0.36808175611E+01  0.21414346678E+01  0.59600733684E+01  0.51100000000E-03 0.  1.
        -12    1    4    4    0    0 -0.48621067775E+01  0.79376295097E+01 -0.14607123400E+02  0.17320915061E+02  0.00000000000E+00 0.  1.
</event>
<event>
 8    1  0.2514877E-006  0.9118800E+02  0.7816164E-02  0.1184000E+00
        -11   -1    0    0    0    0  0.00000000000E+00  0.00000000000E+00  0.45593999997E+02  0.45594000000E+02  0.51100000000E-03 0.  1.
         11   -1    0    0    0    0 -0.00000000000E+00 -0.00000000000E+00 -0.45593999997E+02  0.45594000000E+02  0.51100000000E-03 0. -1.
         23    2    1    2    0    0  0.00000000000E+00  0.00000000000E+00  0.00000000000E+00  0.91188000000E+02  0.91188000000E+02 0.  0.
    9900012    2    3    3    0    0  0.32503729260E+02 -0.13349723893E+02 -0.11003400534E+02  0.54367049888E+02  0.39999921829E+02 0.  0.
        -12    1    3    3    0    0 -0.32503729260E+02  0.13349723893E+02  0.11003400534E+02  0.36820950112E+02  0.00000000000E+00 0.  1.
         11    1    4    4    0    0  0.10602872414E+02 -0.52954493509E+01 -0.13517241030E+02  0.17977165866E+02  0.51100000000E-03 0. -1.
        -11    1    4    4    0    0  0.27496455920E+02 -0.16907488345E+01  0.38338836056E+01  0.27813888322E+02  0.51100000000E-03 0.  1.
        -12    1    4    4    0    0 -0.55955990741E+01 -0.63635257078E+01 -0.13200431091E+01  0.85759956997E+01  0.00000000000E+00 0.  1.
</event>
<event>
 8    1  0.2514877E-006  0.9118800E+02  0.7816164E-02  0.1184000E+00
        -11   -1    0    0    0    0  0.00000000000E+00  0.00000000000E+00  0.45593999997E+02  0.45594000000E+02  0.51100000000E-03 0.  1.
         11   -1    0    0    0    0 -0.00000000000E+00 -0.00000000000E+00 -0.45593999997E+02  0.45594000000E+02  0.51100000000E-03 0. -1.
         23    2    1    2    0    0  0.00000000000E+00  0.44408920985E-15  0.00000000000E+00  0.91188000000E+02  0.91188000000E+02 0.  0.
    9900012    2    3    3    0    0 -0.33198396335E+02  0.24848939072E+01  0.15731017129E+02  0.54367175501E+02  0.40000208188E+02 0.  0.
         12    1    3    3    0    0  0.33198396335E+02 -0.24848939072E+01 -0.15731017129E+02  0.36820824499E+02  0.00000000000E+00 0. -1.
         11    1    4    4    0    0 -0.63024265536E+01  0.11484381104E+00 -0.28377677262E+01  0.69127921633E+01  0.51100000000E-03 0. -1.
        -11    1    4    4    0    0 -0.72978690299E+01 -0.15451346580E+02  0.88020068469E+01  0.19221819068E+02  0.51100000000E-03 0.  1.
        -12    1    4    4    0    0 -0.19598100751E+02  0.17821396676E+02  0.97667780082E+01  0.28232564269E+02  0.00000000000E+00 0.  1.
</event>
<event>
 8    1  0.2514877E-006  0.9118800E+02  0.7816164E-02  0.1184000E+00
        -11   -1    0    0    0    0  0.00000000000E+00  0.00000000000E+00  0.45593999997E+02  0.45594000000E+02  0.51100000000E-03 0. -1.
         11   -1    0    0    0    0 -0.00000000000E+00 -0.00000000000E+00 -0.45593999997E+02  0.45594000000E+02  0.51100000000E-03 0.  1.
         23    2    1    2    0    0  0.35527136788E-14  0.00000000000E+00 -0.35527136788E-14  0.91188000000E+02  0.91188000000E+02 0.  0.
    9900012    2    3    3    0    0  0.12589920466E+02 -0.29157839202E+02 -0.18630424899E+02  0.54367103539E+02  0.40000044138E+02 0.  0.
         12    1    3    3    0    0 -0.12589920466E+02  0.29157839202E+02  0.18630424899E+02  0.36820896461E+02  0.00000000000E+00 0. -1.
         11    1    4    4    0    0 -0.36326096156E+01 -0.18072367468E+01 -0.84404410103E+01  0.93649880933E+01  0.51100000000E-03 0.  1.
        -11    1    4    4    0    0 -0.22677400246E+01 -0.12436744928E+02  0.81063841817E+01  0.15017614124E+02  0.51100000000E-03 0. -1.
        -12    1    4    4    0    0  0.18490270106E+02 -0.14913857527E+02 -0.18296368071E+02  0.29984501322E+02  0.00000000000E+00 0.  1.
</event>
<event>
 8    1  0.2514877E-006  0.9118800E+02  0.7816164E-02  0.1184000E+00
        -11   -1    0    0    0    0  0.00000000000E+00  0.00000000000E+00  0.45593999997E+02  0.45594000000E+02  0.51100000000E-03 0. -1.
         11   -1    0    0    0    0 -0.00000000000E+00 -0.00000000000E+00 -0.45593999997E+02  0.45594000000E+02  0.51100000000E-03 0.  1.
         23    2    1    2    0    0 -0.35527136788E-14 -0.17763568394E-14 -0.35527136788E-14  0.91188000000E+02  0.91188000000E+02 0.  0.
    9900012    2    3    3    0    0  0.16674985484E+02  0.13974143773E+02 -0.29706024228E+02  0.54367085963E+02  0.40000004071E+02 0.  0.
         12    1    3    3    0    0 -0.16674985484E+02 -0.13974143773E+02  0.29706024228E+02  0.36820914037E+02  0.00000000000E+00 0. -1.
         11    1    4    4    0    0 -0.45985743995E+01  0.35119146656E+00  0.73779171592E+01  0.87007978843E+01  0.51100000000E-03 0. -1.
        -11    1    4    4    0    0  0.17372817801E+02  0.82731042896E+01 -0.31913542711E+02  0.37265711607E+02  0.51100000000E-03 0.  1.
         12    1    4    4    0    0  0.39007420829E+01  0.53498480169E+01 -0.51703986760E+01  0.84005764725E+01  0.00000000000E+00 0. -1.
</event>
<event>
 8    1  0.2514877E-006  0.9118800E+02  0.7816164E-02  0.1184000E+00
        -11   -1    0    0    0    0  0.00000000000E+00  0.00000000000E+00  0.45593999997E+02  0.45594000000E+02  0.51100000000E-03 0. -1.
         11   -1    0    0    0    0 -0.00000000000E+00 -0.00000000000E+00 -0.45593999997E+02  0.45594000000E+02  0.51100000000E-03 0.  1.
         23    2    1    2    0    0  0.00000000000E+00 -0.17763568394E-14 -0.71054273576E-14  0.91188000000E+02  0.91188000000E+02 0.  0.
    9900012    2    3    3    0    0  0.84931664342E+01 -0.11630378951E+02 -0.33887757477E+02  0.54367086141E+02  0.40000004475E+02 0.  0.
         12    1    3    3    0    0 -0.84931664342E+01  0.11630378951E+02  0.33887757477E+02  0.36820913859E+02  0.00000000000E+00 0. -1.
         11    1    4    4    0    0  0.20496727871E+01  0.40387905775E+01 -0.83312840121E+01  0.94827886939E+01  0.51100000000E-03 0. -1.
        -11    1    4    4    0    0  0.45294052646E+01 -0.13838856681E+02 -0.33490959456E+02  0.36519499337E+02  0.51100000000E-03 0.  1.
         12    1    4    4    0    0  0.19140883825E+01 -0.18303128478E+01  0.79344859917E+01  0.83647981093E+01  0.00000000000E+00 0. -1.
</event>
<event>
 8    1  0.2514877E-006  0.9118800E+02  0.7816164E-02  0.1184000E+00
        -11   -1    0    0    0    0  0.00000000000E+00  0.00000000000E+00  0.45593999997E+02  0.45594000000E+02  0.51100000000E-03 0.  1.
         11   -1    0    0    0    0 -0.00000000000E+00 -0.00000000000E+00 -0.45593999997E+02  0.45594000000E+02  0.51100000000E-03 0. -1.
         23    2    1    2    0    0 -0.71054273576E-14 -0.88817841970E-15  0.17763568394E-14  0.91188000000E+02  0.91188000000E+02 0.  0.
    9900012    2    3    3    0    0  0.34934160475E+02  0.73965308421E+01 -0.89820199171E+01  0.54367069562E+02  0.39999966680E+02 0.  0.
        -12    1    3    3    0    0 -0.34934160475E+02 -0.73965308421E+01  0.89820199171E+01  0.36820930438E+02  0.00000000000E+00 0.  1.
         11    1    4    4    0    0  0.16054193734E+02 -0.64923179419E+01 -0.12394264788E+02  0.21295659854E+02  0.51100000000E-03 0. -1.
        -11    1    4    4    0    0  0.45539098245E+01  0.87156492131E+01 -0.90706564971E+01  0.13378245230E+02  0.51100000000E-03 0.  1.
         12    1    4    4    0    0  0.14326056916E+02  0.51731995708E+01  0.12482901368E+02  0.19693164477E+02  0.00000000000E+00 0. -1.
</event>
<event>
 8    1  0.2514877E-006  0.9118800E+02  0.7816164E-02  0.1184000E+00
        -11   -1    0    0    0    0  0.00000000000E+00  0.00000000000E+00  0.45593999997E+02  0.45594000000E+02  0.51100000000E-03 0. -1.
         11   -1    0    0    0    0 -0.00000000000E+00 -0.00000000000E+00 -0.45593999997E+02  0.45594000000E+02  0.51100000000E-03 0.  1.
         23    2    1    2    0    0  0.66613381478E-15  0.00000000000E+00  0.88817841970E-15  0.91188000000E+02  0.91188000000E+02 0.  0.
    9900012    2    3    3    0    0  0.17763026085E+01 -0.36071967969E+02  0.71720390165E+01  0.54367078396E+02  0.39999986820E+02 0.  0.
        -12    1    3    3    0    0 -0.17763026085E+01  0.36071967969E+02 -0.71720390165E+01  0.36820921604E+02  0.00000000000E+00 0.  1.
         11    1    4    4    0    0 -0.93438743350E+00  0.23562583808E+01  0.95996942379E+01  0.99287040018E+01  0.51100000000E-03 0. -1.
        -11    1    4    4    0    0  0.79853014373E+01 -0.29798478757E+01 -0.84190187847E+00  0.85646559441E+01  0.51100000000E-03 0.  1.
        -12    1    4    4    0    0 -0.52746113952E+01 -0.35448378474E+02 -0.15857533430E+01  0.35873718450E+02  0.00000000000E+00 0.  1.
</event>
<event>
 8    1  0.2514877E-006  0.9118800E+02  0.7816164E-02  0.1184000E+00
        -11   -1    0    0    0    0  0.00000000000E+00  0.00000000000E+00  0.45593999997E+02  0.45594000000E+02  0.51100000000E-03 0. -1.
         11   -1    0    0    0    0 -0.00000000000E+00 -0.00000000000E+00 -0.45593999997E+02  0.45594000000E+02  0.51100000000E-03 0.  1.
         23    2    1    2    0    0 -0.88817841970E-15  0.00000000000E+00 -0.71054273576E-14  0.91188000000E+02  0.91188000000E+02 0.  0.
    9900012    2    3    3    0    0 -0.52184044056E+01  0.19833394055E+02  0.30580884051E+02  0.54367004174E+02  0.39999817615E+02 0.  0.
        -12    1    3    3    0    0  0.52184044056E+01 -0.19833394055E+02 -0.30580884051E+02  0.36820995826E+02  0.00000000000E+00 0.  1.
         11    1    4    4    0    0 -0.62827109873E+01  0.11403477079E+01 -0.37791204990E+01  0.74198788570E+01  0.51100000000E-03 0. -1.
        -11    1    4    4    0    0  0.87010666162E+01 -0.66893183927E-01  0.22583295980E+01  0.89896099911E+01  0.51100000000E-03 0.  1.
         12    1    4    4    0    0 -0.76367600344E+01  0.18759939531E+02  0.32101674952E+02  0.37957515326E+02  0.00000000000E+00 0. -1.
</event>
<event>
 8    1  0.2514877E-006  0.9118800E+02  0.7816164E-02  0.1184000E+00
        -11   -1    0    0    0    0  0.00000000000E+00  0.00000000000E+00  0.45593999997E+02  0.45594000000E+02  0.51100000000E-03 0.  1.
         11   -1    0    0    0    0 -0.00000000000E+00 -0.00000000000E+00 -0.45593999997E+02  0.45594000000E+02  0.51100000000E-03 0. -1.
         23    2    1    2    0    0 -0.35527136788E-14  0.00000000000E+00 -0.88817841970E-15  0.91188000000E+02  0.91188000000E+02 0.  0.
    9900012    2    3    3    0    0  0.23621381649E+02  0.27120992586E+02  0.78902625477E+01  0.54367161431E+02  0.40000176115E+02 0.  0.
         12    1    3    3    0    0 -0.23621381649E+02 -0.27120992586E+02 -0.78902625477E+01  0.36820838569E+02  0.00000000000E+00 0. -1.
         11    1    4    4    0    0  0.39953343061E+01  0.43398085363E+01  0.12439475637E+02  0.13767250588E+02  0.51100000000E-03 0. -1.
        -11    1    4    4    0    0  0.10853561484E+02  0.24309459480E+01  0.92739493374E+01  0.14481554877E+02  0.51100000000E-03 0.  1.
         12    1    4    4    0    0  0.87724858584E+01  0.20350238101E+02 -0.13823162427E+02  0.26118355967E+02  0.00000000000E+00 0. -1.
</event>
<event>
 8    1  0.2514877E-006  0.9118800E+02  0.7816164E-02  0.1184000E+00
        -11   -1    0    0    0    0  0.00000000000E+00  0.00000000000E+00  0.45593999997E+02  0.45594000000E+02  0.51100000000E-03 0.  1.
         11   -1    0    0    0    0 -0.00000000000E+00 -0.00000000000E+00 -0.45593999997E+02  0.45594000000E+02  0.51100000000E-03 0. -1.
         23    2    1    2    0    0 -0.17763568394E-14  0.17763568394E-14  0.35527136788E-14  0.91188000000E+02  0.91188000000E+02 0.  0.
    9900012    2    3    3    0    0  0.13093228396E+02 -0.14636741116E+02 -0.31146676500E+02  0.54367051108E+02  0.39999924610E+02 0.  0.
        -12    1    3    3    0    0 -0.13093228396E+02  0.14636741116E+02  0.31146676500E+02  0.36820948892E+02  0.00000000000E+00 0.  1.
         11    1    4    4    0    0  0.99582897484E+00  0.16035226613E-01 -0.45179477083E+01  0.46264224009E+01  0.51100000000E-03 0. -1.
        -11    1    4    4    0    0  0.11485190231E+02 -0.67763265369E+01  0.70940940662E+01  0.15104779603E+02  0.51100000000E-03 0.  1.
         12    1    4    4    0    0  0.61220919066E+00 -0.78764498053E+01 -0.33722822858E+02  0.34635849104E+02  0.00000000000E+00 0. -1.
</event>
<event>
 8    1  0.2514877E-006  0.9118800E+02  0.7816164E-02  0.1184000E+00
        -11   -1    0    0    0    0  0.00000000000E+00  0.00000000000E+00  0.45593999997E+02  0.45594000000E+02  0.51100000000E-03 0.  1.
         11   -1    0    0    0    0 -0.00000000000E+00 -0.00000000000E+00 -0.45593999997E+02  0.45594000000E+02  0.51100000000E-03 0. -1.
         23    2    1    2    0    0  0.44408920985E-15 -0.88817841970E-15  0.00000000000E+00  0.91188000000E+02  0.91188000000E+02 0.  0.
    9900012    2    3    3    0    0  0.36481983860E+01 -0.25741241013E+01 -0.36549178467E+02  0.54367110373E+02  0.40000059717E+02 0.  0.
        -12    1    3    3    0    0 -0.36481983860E+01  0.25741241013E+01  0.36549178467E+02  0.36820889627E+02  0.00000000000E+00 0.  1.
         11    1    4    4    0    0  0.31537968162E+01 -0.38565181595E+01 -0.16425140162E+02  0.17164043704E+02  0.51100000000E-03 0. -1.
        -11    1    4    4    0    0 -0.73993816492E+01 -0.10075420979E+02 -0.19741207247E+02  0.23366219645E+02  0.51100000000E-03 0.  1.
        -12    1    4    4    0    0  0.78937832190E+01  0.11357815037E+02 -0.38283105807E+00  0.13836847023E+02  0.00000000000E+00 0.  1.
</event>
<event>
 8    1  0.2514877E-006  0.9118800E+02  0.7816164E-02  0.1184000E+00
        -11   -1    0    0    0    0  0.00000000000E+00  0.00000000000E+00  0.45593999997E+02  0.45594000000E+02  0.51100000000E-03 0. -1.
         11   -1    0    0    0    0 -0.00000000000E+00 -0.00000000000E+00 -0.45593999997E+02  0.45594000000E+02  0.51100000000E-03 0.  1.
         23    2    1    2    0    0  0.00000000000E+00 -0.56898930012E-15  0.00000000000E+00  0.91188000000E+02  0.91188000000E+02 0.  0.
    9900012    2    3    3    0    0  0.97495626145E+01  0.14301455771E-01 -0.35506643352E+02  0.54367137736E+02  0.40000122097E+02 0.  0.
         12    1    3    3    0    0 -0.97495626145E+01 -0.14301455771E-01  0.35506643352E+02  0.36820862264E+02  0.00000000000E+00 0. -1.
         11    1    4    4    0    0  0.94639293847E-01 -0.88339143888E+00  0.71221316947E+01  0.71773321762E+01  0.51100000000E-03 0. -1.
        -11    1    4    4    0    0  0.94173228909E+01 -0.47129775996E+01 -0.11641784337E+02  0.15698065840E+02  0.51100000000E-03 0.  1.
        -12    1    4    4    0    0  0.23760042978E+00  0.56106704942E+01 -0.30986990710E+02  0.31491739720E+02  0.00000000000E+00 0.  1.
</event>
<event>
 8    1  0.2514877E-006  0.9118800E+02  0.7816164E-02  0.1184000E+00
        -11   -1    0    0    0    0  0.00000000000E+00  0.00000000000E+00  0.45593999997E+02  0.45594000000E+02  0.51100000000E-03 0. -1.
         11   -1    0    0    0    0 -0.00000000000E+00 -0.00000000000E+00 -0.45593999997E+02  0.45594000000E+02  0.51100000000E-03 0.  1.
         23    2    1    2    0    0  0.00000000000E+00  0.35527136788E-14  0.35527136788E-14  0.91188000000E+02  0.91188000000E+02 0.  0.
    9900012    2    3    3    0    0  0.89722369327E+01  0.29962752279E+02 -0.19429796239E+02  0.54367020361E+02  0.39999854517E+02 0.  0.
         12    1    3    3    0    0 -0.89722369327E+01 -0.29962752279E+02  0.19429796239E+02  0.36820979639E+02  0.00000000000E+00 0. -1.
         11    1    4    4    0    0 -0.29506137076E+01  0.15805568966E+02  0.93687845929E+01  0.18609036961E+02  0.51100000000E-03 0. -1.
        -11    1    4    4    0    0  0.11213093847E+02  0.55400211167E+01 -0.18132768014E+02  0.22027768468E+02  0.51100000000E-03 0.  1.
         12    1    4    4    0    0  0.70975679374E+00  0.86171621955E+01 -0.10665812818E+02  0.13730214932E+02  0.00000000000E+00 0. -1.
</event>
<event>
 8    1  0.2514877E-006  0.9118800E+02  0.7816164E-02  0.1184000E+00
        -11   -1    0    0    0    0  0.00000000000E+00  0.00000000000E+00  0.45593999997E+02  0.45594000000E+02  0.51100000000E-03 0.  1.
         11   -1    0    0    0    0 -0.00000000000E+00 -0.00000000000E+00 -0.45593999997E+02  0.45594000000E+02  0.51100000000E-03 0. -1.
         23    2    1    2    0    0 -0.88817841970E-15  0.00000000000E+00  0.00000000000E+00  0.91188000000E+02  0.91188000000E+02 0.  0.
    9900012    2    3    3    0    0  0.31783067967E+01 -0.12426583556E+02 -0.34514611294E+02  0.54367081954E+02  0.39999994931E+02 0.  0.
        -12    1    3    3    0    0 -0.31783067967E+01  0.12426583556E+02  0.34514611294E+02  0.36820918046E+02  0.00000000000E+00 0.  1.
         11    1    4    4    0    0 -0.11331042188E+02  0.17634601781E+01 -0.16403486689E+01  0.11584172517E+02  0.51100000000E-03 0. -1.
        -11    1    4    4    0    0  0.45418513650E+00 -0.83595017765E+01 -0.23809643445E+01  0.87038236173E+01  0.51100000000E-03 0.  1.
        -12    1    4    4    0    0  0.14055163849E+02 -0.58305419573E+01 -0.30493298281E+02  0.34079085820E+02  0.00000000000E+00 0.  1.
</event>
<event>
 8    1  0.2514877E-006  0.9118800E+02  0.7816164E-02  0.1184000E+00
        -11   -1    0    0    0    0  0.00000000000E+00  0.00000000000E+00  0.45593999997E+02  0.45594000000E+02  0.51100000000E-03 0. -1.
         11   -1    0    0    0    0 -0.00000000000E+00 -0.00000000000E+00 -0.45593999997E+02  0.45594000000E+02  0.51100000000E-03 0.  1.
         23    2    1    2    0    0  0.00000000000E+00  0.17763568394E-14  0.00000000000E+00  0.91188000000E+02  0.91188000000E+02 0.  0.
    9900012    2    3    3    0    0 -0.35849029320E+02 -0.82754535775E+01 -0.14644822356E+01  0.54367071939E+02  0.39999972099E+02 0.  0.
        -12    1    3    3    0    0  0.35849029320E+02  0.82754535775E+01  0.14644822356E+01  0.36820928061E+02  0.00000000000E+00 0.  1.
         11    1    4    4    0    0 -0.85492504548E+01 -0.12851265329E+02 -0.81025764751E+01  0.17432626013E+02  0.51100000000E-03 0. -1.
        -11    1    4    4    0    0 -0.31247732829E+02  0.20922668344E+01  0.74710310969E+01  0.32196501259E+02  0.51100000000E-03 0.  1.
         12    1    4    4    0    0  0.39479539639E+01  0.24835449173E+01 -0.83293685744E+00  0.47379446668E+01  0.00000000000E+00 0. -1.
</event>
<event>
 8    1  0.2514877E-006  0.9118800E+02  0.7816164E-02  0.1184000E+00
        -11   -1    0    0    0    0  0.00000000000E+00  0.00000000000E+00  0.45593999997E+02  0.45594000000E+02  0.51100000000E-03 0.  1.
         11   -1    0    0    0    0 -0.00000000000E+00 -0.00000000000E+00 -0.45593999997E+02  0.45594000000E+02  0.51100000000E-03 0. -1.
         23    2    1    2    0    0  0.00000000000E+00  0.35527136788E-14  0.88817841970E-15  0.91188000000E+02  0.91188000000E+02 0.  0.
    9900012    2    3    3    0    0  0.23867013379E+02 -0.28020757120E+02  0.99085256162E+00  0.54367096345E+02  0.40000027737E+02 0.  0.
         12    1    3    3    0    0 -0.23867013379E+02  0.28020757120E+02 -0.99085256162E+00  0.36820903655E+02  0.00000000000E+00 0. -1.
         11    1    4    4    0    0  0.33273048651E-01  0.90844603779E+00 -0.46678980555E+01  0.47555918472E+01  0.51100000000E-03 0. -1.
        -11    1    4    4    0    0  0.22343275235E+01 -0.21636346384E+02 -0.78355563511E+01  0.23119680965E+02  0.51100000000E-03 0.  1.
         12    1    4    4    0    0  0.21599412807E+02 -0.72928567731E+01  0.13494306968E+02  0.26491823532E+02  0.00000000000E+00 0. -1.
</event>
<event>
 8    1  0.2514877E-006  0.9118800E+02  0.7816164E-02  0.1184000E+00
        -11   -1    0    0    0    0  0.00000000000E+00  0.00000000000E+00  0.45593999997E+02  0.45594000000E+02  0.51100000000E-03 0. -1.
         11   -1    0    0    0    0 -0.00000000000E+00 -0.00000000000E+00 -0.45593999997E+02  0.45594000000E+02  0.51100000000E-03 0.  1.
         23    2    1    2    0    0  0.00000000000E+00 -0.35527136788E-14  0.00000000000E+00  0.91188000000E+02  0.91188000000E+02 0.  0.
    9900012    2    3    3    0    0  0.40300592519E+01 -0.18912566304E+02  0.31334553962E+02  0.54367070982E+02  0.39999969917E+02 0.  0.
        -12    1    3    3    0    0 -0.40300592519E+01  0.18912566304E+02 -0.31334553962E+02  0.36820929018E+02  0.00000000000E+00 0.  1.
         11    1    4    4    0    0  0.72477556827E+01 -0.79483855757E+01  0.15975443151E+02  0.19259324490E+02  0.51100000000E-03 0. -1.
        -11    1    4    4    0    0 -0.89602907674E+01 -0.18302176009E+02  0.46298691870E+01  0.20897180342E+02  0.51100000000E-03 0.  1.
         12    1    4    4    0    0  0.57425943366E+01  0.73379952806E+01  0.10729241624E+02  0.14210566149E+02  0.00000000000E+00 0. -1.
</event>
<event>
 8    1  0.2514877E-006  0.9118800E+02  0.7816164E-02  0.1184000E+00
        -11   -1    0    0    0    0  0.00000000000E+00  0.00000000000E+00  0.45593999997E+02  0.45594000000E+02  0.51100000000E-03 0.  1.
         11   -1    0    0    0    0 -0.00000000000E+00 -0.00000000000E+00 -0.45593999997E+02  0.45594000000E+02  0.51100000000E-03 0. -1.
         23    2    1    2    0    0 -0.29976021665E-14  0.00000000000E+00  0.00000000000E+00  0.91188000000E+02  0.91188000000E+02 0.  0.
    9900012    2    3    3    0    0  0.80580773291E+00 -0.23844596429E+02 -0.28045793315E+02  0.54367073509E+02  0.39999975679E+02 0.  0.
        -12    1    3    3    0    0 -0.80580773291E+00  0.23844596429E+02  0.28045793315E+02  0.36820926491E+02  0.00000000000E+00 0.  1.
         11    1    4    4    0    0 -0.97238566162E+01 -0.61868351520E+01 -0.25628837046E+02  0.28101024987E+02  0.51100000000E-03 0. -1.
        -11    1    4    4    0    0  0.91124523905E+01 -0.20795698039E+02 -0.23023376156E+01  0.22821012341E+02  0.51100000000E-03 0.  1.
         12    1    4    4    0    0  0.14172119587E+01  0.31379367619E+01 -0.11461865303E+00  0.34450361817E+01  0.00000000000E+00 0. -1.
</event>
<event>
 8    1  0.2514877E-006  0.9118800E+02  0.7816164E-02  0.1184000E+00
        -11   -1    0    0    0    0  0.00000000000E+00  0.00000000000E+00  0.45593999997E+02  0.45594000000E+02  0.51100000000E-03 0.  1.
         11   -1    0    0    0    0 -0.00000000000E+00 -0.00000000000E+00 -0.45593999997E+02  0.45594000000E+02  0.51100000000E-03 0. -1.
         23    2    1    2    0    0  0.00000000000E+00  0.00000000000E+00  0.17763568394E-14  0.91188000000E+02  0.91188000000E+02 0.  0.
    9900012    2    3    3    0    0 -0.23504026705E+02 -0.27078041457E+02  0.83737254329E+01  0.54367097266E+02  0.40000029838E+02 0.  0.
        -12    1    3    3    0    0  0.23504026705E+02  0.27078041457E+02 -0.83737254329E+01  0.36820902734E+02  0.00000000000E+00 0.  1.
         11    1    4    4    0    0 -0.15263918236E+01 -0.57747511447E+01  0.73292951522E+01  0.94549558683E+01  0.51100000000E-03 0. -1.
        -11    1    4    4    0    0  0.41446114863E+01 -0.79461226269E+00  0.97114603231E+01  0.10588752282E+02  0.51100000000E-03 0.  1.
         12    1    4    4    0    0 -0.26122246368E+02 -0.20508678049E+02 -0.86670300424E+01  0.34323389116E+02  0.00000000000E+00 0. -1.
</event>
<event>
 8    1  0.2514877E-006  0.9118800E+02  0.7816164E-02  0.1184000E+00
        -11   -1    0    0    0    0  0.00000000000E+00  0.00000000000E+00  0.45593999997E+02  0.45594000000E+02  0.51100000000E-03 0.  1.
         11   -1    0    0    0    0 -0.00000000000E+00 -0.00000000000E+00 -0.45593999997E+02  0.45594000000E+02  0.51100000000E-03 0. -1.
         23    2    1    2    0    0  0.88817841970E-15  0.00000000000E+00  0.35527136788E-14  0.91188000000E+02  0.91188000000E+02 0.  0.
    9900012    2    3    3    0    0  0.34190853582E+01 -0.21533281089E+02 -0.29671673289E+02  0.54367074768E+02  0.39999978549E+02 0.  0.
        -12    1    3    3    0    0 -0.34190853582E+01  0.21533281089E+02  0.29671673289E+02  0.36820925232E+02  0.00000000000E+00 0.  1.
         11    1    4    4    0    0  0.43440834727E+00  0.38143326016E+01 -0.28435410747E+01  0.47774020045E+01  0.51100000000E-03 0.  1.
        -11    1    4    4    0    0 -0.12309567678E+02 -0.13355120709E+02 -0.23770520604E+02  0.29915252892E+02  0.51100000000E-03 0. -1.
         12    1    4    4    0    0  0.15294244689E+02 -0.11992492982E+02 -0.30576116103E+01  0.19674419872E+02  0.00000000000E+00 0. -1.
</event>
<event>
 8    1  0.2514877E-006  0.9118800E+02  0.7816164E-02  0.1184000E+00
        -11   -1    0    0    0    0  0.00000000000E+00  0.00000000000E+00  0.45593999997E+02  0.45594000000E+02  0.51100000000E-03 0.  1.
         11   -1    0    0    0    0 -0.00000000000E+00 -0.00000000000E+00 -0.45593999997E+02  0.45594000000E+02  0.51100000000E-03 0. -1.
         23    2    1    2    0    0  0.00000000000E+00  0.00000000000E+00  0.35527136788E-14  0.91188000000E+02  0.91188000000E+02 0.  0.
    9900012    2    3    3    0    0  0.22890780366E+02 -0.85535421435E+01 -0.27543229076E+02  0.54367076914E+02  0.39999983442E+02 0.  0.
        -12    1    3    3    0    0 -0.22890780366E+02  0.85535421435E+01  0.27543229076E+02  0.36820923086E+02  0.00000000000E+00 0.  1.
         11    1    4    4    0    0  0.21035871936E+02 -0.80142123229E+01 -0.11560799582E+02  0.25305880630E+02  0.51100000000E-03 0. -1.
        -11    1    4    4    0    0  0.90543554677E+01 -0.57808430022E+01 -0.16987682577E+02  0.20099275070E+02  0.51100000000E-03 0.  1.
        -12    1    4    4    0    0 -0.71994470374E+01  0.52415131817E+01  0.10052530828E+01  0.89619212136E+01  0.00000000000E+00 0.  1.
</event>
<event>
 8    1  0.2514877E-006  0.9118800E+02  0.7816164E-02  0.1184000E+00
        -11   -1    0    0    0    0  0.00000000000E+00  0.00000000000E+00  0.45593999997E+02  0.45594000000E+02  0.51100000000E-03 0.  1.
         11   -1    0    0    0    0 -0.00000000000E+00 -0.00000000000E+00 -0.45593999997E+02  0.45594000000E+02  0.51100000000E-03 0. -1.
         23    2    1    2    0    0  0.00000000000E+00  0.17763568394E-14  0.00000000000E+00  0.91188000000E+02  0.91188000000E+02 0.  0.
    9900012    2    3    3    0    0 -0.12696242430E+02 -0.48796976129E+01 -0.34216631793E+02  0.54367028911E+02  0.39999874009E+02 0.  0.
        -12    1    3    3    0    0  0.12696242430E+02  0.48796976129E+01  0.34216631793E+02  0.36820971089E+02  0.00000000000E+00 0.  1.
         11    1    4    4    0    0  0.11365298464E+01 -0.61215102671E+01 -0.54313663678E+01  0.82622230013E+01  0.51100000000E-03 0. -1.
        -11    1    4    4    0    0 -0.20657337884E+02  0.68930870806E+01 -0.30095192939E+02  0.37147824920E+02  0.51100000000E-03 0.  1.
        -12    1    4    4    0    0  0.68245656071E+01 -0.56512744265E+01  0.13099275142E+01  0.89569809903E+01  0.00000000000E+00 0.  1.
</event>
<event>
 8    1  0.2514877E-006  0.9118800E+02  0.7816164E-02  0.1184000E+00
        -11   -1    0    0    0    0  0.00000000000E+00  0.00000000000E+00  0.45593999997E+02  0.45594000000E+02  0.51100000000E-03 0.  1.
         11   -1    0    0    0    0 -0.00000000000E+00 -0.00000000000E+00 -0.45593999997E+02  0.45594000000E+02  0.51100000000E-03 0. -1.
         23    2    1    2    0    0  0.00000000000E+00 -0.17763568394E-14  0.66613381478E-15  0.91188000000E+02  0.91188000000E+02 0.  0.
    9900012    2    3    3    0    0 -0.36041905330E+02  0.72798986383E+01 -0.19402775855E+01  0.54367074684E+02  0.39999978358E+02 0.  0.
         12    1    3    3    0    0  0.36041905330E+02 -0.72798986383E+01  0.19402775855E+01  0.36820925316E+02  0.00000000000E+00 0. -1.
         11    1    4    4    0    0 -0.16487335133E+02  0.12834203734E+02 -0.12441212741E+02  0.24317334969E+02  0.51100000000E-03 0. -1.
        -11    1    4    4    0    0 -0.13368128279E+01  0.60811679511E+01  0.54324464376E+00  0.62500229752E+01  0.51100000000E-03 0.  1.
         12    1    4    4    0    0 -0.18217757369E+02 -0.11635473047E+02  0.99576905113E+01  0.23799716740E+02  0.00000000000E+00 0. -1.
</event>
<event>
 8    1  0.2514877E-006  0.9118800E+02  0.7816164E-02  0.1184000E+00
        -11   -1    0    0    0    0  0.00000000000E+00  0.00000000000E+00  0.45593999997E+02  0.45594000000E+02  0.51100000000E-03 0. -1.
         11   -1    0    0    0    0 -0.00000000000E+00 -0.00000000000E+00 -0.45593999997E+02  0.45594000000E+02  0.51100000000E-03 0.  1.
         23    2    1    2    0    0  0.35527136788E-14 -0.71054273576E-14  0.94368957093E-15  0.91188000000E+02  0.91188000000E+02 0.  0.
    9900012    2    3    3    0    0 -0.30218246107E+02  0.21033159693E+02 -0.49424066737E+00  0.54367075537E+02  0.39999980302E+02 0.  0.
        -12    1    3    3    0    0  0.30218246107E+02 -0.21033159693E+02  0.49424066737E+00  0.36820924463E+02  0.00000000000E+00 0.  1.
         11    1    4    4    0    0 -0.23793682121E+01 -0.71732000473E+01  0.80144037662E+01  0.11015755081E+02  0.51100000000E-03 0. -1.
        -11    1    4    4    0    0 -0.11922654300E+02  0.73652192727E+01 -0.97921849385E+01  0.17096286925E+02  0.51100000000E-03 0.  1.
         12    1    4    4    0    0 -0.15916223595E+02  0.20841140467E+02  0.12835405049E+01  0.26255033531E+02  0.00000000000E+00 0. -1.
</event>
<event>
 8    1  0.2514877E-006  0.9118800E+02  0.7816164E-02  0.1184000E+00
        -11   -1    0    0    0    0  0.00000000000E+00  0.00000000000E+00  0.45593999997E+02  0.45594000000E+02  0.51100000000E-03 0. -1.
         11   -1    0    0    0    0 -0.00000000000E+00 -0.00000000000E+00 -0.45593999997E+02  0.45594000000E+02  0.51100000000E-03 0.  1.
         23    2    1    2    0    0  0.00000000000E+00  0.00000000000E+00  0.00000000000E+00  0.91188000000E+02  0.91188000000E+02 0.  0.
    9900012    2    3    3    0    0 -0.34390623287E+02 -0.82935783979E+01 -0.10211810127E+02  0.54367089110E+02  0.40000011244E+02 0.  0.
        -12    1    3    3    0    0  0.34390623287E+02  0.82935783979E+01  0.10211810127E+02  0.36820910890E+02  0.00000000000E+00 0.  1.
         11    1    4    4    0    0  0.25006225806E+01  0.23967326696E+01 -0.83623351085E+01  0.90513031939E+01  0.51100000000E-03 0.  1.
        -11    1    4    4    0    0 -0.33321345413E+02 -0.10873357588E+02 -0.99719945596E+01  0.36441496143E+02  0.51100000000E-03 0. -1.
         12    1    4    4    0    0 -0.35699004546E+01  0.18304652020E+00  0.81225195410E+01  0.88742897732E+01  0.00000000000E+00 0. -1.
</event>
<event>
 8    1  0.2514877E-006  0.9118800E+02  0.7816164E-02  0.1184000E+00
        -11   -1    0    0    0    0  0.00000000000E+00  0.00000000000E+00  0.45593999997E+02  0.45594000000E+02  0.51100000000E-03 0.  1.
         11   -1    0    0    0    0 -0.00000000000E+00 -0.00000000000E+00 -0.45593999997E+02  0.45594000000E+02  0.51100000000E-03 0. -1.
         23    2    1    2    0    0 -0.44408920985E-15  0.00000000000E+00 -0.17763568394E-14  0.91188000000E+02  0.91188000000E+02 0.  0.
    9900012    2    3    3    0    0  0.34822684890E+01  0.34932887469E+02 -0.11106340503E+02  0.54367032873E+02  0.39999883041E+02 0.  0.
        -12    1    3    3    0    0 -0.34822684890E+01 -0.34932887469E+02  0.11106340503E+02  0.36820967127E+02  0.00000000000E+00 0.  1.
         11    1    4    4    0    0 -0.85786640691E+01  0.24975523385E+02 -0.91706602130E+01  0.27954807361E+02  0.51100000000E-03 0. -1.
        -11    1    4    4    0    0  0.34979324033E+01  0.42649574212E+01 -0.11255637586E+02  0.12534543096E+02  0.51100000000E-03 0.  1.
        -12    1    4    4    0    0  0.85630001547E+01  0.56924066630E+01  0.93199572955E+01  0.13877682417E+02  0.00000000000E+00 0.  1.
</event>
<event>
 8    1  0.2514877E-006  0.9118800E+02  0.7816164E-02  0.1184000E+00
        -11   -1    0    0    0    0  0.00000000000E+00  0.00000000000E+00  0.45593999997E+02  0.45594000000E+02  0.51100000000E-03 0. -1.
         11   -1    0    0    0    0 -0.00000000000E+00 -0.00000000000E+00 -0.45593999997E+02  0.45594000000E+02  0.51100000000E-03 0.  1.
         23    2    1    2    0    0  0.22204460493E-15  0.71054273576E-14  0.53290705182E-14  0.91188000000E+02  0.91188000000E+02 0.  0.
    9900012    2    3    3    0    0 -0.16801727973E+01 -0.35542233898E+02 -0.94716216216E+01  0.54367014309E+02  0.39999840720E+02 0.  0.
        -12    1    3    3    0    0  0.16801727973E+01  0.35542233898E+02  0.94716216216E+01  0.36820985691E+02  0.00000000000E+00 0.  1.
         11    1    4    4    0    0  0.60650711186E+01 -0.79840593556E+01  0.25226445227E+01  0.10338956771E+02  0.51100000000E-03 0. -1.
        -11    1    4    4    0    0  0.49020003929E+01 -0.96550884269E+01  0.86944231380E+01  0.13886804325E+02  0.51100000000E-03 0.  1.
        -12    1    4    4    0    0 -0.12647244309E+02 -0.17903086116E+02 -0.20688689282E+02  0.30141253214E+02  0.00000000000E+00 0.  1.
</event>
<event>
 8    1  0.2514877E-006  0.9118800E+02  0.7816164E-02  0.1184000E+00
        -11   -1    0    0    0    0  0.00000000000E+00  0.00000000000E+00  0.45593999997E+02  0.45594000000E+02  0.51100000000E-03 0. -1.
         11   -1    0    0    0    0 -0.00000000000E+00 -0.00000000000E+00 -0.45593999997E+02  0.45594000000E+02  0.51100000000E-03 0.  1.
         23    2    1    2    0    0 -0.35527136788E-14  0.71054273576E-14 -0.35527136788E-14  0.91188000000E+02  0.91188000000E+02 0.  0.
    9900012    2    3    3    0    0 -0.21440692674E+02  0.17318681963E+02 -0.24415942332E+02  0.54367105290E+02  0.40000048129E+02 0.  0.
         12    1    3    3    0    0  0.21440692674E+02 -0.17318681963E+02  0.24415942332E+02  0.36820894710E+02  0.00000000000E+00 0. -1.
         11    1    4    4    0    0  0.39943164276E+01 -0.49551718811E+01  0.10057673990E+01  0.64435906463E+01  0.51100000000E-03 0. -1.
        -11    1    4    4    0    0 -0.30668291659E+01  0.73010792888E+00 -0.14753185178E+02  0.15086251087E+02  0.51100000000E-03 0.  1.
        -12    1    4    4    0    0 -0.22368179936E+02  0.21543745915E+02 -0.10668524554E+02  0.32837263556E+02  0.00000000000E+00 0.  1.
</event>
<event>
 8    1  0.2514877E-006  0.9118800E+02  0.7816164E-02  0.1184000E+00
        -11   -1    0    0    0    0  0.00000000000E+00  0.00000000000E+00  0.45593999997E+02  0.45594000000E+02  0.51100000000E-03 0. -1.
         11   -1    0    0    0    0 -0.00000000000E+00 -0.00000000000E+00 -0.45593999997E+02  0.45594000000E+02  0.51100000000E-03 0.  1.
         23    2    1    2    0    0  0.00000000000E+00  0.11102230246E-14  0.00000000000E+00  0.91188000000E+02  0.91188000000E+02 0.  0.
    9900012    2    3    3    0    0  0.31964138772E+02 -0.10782504147E+01 -0.18245972588E+02  0.54367023545E+02  0.39999861776E+02 0.  0.
         12    1    3    3    0    0 -0.31964138772E+02  0.10782504147E+01  0.18245972588E+02  0.36820976455E+02  0.00000000000E+00 0. -1.
         11    1    4    4    0    0  0.10768086487E+02  0.22020627741E+01 -0.63952625548E+00  0.11009530469E+02  0.51100000000E-03 0. -1.
        -11    1    4    4    0    0  0.21342237831E+02 -0.15096064477E+02 -0.17647595666E+02  0.31540765865E+02  0.51100000000E-03 0.  1.
         12    1    4    4    0    0 -0.14618554617E+00  0.11815751288E+02  0.41149333280E-01  0.11816727211E+02  0.00000000000E+00 0. -1.
</event>
<event>
 8    1  0.2514877E-006  0.9118800E+02  0.7816164E-02  0.1184000E+00
        -11   -1    0    0    0    0  0.00000000000E+00  0.00000000000E+00  0.45593999997E+02  0.45594000000E+02  0.51100000000E-03 0.  1.
         11   -1    0    0    0    0 -0.00000000000E+00 -0.00000000000E+00 -0.45593999997E+02  0.45594000000E+02  0.51100000000E-03 0. -1.
         23    2    1    2    0    0 -0.35527136788E-14  0.00000000000E+00  0.00000000000E+00  0.91188000000E+02  0.91188000000E+02 0.  0.
    9900012    2    3    3    0    0 -0.24613298201E+02  0.17406399480E+02 -0.21141956481E+02  0.54367088617E+02  0.40000010121E+02 0.  0.
        -12    1    3    3    0    0  0.24613298201E+02 -0.17406399480E+02  0.21141956481E+02  0.36820911383E+02  0.00000000000E+00 0.  1.
         11    1    4    4    0    0 -0.32740228416E+01 -0.37450053483E+01 -0.87409347741E+01  0.10057247716E+02  0.51100000000E-03 0. -1.
        -11    1    4    4    0    0 -0.10188925394E+01  0.12335081972E+02  0.75507209099E+01  0.14498474947E+02  0.51100000000E-03 0.  1.
        -12    1    4    4    0    0 -0.20320382820E+02  0.88163228569E+01 -0.19951742616E+02  0.29811365955E+02  0.00000000000E+00 0.  1.
</event>
<event>
 8    1  0.2514877E-006  0.9118800E+02  0.7816164E-02  0.1184000E+00
        -11   -1    0    0    0    0  0.00000000000E+00  0.00000000000E+00  0.45593999997E+02  0.45594000000E+02  0.51100000000E-03 0.  1.
         11   -1    0    0    0    0 -0.00000000000E+00 -0.00000000000E+00 -0.45593999997E+02  0.45594000000E+02  0.51100000000E-03 0. -1.
         23    2    1    2    0    0 -0.17763568394E-14  0.00000000000E+00  0.00000000000E+00  0.91188000000E+02  0.91188000000E+02 0.  0.
    9900012    2    3    3    0    0 -0.12385400124E+02  0.12450679163E+02  0.32362970801E+02  0.54367089814E+02  0.40000012850E+02 0.  0.
         12    1    3    3    0    0  0.12385400124E+02 -0.12450679163E+02 -0.32362970801E+02  0.36820910186E+02  0.00000000000E+00 0. -1.
         11    1    4    4    0    0 -0.48445466738E+01  0.56007056867E+01 -0.74297938108E+01  0.10489965348E+02  0.51100000000E-03 0. -1.
        -11    1    4    4    0    0 -0.91758499179E+01 -0.20728411729E+01  0.19623892117E+02  0.21762123847E+02  0.51100000000E-03 0.  1.
         12    1    4    4    0    0  0.16349964674E+01  0.89228146491E+01  0.20168872494E+02  0.22115000620E+02  0.00000000000E+00 0. -1.
</event>
<event>
 8    1  0.2514877E-006  0.9118800E+02  0.7816164E-02  0.1184000E+00
        -11   -1    0    0    0    0  0.00000000000E+00  0.00000000000E+00  0.45593999997E+02  0.45594000000E+02  0.51100000000E-03 0.  1.
         11   -1    0    0    0    0 -0.00000000000E+00 -0.00000000000E+00 -0.45593999997E+02  0.45594000000E+02  0.51100000000E-03 0. -1.
         23    2    1    2    0    0  0.00000000000E+00 -0.35527136788E-14  0.35527136788E-14  0.91188000000E+02  0.91188000000E+02 0.  0.
    9900012    2    3    3    0    0 -0.23728458190E+02 -0.22966331542E+02  0.16287681442E+02  0.54367072807E+02  0.39999974079E+02 0.  0.
         12    1    3    3    0    0  0.23728458190E+02  0.22966331542E+02 -0.16287681442E+02  0.36820927193E+02  0.00000000000E+00 0. -1.
         11    1    4    4    0    0 -0.11685069573E+02  0.75035587480E+01  0.13470339490E+02  0.19346686824E+02  0.51100000000E-03 0. -1.
        -11    1    4    4    0    0 -0.21224859138E+01 -0.14616777441E+02  0.61944322218E+01  0.16016432812E+02  0.51100000000E-03 0.  1.
        -12    1    4    4    0    0 -0.99209027027E+01 -0.15853112849E+02 -0.33770902703E+01  0.19003953171E+02  0.00000000000E+00 0.  1.
</event>
<event>
 8    1  0.2514877E-006  0.9118800E+02  0.7816164E-02  0.1184000E+00
        -11   -1    0    0    0    0  0.00000000000E+00  0.00000000000E+00  0.45593999997E+02  0.45594000000E+02  0.51100000000E-03 0.  1.
         11   -1    0    0    0    0 -0.00000000000E+00 -0.00000000000E+00 -0.45593999997E+02  0.45594000000E+02  0.51100000000E-03 0. -1.
         23    2    1    2    0    0  0.00000000000E+00 -0.88817841970E-15  0.71054273576E-14  0.91188000000E+02  0.91188000000E+02 0.  0.
    9900012    2    3    3    0    0  0.15779276262E+02 -0.76549512652E+01  0.32375844703E+02  0.54367093460E+02  0.40000021161E+02 0.  0.
         12    1    3    3    0    0 -0.15779276262E+02  0.76549512652E+01 -0.32375844703E+02  0.36820906540E+02  0.00000000000E+00 0. -1.
         11    1    4    4    0    0  0.64785146607E+01  0.48683954323E+01  0.86741269360E+00  0.81501430255E+01  0.51100000000E-03 0. -1.
        -11    1    4    4    0    0  0.85450629506E+01 -0.12719302423E+02  0.63776227854E+00  0.15336410790E+02  0.51100000000E-03 0.  1.
        -12    1    4    4    0    0  0.75569865092E+00  0.19595572527E+00  0.30870669730E+02  0.30880539644E+02  0.00000000000E+00 0.  1.
</event>
<event>
 8    1  0.2514877E-006  0.9118800E+02  0.7816164E-02  0.1184000E+00
        -11   -1    0    0    0    0  0.00000000000E+00  0.00000000000E+00  0.45593999997E+02  0.45594000000E+02  0.51100000000E-03 0.  1.
         11   -1    0    0    0    0 -0.00000000000E+00 -0.00000000000E+00 -0.45593999997E+02  0.45594000000E+02  0.51100000000E-03 0. -1.
         23    2    1    2    0    0  0.00000000000E+00  0.00000000000E+00  0.00000000000E+00  0.91188000000E+02  0.91188000000E+02 0.  0.
    9900012    2    3    3    0    0 -0.22220865032E+02  0.48663007806E+01 -0.28953941216E+02  0.54367103243E+02  0.40000043463E+02 0.  0.
        -12    1    3    3    0    0  0.22220865032E+02 -0.48663007806E+01  0.28953941216E+02  0.36820896757E+02  0.00000000000E+00 0.  1.
         11    1    4    4    0    0  0.51153449492E+01 -0.23127233180E+01  0.44205370909E+01  0.71453895295E+01  0.51100000000E-03 0.  1.
        -11    1    4    4    0    0 -0.26937531070E+02  0.10863590316E+01 -0.29629843840E+02  0.40059186241E+02  0.51100000000E-03 0. -1.
        -12    1    4    4    0    0 -0.39867891127E+00  0.60926650671E+01 -0.37446344674E+01  0.71625274720E+01  0.00000000000E+00 0.  1.
</event>
<event>
 8    1  0.2514877E-006  0.9118800E+02  0.7816164E-02  0.1184000E+00
        -11   -1    0    0    0    0  0.00000000000E+00  0.00000000000E+00  0.45593999997E+02  0.45594000000E+02  0.51100000000E-03 0.  1.
         11   -1    0    0    0    0 -0.00000000000E+00 -0.00000000000E+00 -0.45593999997E+02  0.45594000000E+02  0.51100000000E-03 0. -1.
         23    2    1    2    0    0  0.00000000000E+00  0.00000000000E+00  0.00000000000E+00  0.91188000000E+02  0.91188000000E+02 0.  0.
    9900012    2    3    3    0    0  0.14130161155E+02  0.76057231461E+01 -0.33140175153E+02  0.54367086269E+02  0.40000004766E+02 0.  0.
        -12    1    3    3    0    0 -0.14130161155E+02 -0.76057231461E+01  0.33140175153E+02  0.36820913731E+02  0.00000000000E+00 0.  1.
         11    1    4    4    0    0  0.23436539586E+02 -0.22931192384E+01 -0.87985697076E+01  0.25138508563E+02  0.51100000000E-03 0. -1.
        -11    1    4    4    0    0 -0.52445076484E+01  0.11988825555E+01 -0.39011328833E+01  0.66453756771E+01  0.51100000000E-03 0.  1.
         12    1    4    4    0    0 -0.40618707827E+01  0.86999598290E+01 -0.20440472562E+02  0.22583202028E+02  0.00000000000E+00 0. -1.
</event>
<event>
 8    1  0.2514877E-006  0.9118800E+02  0.7816164E-02  0.1184000E+00
        -11   -1    0    0    0    0  0.00000000000E+00  0.00000000000E+00  0.45593999997E+02  0.45594000000E+02  0.51100000000E-03 0. -1.
         11   -1    0    0    0    0 -0.00000000000E+00 -0.00000000000E+00 -0.45593999997E+02  0.45594000000E+02  0.51100000000E-03 0.  1.
         23    2    1    2    0    0  0.00000000000E+00  0.35527136788E-14  0.00000000000E+00  0.91188000000E+02  0.91188000000E+02 0.  0.
    9900012    2    3    3    0    0  0.18908014545E+02 -0.29705464906E+02  0.10763533416E+02  0.54367064230E+02  0.39999954526E+02 0.  0.
        -12    1    3    3    0    0 -0.18908014545E+02  0.29705464906E+02 -0.10763533416E+02  0.36820935770E+02  0.00000000000E+00 0.  1.
         11    1    4    4    0    0 -0.42648076439E+01 -0.82134987043E+00  0.39756067472E+01  0.58880089265E+01  0.51100000000E-03 0. -1.
        -11    1    4    4    0    0 -0.27138605723E+01 -0.64455860116E+01 -0.84638388085E+01  0.10979398247E+02  0.51100000000E-03 0.  1.
         12    1    4    4    0    0  0.25886682762E+02 -0.22438529024E+02  0.15251765477E+02  0.37499657056E+02  0.00000000000E+00 0. -1.
</event>
<event>
 8    1  0.2514877E-006  0.9118800E+02  0.7816164E-02  0.1184000E+00
        -11   -1    0    0    0    0  0.00000000000E+00  0.00000000000E+00  0.45593999997E+02  0.45594000000E+02  0.51100000000E-03 0.  1.
         11   -1    0    0    0    0 -0.00000000000E+00 -0.00000000000E+00 -0.45593999997E+02  0.45594000000E+02  0.51100000000E-03 0. -1.
         23    2    1    2    0    0 -0.35527136788E-14 -0.49960036108E-15 -0.71054273576E-14  0.91188000000E+02  0.91188000000E+02 0.  0.
    9900012    2    3    3    0    0 -0.28010039321E+02  0.29665308290E+00 -0.23898306569E+02  0.54367090687E+02  0.40000014838E+02 0.  0.
         12    1    3    3    0    0  0.28010039321E+02 -0.29665308290E+00  0.23898306569E+02  0.36820909313E+02  0.00000000000E+00 0. -1.
         11    1    4    4    0    0 -0.21158110723E+02  0.13176120039E+02 -0.11820683503E+02  0.27586307245E+02  0.51100000000E-03 0. -1.
        -11    1    4    4    0    0 -0.12203337915E+02 -0.46112335601E+01 -0.10625955953E+02  0.16825453082E+02  0.51100000000E-03 0.  1.
        -12    1    4    4    0    0  0.53514093177E+01 -0.82682333960E+01 -0.14516671123E+01  0.99553303602E+01  0.00000000000E+00 0.  1.
</event>
<event>
 8    1  0.2514877E-006  0.9118800E+02  0.7816164E-02  0.1184000E+00
        -11   -1    0    0    0    0  0.00000000000E+00  0.00000000000E+00  0.45593999997E+02  0.45594000000E+02  0.51100000000E-03 0. -1.
         11   -1    0    0    0    0 -0.00000000000E+00 -0.00000000000E+00 -0.45593999997E+02  0.45594000000E+02  0.51100000000E-03 0.  1.
         23    2    1    2    0    0  0.35527136788E-14 -0.27755575616E-15  0.00000000000E+00  0.91188000000E+02  0.91188000000E+02 0.  0.
    9900012    2    3    3    0    0 -0.26512226451E+02 -0.37617313540E+00  0.25548780442E+02  0.54367084209E+02  0.40000000071E+02 0.  0.
        -12    1    3    3    0    0  0.26512226451E+02  0.37617313540E+00 -0.25548780442E+02  0.36820915791E+02  0.00000000000E+00 0.  1.
         11    1    4    4    0    0 -0.16935080222E+02 -0.31058432756E+01  0.11853971367E+02  0.20903584430E+02  0.51100000000E-03 0. -1.
        -11    1    4    4    0    0 -0.77891742708E+00 -0.12556245822E+02  0.33595011839E+01  0.13021223828E+02  0.51100000000E-03 0.  1.
         12    1    4    4    0    0 -0.87982288022E+01  0.15285915962E+02  0.10335307891E+02  0.20442275951E+02  0.00000000000E+00 0. -1.
</event>
<event>
 8    1  0.2514877E-006  0.9118800E+02  0.7816164E-02  0.1184000E+00
        -11   -1    0    0    0    0  0.00000000000E+00  0.00000000000E+00  0.45593999997E+02  0.45594000000E+02  0.51100000000E-03 0. -1.
         11   -1    0    0    0    0 -0.00000000000E+00 -0.00000000000E+00 -0.45593999997E+02  0.45594000000E+02  0.51100000000E-03 0.  1.
         23    2    1    2    0    0  0.17763568394E-14 -0.88817841970E-15  0.71054273576E-14  0.91188000000E+02  0.91188000000E+02 0.  0.
    9900012    2    3    3    0    0 -0.88140100547E+01  0.62104074785E+01 -0.35206874514E+02  0.54367082747E+02  0.39999996738E+02 0.  0.
         12    1    3    3    0    0  0.88140100547E+01 -0.62104074785E+01  0.35206874514E+02  0.36820917253E+02  0.00000000000E+00 0. -1.
         11    1    4    4    0    0 -0.11293788822E+02 -0.33293597549E+00  0.18078309521E+01  0.11442410818E+02  0.51100000000E-03 0. -1.
        -11    1    4    4    0    0  0.92850107665E+01  0.11402271716E+01 -0.70175701432E+01  0.11694350513E+02  0.51100000000E-03 0.  1.
        -12    1    4    4    0    0 -0.68052319990E+01  0.54031162824E+01 -0.29997135323E+02  0.31230321416E+02  0.00000000000E+00 0.  1.
</event>
<event>
 8    1  0.2514877E-006  0.9118800E+02  0.7816164E-02  0.1184000E+00
        -11   -1    0    0    0    0  0.00000000000E+00  0.00000000000E+00  0.45593999997E+02  0.45594000000E+02  0.51100000000E-03 0.  1.
         11   -1    0    0    0    0 -0.00000000000E+00 -0.00000000000E+00 -0.45593999997E+02  0.45594000000E+02  0.51100000000E-03 0. -1.
         23    2    1    2    0    0  0.35527136788E-14  0.35527136788E-14 -0.35527136788E-14  0.91188000000E+02  0.91188000000E+02 0.  0.
    9900012    2    3    3    0    0 -0.19139280995E+02  0.25146691395E+02 -0.18897463106E+02  0.54367051113E+02  0.39999924622E+02 0.  0.
        -12    1    3    3    0    0  0.19139280995E+02 -0.25146691395E+02  0.18897463106E+02  0.36820948887E+02  0.00000000000E+00 0.  1.
         11    1    4    4    0    0  0.96010067518E+01 -0.47901754084E+00 -0.47568031383E+01  0.10725482032E+02  0.51100000000E-03 0. -1.
        -11    1    4    4    0    0 -0.70551561362E+01 -0.73939615010E+00 -0.15875442432E+01  0.72692662463E+01  0.51100000000E-03 0.  1.
         12    1    4    4    0    0 -0.21685131610E+02  0.26365105086E+02 -0.12553115724E+02  0.36372302835E+02  0.00000000000E+00 0. -1.
</event>
<event>
 8    1  0.2514877E-006  0.9118800E+02  0.7816164E-02  0.1184000E+00
        -11   -1    0    0    0    0  0.00000000000E+00  0.00000000000E+00  0.45593999997E+02  0.45594000000E+02  0.51100000000E-03 0. -1.
         11   -1    0    0    0    0 -0.00000000000E+00 -0.00000000000E+00 -0.45593999997E+02  0.45594000000E+02  0.51100000000E-03 0.  1.
         23    2    1    2    0    0  0.00000000000E+00  0.00000000000E+00  0.00000000000E+00  0.91188000000E+02  0.91188000000E+02 0.  0.
    9900012    2    3    3    0    0 -0.27315867242E+02 -0.12808441980E+02 -0.21108467003E+02  0.54367079746E+02  0.39999989896E+02 0.  0.
         12    1    3    3    0    0  0.27315867242E+02  0.12808441980E+02  0.21108467003E+02  0.36820920254E+02  0.00000000000E+00 0. -1.
         11    1    4    4    0    0 -0.50388522048E+01 -0.10325258883E+02  0.16582863255E+01  0.11608226236E+02  0.51100000000E-03 0. -1.
        -11    1    4    4    0    0 -0.27723034417E+02  0.12160607348E+01 -0.23186974843E+02  0.36161875555E+02  0.51100000000E-03 0.  1.
        -12    1    4    4    0    0  0.54460193800E+01 -0.36992438318E+01  0.42022151456E+00  0.65969779548E+01  0.00000000000E+00 0.  1.
</event>
<event>
 8    1  0.2514877E-006  0.9118800E+02  0.7816164E-02  0.1184000E+00
        -11   -1    0    0    0    0  0.00000000000E+00  0.00000000000E+00  0.45593999997E+02  0.45594000000E+02  0.51100000000E-03 0.  1.
         11   -1    0    0    0    0 -0.00000000000E+00 -0.00000000000E+00 -0.45593999997E+02  0.45594000000E+02  0.51100000000E-03 0. -1.
         23    2    1    2    0    0  0.00000000000E+00 -0.88817841970E-15  0.00000000000E+00  0.91188000000E+02  0.91188000000E+02 0.  0.
    9900012    2    3    3    0    0  0.32553226672E+02  0.48997992373E+01 -0.16494221550E+02  0.54367082794E+02  0.39999996846E+02 0.  0.
        -12    1    3    3    0    0 -0.32553226672E+02 -0.48997992373E+01  0.16494221550E+02  0.36820917206E+02  0.00000000000E+00 0.  1.
         11    1    4    4    0    0  0.15558209050E+02 -0.86626844140E+01  0.51441192831E+01  0.18535423750E+02  0.51100000000E-03 0. -1.
        -11    1    4    4    0    0  0.12621870334E+02  0.72820447637E+00 -0.33753566985E+01  0.13085676352E+02  0.51100000000E-03 0.  1.
         12    1    4    4    0    0  0.43731472872E+01  0.12834279175E+02 -0.18262984135E+02  0.22745982692E+02  0.00000000000E+00 0. -1.
</event>
<event>
 8    1  0.2514877E-006  0.9118800E+02  0.7816164E-02  0.1184000E+00
        -11   -1    0    0    0    0  0.00000000000E+00  0.00000000000E+00  0.45593999997E+02  0.45594000000E+02  0.51100000000E-03 0. -1.
         11   -1    0    0    0    0 -0.00000000000E+00 -0.00000000000E+00 -0.45593999997E+02  0.45594000000E+02  0.51100000000E-03 0.  1.
         23    2    1    2    0    0  0.00000000000E+00  0.71054273576E-14  0.00000000000E+00  0.91188000000E+02  0.91188000000E+02 0.  0.
    9900012    2    3    3    0    0  0.86180714611E+01  0.27426090239E+02  0.23006923090E+02  0.54367080788E+02  0.39999992273E+02 0.  0.
        -12    1    3    3    0    0 -0.86180714611E+01 -0.27426090239E+02 -0.23006923090E+02  0.36820919212E+02  0.00000000000E+00 0.  1.
         11    1    4    4    0    0  0.12366419906E+02  0.11921381576E+02  0.58281616784E+01  0.18138774732E+02  0.51100000000E-03 0. -1.
        -11    1    4    4    0    0 -0.68138442707E+01 -0.17744937737E+01  0.17300940385E+02  0.18678860789E+02  0.51100000000E-03 0.  1.
         12    1    4    4    0    0  0.30654958258E+01  0.17279202437E+02 -0.12217897299E+00  0.17549445268E+02  0.00000000000E+00 0. -1.
</event>
<event>
 8    1  0.2514877E-006  0.9118800E+02  0.7816164E-02  0.1184000E+00
        -11   -1    0    0    0    0  0.00000000000E+00  0.00000000000E+00  0.45593999997E+02  0.45594000000E+02  0.51100000000E-03 0.  1.
         11   -1    0    0    0    0 -0.00000000000E+00 -0.00000000000E+00 -0.45593999997E+02  0.45594000000E+02  0.51100000000E-03 0. -1.
         23    2    1    2    0    0  0.00000000000E+00  0.35527136788E-14  0.00000000000E+00  0.91188000000E+02  0.91188000000E+02 0.  0.
    9900012    2    3    3    0    0 -0.26694633387E+02  0.23783714600E+02  0.88040117593E+01  0.54367093507E+02  0.40000021269E+02 0.  0.
         12    1    3    3    0    0  0.26694633387E+02 -0.23783714600E+02 -0.88040117593E+01  0.36820906493E+02  0.00000000000E+00 0. -1.
         11    1    4    4    0    0 -0.10930533058E+02  0.11949420084E+02  0.32636773107E+01  0.16520193193E+02  0.51100000000E-03 0. -1.
        -11    1    4    4    0    0 -0.25389012925E+02  0.61172168053E+01  0.53088292442E+01  0.26649690185E+02  0.51100000000E-03 0.  1.
         12    1    4    4    0    0  0.96249125956E+01  0.57170777106E+01  0.23150520434E+00  0.11197210129E+02  0.00000000000E+00 0. -1.
</event>
<event>
 8    1  0.2514877E-006  0.9118800E+02  0.7816164E-02  0.1184000E+00
        -11   -1    0    0    0    0  0.00000000000E+00  0.00000000000E+00  0.45593999997E+02  0.45594000000E+02  0.51100000000E-03 0.  1.
         11   -1    0    0    0    0 -0.00000000000E+00 -0.00000000000E+00 -0.45593999997E+02  0.45594000000E+02  0.51100000000E-03 0. -1.
         23    2    1    2    0    0  0.00000000000E+00 -0.35527136788E-14  0.00000000000E+00  0.91188000000E+02  0.91188000000E+02 0.  0.
    9900012    2    3    3    0    0 -0.13859860371E+02  0.19344632311E+02  0.28097478767E+02  0.54367097760E+02  0.40000030963E+02 0.  0.
         12    1    3    3    0    0  0.13859860371E+02 -0.19344632311E+02 -0.28097478767E+02  0.36820902240E+02  0.00000000000E+00 0. -1.
         11    1    4    4    0    0  0.37809050474E+00  0.14840541274E+02  0.10480625578E+02  0.18172180125E+02  0.51100000000E-03 0. -1.
        -11    1    4    4    0    0  0.15489277145E+00  0.49210130165E+01  0.20861816590E+02  0.21434919001E+02  0.51100000000E-03 0.  1.
         12    1    4    4    0    0 -0.14392843647E+02 -0.41692197914E+00 -0.32449634016E+01  0.14759998633E+02  0.00000000000E+00 0. -1.
</event>
<event>
 8    1  0.2514877E-006  0.9118800E+02  0.7816164E-02  0.1184000E+00
        -11   -1    0    0    0    0  0.00000000000E+00  0.00000000000E+00  0.45593999997E+02  0.45594000000E+02  0.51100000000E-03 0. -1.
         11   -1    0    0    0    0 -0.00000000000E+00 -0.00000000000E+00 -0.45593999997E+02  0.45594000000E+02  0.51100000000E-03 0.  1.
         23    2    1    2    0    0  0.71054273576E-14  0.00000000000E+00  0.00000000000E+00  0.91188000000E+02  0.91188000000E+02 0.  0.
    9900012    2    3    3    0    0 -0.26698705302E+02  0.17116368367E+02 -0.18707976670E+02  0.54367091239E+02  0.40000016098E+02 0.  0.
         12    1    3    3    0    0  0.26698705302E+02 -0.17116368367E+02  0.18707976670E+02  0.36820908761E+02  0.00000000000E+00 0. -1.
         11    1    4    4    0    0 -0.36100025238E+00 -0.70333441362E+01 -0.15735111255E+01  0.72162447605E+01  0.51100000000E-03 0. -1.
        -11    1    4    4    0    0 -0.64022507152E+01 -0.43012886000E+01 -0.82472372727E+01  0.11291891814E+02  0.51100000000E-03 0.  1.
        -12    1    4    4    0    0 -0.19935454334E+02  0.28451001103E+02 -0.88872282723E+01  0.35858954665E+02  0.00000000000E+00 0.  1.
</event>
<event>
 8    1  0.2514877E-006  0.9118800E+02  0.7816164E-02  0.1184000E+00
        -11   -1    0    0    0    0  0.00000000000E+00  0.00000000000E+00  0.45593999997E+02  0.45594000000E+02  0.51100000000E-03 0.  1.
         11   -1    0    0    0    0 -0.00000000000E+00 -0.00000000000E+00 -0.45593999997E+02  0.45594000000E+02  0.51100000000E-03 0. -1.
         23    2    1    2    0    0  0.17763568394E-14  0.44408920985E-15  0.00000000000E+00  0.91188000000E+02  0.91188000000E+02 0.  0.
    9900012    2    3    3    0    0  0.14988433677E+02 -0.11977986131E+01  0.33610885545E+02  0.54367088920E+02  0.40000010811E+02 0.  0.
         12    1    3    3    0    0 -0.14988433677E+02  0.11977986131E+01 -0.33610885545E+02  0.36820911080E+02  0.00000000000E+00 0. -1.
         11    1    4    4    0    0  0.99479101411E+01 -0.12448068692E+02  0.15799653346E+01  0.16012857992E+02  0.51100000000E-03 0. -1.
        -11    1    4    4    0    0  0.79111529122E+01  0.14596152041E+02  0.23824459467E+02  0.29038575447E+02  0.51100000000E-03 0.  1.
         12    1    4    4    0    0 -0.28706293761E+01 -0.33458819618E+01  0.82064607436E+01  0.93156554816E+01  0.00000000000E+00 0. -1.
</event>
<event>
 8    1  0.2514877E-006  0.9118800E+02  0.7816164E-02  0.1184000E+00
        -11   -1    0    0    0    0  0.00000000000E+00  0.00000000000E+00  0.45593999997E+02  0.45594000000E+02  0.51100000000E-03 0. -1.
         11   -1    0    0    0    0 -0.00000000000E+00 -0.00000000000E+00 -0.45593999997E+02  0.45594000000E+02  0.51100000000E-03 0.  1.
         23    2    1    2    0    0 -0.35527136788E-14  0.88817841970E-15  0.35527136788E-14  0.91188000000E+02  0.91188000000E+02 0.  0.
    9900012    2    3    3    0    0 -0.27862349326E+02 -0.69685420615E+01  0.23041424512E+02  0.54367104683E+02  0.40000046746E+02 0.  0.
         12    1    3    3    0    0  0.27862349326E+02  0.69685420615E+01 -0.23041424512E+02  0.36820895317E+02  0.00000000000E+00 0. -1.
         11    1    4    4    0    0 -0.31672544383E+02 -0.88507554995E+00  0.27280942092E+02  0.41811281111E+02  0.51100000000E-03 0. -1.
        -11    1    4    4    0    0  0.29044343734E-01  0.23840395616E+01 -0.62283599264E-01  0.23850299187E+01  0.51100000000E-03 0.  1.
         12    1    4    4    0    0  0.37811507137E+01 -0.84675060732E+01 -0.41772339805E+01  0.10170793654E+02  0.00000000000E+00 0. -1.
</event>
<event>
 8    1  0.2514877E-006  0.9118800E+02  0.7816164E-02  0.1184000E+00
        -11   -1    0    0    0    0  0.00000000000E+00  0.00000000000E+00  0.45593999997E+02  0.45594000000E+02  0.51100000000E-03 0. -1.
         11   -1    0    0    0    0 -0.00000000000E+00 -0.00000000000E+00 -0.45593999997E+02  0.45594000000E+02  0.51100000000E-03 0.  1.
         23    2    1    2    0    0 -0.17763568394E-14 -0.17763568394E-14  0.35527136788E-14  0.91188000000E+02  0.91188000000E+02 0.  0.
    9900012    2    3    3    0    0  0.14524536638E+02  0.12035296663E+02 -0.31622273301E+02  0.54367099699E+02  0.40000035383E+02 0.  0.
         12    1    3    3    0    0 -0.14524536638E+02 -0.12035296663E+02  0.31622273301E+02  0.36820900301E+02  0.00000000000E+00 0. -1.
         11    1    4    4    0    0  0.16583756054E+02  0.11655844468E+02 -0.21491397131E+02  0.29542508797E+02  0.51100000000E-03 0. -1.
        -11    1    4    4    0    0  0.37202949114E+00 -0.33233373169E+01 -0.16628099384E+02  0.16961033761E+02  0.51100000000E-03 0.  1.
         12    1    4    4    0    0 -0.24312489079E+01  0.37027895121E+01  0.64972232136E+01  0.78635571411E+01  0.00000000000E+00 0. -1.
</event>
<event>
 8    1  0.2514877E-006  0.9118800E+02  0.7816164E-02  0.1184000E+00
        -11   -1    0    0    0    0  0.00000000000E+00  0.00000000000E+00  0.45593999997E+02  0.45594000000E+02  0.51100000000E-03 0. -1.
         11   -1    0    0    0    0 -0.00000000000E+00 -0.00000000000E+00 -0.45593999997E+02  0.45594000000E+02  0.51100000000E-03 0.  1.
         23    2    1    2    0    0  0.35527136788E-14  0.00000000000E+00  0.22204460493E-15  0.91188000000E+02  0.91188000000E+02 0.  0.
    9900012    2    3    3    0    0 -0.29600838122E+02 -0.21811996495E+02 -0.19509121460E+01  0.54367097419E+02  0.40000030187E+02 0.  0.
         12    1    3    3    0    0  0.29600838122E+02  0.21811996495E+02  0.19509121460E+01  0.36820902581E+02  0.00000000000E+00 0. -1.
         11    1    4    4    0    0 -0.12225067742E+02 -0.12173470769E+02  0.16675459346E+01  0.17332812281E+02  0.51100000000E-03 0.  1.
        -11    1    4    4    0    0 -0.97769939846E+01 -0.15624134506E+02 -0.13773925844E+02  0.23009220409E+02  0.51100000000E-03 0. -1.
        -12    1    4    4    0    0 -0.75987763960E+01  0.59856087798E+01  0.10155467763E+02  0.14025064729E+02  0.00000000000E+00 0.  1.
</event>
<event>
 8    1  0.2514877E-006  0.9118800E+02  0.7816164E-02  0.1184000E+00
        -11   -1    0    0    0    0  0.00000000000E+00  0.00000000000E+00  0.45593999997E+02  0.45594000000E+02  0.51100000000E-03 0.  1.
         11   -1    0    0    0    0 -0.00000000000E+00 -0.00000000000E+00 -0.45593999997E+02  0.45594000000E+02  0.51100000000E-03 0. -1.
         23    2    1    2    0    0  0.35527136788E-14  0.00000000000E+00  0.00000000000E+00  0.91188000000E+02  0.91188000000E+02 0.  0.
    9900012    2    3    3    0    0 -0.18002332954E+02  0.27403688040E+02 -0.16755125624E+02  0.54367077352E+02  0.39999984439E+02 0.  0.
        -12    1    3    3    0    0  0.18002332954E+02 -0.27403688040E+02  0.16755125624E+02  0.36820922648E+02  0.00000000000E+00 0.  1.
         11    1    4    4    0    0  0.13313251843E+01  0.13297583433E+02 -0.13076106326E+02  0.18697131032E+02  0.51100000000E-03 0. -1.
        -11    1    4    4    0    0  0.13665822890E+01  0.16167333850E+01  0.83870303264E+01  0.86500665863E+01  0.51100000000E-03 0.  1.
         12    1    4    4    0    0 -0.20700240428E+02  0.12489371222E+02 -0.12066049624E+02  0.27019879733E+02  0.00000000000E+00 0. -1.
</event>
<event>
 8    1  0.2514877E-006  0.9118800E+02  0.7816164E-02  0.1184000E+00
        -11   -1    0    0    0    0  0.00000000000E+00  0.00000000000E+00  0.45593999997E+02  0.45594000000E+02  0.51100000000E-03 0. -1.
         11   -1    0    0    0    0 -0.00000000000E+00 -0.00000000000E+00 -0.45593999997E+02  0.45594000000E+02  0.51100000000E-03 0.  1.
         23    2    1    2    0    0  0.35527136788E-14  0.00000000000E+00  0.35527136788E-14  0.91188000000E+02  0.91188000000E+02 0.  0.
    9900012    2    3    3    0    0 -0.21115165609E+02  0.14513484587E+02 -0.26444066346E+02  0.54367080695E+02  0.39999992060E+02 0.  0.
         12    1    3    3    0    0  0.21115165609E+02 -0.14513484587E+02  0.26444066346E+02  0.36820919305E+02  0.00000000000E+00 0. -1.
         11    1    4    4    0    0  0.23820397793E+01  0.28556381570E+01 -0.70086927736E+01  0.79341387340E+01  0.51100000000E-03 0. -1.
        -11    1    4    4    0    0  0.10151272605E+01  0.16959949412E+02 -0.94278747098E+01  0.19430779429E+02  0.51100000000E-03 0.  1.
         12    1    4    4    0    0 -0.24512332649E+02 -0.53021029815E+01 -0.10007498863E+02  0.27002162532E+02  0.00000000000E+00 0. -1.
</event>
<event>
 8    1  0.2514877E-006  0.9118800E+02  0.7816164E-02  0.1184000E+00
        -11   -1    0    0    0    0  0.00000000000E+00  0.00000000000E+00  0.45593999997E+02  0.45594000000E+02  0.51100000000E-03 0. -1.
         11   -1    0    0    0    0 -0.00000000000E+00 -0.00000000000E+00 -0.45593999997E+02  0.45594000000E+02  0.51100000000E-03 0.  1.
         23    2    1    2    0    0  0.17763568394E-14  0.17763568394E-14  0.00000000000E+00  0.91188000000E+02  0.91188000000E+02 0.  0.
    9900012    2    3    3    0    0  0.98956711396E+01  0.82960745505E+01 -0.34482350559E+02  0.54367059486E+02  0.39999943710E+02 0.  0.
         12    1    3    3    0    0 -0.98956711396E+01 -0.82960745505E+01  0.34482350559E+02  0.36820940514E+02  0.00000000000E+00 0. -1.
         11    1    4    4    0    0  0.59232673806E+01  0.18909501741E+02 -0.24738737996E+02  0.31696364310E+02  0.51100000000E-03 0. -1.
        -11    1    4    4    0    0  0.94385537105E+00  0.42866453419E+01  0.37728860477E+00  0.44055122518E+01  0.51100000000E-03 0.  1.
        -12    1    4    4    0    0  0.30285483879E+01 -0.14900072532E+02 -0.10120901168E+02  0.18265182924E+02  0.00000000000E+00 0.  1.
</event>
<event>
 8    1  0.2514877E-006  0.9118800E+02  0.7816164E-02  0.1184000E+00
        -11   -1    0    0    0    0  0.00000000000E+00  0.00000000000E+00  0.45593999997E+02  0.45594000000E+02  0.51100000000E-03 0. -1.
         11   -1    0    0    0    0 -0.00000000000E+00 -0.00000000000E+00 -0.45593999997E+02  0.45594000000E+02  0.51100000000E-03 0.  1.
         23    2    1    2    0    0  0.71054273576E-14  0.17763568394E-14  0.00000000000E+00  0.91188000000E+02  0.91188000000E+02 0.  0.
    9900012    2    3    3    0    0 -0.33382781214E+02  0.12897094956E+02 -0.86622574946E+01  0.54367084139E+02  0.39999999913E+02 0.  0.
         12    1    3    3    0    0  0.33382781214E+02 -0.12897094956E+02  0.86622574946E+01  0.36820915861E+02  0.00000000000E+00 0. -1.
         11    1    4    4    0    0 -0.77271080064E+01  0.22842940044E+02 -0.53505167098E+01  0.24700933936E+02  0.51100000000E-03 0. -1.
        -11    1    4    4    0    0 -0.26588698488E+01 -0.43314511747E+01  0.19018286870E+01  0.54266021383E+01  0.51100000000E-03 0.  1.
         12    1    4    4    0    0 -0.22996803359E+02 -0.56143939131E+01 -0.52135694717E+01  0.24239548065E+02  0.00000000000E+00 0. -1.
</event>
<event>
 8    1  0.2514877E-006  0.9118800E+02  0.7816164E-02  0.1184000E+00
        -11   -1    0    0    0    0  0.00000000000E+00  0.00000000000E+00  0.45593999997E+02  0.45594000000E+02  0.51100000000E-03 0. -1.
         11   -1    0    0    0    0 -0.00000000000E+00 -0.00000000000E+00 -0.45593999997E+02  0.45594000000E+02  0.51100000000E-03 0.  1.
         23    2    1    2    0    0 -0.35527136788E-14 -0.35527136788E-14 -0.35527136788E-14  0.91188000000E+02  0.91188000000E+02 0.  0.
    9900012    2    3    3    0    0  0.24427797460E+02  0.12656447998E+02  0.24471921466E+02  0.54367110482E+02  0.40000059966E+02 0.  0.
        -12    1    3    3    0    0 -0.24427797460E+02 -0.12656447998E+02 -0.24471921466E+02  0.36820889518E+02  0.00000000000E+00 0.  1.
         11    1    4    4    0    0 -0.11987249027E+01 -0.60478503546E+00  0.12741637575E+02  0.12812183057E+02  0.51100000000E-03 0. -1.
        -11    1    4    4    0    0  0.31125699390E+01 -0.65538904406E+01  0.88219781008E+01  0.11422297028E+02  0.51100000000E-03 0.  1.
        -12    1    4    4    0    0  0.22513952424E+02  0.19815123474E+02  0.29083057896E+01  0.30132630396E+02  0.00000000000E+00 0.  1.
</event>
<event>
 8    1  0.2514877E-006  0.9118800E+02  0.7816164E-02  0.1184000E+00
        -11   -1    0    0    0    0  0.00000000000E+00  0.00000000000E+00  0.45593999997E+02  0.45594000000E+02  0.51100000000E-03 0.  1.
         11   -1    0    0    0    0 -0.00000000000E+00 -0.00000000000E+00 -0.45593999997E+02  0.45594000000E+02  0.51100000000E-03 0. -1.
         23    2    1    2    0    0  0.00000000000E+00 -0.35527136788E-14  0.00000000000E+00  0.91188000000E+02  0.91188000000E+02 0.  0.
    9900012    2    3    3    0    0  0.23222758838E+02 -0.25042283195E+02 -0.13761113372E+02  0.54367072297E+02  0.39999972916E+02 0.  0.
         12    1    3    3    0    0 -0.23222758838E+02  0.25042283195E+02  0.13761113372E+02  0.36820927703E+02  0.00000000000E+00 0. -1.
         11    1    4    4    0    0  0.16424843628E+02 -0.87015456460E+01  0.16491477419E+01  0.18660441404E+02  0.51100000000E-03 0. -1.
        -11    1    4    4    0    0 -0.96076127339E+01 -0.20528911361E+01 -0.81720766720E+01  0.12779022727E+02  0.51100000000E-03 0.  1.
        -12    1    4    4    0    0  0.16405527944E+02 -0.14287846413E+02 -0.72381844419E+01  0.22927608166E+02  0.00000000000E+00 0.  1.
</event>
<event>
 8    1  0.2514877E-006  0.9118800E+02  0.7816164E-02  0.1184000E+00
        -11   -1    0    0    0    0  0.00000000000E+00  0.00000000000E+00  0.45593999997E+02  0.45594000000E+02  0.51100000000E-03 0. -1.
         11   -1    0    0    0    0 -0.00000000000E+00 -0.00000000000E+00 -0.45593999997E+02  0.45594000000E+02  0.51100000000E-03 0.  1.
         23    2    1    2    0    0  0.00000000000E+00  0.17763568394E-14  0.00000000000E+00  0.91188000000E+02  0.91188000000E+02 0.  0.
    9900012    2    3    3    0    0 -0.31128936401E+02  0.13771297749E+02  0.14039972576E+02  0.54367079953E+02  0.39999990370E+02 0.  0.
        -12    1    3    3    0    0  0.31128936401E+02 -0.13771297749E+02 -0.14039972576E+02  0.36820920047E+02  0.00000000000E+00 0.  1.
         11    1    4    4    0    0 -0.33274592326E+02  0.14624559972E+02  0.99932008192E+01  0.37695361939E+02  0.51100000000E-03 0. -1.
        -11    1    4    4    0    0 -0.45364204967E+01  0.30686801754E+01 -0.29598219871E+01  0.62254682874E+01  0.51100000000E-03 0.  1.
         12    1    4    4    0    0  0.66820764215E+01 -0.39219423980E+01  0.70065937435E+01  0.10446249727E+02  0.00000000000E+00 0. -1.
</event>
<event>
 8    1  0.2514877E-006  0.9118800E+02  0.7816164E-02  0.1184000E+00
        -11   -1    0    0    0    0  0.00000000000E+00  0.00000000000E+00  0.45593999997E+02  0.45594000000E+02  0.51100000000E-03 0.  1.
         11   -1    0    0    0    0 -0.00000000000E+00 -0.00000000000E+00 -0.45593999997E+02  0.45594000000E+02  0.51100000000E-03 0. -1.
         23    2    1    2    0    0  0.00000000000E+00  0.00000000000E+00  0.00000000000E+00  0.91188000000E+02  0.91188000000E+02 0.  0.
    9900012    2    3    3    0    0 -0.22738624059E+02  0.17297843315E+02  0.23227558289E+02  0.54367083777E+02  0.39999999086E+02 0.  0.
        -12    1    3    3    0    0  0.22738624059E+02 -0.17297843315E+02 -0.23227558289E+02  0.36820916223E+02  0.00000000000E+00 0.  1.
         11    1    4    4    0    0  0.47418854341E+01  0.72620027633E+01  0.13839872962E+01  0.87828003907E+01  0.51100000000E-03 0. -1.
        -11    1    4    4    0    0 -0.17732672123E+02 -0.14286533717E+01  0.24525919871E+02  0.30298670876E+02  0.51100000000E-03 0.  1.
        -12    1    4    4    0    0 -0.97478373699E+01  0.11464493923E+02 -0.26823488779E+01  0.15285612510E+02  0.00000000000E+00 0.  1.
</event>
<event>
 8    1  0.2514877E-006  0.9118800E+02  0.7816164E-02  0.1184000E+00
        -11   -1    0    0    0    0  0.00000000000E+00  0.00000000000E+00  0.45593999997E+02  0.45594000000E+02  0.51100000000E-03 0.  1.
         11   -1    0    0    0    0 -0.00000000000E+00 -0.00000000000E+00 -0.45593999997E+02  0.45594000000E+02  0.51100000000E-03 0. -1.
         23    2    1    2    0    0  0.55511151231E-15  0.00000000000E+00  0.00000000000E+00  0.91188000000E+02  0.91188000000E+02 0.  0.
    9900012    2    3    3    0    0  0.90791916460E+00 -0.27537797195E+02  0.24425910618E+02  0.54367086091E+02  0.40000004362E+02 0.  0.
         12    1    3    3    0    0 -0.90791916460E+00  0.27537797195E+02 -0.24425910618E+02  0.36820913909E+02  0.00000000000E+00 0. -1.
         11    1    4    4    0    0  0.77351198517E+01 -0.41769839376E+01 -0.85524032498E+01  0.12264700385E+02  0.51100000000E-03 0. -1.
        -11    1    4    4    0    0 -0.25238539533E+00 -0.85521863170E+01  0.18461791595E+02  0.20348005758E+02  0.51100000000E-03 0.  1.
         12    1    4    4    0    0 -0.65748152918E+01 -0.14808626940E+02  0.14516522274E+02  0.21754379947E+02  0.00000000000E+00 0. -1.
</event>
<event>
 8    1  0.2514877E-006  0.9118800E+02  0.7816164E-02  0.1184000E+00
        -11   -1    0    0    0    0  0.00000000000E+00  0.00000000000E+00  0.45593999997E+02  0.45594000000E+02  0.51100000000E-03 0. -1.
         11   -1    0    0    0    0 -0.00000000000E+00 -0.00000000000E+00 -0.45593999997E+02  0.45594000000E+02  0.51100000000E-03 0.  1.
         23    2    1    2    0    0  0.00000000000E+00  0.00000000000E+00  0.00000000000E+00  0.91188000000E+02  0.91188000000E+02 0.  0.
    9900012    2    3    3    0    0 -0.28065636074E+01  0.26508268404E+02  0.25401157802E+02  0.54367028928E+02  0.39999874046E+02 0.  0.
        -12    1    3    3    0    0  0.28065636074E+01 -0.26508268404E+02 -0.25401157802E+02  0.36820971072E+02  0.00000000000E+00 0.  1.
         11    1    4    4    0    0  0.12613584194E+02  0.18033778268E+02  0.35425851040E+01  0.22290571422E+02  0.51100000000E-03 0.  1.
        -11    1    4    4    0    0 -0.14524793753E+02  0.94379677292E+01  0.23979120768E+02  0.29581127455E+02  0.51100000000E-03 0. -1.
        -12    1    4    4    0    0 -0.89535404813E+00 -0.96347759349E+00 -0.21205480705E+01  0.24953300511E+01  0.00000000000E+00 0.  1.
</event>
<event>
 8    1  0.2514877E-006  0.9118800E+02  0.7816164E-02  0.1184000E+00
        -11   -1    0    0    0    0  0.00000000000E+00  0.00000000000E+00  0.45593999997E+02  0.45594000000E+02  0.51100000000E-03 0.  1.
         11   -1    0    0    0    0 -0.00000000000E+00 -0.00000000000E+00 -0.45593999997E+02  0.45594000000E+02  0.51100000000E-03 0. -1.
         23    2    1    2    0    0  0.15543122345E-14  0.71054273576E-14  0.00000000000E+00  0.91188000000E+02  0.91188000000E+02 0.  0.
    9900012    2    3    3    0    0 -0.11060428456E+01  0.35913071904E+02 -0.80504167918E+01  0.54367064720E+02  0.39999955642E+02 0.  0.
        -12    1    3    3    0    0  0.11060428456E+01 -0.35913071904E+02  0.80504167918E+01  0.36820935280E+02  0.00000000000E+00 0.  1.
         11    1    4    4    0    0  0.41231201587E+01  0.29158009942E+01 -0.99967720711E+01  0.11199886936E+02  0.51100000000E-03 0. -1.
        -11    1    4    4    0    0 -0.86959528014E+01  0.22343646633E+01 -0.64925562095E+01  0.11079948870E+02  0.51100000000E-03 0.  1.
         12    1    4    4    0    0  0.34667897972E+01  0.30762906247E+02  0.84389114887E+01  0.32087228914E+02  0.00000000000E+00 0. -1.
</event>
<event>
 8    1  0.2514877E-006  0.9118800E+02  0.7816164E-02  0.1184000E+00
        -11   -1    0    0    0    0  0.00000000000E+00  0.00000000000E+00  0.45593999997E+02  0.45594000000E+02  0.51100000000E-03 0.  1.
         11   -1    0    0    0    0 -0.00000000000E+00 -0.00000000000E+00 -0.45593999997E+02  0.45594000000E+02  0.51100000000E-03 0. -1.
         23    2    1    2    0    0  0.17763568394E-14 -0.17763568394E-14  0.00000000000E+00  0.91188000000E+02  0.91188000000E+02 0.  0.
    9900012    2    3    3    0    0  0.82609575098E+01 -0.11968999879E+02  0.33827201841E+02  0.54367082555E+02  0.39999996301E+02 0.  0.
         12    1    3    3    0    0 -0.82609575098E+01  0.11968999879E+02 -0.33827201841E+02  0.36820917445E+02  0.00000000000E+00 0. -1.
         11    1    4    4    0    0 -0.34464761310E+01 -0.15022603964E+02  0.80352560841E+00  0.15433809681E+02  0.51100000000E-03 0. -1.
        -11    1    4    4    0    0  0.11872443337E+01 -0.53130311400E+01  0.17852352008E+02  0.18663984609E+02  0.51100000000E-03 0.  1.
        -12    1    4    4    0    0  0.10520189307E+02  0.83666352258E+01  0.15171324225E+02  0.20269288265E+02  0.00000000000E+00 0.  1.
</event>
<event>
 8    1  0.2514877E-006  0.9118800E+02  0.7816164E-02  0.1184000E+00
        -11   -1    0    0    0    0  0.00000000000E+00  0.00000000000E+00  0.45593999997E+02  0.45594000000E+02  0.51100000000E-03 0. -1.
         11   -1    0    0    0    0 -0.00000000000E+00 -0.00000000000E+00 -0.45593999997E+02  0.45594000000E+02  0.51100000000E-03 0.  1.
         23    2    1    2    0    0 -0.17763568394E-14  0.00000000000E+00 -0.17763568394E-14  0.91188000000E+02  0.91188000000E+02 0.  0.
    9900012    2    3    3    0    0  0.12035838988E+02 -0.32044044214E+02  0.13568269864E+02  0.54367080174E+02  0.39999990872E+02 0.  0.
         12    1    3    3    0    0 -0.12035838988E+02  0.32044044214E+02 -0.13568269864E+02  0.36820919826E+02  0.00000000000E+00 0. -1.
         11    1    4    4    0    0 -0.22360120885E+01 -0.31305393356E+01 -0.38136951978E+01  0.54170377435E+01  0.51100000000E-03 0. -1.
        -11    1    4    4    0    0 -0.69021823703E+00 -0.23364928939E+02 -0.24408003870E+01  0.23502208669E+02  0.51100000000E-03 0.  1.
         12    1    4    4    0    0  0.14962069313E+02 -0.55485759398E+01  0.19822765449E+02  0.25447833761E+02  0.00000000000E+00 0. -1.
</event>
<event>
 8    1  0.2514877E-006  0.9118800E+02  0.7816164E-02  0.1184000E+00
        -11   -1    0    0    0    0  0.00000000000E+00  0.00000000000E+00  0.45593999997E+02  0.45594000000E+02  0.51100000000E-03 0. -1.
         11   -1    0    0    0    0 -0.00000000000E+00 -0.00000000000E+00 -0.45593999997E+02  0.45594000000E+02  0.51100000000E-03 0.  1.
         23    2    1    2    0    0 -0.35527136788E-14  0.00000000000E+00 -0.17763568394E-14  0.91188000000E+02  0.91188000000E+02 0.  0.
    9900012    2    3    3    0    0  0.14477775211E+02 -0.32765335856E+02  0.85209441468E+01  0.54367086133E+02  0.40000004458E+02 0.  0.
        -12    1    3    3    0    0 -0.14477775211E+02  0.32765335856E+02 -0.85209441468E+01  0.36820913867E+02  0.00000000000E+00 0.  1.
         11    1    4    4    0    0  0.17777778308E+02 -0.21300103785E+02  0.12455867284E+02  0.30412044536E+02  0.51100000000E-03 0. -1.
        -11    1    4    4    0    0 -0.60934955018E+01 -0.67450596190E+01 -0.11469982975E+02  0.14635129873E+02  0.51100000000E-03 0.  1.
        -12    1    4    4    0    0  0.27934924048E+01 -0.47201724521E+01  0.75350598372E+01  0.93199117240E+01  0.00000000000E+00 0.  1.
</event>
<event>
 8    1  0.2514877E-006  0.9118800E+02  0.7816164E-02  0.1184000E+00
        -11   -1    0    0    0    0  0.00000000000E+00  0.00000000000E+00  0.45593999997E+02  0.45594000000E+02  0.51100000000E-03 0.  1.
         11   -1    0    0    0    0 -0.00000000000E+00 -0.00000000000E+00 -0.45593999997E+02  0.45594000000E+02  0.51100000000E-03 0. -1.
         23    2    1    2    0    0  0.00000000000E+00  0.71054273576E-14  0.00000000000E+00  0.91188000000E+02  0.91188000000E+02 0.  0.
    9900012    2    3    3    0    0  0.46538731012E+01 -0.31903906370E+02 -0.17783717349E+02  0.54367104041E+02  0.40000045283E+02 0.  0.
        -12    1    3    3    0    0 -0.46538731012E+01  0.31903906370E+02  0.17783717349E+02  0.36820895959E+02  0.00000000000E+00 0.  1.
         11    1    4    4    0    0  0.74755440038E+01  0.16490917823E+01 -0.55767680251E+01  0.94711986425E+01  0.51100000000E-03 0. -1.
        -11    1    4    4    0    0  0.10160079901E+01  0.45948803266E+01 -0.16454478595E+00  0.47087442805E+01  0.51100000000E-03 0.  1.
         12    1    4    4    0    0 -0.38376788928E+01 -0.38147878478E+02 -0.12042404537E+02  0.40187161118E+02  0.00000000000E+00 0. -1.
</event>
<event>
 8    1  0.2514877E-006  0.9118800E+02  0.7816164E-02  0.1184000E+00
        -11   -1    0    0    0    0  0.00000000000E+00  0.00000000000E+00  0.45593999997E+02  0.45594000000E+02  0.51100000000E-03 0. -1.
         11   -1    0    0    0    0 -0.00000000000E+00 -0.00000000000E+00 -0.45593999997E+02  0.45594000000E+02  0.51100000000E-03 0.  1.
         23    2    1    2    0    0 -0.35527136788E-14  0.00000000000E+00  0.00000000000E+00  0.91188000000E+02  0.91188000000E+02 0.  0.
    9900012    2    3    3    0    0 -0.31095187042E+02  0.54578569832E+01 -0.18949406077E+02  0.54367097639E+02  0.40000030688E+02 0.  0.
         12    1    3    3    0    0  0.31095187042E+02 -0.54578569832E+01  0.18949406077E+02  0.36820902361E+02  0.00000000000E+00 0. -1.
         11    1    4    4    0    0 -0.18346273312E+02  0.43995599903E+01 -0.18714167036E+01  0.18959010345E+02  0.51100000000E-03 0. -1.
        -11    1    4    4    0    0 -0.15352942421E+02 -0.65140233108E+01 -0.14628081055E+00  0.16678331422E+02  0.51100000000E-03 0.  1.
        -12    1    4    4    0    0  0.26040286908E+01  0.75723203037E+01 -0.16931708562E+02  0.18729755873E+02  0.00000000000E+00 0.  1.
</event>
<event>
 8    1  0.2514877E-006  0.9118800E+02  0.7816164E-02  0.1184000E+00
        -11   -1    0    0    0    0  0.00000000000E+00  0.00000000000E+00  0.45593999997E+02  0.45594000000E+02  0.51100000000E-03 0.  1.
         11   -1    0    0    0    0 -0.00000000000E+00 -0.00000000000E+00 -0.45593999997E+02  0.45594000000E+02  0.51100000000E-03 0. -1.
         23    2    1    2    0    0  0.00000000000E+00 -0.17763568394E-14  0.00000000000E+00  0.91188000000E+02  0.91188000000E+02 0.  0.
    9900012    2    3    3    0    0 -0.30603948809E+02  0.56535018979E+01 -0.19677811921E+02  0.54367081375E+02  0.39999993611E+02 0.  0.
        -12    1    3    3    0    0  0.30603948809E+02 -0.56535018979E+01  0.19677811921E+02  0.36820918625E+02  0.00000000000E+00 0.  1.
         11    1    4    4    0    0 -0.15711299488E+02  0.11260288706E+02  0.16733154552E+01  0.19402036445E+02  0.51100000000E-03 0. -1.
        -11    1    4    4    0    0 -0.16837178167E+02 -0.11404991066E+02 -0.20347272743E+02  0.28767618918E+02  0.51100000000E-03 0.  1.
        -12    1    4    4    0    0  0.19445288463E+01  0.57982042580E+01 -0.10038546329E+01  0.61974260121E+01  0.00000000000E+00 0.  1.
</event>
<event>
 8    1  0.2514877E-006  0.9118800E+02  0.7816164E-02  0.1184000E+00
        -11   -1    0    0    0    0  0.00000000000E+00  0.00000000000E+00  0.45593999997E+02  0.45594000000E+02  0.51100000000E-03 0. -1.
         11   -1    0    0    0    0 -0.00000000000E+00 -0.00000000000E+00 -0.45593999997E+02  0.45594000000E+02  0.51100000000E-03 0.  1.
         23    2    1    2    0    0  0.17763568394E-14  0.35527136788E-14  0.00000000000E+00  0.91188000000E+02  0.91188000000E+02 0.  0.
    9900012    2    3    3    0    0 -0.10921702298E+02 -0.12755631209E+02 -0.32768738705E+02  0.54367082780E+02  0.39999996814E+02 0.  0.
         12    1    3    3    0    0  0.10921702298E+02  0.12755631209E+02  0.32768738705E+02  0.36820917220E+02  0.00000000000E+00 0. -1.
         11    1    4    4    0    0  0.77366457392E+01  0.16312779538E+01 -0.22115001227E+01  0.82102063378E+01  0.51100000000E-03 0. -1.
        -11    1    4    4    0    0 -0.22511130759E+01  0.50925198994E+01  0.94464413821E+00  0.56474438302E+01  0.51100000000E-03 0.  1.
        -12    1    4    4    0    0 -0.16407234961E+02 -0.19479429062E+02 -0.31501882720E+02  0.40509432612E+02  0.00000000000E+00 0.  1.
</event>
<event>
 8    1  0.2514877E-006  0.9118800E+02  0.7816164E-02  0.1184000E+00
        -11   -1    0    0    0    0  0.00000000000E+00  0.00000000000E+00  0.45593999997E+02  0.45594000000E+02  0.51100000000E-03 0.  1.
         11   -1    0    0    0    0 -0.00000000000E+00 -0.00000000000E+00 -0.45593999997E+02  0.45594000000E+02  0.51100000000E-03 0. -1.
         23    2    1    2    0    0  0.35527136788E-14  0.00000000000E+00  0.35527136788E-14  0.91188000000E+02  0.91188000000E+02 0.  0.
    9900012    2    3    3    0    0 -0.26778777402E+02 -0.75557659140E+01 -0.24116029471E+02  0.54367144563E+02  0.40000137660E+02 0.  0.
        -12    1    3    3    0    0  0.26778777402E+02  0.75557659140E+01  0.24116029471E+02  0.36820855437E+02  0.00000000000E+00 0.  1.
         11    1    4    4    0    0 -0.20746637362E+02 -0.70770457136E+01 -0.18126256217E+01  0.21995298356E+02  0.51100000000E-03 0. -1.
        -11    1    4    4    0    0 -0.50908363391E+01  0.89943782525E+01 -0.20098461486E+02  0.22600079848E+02  0.51100000000E-03 0.  1.
        -12    1    4    4    0    0 -0.94130370071E+00 -0.94730984529E+01 -0.22049423633E+01  0.97717663593E+01  0.00000000000E+00 0.  1.
</event>
<event>
 8    1  0.2514877E-006  0.9118800E+02  0.7816164E-02  0.1184000E+00
        -11   -1    0    0    0    0  0.00000000000E+00  0.00000000000E+00  0.45593999997E+02  0.45594000000E+02  0.51100000000E-03 0.  1.
         11   -1    0    0    0    0 -0.00000000000E+00 -0.00000000000E+00 -0.45593999997E+02  0.45594000000E+02  0.51100000000E-03 0. -1.
         23    2    1    2    0    0  0.00000000000E+00  0.00000000000E+00  0.71054273576E-14  0.91188000000E+02  0.91188000000E+02 0.  0.
    9900012    2    3    3    0    0 -0.76543147477E+01  0.54149534984E+01 -0.35607136605E+02  0.54367103313E+02  0.40000043622E+02 0.  0.
        -12    1    3    3    0    0  0.76543147477E+01 -0.54149534984E+01  0.35607136605E+02  0.36820896687E+02  0.00000000000E+00 0.  1.
         11    1    4    4    0    0 -0.18096984929E+02 -0.45602185380E+01 -0.61967246628E+01  0.19664583734E+02  0.51100000000E-03 0. -1.
        -11    1    4    4    0    0  0.14517410217E-01  0.46981677607E+01 -0.24080012905E+01  0.52793429079E+01  0.51100000000E-03 0.  1.
        -12    1    4    4    0    0  0.10428152771E+02  0.52770042757E+01 -0.27002410652E+02  0.29423176670E+02  0.00000000000E+00 0.  1.
</event>
<event>
 8    1  0.2514877E-006  0.9118800E+02  0.7816164E-02  0.1184000E+00
        -11   -1    0    0    0    0  0.00000000000E+00  0.00000000000E+00  0.45593999997E+02  0.45594000000E+02  0.51100000000E-03 0. -1.
         11   -1    0    0    0    0 -0.00000000000E+00 -0.00000000000E+00 -0.45593999997E+02  0.45594000000E+02  0.51100000000E-03 0.  1.
         23    2    1    2    0    0  0.35527136788E-14  0.00000000000E+00 -0.35527136788E-14  0.91188000000E+02  0.91188000000E+02 0.  0.
    9900012    2    3    3    0    0  0.20394914628E+02  0.19985395236E+02 -0.23246744814E+02  0.54367085972E+02  0.40000004089E+02 0.  0.
         12    1    3    3    0    0 -0.20394914628E+02 -0.19985395236E+02  0.23246744814E+02  0.36820914028E+02  0.00000000000E+00 0. -1.
         11    1    4    4    0    0  0.19193026695E+02  0.13230457697E+02 -0.11687637868E+02  0.26077157893E+02  0.51100000000E-03 0. -1.
        -11    1    4    4    0    0  0.91723448290E+01  0.99389592506E+01  0.44636322273E+00  0.13531964419E+02  0.51100000000E-03 0.  1.
         12    1    4    4    0    0 -0.79704568963E+01 -0.31840217112E+01 -0.12005470169E+02  0.14757963660E+02  0.00000000000E+00 0. -1.
</event>
<event>
 8    1  0.2514877E-006  0.9118800E+02  0.7816164E-02  0.1184000E+00
        -11   -1    0    0    0    0  0.00000000000E+00  0.00000000000E+00  0.45593999997E+02  0.45594000000E+02  0.51100000000E-03 0.  1.
         11   -1    0    0    0    0 -0.00000000000E+00 -0.00000000000E+00 -0.45593999997E+02  0.45594000000E+02  0.51100000000E-03 0. -1.
         23    2    1    2    0    0  0.00000000000E+00  0.71054273576E-14 -0.17763568394E-14  0.91188000000E+02  0.91188000000E+02 0.  0.
    9900012    2    3    3    0    0 -0.16223480909E+02 -0.32654117641E+02  0.51270635976E+01  0.54367088647E+02  0.40000010188E+02 0.  0.
         12    1    3    3    0    0  0.16223480909E+02  0.32654117641E+02 -0.51270635976E+01  0.36820911353E+02  0.00000000000E+00 0. -1.
         11    1    4    4    0    0 -0.63350071336E-01  0.97442825776E+00  0.30425420883E+01  0.31954008014E+01  0.51100000000E-03 0. -1.
        -11    1    4    4    0    0 -0.63622700543E+01  0.35318909864E+01  0.95666326255E+01  0.12019700256E+02  0.51100000000E-03 0.  1.
         12    1    4    4    0    0 -0.97978607838E+01 -0.37160436886E+02 -0.74821111161E+01  0.39151987590E+02  0.00000000000E+00 0. -1.
</event>
<event>
 8    1  0.2514877E-006  0.9118800E+02  0.7816164E-02  0.1184000E+00
        -11   -1    0    0    0    0  0.00000000000E+00  0.00000000000E+00  0.45593999997E+02  0.45594000000E+02  0.51100000000E-03 0. -1.
         11   -1    0    0    0    0 -0.00000000000E+00 -0.00000000000E+00 -0.45593999997E+02  0.45594000000E+02  0.51100000000E-03 0.  1.
         23    2    1    2    0    0 -0.17763568394E-14  0.00000000000E+00  0.17763568394E-14  0.91188000000E+02  0.91188000000E+02 0.  0.
    9900012    2    3    3    0    0 -0.14596949913E+02 -0.33494519663E+02 -0.45635519642E+01  0.54367084738E+02  0.40000001277E+02 0.  0.
        -12    1    3    3    0    0  0.14596949913E+02  0.33494519663E+02  0.45635519642E+01  0.36820915262E+02  0.00000000000E+00 0.  1.
         11    1    4    4    0    0 -0.11397841329E+02 -0.24562714230E+02  0.92375955214E+01  0.28610677877E+02  0.51100000000E-03 0. -1.
        -11    1    4    4    0    0 -0.90637276065E+01 -0.99902417097E+01 -0.14443091812E+02  0.19762565342E+02  0.51100000000E-03 0.  1.
         12    1    4    4    0    0  0.58646190227E+01  0.10584362769E+01  0.64194432634E+00  0.59938415188E+01  0.00000000000E+00 0. -1.
</event>
<event>
 8    1  0.2514877E-006  0.9118800E+02  0.7816164E-02  0.1184000E+00
        -11   -1    0    0    0    0  0.00000000000E+00  0.00000000000E+00  0.45593999997E+02  0.45594000000E+02  0.51100000000E-03 0. -1.
         11   -1    0    0    0    0 -0.00000000000E+00 -0.00000000000E+00 -0.45593999997E+02  0.45594000000E+02  0.51100000000E-03 0.  1.
         23    2    1    2    0    0  0.00000000000E+00 -0.88817841970E-15  0.17763568394E-14  0.91188000000E+02  0.91188000000E+02 0.  0.
    9900012    2    3    3    0    0 -0.32741812550E+02  0.60616779730E+01 -0.15716557212E+02  0.54367076607E+02  0.39999982741E+02 0.  0.
         12    1    3    3    0    0  0.32741812550E+02 -0.60616779730E+01  0.15716557212E+02  0.36820923393E+02  0.00000000000E+00 0. -1.
         11    1    4    4    0    0 -0.43304645343E+01  0.90212324925E+01 -0.15293313708E+02  0.18276241495E+02  0.51100000000E-03 0. -1.
        -11    1    4    4    0    0 -0.11430481147E+02 -0.12156103573E+02  0.10805257228E+01  0.16721073214E+02  0.51100000000E-03 0.  1.
         12    1    4    4    0    0 -0.16980866869E+02  0.91965490533E+01 -0.15037692273E+01  0.19369761898E+02  0.00000000000E+00 0. -1.
</event>
<event>
 8    1  0.2514877E-006  0.9118800E+02  0.7816164E-02  0.1184000E+00
        -11   -1    0    0    0    0  0.00000000000E+00  0.00000000000E+00  0.45593999997E+02  0.45594000000E+02  0.51100000000E-03 0. -1.
         11   -1    0    0    0    0 -0.00000000000E+00 -0.00000000000E+00 -0.45593999997E+02  0.45594000000E+02  0.51100000000E-03 0.  1.
         23    2    1    2    0    0  0.35527136788E-14  0.00000000000E+00  0.00000000000E+00  0.91188000000E+02  0.91188000000E+02 0.  0.
    9900012    2    3    3    0    0 -0.18933854181E+02 -0.83073494373E+01 -0.30467626295E+02  0.54367093698E+02  0.40000021704E+02 0.  0.
         12    1    3    3    0    0  0.18933854181E+02  0.83073494373E+01  0.30467626295E+02  0.36820906302E+02  0.00000000000E+00 0. -1.
         11    1    4    4    0    0  0.26649445373E+00 -0.11672324579E+00  0.46162583575E+01  0.46254172886E+01  0.51100000000E-03 0. -1.
        -11    1    4    4    0    0  0.11995783305E+01  0.57678946495E+01 -0.19850540879E+02  0.20706317159E+02  0.51100000000E-03 0.  1.
         12    1    4    4    0    0 -0.20399926965E+02 -0.13958520841E+02 -0.15233343774E+02  0.29035359250E+02  0.00000000000E+00 0. -1.
</event>
<event>
 8    1  0.2514877E-006  0.9118800E+02  0.7816164E-02  0.1184000E+00
        -11   -1    0    0    0    0  0.00000000000E+00  0.00000000000E+00  0.45593999997E+02  0.45594000000E+02  0.51100000000E-03 0. -1.
         11   -1    0    0    0    0 -0.00000000000E+00 -0.00000000000E+00 -0.45593999997E+02  0.45594000000E+02  0.51100000000E-03 0.  1.
         23    2    1    2    0    0  0.00000000000E+00 -0.88817841970E-15  0.00000000000E+00  0.91188000000E+02  0.91188000000E+02 0.  0.
    9900012    2    3    3    0    0  0.14977851842E+02  0.65865367997E+01 -0.32985764701E+02  0.54367093090E+02  0.40000020317E+02 0.  0.
         12    1    3    3    0    0 -0.14977851842E+02 -0.65865367997E+01  0.32985764701E+02  0.36820906910E+02  0.00000000000E+00 0. -1.
         11    1    4    4    0    0 -0.67372680364E+01  0.28966768178E+01 -0.24959932887E+02  0.26014991201E+02  0.51100000000E-03 0. -1.
        -11    1    4    4    0    0  0.12533900841E+02  0.15936774713E+01 -0.12633903880E+02  0.17867680479E+02  0.51100000000E-03 0.  1.
        -12    1    4    4    0    0  0.91812190370E+01  0.20961825106E+01  0.46080720673E+01  0.10484421410E+02  0.00000000000E+00 0.  1.
</event>
<event>
 8    1  0.2514877E-006  0.9118800E+02  0.7816164E-02  0.1184000E+00
        -11   -1    0    0    0    0  0.00000000000E+00  0.00000000000E+00  0.45593999997E+02  0.45594000000E+02  0.51100000000E-03 0. -1.
         11   -1    0    0    0    0 -0.00000000000E+00 -0.00000000000E+00 -0.45593999997E+02  0.45594000000E+02  0.51100000000E-03 0.  1.
         23    2    1    2    0    0  0.00000000000E+00  0.00000000000E+00  0.35527136788E-14  0.91188000000E+02  0.91188000000E+02 0.  0.
    9900012    2    3    3    0    0 -0.99698312303E+01  0.29372036662E+02 -0.19841028105E+02  0.54367075667E+02  0.39999980598E+02 0.  0.
        -12    1    3    3    0    0  0.99698312303E+01 -0.29372036662E+02  0.19841028105E+02  0.36820924333E+02  0.00000000000E+00 0.  1.
         11    1    4    4    0    0  0.48283270939E+01  0.30916374248E+01  0.39062998364E+01  0.69375891464E+01  0.51100000000E-03 0. -1.
        -11    1    4    4    0    0 -0.10727109206E+02  0.80420822563E+01  0.39867727587E+01  0.13987148252E+02  0.51100000000E-03 0.  1.
        -12    1    4    4    0    0 -0.40710491183E+01  0.18238316981E+02 -0.27734100700E+02  0.33442338269E+02  0.00000000000E+00 0.  1.
</event>
<event>
 8    1  0.2514877E-006  0.9118800E+02  0.7816164E-02  0.1184000E+00
        -11   -1    0    0    0    0  0.00000000000E+00  0.00000000000E+00  0.45593999997E+02  0.45594000000E+02  0.51100000000E-03 0. -1.
         11   -1    0    0    0    0 -0.00000000000E+00 -0.00000000000E+00 -0.45593999997E+02  0.45594000000E+02  0.51100000000E-03 0.  1.
         23    2    1    2    0    0 -0.35527136788E-14 -0.17763568394E-14  0.35527136788E-14  0.91188000000E+02  0.91188000000E+02 0.  0.
    9900012    2    3    3    0    0  0.26547678151E+02  0.81153805707E+01  0.24189697754E+02  0.54367080750E+02  0.39999992186E+02 0.  0.
        -12    1    3    3    0    0 -0.26547678151E+02 -0.81153805707E+01 -0.24189697754E+02  0.36820919250E+02  0.00000000000E+00 0.  1.
         11    1    4    4    0    0 -0.29331511281E+01  0.63691687960E+01  0.17985087868E+01  0.72390828708E+01  0.51100000000E-03 0. -1.
        -11    1    4    4    0    0 -0.32362858964E+01  0.45934027911E+01 -0.22684415892E+01  0.60595976030E+01  0.51100000000E-03 0.  1.
         12    1    4    4    0    0  0.32717115175E+02 -0.28471910164E+01  0.24659630556E+02  0.41068400276E+02  0.00000000000E+00 0. -1.
</event>
<event>
 8    1  0.2514877E-006  0.9118800E+02  0.7816164E-02  0.1184000E+00
        -11   -1    0    0    0    0  0.00000000000E+00  0.00000000000E+00  0.45593999997E+02  0.45594000000E+02  0.51100000000E-03 0. -1.
         11   -1    0    0    0    0 -0.00000000000E+00 -0.00000000000E+00 -0.45593999997E+02  0.45594000000E+02  0.51100000000E-03 0.  1.
         23    2    1    2    0    0  0.00000000000E+00  0.00000000000E+00  0.17763568394E-14  0.91188000000E+02  0.91188000000E+02 0.  0.
    9900012    2    3    3    0    0 -0.32660803475E+02  0.11710367551E+02  0.12325616326E+02  0.54367060174E+02  0.39999945280E+02 0.  0.
        -12    1    3    3    0    0  0.32660803475E+02 -0.11710367551E+02 -0.12325616326E+02  0.36820939826E+02  0.00000000000E+00 0.  1.
         11    1    4    4    0    0  0.35957940404E-02  0.25590934596E+01 -0.85841449328E+01  0.89574838405E+01  0.51100000000E-03 0. -1.
        -11    1    4    4    0    0 -0.10671923696E+02  0.90996774698E+01 -0.13850134285E+01  0.14092989317E+02  0.51100000000E-03 0.  1.
         12    1    4    4    0    0 -0.21992475574E+02  0.51596621576E-01  0.22294774687E+02  0.31316587017E+02  0.00000000000E+00 0. -1.
</event>
<event>
 8    1  0.2514877E-006  0.9118800E+02  0.7816164E-02  0.1184000E+00
        -11   -1    0    0    0    0  0.00000000000E+00  0.00000000000E+00  0.45593999997E+02  0.45594000000E+02  0.51100000000E-03 0.  1.
         11   -1    0    0    0    0 -0.00000000000E+00 -0.00000000000E+00 -0.45593999997E+02  0.45594000000E+02  0.51100000000E-03 0. -1.
         23    2    1    2    0    0  0.17763568394E-14  0.00000000000E+00  0.00000000000E+00  0.91188000000E+02  0.91188000000E+02 0.  0.
    9900012    2    3    3    0    0 -0.13504751490E+02 -0.29677532465E+02  0.17106888999E+02  0.54367083427E+02  0.39999998289E+02 0.  0.
         12    1    3    3    0    0  0.13504751490E+02  0.29677532465E+02 -0.17106888999E+02  0.36820916573E+02  0.00000000000E+00 0. -1.
         11    1    4    4    0    0  0.42760983900E+01  0.37679082408E+01 -0.66740985532E+00  0.57382563666E+01  0.51100000000E-03 0. -1.
        -11    1    4    4    0    0 -0.15743713048E+02 -0.32373388262E+02  0.23137101234E+02  0.42792829094E+02  0.51100000000E-03 0.  1.
        -12    1    4    4    0    0 -0.20371368320E+01 -0.10720524444E+01 -0.53628023791E+01  0.58359979672E+01  0.00000000000E+00 0.  1.
</event>
<event>
 8    1  0.2514877E-006  0.9118800E+02  0.7816164E-02  0.1184000E+00
        -11   -1    0    0    0    0  0.00000000000E+00  0.00000000000E+00  0.45593999997E+02  0.45594000000E+02  0.51100000000E-03 0.  1.
         11   -1    0    0    0    0 -0.00000000000E+00 -0.00000000000E+00 -0.45593999997E+02  0.45594000000E+02  0.51100000000E-03 0. -1.
         23    2    1    2    0    0  0.13322676296E-14  0.00000000000E+00  0.00000000000E+00  0.91188000000E+02  0.91188000000E+02 0.  0.
    9900012    2    3    3    0    0  0.13693818547E+01 -0.25826142636E+02  0.26209060276E+02  0.54367086233E+02  0.40000004685E+02 0.  0.
         12    1    3    3    0    0 -0.13693818547E+01  0.25826142636E+02 -0.26209060276E+02  0.36820913767E+02  0.00000000000E+00 0. -1.
         11    1    4    4    0    0  0.91986049970E+01 -0.51881036144E+01  0.49577098987E+01  0.11666603649E+02  0.51100000000E-03 0. -1.
        -11    1    4    4    0    0 -0.14924469073E+02 -0.18314267618E+02  0.24956676240E+02  0.34365503993E+02  0.51100000000E-03 0.  1.
        -12    1    4    4    0    0  0.70952459309E+01 -0.23237714037E+01 -0.37053258629E+01  0.83349785907E+01  0.00000000000E+00 0.  1.
</event>
<event>
 8    1  0.2514877E-006  0.9118800E+02  0.7816164E-02  0.1184000E+00
        -11   -1    0    0    0    0  0.00000000000E+00  0.00000000000E+00  0.45593999997E+02  0.45594000000E+02  0.51100000000E-03 0.  1.
         11   -1    0    0    0    0 -0.00000000000E+00 -0.00000000000E+00 -0.45593999997E+02  0.45594000000E+02  0.51100000000E-03 0. -1.
         23    2    1    2    0    0  0.00000000000E+00  0.00000000000E+00  0.00000000000E+00  0.91188000000E+02  0.91188000000E+02 0.  0.
    9900012    2    3    3    0    0  0.24576351988E+02  0.96089978405E+01  0.25679779403E+02  0.54367068633E+02  0.39999964563E+02 0.  0.
         12    1    3    3    0    0 -0.24576351988E+02 -0.96089978405E+01 -0.25679779403E+02  0.36820931367E+02  0.00000000000E+00 0. -1.
         11    1    4    4    0    0  0.39802300477E+01  0.13829282403E+02  0.48069189443E+01  0.15172269211E+02  0.51100000000E-03 0. -1.
        -11    1    4    4    0    0  0.11860890782E+02  0.93431906186E+01  0.16734983980E+02  0.22539645741E+02  0.51100000000E-03 0.  1.
        -12    1    4    4    0    0  0.87352311581E+01 -0.13563475181E+02  0.41378764793E+01  0.16655153681E+02  0.00000000000E+00 0.  1.
</event>
<event>
 8    1  0.2514877E-006  0.9118800E+02  0.7816164E-02  0.1184000E+00
        -11   -1    0    0    0    0  0.00000000000E+00  0.00000000000E+00  0.45593999997E+02  0.45594000000E+02  0.51100000000E-03 0.  1.
         11   -1    0    0    0    0 -0.00000000000E+00 -0.00000000000E+00 -0.45593999997E+02  0.45594000000E+02  0.51100000000E-03 0. -1.
         23    2    1    2    0    0  0.00000000000E+00  0.00000000000E+00  0.71054273576E-14  0.91188000000E+02  0.91188000000E+02 0.  0.
    9900012    2    3    3    0    0  0.77709926403E+01 -0.18466434793E+02  0.30893080240E+02  0.54367082747E+02  0.39999996739E+02 0.  0.
         12    1    3    3    0    0 -0.77709926403E+01  0.18466434793E+02 -0.30893080240E+02  0.36820917253E+02  0.00000000000E+00 0. -1.
         11    1    4    4    0    0  0.14778547665E+02 -0.20201288738E+02  0.14810710010E+02  0.29083580746E+02  0.51100000000E-03 0.  1.
        -11    1    4    4    0    0  0.49553998553E+01 -0.22942899800E+01  0.89266865784E+00  0.55332279758E+01  0.51100000000E-03 0. -1.
         12    1    4    4    0    0 -0.11962954880E+02  0.40291439242E+01  0.15189701572E+02  0.19750274025E+02  0.00000000000E+00 0. -1.
</event>
<event>
 8    1  0.2514877E-006  0.9118800E+02  0.7816164E-02  0.1184000E+00
        -11   -1    0    0    0    0  0.00000000000E+00  0.00000000000E+00  0.45593999997E+02  0.45594000000E+02  0.51100000000E-03 0.  1.
         11   -1    0    0    0    0 -0.00000000000E+00 -0.00000000000E+00 -0.45593999997E+02  0.45594000000E+02  0.51100000000E-03 0. -1.
         23    2    1    2    0    0  0.00000000000E+00  0.00000000000E+00  0.00000000000E+00  0.91188000000E+02  0.91188000000E+02 0.  0.
    9900012    2    3    3    0    0 -0.71417763937E+01  0.31752701671E+02  0.17220372805E+02  0.54367078325E+02  0.39999986658E+02 0.  0.
        -12    1    3    3    0    0  0.71417763937E+01 -0.31752701671E+02 -0.17220372805E+02  0.36820921675E+02  0.00000000000E+00 0.  1.
         11    1    4    4    0    0 -0.12439986665E+02  0.20143911257E+02 -0.52255031031E+01  0.24245335879E+02  0.51100000000E-03 0. -1.
        -11    1    4    4    0    0  0.65873526281E+01 -0.16296338708E+01  0.74952926254E+01  0.10110802787E+02  0.51100000000E-03 0.  1.
        -12    1    4    4    0    0 -0.12891423570E+01  0.13238424284E+02  0.14950583282E+02  0.20010939659E+02  0.00000000000E+00 0.  1.
</event>
<event>
 8    1  0.2514877E-006  0.9118800E+02  0.7816164E-02  0.1184000E+00
        -11   -1    0    0    0    0  0.00000000000E+00  0.00000000000E+00  0.45593999997E+02  0.45594000000E+02  0.51100000000E-03 0.  1.
         11   -1    0    0    0    0 -0.00000000000E+00 -0.00000000000E+00 -0.45593999997E+02  0.45594000000E+02  0.51100000000E-03 0. -1.
         23    2    1    2    0    0 -0.17763568394E-14 -0.35527136788E-14 -0.35527136788E-14  0.91188000000E+02  0.91188000000E+02 0.  0.
    9900012    2    3    3    0    0  0.81372436937E+01  0.29292913875E+02  0.20772329276E+02  0.54367092871E+02  0.40000019818E+02 0.  0.
         12    1    3    3    0    0 -0.81372436937E+01 -0.29292913875E+02 -0.20772329276E+02  0.36820907129E+02  0.00000000000E+00 0. -1.
         11    1    4    4    0    0 -0.32436391042E+01  0.81288857804E+01  0.46802808475E+01  0.99249689038E+01  0.51100000000E-03 0. -1.
        -11    1    4    4    0    0  0.78863007576E+01 -0.80005608155E+01  0.85459309922E+01  0.14115085894E+02  0.51100000000E-03 0.  1.
        -12    1    4    4    0    0  0.34945820403E+01  0.29164588910E+02  0.75461174368E+01  0.30327038074E+02  0.00000000000E+00 0.  1.
</event>
<event>
 8    1  0.2514877E-006  0.9118800E+02  0.7816164E-02  0.1184000E+00
        -11   -1    0    0    0    0  0.00000000000E+00  0.00000000000E+00  0.45593999997E+02  0.45594000000E+02  0.51100000000E-03 0. -1.
         11   -1    0    0    0    0 -0.00000000000E+00 -0.00000000000E+00 -0.45593999997E+02  0.45594000000E+02  0.51100000000E-03 0.  1.
         23    2    1    2    0    0  0.00000000000E+00 -0.17763568394E-14 -0.35527136788E-14  0.91188000000E+02  0.91188000000E+02 0.  0.
    9900012    2    3    3    0    0 -0.26240973096E+02  0.14322518397E+02  0.21495492958E+02  0.54367089911E+02  0.40000013070E+02 0.  0.
         12    1    3    3    0    0  0.26240973096E+02 -0.14322518397E+02 -0.21495492958E+02  0.36820910089E+02  0.00000000000E+00 0. -1.
         11    1    4    4    0    0  0.35560916167E+01  0.59245934971E+01  0.79909857301E+01  0.10564206023E+02  0.51100000000E-03 0. -1.
        -11    1    4    4    0    0  0.45784707621E+01 -0.11383770238E+01 -0.17126629162E+01  0.50191145925E+01  0.51100000000E-03 0.  1.
        -12    1    4    4    0    0 -0.34375535475E+02  0.95363019240E+01  0.15217170144E+02  0.38783769296E+02  0.00000000000E+00 0.  1.
</event>
<event>
 8    1  0.2514877E-006  0.9118800E+02  0.7816164E-02  0.1184000E+00
        -11   -1    0    0    0    0  0.00000000000E+00  0.00000000000E+00  0.45593999997E+02  0.45594000000E+02  0.51100000000E-03 0.  1.
         11   -1    0    0    0    0 -0.00000000000E+00 -0.00000000000E+00 -0.45593999997E+02  0.45594000000E+02  0.51100000000E-03 0. -1.
         23    2    1    2    0    0  0.00000000000E+00  0.00000000000E+00  0.00000000000E+00  0.91188000000E+02  0.91188000000E+02 0.  0.
    9900012    2    3    3    0    0  0.12287803985E+02 -0.34456403769E+02  0.41887173825E+01  0.54367092341E+02  0.40000018611E+02 0.  0.
         12    1    3    3    0    0 -0.12287803985E+02  0.34456403769E+02 -0.41887173825E+01  0.36820907659E+02  0.00000000000E+00 0. -1.
         11    1    4    4    0    0  0.11769232249E+02 -0.72574385349E+01 -0.88563647249E+01  0.16420122966E+02  0.51100000000E-03 0. -1.
        -11    1    4    4    0    0  0.90829389375E+01 -0.55464038989E+01  0.97438646242E+01  0.14429319943E+02  0.51100000000E-03 0.  1.
        -12    1    4    4    0    0 -0.85643672012E+01 -0.21652561335E+02  0.33012174832E+01  0.23517649432E+02  0.00000000000E+00 0.  1.
</event>
<event>
 8    1  0.2514877E-006  0.9118800E+02  0.7816164E-02  0.1184000E+00
        -11   -1    0    0    0    0  0.00000000000E+00  0.00000000000E+00  0.45593999997E+02  0.45594000000E+02  0.51100000000E-03 0.  1.
         11   -1    0    0    0    0 -0.00000000000E+00 -0.00000000000E+00 -0.45593999997E+02  0.45594000000E+02  0.51100000000E-03 0. -1.
         23    2    1    2    0    0  0.88817841970E-15 -0.44408920985E-15 -0.71054273576E-14  0.91188000000E+02  0.91188000000E+02 0.  0.
    9900012    2    3    3    0    0 -0.26177052729E+01  0.31225708880E+01  0.36594763137E+02  0.54367088565E+02  0.40000010002E+02 0.  0.
         12    1    3    3    0    0  0.26177052729E+01 -0.31225708880E+01 -0.36594763137E+02  0.36820911435E+02  0.00000000000E+00 0. -1.
         11    1    4    4    0    0  0.22284540306E+01  0.49585795758E+00  0.55209421579E+01  0.59743355323E+01  0.51100000000E-03 0. -1.
        -11    1    4    4    0    0 -0.17210148087E+02 -0.33676648953E+01  0.29821202140E+02  0.34595295365E+02  0.51100000000E-03 0.  1.
         12    1    4    4    0    0  0.12363988783E+02  0.59943778257E+01  0.12526188386E+01  0.13797457668E+02  0.00000000000E+00 0. -1.
</event>
<event>
 8    1  0.2514877E-006  0.9118800E+02  0.7816164E-02  0.1184000E+00
        -11   -1    0    0    0    0  0.00000000000E+00  0.00000000000E+00  0.45593999997E+02  0.45594000000E+02  0.51100000000E-03 0.  1.
         11   -1    0    0    0    0 -0.00000000000E+00 -0.00000000000E+00 -0.45593999997E+02  0.45594000000E+02  0.51100000000E-03 0. -1.
         23    2    1    2    0    0  0.00000000000E+00  0.00000000000E+00 -0.35527136788E-14  0.91188000000E+02  0.91188000000E+02 0.  0.
    9900012    2    3    3    0    0 -0.24568488326E+02  0.50893001579E+01  0.26949368838E+02  0.54367081007E+02  0.39999992772E+02 0.  0.
         12    1    3    3    0    0  0.24568488326E+02 -0.50893001579E+01 -0.26949368838E+02  0.36820918993E+02  0.00000000000E+00 0. -1.
         11    1    4    4    0    0 -0.18387260246E+02  0.90636692636E+01  0.37786987062E+01  0.20845143416E+02  0.51100000000E-03 0. -1.
        -11    1    4    4    0    0 -0.10523200657E+02  0.26684343552E+00  0.10444103608E+01  0.10578267852E+02  0.51100000000E-03 0.  1.
         12    1    4    4    0    0  0.43419725760E+01 -0.42412125412E+01  0.22126259771E+02  0.22943669740E+02  0.00000000000E+00 0. -1.
</event>
<event>
 8    1  0.2514877E-006  0.9118800E+02  0.7816164E-02  0.1184000E+00
        -11   -1    0    0    0    0  0.00000000000E+00  0.00000000000E+00  0.45593999997E+02  0.45594000000E+02  0.51100000000E-03 0.  1.
         11   -1    0    0    0    0 -0.00000000000E+00 -0.00000000000E+00 -0.45593999997E+02  0.45594000000E+02  0.51100000000E-03 0. -1.
         23    2    1    2    0    0  0.00000000000E+00  0.35527136788E-14  0.00000000000E+00  0.91188000000E+02  0.91188000000E+02 0.  0.
    9900012    2    3    3    0    0  0.24607615909E+02 -0.20585184477E+02  0.18069195346E+02  0.54367076585E+02  0.39999982692E+02 0.  0.
         12    1    3    3    0    0 -0.24607615909E+02  0.20585184477E+02 -0.18069195346E+02  0.36820923415E+02  0.00000000000E+00 0. -1.
         11    1    4    4    0    0 -0.56806179730E+01  0.13186813291E+01  0.14335123347E+01  0.60052725898E+01  0.51100000000E-03 0. -1.
        -11    1    4    4    0    0  0.22618909664E+02 -0.27612398427E+02  0.14725668571E+02  0.38612238169E+02  0.51100000000E-03 0.  1.
        -12    1    4    4    0    0  0.76693242181E+01  0.57085326213E+01  0.19100144400E+01  0.97495658268E+01  0.00000000000E+00 0.  1.
</event>
<event>
 8    1  0.2514877E-006  0.9118800E+02  0.7816164E-02  0.1184000E+00
        -11   -1    0    0    0    0  0.00000000000E+00  0.00000000000E+00  0.45593999997E+02  0.45594000000E+02  0.51100000000E-03 0. -1.
         11   -1    0    0    0    0 -0.00000000000E+00 -0.00000000000E+00 -0.45593999997E+02  0.45594000000E+02  0.51100000000E-03 0.  1.
         23    2    1    2    0    0  0.00000000000E+00  0.88817841970E-15  0.00000000000E+00  0.91188000000E+02  0.91188000000E+02 0.  0.
    9900012    2    3    3    0    0  0.35333544764E+02  0.53030228372E+01 -0.88993302607E+01  0.54367088606E+02  0.40000010095E+02 0.  0.
         12    1    3    3    0    0 -0.35333544764E+02 -0.53030228372E+01  0.88993302607E+01  0.36820911394E+02  0.00000000000E+00 0. -1.
         11    1    4    4    0    0  0.38122079227E+01 -0.16034440601E+01  0.11354131913E+02  0.12083884882E+02  0.51100000000E-03 0. -1.
        -11    1    4    4    0    0  0.65846834414E+01 -0.43581914548E+01 -0.10704832599E+02  0.13302079913E+02  0.51100000000E-03 0.  1.
        -12    1    4    4    0    0  0.24936653400E+02  0.11264658352E+02 -0.95486295742E+01  0.28981123811E+02  0.00000000000E+00 0.  1.
</event>
<event>
 8    1  0.2514877E-006  0.9118800E+02  0.7816164E-02  0.1184000E+00
        -11   -1    0    0    0    0  0.00000000000E+00  0.00000000000E+00  0.45593999997E+02  0.45594000000E+02  0.51100000000E-03 0.  1.
         11   -1    0    0    0    0 -0.00000000000E+00 -0.00000000000E+00 -0.45593999997E+02  0.45594000000E+02  0.51100000000E-03 0. -1.
         23    2    1    2    0    0  0.00000000000E+00 -0.35527136788E-14  0.00000000000E+00  0.91188000000E+02  0.91188000000E+02 0.  0.
    9900012    2    3    3    0    0 -0.11472719247E+02  0.15579476554E+02 -0.31327905094E+02  0.54367068260E+02  0.39999963713E+02 0.  0.
        -12    1    3    3    0    0  0.11472719247E+02 -0.15579476554E+02  0.31327905094E+02  0.36820931740E+02  0.00000000000E+00 0.  1.
         11    1    4    4    0    0  0.34582522324E+01  0.16372335850E+02 -0.76029710713E+01  0.18379827503E+02  0.51100000000E-03 0. -1.
        -11    1    4    4    0    0 -0.58337892767E+01  0.80938001741E+01 -0.20604001006E+02  0.22892521843E+02  0.51100000000E-03 0.  1.
        -12    1    4    4    0    0 -0.90971822024E+01 -0.88866594701E+01 -0.31209330162E+01  0.13094718915E+02  0.00000000000E+00 0.  1.
</event>
<event>
 8    1  0.2514877E-006  0.9118800E+02  0.7816164E-02  0.1184000E+00
        -11   -1    0    0    0    0  0.00000000000E+00  0.00000000000E+00  0.45593999997E+02  0.45594000000E+02  0.51100000000E-03 0.  1.
         11   -1    0    0    0    0 -0.00000000000E+00 -0.00000000000E+00 -0.45593999997E+02  0.45594000000E+02  0.51100000000E-03 0. -1.
         23    2    1    2    0    0  0.44408920985E-15 -0.17763568394E-14  0.00000000000E+00  0.91188000000E+02  0.91188000000E+02 0.  0.
    9900012    2    3    3    0    0  0.25363921522E+01  0.14212339138E+02  0.33872598146E+02  0.54367125837E+02  0.40000094972E+02 0.  0.
         12    1    3    3    0    0 -0.25363921522E+01 -0.14212339138E+02 -0.33872598146E+02  0.36820874163E+02  0.00000000000E+00 0. -1.
         11    1    4    4    0    0  0.62728209398E+00 -0.10078113909E+02  0.15901254546E+01  0.10222052730E+02  0.51100000000E-03 0. -1.
        -11    1    4    4    0    0  0.29101904729E+01 -0.21660877805E+01  0.42057715818E+01  0.55542469985E+01  0.51100000000E-03 0.  1.
        -12    1    4    4    0    0 -0.10010804146E+01  0.26456540828E+02  0.28076701110E+02  0.38590826109E+02  0.00000000000E+00 0.  1.
</event>
<event>
 8    1  0.2514877E-006  0.9118800E+02  0.7816164E-02  0.1184000E+00
        -11   -1    0    0    0    0  0.00000000000E+00  0.00000000000E+00  0.45593999997E+02  0.45594000000E+02  0.51100000000E-03 0. -1.
         11   -1    0    0    0    0 -0.00000000000E+00 -0.00000000000E+00 -0.45593999997E+02  0.45594000000E+02  0.51100000000E-03 0.  1.
         23    2    1    2    0    0  0.88817841970E-15  0.00000000000E+00 -0.35527136788E-14  0.91188000000E+02  0.91188000000E+02 0.  0.
    9900012    2    3    3    0    0  0.57768646447E+01 -0.19316217168E+02  0.30810581811E+02  0.54367077112E+02  0.39999983893E+02 0.  0.
        -12    1    3    3    0    0 -0.57768646447E+01  0.19316217168E+02 -0.30810581811E+02  0.36820922888E+02  0.00000000000E+00 0.  1.
         11    1    4    4    0    0  0.83062885279E+01 -0.58621527669E+01  0.15241445836E+02  0.18321051706E+02  0.51100000000E-03 0. -1.
        -11    1    4    4    0    0  0.97480725103E+01 -0.61489266449E+01  0.18177561242E+02  0.21523427922E+02  0.51100000000E-03 0.  1.
        -12    1    4    4    0    0 -0.12277496394E+02 -0.73051377558E+01 -0.26084252670E+01  0.14522597485E+02  0.00000000000E+00 0.  1.
</event>
<event>
 8    1  0.2514877E-006  0.9118800E+02  0.7816164E-02  0.1184000E+00
        -11   -1    0    0    0    0  0.00000000000E+00  0.00000000000E+00  0.45593999997E+02  0.45594000000E+02  0.51100000000E-03 0.  1.
         11   -1    0    0    0    0 -0.00000000000E+00 -0.00000000000E+00 -0.45593999997E+02  0.45594000000E+02  0.51100000000E-03 0. -1.
         23    2    1    2    0    0  0.00000000000E+00 -0.45796699766E-15  0.00000000000E+00  0.91188000000E+02  0.91188000000E+02 0.  0.
    9900012    2    3    3    0    0  0.17401025372E+02 -0.76511010110E-01 -0.32449573994E+02  0.54367131049E+02  0.40000106851E+02 0.  0.
        -12    1    3    3    0    0 -0.17401025372E+02  0.76511010110E-01  0.32449573994E+02  0.36820868951E+02  0.00000000000E+00 0.  1.
         11    1    4    4    0    0 -0.67572482861E+01 -0.11530365539E+02 -0.11254706059E+02  0.17472210581E+02  0.51100000000E-03 0. -1.
        -11    1    4    4    0    0  0.22570005457E+02  0.59138994782E+01 -0.20557835656E+02  0.31096687292E+02  0.51100000000E-03 0.  1.
        -12    1    4    4    0    0  0.15882682007E+01  0.55399550502E+01 -0.63703227881E+00  0.57982331757E+01  0.00000000000E+00 0.  1.
</event>
<event>
 8    1  0.2514877E-006  0.9118800E+02  0.7816164E-02  0.1184000E+00
        -11   -1    0    0    0    0  0.00000000000E+00  0.00000000000E+00  0.45593999997E+02  0.45594000000E+02  0.51100000000E-03 0.  1.
         11   -1    0    0    0    0 -0.00000000000E+00 -0.00000000000E+00 -0.45593999997E+02  0.45594000000E+02  0.51100000000E-03 0. -1.
         23    2    1    2    0    0 -0.71054273576E-14  0.22204460493E-15  0.44408920985E-15  0.91188000000E+02  0.91188000000E+02 0.  0.
    9900012    2    3    3    0    0 -0.36596230056E+02 -0.18127282903E+01 -0.36346050881E+01  0.54367076705E+02  0.39999982964E+02 0.  0.
         12    1    3    3    0    0  0.36596230056E+02  0.18127282903E+01  0.36346050881E+01  0.36820923295E+02  0.00000000000E+00 0. -1.
         11    1    4    4    0    0 -0.99745759870E+01 -0.33164625455E+00 -0.17693757624E+02  0.20314310583E+02  0.51100000000E-03 0. -1.
        -11    1    4    4    0    0 -0.21651892408E+02 -0.18263648029E+01  0.30149111860E+01  0.21936949263E+02  0.51100000000E-03 0.  1.
         12    1    4    4    0    0 -0.49697616608E+01  0.34528276717E+00  0.11044241350E+02  0.12115816859E+02  0.00000000000E+00 0. -1.
</event>
<event>
 8    1  0.2514877E-006  0.9118800E+02  0.7816164E-02  0.1184000E+00
        -11   -1    0    0    0    0  0.00000000000E+00  0.00000000000E+00  0.45593999997E+02  0.45594000000E+02  0.51100000000E-03 0. -1.
         11   -1    0    0    0    0 -0.00000000000E+00 -0.00000000000E+00 -0.45593999997E+02  0.45594000000E+02  0.51100000000E-03 0.  1.
         23    2    1    2    0    0  0.00000000000E+00  0.00000000000E+00  0.17763568394E-14  0.91188000000E+02  0.91188000000E+02 0.  0.
    9900012    2    3    3    0    0  0.32954252971E+02  0.82547658298E+01 -0.14200522987E+02  0.54367098315E+02  0.40000032230E+02 0.  0.
        -12    1    3    3    0    0 -0.32954252971E+02 -0.82547658298E+01  0.14200522987E+02  0.36820901685E+02  0.00000000000E+00 0.  1.
         11    1    4    4    0    0  0.27477867077E+01  0.58904701757E+01 -0.59833962062E+01  0.88345345719E+01  0.51100000000E-03 0. -1.
        -11    1    4    4    0    0  0.44422907918E+01 -0.13273698503E+02 -0.62513428516E+01  0.15329850199E+02  0.51100000000E-03 0.  1.
         12    1    4    4    0    0  0.25764175471E+02  0.15637994157E+02 -0.19657839290E+01  0.30202713544E+02  0.00000000000E+00 0. -1.
</event>
<event>
 8    1  0.2514877E-006  0.9118800E+02  0.7816164E-02  0.1184000E+00
        -11   -1    0    0    0    0  0.00000000000E+00  0.00000000000E+00  0.45593999997E+02  0.45594000000E+02  0.51100000000E-03 0.  1.
         11   -1    0    0    0    0 -0.00000000000E+00 -0.00000000000E+00 -0.45593999997E+02  0.45594000000E+02  0.51100000000E-03 0. -1.
         23    2    1    2    0    0  0.00000000000E+00 -0.13322676296E-14  0.35527136788E-14  0.91188000000E+02  0.91188000000E+02 0.  0.
    9900012    2    3    3    0    0  0.24509976688E+02  0.19976616712E+01 -0.27405321978E+02  0.54367064622E+02  0.39999955418E+02 0.  0.
        -12    1    3    3    0    0 -0.24509976688E+02 -0.19976616712E+01  0.27405321978E+02  0.36820935378E+02  0.00000000000E+00 0.  1.
         11    1    4    4    0    0  0.13776337382E+02 -0.53511192395E+01 -0.33691618192E+01  0.15158271682E+02  0.51100000000E-03 0. -1.
        -11    1    4    4    0    0 -0.68626053453E+01 -0.58171103508E+01 -0.66827646847E+01  0.11206849203E+02  0.51100000000E-03 0.  1.
         12    1    4    4    0    0  0.17596244651E+02  0.13165891261E+02 -0.17353395474E+02  0.28001943737E+02  0.00000000000E+00 0. -1.
</event>
<event>
 8    1  0.2514877E-006  0.9118800E+02  0.7816164E-02  0.1184000E+00
        -11   -1    0    0    0    0  0.00000000000E+00  0.00000000000E+00  0.45593999997E+02  0.45594000000E+02  0.51100000000E-03 0.  1.
         11   -1    0    0    0    0 -0.00000000000E+00 -0.00000000000E+00 -0.45593999997E+02  0.45594000000E+02  0.51100000000E-03 0. -1.
         23    2    1    2    0    0  0.35527136788E-14  0.35527136788E-14  0.22204460493E-15  0.91188000000E+02  0.91188000000E+02 0.  0.
    9900012    2    3    3    0    0 -0.26218322153E+02 -0.25819540547E+02  0.13157185193E+01  0.54367079237E+02  0.39999988737E+02 0.  0.
        -12    1    3    3    0    0  0.26218322153E+02  0.25819540547E+02 -0.13157185193E+01  0.36820920763E+02  0.00000000000E+00 0.  1.
         11    1    4    4    0    0  0.62540553140E-01 -0.20920139815E+01 -0.94035793190E+00  0.22944949598E+01  0.51100000000E-03 0. -1.
        -11    1    4    4    0    0 -0.21375518691E+00  0.93395575717E+01 -0.25745330396E+01  0.96902656078E+01  0.51100000000E-03 0.  1.
        -12    1    4    4    0    0 -0.26067107519E+02 -0.33067084138E+02  0.48306094908E+01  0.42382318670E+02  0.00000000000E+00 0.  1.
</event>
<event>
 8    1  0.2514877E-006  0.9118800E+02  0.7816164E-02  0.1184000E+00
        -11   -1    0    0    0    0  0.00000000000E+00  0.00000000000E+00  0.45593999997E+02  0.45594000000E+02  0.51100000000E-03 0. -1.
         11   -1    0    0    0    0 -0.00000000000E+00 -0.00000000000E+00 -0.45593999997E+02  0.45594000000E+02  0.51100000000E-03 0.  1.
         23    2    1    2    0    0  0.88817841970E-15  0.17763568394E-14  0.71054273576E-14  0.91188000000E+02  0.91188000000E+02 0.  0.
    9900012    2    3    3    0    0  0.34773696648E+01  0.99095606058E+01  0.35291523882E+02  0.54367039270E+02  0.39999897624E+02 0.  0.
        -12    1    3    3    0    0 -0.34773696648E+01 -0.99095606058E+01 -0.35291523882E+02  0.36820960730E+02  0.00000000000E+00 0.  1.
         11    1    4    4    0    0  0.89169488916E+01  0.11653600522E+02  0.12316675771E+02  0.19157736949E+02  0.51100000000E-03 0. -1.
        -11    1    4    4    0    0  0.24567103429E+01  0.11222058611E+02  0.10408538709E+02  0.15501861291E+02  0.51100000000E-03 0.  1.
         12    1    4    4    0    0 -0.78962895697E+01 -0.12966098528E+02  0.12566309401E+02  0.19707441030E+02  0.00000000000E+00 0. -1.
</event>
<event>
 8    1  0.2514877E-006  0.9118800E+02  0.7816164E-02  0.1184000E+00
        -11   -1    0    0    0    0  0.00000000000E+00  0.00000000000E+00  0.45593999997E+02  0.45594000000E+02  0.51100000000E-03 0.  1.
         11   -1    0    0    0    0 -0.00000000000E+00 -0.00000000000E+00 -0.45593999997E+02  0.45594000000E+02  0.51100000000E-03 0. -1.
         23    2    1    2    0    0  0.35527136788E-14  0.00000000000E+00  0.00000000000E+00  0.91188000000E+02  0.91188000000E+02 0.  0.
    9900012    2    3    3    0    0 -0.25875262187E+02  0.21165614930E+02 -0.15435855531E+02  0.54367108042E+02  0.40000054403E+02 0.  0.
        -12    1    3    3    0    0  0.25875262187E+02 -0.21165614930E+02  0.15435855531E+02  0.36820891958E+02  0.00000000000E+00 0.  1.
         11    1    4    4    0    0 -0.89882153130E+01  0.20652083120E+02 -0.12955821837E+02  0.25983646231E+02  0.51100000000E-03 0. -1.
        -11    1    4    4    0    0 -0.18536248082E+02 -0.21145106990E+01  0.58032202310E+01  0.19538193718E+02  0.51100000000E-03 0.  1.
         12    1    4    4    0    0  0.16492012081E+01  0.26280425088E+01 -0.82832539250E+01  0.88452680931E+01  0.00000000000E+00 0. -1.
</event>
<event>
 8    1  0.2514877E-006  0.9118800E+02  0.7816164E-02  0.1184000E+00
        -11   -1    0    0    0    0  0.00000000000E+00  0.00000000000E+00  0.45593999997E+02  0.45594000000E+02  0.51100000000E-03 0. -1.
         11   -1    0    0    0    0 -0.00000000000E+00 -0.00000000000E+00 -0.45593999997E+02  0.45594000000E+02  0.51100000000E-03 0.  1.
         23    2    1    2    0    0 -0.17763568394E-14  0.00000000000E+00  0.00000000000E+00  0.91188000000E+02  0.91188000000E+02 0.  0.
    9900012    2    3    3    0    0  0.15935043479E+02  0.80843823884E+01 -0.32194677234E+02  0.54367080790E+02  0.39999992277E+02 0.  0.
         12    1    3    3    0    0 -0.15935043479E+02 -0.80843823884E+01  0.32194677234E+02  0.36820919210E+02  0.00000000000E+00 0. -1.
         11    1    4    4    0    0 -0.58476060654E+01 -0.12025090021E+01 -0.81149878648E+01  0.10074400871E+02  0.51100000000E-03 0. -1.
        -11    1    4    4    0    0  0.23309658535E+02  0.25730511876E+01 -0.27877359824E+02  0.36429493058E+02  0.51100000000E-03 0.  1.
        -12    1    4    4    0    0 -0.15270089902E+01  0.67138402029E+01  0.37976704554E+01  0.78631868612E+01  0.00000000000E+00 0.  1.
</event>
<event>
 8    1  0.2514877E-006  0.9118800E+02  0.7816164E-02  0.1184000E+00
        -11   -1    0    0    0    0  0.00000000000E+00  0.00000000000E+00  0.45593999997E+02  0.45594000000E+02  0.51100000000E-03 0.  1.
         11   -1    0    0    0    0 -0.00000000000E+00 -0.00000000000E+00 -0.45593999997E+02  0.45594000000E+02  0.51100000000E-03 0. -1.
         23    2    1    2    0    0  0.71054273576E-14 -0.88817841970E-15  0.35527136788E-14  0.91188000000E+02  0.91188000000E+02 0.  0.
    9900012    2    3    3    0    0  0.32549477385E+02 -0.56441429362E+01 -0.16262048542E+02  0.54367094928E+02  0.40000024507E+02 0.  0.
        -12    1    3    3    0    0 -0.32549477385E+02  0.56441429362E+01  0.16262048542E+02  0.36820905072E+02  0.00000000000E+00 0.  1.
         11    1    4    4    0    0  0.29432661260E+02  0.10269107941E+01 -0.18833001711E+02  0.34957374734E+02  0.51100000000E-03 0. -1.
        -11    1    4    4    0    0 -0.52861190906E+01  0.22186165435E+01 -0.23878928602E+01  0.62102614261E+01  0.51100000000E-03 0.  1.
        -12    1    4    4    0    0  0.84029352162E+01 -0.88896702739E+01  0.49588460284E+01  0.13199458768E+02  0.00000000000E+00 0.  1.
</event>
<event>
 8    1  0.2514877E-006  0.9118800E+02  0.7816164E-02  0.1184000E+00
        -11   -1    0    0    0    0  0.00000000000E+00  0.00000000000E+00  0.45593999997E+02  0.45594000000E+02  0.51100000000E-03 0.  1.
         11   -1    0    0    0    0 -0.00000000000E+00 -0.00000000000E+00 -0.45593999997E+02  0.45594000000E+02  0.51100000000E-03 0. -1.
         23    2    1    2    0    0  0.71054273576E-14  0.00000000000E+00  0.00000000000E+00  0.91188000000E+02  0.91188000000E+02 0.  0.
    9900012    2    3    3    0    0 -0.33781278561E+02  0.11246963620E+02  0.93867409273E+01  0.54367083700E+02  0.39999998911E+02 0.  0.
         12    1    3    3    0    0  0.33781278561E+02 -0.11246963620E+02 -0.93867409273E+01  0.36820916300E+02  0.00000000000E+00 0. -1.
         11    1    4    4    0    0  0.53033370821E+01  0.11046422575E+02  0.13262408703E+01  0.12325086248E+02  0.51100000000E-03 0. -1.
        -11    1    4    4    0    0 -0.10498016291E+02  0.25066977504E+01  0.78771560991E+01  0.13361941031E+02  0.51100000000E-03 0.  1.
        -12    1    4    4    0    0 -0.28586599352E+02 -0.23061567052E+01  0.18334395791E+00  0.28680056421E+02  0.00000000000E+00 0.  1.
</event>
<event>
 8    1  0.2514877E-006  0.9118800E+02  0.7816164E-02  0.1184000E+00
        -11   -1    0    0    0    0  0.00000000000E+00  0.00000000000E+00  0.45593999997E+02  0.45594000000E+02  0.51100000000E-03 0.  1.
         11   -1    0    0    0    0 -0.00000000000E+00 -0.00000000000E+00 -0.45593999997E+02  0.45594000000E+02  0.51100000000E-03 0. -1.
         23    2    1    2    0    0  0.71054273576E-14  0.17763568394E-14 -0.35527136788E-14  0.91188000000E+02  0.91188000000E+02 0.  0.
    9900012    2    3    3    0    0  0.32529216943E+02  0.11399028606E+02 -0.12949639972E+02  0.54367068676E+02  0.39999964662E+02 0.  0.
        -12    1    3    3    0    0 -0.32529216943E+02 -0.11399028606E+02  0.12949639972E+02  0.36820931324E+02  0.00000000000E+00 0.  1.
         11    1    4    4    0    0  0.21976089101E+01  0.99127130778E+01 -0.66041565598E+00  0.10174847153E+02  0.51100000000E-03 0.  1.
        -11    1    4    4    0    0  0.28687014297E+02  0.34525792629E+01 -0.20606210870E+02  0.35489167637E+02  0.51100000000E-03 0. -1.
         12    1    4    4    0    0  0.16445937360E+01 -0.19662637344E+01  0.83169865535E+01  0.87030538870E+01  0.00000000000E+00 0. -1.
</event>
<event>
 8    1  0.2514877E-006  0.9118800E+02  0.7816164E-02  0.1184000E+00
        -11   -1    0    0    0    0  0.00000000000E+00  0.00000000000E+00  0.45593999997E+02  0.45594000000E+02  0.51100000000E-03 0.  1.
         11   -1    0    0    0    0 -0.00000000000E+00 -0.00000000000E+00 -0.45593999997E+02  0.45594000000E+02  0.51100000000E-03 0. -1.
         23    2    1    2    0    0  0.00000000000E+00  0.88817841970E-15  0.00000000000E+00  0.91188000000E+02  0.91188000000E+02 0.  0.
    9900012    2    3    3    0    0  0.11460986476E+02  0.21450558843E+01  0.34926025229E+02  0.54367045177E+02  0.39999911090E+02 0.  0.
         12    1    3    3    0    0 -0.11460986476E+02 -0.21450558843E+01 -0.34926025229E+02  0.36820954823E+02  0.00000000000E+00 0. -1.
         11    1    4    4    0    0  0.91865772174E+01 -0.64678445092E+01 -0.38016715437E+01  0.11860814490E+02  0.51100000000E-03 0. -1.
        -11    1    4    4    0    0 -0.48291312104E+01 -0.12699848531E+01  0.77055546954E+01  0.91819901546E+01  0.51100000000E-03 0.  1.
        -12    1    4    4    0    0  0.71035404691E+01  0.98828852466E+01  0.31022142078E+02  0.33324240533E+02  0.00000000000E+00 0.  1.
</event>
<event>
 8    1  0.2514877E-006  0.9118800E+02  0.7816164E-02  0.1184000E+00
        -11   -1    0    0    0    0  0.00000000000E+00  0.00000000000E+00  0.45593999997E+02  0.45594000000E+02  0.51100000000E-03 0.  1.
         11   -1    0    0    0    0 -0.00000000000E+00 -0.00000000000E+00 -0.45593999997E+02  0.45594000000E+02  0.51100000000E-03 0. -1.
         23    2    1    2    0    0 -0.35527136788E-14  0.00000000000E+00  0.00000000000E+00  0.91188000000E+02  0.91188000000E+02 0.  0.
    9900012    2    3    3    0    0 -0.21073626116E+02  0.21973910685E+02  0.20707894504E+02  0.54367253631E+02  0.40000386300E+02 0.  0.
         12    1    3    3    0    0  0.21073626116E+02 -0.21973910685E+02 -0.20707894504E+02  0.36820746369E+02  0.00000000000E+00 0. -1.
         11    1    4    4    0    0 -0.10139710317E+02 -0.70798179249E+01  0.18160860091E+01  0.12499428620E+02  0.51100000000E-03 0. -1.
        -11    1    4    4    0    0  0.60544286113E+01  0.59025285848E+01  0.61321116106E+01  0.10445034350E+02  0.51100000000E-03 0.  1.
         12    1    4    4    0    0 -0.16988344409E+02  0.23151200025E+02  0.12759696884E+02  0.31422790661E+02  0.00000000000E+00 0. -1.
</event>
<event>
 8    1  0.2514877E-006  0.9118800E+02  0.7816164E-02  0.1184000E+00
        -11   -1    0    0    0    0  0.00000000000E+00  0.00000000000E+00  0.45593999997E+02  0.45594000000E+02  0.51100000000E-03 0. -1.
         11   -1    0    0    0    0 -0.00000000000E+00 -0.00000000000E+00 -0.45593999997E+02  0.45594000000E+02  0.51100000000E-03 0.  1.
         23    2    1    2    0    0  0.17763568394E-14  0.00000000000E+00  0.35527136788E-14  0.91188000000E+02  0.91188000000E+02 0.  0.
    9900012    2    3    3    0    0 -0.11425075703E+02  0.18100286522E+02  0.29960427798E+02  0.54367082563E+02  0.39999996320E+02 0.  0.
        -12    1    3    3    0    0  0.11425075703E+02 -0.18100286522E+02 -0.29960427798E+02  0.36820917437E+02  0.00000000000E+00 0.  1.
         11    1    4    4    0    0 -0.10581675152E+02  0.12430958491E+02  0.37189135013E+01  0.16743085018E+02  0.51100000000E-03 0. -1.
        -11    1    4    4    0    0  0.33484773677E+01  0.13048505255E+02  0.25824599638E+02  0.29127061932E+02  0.51100000000E-03 0.  1.
         12    1    4    4    0    0 -0.41918779188E+01 -0.73791772237E+01  0.41691465943E+00  0.84969356134E+01  0.00000000000E+00 0. -1.
</event>
<event>
 8    1  0.2514877E-006  0.9118800E+02  0.7816164E-02  0.1184000E+00
        -11   -1    0    0    0    0  0.00000000000E+00  0.00000000000E+00  0.45593999997E+02  0.45594000000E+02  0.51100000000E-03 0. -1.
         11   -1    0    0    0    0 -0.00000000000E+00 -0.00000000000E+00 -0.45593999997E+02  0.45594000000E+02  0.51100000000E-03 0.  1.
         23    2    1    2    0    0  0.00000000000E+00  0.00000000000E+00  0.00000000000E+00  0.91188000000E+02  0.91188000000E+02 0.  0.
    9900012    2    3    3    0    0  0.23437571025E+02  0.20289843836E+02 -0.19869117313E+02  0.54367091249E+02  0.40000016120E+02 0.  0.
         12    1    3    3    0    0 -0.23437571025E+02 -0.20289843836E+02  0.19869117313E+02  0.36820908751E+02  0.00000000000E+00 0. -1.
         11    1    4    4    0    0  0.75000045400E+00 -0.41179411381E+01 -0.15307050271E+02  0.15869017870E+02  0.51100000000E-03 0. -1.
        -11    1    4    4    0    0  0.88752686731E+01  0.31101051097E+00 -0.59483757478E+01  0.10688793003E+02  0.51100000000E-03 0.  1.
         12    1    4    4    0    0  0.13812301898E+02  0.24096774463E+02  0.13863087049E+01  0.27809280377E+02  0.00000000000E+00 0. -1.
</event>
<event>
 8    1  0.2514877E-006  0.9118800E+02  0.7816164E-02  0.1184000E+00
        -11   -1    0    0    0    0  0.00000000000E+00  0.00000000000E+00  0.45593999997E+02  0.45594000000E+02  0.51100000000E-03 0. -1.
         11   -1    0    0    0    0 -0.00000000000E+00 -0.00000000000E+00 -0.45593999997E+02  0.45594000000E+02  0.51100000000E-03 0.  1.
         23    2    1    2    0    0  0.00000000000E+00 -0.17763568394E-14  0.00000000000E+00  0.91188000000E+02  0.91188000000E+02 0.  0.
    9900012    2    3    3    0    0 -0.27960809645E+02  0.61743477691E+01  0.23148408412E+02  0.54367105682E+02  0.40000049023E+02 0.  0.
        -12    1    3    3    0    0  0.27960809645E+02 -0.61743477691E+01 -0.23148408412E+02  0.36820894318E+02  0.00000000000E+00 0.  1.
         11    1    4    4    0    0 -0.14294838813E+02  0.16935681716E+02  0.23635246873E+02  0.32400380042E+02  0.51100000000E-03 0. -1.
        -11    1    4    4    0    0 -0.10911242179E+02 -0.22579507387E+01 -0.46901345258E+01  0.12089289043E+02  0.51100000000E-03 0.  1.
         12    1    4    4    0    0 -0.27547286533E+01 -0.85033832077E+01  0.42032960647E+01  0.98774365975E+01  0.00000000000E+00 0. -1.
</event>
<event>
 8    1  0.2514877E-006  0.9118800E+02  0.7816164E-02  0.1184000E+00
        -11   -1    0    0    0    0  0.00000000000E+00  0.00000000000E+00  0.45593999997E+02  0.45594000000E+02  0.51100000000E-03 0.  1.
         11   -1    0    0    0    0 -0.00000000000E+00 -0.00000000000E+00 -0.45593999997E+02  0.45594000000E+02  0.51100000000E-03 0. -1.
         23    2    1    2    0    0  0.00000000000E+00  0.00000000000E+00  0.00000000000E+00  0.91188000000E+02  0.91188000000E+02 0.  0.
    9900012    2    3    3    0    0  0.45111009318E+01  0.10727239260E+02 -0.34933588332E+02  0.54367091707E+02  0.40000017164E+02 0.  0.
        -12    1    3    3    0    0 -0.45111009318E+01 -0.10727239260E+02  0.34933588332E+02  0.36820908293E+02  0.00000000000E+00 0.  1.
         11    1    4    4    0    0  0.57431835541E+01 -0.37381648235E+01 -0.36807455503E+01  0.77785552419E+01  0.51100000000E-03 0. -1.
        -11    1    4    4    0    0  0.14260374962E+02  0.11611033899E+02 -0.20363456590E+02  0.27438016817E+02  0.51100000000E-03 0.  1.
        -12    1    4    4    0    0 -0.15492457585E+02  0.28543701841E+01 -0.10889386192E+02  0.19150519648E+02  0.00000000000E+00 0.  1.
</event>
<event>
 8    1  0.2514877E-006  0.9118800E+02  0.7816164E-02  0.1184000E+00
        -11   -1    0    0    0    0  0.00000000000E+00  0.00000000000E+00  0.45593999997E+02  0.45594000000E+02  0.51100000000E-03 0.  1.
         11   -1    0    0    0    0 -0.00000000000E+00 -0.00000000000E+00 -0.45593999997E+02  0.45594000000E+02  0.51100000000E-03 0. -1.
         23    2    1    2    0    0  0.00000000000E+00 -0.17763568394E-14  0.26645352591E-14  0.91188000000E+02  0.91188000000E+02 0.  0.
    9900012    2    3    3    0    0 -0.32375970657E+02 -0.15839768745E+02  0.75285145300E+01  0.54367078218E+02  0.39999986413E+02 0.  0.
        -12    1    3    3    0    0  0.32375970657E+02  0.15839768745E+02 -0.75285145300E+01  0.36820921782E+02  0.00000000000E+00 0.  1.
         11    1    4    4    0    0 -0.19613808270E+02 -0.11991848437E+02 -0.13937900267E+02  0.26884400085E+02  0.51100000000E-03 0. -1.
        -11    1    4    4    0    0 -0.42445484507E+01  0.30411227039E+01  0.30295747687E+01  0.60367990185E+01  0.51100000000E-03 0.  1.
        -12    1    4    4    0    0 -0.85176139361E+01 -0.68890430114E+01  0.18436840028E+02  0.21445879115E+02  0.00000000000E+00 0.  1.
</event>
<event>
 8    1  0.2514877E-006  0.9118800E+02  0.7816164E-02  0.1184000E+00
        -11   -1    0    0    0    0  0.00000000000E+00  0.00000000000E+00  0.45593999997E+02  0.45594000000E+02  0.51100000000E-03 0.  1.
         11   -1    0    0    0    0 -0.00000000000E+00 -0.00000000000E+00 -0.45593999997E+02  0.45594000000E+02  0.51100000000E-03 0. -1.
         23    2    1    2    0    0  0.00000000000E+00  0.00000000000E+00 -0.71054273576E-14  0.91188000000E+02  0.91188000000E+02 0.  0.
    9900012    2    3    3    0    0 -0.10376775002E+02 -0.82238397309E+01 -0.34357980781E+02  0.54367084168E+02  0.39999999977E+02 0.  0.
        -12    1    3    3    0    0  0.10376775002E+02  0.82238397309E+01  0.34357980781E+02  0.36820915832E+02  0.00000000000E+00 0.  1.
         11    1    4    4    0    0 -0.32168031285E+01  0.79301234374E+00  0.11098929010E+01  0.34940740487E+01  0.51100000000E-03 0. -1.
        -11    1    4    4    0    0 -0.14287597499E+02  0.10687871308E+01 -0.11187205007E+01  0.14371126749E+02  0.51100000000E-03 0.  1.
         12    1    4    4    0    0  0.71276256252E+01 -0.10085639205E+02 -0.34349153182E+02  0.36501883370E+02  0.00000000000E+00 0. -1.
</event>
<event>
 8    1  0.2514877E-006  0.9118800E+02  0.7816164E-02  0.1184000E+00
        -11   -1    0    0    0    0  0.00000000000E+00  0.00000000000E+00  0.45593999997E+02  0.45594000000E+02  0.51100000000E-03 0. -1.
         11   -1    0    0    0    0 -0.00000000000E+00 -0.00000000000E+00 -0.45593999997E+02  0.45594000000E+02  0.51100000000E-03 0.  1.
         23    2    1    2    0    0  0.44408920985E-15  0.00000000000E+00  0.71054273576E-14  0.91188000000E+02  0.91188000000E+02 0.  0.
    9900012    2    3    3    0    0 -0.37942035081E+01  0.23470512880E+02 -0.28116173039E+02  0.54367080111E+02  0.39999990729E+02 0.  0.
         12    1    3    3    0    0  0.37942035081E+01 -0.23470512880E+02  0.28116173039E+02  0.36820919889E+02  0.00000000000E+00 0. -1.
         11    1    4    4    0    0  0.24158377190E+01  0.16834922074E+02 -0.44804259815E+01  0.17587640272E+02  0.51100000000E-03 0. -1.
        -11    1    4    4    0    0 -0.38626546672E+01 -0.87023381230E+01 -0.13386670754E+01  0.96147189082E+01  0.51100000000E-03 0.  1.
        -12    1    4    4    0    0 -0.23473865599E+01  0.15337928930E+02 -0.22297079982E+02  0.27164720931E+02  0.00000000000E+00 0.  1.
</event>
<event>
 8    1  0.2514877E-006  0.9118800E+02  0.7816164E-02  0.1184000E+00
        -11   -1    0    0    0    0  0.00000000000E+00  0.00000000000E+00  0.45593999997E+02  0.45594000000E+02  0.51100000000E-03 0.  1.
         11   -1    0    0    0    0 -0.00000000000E+00 -0.00000000000E+00 -0.45593999997E+02  0.45594000000E+02  0.51100000000E-03 0. -1.
         23    2    1    2    0    0  0.71054273576E-14  0.13322676296E-14 -0.17763568394E-14  0.91188000000E+02  0.91188000000E+02 0.  0.
    9900012    2    3    3    0    0 -0.35061790083E+02  0.27175199182E+01 -0.10911712707E+02  0.54367088652E+02  0.40000010200E+02 0.  0.
        -12    1    3    3    0    0  0.35061790083E+02 -0.27175199182E+01  0.10911712707E+02  0.36820911348E+02  0.00000000000E+00 0.  1.
         11    1    4    4    0    0 -0.10330059656E+02  0.10129792680E+02 -0.21090951444E+02  0.25576377095E+02  0.51100000000E-03 0.  1.
        -11    1    4    4    0    0 -0.10150616440E+01 -0.21914013007E+01 -0.10720159108E+00  0.24174536695E+01  0.51100000000E-03 0. -1.
         12    1    4    4    0    0 -0.23716668783E+02 -0.52208714615E+01  0.10286440328E+02  0.26373257887E+02  0.00000000000E+00 0. -1.
</event>
<event>
 8    1  0.2514877E-006  0.9118800E+02  0.7816164E-02  0.1184000E+00
        -11   -1    0    0    0    0  0.00000000000E+00  0.00000000000E+00  0.45593999997E+02  0.45594000000E+02  0.51100000000E-03 0.  1.
         11   -1    0    0    0    0 -0.00000000000E+00 -0.00000000000E+00 -0.45593999997E+02  0.45594000000E+02  0.51100000000E-03 0. -1.
         23    2    1    2    0    0  0.00000000000E+00  0.00000000000E+00  0.88817841970E-15  0.91188000000E+02  0.91188000000E+02 0.  0.
    9900012    2    3    3    0    0 -0.16167501967E+02 -0.32893297114E+02  0.35249158307E+01  0.54367052884E+02  0.39999928659E+02 0.  0.
         12    1    3    3    0    0  0.16167501967E+02  0.32893297114E+02 -0.35249158307E+01  0.36820947116E+02  0.00000000000E+00 0. -1.
         11    1    4    4    0    0 -0.16035064657E+02 -0.19157295236E+01  0.29520274726E+00  0.16151794423E+02  0.51100000000E-03 0. -1.
        -11    1    4    4    0    0 -0.85613517925E+01 -0.13903831731E+02  0.85685121706E+01  0.18439975119E+02  0.51100000000E-03 0.  1.
         12    1    4    4    0    0  0.84289144822E+01 -0.17073735860E+02 -0.53387990872E+01  0.19775283342E+02  0.00000000000E+00 0. -1.
</event>
<event>
 8    1  0.2514877E-006  0.9118800E+02  0.7816164E-02  0.1184000E+00
        -11   -1    0    0    0    0  0.00000000000E+00  0.00000000000E+00  0.45593999997E+02  0.45594000000E+02  0.51100000000E-03 0.  1.
         11   -1    0    0    0    0 -0.00000000000E+00 -0.00000000000E+00 -0.45593999997E+02  0.45594000000E+02  0.51100000000E-03 0. -1.
         23    2    1    2    0    0  0.00000000000E+00  0.71054273576E-14  0.00000000000E+00  0.91188000000E+02  0.91188000000E+02 0.  0.
    9900012    2    3    3    0    0  0.86898099557E+01 -0.33820336726E+02 -0.11681269333E+02  0.54367081672E+02  0.39999994287E+02 0.  0.
         12    1    3    3    0    0 -0.86898099557E+01  0.33820336726E+02  0.11681269333E+02  0.36820918328E+02  0.00000000000E+00 0. -1.
         11    1    4    4    0    0 -0.89737160573E+01  0.63156980929E+00 -0.78712809201E+01  0.11953389640E+02  0.51100000000E-03 0. -1.
        -11    1    4    4    0    0  0.94650878463E+01 -0.50713560879E+01  0.30214973143E+01  0.11155087933E+02  0.51100000000E-03 0.  1.
        -12    1    4    4    0    0  0.81984381667E+01 -0.29380550447E+02 -0.68314857273E+01  0.31258604099E+02  0.00000000000E+00 0.  1.
</event>
<event>
 8    1  0.2514877E-006  0.9118800E+02  0.7816164E-02  0.1184000E+00
        -11   -1    0    0    0    0  0.00000000000E+00  0.00000000000E+00  0.45593999997E+02  0.45594000000E+02  0.51100000000E-03 0.  1.
         11   -1    0    0    0    0 -0.00000000000E+00 -0.00000000000E+00 -0.45593999997E+02  0.45594000000E+02  0.51100000000E-03 0. -1.
         23    2    1    2    0    0  0.00000000000E+00  0.00000000000E+00  0.00000000000E+00  0.91188000000E+02  0.91188000000E+02 0.  0.
    9900012    2    3    3    0    0 -0.18644869319E+02 -0.31379679876E+02  0.48442996218E+01  0.54367045370E+02  0.39999911530E+02 0.  0.
         12    1    3    3    0    0  0.18644869319E+02  0.31379679876E+02 -0.48442996218E+01  0.36820954630E+02  0.00000000000E+00 0. -1.
         11    1    4    4    0    0  0.22426801682E+01 -0.14729790281E+01 -0.10220820884E+02  0.10567140643E+02  0.51100000000E-03 0. -1.
        -11    1    4    4    0    0 -0.95763245044E+01 -0.70948197114E+01 -0.33456633823E+01  0.12378849764E+02  0.51100000000E-03 0.  1.
        -12    1    4    4    0    0 -0.11311224983E+02 -0.22811881137E+02  0.18410783888E+02  0.31421054963E+02  0.00000000000E+00 0.  1.
</event>
<event>
 8    1  0.2514877E-006  0.9118800E+02  0.7816164E-02  0.1184000E+00
        -11   -1    0    0    0    0  0.00000000000E+00  0.00000000000E+00  0.45593999997E+02  0.45594000000E+02  0.51100000000E-03 0. -1.
         11   -1    0    0    0    0 -0.00000000000E+00 -0.00000000000E+00 -0.45593999997E+02  0.45594000000E+02  0.51100000000E-03 0.  1.
         23    2    1    2    0    0  0.00000000000E+00 -0.35527136788E-14  0.00000000000E+00  0.91188000000E+02  0.91188000000E+02 0.  0.
    9900012    2    3    3    0    0  0.19228489194E+02  0.23223073668E+02 -0.21136025052E+02  0.54367115949E+02  0.40000072429E+02 0.  0.
         12    1    3    3    0    0 -0.19228489194E+02 -0.23223073668E+02  0.21136025052E+02  0.36820884051E+02  0.00000000000E+00 0. -1.
         11    1    4    4    0    0  0.23625893180E+01  0.18190451671E+02 -0.17411245331E+02  0.25290824908E+02  0.51100000000E-03 0. -1.
        -11    1    4    4    0    0  0.14105896384E+02  0.10524325156E+02  0.50987758177E+01  0.18323079651E+02  0.51100000000E-03 0.  1.
         12    1    4    4    0    0  0.27600034926E+01 -0.54917031593E+01 -0.88235555387E+01  0.10753211391E+02  0.00000000000E+00 0. -1.
</event>
<event>
 8    1  0.2514877E-006  0.9118800E+02  0.7816164E-02  0.1184000E+00
        -11   -1    0    0    0    0  0.00000000000E+00  0.00000000000E+00  0.45593999997E+02  0.45594000000E+02  0.51100000000E-03 0.  1.
         11   -1    0    0    0    0 -0.00000000000E+00 -0.00000000000E+00 -0.45593999997E+02  0.45594000000E+02  0.51100000000E-03 0. -1.
         23    2    1    2    0    0  0.00000000000E+00  0.00000000000E+00  0.00000000000E+00  0.91188000000E+02  0.91188000000E+02 0.  0.
    9900012    2    3    3    0    0 -0.10035519725E+02  0.34367862634E+02  0.85975590899E+01  0.54367086642E+02  0.40000005619E+02 0.  0.
         12    1    3    3    0    0  0.10035519725E+02 -0.34367862634E+02 -0.85975590899E+01  0.36820913358E+02  0.00000000000E+00 0. -1.
         11    1    4    4    0    0 -0.78068691143E+01 -0.19568655779E-01 -0.18910896239E+01  0.80326713195E+01  0.51100000000E-03 0. -1.
        -11    1    4    4    0    0 -0.13160258608E+00  0.54187108660E+01  0.15892551540E+02  0.16791454416E+02  0.51100000000E-03 0.  1.
        -12    1    4    4    0    0 -0.20970480242E+01  0.28968720424E+02 -0.54039028259E+01  0.29542960907E+02  0.00000000000E+00 0.  1.
</event>
<event>
 8    1  0.2514877E-006  0.9118800E+02  0.7816164E-02  0.1184000E+00
        -11   -1    0    0    0    0  0.00000000000E+00  0.00000000000E+00  0.45593999997E+02  0.45594000000E+02  0.51100000000E-03 0. -1.
         11   -1    0    0    0    0 -0.00000000000E+00 -0.00000000000E+00 -0.45593999997E+02  0.45594000000E+02  0.51100000000E-03 0.  1.
         23    2    1    2    0    0 -0.35527136788E-14  0.00000000000E+00  0.00000000000E+00  0.91188000000E+02  0.91188000000E+02 0.  0.
    9900012    2    3    3    0    0 -0.28453827493E+02  0.21332936261E+02  0.95428087816E+01  0.54367086541E+02  0.40000005388E+02 0.  0.
        -12    1    3    3    0    0  0.28453827493E+02 -0.21332936261E+02 -0.95428087816E+01  0.36820913459E+02  0.00000000000E+00 0.  1.
         11    1    4    4    0    0  0.62346089082E+01 -0.42223396437E+01  0.36837023094E+01  0.83826107670E+01  0.51100000000E-03 0. -1.
        -11    1    4    4    0    0 -0.10921650809E+00  0.57603492948E+01  0.94490763387E+00  0.58383561848E+01  0.51100000000E-03 0.  1.
         12    1    4    4    0    0 -0.34579219893E+02  0.19794926610E+02  0.49141988384E+01  0.40146119590E+02  0.00000000000E+00 0. -1.
</event>
<event>
 8    1  0.2514877E-006  0.9118800E+02  0.7816164E-02  0.1184000E+00
        -11   -1    0    0    0    0  0.00000000000E+00  0.00000000000E+00  0.45593999997E+02  0.45594000000E+02  0.51100000000E-03 0. -1.
         11   -1    0    0    0    0 -0.00000000000E+00 -0.00000000000E+00 -0.45593999997E+02  0.45594000000E+02  0.51100000000E-03 0.  1.
         23    2    1    2    0    0  0.00000000000E+00  0.17763568394E-14  0.00000000000E+00  0.91188000000E+02  0.91188000000E+02 0.  0.
    9900012    2    3    3    0    0 -0.14317616446E+02  0.10813834737E+02  0.32153484175E+02  0.54367086011E+02  0.40000004180E+02 0.  0.
        -12    1    3    3    0    0  0.14317616446E+02 -0.10813834737E+02 -0.32153484175E+02  0.36820913989E+02  0.00000000000E+00 0.  1.
         11    1    4    4    0    0 -0.12849001831E+02  0.88844633910E+01  0.19702891200E+02  0.25144272900E+02  0.51100000000E-03 0. -1.
        -11    1    4    4    0    0  0.63333314991E+01 -0.35167579465E+01  0.17145276804E+02  0.18612877028E+02  0.51100000000E-03 0.  1.
         12    1    4    4    0    0 -0.78019461137E+01  0.54461292921E+01 -0.46946838287E+01  0.10609936083E+02  0.00000000000E+00 0. -1.
</event>
<event>
 8    1  0.2514877E-006  0.9118800E+02  0.7816164E-02  0.1184000E+00
        -11   -1    0    0    0    0  0.00000000000E+00  0.00000000000E+00  0.45593999997E+02  0.45594000000E+02  0.51100000000E-03 0.  1.
         11   -1    0    0    0    0 -0.00000000000E+00 -0.00000000000E+00 -0.45593999997E+02  0.45594000000E+02  0.51100000000E-03 0. -1.
         23    2    1    2    0    0  0.17763568394E-14 -0.11102230246E-14  0.00000000000E+00  0.91188000000E+02  0.91188000000E+02 0.  0.
    9900012    2    3    3    0    0 -0.14828231173E+02  0.94051901221E+00 -0.33690040410E+02  0.54367084224E+02  0.40000000105E+02 0.  0.
        -12    1    3    3    0    0  0.14828231173E+02 -0.94051901221E+00  0.33690040410E+02  0.36820915776E+02  0.00000000000E+00 0.  1.
         11    1    4    4    0    0  0.12578363310E+01 -0.23528458549E+01 -0.98917524278E+01  0.10245233146E+02  0.51100000000E-03 0. -1.
        -11    1    4    4    0    0 -0.17070600497E+02 -0.86052108430E+01 -0.25701802235E+02  0.32031823136E+02  0.51100000000E-03 0.  1.
        -12    1    4    4    0    0  0.98453299276E+00  0.11898575710E+02  0.19035142527E+01  0.12090027943E+02  0.00000000000E+00 0.  1.
</event>
<event>
 8    1  0.2514877E-006  0.9118800E+02  0.7816164E-02  0.1184000E+00
        -11   -1    0    0    0    0  0.00000000000E+00  0.00000000000E+00  0.45593999997E+02  0.45594000000E+02  0.51100000000E-03 0.  1.
         11   -1    0    0    0    0 -0.00000000000E+00 -0.00000000000E+00 -0.45593999997E+02  0.45594000000E+02  0.51100000000E-03 0. -1.
         23    2    1    2    0    0  0.00000000000E+00  0.00000000000E+00  0.00000000000E+00  0.91188000000E+02  0.91188000000E+02 0.  0.
    9900012    2    3    3    0    0 -0.32797725910E+02 -0.10379742317E+02 -0.13128157893E+02  0.54367103690E+02  0.40000044481E+02 0.  0.
        -12    1    3    3    0    0  0.32797725910E+02  0.10379742317E+02  0.13128157893E+02  0.36820896310E+02  0.00000000000E+00 0.  1.
         11    1    4    4    0    0 -0.11858614062E+02 -0.19075719304E+02  0.17879911419E+01  0.22532348014E+02  0.51100000000E-03 0. -1.
        -11    1    4    4    0    0 -0.13148626130E+02  0.20678275886E+01  0.51638366971E+00  0.13320245208E+02  0.51100000000E-03 0.  1.
         12    1    4    4    0    0 -0.77904857176E+01  0.66281493986E+01 -0.15432532705E+02  0.18514510467E+02  0.00000000000E+00 0. -1.
</event>
<event>
 8    1  0.2514877E-006  0.9118800E+02  0.7816164E-02  0.1184000E+00
        -11   -1    0    0    0    0  0.00000000000E+00  0.00000000000E+00  0.45593999997E+02  0.45594000000E+02  0.51100000000E-03 0. -1.
         11   -1    0    0    0    0 -0.00000000000E+00 -0.00000000000E+00 -0.45593999997E+02  0.45594000000E+02  0.51100000000E-03 0.  1.
         23    2    1    2    0    0  0.35527136788E-14 -0.35527136788E-14  0.35527136788E-14  0.91188000000E+02  0.91188000000E+02 0.  0.
    9900012    2    3    3    0    0  0.20575599252E+02 -0.25814901941E+02  0.16309991931E+02  0.54367078181E+02  0.39999986329E+02 0.  0.
        -12    1    3    3    0    0 -0.20575599252E+02  0.25814901941E+02 -0.16309991931E+02  0.36820921819E+02  0.00000000000E+00 0.  1.
         11    1    4    4    0    0  0.10953997423E+02 -0.13269485736E+02  0.18967000155E+02  0.25608912635E+02  0.51100000000E-03 0. -1.
        -11    1    4    4    0    0 -0.80069230847E+01 -0.29276668261E+01 -0.20814096736E+00  0.85279172869E+01  0.51100000000E-03 0.  1.
         12    1    4    4    0    0  0.17628524914E+02 -0.96177493794E+01 -0.24488672562E+01  0.20230248259E+02  0.00000000000E+00 0. -1.
</event>
<event>
 8    1  0.2514877E-006  0.9118800E+02  0.7816164E-02  0.1184000E+00
        -11   -1    0    0    0    0  0.00000000000E+00  0.00000000000E+00  0.45593999997E+02  0.45594000000E+02  0.51100000000E-03 0.  1.
         11   -1    0    0    0    0 -0.00000000000E+00 -0.00000000000E+00 -0.45593999997E+02  0.45594000000E+02  0.51100000000E-03 0. -1.
         23    2    1    2    0    0  0.35527136788E-14  0.00000000000E+00  0.00000000000E+00  0.91188000000E+02  0.91188000000E+02 0.  0.
    9900012    2    3    3    0    0 -0.24162900343E+02 -0.77584959389E+01  0.26678440729E+02  0.54367092733E+02  0.40000019504E+02 0.  0.
         12    1    3    3    0    0  0.24162900343E+02  0.77584959389E+01 -0.26678440729E+02  0.36820907267E+02  0.00000000000E+00 0. -1.
         11    1    4    4    0    0 -0.14255416512E+01  0.73556137006E+00 -0.42746513395E+01  0.45657270904E+01  0.51100000000E-03 0. -1.
        -11    1    4    4    0    0 -0.52801687966E+01  0.57224649370E+01  0.25464569325E+02  0.26628388585E+02  0.51100000000E-03 0.  1.
        -12    1    4    4    0    0 -0.17457189895E+02 -0.14216522246E+02  0.54885227438E+01  0.23172977058E+02  0.00000000000E+00 0.  1.
</event>
<event>
 8    1  0.2514877E-006  0.9118800E+02  0.7816164E-02  0.1184000E+00
        -11   -1    0    0    0    0  0.00000000000E+00  0.00000000000E+00  0.45593999997E+02  0.45594000000E+02  0.51100000000E-03 0. -1.
         11   -1    0    0    0    0 -0.00000000000E+00 -0.00000000000E+00 -0.45593999997E+02  0.45594000000E+02  0.51100000000E-03 0.  1.
         23    2    1    2    0    0  0.35527136788E-14 -0.35527136788E-14  0.88817841970E-15  0.91188000000E+02  0.91188000000E+02 0.  0.
    9900012    2    3    3    0    0  0.21508925407E+02 -0.29682297889E+02  0.34794902833E+01  0.54367088377E+02  0.40000009572E+02 0.  0.
        -12    1    3    3    0    0 -0.21508925407E+02  0.29682297889E+02 -0.34794902833E+01  0.36820911623E+02  0.00000000000E+00 0.  1.
         11    1    4    4    0    0  0.23066402690E+02 -0.29831300681E+02  0.85123455724E+01  0.38657799482E+02  0.51100000000E-03 0. -1.
        -11    1    4    4    0    0  0.24167160128E+00  0.65672909931E+01  0.10861473839E+01  0.66608882704E+01  0.51100000000E-03 0.  1.
        -12    1    4    4    0    0 -0.17991488847E+01 -0.64182882011E+01 -0.61190026730E+01  0.90484006241E+01  0.00000000000E+00 0.  1.
</event>
<event>
 8    1  0.2514877E-006  0.9118800E+02  0.7816164E-02  0.1184000E+00
        -11   -1    0    0    0    0  0.00000000000E+00  0.00000000000E+00  0.45593999997E+02  0.45594000000E+02  0.51100000000E-03 0.  1.
         11   -1    0    0    0    0 -0.00000000000E+00 -0.00000000000E+00 -0.45593999997E+02  0.45594000000E+02  0.51100000000E-03 0. -1.
         23    2    1    2    0    0 -0.77715611724E-15  0.00000000000E+00  0.71054273576E-14  0.91188000000E+02  0.91188000000E+02 0.  0.
    9900012    2    3    3    0    0 -0.92716791513E+00  0.98802999345E+01 -0.35458556059E+02  0.54366957580E+02  0.39999711393E+02 0.  0.
        -12    1    3    3    0    0  0.92716791513E+00 -0.98802999345E+01  0.35458556059E+02  0.36821042420E+02  0.00000000000E+00 0.  1.
         11    1    4    4    0    0 -0.38053742871E+01 -0.46763698237E+01 -0.34192537173E+01  0.69311329837E+01  0.51100000000E-03 0. -1.
        -11    1    4    4    0    0  0.48568940010E+01  0.24357623456E+02 -0.24738803138E+02  0.35055550498E+02  0.51100000000E-03 0.  1.
        -12    1    4    4    0    0 -0.19786876290E+01 -0.98009536978E+01 -0.73004992036E+01  0.12380274098E+02  0.00000000000E+00 0.  1.
</event>
<event>
 8    1  0.2514877E-006  0.9118800E+02  0.7816164E-02  0.1184000E+00
        -11   -1    0    0    0    0  0.00000000000E+00  0.00000000000E+00  0.45593999997E+02  0.45594000000E+02  0.51100000000E-03 0. -1.
         11   -1    0    0    0    0 -0.00000000000E+00 -0.00000000000E+00 -0.45593999997E+02  0.45594000000E+02  0.51100000000E-03 0.  1.
         23    2    1    2    0    0  0.44408920985E-15 -0.35527136788E-14  0.00000000000E+00  0.91188000000E+02  0.91188000000E+02 0.  0.
    9900012    2    3    3    0    0  0.24211954250E+01 -0.22593572486E+02 -0.28973022923E+02  0.54367248212E+02  0.40000373947E+02 0.  0.
         12    1    3    3    0    0 -0.24211954250E+01  0.22593572486E+02  0.28973022923E+02  0.36820751788E+02  0.00000000000E+00 0. -1.
         11    1    4    4    0    0 -0.63426129156E+00  0.60758893137E+01  0.50139562775E+01  0.79030675153E+01  0.51100000000E-03 0. -1.
        -11    1    4    4    0    0 -0.31394594873E+01 -0.14783758393E+02 -0.10201961507E+02  0.18234465633E+02  0.51100000000E-03 0.  1.
         12    1    4    4    0    0  0.61949162038E+01 -0.13885703407E+02 -0.23785017693E+02  0.28229715063E+02  0.00000000000E+00 0. -1.
</event>
<event>
 8    1  0.2514877E-006  0.9118800E+02  0.7816164E-02  0.1184000E+00
        -11   -1    0    0    0    0  0.00000000000E+00  0.00000000000E+00  0.45593999997E+02  0.45594000000E+02  0.51100000000E-03 0.  1.
         11   -1    0    0    0    0 -0.00000000000E+00 -0.00000000000E+00 -0.45593999997E+02  0.45594000000E+02  0.51100000000E-03 0. -1.
         23    2    1    2    0    0  0.00000000000E+00  0.00000000000E+00  0.00000000000E+00  0.91188000000E+02  0.91188000000E+02 0.  0.
    9900012    2    3    3    0    0  0.52203909110E+01 -0.18816857234E+02 -0.31216232604E+02  0.54367085082E+02  0.40000002061E+02 0.  0.
        -12    1    3    3    0    0 -0.52203909110E+01  0.18816857234E+02  0.31216232604E+02  0.36820914918E+02  0.00000000000E+00 0.  1.
         11    1    4    4    0    0  0.74035150511E+01 -0.74514223832E+01 -0.43804952759E+01  0.11380881766E+02  0.51100000000E-03 0. -1.
        -11    1    4    4    0    0  0.10790276521E+02  0.54941773625E+01 -0.12023764764E+02  0.17064201466E+02  0.51100000000E-03 0.  1.
         12    1    4    4    0    0 -0.12973400661E+02 -0.16859612213E+02 -0.14811972564E+02  0.25922001850E+02  0.00000000000E+00 0. -1.
</event>
<event>
 8    1  0.2514877E-006  0.9118800E+02  0.7816164E-02  0.1184000E+00
        -11   -1    0    0    0    0  0.00000000000E+00  0.00000000000E+00  0.45593999997E+02  0.45594000000E+02  0.51100000000E-03 0. -1.
         11   -1    0    0    0    0 -0.00000000000E+00 -0.00000000000E+00 -0.45593999997E+02  0.45594000000E+02  0.51100000000E-03 0.  1.
         23    2    1    2    0    0  0.00000000000E+00 -0.35527136788E-14  0.00000000000E+00  0.91188000000E+02  0.91188000000E+02 0.  0.
    9900012    2    3    3    0    0 -0.90487017027E+01 -0.29545013916E+02  0.20024809517E+02  0.54367084124E+02  0.39999999877E+02 0.  0.
        -12    1    3    3    0    0  0.90487017027E+01  0.29545013916E+02 -0.20024809517E+02  0.36820915876E+02  0.00000000000E+00 0.  1.
         11    1    4    4    0    0 -0.17614452300E+02 -0.16488782363E+02  0.10058697617E+02  0.26140510164E+02  0.51100000000E-03 0. -1.
        -11    1    4    4    0    0  0.18764099148E+01  0.28765721326E+01 -0.45206729024E+01  0.56773290510E+01  0.51100000000E-03 0.  1.
         12    1    4    4    0    0  0.66893406823E+01 -0.15932803685E+02  0.14486784802E+02  0.22549244908E+02  0.00000000000E+00 0. -1.
</event>
<event>
 8    1  0.2514877E-006  0.9118800E+02  0.7816164E-02  0.1184000E+00
        -11   -1    0    0    0    0  0.00000000000E+00  0.00000000000E+00  0.45593999997E+02  0.45594000000E+02  0.51100000000E-03 0. -1.
         11   -1    0    0    0    0 -0.00000000000E+00 -0.00000000000E+00 -0.45593999997E+02  0.45594000000E+02  0.51100000000E-03 0.  1.
         23    2    1    2    0    0  0.35527136788E-14  0.44408920985E-15  0.00000000000E+00  0.91188000000E+02  0.91188000000E+02 0.  0.
    9900012    2    3    3    0    0 -0.16721678435E+02  0.11300515675E+01 -0.32785497531E+02  0.54367076674E+02  0.39999982894E+02 0.  0.
         12    1    3    3    0    0  0.16721678435E+02 -0.11300515675E+01  0.32785497531E+02  0.36820923326E+02  0.00000000000E+00 0. -1.
         11    1    4    4    0    0 -0.26420448674E+01  0.17289375922E+01  0.47552730642E+01  0.57080862341E+01  0.51100000000E-03 0. -1.
        -11    1    4    4    0    0  0.70166277547E+01 -0.56302349005E+01 -0.14087174561E+02  0.16714697049E+02  0.51100000000E-03 0.  1.
         12    1    4    4    0    0 -0.21096261323E+02  0.50313488757E+01 -0.23453596034E+02  0.31944293391E+02  0.00000000000E+00 0. -1.
</event>
<event>
 8    1  0.2514877E-006  0.9118800E+02  0.7816164E-02  0.1184000E+00
        -11   -1    0    0    0    0  0.00000000000E+00  0.00000000000E+00  0.45593999997E+02  0.45594000000E+02  0.51100000000E-03 0. -1.
         11   -1    0    0    0    0 -0.00000000000E+00 -0.00000000000E+00 -0.45593999997E+02  0.45594000000E+02  0.51100000000E-03 0.  1.
         23    2    1    2    0    0  0.00000000000E+00  0.00000000000E+00 -0.35527136788E-14  0.91188000000E+02  0.91188000000E+02 0.  0.
    9900012    2    3    3    0    0  0.30438126466E+02 -0.12775976958E+02  0.16311413449E+02  0.54367253963E+02  0.40000387059E+02 0.  0.
        -12    1    3    3    0    0 -0.30438126466E+02  0.12775976958E+02 -0.16311413449E+02  0.36820746037E+02  0.00000000000E+00 0.  1.
         11    1    4    4    0    0  0.42502852105E+01 -0.17933671370E+02  0.23581374435E+01  0.18580697125E+02  0.51100000000E-03 0. -1.
        -11    1    4    4    0    0  0.22632525356E+02 -0.81553541296E+00  0.16878391541E+02  0.28244935887E+02  0.51100000000E-03 0.  1.
        -12    1    4    4    0    0  0.35553158994E+01  0.59732298245E+01 -0.29251155355E+01  0.75416209516E+01  0.00000000000E+00 0.  1.
</event>
<event>
 8    1  0.2514877E-006  0.9118800E+02  0.7816164E-02  0.1184000E+00
        -11   -1    0    0    0    0  0.00000000000E+00  0.00000000000E+00  0.45593999997E+02  0.45594000000E+02  0.51100000000E-03 0.  1.
         11   -1    0    0    0    0 -0.00000000000E+00 -0.00000000000E+00 -0.45593999997E+02  0.45594000000E+02  0.51100000000E-03 0. -1.
         23    2    1    2    0    0 -0.71054273576E-14 -0.44408920985E-15  0.00000000000E+00  0.91188000000E+02  0.91188000000E+02 0.  0.
    9900012    2    3    3    0    0  0.33077182732E+02  0.33519537567E+01 -0.15825424415E+02  0.54367086521E+02  0.40000005342E+02 0.  0.
        -12    1    3    3    0    0 -0.33077182732E+02 -0.33519537567E+01  0.15825424415E+02  0.36820913479E+02  0.00000000000E+00 0.  1.
         11    1    4    4    0    0  0.25552019357E+01  0.68987732455E+01 -0.74040158092E+01  0.10437508304E+02  0.51100000000E-03 0. -1.
        -11    1    4    4    0    0  0.22690556556E+02 -0.25048287290E+01 -0.19703955238E+02  0.30155950922E+02  0.51100000000E-03 0.  1.
        -12    1    4    4    0    0  0.78314242409E+01 -0.10419907597E+01  0.11282546631E+02  0.13773627295E+02  0.00000000000E+00 0.  1.
</event>
<event>
 8    1  0.2514877E-006  0.9118800E+02  0.7816164E-02  0.1184000E+00
        -11   -1    0    0    0    0  0.00000000000E+00  0.00000000000E+00  0.45593999997E+02  0.45594000000E+02  0.51100000000E-03 0.  1.
         11   -1    0    0    0    0 -0.00000000000E+00 -0.00000000000E+00 -0.45593999997E+02  0.45594000000E+02  0.51100000000E-03 0. -1.
         23    2    1    2    0    0 -0.88817841970E-15 -0.17763568394E-14  0.71054273576E-14  0.91188000000E+02  0.91188000000E+02 0.  0.
    9900012    2    3    3    0    0 -0.67759985946E+01  0.10054743219E+02  0.34767441914E+02  0.54366986497E+02  0.39999777316E+02 0.  0.
         12    1    3    3    0    0  0.67759985946E+01 -0.10054743219E+02 -0.34767441914E+02  0.36821013503E+02  0.00000000000E+00 0. -1.
         11    1    4    4    0    0 -0.77715218905E+01  0.18152212828E+02  0.82113227832E+01  0.21385163202E+02  0.51100000000E-03 0. -1.
        -11    1    4    4    0    0  0.67442873246E+00  0.46427326210E+01  0.15215509946E+02  0.15922360487E+02  0.51100000000E-03 0.  1.
         12    1    4    4    0    0  0.32109456339E+00 -0.12740202231E+02  0.11340609185E+02  0.17059462808E+02  0.00000000000E+00 0. -1.
</event>
<event>
 8    1  0.2514877E-006  0.9118800E+02  0.7816164E-02  0.1184000E+00
        -11   -1    0    0    0    0  0.00000000000E+00  0.00000000000E+00  0.45593999997E+02  0.45594000000E+02  0.51100000000E-03 0. -1.
         11   -1    0    0    0    0 -0.00000000000E+00 -0.00000000000E+00 -0.45593999997E+02  0.45594000000E+02  0.51100000000E-03 0.  1.
         23    2    1    2    0    0 -0.62172489379E-14  0.00000000000E+00  0.00000000000E+00  0.91188000000E+02  0.91188000000E+02 0.  0.
    9900012    2    3    3    0    0 -0.54620814604E+01 -0.36098735647E+02  0.47774152583E+01  0.54367126222E+02  0.40000095848E+02 0.  0.
        -12    1    3    3    0    0  0.54620814604E+01  0.36098735647E+02 -0.47774152583E+01  0.36820873778E+02  0.00000000000E+00 0.  1.
         11    1    4    4    0    0 -0.52849667850E+01 -0.68397928403E+01  0.16317648645E+01  0.87963797582E+01  0.51100000000E-03 0. -1.
        -11    1    4    4    0    0  0.16133898908E+02 -0.22748899604E+02  0.14522218460E+01  0.27927120792E+02  0.51100000000E-03 0.  1.
        -12    1    4    4    0    0 -0.16311013583E+02 -0.65100432031E+01  0.16934285478E+01  0.17643625672E+02  0.00000000000E+00 0.  1.
</event>
<event>
 8    1  0.2514877E-006  0.9118800E+02  0.7816164E-02  0.1184000E+00
        -11   -1    0    0    0    0  0.00000000000E+00  0.00000000000E+00  0.45593999997E+02  0.45594000000E+02  0.51100000000E-03 0. -1.
         11   -1    0    0    0    0 -0.00000000000E+00 -0.00000000000E+00 -0.45593999997E+02  0.45594000000E+02  0.51100000000E-03 0.  1.
         23    2    1    2    0    0  0.44408920985E-15  0.00000000000E+00  0.35527136788E-14  0.91188000000E+02  0.91188000000E+02 0.  0.
    9900012    2    3    3    0    0  0.65127424671E+00 -0.26417200537E+02 -0.25641557476E+02  0.54367053350E+02  0.39999929723E+02 0.  0.
         12    1    3    3    0    0 -0.65127424671E+00  0.26417200537E+02  0.25641557476E+02  0.36820946650E+02  0.00000000000E+00 0. -1.
         11    1    4    4    0    0  0.35570154109E+01 -0.15793533907E+02  0.42000453478E+01  0.16725084547E+02  0.51100000000E-03 0. -1.
        -11    1    4    4    0    0 -0.52672696796E+01 -0.19510266407E+01  0.83222649464E+00  0.56783127802E+01  0.51100000000E-03 0.  1.
        -12    1    4    4    0    0  0.23615285154E+01 -0.86726399892E+01 -0.30673829319E+02  0.31963656023E+02  0.00000000000E+00 0.  1.
</event>
<event>
 8    1  0.2514877E-006  0.9118800E+02  0.7816164E-02  0.1184000E+00
        -11   -1    0    0    0    0  0.00000000000E+00  0.00000000000E+00  0.45593999997E+02  0.45594000000E+02  0.51100000000E-03 0. -1.
         11   -1    0    0    0    0 -0.00000000000E+00 -0.00000000000E+00 -0.45593999997E+02  0.45594000000E+02  0.51100000000E-03 0.  1.
         23    2    1    2    0    0  0.00000000000E+00  0.35527136788E-14  0.00000000000E+00  0.91188000000E+02  0.91188000000E+02 0.  0.
    9900012    2    3    3    0    0  0.10772914824E+02 -0.22438170690E+02  0.27133926328E+02  0.54367120656E+02  0.40000083160E+02 0.  0.
        -12    1    3    3    0    0 -0.10772914824E+02  0.22438170690E+02 -0.27133926328E+02  0.36820879344E+02  0.00000000000E+00 0.  1.
         11    1    4    4    0    0 -0.41703480345E+01 -0.48055323732E+01 -0.29186210217E+01  0.70002352137E+01  0.51100000000E-03 0. -1.
        -11    1    4    4    0    0  0.81547564920E+01  0.47951233755E+01  0.26051647135E+00  0.94636742719E+01  0.51100000000E-03 0.  1.
         12    1    4    4    0    0  0.67885063666E+01 -0.22427761692E+02  0.29792030878E+02  0.37903211170E+02  0.00000000000E+00 0. -1.
</event>
<event>
 8    1  0.2514877E-006  0.9118800E+02  0.7816164E-02  0.1184000E+00
        -11   -1    0    0    0    0  0.00000000000E+00  0.00000000000E+00  0.45593999997E+02  0.45594000000E+02  0.51100000000E-03 0. -1.
         11   -1    0    0    0    0 -0.00000000000E+00 -0.00000000000E+00 -0.45593999997E+02  0.45594000000E+02  0.51100000000E-03 0.  1.
         23    2    1    2    0    0  0.71054273576E-14 -0.88817841970E-15  0.17763568394E-14  0.91188000000E+02  0.91188000000E+02 0.  0.
    9900012    2    3    3    0    0  0.33389904332E+02 -0.43178883103E+01  0.14908096254E+02  0.54367065674E+02  0.39999957816E+02 0.  0.
        -12    1    3    3    0    0 -0.33389904332E+02  0.43178883103E+01 -0.14908096254E+02  0.36820934326E+02  0.00000000000E+00 0.  1.
         11    1    4    4    0    0  0.76130128111E+01  0.23038338837E+01 -0.88201290441E+00  0.80027221400E+01  0.51100000000E-03 0. -1.
        -11    1    4    4    0    0  0.12962052938E+02 -0.35394638699E+01 -0.10435479576E+02  0.17012990774E+02  0.51100000000E-03 0.  1.
         12    1    4    4    0    0  0.12814838583E+02 -0.30822583240E+01  0.26225588735E+02  0.29351352759E+02  0.00000000000E+00 0. -1.
</event>
<event>
 8    1  0.2514877E-006  0.9118800E+02  0.7816164E-02  0.1184000E+00
        -11   -1    0    0    0    0  0.00000000000E+00  0.00000000000E+00  0.45593999997E+02  0.45594000000E+02  0.51100000000E-03 0. -1.
         11   -1    0    0    0    0 -0.00000000000E+00 -0.00000000000E+00 -0.45593999997E+02  0.45594000000E+02  0.51100000000E-03 0.  1.
         23    2    1    2    0    0  0.00000000000E+00 -0.88817841970E-15 -0.71054273576E-14  0.91188000000E+02  0.91188000000E+02 0.  0.
    9900012    2    3    3    0    0  0.13025430874E+02 -0.39228448481E+01 -0.34215927371E+02  0.54367078678E+02  0.39999987462E+02 0.  0.
         12    1    3    3    0    0 -0.13025430874E+02  0.39228448481E+01  0.34215927371E+02  0.36820921322E+02  0.00000000000E+00 0. -1.
         11    1    4    4    0    0  0.11634938193E+02  0.30322362717E+01 -0.23854476774E+02  0.26713335733E+02  0.51100000000E-03 0. -1.
        -11    1    4    4    0    0  0.35608113080E+01  0.48736434592E+01 -0.13869827067E+02  0.15126264604E+02  0.51100000000E-03 0.  1.
         12    1    4    4    0    0 -0.21703186276E+01 -0.11828724579E+02  0.35083764704E+01  0.12527478340E+02  0.00000000000E+00 0. -1.
</event>
<event>
 8    1  0.2514877E-006  0.9118800E+02  0.7816164E-02  0.1184000E+00
        -11   -1    0    0    0    0  0.00000000000E+00  0.00000000000E+00  0.45593999997E+02  0.45594000000E+02  0.51100000000E-03 0. -1.
         11   -1    0    0    0    0 -0.00000000000E+00 -0.00000000000E+00 -0.45593999997E+02  0.45594000000E+02  0.51100000000E-03 0.  1.
         23    2    1    2    0    0  0.00000000000E+00  0.00000000000E+00  0.00000000000E+00  0.91188000000E+02  0.91188000000E+02 0.  0.
    9900012    2    3    3    0    0  0.13656512978E+02 -0.32811732023E+02 -0.96264903422E+01  0.54367089889E+02  0.40000013020E+02 0.  0.
        -12    1    3    3    0    0 -0.13656512978E+02  0.32811732023E+02  0.96264903422E+01  0.36820910111E+02  0.00000000000E+00 0.  1.
         11    1    4    4    0    0  0.12312382802E+02 -0.25168000873E+02 -0.17349342393E+01  0.28071926105E+02  0.51100000000E-03 0. -1.
        -11    1    4    4    0    0  0.83230777132E+01 -0.48819231547E+01 -0.13733249595E+02  0.16784187231E+02  0.51100000000E-03 0.  1.
        -12    1    4    4    0    0 -0.69789475367E+01 -0.27618079963E+01  0.58416934922E+01  0.95109765527E+01  0.00000000000E+00 0.  1.
</event>
<event>
 8    1  0.2514877E-006  0.9118800E+02  0.7816164E-02  0.1184000E+00
        -11   -1    0    0    0    0  0.00000000000E+00  0.00000000000E+00  0.45593999997E+02  0.45594000000E+02  0.51100000000E-03 0. -1.
         11   -1    0    0    0    0 -0.00000000000E+00 -0.00000000000E+00 -0.45593999997E+02  0.45594000000E+02  0.51100000000E-03 0.  1.
         23    2    1    2    0    0  0.35527136788E-14  0.35527136788E-14 -0.35527136788E-14  0.91188000000E+02  0.91188000000E+02 0.  0.
    9900012    2    3    3    0    0  0.21433068833E+02  0.22028806092E+02 -0.20276470923E+02  0.54367081889E+02  0.39999994782E+02 0.  0.
         12    1    3    3    0    0 -0.21433068833E+02 -0.22028806092E+02  0.20276470923E+02  0.36820918111E+02  0.00000000000E+00 0. -1.
         11    1    4    4    0    0  0.38730155766E+01  0.17405422357E+02  0.82290247936E+01  0.19638376369E+02  0.51100000000E-03 0. -1.
        -11    1    4    4    0    0  0.38892491281E+00 -0.11705964893E+01 -0.44077781885E+01  0.45771243755E+01  0.51100000000E-03 0.  1.
        -12    1    4    4    0    0  0.17171128344E+02  0.57939802237E+01 -0.24097717528E+02  0.30151581145E+02  0.00000000000E+00 0.  1.
</event>
<event>
 8    1  0.2514877E-006  0.9118800E+02  0.7816164E-02  0.1184000E+00
        -11   -1    0    0    0    0  0.00000000000E+00  0.00000000000E+00  0.45593999997E+02  0.45594000000E+02  0.51100000000E-03 0.  1.
         11   -1    0    0    0    0 -0.00000000000E+00 -0.00000000000E+00 -0.45593999997E+02  0.45594000000E+02  0.51100000000E-03 0. -1.
         23    2    1    2    0    0  0.00000000000E+00  0.00000000000E+00  0.00000000000E+00  0.91188000000E+02  0.91188000000E+02 0.  0.
    9900012    2    3    3    0    0  0.17012391147E+02  0.11489785456E+02 -0.30567074535E+02  0.54367045803E+02  0.39999912516E+02 0.  0.
        -12    1    3    3    0    0 -0.17012391147E+02 -0.11489785456E+02  0.30567074535E+02  0.36820954197E+02  0.00000000000E+00 0.  1.
         11    1    4    4    0    0  0.49504786774E+01  0.76325262014E+01 -0.52997061282E+01  0.10528512747E+02  0.51100000000E-03 0. -1.
        -11    1    4    4    0    0  0.19016645112E+01  0.11272509617E+02  0.38966120302E+01  0.12077639941E+02  0.51100000000E-03 0.  1.
         12    1    4    4    0    0  0.10160247958E+02 -0.74152503617E+01 -0.29163980437E+02  0.31760893115E+02  0.00000000000E+00 0. -1.
</event>
<event>
 8    1  0.2514877E-006  0.9118800E+02  0.7816164E-02  0.1184000E+00
        -11   -1    0    0    0    0  0.00000000000E+00  0.00000000000E+00  0.45593999997E+02  0.45594000000E+02  0.51100000000E-03 0. -1.
         11   -1    0    0    0    0 -0.00000000000E+00 -0.00000000000E+00 -0.45593999997E+02  0.45594000000E+02  0.51100000000E-03 0.  1.
         23    2    1    2    0    0  0.00000000000E+00  0.00000000000E+00  0.71054273576E-14  0.91188000000E+02  0.91188000000E+02 0.  0.
    9900012    2    3    3    0    0 -0.14344751718E+02  0.14603577382E+02  0.30606264098E+02  0.54367085070E+02  0.40000002035E+02 0.  0.
        -12    1    3    3    0    0  0.14344751718E+02 -0.14603577382E+02 -0.30606264098E+02  0.36820914930E+02  0.00000000000E+00 0.  1.
         11    1    4    4    0    0 -0.72890631321E+01  0.92948771615E+01 -0.39052744187E+01  0.12440914409E+02  0.51100000000E-03 0. -1.
        -11    1    4    4    0    0 -0.29269675054E+01  0.10140427080E+02  0.48930004483E+01  0.11633436886E+02  0.51100000000E-03 0.  1.
         12    1    4    4    0    0 -0.41287210805E+01 -0.48317268597E+01  0.29618538069E+02  0.30292733775E+02  0.00000000000E+00 0. -1.
</event>
<event>
 8    1  0.2514877E-006  0.9118800E+02  0.7816164E-02  0.1184000E+00
        -11   -1    0    0    0    0  0.00000000000E+00  0.00000000000E+00  0.45593999997E+02  0.45594000000E+02  0.51100000000E-03 0. -1.
         11   -1    0    0    0    0 -0.00000000000E+00 -0.00000000000E+00 -0.45593999997E+02  0.45594000000E+02  0.51100000000E-03 0.  1.
         23    2    1    2    0    0 -0.35527136788E-14 -0.35527136788E-14  0.71054273576E-14  0.91188000000E+02  0.91188000000E+02 0.  0.
    9900012    2    3    3    0    0 -0.14265962399E+02 -0.15241598278E+02  0.30330809576E+02  0.54367054727E+02  0.39999932862E+02 0.  0.
        -12    1    3    3    0    0  0.14265962399E+02  0.15241598278E+02 -0.30330809576E+02  0.36820945273E+02  0.00000000000E+00 0.  1.
         11    1    4    4    0    0 -0.39304401021E+01 -0.71463098481E+01  0.30991230014E+02  0.32046441954E+02  0.51100000000E-03 0. -1.
        -11    1    4    4    0    0 -0.95958836566E+00  0.47878131256E+01 -0.36658807076E+01  0.61059516851E+01  0.51100000000E-03 0.  1.
        -12    1    4    4    0    0 -0.93759339313E+01 -0.12883101556E+02  0.30054602691E+01  0.16214661088E+02  0.00000000000E+00 0.  1.
</event>
<event>
 8    1  0.2514877E-006  0.9118800E+02  0.7816164E-02  0.1184000E+00
        -11   -1    0    0    0    0  0.00000000000E+00  0.00000000000E+00  0.45593999997E+02  0.45594000000E+02  0.51100000000E-03 0.  1.
         11   -1    0    0    0    0 -0.00000000000E+00 -0.00000000000E+00 -0.45593999997E+02  0.45594000000E+02  0.51100000000E-03 0. -1.
         23    2    1    2    0    0  0.00000000000E+00 -0.88817841970E-15  0.35527136788E-14  0.91188000000E+02  0.91188000000E+02 0.  0.
    9900012    2    3    3    0    0 -0.22636728155E+02 -0.56320619005E+01  0.28489264911E+02  0.54367084775E+02  0.40000001363E+02 0.  0.
         12    1    3    3    0    0  0.22636728155E+02  0.56320619005E+01 -0.28489264911E+02  0.36820915225E+02  0.00000000000E+00 0. -1.
         11    1    4    4    0    0 -0.10258679969E+02  0.13716604768E+02  0.85229343952E+01  0.19131810474E+02  0.51100000000E-03 0. -1.
        -11    1    4    4    0    0 -0.69235984056E+01  0.12738079394E+01  0.84338212321E+01  0.10985815508E+02  0.51100000000E-03 0.  1.
         12    1    4    4    0    0 -0.54544497808E+01 -0.20622474608E+02  0.11532509283E+02  0.24249458793E+02  0.00000000000E+00 0. -1.
</event>
<event>
 8    1  0.2514877E-006  0.9118800E+02  0.7816164E-02  0.1184000E+00
        -11   -1    0    0    0    0  0.00000000000E+00  0.00000000000E+00  0.45593999997E+02  0.45594000000E+02  0.51100000000E-03 0. -1.
         11   -1    0    0    0    0 -0.00000000000E+00 -0.00000000000E+00 -0.45593999997E+02  0.45594000000E+02  0.51100000000E-03 0.  1.
         23    2    1    2    0    0  0.00000000000E+00  0.88817841970E-15  0.00000000000E+00  0.91188000000E+02  0.91188000000E+02 0.  0.
    9900012    2    3    3    0    0 -0.14100014126E+02  0.42486990595E+01 -0.33747860155E+02  0.54367083294E+02  0.39999997985E+02 0.  0.
         12    1    3    3    0    0  0.14100014126E+02 -0.42486990595E+01  0.33747860155E+02  0.36820916706E+02  0.00000000000E+00 0. -1.
         11    1    4    4    0    0  0.21086401314E+01  0.94503033317E+01 -0.15829591243E+02  0.18556146028E+02  0.51100000000E-03 0. -1.
        -11    1    4    4    0    0 -0.18255788659E+02 -0.82035296600E+01 -0.22401645406E+02  0.30040063841E+02  0.51100000000E-03 0.  1.
        -12    1    4    4    0    0  0.20471344013E+01  0.30019253879E+01  0.44833764937E+01  0.57708734240E+01  0.00000000000E+00 0.  1.
</event>
<event>
 8    1  0.2514877E-006  0.9118800E+02  0.7816164E-02  0.1184000E+00
        -11   -1    0    0    0    0  0.00000000000E+00  0.00000000000E+00  0.45593999997E+02  0.45594000000E+02  0.51100000000E-03 0.  1.
         11   -1    0    0    0    0 -0.00000000000E+00 -0.00000000000E+00 -0.45593999997E+02  0.45594000000E+02  0.51100000000E-03 0. -1.
         23    2    1    2    0    0 -0.35527136788E-14  0.00000000000E+00  0.17763568394E-14  0.91188000000E+02  0.91188000000E+02 0.  0.
    9900012    2    3    3    0    0  0.15030935844E+02  0.32090482862E+02  0.10002605414E+02  0.54367078804E+02  0.39999987749E+02 0.  0.
         12    1    3    3    0    0 -0.15030935844E+02 -0.32090482862E+02 -0.10002605414E+02  0.36820921196E+02  0.00000000000E+00 0. -1.
         11    1    4    4    0    0 -0.38502404522E+01  0.12385613532E+02 -0.57456191930E+01  0.14185905480E+02  0.51100000000E-03 0. -1.
        -11    1    4    4    0    0  0.12634651609E+02  0.51866996796E+01  0.19623055767E+02  0.23908170000E+02  0.51100000000E-03 0.  1.
         12    1    4    4    0    0  0.62465246876E+01  0.14518169650E+02 -0.38748311606E+01  0.16273003324E+02  0.00000000000E+00 0. -1.
</event>
<event>
 8    1  0.2514877E-006  0.9118800E+02  0.7816164E-02  0.1184000E+00
        -11   -1    0    0    0    0  0.00000000000E+00  0.00000000000E+00  0.45593999997E+02  0.45594000000E+02  0.51100000000E-03 0.  1.
         11   -1    0    0    0    0 -0.00000000000E+00 -0.00000000000E+00 -0.45593999997E+02  0.45594000000E+02  0.51100000000E-03 0. -1.
         23    2    1    2    0    0  0.00000000000E+00  0.00000000000E+00  0.44408920985E-15  0.91188000000E+02  0.91188000000E+02 0.  0.
    9900012    2    3    3    0    0  0.30714750505E+02 -0.20034561430E+02 -0.33167567760E+01  0.54367076250E+02  0.39999981926E+02 0.  0.
         12    1    3    3    0    0 -0.30714750505E+02  0.20034561430E+02  0.33167567760E+01  0.36820923750E+02  0.00000000000E+00 0. -1.
         11    1    4    4    0    0  0.16466311886E+02  0.74384396897E+01 -0.38798143746E+01  0.18480334736E+02  0.51100000000E-03 0. -1.
        -11    1    4    4    0    0  0.15048656260E+02 -0.11287258272E+02 -0.36054646008E+01  0.19153684496E+02  0.51100000000E-03 0.  1.
        -12    1    4    4    0    0 -0.80021763983E+00 -0.16185742848E+02  0.41685221994E+01  0.16733057017E+02  0.00000000000E+00 0.  1.
</event>
<event>
 8    1  0.2514877E-006  0.9118800E+02  0.7816164E-02  0.1184000E+00
        -11   -1    0    0    0    0  0.00000000000E+00  0.00000000000E+00  0.45593999997E+02  0.45594000000E+02  0.51100000000E-03 0. -1.
         11   -1    0    0    0    0 -0.00000000000E+00 -0.00000000000E+00 -0.45593999997E+02  0.45594000000E+02  0.51100000000E-03 0.  1.
         23    2    1    2    0    0  0.00000000000E+00 -0.88817841970E-15  0.00000000000E+00  0.91188000000E+02  0.91188000000E+02 0.  0.
    9900012    2    3    3    0    0  0.22502601890E+02  0.60594111343E+01 -0.28507800117E+02  0.54367106167E+02  0.40000050130E+02 0.  0.
         12    1    3    3    0    0 -0.22502601890E+02 -0.60594111343E+01  0.28507800117E+02  0.36820893833E+02  0.00000000000E+00 0. -1.
         11    1    4    4    0    0  0.24964729045E+02  0.19729036390E+02 -0.19924981730E+02  0.37543008276E+02  0.51100000000E-03 0. -1.
        -11    1    4    4    0    0 -0.34104394537E+00 -0.94960016219E+01 -0.72628253247E+01  0.11959890875E+02  0.51100000000E-03 0.  1.
         12    1    4    4    0    0 -0.21210832099E+01 -0.41736236339E+01 -0.13199930621E+01  0.48642070170E+01  0.00000000000E+00 0. -1.
</event>
<event>
 8    1  0.2514877E-006  0.9118800E+02  0.7816164E-02  0.1184000E+00
        -11   -1    0    0    0    0  0.00000000000E+00  0.00000000000E+00  0.45593999997E+02  0.45594000000E+02  0.51100000000E-03 0. -1.
         11   -1    0    0    0    0 -0.00000000000E+00 -0.00000000000E+00 -0.45593999997E+02  0.45594000000E+02  0.51100000000E-03 0.  1.
         23    2    1    2    0    0  0.00000000000E+00  0.00000000000E+00  0.17763568394E-14  0.91188000000E+02  0.91188000000E+02 0.  0.
    9900012    2    3    3    0    0 -0.15321981302E+02 -0.30930903999E+02 -0.12817611931E+02  0.54367148450E+02  0.40000146522E+02 0.  0.
        -12    1    3    3    0    0  0.15321981302E+02  0.30930903999E+02  0.12817611931E+02  0.36820851550E+02  0.00000000000E+00 0.  1.
         11    1    4    4    0    0 -0.88391177598E+01 -0.36967284043E+02 -0.84722336283E+01  0.38942121606E+02  0.51100000000E-03 0. -1.
        -11    1    4    4    0    0 -0.12105393361E+01 -0.23261735506E+01  0.23206525906E+01  0.35017020975E+01  0.51100000000E-03 0.  1.
        -12    1    4    4    0    0 -0.52723242062E+01  0.83625535942E+01 -0.66660308936E+01  0.11923324747E+02  0.00000000000E+00 0.  1.
</event>
<event>
 8    1  0.2514877E-006  0.9118800E+02  0.7816164E-02  0.1184000E+00
        -11   -1    0    0    0    0  0.00000000000E+00  0.00000000000E+00  0.45593999997E+02  0.45594000000E+02  0.51100000000E-03 0. -1.
         11   -1    0    0    0    0 -0.00000000000E+00 -0.00000000000E+00 -0.45593999997E+02  0.45594000000E+02  0.51100000000E-03 0.  1.
         23    2    1    2    0    0  0.35527136788E-14  0.00000000000E+00 -0.35527136788E-14  0.91188000000E+02  0.91188000000E+02 0.  0.
    9900012    2    3    3    0    0  0.25886927127E+02 -0.20285191856E+02 -0.16557738543E+02  0.54367072386E+02  0.39999973118E+02 0.  0.
        -12    1    3    3    0    0 -0.25886927127E+02  0.20285191856E+02  0.16557738543E+02  0.36820927614E+02  0.00000000000E+00 0.  1.
         11    1    4    4    0    0  0.88887545445E+01  0.16027816602E+01 -0.20675548811E+01  0.92657244644E+01  0.51100000000E-03 0. -1.
        -11    1    4    4    0    0  0.14928275572E+02  0.29014277907E+01 -0.13290513295E+02  0.20196768026E+02  0.51100000000E-03 0.  1.
         12    1    4    4    0    0  0.20698970105E+01 -0.24789401307E+02 -0.11996703663E+01  0.24904579896E+02  0.00000000000E+00 0. -1.
</event>
<event>
 8    1  0.2514877E-006  0.9118800E+02  0.7816164E-02  0.1184000E+00
        -11   -1    0    0    0    0  0.00000000000E+00  0.00000000000E+00  0.45593999997E+02  0.45594000000E+02  0.51100000000E-03 0. -1.
         11   -1    0    0    0    0 -0.00000000000E+00 -0.00000000000E+00 -0.45593999997E+02  0.45594000000E+02  0.51100000000E-03 0.  1.
         23    2    1    2    0    0  0.35527136788E-14  0.00000000000E+00  0.88817841970E-15  0.91188000000E+02  0.91188000000E+02 0.  0.
    9900012    2    3    3    0    0 -0.15490429368E+02  0.32897339265E+02 -0.57958280956E+01  0.54367082629E+02  0.39999996470E+02 0.  0.
         12    1    3    3    0    0  0.15490429368E+02 -0.32897339265E+02  0.57958280956E+01  0.36820917371E+02  0.00000000000E+00 0. -1.
         11    1    4    4    0    0 -0.36664088454E+01 -0.47642557367E+01  0.16580066750E+01  0.62361585084E+01  0.51100000000E-03 0. -1.
        -11    1    4    4    0    0 -0.15296777865E+02  0.78906917481E+01 -0.56030658669E+01  0.18101071148E+02  0.51100000000E-03 0.  1.
         12    1    4    4    0    0  0.34727573428E+01  0.29770903253E+02 -0.18507689036E+01  0.30029852974E+02  0.00000000000E+00 0. -1.
</event>
<event>
 8    1  0.2514877E-006  0.9118800E+02  0.7816164E-02  0.1184000E+00
        -11   -1    0    0    0    0  0.00000000000E+00  0.00000000000E+00  0.45593999997E+02  0.45594000000E+02  0.51100000000E-03 0.  1.
         11   -1    0    0    0    0 -0.00000000000E+00 -0.00000000000E+00 -0.45593999997E+02  0.45594000000E+02  0.51100000000E-03 0. -1.
         23    2    1    2    0    0 -0.17763568394E-14  0.00000000000E+00  0.00000000000E+00  0.91188000000E+02  0.91188000000E+02 0.  0.
    9900012    2    3    3    0    0 -0.12823352983E+02  0.92229911076E+01  0.33260771153E+02  0.54367070566E+02  0.39999968969E+02 0.  0.
         12    1    3    3    0    0  0.12823352983E+02 -0.92229911076E+01 -0.33260771153E+02  0.36820929434E+02  0.00000000000E+00 0. -1.
         11    1    4    4    0    0  0.68469911327E+00 -0.76504735455E+01  0.24898691733E+01  0.80745282901E+01  0.51100000000E-03 0. -1.
        -11    1    4    4    0    0 -0.11722010495E+02 -0.13001309560E+00  0.75265115426E+00  0.11746868411E+02  0.51100000000E-03 0.  1.
         12    1    4    4    0    0 -0.17860416015E+01  0.17003477749E+02  0.30018250825E+02  0.34545673865E+02  0.00000000000E+00 0. -1.
</event>
<event>
 8    1  0.2514877E-006  0.9118800E+02  0.7816164E-02  0.1184000E+00
        -11   -1    0    0    0    0  0.00000000000E+00  0.00000000000E+00  0.45593999997E+02  0.45594000000E+02  0.51100000000E-03 0. -1.
         11   -1    0    0    0    0 -0.00000000000E+00 -0.00000000000E+00 -0.45593999997E+02  0.45594000000E+02  0.51100000000E-03 0.  1.
         23    2    1    2    0    0  0.17763568394E-14  0.00000000000E+00  0.00000000000E+00  0.91188000000E+02  0.91188000000E+02 0.  0.
    9900012    2    3    3    0    0  0.11930409187E+02 -0.21484225698E+02  0.27420307029E+02  0.54367084004E+02  0.39999999605E+02 0.  0.
        -12    1    3    3    0    0 -0.11930409187E+02  0.21484225698E+02 -0.27420307029E+02  0.36820915996E+02  0.00000000000E+00 0.  1.
         11    1    4    4    0    0  0.11201964700E+02 -0.86623428133E+01  0.91069704272E+01  0.16836184448E+02  0.51100000000E-03 0. -1.
        -11    1    4    4    0    0  0.12451976204E+02 -0.16167182009E+02  0.13243111214E+02  0.24327134652E+02  0.51100000000E-03 0.  1.
         12    1    4    4    0    0 -0.11723531717E+02  0.33452991239E+01  0.50702253872E+01  0.13203764904E+02  0.00000000000E+00 0. -1.
</event>
<event>
 8    1  0.2514877E-006  0.9118800E+02  0.7816164E-02  0.1184000E+00
        -11   -1    0    0    0    0  0.00000000000E+00  0.00000000000E+00  0.45593999997E+02  0.45594000000E+02  0.51100000000E-03 0. -1.
         11   -1    0    0    0    0 -0.00000000000E+00 -0.00000000000E+00 -0.45593999997E+02  0.45594000000E+02  0.51100000000E-03 0.  1.
         23    2    1    2    0    0 -0.35527136788E-14  0.00000000000E+00  0.35527136788E-14  0.91188000000E+02  0.91188000000E+02 0.  0.
    9900012    2    3    3    0    0 -0.26002037830E+02 -0.21535971419E+02  0.14692819439E+02  0.54367041575E+02  0.39999902879E+02 0.  0.
         12    1    3    3    0    0  0.26002037830E+02  0.21535971419E+02 -0.14692819439E+02  0.36820958425E+02  0.00000000000E+00 0. -1.
         11    1    4    4    0    0 -0.17761139880E+02 -0.49975631778E+01  0.21127876709E+02  0.28050328020E+02  0.51100000000E-03 0. -1.
        -11    1    4    4    0    0 -0.16886733040E+01  0.37925184616E+01 -0.84326419174E+00  0.42362611543E+01  0.51100000000E-03 0.  1.
        -12    1    4    4    0    0 -0.65522246460E+01 -0.20330926703E+02 -0.55917930782E+01  0.22080452401E+02  0.00000000000E+00 0.  1.
</event>
<event>
 8    1  0.2514877E-006  0.9118800E+02  0.7816164E-02  0.1184000E+00
        -11   -1    0    0    0    0  0.00000000000E+00  0.00000000000E+00  0.45593999997E+02  0.45594000000E+02  0.51100000000E-03 0.  1.
         11   -1    0    0    0    0 -0.00000000000E+00 -0.00000000000E+00 -0.45593999997E+02  0.45594000000E+02  0.51100000000E-03 0. -1.
         23    2    1    2    0    0  0.17763568394E-14  0.00000000000E+00  0.00000000000E+00  0.91188000000E+02  0.91188000000E+02 0.  0.
    9900012    2    3    3    0    0  0.13493186901E+02 -0.16828287816E+02  0.29841626806E+02  0.54367081299E+02  0.39999993437E+02 0.  0.
         12    1    3    3    0    0 -0.13493186901E+02  0.16828287816E+02 -0.29841626806E+02  0.36820918701E+02  0.00000000000E+00 0. -1.
         11    1    4    4    0    0  0.75051820289E+00  0.50755357458E+01 -0.73168935806E+00  0.51826354548E+01  0.51100000000E-03 0. -1.
        -11    1    4    4    0    0 -0.68662939017E+01  0.91432945355E+00  0.10026455896E+01  0.69990919936E+01  0.51100000000E-03 0.  1.
         12    1    4    4    0    0  0.19608962600E+02 -0.22818153016E+02  0.29570670574E+02  0.42185353851E+02  0.00000000000E+00 0. -1.
</event>
<event>
 8    1  0.2514877E-006  0.9118800E+02  0.7816164E-02  0.1184000E+00
        -11   -1    0    0    0    0  0.00000000000E+00  0.00000000000E+00  0.45593999997E+02  0.45594000000E+02  0.51100000000E-03 0. -1.
         11   -1    0    0    0    0 -0.00000000000E+00 -0.00000000000E+00 -0.45593999997E+02  0.45594000000E+02  0.51100000000E-03 0.  1.
         23    2    1    2    0    0 -0.71054273576E-14 -0.66613381478E-15  0.00000000000E+00  0.91188000000E+02  0.91188000000E+02 0.  0.
    9900012    2    3    3    0    0  0.36602438940E+02 -0.17544039353E+01 -0.36004273696E+01  0.54367088187E+02  0.40000009139E+02 0.  0.
        -12    1    3    3    0    0 -0.36602438940E+02  0.17544039353E+01  0.36004273696E+01  0.36820911813E+02  0.00000000000E+00 0.  1.
         11    1    4    4    0    0  0.17858897963E+02  0.16415666144E+02  0.19275585419E+01  0.24333717627E+02  0.51100000000E-03 0. -1.
        -11    1    4    4    0    0  0.65653094326E+01 -0.12505842271E+01 -0.62832669684E+01  0.91731506535E+01  0.51100000000E-03 0.  1.
         12    1    4    4    0    0  0.12178231545E+02 -0.16919485852E+02  0.75528105693E+00  0.20860219906E+02  0.00000000000E+00 0. -1.
</event>
<event>
 8    1  0.2514877E-006  0.9118800E+02  0.7816164E-02  0.1184000E+00
        -11   -1    0    0    0    0  0.00000000000E+00  0.00000000000E+00  0.45593999997E+02  0.45594000000E+02  0.51100000000E-03 0.  1.
         11   -1    0    0    0    0 -0.00000000000E+00 -0.00000000000E+00 -0.45593999997E+02  0.45594000000E+02  0.51100000000E-03 0. -1.
         23    2    1    2    0    0  0.35527136788E-14  0.00000000000E+00  0.00000000000E+00  0.91188000000E+02  0.91188000000E+02 0.  0.
    9900012    2    3    3    0    0  0.17127136930E+02  0.25215214861E+02 -0.20654733875E+02  0.54367300504E+02  0.40000493157E+02 0.  0.
        -12    1    3    3    0    0 -0.17127136930E+02 -0.25215214861E+02  0.20654733875E+02  0.36820699496E+02  0.00000000000E+00 0.  1.
         11    1    4    4    0    0  0.49735996686E+01  0.36200868267E+01 -0.26067585738E+01  0.66810862006E+01  0.51100000000E-03 0. -1.
        -11    1    4    4    0    0  0.20411431049E+02  0.23792492601E+02 -0.45015404944E+01  0.31669750374E+02  0.51100000000E-03 0.  1.
        -12    1    4    4    0    0 -0.82578937879E+01 -0.21973645665E+01 -0.13546434807E+02  0.16016463930E+02  0.00000000000E+00 0.  1.
</event>
<event>
 8    1  0.2514877E-006  0.9118800E+02  0.7816164E-02  0.1184000E+00
        -11   -1    0    0    0    0  0.00000000000E+00  0.00000000000E+00  0.45593999997E+02  0.45594000000E+02  0.51100000000E-03 0.  1.
         11   -1    0    0    0    0 -0.00000000000E+00 -0.00000000000E+00 -0.45593999997E+02  0.45594000000E+02  0.51100000000E-03 0. -1.
         23    2    1    2    0    0  0.00000000000E+00 -0.17763568394E-14 -0.71054273576E-14  0.91188000000E+02  0.91188000000E+02 0.  0.
    9900012    2    3    3    0    0  0.49830765584E+01  0.14658701951E+02  0.33407652166E+02  0.54367084501E+02  0.40000000738E+02 0.  0.
         12    1    3    3    0    0 -0.49830765584E+01 -0.14658701951E+02 -0.33407652166E+02  0.36820915499E+02  0.00000000000E+00 0. -1.
         11    1    4    4    0    0 -0.39292594544E+01  0.11723978385E+02  0.96029218190E+01  0.15655888885E+02  0.51100000000E-03 0. -1.
        -11    1    4    4    0    0 -0.94780385395E+01  0.51945086351E+01  0.38318120814E+01  0.11467297790E+02  0.51100000000E-03 0.  1.
         12    1    4    4    0    0  0.18390374552E+02 -0.22597850692E+01  0.19972918266E+02  0.27243897827E+02  0.00000000000E+00 0. -1.
</event>
<event>
 8    1  0.2514877E-006  0.9118800E+02  0.7816164E-02  0.1184000E+00
        -11   -1    0    0    0    0  0.00000000000E+00  0.00000000000E+00  0.45593999997E+02  0.45594000000E+02  0.51100000000E-03 0.  1.
         11   -1    0    0    0    0 -0.00000000000E+00 -0.00000000000E+00 -0.45593999997E+02  0.45594000000E+02  0.51100000000E-03 0. -1.
         23    2    1    2    0    0  0.00000000000E+00  0.26645352591E-14  0.00000000000E+00  0.91188000000E+02  0.91188000000E+02 0.  0.
    9900012    2    3    3    0    0  0.32914727686E+02 -0.54103389251E+01  0.15592576562E+02  0.54367088689E+02  0.40000010284E+02 0.  0.
         12    1    3    3    0    0 -0.32914727686E+02  0.54103389251E+01 -0.15592576562E+02  0.36820911311E+02  0.00000000000E+00 0. -1.
         11    1    4    4    0    0  0.13100014701E+02 -0.16778945592E+02  0.54853920584E+01  0.21982559601E+02  0.51100000000E-03 0. -1.
        -11    1    4    4    0    0  0.64055897172E+01  0.23964709892E+01  0.14181142825E+02  0.15744188290E+02  0.51100000000E-03 0.  1.
         12    1    4    4    0    0  0.13409123268E+02  0.89721356775E+01 -0.40739583218E+01  0.16640340797E+02  0.00000000000E+00 0. -1.
</event>
<event>
 8    1  0.2514877E-006  0.9118800E+02  0.7816164E-02  0.1184000E+00
        -11   -1    0    0    0    0  0.00000000000E+00  0.00000000000E+00  0.45593999997E+02  0.45594000000E+02  0.51100000000E-03 0. -1.
         11   -1    0    0    0    0 -0.00000000000E+00 -0.00000000000E+00 -0.45593999997E+02  0.45594000000E+02  0.51100000000E-03 0.  1.
         23    2    1    2    0    0  0.00000000000E+00  0.17763568394E-14  0.00000000000E+00  0.91188000000E+02  0.91188000000E+02 0.  0.
    9900012    2    3    3    0    0 -0.32111543632E+02  0.14523517450E+02  0.10662812948E+02  0.54367090540E+02  0.40000014504E+02 0.  0.
        -12    1    3    3    0    0  0.32111543632E+02 -0.14523517450E+02 -0.10662812948E+02  0.36820909460E+02  0.00000000000E+00 0.  1.
         11    1    4    4    0    0 -0.17475498226E+02  0.21325161119E+02  0.13321454794E+02  0.30620527316E+02  0.51100000000E-03 0. -1.
        -11    1    4    4    0    0 -0.13924854876E+01 -0.44761847901E+01 -0.80049077080E+01  0.92765184085E+01  0.51100000000E-03 0.  1.
         12    1    4    4    0    0 -0.13243559918E+02 -0.23254588790E+01  0.53462658612E+01  0.14470044816E+02  0.00000000000E+00 0. -1.
</event>
<event>
 8    1  0.2514877E-006  0.9118800E+02  0.7816164E-02  0.1184000E+00
        -11   -1    0    0    0    0  0.00000000000E+00  0.00000000000E+00  0.45593999997E+02  0.45594000000E+02  0.51100000000E-03 0.  1.
         11   -1    0    0    0    0 -0.00000000000E+00 -0.00000000000E+00 -0.45593999997E+02  0.45594000000E+02  0.51100000000E-03 0. -1.
         23    2    1    2    0    0  0.00000000000E+00 -0.17763568394E-14 -0.35527136788E-14  0.91188000000E+02  0.91188000000E+02 0.  0.
    9900012    2    3    3    0    0 -0.20034468432E+02 -0.11120562280E+02 -0.28822414661E+02  0.54367103519E+02  0.40000044092E+02 0.  0.
        -12    1    3    3    0    0  0.20034468432E+02  0.11120562280E+02  0.28822414661E+02  0.36820896481E+02  0.00000000000E+00 0.  1.
         11    1    4    4    0    0 -0.22350341801E+02 -0.40005175754E+01 -0.22921460948E+02  0.32263528818E+02  0.51100000000E-03 0. -1.
        -11    1    4    4    0    0  0.29444550634E+01  0.42922431906E+01 -0.88791477832E+01  0.10292348267E+02  0.51100000000E-03 0.  1.
        -12    1    4    4    0    0 -0.62858169372E+00 -0.11412287896E+02  0.29781940704E+01  0.11811226434E+02  0.00000000000E+00 0.  1.
</event>
<event>
 8    1  0.2514877E-006  0.9118800E+02  0.7816164E-02  0.1184000E+00
        -11   -1    0    0    0    0  0.00000000000E+00  0.00000000000E+00  0.45593999997E+02  0.45594000000E+02  0.51100000000E-03 0.  1.
         11   -1    0    0    0    0 -0.00000000000E+00 -0.00000000000E+00 -0.45593999997E+02  0.45594000000E+02  0.51100000000E-03 0. -1.
         23    2    1    2    0    0  0.00000000000E+00  0.00000000000E+00  0.35527136788E-14  0.91188000000E+02  0.91188000000E+02 0.  0.
    9900012    2    3    3    0    0  0.29275037456E+02  0.61549367762E+01 -0.21467858127E+02  0.54367082068E+02  0.39999995192E+02 0.  0.
        -12    1    3    3    0    0 -0.29275037456E+02 -0.61549367762E+01  0.21467858127E+02  0.36820917932E+02  0.00000000000E+00 0.  1.
         11    1    4    4    0    0  0.18658632516E+02 -0.58727165771E+01 -0.22081913855E+02  0.29499903172E+02  0.51100000000E-03 0. -1.
        -11    1    4    4    0    0  0.11321551465E+02  0.11221709472E+02  0.76984733146E+01  0.17702281849E+02  0.51100000000E-03 0.  1.
        -12    1    4    4    0    0 -0.70514652521E+00  0.80594388171E+00 -0.70844175863E+01  0.71648970474E+01  0.00000000000E+00 0.  1.
</event>
<event>
 8    1  0.2514877E-006  0.9118800E+02  0.7816164E-02  0.1184000E+00
        -11   -1    0    0    0    0  0.00000000000E+00  0.00000000000E+00  0.45593999997E+02  0.45594000000E+02  0.51100000000E-03 0. -1.
         11   -1    0    0    0    0 -0.00000000000E+00 -0.00000000000E+00 -0.45593999997E+02  0.45594000000E+02  0.51100000000E-03 0.  1.
         23    2    1    2    0    0  0.00000000000E+00  0.00000000000E+00 -0.35527136788E-14  0.91188000000E+02  0.91188000000E+02 0.  0.
    9900012    2    3    3    0    0  0.18246000254E+02  0.12321000727E+02 -0.29513658539E+02  0.54367087130E+02  0.40000006731E+02 0.  0.
         12    1    3    3    0    0 -0.18246000254E+02 -0.12321000727E+02  0.29513658539E+02  0.36820912870E+02  0.00000000000E+00 0. -1.
         11    1    4    4    0    0 -0.90206479003E+01  0.65849069904E+01 -0.15238969078E+01  0.11271883191E+02  0.51100000000E-03 0. -1.
        -11    1    4    4    0    0  0.14778938806E+02  0.11750067843E+02 -0.15267919400E+02  0.24281484502E+02  0.51100000000E-03 0.  1.
         12    1    4    4    0    0  0.12487709348E+02 -0.60139741067E+01 -0.12721842232E+02  0.18813719438E+02  0.00000000000E+00 0. -1.
</event>
<event>
 8    1  0.2514877E-006  0.9118800E+02  0.7816164E-02  0.1184000E+00
        -11   -1    0    0    0    0  0.00000000000E+00  0.00000000000E+00  0.45593999997E+02  0.45594000000E+02  0.51100000000E-03 0.  1.
         11   -1    0    0    0    0 -0.00000000000E+00 -0.00000000000E+00 -0.45593999997E+02  0.45594000000E+02  0.51100000000E-03 0. -1.
         23    2    1    2    0    0  0.13322676296E-14  0.00000000000E+00  0.00000000000E+00  0.91188000000E+02  0.91188000000E+02 0.  0.
    9900012    2    3    3    0    0 -0.23352815119E+01 -0.16770660627E+02  0.32696653501E+02  0.54367085458E+02  0.40000002918E+02 0.  0.
         12    1    3    3    0    0  0.23352815119E+01  0.16770660627E+02 -0.32696653501E+02  0.36820914542E+02  0.00000000000E+00 0. -1.
         11    1    4    4    0    0  0.63861081359E+01 -0.21336853892E+01 -0.46959267774E+01  0.82089414070E+01  0.51100000000E-03 0. -1.
        -11    1    4    4    0    0 -0.12201643354E+02 -0.18113605158E+02  0.27566905916E+02  0.35169832164E+02  0.51100000000E-03 0.  1.
        -12    1    4    4    0    0  0.34802537066E+01  0.34766299204E+01  0.98256743618E+01  0.10988311887E+02  0.00000000000E+00 0.  1.
</event>
<event>
 8    1  0.2514877E-006  0.9118800E+02  0.7816164E-02  0.1184000E+00
        -11   -1    0    0    0    0  0.00000000000E+00  0.00000000000E+00  0.45593999997E+02  0.45594000000E+02  0.51100000000E-03 0.  1.
         11   -1    0    0    0    0 -0.00000000000E+00 -0.00000000000E+00 -0.45593999997E+02  0.45594000000E+02  0.51100000000E-03 0. -1.
         23    2    1    2    0    0  0.00000000000E+00 -0.35527136788E-14 -0.35527136788E-14  0.91188000000E+02  0.91188000000E+02 0.  0.
    9900012    2    3    3    0    0 -0.16689188741E+01 -0.18860346809E+02  0.31579787971E+02  0.54367068721E+02  0.39999964764E+02 0.  0.
         12    1    3    3    0    0  0.16689188741E+01  0.18860346809E+02 -0.31579787971E+02  0.36820931279E+02  0.00000000000E+00 0. -1.
         11    1    4    4    0    0  0.11247103578E+02  0.44615499438E+01  0.14083284439E+01  0.12181385638E+02  0.51100000000E-03 0. -1.
        -11    1    4    4    0    0 -0.15229064824E+01 -0.44821279904E+01 -0.12349215021E+00  0.47353950256E+01  0.51100000000E-03 0.  1.
        -12    1    4    4    0    0 -0.11393115969E+02 -0.18839768762E+02  0.30294951677E+02  0.37450288058E+02  0.00000000000E+00 0.  1.
</event>
<event>
 8    1  0.2514877E-006  0.9118800E+02  0.7816164E-02  0.1184000E+00
        -11   -1    0    0    0    0  0.00000000000E+00  0.00000000000E+00  0.45593999997E+02  0.45594000000E+02  0.51100000000E-03 0.  1.
         11   -1    0    0    0    0 -0.00000000000E+00 -0.00000000000E+00 -0.45593999997E+02  0.45594000000E+02  0.51100000000E-03 0. -1.
         23    2    1    2    0    0 -0.17763568394E-14 -0.17763568394E-14  0.71054273576E-14  0.91188000000E+02  0.91188000000E+02 0.  0.
    9900012    2    3    3    0    0 -0.14538242441E+02 -0.10010470843E+02  0.32314242587E+02  0.54367078043E+02  0.39999986016E+02 0.  0.
         12    1    3    3    0    0  0.14538242441E+02  0.10010470843E+02 -0.32314242587E+02  0.36820921957E+02  0.00000000000E+00 0. -1.
         11    1    4    4    0    0 -0.60560301398E+01 -0.10993930868E+02  0.26357109490E+01  0.12825326095E+02  0.51100000000E-03 0. -1.
        -11    1    4    4    0    0 -0.12615952462E+02 -0.17605491796E+01  0.13813470949E+01  0.12812880629E+02  0.51100000000E-03 0.  1.
        -12    1    4    4    0    0  0.41337401608E+01  0.27440092048E+01  0.28297184543E+02  0.28728871319E+02  0.00000000000E+00 0.  1.
</event>
<event>
 8    1  0.2514877E-006  0.9118800E+02  0.7816164E-02  0.1184000E+00
        -11   -1    0    0    0    0  0.00000000000E+00  0.00000000000E+00  0.45593999997E+02  0.45594000000E+02  0.51100000000E-03 0. -1.
         11   -1    0    0    0    0 -0.00000000000E+00 -0.00000000000E+00 -0.45593999997E+02  0.45594000000E+02  0.51100000000E-03 0.  1.
         23    2    1    2    0    0  0.00000000000E+00  0.71054273576E-14  0.35527136788E-14  0.91188000000E+02  0.91188000000E+02 0.  0.
    9900012    2    3    3    0    0  0.57089708457E+01  0.28867264962E+02  0.22132947478E+02  0.54367099704E+02  0.40000035395E+02 0.  0.
        -12    1    3    3    0    0 -0.57089708457E+01 -0.28867264962E+02 -0.22132947478E+02  0.36820900296E+02  0.00000000000E+00 0.  1.
         11    1    4    4    0    0  0.13392167375E+02  0.22357072128E+02  0.11649743660E+02  0.28546547054E+02  0.51100000000E-03 0. -1.
        -11    1    4    4    0    0  0.32082712223E+01 -0.61169271768E+01  0.34789217907E+01  0.77338670411E+01  0.51100000000E-03 0.  1.
        -12    1    4    4    0    0 -0.10891467752E+02  0.12627120011E+02  0.70042820278E+01  0.18086685608E+02  0.00000000000E+00 0.  1.
</event>
<event>
 8    1  0.2514877E-006  0.9118800E+02  0.7816164E-02  0.1184000E+00
        -11   -1    0    0    0    0  0.00000000000E+00  0.00000000000E+00  0.45593999997E+02  0.45594000000E+02  0.51100000000E-03 0.  1.
         11   -1    0    0    0    0 -0.00000000000E+00 -0.00000000000E+00 -0.45593999997E+02  0.45594000000E+02  0.51100000000E-03 0. -1.
         23    2    1    2    0    0  0.00000000000E+00  0.00000000000E+00  0.35527136788E-14  0.91188000000E+02  0.91188000000E+02 0.  0.
    9900012    2    3    3    0    0  0.20197530394E+02 -0.91806256592E+01  0.29386341531E+02  0.54367065872E+02  0.39999958267E+02 0.  0.
         12    1    3    3    0    0 -0.20197530394E+02  0.91806256592E+01 -0.29386341531E+02  0.36820934128E+02  0.00000000000E+00 0. -1.
         11    1    4    4    0    0  0.72916397399E+01 -0.40091844926E+01 -0.50676110474E+01  0.97428051598E+01  0.51100000000E-03 0. -1.
        -11    1    4    4    0    0 -0.16823710049E+01 -0.96891449162E+00  0.28099529494E+02  0.28166517810E+02  0.51100000000E-03 0.  1.
         12    1    4    4    0    0  0.14588261659E+02 -0.42025266749E+01  0.63544230843E+01  0.16457742901E+02  0.00000000000E+00 0. -1.
</event>
<event>
 8    1  0.2514877E-006  0.9118800E+02  0.7816164E-02  0.1184000E+00
        -11   -1    0    0    0    0  0.00000000000E+00  0.00000000000E+00  0.45593999997E+02  0.45594000000E+02  0.51100000000E-03 0.  1.
         11   -1    0    0    0    0 -0.00000000000E+00 -0.00000000000E+00 -0.45593999997E+02  0.45594000000E+02  0.51100000000E-03 0. -1.
         23    2    1    2    0    0  0.00000000000E+00  0.17763568394E-14  0.00000000000E+00  0.91188000000E+02  0.91188000000E+02 0.  0.
    9900012    2    3    3    0    0 -0.31306510383E+02  0.12885791109E+02 -0.14478894331E+02  0.54367087655E+02  0.40000007926E+02 0.  0.
         12    1    3    3    0    0  0.31306510383E+02 -0.12885791109E+02  0.14478894331E+02  0.36820912345E+02  0.00000000000E+00 0. -1.
         11    1    4    4    0    0 -0.86791700654E+01  0.21087849925E+02 -0.53643932472E+01  0.23426526048E+02  0.51100000000E-03 0. -1.
        -11    1    4    4    0    0 -0.18396580964E+02 -0.10222534780E+01 -0.12151068960E+02  0.22070968952E+02  0.51100000000E-03 0.  1.
        -12    1    4    4    0    0 -0.42307593544E+01 -0.71798053376E+01  0.30365678767E+01  0.88695926553E+01  0.00000000000E+00 0.  1.
</event>
<event>
 8    1  0.2514877E-006  0.9118800E+02  0.7816164E-02  0.1184000E+00
        -11   -1    0    0    0    0  0.00000000000E+00  0.00000000000E+00  0.45593999997E+02  0.45594000000E+02  0.51100000000E-03 0.  1.
         11   -1    0    0    0    0 -0.00000000000E+00 -0.00000000000E+00 -0.45593999997E+02  0.45594000000E+02  0.51100000000E-03 0. -1.
         23    2    1    2    0    0  0.00000000000E+00  0.00000000000E+00  0.35527136788E-14  0.91188000000E+02  0.91188000000E+02 0.  0.
    9900012    2    3    3    0    0  0.10615285901E+02 -0.22801638341E+02  0.26892002907E+02  0.54367097973E+02  0.40000031448E+02 0.  0.
         12    1    3    3    0    0 -0.10615285901E+02  0.22801638341E+02 -0.26892002907E+02  0.36820902027E+02  0.00000000000E+00 0. -1.
         11    1    4    4    0    0  0.20009478912E+02 -0.16782461705E+02  0.12534931666E+01  0.26145774278E+02  0.51100000000E-03 0. -1.
        -11    1    4    4    0    0 -0.25995962659E+01 -0.22341232760E+01  0.42342866553E+01  0.54477877435E+01  0.51100000000E-03 0.  1.
         12    1    4    4    0    0 -0.67945967447E+01 -0.37850533594E+01  0.21404223085E+02  0.22773535951E+02  0.00000000000E+00 0. -1.
</event>
<event>
 8    1  0.2514877E-006  0.9118800E+02  0.7816164E-02  0.1184000E+00
        -11   -1    0    0    0    0  0.00000000000E+00  0.00000000000E+00  0.45593999997E+02  0.45594000000E+02  0.51100000000E-03 0.  1.
         11   -1    0    0    0    0 -0.00000000000E+00 -0.00000000000E+00 -0.45593999997E+02  0.45594000000E+02  0.51100000000E-03 0. -1.
         23    2    1    2    0    0  0.00000000000E+00  0.35527136788E-14  0.00000000000E+00  0.91188000000E+02  0.91188000000E+02 0.  0.
    9900012    2    3    3    0    0  0.22929630491E+02 -0.26545634271E+02 -0.11195507834E+02  0.54367108525E+02  0.40000055505E+02 0.  0.
        -12    1    3    3    0    0 -0.22929630491E+02  0.26545634271E+02  0.11195507834E+02  0.36820891475E+02  0.00000000000E+00 0.  1.
         11    1    4    4    0    0  0.57328117733E+01  0.18360014000E+01 -0.71915532151E+01  0.93784044419E+01  0.51100000000E-03 0. -1.
        -11    1    4    4    0    0 -0.67947996580E+00 -0.26772858366E+02 -0.37143349359E+01  0.27037823921E+02  0.51100000000E-03 0.  1.
        -12    1    4    4    0    0  0.17876298683E+02 -0.16087773051E+01 -0.28961968323E+00  0.17950880162E+02  0.00000000000E+00 0.  1.
</event>
<event>
 8    1  0.2514877E-006  0.9118800E+02  0.7816164E-02  0.1184000E+00
        -11   -1    0    0    0    0  0.00000000000E+00  0.00000000000E+00  0.45593999997E+02  0.45594000000E+02  0.51100000000E-03 0. -1.
         11   -1    0    0    0    0 -0.00000000000E+00 -0.00000000000E+00 -0.45593999997E+02  0.45594000000E+02  0.51100000000E-03 0.  1.
         23    2    1    2    0    0  0.11102230246E-15  0.00000000000E+00  0.00000000000E+00  0.91188000000E+02  0.91188000000E+02 0.  0.
    9900012    2    3    3    0    0  0.74634807021E+00  0.34358336210E+02  0.13218430802E+02  0.54367092686E+02  0.40000019396E+02 0.  0.
         12    1    3    3    0    0 -0.74634807021E+00 -0.34358336210E+02 -0.13218430802E+02  0.36820907314E+02  0.00000000000E+00 0. -1.
         11    1    4    4    0    0  0.75253739393E+01  0.14496704381E+02  0.12947907995E+02  0.20843080688E+02  0.51100000000E-03 0. -1.
        -11    1    4    4    0    0 -0.16216512419E+02  0.10655336249E+02 -0.37030087187E+01  0.19754081589E+02  0.51100000000E-03 0.  1.
        -12    1    4    4    0    0  0.94374865497E+01  0.92062955799E+01  0.39735315258E+01  0.13769930409E+02  0.00000000000E+00 0.  1.
</event>
<event>
 8    1  0.2514877E-006  0.9118800E+02  0.7816164E-02  0.1184000E+00
        -11   -1    0    0    0    0  0.00000000000E+00  0.00000000000E+00  0.45593999997E+02  0.45594000000E+02  0.51100000000E-03 0. -1.
         11   -1    0    0    0    0 -0.00000000000E+00 -0.00000000000E+00 -0.45593999997E+02  0.45594000000E+02  0.51100000000E-03 0.  1.
         23    2    1    2    0    0  0.00000000000E+00  0.00000000000E+00 -0.35527136788E-14  0.91188000000E+02  0.91188000000E+02 0.  0.
    9900012    2    3    3    0    0  0.11662045832E+02 -0.32516650231E+02 -0.12745343804E+02  0.54367086868E+02  0.40000006132E+02 0.  0.
         12    1    3    3    0    0 -0.11662045832E+02  0.32516650231E+02  0.12745343804E+02  0.36820913132E+02  0.00000000000E+00 0. -1.
         11    1    4    4    0    0  0.15036209603E+01  0.46275911257E+01 -0.49813196333E+01  0.69634058599E+01  0.51100000000E-03 0. -1.
        -11    1    4    4    0    0  0.98675069922E+01 -0.57612462902E+01  0.62598108546E+01  0.13028617933E+02  0.51100000000E-03 0.  1.
        -12    1    4    4    0    0  0.29091787911E+00 -0.31382995067E+02 -0.14023835025E+02  0.34375063074E+02  0.00000000000E+00 0.  1.
</event>
<event>
 8    1  0.2514877E-006  0.9118800E+02  0.7816164E-02  0.1184000E+00
        -11   -1    0    0    0    0  0.00000000000E+00  0.00000000000E+00  0.45593999997E+02  0.45594000000E+02  0.51100000000E-03 0.  1.
         11   -1    0    0    0    0 -0.00000000000E+00 -0.00000000000E+00 -0.45593999997E+02  0.45594000000E+02  0.51100000000E-03 0. -1.
         23    2    1    2    0    0  0.00000000000E+00  0.17763568394E-14  0.00000000000E+00  0.91188000000E+02  0.91188000000E+02 0.  0.
    9900012    2    3    3    0    0 -0.24635249759E+02  0.12676023554E+02 -0.24252862477E+02  0.54367103187E+02  0.40000043335E+02 0.  0.
        -12    1    3    3    0    0  0.24635249759E+02 -0.12676023554E+02  0.24252862477E+02  0.36820896813E+02  0.00000000000E+00 0.  1.
         11    1    4    4    0    0 -0.11499697060E+02 -0.79788748252E+01 -0.19373258678E+02  0.23900389704E+02  0.51100000000E-03 0. -1.
        -11    1    4    4    0    0 -0.47407705016E+01  0.11912593596E+02  0.60219516692E+01  0.14165051829E+02  0.51100000000E-03 0.  1.
        -12    1    4    4    0    0 -0.83947821970E+01  0.87423047832E+01 -0.10901555468E+02  0.16301661654E+02  0.00000000000E+00 0.  1.
</event>
<event>
 8    1  0.2514877E-006  0.9118800E+02  0.7816164E-02  0.1184000E+00
        -11   -1    0    0    0    0  0.00000000000E+00  0.00000000000E+00  0.45593999997E+02  0.45594000000E+02  0.51100000000E-03 0. -1.
         11   -1    0    0    0    0 -0.00000000000E+00 -0.00000000000E+00 -0.45593999997E+02  0.45594000000E+02  0.51100000000E-03 0.  1.
         23    2    1    2    0    0  0.00000000000E+00  0.00000000000E+00 -0.35527136788E-14  0.91188000000E+02  0.91188000000E+02 0.  0.
    9900012    2    3    3    0    0 -0.45668669611E+01  0.26724773155E+02 -0.24914067229E+02  0.54367074972E+02  0.39999979015E+02 0.  0.
         12    1    3    3    0    0  0.45668669611E+01 -0.26724773155E+02  0.24914067229E+02  0.36820925028E+02  0.00000000000E+00 0. -1.
         11    1    4    4    0    0 -0.13943643386E+01 -0.41352371546E+01  0.55351477195E+01  0.70485671431E+01  0.51100000000E-03 0. -1.
        -11    1    4    4    0    0  0.14326410938E+01  0.18820634921E+02 -0.62194216455E+01  0.19873348113E+02  0.51100000000E-03 0.  1.
         12    1    4    4    0    0 -0.46051437163E+01  0.12039375388E+02 -0.24229793303E+02  0.27445159717E+02  0.00000000000E+00 0. -1.
</event>
<event>
 8    1  0.2514877E-006  0.9118800E+02  0.7816164E-02  0.1184000E+00
        -11   -1    0    0    0    0  0.00000000000E+00  0.00000000000E+00  0.45593999997E+02  0.45594000000E+02  0.51100000000E-03 0.  1.
         11   -1    0    0    0    0 -0.00000000000E+00 -0.00000000000E+00 -0.45593999997E+02  0.45594000000E+02  0.51100000000E-03 0. -1.
         23    2    1    2    0    0 -0.35527136788E-14  0.00000000000E+00 -0.17763568394E-14  0.91188000000E+02  0.91188000000E+02 0.  0.
    9900012    2    3    3    0    0  0.26834787044E+02 -0.21660986315E+02 -0.12902474247E+02  0.54367109659E+02  0.40000058089E+02 0.  0.
        -12    1    3    3    0    0 -0.26834787044E+02  0.21660986315E+02  0.12902474247E+02  0.36820890341E+02  0.00000000000E+00 0.  1.
         11    1    4    4    0    0 -0.68018746034E+01 -0.68245707562E-01 -0.17734727751E+01  0.70296060731E+01  0.51100000000E-03 0. -1.
        -11    1    4    4    0    0  0.25047423575E+02 -0.13287108106E+02 -0.17971010830E+02  0.33569002072E+02  0.51100000000E-03 0.  1.
         12    1    4    4    0    0  0.85892380718E+01 -0.83056325008E+01  0.68420093574E+01  0.13768501514E+02  0.00000000000E+00 0. -1.
</event>
<event>
 8    1  0.2514877E-006  0.9118800E+02  0.7816164E-02  0.1184000E+00
        -11   -1    0    0    0    0  0.00000000000E+00  0.00000000000E+00  0.45593999997E+02  0.45594000000E+02  0.51100000000E-03 0.  1.
         11   -1    0    0    0    0 -0.00000000000E+00 -0.00000000000E+00 -0.45593999997E+02  0.45594000000E+02  0.51100000000E-03 0. -1.
         23    2    1    2    0    0  0.00000000000E+00  0.00000000000E+00  0.00000000000E+00  0.91188000000E+02  0.91188000000E+02 0.  0.
    9900012    2    3    3    0    0 -0.43741968314E+01  0.88279797081E+01  0.35478348619E+02  0.54367081429E+02  0.39999993735E+02 0.  0.
         12    1    3    3    0    0  0.43741968314E+01 -0.88279797081E+01 -0.35478348619E+02  0.36820918571E+02  0.00000000000E+00 0. -1.
         11    1    4    4    0    0  0.86443938500E+01  0.18060043127E+02  0.79847258935E+01  0.21555661684E+02  0.51100000000E-03 0. -1.
        -11    1    4    4    0    0 -0.74945660411E+01 -0.25937705634E+01  0.19470108808E+02  0.21023351378E+02  0.51100000000E-03 0.  1.
         12    1    4    4    0    0 -0.55240246402E+01 -0.66382928554E+01  0.80235139172E+01  0.11788068368E+02  0.00000000000E+00 0. -1.
</event>
<event>
 8    1  0.2514877E-006  0.9118800E+02  0.7816164E-02  0.1184000E+00
        -11   -1    0    0    0    0  0.00000000000E+00  0.00000000000E+00  0.45593999997E+02  0.45594000000E+02  0.51100000000E-03 0. -1.
         11   -1    0    0    0    0 -0.00000000000E+00 -0.00000000000E+00 -0.45593999997E+02  0.45594000000E+02  0.51100000000E-03 0.  1.
         23    2    1    2    0    0 -0.71054273576E-14 -0.17763568394E-14  0.17763568394E-14  0.91188000000E+02  0.91188000000E+02 0.  0.
    9900012    2    3    3    0    0  0.32851585330E+02  0.10006719357E+02 -0.13282231991E+02  0.54367098630E+02  0.40000032947E+02 0.  0.
        -12    1    3    3    0    0 -0.32851585330E+02 -0.10006719357E+02  0.13282231991E+02  0.36820901370E+02  0.00000000000E+00 0.  1.
         11    1    4    4    0    0  0.16222217581E+02  0.13468704437E+02  0.31657535795E+01  0.21321077328E+02  0.51100000000E-03 0. -1.
        -11    1    4    4    0    0 -0.48716159759E+01  0.33202344954E+01 -0.51507966818E+01  0.78286209538E+01  0.51100000000E-03 0.  1.
         12    1    4    4    0    0  0.21500983726E+02 -0.67822195746E+01 -0.11297188889E+02  0.25217400348E+02  0.00000000000E+00 0. -1.
</event>
<event>
 8    1  0.2514877E-006  0.9118800E+02  0.7816164E-02  0.1184000E+00
        -11   -1    0    0    0    0  0.00000000000E+00  0.00000000000E+00  0.45593999997E+02  0.45594000000E+02  0.51100000000E-03 0.  1.
         11   -1    0    0    0    0 -0.00000000000E+00 -0.00000000000E+00 -0.45593999997E+02  0.45594000000E+02  0.51100000000E-03 0. -1.
         23    2    1    2    0    0  0.00000000000E+00  0.35527136788E-14 -0.35527136788E-14  0.91188000000E+02  0.91188000000E+02 0.  0.
    9900012    2    3    3    0    0 -0.17413721831E+02 -0.21279006624E+02 -0.24489713692E+02  0.54367083286E+02  0.39999997968E+02 0.  0.
        -12    1    3    3    0    0  0.17413721831E+02  0.21279006624E+02  0.24489713692E+02  0.36820916714E+02  0.00000000000E+00 0.  1.
         11    1    4    4    0    0 -0.16146088460E+01 -0.16789161234E+02 -0.18669209652E+02  0.25159934141E+02  0.51100000000E-03 0. -1.
        -11    1    4    4    0    0  0.70902792778E+00  0.56900185969E+01 -0.78341016972E+01  0.97083562923E+01  0.51100000000E-03 0.  1.
        -12    1    4    4    0    0 -0.16508140913E+02 -0.10179863987E+02  0.20135976579E+01  0.19498792853E+02  0.00000000000E+00 0.  1.
</event>
<event>
 8    1  0.2514877E-006  0.9118800E+02  0.7816164E-02  0.1184000E+00
        -11   -1    0    0    0    0  0.00000000000E+00  0.00000000000E+00  0.45593999997E+02  0.45594000000E+02  0.51100000000E-03 0.  1.
         11   -1    0    0    0    0 -0.00000000000E+00 -0.00000000000E+00 -0.45593999997E+02  0.45594000000E+02  0.51100000000E-03 0. -1.
         23    2    1    2    0    0  0.00000000000E+00 -0.44408920985E-15  0.00000000000E+00  0.91188000000E+02  0.91188000000E+02 0.  0.
    9900012    2    3    3    0    0  0.55412122324E+01 -0.38324080655E+01  0.36199261565E+02  0.54367096665E+02  0.40000028466E+02 0.  0.
         12    1    3    3    0    0 -0.55412122324E+01  0.38324080655E+01 -0.36199261565E+02  0.36820903335E+02  0.00000000000E+00 0. -1.
         11    1    4    4    0    0  0.16606838349E+01 -0.32828277559E+00  0.20070409936E+02  0.20141673110E+02  0.51100000000E-03 0. -1.
        -11    1    4    4    0    0  0.58583411264E+01 -0.38875411530E+01  0.24565354823E+02  0.25551708257E+02  0.51100000000E-03 0.  1.
         12    1    4    4    0    0 -0.19778127289E+01  0.38341586312E+00 -0.84365031951E+01  0.86737152982E+01  0.00000000000E+00 0. -1.
</event>
<event>
 8    1  0.2514877E-006  0.9118800E+02  0.7816164E-02  0.1184000E+00
        -11   -1    0    0    0    0  0.00000000000E+00  0.00000000000E+00  0.45593999997E+02  0.45594000000E+02  0.51100000000E-03 0.  1.
         11   -1    0    0    0    0 -0.00000000000E+00 -0.00000000000E+00 -0.45593999997E+02  0.45594000000E+02  0.51100000000E-03 0. -1.
         23    2    1    2    0    0 -0.71054273576E-14  0.17763568394E-14  0.17763568394E-14  0.91188000000E+02  0.91188000000E+02 0.  0.
    9900012    2    3    3    0    0  0.32902217614E+02 -0.14620895457E+02 -0.77115469181E+01  0.54366885626E+02  0.39999547360E+02 0.  0.
        -12    1    3    3    0    0 -0.32902217614E+02  0.14620895457E+02  0.77115469181E+01  0.36821114374E+02  0.00000000000E+00 0.  1.
         11    1    4    4    0    0  0.27367393107E+01 -0.16582802578E+02 -0.12998124662E+02  0.21246889852E+02  0.51100000000E-03 0. -1.
        -11    1    4    4    0    0  0.10013393228E+02 -0.31785527642E+01 -0.26912037712E+01  0.10844990531E+02  0.51100000000E-03 0.  1.
        -12    1    4    4    0    0  0.20152085075E+02  0.51404598858E+01  0.79777815149E+01  0.22275005243E+02  0.00000000000E+00 0.  1.
</event>
<event>
 8    1  0.2514877E-006  0.9118800E+02  0.7816164E-02  0.1184000E+00
        -11   -1    0    0    0    0  0.00000000000E+00  0.00000000000E+00  0.45593999997E+02  0.45594000000E+02  0.51100000000E-03 0. -1.
         11   -1    0    0    0    0 -0.00000000000E+00 -0.00000000000E+00 -0.45593999997E+02  0.45594000000E+02  0.51100000000E-03 0.  1.
         23    2    1    2    0    0  0.00000000000E+00  0.00000000000E+00 -0.35527136788E-14  0.91188000000E+02  0.91188000000E+02 0.  0.
    9900012    2    3    3    0    0 -0.15403594209E+02 -0.16862481020E+02 -0.28882019340E+02  0.54367013840E+02  0.39999839650E+02 0.  0.
         12    1    3    3    0    0  0.15403594209E+02  0.16862481020E+02  0.28882019340E+02  0.36820986160E+02  0.00000000000E+00 0. -1.
         11    1    4    4    0    0  0.59281341116E+01  0.54063834062E+01 -0.35455392904E+01  0.87716933770E+01  0.51100000000E-03 0. -1.
        -11    1    4    4    0    0 -0.20409381056E+02 -0.59904285930E+01 -0.17301567612E+02  0.27418466622E+02  0.51100000000E-03 0.  1.
         12    1    4    4    0    0 -0.92234726421E+00 -0.16278435833E+02 -0.80349124370E+01  0.18176853840E+02  0.00000000000E+00 0. -1.
</event>
<event>
 8    1  0.2514877E-006  0.9118800E+02  0.7816164E-02  0.1184000E+00
        -11   -1    0    0    0    0  0.00000000000E+00  0.00000000000E+00  0.45593999997E+02  0.45594000000E+02  0.51100000000E-03 0. -1.
         11   -1    0    0    0    0 -0.00000000000E+00 -0.00000000000E+00 -0.45593999997E+02  0.45594000000E+02  0.51100000000E-03 0.  1.
         23    2    1    2    0    0 -0.71054273576E-14  0.17763568394E-14 -0.17763568394E-14  0.91188000000E+02  0.91188000000E+02 0.  0.
    9900012    2    3    3    0    0  0.33868972133E+02  0.62060875874E+01 -0.13044534502E+02  0.54367045682E+02  0.39999912242E+02 0.  0.
         12    1    3    3    0    0 -0.33868972133E+02 -0.62060875874E+01  0.13044534502E+02  0.36820954318E+02  0.00000000000E+00 0. -1.
         11    1    4    4    0    0 -0.26019632880E+01  0.48633666984E+01 -0.55217166645E+01  0.78046078555E+01  0.51100000000E-03 0. -1.
        -11    1    4    4    0    0  0.23994904370E+01 -0.97335178756E+01 -0.38886681809E+00  0.10032454448E+02  0.51100000000E-03 0.  1.
        -12    1    4    4    0    0  0.34071444984E+02  0.11076238765E+02 -0.71339510195E+01  0.36529983378E+02  0.00000000000E+00 0.  1.
</event>
<event>
 8    1  0.2514877E-006  0.9118800E+02  0.7816164E-02  0.1184000E+00
        -11   -1    0    0    0    0  0.00000000000E+00  0.00000000000E+00  0.45593999997E+02  0.45594000000E+02  0.51100000000E-03 0. -1.
         11   -1    0    0    0    0 -0.00000000000E+00 -0.00000000000E+00 -0.45593999997E+02  0.45594000000E+02  0.51100000000E-03 0.  1.
         23    2    1    2    0    0  0.00000000000E+00 -0.35527136788E-14  0.17763568394E-14  0.91188000000E+02  0.91188000000E+02 0.  0.
    9900012    2    3    3    0    0  0.30484335020E+02 -0.18498865500E+02 -0.91800972392E+01  0.54367124240E+02  0.40000091329E+02 0.  0.
         12    1    3    3    0    0 -0.30484335020E+02  0.18498865500E+02  0.91800972392E+01  0.36820875760E+02  0.00000000000E+00 0. -1.
         11    1    4    4    0    0  0.21713272291E+02 -0.72933495032E+01  0.82489854902E+01  0.24345531467E+02  0.51100000000E-03 0. -1.
        -11    1    4    4    0    0  0.46166260587E+01  0.13831997544E+01  0.29937595657E+01  0.56735416034E+01  0.51100000000E-03 0.  1.
        -12    1    4    4    0    0  0.41544366709E+01 -0.12588715751E+02 -0.20422842295E+02  0.24348051169E+02  0.00000000000E+00 0.  1.
</event>
<event>
 8    1  0.2514877E-006  0.9118800E+02  0.7816164E-02  0.1184000E+00
        -11   -1    0    0    0    0  0.00000000000E+00  0.00000000000E+00  0.45593999997E+02  0.45594000000E+02  0.51100000000E-03 0.  1.
         11   -1    0    0    0    0 -0.00000000000E+00 -0.00000000000E+00 -0.45593999997E+02  0.45594000000E+02  0.51100000000E-03 0. -1.
         23    2    1    2    0    0  0.35527136788E-14 -0.35527136788E-14  0.00000000000E+00  0.91188000000E+02  0.91188000000E+02 0.  0.
    9900012    2    3    3    0    0 -0.23802567875E+02  0.22818550820E+02 -0.16386894439E+02  0.54367098214E+02  0.40000031999E+02 0.  0.
        -12    1    3    3    0    0  0.23802567875E+02 -0.22818550820E+02  0.16386894439E+02  0.36820901786E+02  0.00000000000E+00 0.  1.
         11    1    4    4    0    0 -0.24456912705E+02  0.78121281757E+01 -0.42916153191E+01  0.26030518396E+02  0.51100000000E-03 0. -1.
        -11    1    4    4    0    0 -0.15905514006E+01  0.20626647652E+01  0.56711673339E+01  0.62407194202E+01  0.51100000000E-03 0.  1.
        -12    1    4    4    0    0  0.22448962305E+01  0.12943757880E+02 -0.17766446453E+02  0.22095860398E+02  0.00000000000E+00 0.  1.
</event>
<event>
 8    1  0.2514877E-006  0.9118800E+02  0.7816164E-02  0.1184000E+00
        -11   -1    0    0    0    0  0.00000000000E+00  0.00000000000E+00  0.45593999997E+02  0.45594000000E+02  0.51100000000E-03 0.  1.
         11   -1    0    0    0    0 -0.00000000000E+00 -0.00000000000E+00 -0.45593999997E+02  0.45594000000E+02  0.51100000000E-03 0. -1.
         23    2    1    2    0    0  0.00000000000E+00  0.00000000000E+00 -0.71054273576E-14  0.91188000000E+02  0.91188000000E+02 0.  0.
    9900012    2    3    3    0    0  0.13956966619E+02  0.53321017423E+01 -0.33653407826E+02  0.54367080885E+02  0.39999992493E+02 0.  0.
        -12    1    3    3    0    0 -0.13956966619E+02 -0.53321017423E+01  0.33653407826E+02  0.36820919115E+02  0.00000000000E+00 0.  1.
         11    1    4    4    0    0  0.16250683057E+02 -0.11221829169E+01 -0.82849434060E+00  0.16310438298E+02  0.51100000000E-03 0. -1.
        -11    1    4    4    0    0 -0.69565973079E+01 -0.38438602903E+01 -0.13956899136E+02  0.16061274600E+02  0.51100000000E-03 0.  1.
         12    1    4    4    0    0  0.46628808692E+01  0.10298144950E+02 -0.18868014349E+02  0.21995367987E+02  0.00000000000E+00 0. -1.
</event>
<event>
 8    1  0.2514877E-006  0.9118800E+02  0.7816164E-02  0.1184000E+00
        -11   -1    0    0    0    0  0.00000000000E+00  0.00000000000E+00  0.45593999997E+02  0.45594000000E+02  0.51100000000E-03 0. -1.
         11   -1    0    0    0    0 -0.00000000000E+00 -0.00000000000E+00 -0.45593999997E+02  0.45594000000E+02  0.51100000000E-03 0.  1.
         23    2    1    2    0    0 -0.13322676296E-14  0.00000000000E+00  0.00000000000E+00  0.91188000000E+02  0.91188000000E+02 0.  0.
    9900012    2    3    3    0    0 -0.20885231806E+01 -0.34915778403E+02 -0.11502426157E+02  0.54367091292E+02  0.40000016219E+02 0.  0.
        -12    1    3    3    0    0  0.20885231806E+01  0.34915778403E+02  0.11502426157E+02  0.36820908708E+02  0.00000000000E+00 0.  1.
         11    1    4    4    0    0  0.11645894369E+01 -0.10253104923E+02  0.11640970240E+00  0.10319688978E+02  0.51100000000E-03 0. -1.
        -11    1    4    4    0    0 -0.17436731840E+02 -0.19976750782E+02 -0.11999424450E+02  0.29104920142E+02  0.51100000000E-03 0.  1.
        -12    1    4    4    0    0  0.14183619223E+02 -0.46859226978E+01  0.38058859083E+00  0.14942482172E+02  0.00000000000E+00 0.  1.
</event>
<event>
 8    1  0.2514877E-006  0.9118800E+02  0.7816164E-02  0.1184000E+00
        -11   -1    0    0    0    0  0.00000000000E+00  0.00000000000E+00  0.45593999997E+02  0.45594000000E+02  0.51100000000E-03 0.  1.
         11   -1    0    0    0    0 -0.00000000000E+00 -0.00000000000E+00 -0.45593999997E+02  0.45594000000E+02  0.51100000000E-03 0. -1.
         23    2    1    2    0    0  0.35527136788E-14 -0.17763568394E-14  0.00000000000E+00  0.91188000000E+02  0.91188000000E+02 0.  0.
    9900012    2    3    3    0    0  0.21768466870E+02 -0.14440224462E+02 -0.25949835069E+02  0.54367079690E+02  0.39999989768E+02 0.  0.
         12    1    3    3    0    0 -0.21768466870E+02  0.14440224462E+02  0.25949835069E+02  0.36820920310E+02  0.00000000000E+00 0. -1.
         11    1    4    4    0    0  0.19909260262E+01 -0.15774203990E+02  0.22561110895E+01  0.16058621842E+02  0.51100000000E-03 0. -1.
        -11    1    4    4    0    0  0.88893636938E+00 -0.12539208154E+01  0.20405990949E+01  0.25547152889E+01  0.51100000000E-03 0.  1.
         12    1    4    4    0    0  0.18888604474E+02  0.25879003430E+01 -0.30246545254E+02  0.35753742559E+02  0.00000000000E+00 0. -1.
</event>
<event>
 8    1  0.2514877E-006  0.9118800E+02  0.7816164E-02  0.1184000E+00
        -11   -1    0    0    0    0  0.00000000000E+00  0.00000000000E+00  0.45593999997E+02  0.45594000000E+02  0.51100000000E-03 0.  1.
         11   -1    0    0    0    0 -0.00000000000E+00 -0.00000000000E+00 -0.45593999997E+02  0.45594000000E+02  0.51100000000E-03 0. -1.
         23    2    1    2    0    0  0.35527136788E-14 -0.11102230246E-15  0.00000000000E+00  0.91188000000E+02  0.91188000000E+02 0.  0.
    9900012    2    3    3    0    0  0.23462183368E+02  0.58222402959E+00 -0.28371912424E+02  0.54367103110E+02  0.40000043160E+02 0.  0.
        -12    1    3    3    0    0 -0.23462183368E+02 -0.58222402959E+00  0.28371912424E+02  0.36820896890E+02  0.00000000000E+00 0.  1.
         11    1    4    4    0    0  0.39939700593E+01 -0.70169362839E+01 -0.21739634249E+02  0.23190534474E+02  0.51100000000E-03 0. -1.
        -11    1    4    4    0    0  0.10181087844E+02 -0.38189818325E+01 -0.11352510153E+02  0.15720008236E+02  0.51100000000E-03 0.  1.
        -12    1    4    4    0    0  0.92871254652E+01  0.11418142146E+02  0.47202319779E+01  0.15456560400E+02  0.00000000000E+00 0.  1.
</event>
