<event>
 8    1  0.2482403E-006  0.9118800E+02  0.7816164E-02  0.1184000E+00
        -11   -1    0    0    0    0  0.00000000000E+00  0.00000000000E+00  0.45593999997E+02  0.45594000000E+02  0.51100000000E-03 0.  1.
         11   -1    0    0    0    0 -0.00000000000E+00 -0.00000000000E+00 -0.45593999997E+02  0.45594000000E+02  0.51100000000E-03 0. -1.
         23    2    1    2    0    0 -0.33306690739E-15 -0.35527136788E-14 -0.35527136788E-14  0.91188000000E+02  0.91188000000E+02 0.  0.
    9900012    2    3    3    0    0  0.84823597373E+00  0.24940895336E+02  0.27074196607E+02  0.54367083575E+02  0.39999998626E+02 0.  0.
         12    1    3    3    0    0 -0.84823597373E+00 -0.24940895336E+02 -0.27074196607E+02  0.36820916425E+02  0.00000000000E+00 0. -1.
         11    1    4    4    0    0 -0.54650230054E+01  0.47406141979E+01 -0.64802310976E+01  0.97125328706E+01  0.51100000000E-03 0. -1.
        -11    1    4    4    0    0 -0.26178724179E+01  0.18497362057E+02  0.14876637437E+02  0.23881373510E+02  0.51100000000E-03 0.  1.
        -12    1    4    4    0    0  0.89311313970E+01  0.17029190820E+01  0.18677790268E+02  0.20773177194E+02  0.00000000000E+00 0.  1.
</event>
<event>
 8    1  0.2482403E-006  0.9118800E+02  0.7816164E-02  0.1184000E+00
        -11   -1    0    0    0    0  0.00000000000E+00  0.00000000000E+00  0.45593999997E+02  0.45594000000E+02  0.51100000000E-03 0. -1.
         11   -1    0    0    0    0 -0.00000000000E+00 -0.00000000000E+00 -0.45593999997E+02  0.45594000000E+02  0.51100000000E-03 0.  1.
         23    2    1    2    0    0  0.00000000000E+00 -0.71054273576E-14  0.16375789613E-14  0.91188000000E+02  0.91188000000E+02 0.  0.
    9900012    2    3    3    0    0 -0.14748050815E+02 -0.33738213994E+02  0.86095696759E-01  0.54367088838E+02  0.40000010623E+02 0.  0.
         12    1    3    3    0    0  0.14748050815E+02  0.33738213994E+02 -0.86095696759E-01  0.36820911162E+02  0.00000000000E+00 0. -1.
         11    1    4    4    0    0  0.75550589858E+01 -0.12943790382E+02  0.55323783355E+01  0.15975851653E+02  0.51100000000E-03 0. -1.
        -11    1    4    4    0    0 -0.10982719272E+02 -0.13744427709E+02  0.81118184263E+01  0.19373461593E+02  0.51100000000E-03 0.  1.
        -12    1    4    4    0    0 -0.11320390529E+02 -0.70499959032E+01 -0.13558101065E+02  0.19017775592E+02  0.00000000000E+00 0.  1.
</event>
<event>
 8    1  0.2482403E-006  0.9118800E+02  0.7816164E-02  0.1184000E+00
        -11   -1    0    0    0    0  0.00000000000E+00  0.00000000000E+00  0.45593999997E+02  0.45594000000E+02  0.51100000000E-03 0.  1.
         11   -1    0    0    0    0 -0.00000000000E+00 -0.00000000000E+00 -0.45593999997E+02  0.45594000000E+02  0.51100000000E-03 0. -1.
         23    2    1    2    0    0  0.88817841970E-15  0.00000000000E+00  0.71054273576E-14  0.91188000000E+02  0.91188000000E+02 0.  0.
    9900012    2    3    3    0    0 -0.72899535771E+01  0.12234152019E+01 -0.36071284131E+02  0.54367113173E+02  0.40000066100E+02 0.  0.
        -12    1    3    3    0    0  0.72899535771E+01 -0.12234152019E+01  0.36071284131E+02  0.36820886827E+02  0.00000000000E+00 0.  1.
         11    1    4    4    0    0  0.51420117039E+01  0.85844674898E+00 -0.72268895463E+01  0.89109566243E+01  0.51100000000E-03 0. -1.
        -11    1    4    4    0    0 -0.12380176190E+02 -0.14784707141E+02 -0.11606383323E+02  0.22506986956E+02  0.51100000000E-03 0.  1.
         12    1    4    4    0    0 -0.51789090710E-01  0.15149675594E+02 -0.17238011261E+02  0.22949169592E+02  0.00000000000E+00 0. -1.
</event>
<event>
 8    1  0.2482403E-006  0.9118800E+02  0.7816164E-02  0.1184000E+00
        -11   -1    0    0    0    0  0.00000000000E+00  0.00000000000E+00  0.45593999997E+02  0.45594000000E+02  0.51100000000E-03 0.  1.
         11   -1    0    0    0    0 -0.00000000000E+00 -0.00000000000E+00 -0.45593999997E+02  0.45594000000E+02  0.51100000000E-03 0. -1.
         23    2    1    2    0    0  0.00000000000E+00 -0.88817841970E-15  0.00000000000E+00  0.91188000000E+02  0.91188000000E+02 0.  0.
    9900012    2    3    3    0    0  0.33204867618E+02 -0.53664255667E+01  0.14980624278E+02  0.54367070345E+02  0.39999968465E+02 0.  0.
         12    1    3    3    0    0 -0.33204867618E+02  0.53664255667E+01 -0.14980624278E+02  0.36820929655E+02  0.00000000000E+00 0. -1.
         11    1    4    4    0    0  0.32808665507E+01 -0.13191621774E+02  0.14530009288E+02  0.19897340036E+02  0.51100000000E-03 0. -1.
        -11    1    4    4    0    0  0.90632410627E+01  0.96999070980E+01 -0.18315428715E+01  0.13400936005E+02  0.51100000000E-03 0.  1.
        -12    1    4    4    0    0  0.20860760005E+02 -0.18747108911E+01  0.22821578619E+01  0.21068794303E+02  0.00000000000E+00 0.  1.
</event>
<event>
 8    1  0.2482403E-006  0.9118800E+02  0.7816164E-02  0.1184000E+00
        -11   -1    0    0    0    0  0.00000000000E+00  0.00000000000E+00  0.45593999997E+02  0.45594000000E+02  0.51100000000E-03 0.  1.
         11   -1    0    0    0    0 -0.00000000000E+00 -0.00000000000E+00 -0.45593999997E+02  0.45594000000E+02  0.51100000000E-03 0. -1.
         23    2    1    2    0    0 -0.35527136788E-14  0.00000000000E+00 -0.35527136788E-14  0.91188000000E+02  0.91188000000E+02 0.  0.
    9900012    2    3    3    0    0 -0.16899442305E+02  0.90267925193E+01 -0.31443685696E+02  0.54367088774E+02  0.40000010477E+02 0.  0.
        -12    1    3    3    0    0  0.16899442305E+02 -0.90267925193E+01  0.31443685696E+02  0.36820911226E+02  0.00000000000E+00 0.  1.
         11    1    4    4    0    0  0.13749020686E+00  0.13475608133E+02 -0.25826561623E+02  0.29131120879E+02  0.51100000000E-03 0. -1.
        -11    1    4    4    0    0 -0.11475256564E+02 -0.51232210544E+01  0.47639298133E+01  0.13439640423E+02  0.51100000000E-03 0.  1.
         12    1    4    4    0    0 -0.55616759485E+01  0.67440544111E+00 -0.10381053885E+02  0.11796327472E+02  0.00000000000E+00 0. -1.
</event>
<event>
 8    1  0.2482403E-006  0.9118800E+02  0.7816164E-02  0.1184000E+00
        -11   -1    0    0    0    0  0.00000000000E+00  0.00000000000E+00  0.45593999997E+02  0.45594000000E+02  0.51100000000E-03 0. -1.
         11   -1    0    0    0    0 -0.00000000000E+00 -0.00000000000E+00 -0.45593999997E+02  0.45594000000E+02  0.51100000000E-03 0.  1.
         23    2    1    2    0    0 -0.71054273576E-14  0.00000000000E+00  0.35527136788E-14  0.91188000000E+02  0.91188000000E+02 0.  0.
    9900012    2    3    3    0    0 -0.26466509187E+02 -0.40458851726E+01  0.25277143313E+02  0.54367091953E+02  0.40000017724E+02 0.  0.
        -12    1    3    3    0    0  0.26466509187E+02  0.40458851726E+01 -0.25277143313E+02  0.36820908047E+02  0.00000000000E+00 0.  1.
         11    1    4    4    0    0 -0.10093607272E+02  0.95085346019E+01  0.14229220211E+02  0.19868664930E+02  0.51100000000E-03 0. -1.
        -11    1    4    4    0    0 -0.42355046886E+01 -0.11357584565E+02  0.16938852633E+02  0.20829281215E+02  0.51100000000E-03 0.  1.
        -12    1    4    4    0    0 -0.12137397226E+02 -0.21968352092E+01 -0.58909295315E+01  0.13669145808E+02  0.00000000000E+00 0.  1.
</event>
<event>
 8    1  0.2482403E-006  0.9118800E+02  0.7816164E-02  0.1184000E+00
        -11   -1    0    0    0    0  0.00000000000E+00  0.00000000000E+00  0.45593999997E+02  0.45594000000E+02  0.51100000000E-03 0. -1.
         11   -1    0    0    0    0 -0.00000000000E+00 -0.00000000000E+00 -0.45593999997E+02  0.45594000000E+02  0.51100000000E-03 0.  1.
         23    2    1    2    0    0 -0.35527136788E-14  0.00000000000E+00 -0.35527136788E-14  0.91188000000E+02  0.91188000000E+02 0.  0.
    9900012    2    3    3    0    0 -0.30183146651E+02  0.14420567415E+02 -0.15388462694E+02  0.54367083520E+02  0.39999998500E+02 0.  0.
         12    1    3    3    0    0  0.30183146651E+02 -0.14420567415E+02  0.15388462694E+02  0.36820916480E+02  0.00000000000E+00 0. -1.
         11    1    4    4    0    0 -0.12956195876E+01  0.15957570024E+02 -0.48417791657E+01  0.16726191944E+02  0.51100000000E-03 0. -1.
        -11    1    4    4    0    0 -0.18761562972E+02 -0.36361414249E+01 -0.16893750540E+02  0.25507186775E+02  0.51100000000E-03 0.  1.
         12    1    4    4    0    0 -0.10125964092E+02  0.20991388157E+01  0.63470670114E+01  0.12133704801E+02  0.00000000000E+00 0. -1.
</event>
<event>
 8    1  0.2482403E-006  0.9118800E+02  0.7816164E-02  0.1184000E+00
        -11   -1    0    0    0    0  0.00000000000E+00  0.00000000000E+00  0.45593999997E+02  0.45594000000E+02  0.51100000000E-03 0.  1.
         11   -1    0    0    0    0 -0.00000000000E+00 -0.00000000000E+00 -0.45593999997E+02  0.45594000000E+02  0.51100000000E-03 0. -1.
         23    2    1    2    0    0 -0.22204460493E-15  0.00000000000E+00  0.00000000000E+00  0.91188000000E+02  0.91188000000E+02 0.  0.
    9900012    2    3    3    0    0  0.18199146751E+01 -0.34495223649E+02 -0.12749310901E+02  0.54367116354E+02  0.40000073352E+02 0.  0.
        -12    1    3    3    0    0 -0.18199146751E+01  0.34495223649E+02  0.12749310901E+02  0.36820883646E+02  0.00000000000E+00 0.  1.
         11    1    4    4    0    0  0.72617481411E+01 -0.32596544774E+02 -0.16649022142E+02  0.37315648940E+02  0.51100000000E-03 0. -1.
        -11    1    4    4    0    0 -0.37529435878E+00 -0.64529178170E+01  0.70336325167E+01  0.95526426108E+01  0.51100000000E-03 0.  1.
         12    1    4    4    0    0 -0.50665391072E+01  0.45542389416E+01 -0.31339212756E+01  0.74988248029E+01  0.00000000000E+00 0. -1.
</event>
<event>
 8    1  0.2482403E-006  0.9118800E+02  0.7816164E-02  0.1184000E+00
        -11   -1    0    0    0    0  0.00000000000E+00  0.00000000000E+00  0.45593999997E+02  0.45594000000E+02  0.51100000000E-03 0. -1.
         11   -1    0    0    0    0 -0.00000000000E+00 -0.00000000000E+00 -0.45593999997E+02  0.45594000000E+02  0.51100000000E-03 0.  1.
         23    2    1    2    0    0 -0.71054273576E-14  0.00000000000E+00 -0.35527136788E-14  0.91188000000E+02  0.91188000000E+02 0.  0.
    9900012    2    3    3    0    0  0.25671900576E+02  0.16032180432E+02 -0.20969073149E+02  0.54367091303E+02  0.40000016242E+02 0.  0.
        -12    1    3    3    0    0 -0.25671900576E+02 -0.16032180432E+02  0.20969073149E+02  0.36820908697E+02  0.00000000000E+00 0.  1.
         11    1    4    4    0    0 -0.25085504750E+01  0.66654614942E+01 -0.15787067022E+01  0.72947595936E+01  0.51100000000E-03 0. -1.
        -11    1    4    4    0    0  0.10215256898E+01 -0.91985604984E+01 -0.81127526128E+00  0.92905972783E+01  0.51100000000E-03 0.  1.
         12    1    4    4    0    0  0.27158925362E+02  0.18565279436E+02 -0.18579091185E+02  0.37781734431E+02  0.00000000000E+00 0. -1.
</event>
<event>
 8    1  0.2482403E-006  0.9118800E+02  0.7816164E-02  0.1184000E+00
        -11   -1    0    0    0    0  0.00000000000E+00  0.00000000000E+00  0.45593999997E+02  0.45594000000E+02  0.51100000000E-03 0.  1.
         11   -1    0    0    0    0 -0.00000000000E+00 -0.00000000000E+00 -0.45593999997E+02  0.45594000000E+02  0.51100000000E-03 0. -1.
         23    2    1    2    0    0 -0.88817841970E-15  0.35527136788E-14  0.00000000000E+00  0.91188000000E+02  0.91188000000E+02 0.  0.
    9900012    2    3    3    0    0  0.31614172474E+01  0.20184970491E+02  0.30632499749E+02  0.54367114166E+02  0.40000068364E+02 0.  0.
         12    1    3    3    0    0 -0.31614172474E+01 -0.20184970491E+02 -0.30632499749E+02  0.36820885834E+02  0.00000000000E+00 0. -1.
         11    1    4    4    0    0  0.54790886511E+01  0.21504412538E+02  0.85791039003E+01  0.23792040581E+02  0.51100000000E-03 0. -1.
        -11    1    4    4    0    0  0.48053371445E+01  0.80435498397E+01  0.10753229984E+02  0.14262605458E+02  0.51100000000E-03 0.  1.
        -12    1    4    4    0    0 -0.71230085482E+01 -0.93629918859E+01  0.11300165865E+02  0.16312468127E+02  0.00000000000E+00 0.  1.
</event>
<event>
 8    1  0.2482403E-006  0.9118800E+02  0.7816164E-02  0.1184000E+00
        -11   -1    0    0    0    0  0.00000000000E+00  0.00000000000E+00  0.45593999997E+02  0.45594000000E+02  0.51100000000E-03 0.  1.
         11   -1    0    0    0    0 -0.00000000000E+00 -0.00000000000E+00 -0.45593999997E+02  0.45594000000E+02  0.51100000000E-03 0. -1.
         23    2    1    2    0    0  0.11345091533E-14  0.17763568394E-14  0.00000000000E+00  0.91188000000E+02  0.91188000000E+02 0.  0.
    9900012    2    3    3    0    0  0.20686165842E-02 -0.10009557140E+02 -0.35434266999E+02  0.54367102181E+02  0.40000041042E+02 0.  0.
        -12    1    3    3    0    0 -0.20686165842E-02  0.10009557140E+02  0.35434266999E+02  0.36820897819E+02  0.00000000000E+00 0.  1.
         11    1    4    4    0    0 -0.95207730975E+01 -0.14216769667E+02 -0.32733418483E+02  0.36935597274E+02  0.51100000000E-03 0. -1.
        -11    1    4    4    0    0  0.68100310080E+01  0.24003893517E+01  0.51910541522E+01  0.88929992040E+01  0.51100000000E-03 0.  1.
        -12    1    4    4    0    0  0.27128107061E+01  0.18068231755E+01 -0.78919026685E+01  0.85385057032E+01  0.00000000000E+00 0.  1.
</event>
<event>
 8    1  0.2482403E-006  0.9118800E+02  0.7816164E-02  0.1184000E+00
        -11   -1    0    0    0    0  0.00000000000E+00  0.00000000000E+00  0.45593999997E+02  0.45594000000E+02  0.51100000000E-03 0.  1.
         11   -1    0    0    0    0 -0.00000000000E+00 -0.00000000000E+00 -0.45593999997E+02  0.45594000000E+02  0.51100000000E-03 0. -1.
         23    2    1    2    0    0 -0.35527136788E-14  0.00000000000E+00  0.00000000000E+00  0.91188000000E+02  0.91188000000E+02 0.  0.
    9900012    2    3    3    0    0 -0.19749626172E+02  0.19158817780E+02  0.24467769820E+02  0.54367084848E+02  0.40000001529E+02 0.  0.
         12    1    3    3    0    0  0.19749626172E+02 -0.19158817780E+02 -0.24467769820E+02  0.36820915152E+02  0.00000000000E+00 0. -1.
         11    1    4    4    0    0 -0.18604169781E+02 -0.60066874969E+01  0.57699965161E+01  0.20383529821E+02  0.51100000000E-03 0. -1.
        -11    1    4    4    0    0  0.46119354988E+01  0.33554386132E+01  0.25803809759E+01  0.62599747263E+01  0.51100000000E-03 0.  1.
        -12    1    4    4    0    0 -0.57573918899E+01  0.21810066664E+02  0.16117392328E+02  0.27723580301E+02  0.00000000000E+00 0.  1.
</event>
<event>
 8    1  0.2482403E-006  0.9118800E+02  0.7816164E-02  0.1184000E+00
        -11   -1    0    0    0    0  0.00000000000E+00  0.00000000000E+00  0.45593999997E+02  0.45594000000E+02  0.51100000000E-03 0. -1.
         11   -1    0    0    0    0 -0.00000000000E+00 -0.00000000000E+00 -0.45593999997E+02  0.45594000000E+02  0.51100000000E-03 0.  1.
         23    2    1    2    0    0 -0.35527136788E-14  0.00000000000E+00  0.35527136788E-14  0.91188000000E+02  0.91188000000E+02 0.  0.
    9900012    2    3    3    0    0  0.25547140818E+02  0.11087610105E+02  0.24087083889E+02  0.54367094089E+02  0.40000022594E+02 0.  0.
        -12    1    3    3    0    0 -0.25547140818E+02 -0.11087610105E+02 -0.24087083889E+02  0.36820905911E+02  0.00000000000E+00 0.  1.
         11    1    4    4    0    0  0.42156265352E+01  0.12102872815E+02 -0.15316386356E+01  0.12907244270E+02  0.51100000000E-03 0. -1.
        -11    1    4    4    0    0  0.17258341105E+01 -0.32755885748E+00  0.21300067075E+02  0.21372380678E+02  0.51100000000E-03 0.  1.
         12    1    4    4    0    0  0.19605680172E+02 -0.68770385272E+00  0.43186554500E+01  0.20087469142E+02  0.00000000000E+00 0. -1.
</event>
<event>
 8    1  0.2482403E-006  0.9118800E+02  0.7816164E-02  0.1184000E+00
        -11   -1    0    0    0    0  0.00000000000E+00  0.00000000000E+00  0.45593999997E+02  0.45594000000E+02  0.51100000000E-03 0.  1.
         11   -1    0    0    0    0 -0.00000000000E+00 -0.00000000000E+00 -0.45593999997E+02  0.45594000000E+02  0.51100000000E-03 0. -1.
         23    2    1    2    0    0  0.00000000000E+00  0.00000000000E+00 -0.35527136788E-14  0.91188000000E+02  0.91188000000E+02 0.  0.
    9900012    2    3    3    0    0 -0.32183735232E+02 -0.76315517742E+01  0.16178536434E+02  0.54367103255E+02  0.40000043491E+02 0.  0.
         12    1    3    3    0    0  0.32183735232E+02  0.76315517742E+01 -0.16178536434E+02  0.36820896745E+02  0.00000000000E+00 0. -1.
         11    1    4    4    0    0 -0.36271073527E+01 -0.70252586320E+01  0.14401985510E+01  0.80364381863E+01  0.51100000000E-03 0. -1.
        -11    1    4    4    0    0 -0.50603397143E+01 -0.12586334389E+02 -0.38062926013E+01  0.14089383060E+02  0.51100000000E-03 0.  1.
        -12    1    4    4    0    0 -0.23496288165E+02  0.11980041247E+02  0.18544630484E+02  0.32241282009E+02  0.00000000000E+00 0.  1.
</event>
<event>
 8    1  0.2482403E-006  0.9118800E+02  0.7816164E-02  0.1184000E+00
        -11   -1    0    0    0    0  0.00000000000E+00  0.00000000000E+00  0.45593999997E+02  0.45594000000E+02  0.51100000000E-03 0.  1.
         11   -1    0    0    0    0 -0.00000000000E+00 -0.00000000000E+00 -0.45593999997E+02  0.45594000000E+02  0.51100000000E-03 0. -1.
         23    2    1    2    0    0  0.27755575616E-15  0.00000000000E+00 -0.71054273576E-14  0.91188000000E+02  0.91188000000E+02 0.  0.
    9900012    2    3    3    0    0 -0.20694883125E+00 -0.30172033406E+01  0.36696520661E+02  0.54367068827E+02  0.39999965005E+02 0.  0.
         12    1    3    3    0    0  0.20694883125E+00  0.30172033406E+01 -0.36696520661E+02  0.36820931173E+02  0.00000000000E+00 0. -1.
         11    1    4    4    0    0 -0.69872338665E+01 -0.19874986366E+01  0.50915884343E+01  0.88710687621E+01  0.51100000000E-03 0. -1.
        -11    1    4    4    0    0  0.64251781823E+01 -0.14025747814E+02  0.28058540510E+02  0.32020090759E+02  0.51100000000E-03 0.  1.
         12    1    4    4    0    0  0.35510685295E+00  0.12996043111E+02  0.35463917173E+01  0.13475909306E+02  0.00000000000E+00 0. -1.
</event>
<event>
 8    1  0.2482403E-006  0.9118800E+02  0.7816164E-02  0.1184000E+00
        -11   -1    0    0    0    0  0.00000000000E+00  0.00000000000E+00  0.45593999997E+02  0.45594000000E+02  0.51100000000E-03 0.  1.
         11   -1    0    0    0    0 -0.00000000000E+00 -0.00000000000E+00 -0.45593999997E+02  0.45594000000E+02  0.51100000000E-03 0. -1.
         23    2    1    2    0    0  0.88817841970E-15  0.35527136788E-14  0.00000000000E+00  0.91188000000E+02  0.91188000000E+02 0.  0.
    9900012    2    3    3    0    0  0.12341620894E+01  0.16484144549E+02 -0.32901833947E+02  0.54367070427E+02  0.39999968652E+02 0.  0.
        -12    1    3    3    0    0 -0.12341620894E+01 -0.16484144549E+02  0.32901833947E+02  0.36820929573E+02  0.00000000000E+00 0.  1.
         11    1    4    4    0    0 -0.16771723857E+01  0.74364450232E+01 -0.14556020777E+02  0.16431413905E+02  0.51100000000E-03 0. -1.
        -11    1    4    4    0    0 -0.81820863916E+01 -0.88804828949E+01 -0.57205818396E+01  0.13361682941E+02  0.51100000000E-03 0.  1.
        -12    1    4    4    0    0  0.11093420867E+02  0.17928182420E+02 -0.12625231330E+02  0.24573973581E+02  0.00000000000E+00 0.  1.
</event>
<event>
 8    1  0.2482403E-006  0.9118800E+02  0.7816164E-02  0.1184000E+00
        -11   -1    0    0    0    0  0.00000000000E+00  0.00000000000E+00  0.45593999997E+02  0.45594000000E+02  0.51100000000E-03 0.  1.
         11   -1    0    0    0    0 -0.00000000000E+00 -0.00000000000E+00 -0.45593999997E+02  0.45594000000E+02  0.51100000000E-03 0. -1.
         23    2    1    2    0    0  0.17763568394E-14  0.35527136788E-14 -0.35527136788E-14  0.91188000000E+02  0.91188000000E+02 0.  0.
    9900012    2    3    3    0    0 -0.74827665124E+01  0.19879486060E+02  0.30076404389E+02  0.54367138228E+02  0.40000123218E+02 0.  0.
         12    1    3    3    0    0  0.74827665124E+01 -0.19879486060E+02 -0.30076404389E+02  0.36820861772E+02  0.00000000000E+00 0. -1.
         11    1    4    4    0    0  0.51272930918E+01  0.19898695307E+02 -0.24481620341E+00  0.20550113007E+02  0.51100000000E-03 0. -1.
        -11    1    4    4    0    0 -0.84222285675E+01 -0.34744795898E+01  0.22696438309E+02  0.24456783408E+02  0.51100000000E-03 0.  1.
         12    1    4    4    0    0 -0.41878310367E+01  0.34552703426E+01  0.76247822834E+01  0.93602418132E+01  0.00000000000E+00 0. -1.
</event>
<event>
 8    1  0.2482403E-006  0.9118800E+02  0.7816164E-02  0.1184000E+00
        -11   -1    0    0    0    0  0.00000000000E+00  0.00000000000E+00  0.45593999997E+02  0.45594000000E+02  0.51100000000E-03 0.  1.
         11   -1    0    0    0    0 -0.00000000000E+00 -0.00000000000E+00 -0.45593999997E+02  0.45594000000E+02  0.51100000000E-03 0. -1.
         23    2    1    2    0    0  0.00000000000E+00 -0.88817841970E-15 -0.17763568394E-14  0.91188000000E+02  0.91188000000E+02 0.  0.
    9900012    2    3    3    0    0 -0.34793229789E+02  0.71201003895E+01 -0.97219137496E+01  0.54367078289E+02  0.39999986574E+02 0.  0.
        -12    1    3    3    0    0  0.34793229789E+02 -0.71201003895E+01  0.97219137496E+01  0.36820921711E+02  0.00000000000E+00 0.  1.
         11    1    4    4    0    0 -0.49988683520E+01  0.10398701613E+02  0.35312050118E+01  0.12066113257E+02  0.51100000000E-03 0. -1.
        -11    1    4    4    0    0 -0.29633939827E+01 -0.12778083048E+01  0.76023916984E+01  0.82589864849E+01  0.51100000000E-03 0.  1.
         12    1    4    4    0    0 -0.26830967455E+02 -0.20007929183E+01 -0.20855510460E+02  0.34041978547E+02  0.00000000000E+00 0. -1.
</event>
<event>
 8    1  0.2482403E-006  0.9118800E+02  0.7816164E-02  0.1184000E+00
        -11   -1    0    0    0    0  0.00000000000E+00  0.00000000000E+00  0.45593999997E+02  0.45594000000E+02  0.51100000000E-03 0.  1.
         11   -1    0    0    0    0 -0.00000000000E+00 -0.00000000000E+00 -0.45593999997E+02  0.45594000000E+02  0.51100000000E-03 0. -1.
         23    2    1    2    0    0 -0.35527136788E-14  0.00000000000E+00 -0.35527136788E-14  0.91188000000E+02  0.91188000000E+02 0.  0.
    9900012    2    3    3    0    0  0.19001840804E+02 -0.17394516387E+02  0.26308513760E+02  0.54367122084E+02  0.40000086414E+02 0.  0.
         12    1    3    3    0    0 -0.19001840804E+02  0.17394516387E+02 -0.26308513760E+02  0.36820877916E+02  0.00000000000E+00 0. -1.
         11    1    4    4    0    0 -0.77324161150E+01 -0.11869556777E+02  0.58051550700E+00  0.14177927760E+02  0.51100000000E-03 0. -1.
        -11    1    4    4    0    0  0.10263126823E+01 -0.22323987556E+01  0.90292875227E+01  0.93576148326E+01  0.51100000000E-03 0.  1.
         12    1    4    4    0    0  0.25707944237E+02 -0.32925608546E+01  0.16698710730E+02  0.30831579491E+02  0.00000000000E+00 0. -1.
</event>
<event>
 8    1  0.2482403E-006  0.9118800E+02  0.7816164E-02  0.1184000E+00
        -11   -1    0    0    0    0  0.00000000000E+00  0.00000000000E+00  0.45593999997E+02  0.45594000000E+02  0.51100000000E-03 0. -1.
         11   -1    0    0    0    0 -0.00000000000E+00 -0.00000000000E+00 -0.45593999997E+02  0.45594000000E+02  0.51100000000E-03 0.  1.
         23    2    1    2    0    0  0.44408920985E-15  0.00000000000E+00  0.00000000000E+00  0.91188000000E+02  0.91188000000E+02 0.  0.
    9900012    2    3    3    0    0 -0.15376553713E+01 -0.16369839724E+02 -0.32946120564E+02  0.54367042695E+02  0.39999905432E+02 0.  0.
         12    1    3    3    0    0  0.15376553713E+01  0.16369839724E+02  0.32946120564E+02  0.36820957305E+02  0.00000000000E+00 0. -1.
         11    1    4    4    0    0 -0.15271352355E+02 -0.85234492056E+01 -0.20568196634E+02  0.26998409252E+02  0.51100000000E-03 0. -1.
        -11    1    4    4    0    0 -0.22321058583E+01  0.16967934273E+01  0.23380414786E+01  0.36507318053E+01  0.51100000000E-03 0.  1.
        -12    1    4    4    0    0  0.15965802842E+02 -0.95431839453E+01 -0.14715965409E+02  0.23717901638E+02  0.00000000000E+00 0.  1.
</event>
<event>
 8    1  0.2482403E-006  0.9118800E+02  0.7816164E-02  0.1184000E+00
        -11   -1    0    0    0    0  0.00000000000E+00  0.00000000000E+00  0.45593999997E+02  0.45594000000E+02  0.51100000000E-03 0. -1.
         11   -1    0    0    0    0 -0.00000000000E+00 -0.00000000000E+00 -0.45593999997E+02  0.45594000000E+02  0.51100000000E-03 0.  1.
         23    2    1    2    0    0  0.26645352591E-14  0.00000000000E+00  0.00000000000E+00  0.91188000000E+02  0.91188000000E+02 0.  0.
    9900012    2    3    3    0    0 -0.21459727094E+01 -0.77180979358E+01  0.35938970176E+02  0.54367030269E+02  0.39999877104E+02 0.  0.
        -12    1    3    3    0    0  0.21459727094E+01  0.77180979358E+01 -0.35938970176E+02  0.36820969731E+02  0.00000000000E+00 0.  1.
         11    1    4    4    0    0 -0.13317728156E+02  0.79264079619E+00  0.16660572004E+02  0.21343964543E+02  0.51100000000E-03 0. -1.
        -11    1    4    4    0    0 -0.36700553416E+01  0.40443552078E+01  0.10195155500E+02  0.11565781910E+02  0.51100000000E-03 0.  1.
         12    1    4    4    0    0  0.14841810788E+02 -0.12555093940E+02  0.90832426719E+01  0.21457283816E+02  0.00000000000E+00 0. -1.
</event>
<event>
 8    1  0.2482403E-006  0.9118800E+02  0.7816164E-02  0.1184000E+00
        -11   -1    0    0    0    0  0.00000000000E+00  0.00000000000E+00  0.45593999997E+02  0.45594000000E+02  0.51100000000E-03 0. -1.
         11   -1    0    0    0    0 -0.00000000000E+00 -0.00000000000E+00 -0.45593999997E+02  0.45594000000E+02  0.51100000000E-03 0.  1.
         23    2    1    2    0    0  0.00000000000E+00  0.88817841970E-15 -0.22204460493E-15  0.91188000000E+02  0.91188000000E+02 0.  0.
    9900012    2    3    3    0    0  0.36203790195E+02 -0.66280047651E+01 -0.10644799991E+01  0.54367109336E+02  0.40000057353E+02 0.  0.
         12    1    3    3    0    0 -0.36203790195E+02  0.66280047651E+01  0.10644799991E+01  0.36820890664E+02  0.00000000000E+00 0. -1.
         11    1    4    4    0    0  0.25180234904E+01 -0.64183261467E+01  0.66617814107E+01  0.95872146450E+01  0.51100000000E-03 0. -1.
        -11    1    4    4    0    0  0.26513819027E+02 -0.12887346387E+02 -0.40446349645E+01  0.29756098007E+02  0.51100000000E-03 0.  1.
         12    1    4    4    0    0  0.71719476769E+01  0.12677667769E+02 -0.36816264453E+01  0.15023796684E+02  0.00000000000E+00 0. -1.
</event>
<event>
 8    1  0.2482403E-006  0.9118800E+02  0.7816164E-02  0.1184000E+00
        -11   -1    0    0    0    0  0.00000000000E+00  0.00000000000E+00  0.45593999997E+02  0.45594000000E+02  0.51100000000E-03 0.  1.
         11   -1    0    0    0    0 -0.00000000000E+00 -0.00000000000E+00 -0.45593999997E+02  0.45594000000E+02  0.51100000000E-03 0. -1.
         23    2    1    2    0    0  0.35527136788E-14  0.35527136788E-14  0.00000000000E+00  0.91188000000E+02  0.91188000000E+02 0.  0.
    9900012    2    3    3    0    0 -0.19036648704E+02 -0.20715921828E+02 -0.23753646933E+02  0.54367093524E+02  0.40000021307E+02 0.  0.
         12    1    3    3    0    0  0.19036648704E+02  0.20715921828E+02  0.23753646933E+02  0.36820906476E+02  0.00000000000E+00 0. -1.
         11    1    4    4    0    0 -0.85588281351E+01 -0.45153670822E+01 -0.72975622321E+01  0.12120086375E+02  0.51100000000E-03 0. -1.
        -11    1    4    4    0    0  0.12217354204E+02 -0.73437108020E+01 -0.36061902219E+01  0.14703687982E+02  0.51100000000E-03 0.  1.
        -12    1    4    4    0    0 -0.22695174773E+02 -0.88568439443E+01 -0.12849894479E+02  0.27543319167E+02  0.00000000000E+00 0.  1.
</event>
<event>
 8    1  0.2482403E-006  0.9118800E+02  0.7816164E-02  0.1184000E+00
        -11   -1    0    0    0    0  0.00000000000E+00  0.00000000000E+00  0.45593999997E+02  0.45594000000E+02  0.51100000000E-03 0. -1.
         11   -1    0    0    0    0 -0.00000000000E+00 -0.00000000000E+00 -0.45593999997E+02  0.45594000000E+02  0.51100000000E-03 0.  1.
         23    2    1    2    0    0  0.17763568394E-14  0.00000000000E+00 -0.88817841970E-15  0.91188000000E+02  0.91188000000E+02 0.  0.
    9900012    2    3    3    0    0  0.12406607151E+02  0.34602176573E+02  0.21314956187E+01  0.54367111931E+02  0.40000063270E+02 0.  0.
         12    1    3    3    0    0 -0.12406607151E+02 -0.34602176573E+02 -0.21314956187E+01  0.36820888069E+02  0.00000000000E+00 0. -1.
         11    1    4    4    0    0  0.29968831036E+01  0.11308624239E+02 -0.82815386793E+01  0.14333533189E+02  0.51100000000E-03 0. -1.
        -11    1    4    4    0    0  0.11184397249E+02  0.16381906708E+02 -0.71430274670E+01  0.21082705018E+02  0.51100000000E-03 0.  1.
         12    1    4    4    0    0 -0.17746732012E+01  0.69116456254E+01  0.17556061765E+02  0.18950873724E+02  0.00000000000E+00 0. -1.
</event>
<event>
 8    1  0.2482403E-006  0.9118800E+02  0.7816164E-02  0.1184000E+00
        -11   -1    0    0    0    0  0.00000000000E+00  0.00000000000E+00  0.45593999997E+02  0.45594000000E+02  0.51100000000E-03 0.  1.
         11   -1    0    0    0    0 -0.00000000000E+00 -0.00000000000E+00 -0.45593999997E+02  0.45594000000E+02  0.51100000000E-03 0. -1.
         23    2    1    2    0    0  0.35527136788E-14  0.17763568394E-14  0.35527136788E-14  0.91188000000E+02  0.91188000000E+02 0.  0.
    9900012    2    3    3    0    0  0.22924589540E+02  0.12250125787E+02  0.26080231345E+02  0.54367070430E+02  0.39999968660E+02 0.  0.
         12    1    3    3    0    0 -0.22924589540E+02 -0.12250125787E+02 -0.26080231345E+02  0.36820929570E+02  0.00000000000E+00 0. -1.
         11    1    4    4    0    0 -0.46311733400E+01 -0.36863491709E+01  0.44900073637E+01  0.74294752912E+01  0.51100000000E-03 0.  1.
        -11    1    4    4    0    0  0.32182617128E+01 -0.46142295776E+01 -0.32916174767E+01  0.65179037213E+01  0.51100000000E-03 0. -1.
         12    1    4    4    0    0  0.24337501167E+02  0.20550704536E+02  0.24881841458E+02  0.40419691418E+02  0.00000000000E+00 0. -1.
</event>
<event>
 8    1  0.2482403E-006  0.9118800E+02  0.7816164E-02  0.1184000E+00
        -11   -1    0    0    0    0  0.00000000000E+00  0.00000000000E+00  0.45593999997E+02  0.45594000000E+02  0.51100000000E-03 0. -1.
         11   -1    0    0    0    0 -0.00000000000E+00 -0.00000000000E+00 -0.45593999997E+02  0.45594000000E+02  0.51100000000E-03 0.  1.
         23    2    1    2    0    0  0.00000000000E+00  0.00000000000E+00  0.00000000000E+00  0.91188000000E+02  0.91188000000E+02 0.  0.
    9900012    2    3    3    0    0 -0.27353496876E+02 -0.18728286060E+02  0.16025535589E+02  0.54367078216E+02  0.39999986409E+02 0.  0.
        -12    1    3    3    0    0  0.27353496876E+02  0.18728286060E+02 -0.16025535589E+02  0.36820921784E+02  0.00000000000E+00 0.  1.
         11    1    4    4    0    0 -0.90427071535E+01 -0.95944176590E+01 -0.10420506328E+01  0.13225326940E+02  0.51100000000E-03 0. -1.
        -11    1    4    4    0    0 -0.41605236420E+00 -0.16157258631E+02  0.14562802725E+02  0.21755581572E+02  0.51100000000E-03 0.  1.
         12    1    4    4    0    0 -0.17894737358E+02  0.70233902298E+01  0.25047834967E+01  0.19386169704E+02  0.00000000000E+00 0. -1.
</event>
<event>
 8    1  0.2482403E-006  0.9118800E+02  0.7816164E-02  0.1184000E+00
        -11   -1    0    0    0    0  0.00000000000E+00  0.00000000000E+00  0.45593999997E+02  0.45594000000E+02  0.51100000000E-03 0. -1.
         11   -1    0    0    0    0 -0.00000000000E+00 -0.00000000000E+00 -0.45593999997E+02  0.45594000000E+02  0.51100000000E-03 0.  1.
         23    2    1    2    0    0  0.00000000000E+00 -0.71054273576E-14  0.00000000000E+00  0.91188000000E+02  0.91188000000E+02 0.  0.
    9900012    2    3    3    0    0  0.16256189707E+02 -0.31963595848E+02  0.83573006806E+01  0.54367086948E+02  0.40000006316E+02 0.  0.
        -12    1    3    3    0    0 -0.16256189707E+02  0.31963595848E+02 -0.83573006806E+01  0.36820913052E+02  0.00000000000E+00 0.  1.
         11    1    4    4    0    0 -0.68819826806E+01 -0.73447752312E+01 -0.10071858429E+00  0.10065662090E+02  0.51100000000E-03 0. -1.
        -11    1    4    4    0    0 -0.59169731456E+01 -0.11105704868E+01  0.18886345168E+00  0.60232555712E+01  0.51100000000E-03 0.  1.
         12    1    4    4    0    0  0.29055145533E+02 -0.23508250130E+02  0.82691558132E+01  0.38278169287E+02  0.00000000000E+00 0. -1.
</event>
<event>
 8    1  0.2482403E-006  0.9118800E+02  0.7816164E-02  0.1184000E+00
        -11   -1    0    0    0    0  0.00000000000E+00  0.00000000000E+00  0.45593999997E+02  0.45594000000E+02  0.51100000000E-03 0.  1.
         11   -1    0    0    0    0 -0.00000000000E+00 -0.00000000000E+00 -0.45593999997E+02  0.45594000000E+02  0.51100000000E-03 0. -1.
         23    2    1    2    0    0  0.00000000000E+00  0.00000000000E+00  0.00000000000E+00  0.91188000000E+02  0.91188000000E+02 0.  0.
    9900012    2    3    3    0    0 -0.54417338569E+01  0.30074792485E+02 -0.20534707845E+02  0.54367084250E+02  0.40000000165E+02 0.  0.
        -12    1    3    3    0    0  0.54417338569E+01 -0.30074792485E+02  0.20534707845E+02  0.36820915750E+02  0.00000000000E+00 0.  1.
         11    1    4    4    0    0 -0.19997781619E+02  0.17917863410E+02 -0.91677650980E+01  0.28372680804E+02  0.51100000000E-03 0. -1.
        -11    1    4    4    0    0  0.14700063969E+02  0.14683200591E+02 -0.10734122453E+02  0.23386099405E+02  0.51100000000E-03 0.  1.
        -12    1    4    4    0    0 -0.14401620722E+00 -0.25262715166E+01 -0.63282029374E+00  0.26083040405E+01  0.00000000000E+00 0.  1.
</event>
<event>
 8    1  0.2482403E-006  0.9118800E+02  0.7816164E-02  0.1184000E+00
        -11   -1    0    0    0    0  0.00000000000E+00  0.00000000000E+00  0.45593999997E+02  0.45594000000E+02  0.51100000000E-03 0.  1.
         11   -1    0    0    0    0 -0.00000000000E+00 -0.00000000000E+00 -0.45593999997E+02  0.45594000000E+02  0.51100000000E-03 0. -1.
         23    2    1    2    0    0  0.17763568394E-14 -0.17763568394E-14 -0.71054273576E-14  0.91188000000E+02  0.91188000000E+02 0.  0.
    9900012    2    3    3    0    0 -0.15211747796E+02  0.65658684442E+01  0.32882711600E+02  0.54367073591E+02  0.39999975866E+02 0.  0.
         12    1    3    3    0    0  0.15211747796E+02 -0.65658684442E+01 -0.32882711600E+02  0.36820926409E+02  0.00000000000E+00 0. -1.
         11    1    4    4    0    0 -0.11383005428E+02  0.11975083566E+02  0.14130303287E+01  0.16582282532E+02  0.51100000000E-03 0. -1.
        -11    1    4    4    0    0 -0.15050873550E+01  0.75261963251E+01  0.13378291260E+02  0.15423605168E+02  0.51100000000E-03 0.  1.
         12    1    4    4    0    0 -0.23236550121E+01 -0.12935411447E+02  0.18091390011E+02  0.22361185891E+02  0.00000000000E+00 0. -1.
</event>
<event>
 8    1  0.2482403E-006  0.9118800E+02  0.7816164E-02  0.1184000E+00
        -11   -1    0    0    0    0  0.00000000000E+00  0.00000000000E+00  0.45593999997E+02  0.45594000000E+02  0.51100000000E-03 0.  1.
         11   -1    0    0    0    0 -0.00000000000E+00 -0.00000000000E+00 -0.45593999997E+02  0.45594000000E+02  0.51100000000E-03 0. -1.
         23    2    1    2    0    0  0.00000000000E+00  0.00000000000E+00  0.88817841970E-15  0.91188000000E+02  0.91188000000E+02 0.  0.
    9900012    2    3    3    0    0 -0.29880264809E+02 -0.20534360053E+02 -0.64256762852E+01  0.54367089045E+02  0.40000011095E+02 0.  0.
        -12    1    3    3    0    0  0.29880264809E+02  0.20534360053E+02  0.64256762852E+01  0.36820910955E+02  0.00000000000E+00 0.  1.
         11    1    4    4    0    0 -0.47962477599E+01 -0.13638376515E+02 -0.42165129058E+01  0.15059491621E+02  0.51100000000E-03 0. -1.
        -11    1    4    4    0    0  0.28809237066E+01 -0.96393393194E+01 -0.46880296315E+01  0.11099288536E+02  0.51100000000E-03 0.  1.
         12    1    4    4    0    0 -0.27964940756E+02  0.27433557812E+01  0.24788662521E+01  0.28208308888E+02  0.00000000000E+00 0. -1.
</event>
<event>
 8    1  0.2482403E-006  0.9118800E+02  0.7816164E-02  0.1184000E+00
        -11   -1    0    0    0    0  0.00000000000E+00  0.00000000000E+00  0.45593999997E+02  0.45594000000E+02  0.51100000000E-03 0. -1.
         11   -1    0    0    0    0 -0.00000000000E+00 -0.00000000000E+00 -0.45593999997E+02  0.45594000000E+02  0.51100000000E-03 0.  1.
         23    2    1    2    0    0  0.35527136788E-14  0.35527136788E-14 -0.17763568394E-14  0.91188000000E+02  0.91188000000E+02 0.  0.
    9900012    2    3    3    0    0  0.22968297630E+02 -0.26429353096E+02  0.11390251047E+02  0.54366929673E+02  0.39999647774E+02 0.  0.
        -12    1    3    3    0    0 -0.22968297630E+02  0.26429353096E+02 -0.11390251047E+02  0.36821070327E+02  0.00000000000E+00 0.  1.
         11    1    4    4    0    0 -0.17903465044E+01 -0.43826474145E+01  0.92231764796E+01  0.10367252462E+02  0.51100000000E-03 0. -1.
        -11    1    4    4    0    0 -0.59983309514E+01 -0.17603429471E+01 -0.27480057735E+01  0.68286395048E+01  0.51100000000E-03 0.  1.
        -12    1    4    4    0    0  0.30756975086E+02 -0.20286362735E+02  0.49150803404E+01  0.37171037707E+02  0.00000000000E+00 0.  1.
</event>
<event>
 8    1  0.2482403E-006  0.9118800E+02  0.7816164E-02  0.1184000E+00
        -11   -1    0    0    0    0  0.00000000000E+00  0.00000000000E+00  0.45593999997E+02  0.45594000000E+02  0.51100000000E-03 0.  1.
         11   -1    0    0    0    0 -0.00000000000E+00 -0.00000000000E+00 -0.45593999997E+02  0.45594000000E+02  0.51100000000E-03 0. -1.
         23    2    1    2    0    0  0.00000000000E+00  0.17763568394E-14  0.00000000000E+00  0.91188000000E+02  0.91188000000E+02 0.  0.
    9900012    2    3    3    0    0 -0.21490034580E+02 -0.12025662825E+02  0.27374095115E+02  0.54367092406E+02  0.40000018758E+02 0.  0.
         12    1    3    3    0    0  0.21490034580E+02  0.12025662825E+02 -0.27374095115E+02  0.36820907594E+02  0.00000000000E+00 0. -1.
         11    1    4    4    0    0  0.81368494523E+01 -0.30407439326E+01  0.27507939667E-01  0.86864952438E+01  0.51100000000E-03 0. -1.
        -11    1    4    4    0    0 -0.24420779153E+02 -0.14060149394E+02  0.25887191782E+02  0.38264983392E+02  0.51100000000E-03 0.  1.
         12    1    4    4    0    0 -0.52061048801E+01  0.50752305015E+01  0.14593953938E+01  0.74156137697E+01  0.00000000000E+00 0. -1.
</event>
<event>
 8    1  0.2482403E-006  0.9118800E+02  0.7816164E-02  0.1184000E+00
        -11   -1    0    0    0    0  0.00000000000E+00  0.00000000000E+00  0.45593999997E+02  0.45594000000E+02  0.51100000000E-03 0.  1.
         11   -1    0    0    0    0 -0.00000000000E+00 -0.00000000000E+00 -0.45593999997E+02  0.45594000000E+02  0.51100000000E-03 0. -1.
         23    2    1    2    0    0 -0.22204460493E-14  0.00000000000E+00  0.00000000000E+00  0.91188000000E+02  0.91188000000E+02 0.  0.
    9900012    2    3    3    0    0 -0.36665464287E+01 -0.31523603716E+02 -0.18670815251E+02  0.54367075295E+02  0.39999979750E+02 0.  0.
        -12    1    3    3    0    0  0.36665464287E+01  0.31523603716E+02  0.18670815251E+02  0.36820924705E+02  0.00000000000E+00 0.  1.
         11    1    4    4    0    0  0.12834839130E+02 -0.16510276295E+02 -0.19534664249E+02  0.28616873107E+02  0.51100000000E-03 0. -1.
        -11    1    4    4    0    0  0.20630316691E+01 -0.48896921851E+00  0.49053335387E+00  0.21761925000E+01  0.51100000000E-03 0.  1.
         12    1    4    4    0    0 -0.18564417228E+02 -0.14524358203E+02  0.37331564368E+00  0.23574009688E+02  0.00000000000E+00 0. -1.
</event>
<event>
 8    1  0.2482403E-006  0.9118800E+02  0.7816164E-02  0.1184000E+00
        -11   -1    0    0    0    0  0.00000000000E+00  0.00000000000E+00  0.45593999997E+02  0.45594000000E+02  0.51100000000E-03 0. -1.
         11   -1    0    0    0    0 -0.00000000000E+00 -0.00000000000E+00 -0.45593999997E+02  0.45594000000E+02  0.51100000000E-03 0.  1.
         23    2    1    2    0    0  0.35527136788E-14  0.00000000000E+00  0.00000000000E+00  0.91188000000E+02  0.91188000000E+02 0.  0.
    9900012    2    3    3    0    0 -0.28558026945E+02 -0.10652086939E+02 -0.20658005164E+02  0.54367067957E+02  0.39999963021E+02 0.  0.
         12    1    3    3    0    0  0.28558026945E+02  0.10652086939E+02  0.20658005164E+02  0.36820932043E+02  0.00000000000E+00 0. -1.
         11    1    4    4    0    0 -0.10489719431E+02 -0.28136059828E+01 -0.22684839600E+02  0.25150597216E+02  0.51100000000E-03 0. -1.
        -11    1    4    4    0    0 -0.20469359975E+02 -0.68525512385E+01 -0.46252806272E+01  0.22075900376E+02  0.51100000000E-03 0.  1.
         12    1    4    4    0    0  0.24010524600E+01 -0.98592971780E+00  0.66521150634E+01  0.71405703652E+01  0.00000000000E+00 0. -1.
</event>
<event>
 8    1  0.2482403E-006  0.9118800E+02  0.7816164E-02  0.1184000E+00
        -11   -1    0    0    0    0  0.00000000000E+00  0.00000000000E+00  0.45593999997E+02  0.45594000000E+02  0.51100000000E-03 0. -1.
         11   -1    0    0    0    0 -0.00000000000E+00 -0.00000000000E+00 -0.45593999997E+02  0.45594000000E+02  0.51100000000E-03 0.  1.
         23    2    1    2    0    0  0.00000000000E+00 -0.35527136788E-14 -0.35527136788E-14  0.91188000000E+02  0.91188000000E+02 0.  0.
    9900012    2    3    3    0    0  0.68737208799E+01  0.20655280469E+02  0.29696669261E+02  0.54367070962E+02  0.39999969872E+02 0.  0.
        -12    1    3    3    0    0 -0.68737208799E+01 -0.20655280469E+02 -0.29696669261E+02  0.36820929038E+02  0.00000000000E+00 0.  1.
         11    1    4    4    0    0 -0.75287336029E+00  0.76986627147E+01 -0.22639165488E+01  0.80598724738E+01  0.51100000000E-03 0. -1.
        -11    1    4    4    0    0  0.43947882760E+01  0.94760939338E+01 -0.31238716944E+01  0.10902710436E+02  0.51100000000E-03 0.  1.
         12    1    4    4    0    0  0.32318059643E+01  0.34805238208E+01  0.35084457504E+02  0.35404488052E+02  0.00000000000E+00 0. -1.
</event>
<event>
 8    1  0.2482403E-006  0.9118800E+02  0.7816164E-02  0.1184000E+00
        -11   -1    0    0    0    0  0.00000000000E+00  0.00000000000E+00  0.45593999997E+02  0.45594000000E+02  0.51100000000E-03 0. -1.
         11   -1    0    0    0    0 -0.00000000000E+00 -0.00000000000E+00 -0.45593999997E+02  0.45594000000E+02  0.51100000000E-03 0.  1.
         23    2    1    2    0    0 -0.44408920985E-15  0.00000000000E+00  0.00000000000E+00  0.91188000000E+02  0.91188000000E+02 0.  0.
    9900012    2    3    3    0    0  0.20694307979E+01  0.37356464754E+01 -0.36572452241E+02  0.54367056756E+02  0.39999937487E+02 0.  0.
         12    1    3    3    0    0 -0.20694307979E+01 -0.37356464754E+01  0.36572452241E+02  0.36820943244E+02  0.00000000000E+00 0. -1.
         11    1    4    4    0    0  0.25452677178E+01 -0.30072932891E+01 -0.25340602275E+02  0.25645044836E+02  0.51100000000E-03 0.  1.
        -11    1    4    4    0    0 -0.10385521136E+01  0.97086926852E+01 -0.18463113368E+02  0.20885972796E+02  0.51100000000E-03 0. -1.
         12    1    4    4    0    0  0.56271519364E+00 -0.29657529206E+01  0.72312634016E+01  0.78360391244E+01  0.00000000000E+00 0. -1.
</event>
<event>
 8    1  0.2482403E-006  0.9118800E+02  0.7816164E-02  0.1184000E+00
        -11   -1    0    0    0    0  0.00000000000E+00  0.00000000000E+00  0.45593999997E+02  0.45594000000E+02  0.51100000000E-03 0. -1.
         11   -1    0    0    0    0 -0.00000000000E+00 -0.00000000000E+00 -0.45593999997E+02  0.45594000000E+02  0.51100000000E-03 0.  1.
         23    2    1    2    0    0 -0.35527136788E-14  0.00000000000E+00 -0.35527136788E-14  0.91188000000E+02  0.91188000000E+02 0.  0.
    9900012    2    3    3    0    0 -0.25994925285E+02  0.46769496756E+01 -0.25654835108E+02  0.54367074383E+02  0.39999977672E+02 0.  0.
         12    1    3    3    0    0  0.25994925285E+02 -0.46769496756E+01  0.25654835108E+02  0.36820925617E+02  0.00000000000E+00 0. -1.
         11    1    4    4    0    0  0.36189880402E+01  0.75013898831E+00  0.62464307604E+01  0.72579391319E+01  0.51100000000E-03 0. -1.
        -11    1    4    4    0    0  0.15755969329E+01  0.11693000561E+01 -0.65016920722E+01  0.67913009342E+01  0.51100000000E-03 0.  1.
        -12    1    4    4    0    0 -0.31189510258E+02  0.27575106312E+01 -0.25399573796E+02  0.40317834317E+02  0.00000000000E+00 0.  1.
</event>
<event>
 8    1  0.2482403E-006  0.9118800E+02  0.7816164E-02  0.1184000E+00
        -11   -1    0    0    0    0  0.00000000000E+00  0.00000000000E+00  0.45593999997E+02  0.45594000000E+02  0.51100000000E-03 0. -1.
         11   -1    0    0    0    0 -0.00000000000E+00 -0.00000000000E+00 -0.45593999997E+02  0.45594000000E+02  0.51100000000E-03 0.  1.
         23    2    1    2    0    0 -0.88817841970E-15  0.00000000000E+00  0.71054273576E-14  0.91188000000E+02  0.91188000000E+02 0.  0.
    9900012    2    3    3    0    0 -0.20013330667E+01  0.26027998392E+02 -0.25967659333E+02  0.54367063489E+02  0.39999952836E+02 0.  0.
         12    1    3    3    0    0  0.20013330667E+01 -0.26027998392E+02  0.25967659333E+02  0.36820936511E+02  0.00000000000E+00 0. -1.
         11    1    4    4    0    0  0.63086646751E+01  0.79897984698E+01  0.41543820273E+01  0.10995227140E+02  0.51100000000E-03 0. -1.
        -11    1    4    4    0    0 -0.95506763547E+01  0.14340638637E+02 -0.49885408355E+01  0.17937527011E+02  0.51100000000E-03 0.  1.
        -12    1    4    4    0    0  0.12406786129E+01  0.36975612852E+01 -0.25133500524E+02  0.25434309338E+02  0.00000000000E+00 0.  1.
</event>
<event>
 8    1  0.2482403E-006  0.9118800E+02  0.7816164E-02  0.1184000E+00
        -11   -1    0    0    0    0  0.00000000000E+00  0.00000000000E+00  0.45593999997E+02  0.45594000000E+02  0.51100000000E-03 0. -1.
         11   -1    0    0    0    0 -0.00000000000E+00 -0.00000000000E+00 -0.45593999997E+02  0.45594000000E+02  0.51100000000E-03 0.  1.
         23    2    1    2    0    0 -0.35527136788E-14  0.00000000000E+00  0.00000000000E+00  0.91188000000E+02  0.91188000000E+02 0.  0.
    9900012    2    3    3    0    0 -0.29147602576E+02 -0.15265218452E+02 -0.16527874012E+02  0.54367078641E+02  0.39999987379E+02 0.  0.
         12    1    3    3    0    0  0.29147602576E+02  0.15265218452E+02  0.16527874012E+02  0.36820921359E+02  0.00000000000E+00 0. -1.
         11    1    4    4    0    0 -0.53608327759E+00  0.24238061629E+01  0.71177078159E+01  0.75381686377E+01  0.51100000000E-03 0. -1.
        -11    1    4    4    0    0 -0.13303980383E+02 -0.19627211161E+02 -0.19889418157E+02  0.30948542242E+02  0.51100000000E-03 0.  1.
        -12    1    4    4    0    0 -0.15307538916E+02  0.19381865459E+01 -0.37561636708E+01  0.15880367762E+02  0.00000000000E+00 0.  1.
</event>
<event>
 8    1  0.2482403E-006  0.9118800E+02  0.7816164E-02  0.1184000E+00
        -11   -1    0    0    0    0  0.00000000000E+00  0.00000000000E+00  0.45593999997E+02  0.45594000000E+02  0.51100000000E-03 0.  1.
         11   -1    0    0    0    0 -0.00000000000E+00 -0.00000000000E+00 -0.45593999997E+02  0.45594000000E+02  0.51100000000E-03 0. -1.
         23    2    1    2    0    0  0.00000000000E+00  0.00000000000E+00  0.00000000000E+00  0.91188000000E+02  0.91188000000E+02 0.  0.
    9900012    2    3    3    0    0  0.20050300889E+02  0.13645140576E+02 -0.27705039212E+02  0.54367168602E+02  0.40000192462E+02 0.  0.
        -12    1    3    3    0    0 -0.20050300889E+02 -0.13645140576E+02  0.27705039212E+02  0.36820831398E+02  0.00000000000E+00 0.  1.
         11    1    4    4    0    0 -0.53882077011E+01 -0.29340890644E+00 -0.80072622230E+01  0.96558334485E+01  0.51100000000E-03 0. -1.
        -11    1    4    4    0    0  0.30135206167E+02  0.84672452943E+01 -0.10483508860E+02  0.33011041363E+02  0.51100000000E-03 0.  1.
        -12    1    4    4    0    0 -0.46966975762E+01  0.54713041879E+01 -0.92142681288E+01  0.11700293791E+02  0.00000000000E+00 0.  1.
</event>
<event>
 8    1  0.2482403E-006  0.9118800E+02  0.7816164E-02  0.1184000E+00
        -11   -1    0    0    0    0  0.00000000000E+00  0.00000000000E+00  0.45593999997E+02  0.45594000000E+02  0.51100000000E-03 0. -1.
         11   -1    0    0    0    0 -0.00000000000E+00 -0.00000000000E+00 -0.45593999997E+02  0.45594000000E+02  0.51100000000E-03 0.  1.
         23    2    1    2    0    0  0.17763568394E-14  0.35527136788E-14 -0.53290705182E-14  0.91188000000E+02  0.91188000000E+02 0.  0.
    9900012    2    3    3    0    0 -0.15332134846E+02 -0.31621374957E+02  0.10990641227E+02  0.54367083285E+02  0.39999997966E+02 0.  0.
        -12    1    3    3    0    0  0.15332134846E+02  0.31621374957E+02 -0.10990641227E+02  0.36820916715E+02  0.00000000000E+00 0.  1.
         11    1    4    4    0    0  0.34765652638E+01 -0.77446893898E+01  0.11348956151E+02  0.14172703545E+02  0.51100000000E-03 0. -1.
        -11    1    4    4    0    0 -0.35625019466E+00 -0.50404765436E+01 -0.10729357520E+02  0.11859697763E+02  0.51100000000E-03 0.  1.
        -12    1    4    4    0    0 -0.18452449915E+02 -0.18836209024E+02  0.10371042596E+02  0.28334681978E+02  0.00000000000E+00 0.  1.
</event>
<event>
 8    1  0.2482403E-006  0.9118800E+02  0.7816164E-02  0.1184000E+00
        -11   -1    0    0    0    0  0.00000000000E+00  0.00000000000E+00  0.45593999997E+02  0.45594000000E+02  0.51100000000E-03 0.  1.
         11   -1    0    0    0    0 -0.00000000000E+00 -0.00000000000E+00 -0.45593999997E+02  0.45594000000E+02  0.51100000000E-03 0. -1.
         23    2    1    2    0    0 -0.88817841970E-15  0.17763568394E-14  0.00000000000E+00  0.91188000000E+02  0.91188000000E+02 0.  0.
    9900012    2    3    3    0    0 -0.52054458582E+01  0.13869186257E+02 -0.33709473729E+02  0.54367087285E+02  0.40000007085E+02 0.  0.
        -12    1    3    3    0    0  0.52054458582E+01 -0.13869186257E+02  0.33709473729E+02  0.36820912715E+02  0.00000000000E+00 0.  1.
         11    1    4    4    0    0  0.11103313289E+02  0.54348981654E+01 -0.32015840988E+02  0.34319611864E+02  0.51100000000E-03 0. -1.
        -11    1    4    4    0    0 -0.72356523561E+01  0.80488625837E+01 -0.76589815378E-01  0.10823341451E+02  0.51100000000E-03 0.  1.
         12    1    4    4    0    0 -0.90731067913E+01  0.38542550818E+00 -0.16170429258E+01  0.92241339698E+01  0.00000000000E+00 0. -1.
</event>
<event>
 8    1  0.2482403E-006  0.9118800E+02  0.7816164E-02  0.1184000E+00
        -11   -1    0    0    0    0  0.00000000000E+00  0.00000000000E+00  0.45593999997E+02  0.45594000000E+02  0.51100000000E-03 0. -1.
         11   -1    0    0    0    0 -0.00000000000E+00 -0.00000000000E+00 -0.45593999997E+02  0.45594000000E+02  0.51100000000E-03 0.  1.
         23    2    1    2    0    0  0.00000000000E+00  0.00000000000E+00 -0.88817841970E-15  0.91188000000E+02  0.91188000000E+02 0.  0.
    9900012    2    3    3    0    0  0.81337150082E+01 -0.35542523582E+02  0.51333966086E+01  0.54367081175E+02  0.39999993154E+02 0.  0.
         12    1    3    3    0    0 -0.81337150082E+01  0.35542523582E+02 -0.51333966086E+01  0.36820918825E+02  0.00000000000E+00 0. -1.
         11    1    4    4    0    0  0.16476793917E+02 -0.15000712353E+02 -0.79120931261E+01  0.23645450446E+02  0.51100000000E-03 0.  1.
        -11    1    4    4    0    0  0.10042860875E+01  0.22344156800E+01  0.35951969362E+01  0.43504764392E+01  0.51100000000E-03 0. -1.
         12    1    4    4    0    0 -0.93473649965E+01 -0.22776226909E+02  0.94502927985E+01  0.26371154290E+02  0.00000000000E+00 0. -1.
</event>
<event>
 8    1  0.2482403E-006  0.9118800E+02  0.7816164E-02  0.1184000E+00
        -11   -1    0    0    0    0  0.00000000000E+00  0.00000000000E+00  0.45593999997E+02  0.45594000000E+02  0.51100000000E-03 0. -1.
         11   -1    0    0    0    0 -0.00000000000E+00 -0.00000000000E+00 -0.45593999997E+02  0.45594000000E+02  0.51100000000E-03 0.  1.
         23    2    1    2    0    0 -0.88817841970E-15  0.00000000000E+00  0.00000000000E+00  0.91188000000E+02  0.91188000000E+02 0.  0.
    9900012    2    3    3    0    0 -0.40437465820E+01 -0.22283399363E+02  0.29032388124E+02  0.54367063920E+02  0.39999953819E+02 0.  0.
        -12    1    3    3    0    0  0.40437465820E+01  0.22283399363E+02 -0.29032388124E+02  0.36820936080E+02  0.00000000000E+00 0.  1.
         11    1    4    4    0    0  0.10535782254E+02 -0.16511512157E+02  0.18897924448E+02  0.27216985323E+02  0.51100000000E-03 0. -1.
        -11    1    4    4    0    0 -0.37990379266E+01 -0.35939458919E+01  0.14425616466E+02  0.15344300144E+02  0.51100000000E-03 0.  1.
        -12    1    4    4    0    0 -0.10780490909E+02 -0.21779413140E+01 -0.42911527894E+01  0.11805778453E+02  0.00000000000E+00 0.  1.
</event>
<event>
 8    1  0.2482403E-006  0.9118800E+02  0.7816164E-02  0.1184000E+00
        -11   -1    0    0    0    0  0.00000000000E+00  0.00000000000E+00  0.45593999997E+02  0.45594000000E+02  0.51100000000E-03 0.  1.
         11   -1    0    0    0    0 -0.00000000000E+00 -0.00000000000E+00 -0.45593999997E+02  0.45594000000E+02  0.51100000000E-03 0. -1.
         23    2    1    2    0    0  0.35527136788E-14 -0.35527136788E-14 -0.88817841970E-15  0.91188000000E+02  0.91188000000E+02 0.  0.
    9900012    2    3    3    0    0 -0.19505222865E+02  0.30348948985E+02 -0.73669406584E+01  0.54367024481E+02  0.39999863909E+02 0.  0.
        -12    1    3    3    0    0  0.19505222865E+02 -0.30348948985E+02  0.73669406584E+01  0.36820975519E+02  0.00000000000E+00 0.  1.
         11    1    4    4    0    0 -0.13720324253E+02  0.19427748807E+02 -0.29185075192E+01  0.23962520896E+02  0.51100000000E-03 0. -1.
        -11    1    4    4    0    0 -0.25970492661E+01  0.18207343946E+02  0.39787822244E+01  0.18817086563E+02  0.51100000000E-03 0.  1.
        -12    1    4    4    0    0 -0.31878493452E+01 -0.72861437675E+01 -0.84272153636E+01  0.11587417022E+02  0.00000000000E+00 0.  1.
</event>
<event>
 8    1  0.2482403E-006  0.9118800E+02  0.7816164E-02  0.1184000E+00
        -11   -1    0    0    0    0  0.00000000000E+00  0.00000000000E+00  0.45593999997E+02  0.45594000000E+02  0.51100000000E-03 0.  1.
         11   -1    0    0    0    0 -0.00000000000E+00 -0.00000000000E+00 -0.45593999997E+02  0.45594000000E+02  0.51100000000E-03 0. -1.
         23    2    1    2    0    0 -0.35527136788E-14  0.00000000000E+00 -0.35527136788E-14  0.91188000000E+02  0.91188000000E+02 0.  0.
    9900012    2    3    3    0    0  0.29437104852E+02  0.51065988783E+01 -0.21521133159E+02  0.54367086559E+02  0.40000005429E+02 0.  0.
        -12    1    3    3    0    0 -0.29437104852E+02 -0.51065988783E+01  0.21521133159E+02  0.36820913441E+02  0.00000000000E+00 0.  1.
         11    1    4    4    0    0  0.10015809871E+02  0.37512591755E+01 -0.15417400175E+02  0.18763918066E+02  0.51100000000E-03 0. -1.
        -11    1    4    4    0    0  0.20772524916E+02  0.53175095548E+01  0.64325400324E+01  0.22386408170E+02  0.51100000000E-03 0.  1.
        -12    1    4    4    0    0 -0.13512299352E+01 -0.39621698520E+01 -0.12536273017E+02  0.13216760323E+02  0.00000000000E+00 0.  1.
</event>
<event>
 8    1  0.2482403E-006  0.9118800E+02  0.7816164E-02  0.1184000E+00
        -11   -1    0    0    0    0  0.00000000000E+00  0.00000000000E+00  0.45593999997E+02  0.45594000000E+02  0.51100000000E-03 0.  1.
         11   -1    0    0    0    0 -0.00000000000E+00 -0.00000000000E+00 -0.45593999997E+02  0.45594000000E+02  0.51100000000E-03 0. -1.
         23    2    1    2    0    0  0.00000000000E+00  0.88817841970E-15 -0.35527136788E-14  0.91188000000E+02  0.91188000000E+02 0.  0.
    9900012    2    3    3    0    0  0.25831305941E+02  0.52364264084E+01  0.25711967581E+02  0.54367057521E+02  0.39999939230E+02 0.  0.
         12    1    3    3    0    0 -0.25831305941E+02 -0.52364264084E+01 -0.25711967581E+02  0.36820942479E+02  0.00000000000E+00 0. -1.
         11    1    4    4    0    0  0.11115099908E+02  0.53351016319E+01 -0.40329858824E+01  0.12972036493E+02  0.51100000000E-03 0. -1.
        -11    1    4    4    0    0  0.13295613672E+02 -0.30023147484E+00  0.34210555783E+02  0.36704572046E+02  0.51100000000E-03 0.  1.
         12    1    4    4    0    0  0.14205923612E+01  0.20155625132E+00 -0.44656023192E+01  0.46904489820E+01  0.00000000000E+00 0. -1.
</event>
<event>
 8    1  0.2482403E-006  0.9118800E+02  0.7816164E-02  0.1184000E+00
        -11   -1    0    0    0    0  0.00000000000E+00  0.00000000000E+00  0.45593999997E+02  0.45594000000E+02  0.51100000000E-03 0.  1.
         11   -1    0    0    0    0 -0.00000000000E+00 -0.00000000000E+00 -0.45593999997E+02  0.45594000000E+02  0.51100000000E-03 0. -1.
         23    2    1    2    0    0 -0.35527136788E-14 -0.88817841970E-15  0.00000000000E+00  0.91188000000E+02  0.91188000000E+02 0.  0.
    9900012    2    3    3    0    0 -0.21968375187E+02  0.32670807874E+01 -0.29368286713E+02  0.54367087604E+02  0.40000007811E+02 0.  0.
        -12    1    3    3    0    0  0.21968375187E+02 -0.32670807874E+01  0.29368286713E+02  0.36820912396E+02  0.00000000000E+00 0.  1.
         11    1    4    4    0    0 -0.97363545615E+01 -0.11057386512E+02 -0.62341620021E+01  0.15997723986E+02  0.51100000000E-03 0. -1.
        -11    1    4    4    0    0 -0.13159033594E+01 -0.56544045605E+01 -0.11315584632E+02  0.12717953782E+02  0.51100000000E-03 0.  1.
        -12    1    4    4    0    0 -0.10916117266E+02  0.19978871860E+02 -0.11818540079E+02  0.25651409835E+02  0.00000000000E+00 0.  1.
</event>
<event>
 8    1  0.2482403E-006  0.9118800E+02  0.7816164E-02  0.1184000E+00
        -11   -1    0    0    0    0  0.00000000000E+00  0.00000000000E+00  0.45593999997E+02  0.45594000000E+02  0.51100000000E-03 0.  1.
         11   -1    0    0    0    0 -0.00000000000E+00 -0.00000000000E+00 -0.45593999997E+02  0.45594000000E+02  0.51100000000E-03 0. -1.
         23    2    1    2    0    0 -0.17763568394E-14 -0.71054273576E-14 -0.35527136788E-14  0.91188000000E+02  0.91188000000E+02 0.  0.
    9900012    2    3    3    0    0 -0.14950196825E+02 -0.29284153263E+02 -0.16574367272E+02  0.54367086542E+02  0.40000005390E+02 0.  0.
        -12    1    3    3    0    0  0.14950196825E+02  0.29284153263E+02  0.16574367272E+02  0.36820913458E+02  0.00000000000E+00 0.  1.
         11    1    4    4    0    0 -0.11847863686E+02 -0.22830989219E+02 -0.14091631960E+02  0.29329166954E+02  0.51100000000E-03 0.  1.
        -11    1    4    4    0    0 -0.49545976503E+01  0.25428862712E+01 -0.11115765211E+02  0.12432801171E+02  0.51100000000E-03 0. -1.
        -12    1    4    4    0    0  0.18522645115E+01 -0.89960503149E+01  0.86330298989E+01  0.12605118418E+02  0.00000000000E+00 0.  1.
</event>
<event>
 8    1  0.2482403E-006  0.9118800E+02  0.7816164E-02  0.1184000E+00
        -11   -1    0    0    0    0  0.00000000000E+00  0.00000000000E+00  0.45593999997E+02  0.45594000000E+02  0.51100000000E-03 0.  1.
         11   -1    0    0    0    0 -0.00000000000E+00 -0.00000000000E+00 -0.45593999997E+02  0.45594000000E+02  0.51100000000E-03 0. -1.
         23    2    1    2    0    0  0.00000000000E+00  0.35527136788E-14  0.88817841970E-15  0.91188000000E+02  0.91188000000E+02 0.  0.
    9900012    2    3    3    0    0 -0.27821576493E+02 -0.23250318205E+02  0.64157555400E+01  0.54367091072E+02  0.40000015716E+02 0.  0.
         12    1    3    3    0    0  0.27821576493E+02  0.23250318205E+02 -0.64157555400E+01  0.36820908928E+02  0.00000000000E+00 0. -1.
         11    1    4    4    0    0 -0.13300781524E+02 -0.13160273036E+02  0.17617897401E+02  0.25700075576E+02  0.51100000000E-03 0. -1.
        -11    1    4    4    0    0 -0.93346973975E+01 -0.49180127454E+01  0.43996459368E+01  0.11431548867E+02  0.51100000000E-03 0.  1.
         12    1    4    4    0    0 -0.51860975712E+01 -0.51720324232E+01 -0.15601787798E+02  0.17235466628E+02  0.00000000000E+00 0. -1.
</event>
<event>
 8    1  0.2482403E-006  0.9118800E+02  0.7816164E-02  0.1184000E+00
        -11   -1    0    0    0    0  0.00000000000E+00  0.00000000000E+00  0.45593999997E+02  0.45594000000E+02  0.51100000000E-03 0. -1.
         11   -1    0    0    0    0 -0.00000000000E+00 -0.00000000000E+00 -0.45593999997E+02  0.45594000000E+02  0.51100000000E-03 0.  1.
         23    2    1    2    0    0 -0.88817841970E-15  0.00000000000E+00  0.00000000000E+00  0.91188000000E+02  0.91188000000E+02 0.  0.
    9900012    2    3    3    0    0  0.75431257157E+01 -0.11772461322E+02  0.34063045465E+02  0.54367073104E+02  0.39999974754E+02 0.  0.
        -12    1    3    3    0    0 -0.75431257157E+01  0.11772461322E+02 -0.34063045465E+02  0.36820926896E+02  0.00000000000E+00 0.  1.
         11    1    4    4    0    0 -0.47409544461E+01  0.67680877617E+00  0.14942019288E+02  0.15690718908E+02  0.51100000000E-03 0. -1.
        -11    1    4    4    0    0 -0.66536005887E+01 -0.24600767800E+01  0.15385572736E+02  0.16942202549E+02  0.51100000000E-03 0.  1.
         12    1    4    4    0    0  0.18937680751E+02 -0.99891933183E+01  0.37354534412E+01  0.21734151646E+02  0.00000000000E+00 0. -1.
</event>
<event>
 8    1  0.2482403E-006  0.9118800E+02  0.7816164E-02  0.1184000E+00
        -11   -1    0    0    0    0  0.00000000000E+00  0.00000000000E+00  0.45593999997E+02  0.45594000000E+02  0.51100000000E-03 0.  1.
         11   -1    0    0    0    0 -0.00000000000E+00 -0.00000000000E+00 -0.45593999997E+02  0.45594000000E+02  0.51100000000E-03 0. -1.
         23    2    1    2    0    0  0.35527136788E-14 -0.13322676296E-14 -0.35527136788E-14  0.91188000000E+02  0.91188000000E+02 0.  0.
    9900012    2    3    3    0    0 -0.26845918988E+02  0.32536631712E+01  0.24989823861E+02  0.54367068630E+02  0.39999964557E+02 0.  0.
        -12    1    3    3    0    0  0.26845918988E+02 -0.32536631712E+01 -0.24989823861E+02  0.36820931370E+02  0.00000000000E+00 0.  1.
         11    1    4    4    0    0 -0.16628043863E+02  0.15164769894E+02  0.77795859981E+01  0.23811426820E+02  0.51100000000E-03 0. -1.
        -11    1    4    4    0    0 -0.14056113365E+02 -0.37420514008E+01  0.15703221339E+02  0.21404869360E+02  0.51100000000E-03 0.  1.
        -12    1    4    4    0    0  0.38382382404E+01 -0.81690553217E+01  0.15070165236E+01  0.91507724506E+01  0.00000000000E+00 0.  1.
</event>
<event>
 8    1  0.2482403E-006  0.9118800E+02  0.7816164E-02  0.1184000E+00
        -11   -1    0    0    0    0  0.00000000000E+00  0.00000000000E+00  0.45593999997E+02  0.45594000000E+02  0.51100000000E-03 0.  1.
         11   -1    0    0    0    0 -0.00000000000E+00 -0.00000000000E+00 -0.45593999997E+02  0.45594000000E+02  0.51100000000E-03 0. -1.
         23    2    1    2    0    0  0.17763568394E-14 -0.35527136788E-14 -0.35527136788E-14  0.91188000000E+02  0.91188000000E+02 0.  0.
    9900012    2    3    3    0    0  0.13988667579E+02 -0.13166589864E+02 -0.31412377154E+02  0.54367090889E+02  0.40000015300E+02 0.  0.
        -12    1    3    3    0    0 -0.13988667579E+02  0.13166589864E+02  0.31412377154E+02  0.36820909111E+02  0.00000000000E+00 0.  1.
         11    1    4    4    0    0  0.25002606083E+01 -0.80436139422E+01 -0.49830815619E+00  0.84379701137E+01  0.51100000000E-03 0. -1.
        -11    1    4    4    0    0  0.14944237269E+02  0.10293406826E+02 -0.17358625006E+02  0.25111875956E+02  0.51100000000E-03 0.  1.
        -12    1    4    4    0    0 -0.34558302985E+01 -0.15416382748E+02 -0.13555443991E+02  0.20817244820E+02  0.00000000000E+00 0.  1.
</event>
<event>
 8    1  0.2482403E-006  0.9118800E+02  0.7816164E-02  0.1184000E+00
        -11   -1    0    0    0    0  0.00000000000E+00  0.00000000000E+00  0.45593999997E+02  0.45594000000E+02  0.51100000000E-03 0. -1.
         11   -1    0    0    0    0 -0.00000000000E+00 -0.00000000000E+00 -0.45593999997E+02  0.45594000000E+02  0.51100000000E-03 0.  1.
         23    2    1    2    0    0 -0.35527136788E-14  0.00000000000E+00  0.00000000000E+00  0.91188000000E+02  0.91188000000E+02 0.  0.
    9900012    2    3    3    0    0  0.20145696373E+02 -0.26276922454E+02  0.16107555039E+02  0.54367094724E+02  0.40000024042E+02 0.  0.
        -12    1    3    3    0    0 -0.20145696373E+02  0.26276922454E+02 -0.16107555039E+02  0.36820905276E+02  0.00000000000E+00 0.  1.
         11    1    4    4    0    0  0.19066910695E+02 -0.96867789741E+00  0.69472012326E+01  0.20316225671E+02  0.51100000000E-03 0. -1.
        -11    1    4    4    0    0 -0.44010509818E+01 -0.15573560187E+02 -0.41172422230E+01  0.16699003276E+02  0.51100000000E-03 0.  1.
         12    1    4    4    0    0  0.54798366605E+01 -0.97346843697E+01  0.13277596030E+02  0.17351865777E+02  0.00000000000E+00 0. -1.
</event>
<event>
 8    1  0.2482403E-006  0.9118800E+02  0.7816164E-02  0.1184000E+00
        -11   -1    0    0    0    0  0.00000000000E+00  0.00000000000E+00  0.45593999997E+02  0.45594000000E+02  0.51100000000E-03 0.  1.
         11   -1    0    0    0    0 -0.00000000000E+00 -0.00000000000E+00 -0.45593999997E+02  0.45594000000E+02  0.51100000000E-03 0. -1.
         23    2    1    2    0    0 -0.88817841970E-15  0.00000000000E+00 -0.44408920985E-15  0.91188000000E+02  0.91188000000E+02 0.  0.
    9900012    2    3    3    0    0  0.60206109748E+01  0.36299864128E+02  0.13610759886E+01  0.54367076328E+02  0.39999982104E+02 0.  0.
        -12    1    3    3    0    0 -0.60206109748E+01 -0.36299864128E+02 -0.13610759886E+01  0.36820923672E+02  0.00000000000E+00 0.  1.
         11    1    4    4    0    0  0.15019910523E+02  0.11302569237E+02 -0.33296031566E+01  0.19090103219E+02  0.51100000000E-03 0. -1.
        -11    1    4    4    0    0 -0.65073099539E+01 -0.54552328827E+00  0.69219185489E+01  0.95160724647E+01  0.51100000000E-03 0.  1.
        -12    1    4    4    0    0 -0.24919895946E+01  0.25542818180E+02 -0.22312394037E+01  0.25760900644E+02  0.00000000000E+00 0.  1.
</event>
<event>
 8    1  0.2482403E-006  0.9118800E+02  0.7816164E-02  0.1184000E+00
        -11   -1    0    0    0    0  0.00000000000E+00  0.00000000000E+00  0.45593999997E+02  0.45594000000E+02  0.51100000000E-03 0.  1.
         11   -1    0    0    0    0 -0.00000000000E+00 -0.00000000000E+00 -0.45593999997E+02  0.45594000000E+02  0.51100000000E-03 0. -1.
         23    2    1    2    0    0 -0.88817841970E-15 -0.71054273576E-14  0.00000000000E+00  0.91188000000E+02  0.91188000000E+02 0.  0.
    9900012    2    3    3    0    0  0.23561440887E+01 -0.36401792377E+02  0.50138798602E+01  0.54367069886E+02  0.39999967419E+02 0.  0.
        -12    1    3    3    0    0 -0.23561440887E+01  0.36401792377E+02 -0.50138798602E+01  0.36820930114E+02  0.00000000000E+00 0.  1.
         11    1    4    4    0    0  0.17425452862E+01 -0.25778867593E+02 -0.62337117524E+01  0.26579045147E+02  0.51100000000E-03 0. -1.
        -11    1    4    4    0    0 -0.45053073301E+01  0.62438010640E+01  0.44733336852E+01  0.89046931663E+01  0.51100000000E-03 0.  1.
        -12    1    4    4    0    0  0.51189061326E+01 -0.16866725848E+02  0.67742579273E+01  0.18883331573E+02  0.00000000000E+00 0.  1.
</event>
<event>
 8    1  0.2482403E-006  0.9118800E+02  0.7816164E-02  0.1184000E+00
        -11   -1    0    0    0    0  0.00000000000E+00  0.00000000000E+00  0.45593999997E+02  0.45594000000E+02  0.51100000000E-03 0. -1.
         11   -1    0    0    0    0 -0.00000000000E+00 -0.00000000000E+00 -0.45593999997E+02  0.45594000000E+02  0.51100000000E-03 0.  1.
         23    2    1    2    0    0  0.44408920985E-15  0.00000000000E+00  0.00000000000E+00  0.91188000000E+02  0.91188000000E+02 0.  0.
    9900012    2    3    3    0    0 -0.12620831197E+01  0.17997380166E+02  0.32097993734E+02  0.54367085449E+02  0.40000002898E+02 0.  0.
        -12    1    3    3    0    0  0.12620831197E+01 -0.17997380166E+02 -0.32097993734E+02  0.36820914551E+02  0.00000000000E+00 0.  1.
         11    1    4    4    0    0 -0.68128006638E+01  0.14459062785E+02  0.27883817328E+02  0.32140099853E+02  0.51100000000E-03 0. -1.
        -11    1    4    4    0    0  0.98020424816E+01  0.56550910150E+01 -0.45993757988E+01  0.12215332546E+02  0.51100000000E-03 0.  1.
         12    1    4    4    0    0 -0.42513249375E+01 -0.21167736342E+01  0.88135522049E+01  0.10011653051E+02  0.00000000000E+00 0. -1.
</event>
<event>
 8    1  0.2482403E-006  0.9118800E+02  0.7816164E-02  0.1184000E+00
        -11   -1    0    0    0    0  0.00000000000E+00  0.00000000000E+00  0.45593999997E+02  0.45594000000E+02  0.51100000000E-03 0.  1.
         11   -1    0    0    0    0 -0.00000000000E+00 -0.00000000000E+00 -0.45593999997E+02  0.45594000000E+02  0.51100000000E-03 0. -1.
         23    2    1    2    0    0  0.35527136788E-14  0.00000000000E+00  0.00000000000E+00  0.91188000000E+02  0.91188000000E+02 0.  0.
    9900012    2    3    3    0    0 -0.28054442389E+02 -0.21204458909E+02  0.10913186191E+02  0.54367103104E+02  0.40000043147E+02 0.  0.
        -12    1    3    3    0    0  0.28054442389E+02  0.21204458909E+02 -0.10913186191E+02  0.36820896896E+02  0.00000000000E+00 0.  1.
         11    1    4    4    0    0 -0.29088438974E+02 -0.14682607327E+02  0.14203955823E+02  0.35545303504E+02  0.51100000000E-03 0. -1.
        -11    1    4    4    0    0  0.48287918331E+01 -0.29814774461E+00  0.55505128777E+01  0.73630371527E+01  0.51100000000E-03 0.  1.
        -12    1    4    4    0    0 -0.37947952477E+01 -0.62237038372E+01 -0.88412825096E+01  0.11458762448E+02  0.00000000000E+00 0.  1.
</event>
<event>
 8    1  0.2482403E-006  0.9118800E+02  0.7816164E-02  0.1184000E+00
        -11   -1    0    0    0    0  0.00000000000E+00  0.00000000000E+00  0.45593999997E+02  0.45594000000E+02  0.51100000000E-03 0.  1.
         11   -1    0    0    0    0 -0.00000000000E+00 -0.00000000000E+00 -0.45593999997E+02  0.45594000000E+02  0.51100000000E-03 0. -1.
         23    2    1    2    0    0  0.71054273576E-14 -0.17763568394E-14  0.71054273576E-14  0.91188000000E+02  0.91188000000E+02 0.  0.
    9900012    2    3    3    0    0 -0.29008702347E+02  0.10591926335E+02 -0.20052071937E+02  0.54367091479E+02  0.40000016645E+02 0.  0.
        -12    1    3    3    0    0  0.29008702347E+02 -0.10591926335E+02  0.20052071937E+02  0.36820908521E+02  0.00000000000E+00 0.  1.
         11    1    4    4    0    0 -0.28020263733E+01 -0.20494750799E+01  0.32859975861E+01  0.47801130005E+01  0.51100000000E-03 0. -1.
        -11    1    4    4    0    0 -0.79314661740E+01 -0.10763649888E+02 -0.11442523665E+02  0.17598172140E+02  0.51100000000E-03 0.  1.
         12    1    4    4    0    0 -0.18275209800E+02  0.23405051303E+02 -0.11895545858E+02  0.31988806339E+02  0.00000000000E+00 0. -1.
</event>
<event>
 8    1  0.2482403E-006  0.9118800E+02  0.7816164E-02  0.1184000E+00
        -11   -1    0    0    0    0  0.00000000000E+00  0.00000000000E+00  0.45593999997E+02  0.45594000000E+02  0.51100000000E-03 0. -1.
         11   -1    0    0    0    0 -0.00000000000E+00 -0.00000000000E+00 -0.45593999997E+02  0.45594000000E+02  0.51100000000E-03 0.  1.
         23    2    1    2    0    0 -0.66613381478E-15  0.00000000000E+00  0.00000000000E+00  0.91188000000E+02  0.91188000000E+02 0.  0.
    9900012    2    3    3    0    0 -0.14804450284E+01 -0.11327770557E+01  0.36773688240E+02  0.54367094958E+02  0.40000024575E+02 0.  0.
        -12    1    3    3    0    0  0.14804450284E+01  0.11327770557E+01 -0.36773688240E+02  0.36820905042E+02  0.00000000000E+00 0.  1.
         11    1    4    4    0    0 -0.35577226385E+01 -0.12102057429E+02  0.96590676374E+01  0.15887566594E+02  0.51100000000E-03 0. -1.
        -11    1    4    4    0    0 -0.49227044410E+01 -0.28899805031E+01 -0.15191089737E+01  0.59070042032E+01  0.51100000000E-03 0.  1.
        -12    1    4    4    0    0  0.69999820511E+01  0.13859260876E+02  0.28633729577E+02  0.32572524161E+02  0.00000000000E+00 0.  1.
</event>
<event>
 8    1  0.2482403E-006  0.9118800E+02  0.7816164E-02  0.1184000E+00
        -11   -1    0    0    0    0  0.00000000000E+00  0.00000000000E+00  0.45593999997E+02  0.45594000000E+02  0.51100000000E-03 0. -1.
         11   -1    0    0    0    0 -0.00000000000E+00 -0.00000000000E+00 -0.45593999997E+02  0.45594000000E+02  0.51100000000E-03 0.  1.
         23    2    1    2    0    0 -0.35527136788E-14  0.00000000000E+00  0.35527136788E-14  0.91188000000E+02  0.91188000000E+02 0.  0.
    9900012    2    3    3    0    0 -0.30373407554E+02  0.80395216346E+01  0.19199015038E+02  0.54367082399E+02  0.39999995945E+02 0.  0.
        -12    1    3    3    0    0  0.30373407554E+02 -0.80395216346E+01 -0.19199015038E+02  0.36820917601E+02  0.00000000000E+00 0.  1.
         11    1    4    4    0    0 -0.15318698831E+02  0.28872316036E+01  0.20385178102E+02  0.25662309458E+02  0.51100000000E-03 0. -1.
        -11    1    4    4    0    0 -0.43028678370E+01  0.83166799875E+01 -0.10545611543E+02  0.14102899018E+02  0.51100000000E-03 0.  1.
        -12    1    4    4    0    0 -0.10751840886E+02 -0.31643899565E+01  0.93594484781E+01  0.14601873923E+02  0.00000000000E+00 0.  1.
</event>
<event>
 8    1  0.2482403E-006  0.9118800E+02  0.7816164E-02  0.1184000E+00
        -11   -1    0    0    0    0  0.00000000000E+00  0.00000000000E+00  0.45593999997E+02  0.45594000000E+02  0.51100000000E-03 0.  1.
         11   -1    0    0    0    0 -0.00000000000E+00 -0.00000000000E+00 -0.45593999997E+02  0.45594000000E+02  0.51100000000E-03 0. -1.
         23    2    1    2    0    0  0.00000000000E+00  0.35527136788E-14 -0.17763568394E-14  0.91188000000E+02  0.91188000000E+02 0.  0.
    9900012    2    3    3    0    0  0.22074048806E+02 -0.26773516589E+02  0.12316438688E+02  0.54367089050E+02  0.40000011108E+02 0.  0.
         12    1    3    3    0    0 -0.22074048806E+02  0.26773516589E+02 -0.12316438688E+02  0.36820910950E+02  0.00000000000E+00 0. -1.
         11    1    4    4    0    0  0.13020604199E+02  0.22284336882E+01 -0.40160468286E+01  0.13806907068E+02  0.51100000000E-03 0. -1.
        -11    1    4    4    0    0 -0.58352910689E+01 -0.10999437952E+02  0.10961897955E+02  0.16589197212E+02  0.51100000000E-03 0.  1.
         12    1    4    4    0    0  0.14888735676E+02 -0.18002512325E+02  0.53705875611E+01  0.23970984769E+02  0.00000000000E+00 0. -1.
</event>
<event>
 8    1  0.2482403E-006  0.9118800E+02  0.7816164E-02  0.1184000E+00
        -11   -1    0    0    0    0  0.00000000000E+00  0.00000000000E+00  0.45593999997E+02  0.45594000000E+02  0.51100000000E-03 0.  1.
         11   -1    0    0    0    0 -0.00000000000E+00 -0.00000000000E+00 -0.45593999997E+02  0.45594000000E+02  0.51100000000E-03 0. -1.
         23    2    1    2    0    0  0.00000000000E+00  0.00000000000E+00 -0.71054273576E-14  0.91188000000E+02  0.91188000000E+02 0.  0.
    9900012    2    3    3    0    0 -0.11687960587E+02  0.18555204346E+02 -0.29578239937E+02  0.54367132156E+02  0.40000109376E+02 0.  0.
        -12    1    3    3    0    0  0.11687960587E+02 -0.18555204346E+02  0.29578239937E+02  0.36820867844E+02  0.00000000000E+00 0.  1.
         11    1    4    4    0    0 -0.73048222681E+01  0.88270855808E+01 -0.35077191048E+02  0.36901046059E+02  0.51100000000E-03 0. -1.
        -11    1    4    4    0    0 -0.45013714927E+01  0.12457089302E+02  0.62314493048E+01  0.14638045631E+02  0.51100000000E-03 0.  1.
         12    1    4    4    0    0  0.11823317335E+00 -0.27289705367E+01 -0.73249819372E+00  0.28280404660E+01  0.00000000000E+00 0. -1.
</event>
<event>
 8    1  0.2482403E-006  0.9118800E+02  0.7816164E-02  0.1184000E+00
        -11   -1    0    0    0    0  0.00000000000E+00  0.00000000000E+00  0.45593999997E+02  0.45594000000E+02  0.51100000000E-03 0. -1.
         11   -1    0    0    0    0 -0.00000000000E+00 -0.00000000000E+00 -0.45593999997E+02  0.45594000000E+02  0.51100000000E-03 0.  1.
         23    2    1    2    0    0  0.00000000000E+00  0.17763568394E-14  0.00000000000E+00  0.91188000000E+02  0.91188000000E+02 0.  0.
    9900012    2    3    3    0    0 -0.23585274971E+02  0.83699765084E+01 -0.27008484569E+02  0.54367082834E+02  0.39999996938E+02 0.  0.
         12    1    3    3    0    0  0.23585274971E+02 -0.83699765084E+01  0.27008484569E+02  0.36820917166E+02  0.00000000000E+00 0. -1.
         11    1    4    4    0    0  0.20430826264E+01  0.11982165605E+01 -0.39940737940E+01  0.46435477038E+01  0.51100000000E-03 0. -1.
        -11    1    4    4    0    0 -0.78995183041E+01 -0.28483170377E+01 -0.27599945153E+02  0.28849129486E+02  0.51100000000E-03 0.  1.
        -12    1    4    4    0    0 -0.17728839294E+02  0.10020076986E+02  0.45855343782E+01  0.20874405645E+02  0.00000000000E+00 0.  1.
</event>
<event>
 8    1  0.2482403E-006  0.9118800E+02  0.7816164E-02  0.1184000E+00
        -11   -1    0    0    0    0  0.00000000000E+00  0.00000000000E+00  0.45593999997E+02  0.45594000000E+02  0.51100000000E-03 0.  1.
         11   -1    0    0    0    0 -0.00000000000E+00 -0.00000000000E+00 -0.45593999997E+02  0.45594000000E+02  0.51100000000E-03 0. -1.
         23    2    1    2    0    0  0.00000000000E+00  0.00000000000E+00  0.00000000000E+00  0.91188000000E+02  0.91188000000E+02 0.  0.
    9900012    2    3    3    0    0  0.62918240501E+01 -0.27052074154E+02 -0.24174221188E+02  0.54366881929E+02  0.39999538931E+02 0.  0.
        -12    1    3    3    0    0 -0.62918240501E+01  0.27052074154E+02  0.24174221188E+02  0.36821118071E+02  0.00000000000E+00 0.  1.
         11    1    4    4    0    0 -0.14971193593E+02 -0.13151667072E+02 -0.78745779926E+01  0.21426898124E+02  0.51100000000E-03 0. -1.
        -11    1    4    4    0    0  0.86688568249E+01 -0.51049884671E+01  0.62980016885E+00  0.10080011628E+02  0.51100000000E-03 0.  1.
         12    1    4    4    0    0  0.12594160819E+02 -0.87954186154E+01 -0.16929443364E+02  0.22859972178E+02  0.00000000000E+00 0. -1.
</event>
<event>
 8    1  0.2482403E-006  0.9118800E+02  0.7816164E-02  0.1184000E+00
        -11   -1    0    0    0    0  0.00000000000E+00  0.00000000000E+00  0.45593999997E+02  0.45594000000E+02  0.51100000000E-03 0.  1.
         11   -1    0    0    0    0 -0.00000000000E+00 -0.00000000000E+00 -0.45593999997E+02  0.45594000000E+02  0.51100000000E-03 0. -1.
         23    2    1    2    0    0 -0.35527136788E-14 -0.17763568394E-14  0.35527136788E-14  0.91188000000E+02  0.91188000000E+02 0.  0.
    9900012    2    3    3    0    0 -0.16697801693E+02 -0.13990813102E+02  0.29685355131E+02  0.54367085538E+02  0.40000003100E+02 0.  0.
         12    1    3    3    0    0  0.16697801693E+02  0.13990813102E+02 -0.29685355131E+02  0.36820914462E+02  0.00000000000E+00 0. -1.
         11    1    4    4    0    0  0.70947407421E+00 -0.17086406814E+01  0.28724334094E+01  0.34166768054E+01  0.51100000000E-03 0. -1.
        -11    1    4    4    0    0 -0.59004878512E+01 -0.48631338500E+01  0.34439673930E+02  0.35278278988E+02  0.51100000000E-03 0.  1.
         12    1    4    4    0    0 -0.11506787916E+02 -0.74190385706E+01 -0.76267522087E+01  0.15672129744E+02  0.00000000000E+00 0. -1.
</event>
<event>
 8    1  0.2482403E-006  0.9118800E+02  0.7816164E-02  0.1184000E+00
        -11   -1    0    0    0    0  0.00000000000E+00  0.00000000000E+00  0.45593999997E+02  0.45594000000E+02  0.51100000000E-03 0.  1.
         11   -1    0    0    0    0 -0.00000000000E+00 -0.00000000000E+00 -0.45593999997E+02  0.45594000000E+02  0.51100000000E-03 0. -1.
         23    2    1    2    0    0 -0.71054273576E-14  0.00000000000E+00  0.88817841970E-15  0.91188000000E+02  0.91188000000E+02 0.  0.
    9900012    2    3    3    0    0 -0.35870848502E+02 -0.58840334624E+01  0.58685584470E+01  0.54367087460E+02  0.40000007482E+02 0.  0.
        -12    1    3    3    0    0  0.35870848502E+02  0.58840334624E+01 -0.58685584470E+01  0.36820912540E+02  0.00000000000E+00 0.  1.
         11    1    4    4    0    0 -0.26659673485E+02  0.77111541109E+01 -0.92292978417E+01  0.29246880637E+02  0.51100000000E-03 0. -1.
        -11    1    4    4    0    0  0.16517577981E+01  0.43390487921E+00  0.35800215383E+01  0.39665011968E+01  0.51100000000E-03 0.  1.
        -12    1    4    4    0    0 -0.10862932815E+02 -0.14029092453E+02  0.11517834750E+02  0.21153705626E+02  0.00000000000E+00 0.  1.
</event>
<event>
 8    1  0.2482403E-006  0.9118800E+02  0.7816164E-02  0.1184000E+00
        -11   -1    0    0    0    0  0.00000000000E+00  0.00000000000E+00  0.45593999997E+02  0.45594000000E+02  0.51100000000E-03 0.  1.
         11   -1    0    0    0    0 -0.00000000000E+00 -0.00000000000E+00 -0.45593999997E+02  0.45594000000E+02  0.51100000000E-03 0. -1.
         23    2    1    2    0    0  0.00000000000E+00  0.00000000000E+00  0.88817841970E-15  0.91188000000E+02  0.91188000000E+02 0.  0.
    9900012    2    3    3    0    0 -0.34697031595E+02  0.10672858497E+02  0.61622547649E+01  0.54367254573E+02  0.40000388448E+02 0.  0.
         12    1    3    3    0    0  0.34697031595E+02 -0.10672858497E+02 -0.61622547649E+01  0.36820745427E+02  0.00000000000E+00 0. -1.
         11    1    4    4    0    0 -0.17399838909E+02  0.99442005679E+01  0.16202868369E+00  0.20041650943E+02  0.51100000000E-03 0. -1.
        -11    1    4    4    0    0 -0.14821419443E+02 -0.10509913097E+02 -0.45312196495E+01  0.18726043346E+02  0.51100000000E-03 0.  1.
         12    1    4    4    0    0 -0.24757732438E+01  0.11238571027E+02  0.10531445731E+02  0.15599560284E+02  0.00000000000E+00 0. -1.
</event>
<event>
 8    1  0.2482403E-006  0.9118800E+02  0.7816164E-02  0.1184000E+00
        -11   -1    0    0    0    0  0.00000000000E+00  0.00000000000E+00  0.45593999997E+02  0.45594000000E+02  0.51100000000E-03 0.  1.
         11   -1    0    0    0    0 -0.00000000000E+00 -0.00000000000E+00 -0.45593999997E+02  0.45594000000E+02  0.51100000000E-03 0. -1.
         23    2    1    2    0    0 -0.35527136788E-14 -0.35527136788E-14  0.35527136788E-14  0.91188000000E+02  0.91188000000E+02 0.  0.
    9900012    2    3    3    0    0  0.11895350687E+02  0.22848046625E+02 -0.26310600594E+02  0.54367077875E+02  0.39999985631E+02 0.  0.
        -12    1    3    3    0    0 -0.11895350687E+02 -0.22848046625E+02  0.26310600594E+02  0.36820922125E+02  0.00000000000E+00 0.  1.
         11    1    4    4    0    0  0.46757534396E+01  0.47115415779E+00 -0.13777476919E+02  0.14556906504E+02  0.51100000000E-03 0. -1.
        -11    1    4    4    0    0 -0.44884807735E+01 -0.63641168411E+00 -0.13225122890E+02  0.13980534868E+02  0.51100000000E-03 0.  1.
        -12    1    4    4    0    0  0.11708078021E+02  0.23013304152E+02  0.69199921517E+00  0.25829636502E+02  0.00000000000E+00 0.  1.
</event>
<event>
 8    1  0.2482403E-006  0.9118800E+02  0.7816164E-02  0.1184000E+00
        -11   -1    0    0    0    0  0.00000000000E+00  0.00000000000E+00  0.45593999997E+02  0.45594000000E+02  0.51100000000E-03 0.  1.
         11   -1    0    0    0    0 -0.00000000000E+00 -0.00000000000E+00 -0.45593999997E+02  0.45594000000E+02  0.51100000000E-03 0. -1.
         23    2    1    2    0    0  0.35527136788E-14 -0.35527136788E-14 -0.17763568394E-14  0.91188000000E+02  0.91188000000E+02 0.  0.
    9900012    2    3    3    0    0  0.19651279160E+02 -0.28944630412E+02 -0.11480904129E+02  0.54367142298E+02  0.40000132496E+02 0.  0.
        -12    1    3    3    0    0 -0.19651279160E+02  0.28944630412E+02  0.11480904129E+02  0.36820857702E+02  0.00000000000E+00 0.  1.
         11    1    4    4    0    0  0.21253189805E+02 -0.22426502766E+02 -0.42935281622E+01  0.31194238050E+02  0.51100000000E-03 0. -1.
        -11    1    4    4    0    0  0.87547501801E+01  0.69949643086E+00 -0.28896041998E+00  0.87874025946E+01  0.51100000000E-03 0.  1.
        -12    1    4    4    0    0 -0.10356660825E+02 -0.72176240770E+01 -0.68984155472E+01  0.14385501653E+02  0.00000000000E+00 0.  1.
</event>
<event>
 8    1  0.2482403E-006  0.9118800E+02  0.7816164E-02  0.1184000E+00
        -11   -1    0    0    0    0  0.00000000000E+00  0.00000000000E+00  0.45593999997E+02  0.45594000000E+02  0.51100000000E-03 0.  1.
         11   -1    0    0    0    0 -0.00000000000E+00 -0.00000000000E+00 -0.45593999997E+02  0.45594000000E+02  0.51100000000E-03 0. -1.
         23    2    1    2    0    0  0.00000000000E+00  0.17763568394E-14 -0.35527136788E-14  0.91188000000E+02  0.91188000000E+02 0.  0.
    9900012    2    3    3    0    0 -0.34151800545E+02 -0.10814852542E+02 -0.85131881804E+01  0.54367069960E+02  0.39999967589E+02 0.  0.
        -12    1    3    3    0    0  0.34151800545E+02  0.10814852542E+02  0.85131881804E+01  0.36820930040E+02  0.00000000000E+00 0.  1.
         11    1    4    4    0    0 -0.30948716275E+01 -0.18257236359E+02 -0.13478749373E+00  0.18518182356E+02  0.51100000000E-03 0. -1.
        -11    1    4    4    0    0 -0.61110398662E+01  0.47530289147E+01  0.29950812395E+01  0.83010001809E+01  0.51100000000E-03 0.  1.
        -12    1    4    4    0    0 -0.24945889051E+02  0.26893549017E+01 -0.11373481926E+02  0.27547887423E+02  0.00000000000E+00 0.  1.
</event>
<event>
 8    1  0.2482403E-006  0.9118800E+02  0.7816164E-02  0.1184000E+00
        -11   -1    0    0    0    0  0.00000000000E+00  0.00000000000E+00  0.45593999997E+02  0.45594000000E+02  0.51100000000E-03 0. -1.
         11   -1    0    0    0    0 -0.00000000000E+00 -0.00000000000E+00 -0.45593999997E+02  0.45594000000E+02  0.51100000000E-03 0.  1.
         23    2    1    2    0    0  0.00000000000E+00  0.00000000000E+00  0.00000000000E+00  0.91188000000E+02  0.91188000000E+02 0.  0.
    9900012    2    3    3    0    0  0.68842846800E+01 -0.29611961996E+02 -0.20773016939E+02  0.54367083369E+02  0.39999998157E+02 0.  0.
         12    1    3    3    0    0 -0.68842846800E+01  0.29611961996E+02  0.20773016939E+02  0.36820916631E+02  0.00000000000E+00 0. -1.
         11    1    4    4    0    0  0.15440849588E+02 -0.20146845583E+01 -0.91738305522E+01  0.18073128039E+02  0.51100000000E-03 0. -1.
        -11    1    4    4    0    0  0.50193861861E+01 -0.14515812189E+02 -0.33763257261E+01  0.15725858223E+02  0.51100000000E-03 0.  1.
        -12    1    4    4    0    0 -0.13575951094E+02 -0.13081465248E+02 -0.82228606610E+01  0.20568097107E+02  0.00000000000E+00 0.  1.
</event>
<event>
 8    1  0.2482403E-006  0.9118800E+02  0.7816164E-02  0.1184000E+00
        -11   -1    0    0    0    0  0.00000000000E+00  0.00000000000E+00  0.45593999997E+02  0.45594000000E+02  0.51100000000E-03 0.  1.
         11   -1    0    0    0    0 -0.00000000000E+00 -0.00000000000E+00 -0.45593999997E+02  0.45594000000E+02  0.51100000000E-03 0. -1.
         23    2    1    2    0    0 -0.13322676296E-14  0.00000000000E+00  0.11102230246E-15  0.91188000000E+02  0.91188000000E+02 0.  0.
    9900012    2    3    3    0    0 -0.15535215558E+01  0.36786580436E+02 -0.33501864163E+00  0.54367106924E+02  0.40000051855E+02 0.  0.
        -12    1    3    3    0    0  0.15535215558E+01 -0.36786580436E+02  0.33501864163E+00  0.36820893076E+02  0.00000000000E+00 0.  1.
         11    1    4    4    0    0  0.10262367731E+02  0.81900097705E+01 -0.81075242549E+01  0.15431279963E+02  0.51100000000E-03 0. -1.
        -11    1    4    4    0    0  0.63218368430E+01  0.10502671457E+02  0.35365072912E+00  0.12263637222E+02  0.51100000000E-03 0.  1.
        -12    1    4    4    0    0 -0.18137726130E+02  0.18093899209E+02  0.74188548842E+01  0.26672189740E+02  0.00000000000E+00 0.  1.
</event>
<event>
 8    1  0.2482403E-006  0.9118800E+02  0.7816164E-02  0.1184000E+00
        -11   -1    0    0    0    0  0.00000000000E+00  0.00000000000E+00  0.45593999997E+02  0.45594000000E+02  0.51100000000E-03 0.  1.
         11   -1    0    0    0    0 -0.00000000000E+00 -0.00000000000E+00 -0.45593999997E+02  0.45594000000E+02  0.51100000000E-03 0. -1.
         23    2    1    2    0    0  0.35527136788E-14 -0.44408920985E-15  0.35527136788E-14  0.91188000000E+02  0.91188000000E+02 0.  0.
    9900012    2    3    3    0    0 -0.26679564140E+02 -0.75154266130E+00 -0.25365600344E+02  0.54367114081E+02  0.40000068170E+02 0.  0.
        -12    1    3    3    0    0  0.26679564140E+02  0.75154266130E+00  0.25365600344E+02  0.36820885919E+02  0.00000000000E+00 0.  1.
         11    1    4    4    0    0 -0.13164954519E+02 -0.31999384564E+01 -0.23571107929E+01  0.13751785527E+02  0.51100000000E-03 0. -1.
        -11    1    4    4    0    0 -0.20296272131E+02 -0.41738247050E+01 -0.67448269863E+01  0.21791102919E+02  0.51100000000E-03 0.  1.
        -12    1    4    4    0    0  0.67816625104E+01  0.66222205000E+01 -0.16263662565E+02  0.18824225635E+02  0.00000000000E+00 0.  1.
</event>
<event>
 8    1  0.2482403E-006  0.9118800E+02  0.7816164E-02  0.1184000E+00
        -11   -1    0    0    0    0  0.00000000000E+00  0.00000000000E+00  0.45593999997E+02  0.45594000000E+02  0.51100000000E-03 0. -1.
         11   -1    0    0    0    0 -0.00000000000E+00 -0.00000000000E+00 -0.45593999997E+02  0.45594000000E+02  0.51100000000E-03 0.  1.
         23    2    1    2    0    0 -0.17763568394E-14  0.00000000000E+00 -0.44408920985E-15  0.91188000000E+02  0.91188000000E+02 0.  0.
    9900012    2    3    3    0    0 -0.12849666416E+02 -0.34443467908E+02  0.20765761902E+01  0.54367101352E+02  0.40000039153E+02 0.  0.
         12    1    3    3    0    0  0.12849666416E+02  0.34443467908E+02 -0.20765761902E+01  0.36820898648E+02  0.00000000000E+00 0. -1.
         11    1    4    4    0    0  0.96390172556E+01 -0.65040258311E+01 -0.76032676497E+01  0.13893260412E+02  0.51100000000E-03 0. -1.
        -11    1    4    4    0    0 -0.51330274219E+01 -0.13463265410E+01 -0.32099864899E+01  0.62019818764E+01  0.51100000000E-03 0.  1.
         12    1    4    4    0    0 -0.17355656249E+02 -0.26593115536E+02  0.12889830330E+02  0.34271859064E+02  0.00000000000E+00 0. -1.
</event>
<event>
 8    1  0.2482403E-006  0.9118800E+02  0.7816164E-02  0.1184000E+00
        -11   -1    0    0    0    0  0.00000000000E+00  0.00000000000E+00  0.45593999997E+02  0.45594000000E+02  0.51100000000E-03 0.  1.
         11   -1    0    0    0    0 -0.00000000000E+00 -0.00000000000E+00 -0.45593999997E+02  0.45594000000E+02  0.51100000000E-03 0. -1.
         23    2    1    2    0    0  0.00000000000E+00  0.35527136788E-14  0.00000000000E+00  0.91188000000E+02  0.91188000000E+02 0.  0.
    9900012    2    3    3    0    0 -0.24704554050E+02  0.23128358939E+02 -0.14510107956E+02  0.54367092748E+02  0.40000019537E+02 0.  0.
        -12    1    3    3    0    0  0.24704554050E+02 -0.23128358939E+02  0.14510107956E+02  0.36820907252E+02  0.00000000000E+00 0.  1.
         11    1    4    4    0    0 -0.69333531426E+00  0.15222330720E+02 -0.22443487735E+02  0.27127665000E+02  0.51100000000E-03 0.  1.
        -11    1    4    4    0    0 -0.22140500376E+02  0.83533078044E+01  0.57947106193E+01  0.24363049473E+02  0.51100000000E-03 0. -1.
        -12    1    4    4    0    0 -0.18707183594E+01 -0.44727958566E+00  0.21386691597E+01  0.28763782753E+01  0.00000000000E+00 0.  1.
</event>
<event>
 8    1  0.2482403E-006  0.9118800E+02  0.7816164E-02  0.1184000E+00
        -11   -1    0    0    0    0  0.00000000000E+00  0.00000000000E+00  0.45593999997E+02  0.45594000000E+02  0.51100000000E-03 0. -1.
         11   -1    0    0    0    0 -0.00000000000E+00 -0.00000000000E+00 -0.45593999997E+02  0.45594000000E+02  0.51100000000E-03 0.  1.
         23    2    1    2    0    0  0.00000000000E+00  0.22204460493E-14  0.00000000000E+00  0.91188000000E+02  0.91188000000E+02 0.  0.
    9900012    2    3    3    0    0 -0.30436040091E+02  0.38655587194E+01 -0.20358878828E+02  0.54367095234E+02  0.40000025205E+02 0.  0.
         12    1    3    3    0    0  0.30436040091E+02 -0.38655587194E+01  0.20358878828E+02  0.36820904766E+02  0.00000000000E+00 0. -1.
         11    1    4    4    0    0 -0.25061227704E+02 -0.51940640276E+01 -0.24882346235E+02  0.35695582214E+02  0.51100000000E-03 0. -1.
        -11    1    4    4    0    0 -0.12091490085E+01 -0.25839359202E+01 -0.30452995353E+01  0.41728426384E+01  0.51100000000E-03 0.  1.
         12    1    4    4    0    0 -0.41656633788E+01  0.11643558667E+02  0.75687669422E+01  0.14498670382E+02  0.00000000000E+00 0. -1.
</event>
<event>
 8    1  0.2482403E-006  0.9118800E+02  0.7816164E-02  0.1184000E+00
        -11   -1    0    0    0    0  0.00000000000E+00  0.00000000000E+00  0.45593999997E+02  0.45594000000E+02  0.51100000000E-03 0. -1.
         11   -1    0    0    0    0 -0.00000000000E+00 -0.00000000000E+00 -0.45593999997E+02  0.45594000000E+02  0.51100000000E-03 0.  1.
         23    2    1    2    0    0 -0.35527136788E-14  0.71054273576E-14  0.13322676296E-14  0.91188000000E+02  0.91188000000E+02 0.  0.
    9900012    2    3    3    0    0 -0.25597715769E+02  0.26414909468E+02  0.16700699838E+01  0.54367087076E+02  0.40000006608E+02 0.  0.
        -12    1    3    3    0    0  0.25597715769E+02 -0.26414909468E+02 -0.16700699838E+01  0.36820912924E+02  0.00000000000E+00 0.  1.
         11    1    4    4    0    0 -0.92154618780E+01  0.12981316141E+02  0.14550985562E+00  0.15920442197E+02  0.51100000000E-03 0. -1.
        -11    1    4    4    0    0 -0.13521017316E+02 -0.28827010940E+01 -0.11010110907E+02  0.17673438186E+02  0.51100000000E-03 0.  1.
        -12    1    4    4    0    0 -0.28612365744E+01  0.16316294421E+02  0.12534671035E+02  0.20773206694E+02  0.00000000000E+00 0.  1.
</event>
<event>
 8    1  0.2482403E-006  0.9118800E+02  0.7816164E-02  0.1184000E+00
        -11   -1    0    0    0    0  0.00000000000E+00  0.00000000000E+00  0.45593999997E+02  0.45594000000E+02  0.51100000000E-03 0. -1.
         11   -1    0    0    0    0 -0.00000000000E+00 -0.00000000000E+00 -0.45593999997E+02  0.45594000000E+02  0.51100000000E-03 0.  1.
         23    2    1    2    0    0 -0.17763568394E-14 -0.35527136788E-14  0.35527136788E-14  0.91188000000E+02  0.91188000000E+02 0.  0.
    9900012    2    3    3    0    0 -0.11392577787E+02  0.28788830342E+02  0.19929683688E+02  0.54367083757E+02  0.39999999040E+02 0.  0.
         12    1    3    3    0    0  0.11392577787E+02 -0.28788830342E+02 -0.19929683688E+02  0.36820916243E+02  0.00000000000E+00 0. -1.
         11    1    4    4    0    0  0.43072859612E+01 -0.18520219258E+01  0.59257874237E+01  0.75562989894E+01  0.51100000000E-03 0. -1.
        -11    1    4    4    0    0 -0.13519988245E+01 -0.49953718219E+01 -0.14938204758E+01  0.53863847185E+01  0.51100000000E-03 0.  1.
        -12    1    4    4    0    0 -0.14347864924E+02  0.35636224090E+02  0.15497716740E+02  0.41424400049E+02  0.00000000000E+00 0.  1.
</event>
<event>
 8    1  0.2482403E-006  0.9118800E+02  0.7816164E-02  0.1184000E+00
        -11   -1    0    0    0    0  0.00000000000E+00  0.00000000000E+00  0.45593999997E+02  0.45594000000E+02  0.51100000000E-03 0.  1.
         11   -1    0    0    0    0 -0.00000000000E+00 -0.00000000000E+00 -0.45593999997E+02  0.45594000000E+02  0.51100000000E-03 0. -1.
         23    2    1    2    0    0 -0.35527136788E-14  0.44408920985E-15 -0.35527136788E-14  0.91188000000E+02  0.91188000000E+02 0.  0.
    9900012    2    3    3    0    0 -0.18877149629E+02 -0.23492832166E+01 -0.31526394279E+02  0.54367089556E+02  0.40000012260E+02 0.  0.
        -12    1    3    3    0    0  0.18877149629E+02  0.23492832166E+01  0.31526394279E+02  0.36820910444E+02  0.00000000000E+00 0.  1.
         11    1    4    4    0    0 -0.43087974602E+01 -0.97232565790E+01  0.48604737665E+01  0.11693231356E+02  0.51100000000E-03 0.  1.
        -11    1    4    4    0    0 -0.57189968081E+00 -0.13406711998E+01 -0.17672323203E+02  0.17732328560E+02  0.51100000000E-03 0. -1.
        -12    1    4    4    0    0 -0.13996452488E+02  0.87146445622E+01 -0.18714544842E+02  0.24941529639E+02  0.00000000000E+00 0.  1.
</event>
<event>
 8    1  0.2482403E-006  0.9118800E+02  0.7816164E-02  0.1184000E+00
        -11   -1    0    0    0    0  0.00000000000E+00  0.00000000000E+00  0.45593999997E+02  0.45594000000E+02  0.51100000000E-03 0.  1.
         11   -1    0    0    0    0 -0.00000000000E+00 -0.00000000000E+00 -0.45593999997E+02  0.45594000000E+02  0.51100000000E-03 0. -1.
         23    2    1    2    0    0  0.00000000000E+00  0.00000000000E+00  0.00000000000E+00  0.91188000000E+02  0.91188000000E+02 0.  0.
    9900012    2    3    3    0    0 -0.16923843496E+02  0.29126314340E+02  0.14866797531E+02  0.54367077489E+02  0.39999984753E+02 0.  0.
         12    1    3    3    0    0  0.16923843496E+02 -0.29126314340E+02 -0.14866797531E+02  0.36820922511E+02  0.00000000000E+00 0. -1.
         11    1    4    4    0    0  0.73465501856E+01  0.84541961309E+01 -0.62258778016E+01  0.12814319588E+02  0.51100000000E-03 0. -1.
        -11    1    4    4    0    0  0.14592229866E+01  0.54256123742E+01  0.53349928496E+01  0.77478222957E+01  0.51100000000E-03 0.  1.
        -12    1    4    4    0    0 -0.25729616668E+02  0.15246505835E+02  0.15757682483E+02  0.33804935605E+02  0.00000000000E+00 0.  1.
</event>
<event>
 8    1  0.2482403E-006  0.9118800E+02  0.7816164E-02  0.1184000E+00
        -11   -1    0    0    0    0  0.00000000000E+00  0.00000000000E+00  0.45593999997E+02  0.45594000000E+02  0.51100000000E-03 0. -1.
         11   -1    0    0    0    0 -0.00000000000E+00 -0.00000000000E+00 -0.45593999997E+02  0.45594000000E+02  0.51100000000E-03 0.  1.
         23    2    1    2    0    0  0.00000000000E+00 -0.88817841970E-15 -0.35527136788E-14  0.91188000000E+02  0.91188000000E+02 0.  0.
    9900012    2    3    3    0    0 -0.22202657354E+02 -0.67514070000E+01 -0.28587416146E+02  0.54367084042E+02  0.39999999691E+02 0.  0.
         12    1    3    3    0    0  0.22202657354E+02  0.67514070000E+01  0.28587416146E+02  0.36820915958E+02  0.00000000000E+00 0. -1.
         11    1    4    4    0    0 -0.31622466312E+01  0.48986926638E+01 -0.19770877272E+02  0.20612728639E+02  0.51100000000E-03 0.  1.
        -11    1    4    4    0    0 -0.37171102706E+01  0.63281962899E+01  0.22386121989E+01  0.76729630447E+01  0.51100000000E-03 0. -1.
        -12    1    4    4    0    0 -0.15323300452E+02 -0.17978295954E+02 -0.11055151073E+02  0.26081392359E+02  0.00000000000E+00 0.  1.
</event>
<event>
 8    1  0.2482403E-006  0.9118800E+02  0.7816164E-02  0.1184000E+00
        -11   -1    0    0    0    0  0.00000000000E+00  0.00000000000E+00  0.45593999997E+02  0.45594000000E+02  0.51100000000E-03 0. -1.
         11   -1    0    0    0    0 -0.00000000000E+00 -0.00000000000E+00 -0.45593999997E+02  0.45594000000E+02  0.51100000000E-03 0.  1.
         23    2    1    2    0    0  0.00000000000E+00  0.00000000000E+00  0.00000000000E+00  0.91188000000E+02  0.91188000000E+02 0.  0.
    9900012    2    3    3    0    0  0.34706942309E+02 -0.94018115738E+01 -0.79254935304E+01  0.54367090817E+02  0.40000015136E+02 0.  0.
        -12    1    3    3    0    0 -0.34706942309E+02  0.94018115738E+01  0.79254935304E+01  0.36820909183E+02  0.00000000000E+00 0.  1.
         11    1    4    4    0    0 -0.82529696202E+00 -0.74631291339E+00  0.39323458447E+00  0.11801405593E+01  0.51100000000E-03 0. -1.
        -11    1    4    4    0    0  0.20795886729E+01  0.63315781372E+01 -0.14550980212E+02  0.16004517992E+02  0.51100000000E-03 0.  1.
         12    1    4    4    0    0  0.33452650599E+02 -0.14987076798E+02  0.62322520975E+01  0.37182432266E+02  0.00000000000E+00 0. -1.
</event>
<event>
 8    1  0.2482403E-006  0.9118800E+02  0.7816164E-02  0.1184000E+00
        -11   -1    0    0    0    0  0.00000000000E+00  0.00000000000E+00  0.45593999997E+02  0.45594000000E+02  0.51100000000E-03 0. -1.
         11   -1    0    0    0    0 -0.00000000000E+00 -0.00000000000E+00 -0.45593999997E+02  0.45594000000E+02  0.51100000000E-03 0.  1.
         23    2    1    2    0    0  0.00000000000E+00 -0.88817841970E-15 -0.35527136788E-14  0.91188000000E+02  0.91188000000E+02 0.  0.
    9900012    2    3    3    0    0 -0.22428528238E+02  0.54587795612E+01  0.28686976675E+02  0.54367084965E+02  0.40000001795E+02 0.  0.
        -12    1    3    3    0    0  0.22428528238E+02 -0.54587795612E+01 -0.28686976675E+02  0.36820915035E+02  0.00000000000E+00 0.  1.
         11    1    4    4    0    0 -0.73528498371E+01  0.50595401121E+01  0.24368314215E+02  0.25951456314E+02  0.51100000000E-03 0. -1.
        -11    1    4    4    0    0 -0.12965776226E+02 -0.91250807057E+01 -0.31060728178E+01  0.16156303402E+02  0.51100000000E-03 0.  1.
        -12    1    4    4    0    0 -0.21099021754E+01  0.95243201548E+01  0.74247352783E+01  0.12259325249E+02  0.00000000000E+00 0.  1.
</event>
<event>
 8    1  0.2482403E-006  0.9118800E+02  0.7816164E-02  0.1184000E+00
        -11   -1    0    0    0    0  0.00000000000E+00  0.00000000000E+00  0.45593999997E+02  0.45594000000E+02  0.51100000000E-03 0. -1.
         11   -1    0    0    0    0 -0.00000000000E+00 -0.00000000000E+00 -0.45593999997E+02  0.45594000000E+02  0.51100000000E-03 0.  1.
         23    2    1    2    0    0  0.88817841970E-15 -0.71054273576E-14  0.00000000000E+00  0.91188000000E+02  0.91188000000E+02 0.  0.
    9900012    2    3    3    0    0  0.61313048056E+01  0.23245151776E+02  0.27889893371E+02  0.54367134557E+02  0.40000114849E+02 0.  0.
        -12    1    3    3    0    0 -0.61313048056E+01 -0.23245151776E+02 -0.27889893371E+02  0.36820865443E+02  0.00000000000E+00 0.  1.
         11    1    4    4    0    0 -0.43538012147E+01  0.16852292567E+02  0.22160913429E+02  0.28179095692E+02  0.51100000000E-03 0. -1.
        -11    1    4    4    0    0  0.12986987203E+02 -0.48450438619E+01  0.46679894469E+01  0.14626223448E+02  0.51100000000E-03 0.  1.
        -12    1    4    4    0    0 -0.25018811824E+01  0.11237903071E+02  0.10609904957E+01  0.11561815416E+02  0.00000000000E+00 0.  1.
</event>
<event>
 8    1  0.2482403E-006  0.9118800E+02  0.7816164E-02  0.1184000E+00
        -11   -1    0    0    0    0  0.00000000000E+00  0.00000000000E+00  0.45593999997E+02  0.45594000000E+02  0.51100000000E-03 0.  1.
         11   -1    0    0    0    0 -0.00000000000E+00 -0.00000000000E+00 -0.45593999997E+02  0.45594000000E+02  0.51100000000E-03 0. -1.
         23    2    1    2    0    0  0.00000000000E+00 -0.88817841970E-15 -0.71054273576E-14  0.91188000000E+02  0.91188000000E+02 0.  0.
    9900012    2    3    3    0    0 -0.19705831112E+02  0.62785602926E+01  0.30463743072E+02  0.54367085548E+02  0.40000003124E+02 0.  0.
         12    1    3    3    0    0  0.19705831112E+02 -0.62785602926E+01 -0.30463743072E+02  0.36820914452E+02  0.00000000000E+00 0. -1.
         11    1    4    4    0    0  0.65143451895E+01 -0.43679854126E+01 -0.28462169096E+01  0.83436766937E+01  0.51100000000E-03 0. -1.
        -11    1    4    4    0    0  0.11503506819E+01  0.12185314298E+01 -0.25952679198E+00  0.16957240204E+01  0.51100000000E-03 0.  1.
        -12    1    4    4    0    0 -0.27370526983E+02  0.94280142753E+01  0.33569486773E+02  0.44327684834E+02  0.00000000000E+00 0.  1.
</event>
<event>
 8    1  0.2482403E-006  0.9118800E+02  0.7816164E-02  0.1184000E+00
        -11   -1    0    0    0    0  0.00000000000E+00  0.00000000000E+00  0.45593999997E+02  0.45594000000E+02  0.51100000000E-03 0. -1.
         11   -1    0    0    0    0 -0.00000000000E+00 -0.00000000000E+00 -0.45593999997E+02  0.45594000000E+02  0.51100000000E-03 0.  1.
         23    2    1    2    0    0  0.00000000000E+00 -0.35527136788E-14 -0.44408920985E-15  0.91188000000E+02  0.91188000000E+02 0.  0.
    9900012    2    3    3    0    0  0.31419053911E+02  0.18939922809E+02 -0.31467781959E+01  0.54367084236E+02  0.40000000133E+02 0.  0.
        -12    1    3    3    0    0 -0.31419053911E+02 -0.18939922809E+02  0.31467781959E+01  0.36820915764E+02  0.00000000000E+00 0.  1.
         11    1    4    4    0    0  0.11058067036E+02 -0.10722146925E+01  0.25853049446E+01  0.11406765223E+02  0.51100000000E-03 0.  1.
        -11    1    4    4    0    0  0.23410354679E+02  0.12073876925E+02  0.73594720286E+01  0.27349315147E+02  0.51100000000E-03 0. -1.
         12    1    4    4    0    0 -0.30493678042E+01  0.79382605764E+01 -0.13091555169E+02  0.15611003867E+02  0.00000000000E+00 0. -1.
</event>
<event>
 8    1  0.2482403E-006  0.9118800E+02  0.7816164E-02  0.1184000E+00
        -11   -1    0    0    0    0  0.00000000000E+00  0.00000000000E+00  0.45593999997E+02  0.45594000000E+02  0.51100000000E-03 0. -1.
         11   -1    0    0    0    0 -0.00000000000E+00 -0.00000000000E+00 -0.45593999997E+02  0.45594000000E+02  0.51100000000E-03 0.  1.
         23    2    1    2    0    0 -0.17763568394E-14  0.00000000000E+00  0.00000000000E+00  0.91188000000E+02  0.91188000000E+02 0.  0.
    9900012    2    3    3    0    0 -0.13414342496E+02 -0.10590703439E+02  0.32613991196E+02  0.54367081955E+02  0.39999994933E+02 0.  0.
        -12    1    3    3    0    0  0.13414342496E+02  0.10590703439E+02 -0.32613991196E+02  0.36820918045E+02  0.00000000000E+00 0.  1.
         11    1    4    4    0    0  0.56932807237E+01 -0.63842788376E+00  0.15332296476E+01  0.59305842019E+01  0.51100000000E-03 0. -1.
        -11    1    4    4    0    0 -0.23159726827E+02 -0.85368944664E+01  0.95242284099E+01  0.26456803301E+02  0.51100000000E-03 0.  1.
         12    1    4    4    0    0  0.40521036071E+01 -0.14153810892E+01  0.21556533138E+02  0.21979694452E+02  0.00000000000E+00 0. -1.
</event>
<event>
 8    1  0.2482403E-006  0.9118800E+02  0.7816164E-02  0.1184000E+00
        -11   -1    0    0    0    0  0.00000000000E+00  0.00000000000E+00  0.45593999997E+02  0.45594000000E+02  0.51100000000E-03 0.  1.
         11   -1    0    0    0    0 -0.00000000000E+00 -0.00000000000E+00 -0.45593999997E+02  0.45594000000E+02  0.51100000000E-03 0. -1.
         23    2    1    2    0    0 -0.17763568394E-14  0.17763568394E-14  0.00000000000E+00  0.91188000000E+02  0.91188000000E+02 0.  0.
    9900012    2    3    3    0    0  0.94436024018E+01  0.13438351620E+02 -0.32954747058E+02  0.54366996833E+02  0.39999800879E+02 0.  0.
        -12    1    3    3    0    0 -0.94436024018E+01 -0.13438351620E+02  0.32954747058E+02  0.36821003167E+02  0.00000000000E+00 0.  1.
         11    1    4    4    0    0 -0.36683391910E+01  0.13229578774E+02 -0.16325454240E+02  0.21330703770E+02  0.51100000000E-03 0. -1.
        -11    1    4    4    0    0  0.41755317419E+00  0.10920370237E+02 -0.10981209770E+02  0.15492443482E+02  0.51100000000E-03 0.  1.
        -12    1    4    4    0    0  0.12694388419E+02 -0.10711597390E+02 -0.56480830475E+01  0.17543849580E+02  0.00000000000E+00 0.  1.
</event>
<event>
 8    1  0.2482403E-006  0.9118800E+02  0.7816164E-02  0.1184000E+00
        -11   -1    0    0    0    0  0.00000000000E+00  0.00000000000E+00  0.45593999997E+02  0.45594000000E+02  0.51100000000E-03 0.  1.
         11   -1    0    0    0    0 -0.00000000000E+00 -0.00000000000E+00 -0.45593999997E+02  0.45594000000E+02  0.51100000000E-03 0. -1.
         23    2    1    2    0    0  0.22204460493E-14  0.00000000000E+00  0.71054273576E-14  0.91188000000E+02  0.91188000000E+02 0.  0.
    9900012    2    3    3    0    0 -0.39047379367E+01  0.34686230214E+01 -0.36448450155E+02  0.54367247119E+02  0.40000371456E+02 0.  0.
        -12    1    3    3    0    0  0.39047379367E+01 -0.34686230214E+01  0.36448450155E+02  0.36820752881E+02  0.00000000000E+00 0.  1.
         11    1    4    4    0    0  0.63434883604E+01  0.60468089226E+01 -0.11414282564E+02  0.14390607681E+02  0.51100000000E-03 0. -1.
        -11    1    4    4    0    0 -0.18327000101E+02 -0.13919773463E+01 -0.25907148030E+02  0.31764710812E+02  0.51100000000E-03 0.  1.
        -12    1    4    4    0    0  0.80787738040E+01 -0.11862085548E+01  0.87298043923E+00  0.82119286260E+01  0.00000000000E+00 0.  1.
</event>
<event>
 8    1  0.2482403E-006  0.9118800E+02  0.7816164E-02  0.1184000E+00
        -11   -1    0    0    0    0  0.00000000000E+00  0.00000000000E+00  0.45593999997E+02  0.45594000000E+02  0.51100000000E-03 0.  1.
         11   -1    0    0    0    0 -0.00000000000E+00 -0.00000000000E+00 -0.45593999997E+02  0.45594000000E+02  0.51100000000E-03 0. -1.
         23    2    1    2    0    0 -0.17763568394E-14  0.35527136788E-14  0.00000000000E+00  0.91188000000E+02  0.91188000000E+02 0.  0.
    9900012    2    3    3    0    0 -0.12135381886E+02  0.30664304239E+02  0.16377206231E+02  0.54367082957E+02  0.39999997217E+02 0.  0.
         12    1    3    3    0    0  0.12135381886E+02 -0.30664304239E+02 -0.16377206231E+02  0.36820917043E+02  0.00000000000E+00 0. -1.
         11    1    4    4    0    0 -0.16705200576E+01  0.11549517824E+01 -0.48963386629E+01  0.53008191296E+01  0.51100000000E-03 0. -1.
        -11    1    4    4    0    0  0.34243244205E+01  0.23281686928E+02  0.23989426004E+02  0.33604397097E+02  0.51100000000E-03 0.  1.
        -12    1    4    4    0    0 -0.13889186249E+02  0.62276655285E+01 -0.27158811107E+01  0.15461866731E+02  0.00000000000E+00 0.  1.
</event>
<event>
 8    1  0.2482403E-006  0.9118800E+02  0.7816164E-02  0.1184000E+00
        -11   -1    0    0    0    0  0.00000000000E+00  0.00000000000E+00  0.45593999997E+02  0.45594000000E+02  0.51100000000E-03 0. -1.
         11   -1    0    0    0    0 -0.00000000000E+00 -0.00000000000E+00 -0.45593999997E+02  0.45594000000E+02  0.51100000000E-03 0.  1.
         23    2    1    2    0    0  0.00000000000E+00 -0.44408920985E-15  0.00000000000E+00  0.91188000000E+02  0.91188000000E+02 0.  0.
    9900012    2    3    3    0    0  0.35701405990E+02 -0.23135327830E+01 -0.87083977522E+01  0.54367095407E+02  0.40000025600E+02 0.  0.
         12    1    3    3    0    0 -0.35701405990E+02  0.23135327830E+01  0.87083977522E+01  0.36820904593E+02  0.00000000000E+00 0. -1.
         11    1    4    4    0    0 -0.57053954598E+01 -0.74601746967E+01  0.47028510763E+01  0.10503454306E+02  0.51100000000E-03 0. -1.
        -11    1    4    4    0    0  0.10374056777E+02  0.11584670509E+01 -0.41563826669E+01  0.11235595981E+02  0.51100000000E-03 0.  1.
         12    1    4    4    0    0  0.31032744673E+02  0.39881748629E+01 -0.92548661616E+01  0.32628045120E+02  0.00000000000E+00 0. -1.
</event>
<event>
 8    1  0.2482403E-006  0.9118800E+02  0.7816164E-02  0.1184000E+00
        -11   -1    0    0    0    0  0.00000000000E+00  0.00000000000E+00  0.45593999997E+02  0.45594000000E+02  0.51100000000E-03 0.  1.
         11   -1    0    0    0    0 -0.00000000000E+00 -0.00000000000E+00 -0.45593999997E+02  0.45594000000E+02  0.51100000000E-03 0. -1.
         23    2    1    2    0    0 -0.17763568394E-14  0.00000000000E+00  0.88817841970E-15  0.91188000000E+02  0.91188000000E+02 0.  0.
    9900012    2    3    3    0    0 -0.13636765831E+02 -0.33525266983E+02  0.67731081814E+01  0.54367083348E+02  0.39999998109E+02 0.  0.
         12    1    3    3    0    0  0.13636765831E+02  0.33525266983E+02 -0.67731081814E+01  0.36820916652E+02  0.00000000000E+00 0. -1.
         11    1    4    4    0    0 -0.87727369004E+01  0.39410797685E+01  0.49765296899E+01  0.10828613507E+02  0.51100000000E-03 0. -1.
        -11    1    4    4    0    0  0.37097866409E+01 -0.31083986704E+02  0.63131853441E+01  0.31934825126E+02  0.51100000000E-03 0.  1.
         12    1    4    4    0    0 -0.85738155714E+01 -0.63823600477E+01 -0.45166068526E+01  0.11603644716E+02  0.00000000000E+00 0. -1.
</event>
<event>
 8    1  0.2482403E-006  0.9118800E+02  0.7816164E-02  0.1184000E+00
        -11   -1    0    0    0    0  0.00000000000E+00  0.00000000000E+00  0.45593999997E+02  0.45594000000E+02  0.51100000000E-03 0.  1.
         11   -1    0    0    0    0 -0.00000000000E+00 -0.00000000000E+00 -0.45593999997E+02  0.45594000000E+02  0.51100000000E-03 0. -1.
         23    2    1    2    0    0  0.00000000000E+00  0.44408920985E-15  0.00000000000E+00  0.91188000000E+02  0.91188000000E+02 0.  0.
    9900012    2    3    3    0    0 -0.10510797324E+02  0.19037492828E+01 -0.35237447225E+02  0.54367098210E+02  0.40000031989E+02 0.  0.
        -12    1    3    3    0    0  0.10510797324E+02 -0.19037492828E+01  0.35237447225E+02  0.36820901790E+02  0.00000000000E+00 0.  1.
         11    1    4    4    0    0  0.91902855449E+00  0.64831549251E+01 -0.29207275579E+02  0.29932271185E+02  0.51100000000E-03 0. -1.
        -11    1    4    4    0    0 -0.15156641061E+01  0.67535169100E+01 -0.63226091791E+01  0.93745728131E+01  0.51100000000E-03 0.  1.
        -12    1    4    4    0    0 -0.99141617723E+01 -0.11332922552E+02  0.29243753313E+00  0.15060254212E+02  0.00000000000E+00 0.  1.
</event>
<event>
 8    1  0.2482403E-006  0.9118800E+02  0.7816164E-02  0.1184000E+00
        -11   -1    0    0    0    0  0.00000000000E+00  0.00000000000E+00  0.45593999997E+02  0.45594000000E+02  0.51100000000E-03 0.  1.
         11   -1    0    0    0    0 -0.00000000000E+00 -0.00000000000E+00 -0.45593999997E+02  0.45594000000E+02  0.51100000000E-03 0. -1.
         23    2    1    2    0    0  0.00000000000E+00  0.00000000000E+00  0.00000000000E+00  0.91188000000E+02  0.91188000000E+02 0.  0.
    9900012    2    3    3    0    0  0.19322477027E+02 -0.13556764485E+02 -0.28260155236E+02  0.54367077202E+02  0.39999984097E+02 0.  0.
        -12    1    3    3    0    0 -0.19322477027E+02  0.13556764485E+02  0.28260155236E+02  0.36820922798E+02  0.00000000000E+00 0.  1.
         11    1    4    4    0    0  0.10795295241E+02 -0.24490490329E+01 -0.25399269510E+02  0.27706662239E+02  0.51100000000E-03 0. -1.
        -11    1    4    4    0    0  0.69208367009E+01 -0.15881401965E+02 -0.83324406526E+01  0.19223591665E+02  0.51100000000E-03 0.  1.
         12    1    4    4    0    0  0.16063450856E+01  0.47736865125E+01  0.54715549268E+01  0.74368232984E+01  0.00000000000E+00 0. -1.
</event>
<event>
 8    1  0.2482403E-006  0.9118800E+02  0.7816164E-02  0.1184000E+00
        -11   -1    0    0    0    0  0.00000000000E+00  0.00000000000E+00  0.45593999997E+02  0.45594000000E+02  0.51100000000E-03 0. -1.
         11   -1    0    0    0    0 -0.00000000000E+00 -0.00000000000E+00 -0.45593999997E+02  0.45594000000E+02  0.51100000000E-03 0.  1.
         23    2    1    2    0    0  0.00000000000E+00  0.00000000000E+00 -0.71054273576E-14  0.91188000000E+02  0.91188000000E+02 0.  0.
    9900012    2    3    3    0    0 -0.10650822216E+02  0.98612697398E+01 -0.33839260080E+02  0.54367079622E+02  0.39999989613E+02 0.  0.
         12    1    3    3    0    0  0.10650822216E+02 -0.98612697398E+01  0.33839260080E+02  0.36820920378E+02  0.00000000000E+00 0. -1.
         11    1    4    4    0    0 -0.29688119355E+01 -0.20933574776E+01  0.63640730609E+01  0.73278520743E+01  0.51100000000E-03 0. -1.
        -11    1    4    4    0    0 -0.12312247679E+02  0.40138018642E+01 -0.32708697413E+02  0.35178984280E+02  0.51100000000E-03 0.  1.
        -12    1    4    4    0    0  0.46302373982E+01  0.79408253532E+01 -0.74946357282E+01  0.11860243267E+02  0.00000000000E+00 0.  1.
</event>
<event>
 8    1  0.2482403E-006  0.9118800E+02  0.7816164E-02  0.1184000E+00
        -11   -1    0    0    0    0  0.00000000000E+00  0.00000000000E+00  0.45593999997E+02  0.45594000000E+02  0.51100000000E-03 0.  1.
         11   -1    0    0    0    0 -0.00000000000E+00 -0.00000000000E+00 -0.45593999997E+02  0.45594000000E+02  0.51100000000E-03 0. -1.
         23    2    1    2    0    0 -0.17763568394E-14  0.71054273576E-14  0.88817841970E-15  0.91188000000E+02  0.91188000000E+02 0.  0.
    9900012    2    3    3    0    0 -0.30346499027E+01  0.36690483182E+02 -0.61617601306E+00  0.54367077564E+02  0.39999984923E+02 0.  0.
         12    1    3    3    0    0  0.30346499027E+01 -0.36690483182E+02  0.61617601306E+00  0.36820922436E+02  0.00000000000E+00 0. -1.
         11    1    4    4    0    0  0.19040430923E+01  0.60152123405E+01  0.51900469087E+01  0.81697458207E+01  0.51100000000E-03 0. -1.
        -11    1    4    4    0    0 -0.88143708306E+01  0.22079949811E+01  0.99136166444E+01  0.13447980153E+02  0.51100000000E-03 0.  1.
         12    1    4    4    0    0  0.38756778356E+01  0.28467275860E+02 -0.15719839566E+02  0.32749351590E+02  0.00000000000E+00 0. -1.
</event>
<event>
 8    1  0.2482403E-006  0.9118800E+02  0.7816164E-02  0.1184000E+00
        -11   -1    0    0    0    0  0.00000000000E+00  0.00000000000E+00  0.45593999997E+02  0.45594000000E+02  0.51100000000E-03 0.  1.
         11   -1    0    0    0    0 -0.00000000000E+00 -0.00000000000E+00 -0.45593999997E+02  0.45594000000E+02  0.51100000000E-03 0. -1.
         23    2    1    2    0    0  0.00000000000E+00  0.35527136788E-14  0.00000000000E+00  0.91188000000E+02  0.91188000000E+02 0.  0.
    9900012    2    3    3    0    0  0.16977216509E+02  0.22621937295E+02  0.23575453432E+02  0.54367082957E+02  0.39999997217E+02 0.  0.
         12    1    3    3    0    0 -0.16977216509E+02 -0.22621937295E+02 -0.23575453432E+02  0.36820917043E+02  0.00000000000E+00 0. -1.
         11    1    4    4    0    0  0.78082414090E+01  0.46055508397E+01 -0.71613395759E+01  0.11552684416E+02  0.51100000000E-03 0. -1.
        -11    1    4    4    0    0  0.73317907950E+01  0.23180841397E+02  0.25516508547E+02  0.35244840372E+02  0.51100000000E-03 0.  1.
         12    1    4    4    0    0  0.18371843045E+01 -0.51644549421E+01  0.52202844606E+01  0.75695581685E+01  0.00000000000E+00 0. -1.
</event>
<event>
 8    1  0.2482403E-006  0.9118800E+02  0.7816164E-02  0.1184000E+00
        -11   -1    0    0    0    0  0.00000000000E+00  0.00000000000E+00  0.45593999997E+02  0.45594000000E+02  0.51100000000E-03 0.  1.
         11   -1    0    0    0    0 -0.00000000000E+00 -0.00000000000E+00 -0.45593999997E+02  0.45594000000E+02  0.51100000000E-03 0. -1.
         23    2    1    2    0    0 -0.17763568394E-14  0.00000000000E+00  0.00000000000E+00  0.91188000000E+02  0.91188000000E+02 0.  0.
    9900012    2    3    3    0    0  0.13282323305E+02  0.33259921301E+02 -0.85522180501E+01  0.54367042504E+02  0.39999904997E+02 0.  0.
         12    1    3    3    0    0 -0.13282323305E+02 -0.33259921301E+02  0.85522180501E+01  0.36820957496E+02  0.00000000000E+00 0. -1.
         11    1    4    4    0    0  0.81646154939E+01  0.15374259902E+01 -0.32715115830E+01  0.89290208387E+01  0.51100000000E-03 0. -1.
        -11    1    4    4    0    0 -0.10804717993E+01  0.36929112796E+02 -0.54299471361E+01  0.37341814597E+02  0.51100000000E-03 0.  1.
        -12    1    4    4    0    0  0.61981796107E+01 -0.52066174852E+01  0.14924066899E+00  0.80962070688E+01  0.00000000000E+00 0.  1.
</event>
<event>
 8    1  0.2482403E-006  0.9118800E+02  0.7816164E-02  0.1184000E+00
        -11   -1    0    0    0    0  0.00000000000E+00  0.00000000000E+00  0.45593999997E+02  0.45594000000E+02  0.51100000000E-03 0.  1.
         11   -1    0    0    0    0 -0.00000000000E+00 -0.00000000000E+00 -0.45593999997E+02  0.45594000000E+02  0.51100000000E-03 0. -1.
         23    2    1    2    0    0  0.17763568394E-14  0.00000000000E+00 -0.44408920985E-15  0.91188000000E+02  0.91188000000E+02 0.  0.
    9900012    2    3    3    0    0  0.15268229925E+02  0.33355058335E+02  0.31778691440E+01  0.54367114434E+02  0.40000068975E+02 0.  0.
        -12    1    3    3    0    0 -0.15268229925E+02 -0.33355058335E+02 -0.31778691440E+01  0.36820885566E+02  0.00000000000E+00 0.  1.
         11    1    4    4    0    0  0.14594882159E+02  0.19023985905E+02 -0.30710845279E+00  0.23979510855E+02  0.51100000000E-03 0. -1.
        -11    1    4    4    0    0 -0.45477197523E+01  0.18296058922E+02 -0.51521825584E+01  0.19544117079E+02  0.51100000000E-03 0.  1.
        -12    1    4    4    0    0  0.52210675182E+01 -0.39649864933E+01  0.86371601552E+01  0.10843486500E+02  0.00000000000E+00 0.  1.
</event>
<event>
 8    1  0.2482403E-006  0.9118800E+02  0.7816164E-02  0.1184000E+00
        -11   -1    0    0    0    0  0.00000000000E+00  0.00000000000E+00  0.45593999997E+02  0.45594000000E+02  0.51100000000E-03 0.  1.
         11   -1    0    0    0    0 -0.00000000000E+00 -0.00000000000E+00 -0.45593999997E+02  0.45594000000E+02  0.51100000000E-03 0. -1.
         23    2    1    2    0    0  0.17763568394E-14  0.17763568394E-14  0.00000000000E+00  0.91188000000E+02  0.91188000000E+02 0.  0.
    9900012    2    3    3    0    0 -0.15176350185E+02 -0.15517060789E+02  0.29743550900E+02  0.54367087456E+02  0.40000007473E+02 0.  0.
         12    1    3    3    0    0  0.15176350185E+02  0.15517060789E+02 -0.29743550900E+02  0.36820912544E+02  0.00000000000E+00 0. -1.
         11    1    4    4    0    0  0.78172819264E+00 -0.57321981951E+01  0.66224307516E+01  0.87935080848E+01  0.51100000000E-03 0. -1.
        -11    1    4    4    0    0 -0.10211052830E+02  0.10750522112E+01  0.29848859376E+02  0.31565420058E+02  0.51100000000E-03 0.  1.
         12    1    4    4    0    0 -0.57470255481E+01 -0.10859914805E+02 -0.67277392275E+01  0.14008159313E+02  0.00000000000E+00 0. -1.
</event>
<event>
 8    1  0.2482403E-006  0.9118800E+02  0.7816164E-02  0.1184000E+00
        -11   -1    0    0    0    0  0.00000000000E+00  0.00000000000E+00  0.45593999997E+02  0.45594000000E+02  0.51100000000E-03 0. -1.
         11   -1    0    0    0    0 -0.00000000000E+00 -0.00000000000E+00 -0.45593999997E+02  0.45594000000E+02  0.51100000000E-03 0.  1.
         23    2    1    2    0    0  0.00000000000E+00 -0.35527136788E-14 -0.26645352591E-14  0.91188000000E+02  0.91188000000E+02 0.  0.
    9900012    2    3    3    0    0 -0.18549210444E+02  0.31644438897E+02 -0.32150378500E+01  0.54367079458E+02  0.39999989241E+02 0.  0.
         12    1    3    3    0    0  0.18549210444E+02 -0.31644438897E+02  0.32150378500E+01  0.36820920542E+02  0.00000000000E+00 0. -1.
         11    1    4    4    0    0 -0.81238591294E+01  0.16366330811E+02  0.16073719262E+02  0.24335536208E+02  0.51100000000E-03 0. -1.
        -11    1    4    4    0    0 -0.56268293746E+01  0.16596972703E+02 -0.12131275853E+02  0.21314046209E+02  0.51100000000E-03 0.  1.
         12    1    4    4    0    0 -0.47985219399E+01 -0.13188646170E+01 -0.71574812590E+01  0.87174970409E+01  0.00000000000E+00 0. -1.
</event>
<event>
 8    1  0.2482403E-006  0.9118800E+02  0.7816164E-02  0.1184000E+00
        -11   -1    0    0    0    0  0.00000000000E+00  0.00000000000E+00  0.45593999997E+02  0.45594000000E+02  0.51100000000E-03 0. -1.
         11   -1    0    0    0    0 -0.00000000000E+00 -0.00000000000E+00 -0.45593999997E+02  0.45594000000E+02  0.51100000000E-03 0.  1.
         23    2    1    2    0    0  0.35527136788E-14  0.17763568394E-14  0.00000000000E+00  0.91188000000E+02  0.91188000000E+02 0.  0.
    9900012    2    3    3    0    0 -0.20936680138E+02 -0.12589629905E+02  0.27548791327E+02  0.54367092082E+02  0.40000018019E+02 0.  0.
        -12    1    3    3    0    0  0.20936680138E+02  0.12589629905E+02 -0.27548791327E+02  0.36820907918E+02  0.00000000000E+00 0.  1.
         11    1    4    4    0    0  0.25188914150E+01  0.36001695768E+01  0.19992028219E+01  0.48273022617E+01  0.51100000000E-03 0.  1.
        -11    1    4    4    0    0 -0.29635603511E+02 -0.74057149738E+01  0.23651797935E+02  0.38633161345E+02  0.51100000000E-03 0. -1.
        -12    1    4    4    0    0  0.61800319579E+01 -0.87840845081E+01  0.18977905699E+01  0.10906628475E+02  0.00000000000E+00 0.  1.
</event>
<event>
 8    1  0.2482403E-006  0.9118800E+02  0.7816164E-02  0.1184000E+00
        -11   -1    0    0    0    0  0.00000000000E+00  0.00000000000E+00  0.45593999997E+02  0.45594000000E+02  0.51100000000E-03 0. -1.
         11   -1    0    0    0    0 -0.00000000000E+00 -0.00000000000E+00 -0.45593999997E+02  0.45594000000E+02  0.51100000000E-03 0.  1.
         23    2    1    2    0    0  0.88817841970E-15  0.00000000000E+00  0.00000000000E+00  0.91188000000E+02  0.91188000000E+02 0.  0.
    9900012    2    3    3    0    0  0.77742852423E+01  0.34753744631E+02  0.93550024787E+01  0.54367104461E+02  0.40000046240E+02 0.  0.
        -12    1    3    3    0    0 -0.77742852423E+01 -0.34753744631E+02 -0.93550024787E+01  0.36820895539E+02  0.00000000000E+00 0.  1.
         11    1    4    4    0    0  0.97885917439E+00  0.17618365764E+02  0.27394282429E+01  0.17856915883E+02  0.51100000000E-03 0. -1.
        -11    1    4    4    0    0 -0.10755252495E+01  0.19246408360E+02 -0.71115457193E+01  0.20546412633E+02  0.51100000000E-03 0.  1.
        -12    1    4    4    0    0  0.78709513175E+01 -0.21110294928E+01  0.13727119955E+02  0.15963775945E+02  0.00000000000E+00 0.  1.
</event>
<event>
 8    1  0.2482403E-006  0.9118800E+02  0.7816164E-02  0.1184000E+00
        -11   -1    0    0    0    0  0.00000000000E+00  0.00000000000E+00  0.45593999997E+02  0.45594000000E+02  0.51100000000E-03 0. -1.
         11   -1    0    0    0    0 -0.00000000000E+00 -0.00000000000E+00 -0.45593999997E+02  0.45594000000E+02  0.51100000000E-03 0.  1.
         23    2    1    2    0    0  0.00000000000E+00  0.13322676296E-14  0.00000000000E+00  0.91188000000E+02  0.91188000000E+02 0.  0.
    9900012    2    3    3    0    0 -0.12788989273E+02 -0.23391553240E+01 -0.34449260830E+02  0.54367062125E+02  0.39999949726E+02 0.  0.
         12    1    3    3    0    0  0.12788989273E+02  0.23391553240E+01  0.34449260830E+02  0.36820937875E+02  0.00000000000E+00 0. -1.
         11    1    4    4    0    0  0.65861120303E+01 -0.83504525611E+01 -0.37699860541E+01  0.11283604245E+02  0.51100000000E-03 0. -1.
        -11    1    4    4    0    0 -0.41703346465E+01  0.10807560900E+02 -0.44920958657E+01  0.12424732963E+02  0.51100000000E-03 0.  1.
         12    1    4    4    0    0 -0.15204766657E+02 -0.47962636632E+01 -0.26187178911E+02  0.30658724917E+02  0.00000000000E+00 0. -1.
</event>
<event>
 8    1  0.2482403E-006  0.9118800E+02  0.7816164E-02  0.1184000E+00
        -11   -1    0    0    0    0  0.00000000000E+00  0.00000000000E+00  0.45593999997E+02  0.45594000000E+02  0.51100000000E-03 0.  1.
         11   -1    0    0    0    0 -0.00000000000E+00 -0.00000000000E+00 -0.45593999997E+02  0.45594000000E+02  0.51100000000E-03 0. -1.
         23    2    1    2    0    0  0.44408920985E-15  0.00000000000E+00  0.00000000000E+00  0.91188000000E+02  0.91188000000E+02 0.  0.
    9900012    2    3    3    0    0  0.38172767363E+01 -0.34929160683E+02  0.11007399981E+02  0.54367072227E+02  0.39999972756E+02 0.  0.
         12    1    3    3    0    0 -0.38172767363E+01  0.34929160683E+02 -0.11007399981E+02  0.36820927773E+02  0.00000000000E+00 0. -1.
         11    1    4    4    0    0  0.75006750774E+01  0.22710242621E+01  0.33350676711E+01  0.85170625480E+01  0.51100000000E-03 0. -1.
        -11    1    4    4    0    0 -0.30023017978E+01 -0.36752425299E+02  0.14020048288E+02  0.39450175357E+02  0.51100000000E-03 0.  1.
        -12    1    4    4    0    0 -0.68109654331E+00 -0.44775964601E+00 -0.63477159783E+01  0.63998343215E+01  0.00000000000E+00 0.  1.
</event>
<event>
 8    1  0.2482403E-006  0.9118800E+02  0.7816164E-02  0.1184000E+00
        -11   -1    0    0    0    0  0.00000000000E+00  0.00000000000E+00  0.45593999997E+02  0.45594000000E+02  0.51100000000E-03 0.  1.
         11   -1    0    0    0    0 -0.00000000000E+00 -0.00000000000E+00 -0.45593999997E+02  0.45594000000E+02  0.51100000000E-03 0. -1.
         23    2    1    2    0    0  0.88817841970E-15  0.44408920985E-15  0.00000000000E+00  0.91188000000E+02  0.91188000000E+02 0.  0.
    9900012    2    3    3    0    0 -0.79352637979E+01 -0.23480813403E+01  0.35878929890E+02  0.54367088719E+02  0.40000010352E+02 0.  0.
         12    1    3    3    0    0  0.79352637979E+01  0.23480813403E+01 -0.35878929890E+02  0.36820911281E+02  0.00000000000E+00 0. -1.
         11    1    4    4    0    0 -0.99308162238E+01 -0.89671262070E+01  0.24413359310E+01  0.13601124390E+02  0.51100000000E-03 0. -1.
        -11    1    4    4    0    0 -0.33461859891E+01 -0.34986114802E+01 -0.58005819061E+00  0.48758292349E+01  0.51100000000E-03 0.  1.
        -12    1    4    4    0    0  0.53417384150E+01  0.10117656347E+02  0.34017652150E+02  0.35890135094E+02  0.00000000000E+00 0.  1.
</event>
<event>
 8    1  0.2482403E-006  0.9118800E+02  0.7816164E-02  0.1184000E+00
        -11   -1    0    0    0    0  0.00000000000E+00  0.00000000000E+00  0.45593999997E+02  0.45594000000E+02  0.51100000000E-03 0.  1.
         11   -1    0    0    0    0 -0.00000000000E+00 -0.00000000000E+00 -0.45593999997E+02  0.45594000000E+02  0.51100000000E-03 0. -1.
         23    2    1    2    0    0  0.17763568394E-14 -0.88817841970E-15 -0.71054273576E-14  0.91188000000E+02  0.91188000000E+02 0.  0.
    9900012    2    3    3    0    0  0.57847813109E+01  0.20498165872E+01 -0.36305794434E+02  0.54367134281E+02  0.40000114219E+02 0.  0.
        -12    1    3    3    0    0 -0.57847813109E+01 -0.20498165872E+01  0.36305794434E+02  0.36820865719E+02  0.00000000000E+00 0.  1.
         11    1    4    4    0    0  0.76589148208E+01  0.12922560944E+02 -0.13152892430E+02  0.19966224909E+02  0.51100000000E-03 0. -1.
        -11    1    4    4    0    0 -0.97930516199E+01  0.22777821878E+01 -0.82491281010E+01  0.13005393743E+02  0.51100000000E-03 0.  1.
        -12    1    4    4    0    0  0.79189181101E+01 -0.13150526545E+02 -0.14903773903E+02  0.21395515628E+02  0.00000000000E+00 0.  1.
</event>
<event>
 8    1  0.2482403E-006  0.9118800E+02  0.7816164E-02  0.1184000E+00
        -11   -1    0    0    0    0  0.00000000000E+00  0.00000000000E+00  0.45593999997E+02  0.45594000000E+02  0.51100000000E-03 0. -1.
         11   -1    0    0    0    0 -0.00000000000E+00 -0.00000000000E+00 -0.45593999997E+02  0.45594000000E+02  0.51100000000E-03 0.  1.
         23    2    1    2    0    0  0.00000000000E+00 -0.88817841970E-15  0.00000000000E+00  0.91188000000E+02  0.91188000000E+02 0.  0.
    9900012    2    3    3    0    0 -0.33438160169E+02 -0.23121396143E+01  0.15242160301E+02  0.54367082090E+02  0.39999995242E+02 0.  0.
        -12    1    3    3    0    0  0.33438160169E+02  0.23121396143E+01 -0.15242160301E+02  0.36820917910E+02  0.00000000000E+00 0.  1.
         11    1    4    4    0    0 -0.17565426836E+02 -0.46816009977E+01  0.79981997384E+01  0.19860332504E+02  0.51100000000E-03 0. -1.
        -11    1    4    4    0    0 -0.16604169498E+02 -0.90545453376E+01  0.11681577654E+02  0.22229316065E+02  0.51100000000E-03 0.  1.
        -12    1    4    4    0    0  0.73143616540E+00  0.11424006721E+02 -0.44376170911E+01  0.12277433521E+02  0.00000000000E+00 0.  1.
</event>
<event>
 8    1  0.2482403E-006  0.9118800E+02  0.7816164E-02  0.1184000E+00
        -11   -1    0    0    0    0  0.00000000000E+00  0.00000000000E+00  0.45593999997E+02  0.45594000000E+02  0.51100000000E-03 0. -1.
         11   -1    0    0    0    0 -0.00000000000E+00 -0.00000000000E+00 -0.45593999997E+02  0.45594000000E+02  0.51100000000E-03 0.  1.
         23    2    1    2    0    0  0.14432899320E-14  0.71054273576E-14  0.00000000000E+00  0.91188000000E+02  0.91188000000E+02 0.  0.
    9900012    2    3    3    0    0  0.62478809230E+00  0.30555251216E+02  0.20536949563E+02  0.54367081566E+02  0.39999994045E+02 0.  0.
        -12    1    3    3    0    0 -0.62478809230E+00 -0.30555251216E+02 -0.20536949563E+02  0.36820918434E+02  0.00000000000E+00 0.  1.
         11    1    4    4    0    0  0.30690517556E+01  0.21943494605E+01  0.45694783670E+01  0.59257388604E+01  0.51100000000E-03 0. -1.
        -11    1    4    4    0    0 -0.14741982169E+02  0.43298553131E+00  0.85110433506E+01  0.17027958595E+02  0.51100000000E-03 0.  1.
        -12    1    4    4    0    0  0.12297718506E+02  0.27927916224E+02  0.74564278450E+01  0.31413384110E+02  0.00000000000E+00 0.  1.
</event>
<event>
 8    1  0.2482403E-006  0.9118800E+02  0.7816164E-02  0.1184000E+00
        -11   -1    0    0    0    0  0.00000000000E+00  0.00000000000E+00  0.45593999997E+02  0.45594000000E+02  0.51100000000E-03 0.  1.
         11   -1    0    0    0    0 -0.00000000000E+00 -0.00000000000E+00 -0.45593999997E+02  0.45594000000E+02  0.51100000000E-03 0. -1.
         23    2    1    2    0    0  0.00000000000E+00  0.35527136788E-14  0.88817841970E-15  0.91188000000E+02  0.91188000000E+02 0.  0.
    9900012    2    3    3    0    0  0.26210162193E+02  0.25366659284E+02 -0.50338790747E+01  0.54367082794E+02  0.39999996844E+02 0.  0.
        -12    1    3    3    0    0 -0.26210162193E+02 -0.25366659284E+02  0.50338790747E+01  0.36820917206E+02  0.00000000000E+00 0.  1.
         11    1    4    4    0    0  0.21448833203E+02  0.17463189503E+02  0.90706501963E+00  0.27673781827E+02  0.51100000000E-03 0. -1.
        -11    1    4    4    0    0  0.18885536057E+01 -0.83987701317E+01  0.11501639307E+01  0.86849785132E+01  0.51100000000E-03 0.  1.
         12    1    4    4    0    0  0.28727753843E+01  0.16302239913E+02 -0.70911080250E+01  0.18008322454E+02  0.00000000000E+00 0. -1.
</event>
<event>
 8    1  0.2482403E-006  0.9118800E+02  0.7816164E-02  0.1184000E+00
        -11   -1    0    0    0    0  0.00000000000E+00  0.00000000000E+00  0.45593999997E+02  0.45594000000E+02  0.51100000000E-03 0.  1.
         11   -1    0    0    0    0 -0.00000000000E+00 -0.00000000000E+00 -0.45593999997E+02  0.45594000000E+02  0.51100000000E-03 0. -1.
         23    2    1    2    0    0  0.00000000000E+00  0.17763568394E-14  0.00000000000E+00  0.91188000000E+02  0.91188000000E+02 0.  0.
    9900012    2    3    3    0    0  0.26715710510E+02  0.78284044045E+01  0.24099095295E+02  0.54367088854E+02  0.40000010661E+02 0.  0.
         12    1    3    3    0    0 -0.26715710510E+02 -0.78284044045E+01 -0.24099095295E+02  0.36820911146E+02  0.00000000000E+00 0. -1.
         11    1    4    4    0    0  0.15554473393E+02  0.20847274474E+02  0.64551053077E+01  0.26799605973E+02  0.51100000000E-03 0. -1.
        -11    1    4    4    0    0  0.73619741287E+01 -0.41914003024E+01  0.15585641415E+02  0.17739185949E+02  0.51100000000E-03 0.  1.
        -12    1    4    4    0    0  0.37992629880E+01 -0.88274697672E+01  0.20583485727E+01  0.98282969323E+01  0.00000000000E+00 0.  1.
</event>
<event>
 8    1  0.2482403E-006  0.9118800E+02  0.7816164E-02  0.1184000E+00
        -11   -1    0    0    0    0  0.00000000000E+00  0.00000000000E+00  0.45593999997E+02  0.45594000000E+02  0.51100000000E-03 0.  1.
         11   -1    0    0    0    0 -0.00000000000E+00 -0.00000000000E+00 -0.45593999997E+02  0.45594000000E+02  0.51100000000E-03 0. -1.
         23    2    1    2    0    0  0.71054273576E-14 -0.88817841970E-15  0.00000000000E+00  0.91188000000E+02  0.91188000000E+02 0.  0.
    9900012    2    3    3    0    0  0.34053089241E+02  0.59932101224E+01  0.12658909907E+02  0.54367089440E+02  0.40000011997E+02 0.  0.
         12    1    3    3    0    0 -0.34053089241E+02 -0.59932101224E+01 -0.12658909907E+02  0.36820910560E+02  0.00000000000E+00 0. -1.
         11    1    4    4    0    0  0.14089122182E+01  0.15152474431E+02  0.97089047298E+01  0.18051186840E+02  0.51100000000E-03 0. -1.
        -11    1    4    4    0    0  0.24850497951E+02 -0.10708380793E+02 -0.16935304456E+01  0.27112445726E+02  0.51100000000E-03 0.  1.
         12    1    4    4    0    0  0.77936790720E+01  0.15491164851E+01  0.46435356224E+01  0.92034568744E+01  0.00000000000E+00 0. -1.
</event>
<event>
 8    1  0.2482403E-006  0.9118800E+02  0.7816164E-02  0.1184000E+00
        -11   -1    0    0    0    0  0.00000000000E+00  0.00000000000E+00  0.45593999997E+02  0.45594000000E+02  0.51100000000E-03 0. -1.
         11   -1    0    0    0    0 -0.00000000000E+00 -0.00000000000E+00 -0.45593999997E+02  0.45594000000E+02  0.51100000000E-03 0.  1.
         23    2    1    2    0    0 -0.35527136788E-14  0.00000000000E+00  0.00000000000E+00  0.91188000000E+02  0.91188000000E+02 0.  0.
    9900012    2    3    3    0    0  0.23829416337E+02  0.27202618909E+02 -0.69253715377E+01  0.54367023242E+02  0.39999861085E+02 0.  0.
         12    1    3    3    0    0 -0.23829416337E+02 -0.27202618909E+02  0.69253715377E+01  0.36820976758E+02  0.00000000000E+00 0. -1.
         11    1    4    4    0    0  0.29457694864E+01 -0.29249411166E+01 -0.39162875821E+00  0.41696776551E+01  0.51100000000E-03 0. -1.
        -11    1    4    4    0    0  0.16058651014E+02  0.17619970180E+02 -0.20057318505E+02  0.31155090233E+02  0.51100000000E-03 0.  1.
         12    1    4    4    0    0  0.48249958365E+01  0.12507589846E+02  0.13523575725E+02  0.19042255354E+02  0.00000000000E+00 0. -1.
</event>
<event>
 8    1  0.2482403E-006  0.9118800E+02  0.7816164E-02  0.1184000E+00
        -11   -1    0    0    0    0  0.00000000000E+00  0.00000000000E+00  0.45593999997E+02  0.45594000000E+02  0.51100000000E-03 0.  1.
         11   -1    0    0    0    0 -0.00000000000E+00 -0.00000000000E+00 -0.45593999997E+02  0.45594000000E+02  0.51100000000E-03 0. -1.
         23    2    1    2    0    0 -0.35527136788E-14  0.44408920985E-15 -0.35527136788E-14  0.91188000000E+02  0.91188000000E+02 0.  0.
    9900012    2    3    3    0    0 -0.25610885432E+02 -0.34557207019E+01 -0.26228311174E+02  0.54367030903E+02  0.39999878550E+02 0.  0.
        -12    1    3    3    0    0  0.25610885432E+02  0.34557207019E+01  0.26228311174E+02  0.36820969097E+02  0.00000000000E+00 0.  1.
         11    1    4    4    0    0 -0.46177675613E+01  0.71588423164E+01 -0.12543347151E+02  0.15162729259E+02  0.51100000000E-03 0. -1.
        -11    1    4    4    0    0 -0.24848099745E+02  0.61202439650E+00 -0.97404965255E+01  0.26696065396E+02  0.51100000000E-03 0.  1.
        -12    1    4    4    0    0  0.38549818739E+01 -0.11226587415E+02 -0.39444674975E+01  0.12508236249E+02  0.00000000000E+00 0.  1.
</event>
<event>
 8    1  0.2482403E-006  0.9118800E+02  0.7816164E-02  0.1184000E+00
        -11   -1    0    0    0    0  0.00000000000E+00  0.00000000000E+00  0.45593999997E+02  0.45594000000E+02  0.51100000000E-03 0. -1.
         11   -1    0    0    0    0 -0.00000000000E+00 -0.00000000000E+00 -0.45593999997E+02  0.45594000000E+02  0.51100000000E-03 0.  1.
         23    2    1    2    0    0 -0.35527136788E-14  0.35527136788E-14  0.00000000000E+00  0.91188000000E+02  0.91188000000E+02 0.  0.
    9900012    2    3    3    0    0  0.21895366171E+02 -0.20204429209E+02  0.21636855863E+02  0.54367088128E+02  0.40000009006E+02 0.  0.
        -12    1    3    3    0    0 -0.21895366171E+02  0.20204429209E+02 -0.21636855863E+02  0.36820911872E+02  0.00000000000E+00 0.  1.
         11    1    4    4    0    0  0.99265827703E+01 -0.86731014933E+01  0.28576372873E+01  0.13487988217E+02  0.51100000000E-03 0. -1.
        -11    1    4    4    0    0 -0.28911601640E+01  0.93563716475E+00 -0.75717758292E+01  0.81587997565E+01  0.51100000000E-03 0.  1.
         12    1    4    4    0    0  0.14859943565E+02 -0.12466964881E+02  0.26350994405E+02  0.32720300155E+02  0.00000000000E+00 0. -1.
</event>
<event>
 8    1  0.2482403E-006  0.9118800E+02  0.7816164E-02  0.1184000E+00
        -11   -1    0    0    0    0  0.00000000000E+00  0.00000000000E+00  0.45593999997E+02  0.45594000000E+02  0.51100000000E-03 0. -1.
         11   -1    0    0    0    0 -0.00000000000E+00 -0.00000000000E+00 -0.45593999997E+02  0.45594000000E+02  0.51100000000E-03 0.  1.
         23    2    1    2    0    0 -0.44408920985E-15  0.00000000000E+00  0.00000000000E+00  0.91188000000E+02  0.91188000000E+02 0.  0.
    9900012    2    3    3    0    0 -0.31278416081E+01 -0.32163824788E+02  0.17648920713E+02  0.54367089902E+02  0.40000013049E+02 0.  0.
        -12    1    3    3    0    0  0.31278416081E+01  0.32163824788E+02 -0.17648920713E+02  0.36820910098E+02  0.00000000000E+00 0.  1.
         11    1    4    4    0    0  0.62472944716E+00 -0.28149199751E+02  0.75694237514E+01  0.29155855496E+02  0.51100000000E-03 0. -1.
        -11    1    4    4    0    0 -0.82832156119E+01 -0.25203618033E+01 -0.45800596381E+01  0.97949390525E+01  0.51100000000E-03 0.  1.
         12    1    4    4    0    0  0.45306445567E+01 -0.14942632339E+01  0.14659556600E+02  0.15416295353E+02  0.00000000000E+00 0. -1.
</event>
<event>
 8    1  0.2482403E-006  0.9118800E+02  0.7816164E-02  0.1184000E+00
        -11   -1    0    0    0    0  0.00000000000E+00  0.00000000000E+00  0.45593999997E+02  0.45594000000E+02  0.51100000000E-03 0. -1.
         11   -1    0    0    0    0 -0.00000000000E+00 -0.00000000000E+00 -0.45593999997E+02  0.45594000000E+02  0.51100000000E-03 0.  1.
         23    2    1    2    0    0  0.00000000000E+00  0.00000000000E+00 -0.44408920985E-15  0.91188000000E+02  0.91188000000E+02 0.  0.
    9900012    2    3    3    0    0 -0.14309000435E+02  0.33815719765E+02  0.27441630366E+01  0.54367070797E+02  0.39999969495E+02 0.  0.
        -12    1    3    3    0    0  0.14309000435E+02 -0.33815719765E+02 -0.27441630366E+01  0.36820929203E+02  0.00000000000E+00 0.  1.
         11    1    4    4    0    0  0.97654618765E+00  0.65462583734E+01  0.17699824875E+02  0.18896850056E+02  0.51100000000E-03 0. -1.
        -11    1    4    4    0    0 -0.61261589487E+00  0.38570484253E+00  0.75711476563E+00  0.10475158661E+01  0.51100000000E-03 0.  1.
        -12    1    4    4    0    0 -0.14672930727E+02  0.26883756549E+02 -0.15712776604E+02  0.34422704875E+02  0.00000000000E+00 0.  1.
</event>
<event>
 8    1  0.2482403E-006  0.9118800E+02  0.7816164E-02  0.1184000E+00
        -11   -1    0    0    0    0  0.00000000000E+00  0.00000000000E+00  0.45593999997E+02  0.45594000000E+02  0.51100000000E-03 0. -1.
         11   -1    0    0    0    0 -0.00000000000E+00 -0.00000000000E+00 -0.45593999997E+02  0.45594000000E+02  0.51100000000E-03 0.  1.
         23    2    1    2    0    0  0.00000000000E+00  0.00000000000E+00 -0.17763568394E-14  0.91188000000E+02  0.91188000000E+02 0.  0.
    9900012    2    3    3    0    0  0.17336007950E+02  0.30225671193E+02  0.11901603880E+02  0.54367128940E+02  0.40000102043E+02 0.  0.
        -12    1    3    3    0    0 -0.17336007950E+02 -0.30225671193E+02 -0.11901603880E+02  0.36820871060E+02  0.00000000000E+00 0.  1.
         11    1    4    4    0    0  0.12343437263E+02  0.78721309009E+01  0.41068026632E+01  0.15205154283E+02  0.51100000000E-03 0. -1.
        -11    1    4    4    0    0  0.17986181269E+00 -0.77664099570E+01  0.41322005941E+00  0.77794745948E+01  0.51100000000E-03 0.  1.
         12    1    4    4    0    0  0.48127088740E+01  0.30119950249E+02  0.73815811578E+01  0.31382500062E+02  0.00000000000E+00 0. -1.
</event>
<event>
 8    1  0.2482403E-006  0.9118800E+02  0.7816164E-02  0.1184000E+00
        -11   -1    0    0    0    0  0.00000000000E+00  0.00000000000E+00  0.45593999997E+02  0.45594000000E+02  0.51100000000E-03 0.  1.
         11   -1    0    0    0    0 -0.00000000000E+00 -0.00000000000E+00 -0.45593999997E+02  0.45594000000E+02  0.51100000000E-03 0. -1.
         23    2    1    2    0    0  0.35527136788E-14  0.00000000000E+00  0.00000000000E+00  0.91188000000E+02  0.91188000000E+02 0.  0.
    9900012    2    3    3    0    0  0.28450458416E+02  0.16799084067E+02 -0.16252540353E+02  0.54367042958E+02  0.39999906032E+02 0.  0.
        -12    1    3    3    0    0 -0.28450458416E+02 -0.16799084067E+02  0.16252540353E+02  0.36820957042E+02  0.00000000000E+00 0.  1.
         11    1    4    4    0    0  0.14144496603E+02  0.10742199490E+02 -0.12728060318E+02  0.21850976037E+02  0.51100000000E-03 0. -1.
        -11    1    4    4    0    0  0.11124768550E+02  0.17105686063E+02 -0.47580721853E+01  0.20952427595E+02  0.51100000000E-03 0.  1.
        -12    1    4    4    0    0  0.31811932634E+01 -0.11048801486E+02  0.12335921511E+01  0.11563639326E+02  0.00000000000E+00 0.  1.
</event>
<event>
 8    1  0.2482403E-006  0.9118800E+02  0.7816164E-02  0.1184000E+00
        -11   -1    0    0    0    0  0.00000000000E+00  0.00000000000E+00  0.45593999997E+02  0.45594000000E+02  0.51100000000E-03 0.  1.
         11   -1    0    0    0    0 -0.00000000000E+00 -0.00000000000E+00 -0.45593999997E+02  0.45594000000E+02  0.51100000000E-03 0. -1.
         23    2    1    2    0    0  0.00000000000E+00  0.00000000000E+00  0.71054273576E-14  0.91188000000E+02  0.91188000000E+02 0.  0.
    9900012    2    3    3    0    0  0.14456386901E+02  0.38539188335E+01 -0.33644295215E+02  0.54367103581E+02  0.40000044233E+02 0.  0.
        -12    1    3    3    0    0 -0.14456386901E+02 -0.38539188335E+01  0.33644295215E+02  0.36820896419E+02  0.00000000000E+00 0.  1.
         11    1    4    4    0    0  0.17641853626E+02  0.64331320216E+01 -0.33876003597E+02  0.38732464509E+02  0.51100000000E-03 0. -1.
        -11    1    4    4    0    0  0.10489960216E+01 -0.74240265188E+01 -0.34147168376E+01  0.82387410293E+01  0.51100000000E-03 0.  1.
         12    1    4    4    0    0 -0.42344627467E+01  0.48448133307E+01  0.36464252201E+01  0.73958980420E+01  0.00000000000E+00 0. -1.
</event>
<event>
 8    1  0.2482403E-006  0.9118800E+02  0.7816164E-02  0.1184000E+00
        -11   -1    0    0    0    0  0.00000000000E+00  0.00000000000E+00  0.45593999997E+02  0.45594000000E+02  0.51100000000E-03 0. -1.
         11   -1    0    0    0    0 -0.00000000000E+00 -0.00000000000E+00 -0.45593999997E+02  0.45594000000E+02  0.51100000000E-03 0.  1.
         23    2    1    2    0    0  0.35527136788E-14  0.00000000000E+00  0.00000000000E+00  0.91188000000E+02  0.91188000000E+02 0.  0.
    9900012    2    3    3    0    0 -0.29510060311E+02  0.38951963189E+01  0.21673993961E+02  0.54367106092E+02  0.40000049959E+02 0.  0.
        -12    1    3    3    0    0  0.29510060311E+02 -0.38951963189E+01 -0.21673993961E+02  0.36820893908E+02  0.00000000000E+00 0.  1.
         11    1    4    4    0    0 -0.17775685158E+00 -0.26807628997E+01  0.15052243219E+02  0.15290131242E+02  0.51100000000E-03 0. -1.
        -11    1    4    4    0    0 -0.80691822574E+01  0.15166840128E+01 -0.90219664214E+01  0.12198684809E+02  0.51100000000E-03 0.  1.
        -12    1    4    4    0    0 -0.21263121202E+02  0.50592752058E+01  0.15643717164E+02  0.26878290042E+02  0.00000000000E+00 0.  1.
</event>
<event>
 8    1  0.2482403E-006  0.9118800E+02  0.7816164E-02  0.1184000E+00
        -11   -1    0    0    0    0  0.00000000000E+00  0.00000000000E+00  0.45593999997E+02  0.45594000000E+02  0.51100000000E-03 0. -1.
         11   -1    0    0    0    0 -0.00000000000E+00 -0.00000000000E+00 -0.45593999997E+02  0.45594000000E+02  0.51100000000E-03 0.  1.
         23    2    1    2    0    0  0.00000000000E+00  0.18873791419E-14  0.35527136788E-14  0.91188000000E+02  0.91188000000E+02 0.  0.
    9900012    2    3    3    0    0 -0.18802476639E+02  0.62354727524E+00  0.31652153933E+02  0.54367071337E+02  0.39999970728E+02 0.  0.
        -12    1    3    3    0    0  0.18802476639E+02 -0.62354727524E+00 -0.31652153933E+02  0.36820928663E+02  0.00000000000E+00 0.  1.
         11    1    4    4    0    0 -0.17166661907E+02  0.46266804110E+01  0.20163074137E+02  0.26882150427E+02  0.51100000000E-03 0. -1.
        -11    1    4    4    0    0  0.71089258749E+01  0.60768788083E+01  0.10563055742E+02  0.14108275232E+02  0.51100000000E-03 0.  1.
         12    1    4    4    0    0 -0.87447406063E+01 -0.10080011944E+02  0.92602405434E+00  0.13376645679E+02  0.00000000000E+00 0. -1.
</event>
<event>
 8    1  0.2482403E-006  0.9118800E+02  0.7816164E-02  0.1184000E+00
        -11   -1    0    0    0    0  0.00000000000E+00  0.00000000000E+00  0.45593999997E+02  0.45594000000E+02  0.51100000000E-03 0.  1.
         11   -1    0    0    0    0 -0.00000000000E+00 -0.00000000000E+00 -0.45593999997E+02  0.45594000000E+02  0.51100000000E-03 0. -1.
         23    2    1    2    0    0  0.88817841970E-15  0.35527136788E-14  0.00000000000E+00  0.91188000000E+02  0.91188000000E+02 0.  0.
    9900012    2    3    3    0    0  0.65019616930E+01  0.23019227611E+02  0.27993146721E+02  0.54367128079E+02  0.40000100082E+02 0.  0.
         12    1    3    3    0    0 -0.65019616930E+01 -0.23019227611E+02 -0.27993146721E+02  0.36820871921E+02  0.00000000000E+00 0. -1.
         11    1    4    4    0    0  0.16002889474E+02  0.83911417436E+00  0.24438306088E+02  0.29223747002E+02  0.51100000000E-03 0. -1.
        -11    1    4    4    0    0 -0.49842337461E+01  0.10712594124E+02  0.48053642992E+01  0.12755147401E+02  0.51100000000E-03 0.  1.
         12    1    4    4    0    0 -0.45166940346E+01  0.11467519313E+02 -0.12505236669E+01  0.12388233677E+02  0.00000000000E+00 0. -1.
</event>
<event>
 8    1  0.2482403E-006  0.9118800E+02  0.7816164E-02  0.1184000E+00
        -11   -1    0    0    0    0  0.00000000000E+00  0.00000000000E+00  0.45593999997E+02  0.45594000000E+02  0.51100000000E-03 0. -1.
         11   -1    0    0    0    0 -0.00000000000E+00 -0.00000000000E+00 -0.45593999997E+02  0.45594000000E+02  0.51100000000E-03 0.  1.
         23    2    1    2    0    0  0.35527136788E-14  0.71054273576E-14  0.00000000000E+00  0.91188000000E+02  0.91188000000E+02 0.  0.
    9900012    2    3    3    0    0 -0.17430091097E+02 -0.31650761593E+02 -0.70852283842E+01  0.54367092266E+02  0.40000018439E+02 0.  0.
         12    1    3    3    0    0  0.17430091097E+02  0.31650761593E+02  0.70852283842E+01  0.36820907734E+02  0.00000000000E+00 0. -1.
         11    1    4    4    0    0  0.27466009657E+01  0.36637462614E+01 -0.28621479373E+00  0.45878941468E+01  0.51100000000E-03 0. -1.
        -11    1    4    4    0    0 -0.83130075134E+01 -0.20702727581E+02 -0.17295688717E+02  0.28228529392E+02  0.51100000000E-03 0.  1.
         12    1    4    4    0    0 -0.11863684550E+02 -0.14611780274E+02  0.10496675126E+02  0.21550668727E+02  0.00000000000E+00 0. -1.
</event>
<event>
 8    1  0.2482403E-006  0.9118800E+02  0.7816164E-02  0.1184000E+00
        -11   -1    0    0    0    0  0.00000000000E+00  0.00000000000E+00  0.45593999997E+02  0.45594000000E+02  0.51100000000E-03 0. -1.
         11   -1    0    0    0    0 -0.00000000000E+00 -0.00000000000E+00 -0.45593999997E+02  0.45594000000E+02  0.51100000000E-03 0.  1.
         23    2    1    2    0    0  0.35527136788E-14  0.00000000000E+00  0.35527136788E-14  0.91188000000E+02  0.91188000000E+02 0.  0.
    9900012    2    3    3    0    0  0.29443817959E+02 -0.11833154705E+02  0.18676697586E+02  0.54367068466E+02  0.39999964183E+02 0.  0.
        -12    1    3    3    0    0 -0.29443817959E+02  0.11833154705E+02 -0.18676697586E+02  0.36820931534E+02  0.00000000000E+00 0.  1.
         11    1    4    4    0    0 -0.93016463833E+00 -0.41949674243E+01  0.27825259987E+01  0.51191219110E+01  0.51100000000E-03 0. -1.
        -11    1    4    4    0    0  0.13121517753E+02  0.12279035080E+02 -0.91266118801E+00  0.17993940128E+02  0.51100000000E-03 0.  1.
        -12    1    4    4    0    0  0.17252464845E+02 -0.19917222361E+02  0.16806832775E+02  0.31254006427E+02  0.00000000000E+00 0.  1.
</event>
<event>
 8    1  0.2482403E-006  0.9118800E+02  0.7816164E-02  0.1184000E+00
        -11   -1    0    0    0    0  0.00000000000E+00  0.00000000000E+00  0.45593999997E+02  0.45594000000E+02  0.51100000000E-03 0. -1.
         11   -1    0    0    0    0 -0.00000000000E+00 -0.00000000000E+00 -0.45593999997E+02  0.45594000000E+02  0.51100000000E-03 0.  1.
         23    2    1    2    0    0  0.00000000000E+00 -0.71054273576E-14  0.71054273576E-14  0.91188000000E+02  0.91188000000E+02 0.  0.
    9900012    2    3    3    0    0 -0.10175187230E+01  0.19022647843E+02 -0.31510062812E+02  0.54367074785E+02  0.39999978587E+02 0.  0.
         12    1    3    3    0    0  0.10175187230E+01 -0.19022647843E+02  0.31510062812E+02  0.36820925215E+02  0.00000000000E+00 0. -1.
         11    1    4    4    0    0 -0.13962974380E+01 -0.40201305127E+01  0.10430621979E+01  0.43816748949E+01  0.51100000000E-03 0. -1.
        -11    1    4    4    0    0  0.47162168828E+00 -0.68574829952E+01 -0.18277619792E+01  0.71125392202E+01  0.51100000000E-03 0.  1.
        -12    1    4    4    0    0 -0.92842973349E-01  0.29900261351E+02 -0.30725363030E+02  0.42872860670E+02  0.00000000000E+00 0.  1.
</event>
<event>
 8    1  0.2482403E-006  0.9118800E+02  0.7816164E-02  0.1184000E+00
        -11   -1    0    0    0    0  0.00000000000E+00  0.00000000000E+00  0.45593999997E+02  0.45594000000E+02  0.51100000000E-03 0.  1.
         11   -1    0    0    0    0 -0.00000000000E+00 -0.00000000000E+00 -0.45593999997E+02  0.45594000000E+02  0.51100000000E-03 0. -1.
         23    2    1    2    0    0  0.44408920985E-15  0.00000000000E+00  0.35527136788E-14  0.91188000000E+02  0.91188000000E+02 0.  0.
    9900012    2    3    3    0    0 -0.37775471367E+01 -0.19495683824E+02  0.31006891841E+02  0.54367097081E+02  0.40000029416E+02 0.  0.
         12    1    3    3    0    0  0.37775471367E+01  0.19495683824E+02 -0.31006891841E+02  0.36820902919E+02  0.00000000000E+00 0. -1.
         11    1    4    4    0    0  0.20061647839E+01  0.78347556336E+01 -0.27497569077E+01  0.85422044163E+01  0.51100000000E-03 0. -1.
        -11    1    4    4    0    0 -0.13025342600E-01 -0.20647691592E+02  0.16462643987E+02  0.26407309311E+02  0.51100000000E-03 0.  1.
         12    1    4    4    0    0 -0.57706865780E+01 -0.66827478654E+01  0.17294004762E+02  0.19417583354E+02  0.00000000000E+00 0. -1.
</event>
<event>
 8    1  0.2482403E-006  0.9118800E+02  0.7816164E-02  0.1184000E+00
        -11   -1    0    0    0    0  0.00000000000E+00  0.00000000000E+00  0.45593999997E+02  0.45594000000E+02  0.51100000000E-03 0. -1.
         11   -1    0    0    0    0 -0.00000000000E+00 -0.00000000000E+00 -0.45593999997E+02  0.45594000000E+02  0.51100000000E-03 0.  1.
         23    2    1    2    0    0  0.35527136788E-14  0.00000000000E+00 -0.35527136788E-14  0.91188000000E+02  0.91188000000E+02 0.  0.
    9900012    2    3    3    0    0 -0.21920660576E+02  0.96554542911E+01  0.27964942316E+02  0.54367066329E+02  0.39999959310E+02 0.  0.
        -12    1    3    3    0    0  0.21920660576E+02 -0.96554542911E+01 -0.27964942316E+02  0.36820933671E+02  0.00000000000E+00 0.  1.
         11    1    4    4    0    0 -0.85881371999E+00 -0.17822611816E+01  0.42176318685E+01  0.46585872069E+01  0.51100000000E-03 0. -1.
        -11    1    4    4    0    0 -0.22108485354E+02  0.15708159566E+02  0.16422250756E+01  0.27170357102E+02  0.51100000000E-03 0.  1.
        -12    1    4    4    0    0  0.10466384975E+01 -0.42704440933E+01  0.22105085372E+02  0.22538122020E+02  0.00000000000E+00 0.  1.
</event>
<event>
 8    1  0.2482403E-006  0.9118800E+02  0.7816164E-02  0.1184000E+00
        -11   -1    0    0    0    0  0.00000000000E+00  0.00000000000E+00  0.45593999997E+02  0.45594000000E+02  0.51100000000E-03 0.  1.
         11   -1    0    0    0    0 -0.00000000000E+00 -0.00000000000E+00 -0.45593999997E+02  0.45594000000E+02  0.51100000000E-03 0. -1.
         23    2    1    2    0    0 -0.35527136788E-14  0.26645352591E-14  0.71054273576E-14  0.91188000000E+02  0.91188000000E+02 0.  0.
    9900012    2    3    3    0    0 -0.16036268368E+02  0.53988469261E+01  0.32702750347E+02  0.54367091109E+02  0.40000015801E+02 0.  0.
         12    1    3    3    0    0  0.16036268368E+02 -0.53988469261E+01 -0.32702750347E+02  0.36820908891E+02  0.00000000000E+00 0. -1.
         11    1    4    4    0    0  0.24000648677E+01 -0.13032775832E+02  0.11548002264E+02  0.17577540038E+02  0.51100000000E-03 0. -1.
        -11    1    4    4    0    0 -0.13188624607E+02  0.20376425020E+02  0.15309063604E+02  0.28696793276E+02  0.51100000000E-03 0.  1.
        -12    1    4    4    0    0 -0.52477086287E+01 -0.19448022625E+01  0.58456844790E+01  0.80927577945E+01  0.00000000000E+00 0.  1.
</event>
<event>
 8    1  0.2482403E-006  0.9118800E+02  0.7816164E-02  0.1184000E+00
        -11   -1    0    0    0    0  0.00000000000E+00  0.00000000000E+00  0.45593999997E+02  0.45594000000E+02  0.51100000000E-03 0.  1.
         11   -1    0    0    0    0 -0.00000000000E+00 -0.00000000000E+00 -0.45593999997E+02  0.45594000000E+02  0.51100000000E-03 0. -1.
         23    2    1    2    0    0  0.00000000000E+00 -0.71054273576E-14 -0.88817841970E-15  0.91188000000E+02  0.91188000000E+02 0.  0.
    9900012    2    3    3    0    0  0.76172632456E+01 -0.35149818513E+02 -0.78894503836E+01  0.54367138139E+02  0.40000123015E+02 0.  0.
        -12    1    3    3    0    0 -0.76172632456E+01  0.35149818513E+02  0.78894503836E+01  0.36820861861E+02  0.00000000000E+00 0.  1.
         11    1    4    4    0    0  0.13596860787E+02 -0.48305171263E+01 -0.17904617827E+01  0.14540091905E+02  0.51100000000E-03 0. -1.
        -11    1    4    4    0    0 -0.32116749531E+01  0.27267149738E+01 -0.51473042556E+01  0.66516593354E+01  0.51100000000E-03 0.  1.
         12    1    4    4    0    0 -0.27679225881E+01 -0.33046016360E+02 -0.95168434526E+00  0.33175386898E+02  0.00000000000E+00 0. -1.
</event>
<event>
 8    1  0.2482403E-006  0.9118800E+02  0.7816164E-02  0.1184000E+00
        -11   -1    0    0    0    0  0.00000000000E+00  0.00000000000E+00  0.45593999997E+02  0.45594000000E+02  0.51100000000E-03 0. -1.
         11   -1    0    0    0    0 -0.00000000000E+00 -0.00000000000E+00 -0.45593999997E+02  0.45594000000E+02  0.51100000000E-03 0.  1.
         23    2    1    2    0    0  0.66613381478E-15  0.12212453271E-14  0.00000000000E+00  0.91188000000E+02  0.91188000000E+02 0.  0.
    9900012    2    3    3    0    0  0.90089062856E+00  0.27141353377E+00  0.36809104164E+02  0.54366872660E+02  0.39999517799E+02 0.  0.
        -12    1    3    3    0    0 -0.90089062856E+00 -0.27141353377E+00 -0.36809104164E+02  0.36821127340E+02  0.00000000000E+00 0.  1.
         11    1    4    4    0    0 -0.54742999288E+01 -0.20198166351E+01  0.29865388855E+02  0.30430068529E+02  0.51100000000E-03 0. -1.
        -11    1    4    4    0    0  0.20458763777E+01  0.98223127486E+01  0.10524827324E+02  0.14540819384E+02  0.51100000000E-03 0.  1.
         12    1    4    4    0    0  0.43293141797E+01 -0.75310825797E+01 -0.35811120154E+01  0.93959847465E+01  0.00000000000E+00 0. -1.
</event>
<event>
 8    1  0.2482403E-006  0.9118800E+02  0.7816164E-02  0.1184000E+00
        -11   -1    0    0    0    0  0.00000000000E+00  0.00000000000E+00  0.45593999997E+02  0.45594000000E+02  0.51100000000E-03 0. -1.
         11   -1    0    0    0    0 -0.00000000000E+00 -0.00000000000E+00 -0.45593999997E+02  0.45594000000E+02  0.51100000000E-03 0.  1.
         23    2    1    2    0    0  0.00000000000E+00 -0.17763568394E-14  0.00000000000E+00  0.91188000000E+02  0.91188000000E+02 0.  0.
    9900012    2    3    3    0    0 -0.73672752409E+01  0.10919416750E+02 -0.34384215681E+02  0.54367018282E+02  0.39999849778E+02 0.  0.
         12    1    3    3    0    0  0.73672752409E+01 -0.10919416750E+02  0.34384215681E+02  0.36820981718E+02  0.00000000000E+00 0. -1.
         11    1    4    4    0    0  0.56444451500E+00  0.64841149769E+01 -0.10627263432E+01  0.65948261680E+01  0.51100000000E-03 0. -1.
        -11    1    4    4    0    0  0.89749049553E+01  0.11579859724E+02 -0.21224766334E+02  0.25790168212E+02  0.51100000000E-03 0.  1.
         12    1    4    4    0    0 -0.16906624711E+02 -0.71445579508E+01 -0.12096723004E+02  0.21982023903E+02  0.00000000000E+00 0. -1.
</event>
<event>
 8    1  0.2482403E-006  0.9118800E+02  0.7816164E-02  0.1184000E+00
        -11   -1    0    0    0    0  0.00000000000E+00  0.00000000000E+00  0.45593999997E+02  0.45594000000E+02  0.51100000000E-03 0.  1.
         11   -1    0    0    0    0 -0.00000000000E+00 -0.00000000000E+00 -0.45593999997E+02  0.45594000000E+02  0.51100000000E-03 0. -1.
         23    2    1    2    0    0  0.44408920985E-15  0.00000000000E+00 -0.35527136788E-14  0.91188000000E+02  0.91188000000E+02 0.  0.
    9900012    2    3    3    0    0  0.24695804049E+01  0.24063887226E+02 -0.27760179027E+02  0.54366850705E+02  0.39999467749E+02 0.  0.
        -12    1    3    3    0    0 -0.24695804049E+01 -0.24063887226E+02  0.27760179027E+02  0.36821149295E+02  0.00000000000E+00 0.  1.
         11    1    4    4    0    0  0.77465215794E+01 -0.58085202394E+00 -0.22701087697E+02  0.23993444282E+02  0.51100000000E-03 0. -1.
        -11    1    4    4    0    0  0.41280659485E+01  0.67128776965E+01 -0.62964017085E+01  0.10087037731E+02  0.51100000000E-03 0.  1.
        -12    1    4    4    0    0 -0.94050071230E+01  0.17931861553E+02  0.12373103782E+01  0.20286368692E+02  0.00000000000E+00 0.  1.
</event>
<event>
 8    1  0.2482403E-006  0.9118800E+02  0.7816164E-02  0.1184000E+00
        -11   -1    0    0    0    0  0.00000000000E+00  0.00000000000E+00  0.45593999997E+02  0.45594000000E+02  0.51100000000E-03 0. -1.
         11   -1    0    0    0    0 -0.00000000000E+00 -0.00000000000E+00 -0.45593999997E+02  0.45594000000E+02  0.51100000000E-03 0.  1.
         23    2    1    2    0    0 -0.35527136788E-14  0.17763568394E-14 -0.35527136788E-14  0.91188000000E+02  0.91188000000E+02 0.  0.
    9900012    2    3    3    0    0  0.20591854430E+02 -0.98722267311E+01  0.28884158348E+02  0.54367082942E+02  0.39999997184E+02 0.  0.
        -12    1    3    3    0    0 -0.20591854430E+02  0.98722267311E+01 -0.28884158348E+02  0.36820917058E+02  0.00000000000E+00 0.  1.
         11    1    4    4    0    0 -0.55148422551E+01  0.60433228951E+01  0.18771812772E+02  0.20477211522E+02  0.51100000000E-03 0. -1.
        -11    1    4    4    0    0  0.10976684565E+02 -0.60864454586E+01 -0.11775386238E+01  0.12606308731E+02  0.51100000000E-03 0.  1.
         12    1    4    4    0    0  0.15130012120E+02 -0.98291041676E+01  0.11289884200E+02  0.21283562689E+02  0.00000000000E+00 0. -1.
</event>
<event>
 8    1  0.2482403E-006  0.9118800E+02  0.7816164E-02  0.1184000E+00
        -11   -1    0    0    0    0  0.00000000000E+00  0.00000000000E+00  0.45593999997E+02  0.45594000000E+02  0.51100000000E-03 0.  1.
         11   -1    0    0    0    0 -0.00000000000E+00 -0.00000000000E+00 -0.45593999997E+02  0.45594000000E+02  0.51100000000E-03 0. -1.
         23    2    1    2    0    0 -0.35527136788E-14  0.71054273576E-14  0.00000000000E+00  0.91188000000E+02  0.91188000000E+02 0.  0.
    9900012    2    3    3    0    0 -0.17384468523E+02 -0.32276454011E+02  0.34328303541E+01  0.54367169569E+02  0.40000194666E+02 0.  0.
        -12    1    3    3    0    0  0.17384468523E+02  0.32276454011E+02 -0.34328303541E+01  0.36820830431E+02  0.00000000000E+00 0.  1.
         11    1    4    4    0    0  0.28754069603E+01 -0.19885810867E+01  0.80138392421E+01  0.87432282131E+01  0.51100000000E-03 0. -1.
        -11    1    4    4    0    0 -0.77174230201E+01  0.17251549171E+01  0.56877123338E+01  0.97408854532E+01  0.51100000000E-03 0.  1.
         12    1    4    4    0    0 -0.12542452463E+02 -0.32013027842E+02 -0.10268721222E+02  0.35883055903E+02  0.00000000000E+00 0. -1.
</event>
<event>
 8    1  0.2482403E-006  0.9118800E+02  0.7816164E-02  0.1184000E+00
        -11   -1    0    0    0    0  0.00000000000E+00  0.00000000000E+00  0.45593999997E+02  0.45594000000E+02  0.51100000000E-03 0.  1.
         11   -1    0    0    0    0 -0.00000000000E+00 -0.00000000000E+00 -0.45593999997E+02  0.45594000000E+02  0.51100000000E-03 0. -1.
         23    2    1    2    0    0  0.35527136788E-14  0.38857805862E-15  0.00000000000E+00  0.91188000000E+02  0.91188000000E+02 0.  0.
    9900012    2    3    3    0    0 -0.31325680516E+02  0.34616364872E+00  0.19348419199E+02  0.54367089982E+02  0.40000013233E+02 0.  0.
         12    1    3    3    0    0  0.31325680516E+02 -0.34616364872E+00 -0.19348419199E+02  0.36820910018E+02  0.00000000000E+00 0. -1.
         11    1    4    4    0    0 -0.93643868818E+01  0.69883624499E+00  0.42121026015E+01  0.10291837657E+02  0.51100000000E-03 0. -1.
        -11    1    4    4    0    0  0.54471959980E+01  0.96894367000E+01  0.88678263996E+01  0.14219545461E+02  0.51100000000E-03 0.  1.
         12    1    4    4    0    0 -0.27408489632E+02 -0.10042109296E+02  0.62684901974E+01  0.29855706864E+02  0.00000000000E+00 0. -1.
</event>
<event>
 8    1  0.2482403E-006  0.9118800E+02  0.7816164E-02  0.1184000E+00
        -11   -1    0    0    0    0  0.00000000000E+00  0.00000000000E+00  0.45593999997E+02  0.45594000000E+02  0.51100000000E-03 0.  1.
         11   -1    0    0    0    0 -0.00000000000E+00 -0.00000000000E+00 -0.45593999997E+02  0.45594000000E+02  0.51100000000E-03 0. -1.
         23    2    1    2    0    0  0.00000000000E+00  0.17763568394E-14  0.31641356202E-14  0.91188000000E+02  0.91188000000E+02 0.  0.
    9900012    2    3    3    0    0  0.35893719247E+02 -0.82108458486E+01 -0.49416427397E-01  0.54367088646E+02  0.40000010186E+02 0.  0.
        -12    1    3    3    0    0 -0.35893719247E+02  0.82108458486E+01  0.49416427397E-01  0.36820911354E+02  0.00000000000E+00 0.  1.
         11    1    4    4    0    0  0.32608881645E+02 -0.33901421072E+01 -0.10982648889E+02  0.34575291792E+02  0.51100000000E-03 0. -1.
        -11    1    4    4    0    0 -0.18150399690E+01 -0.96229619695E+00 -0.34700962058E+01  0.40326110646E+01  0.51100000000E-03 0.  1.
         12    1    4    4    0    0  0.50998775717E+01 -0.38584075445E+01  0.14403328668E+02  0.15759185789E+02  0.00000000000E+00 0. -1.
</event>
<event>
 8    1  0.2482403E-006  0.9118800E+02  0.7816164E-02  0.1184000E+00
        -11   -1    0    0    0    0  0.00000000000E+00  0.00000000000E+00  0.45593999997E+02  0.45594000000E+02  0.51100000000E-03 0.  1.
         11   -1    0    0    0    0 -0.00000000000E+00 -0.00000000000E+00 -0.45593999997E+02  0.45594000000E+02  0.51100000000E-03 0. -1.
         23    2    1    2    0    0  0.17763568394E-14  0.71054273576E-14  0.42327252814E-15  0.91188000000E+02  0.91188000000E+02 0.  0.
    9900012    2    3    3    0    0 -0.12982969506E+02  0.34456057383E+02  0.43204180095E-01  0.54367092160E+02  0.40000018196E+02 0.  0.
        -12    1    3    3    0    0  0.12982969506E+02 -0.34456057383E+02 -0.43204180095E-01  0.36820907840E+02  0.00000000000E+00 0.  1.
         11    1    4    4    0    0 -0.38547872121E+01 -0.39129790761E+01 -0.34225904251E+01  0.64718556210E+01  0.51100000000E-03 0. -1.
        -11    1    4    4    0    0 -0.31283123315E+01 -0.53180810992E+00  0.76797415753E+01  0.83094878804E+01  0.51100000000E-03 0.  1.
         12    1    4    4    0    0 -0.59998699621E+01  0.38900844569E+02 -0.42139469701E+01  0.39585748658E+02  0.00000000000E+00 0. -1.
</event>
<event>
 8    1  0.2482403E-006  0.9118800E+02  0.7816164E-02  0.1184000E+00
        -11   -1    0    0    0    0  0.00000000000E+00  0.00000000000E+00  0.45593999997E+02  0.45594000000E+02  0.51100000000E-03 0.  1.
         11   -1    0    0    0    0 -0.00000000000E+00 -0.00000000000E+00 -0.45593999997E+02  0.45594000000E+02  0.51100000000E-03 0. -1.
         23    2    1    2    0    0 -0.35527136788E-14 -0.17763568394E-14  0.00000000000E+00  0.91188000000E+02  0.91188000000E+02 0.  0.
    9900012    2    3    3    0    0 -0.24817134711E+02 -0.88500989895E+01  0.25720907914E+02  0.54367088397E+02  0.40000009619E+02 0.  0.
         12    1    3    3    0    0  0.24817134711E+02  0.88500989895E+01 -0.25720907914E+02  0.36820911603E+02  0.00000000000E+00 0. -1.
         11    1    4    4    0    0  0.14014499056E+01  0.89555040278E+01  0.13467133344E+02  0.16233570002E+02  0.51100000000E-03 0.  1.
        -11    1    4    4    0    0 -0.27220052185E+02 -0.19869362506E+02  0.12194221994E+02  0.35838831700E+02  0.51100000000E-03 0. -1.
         12    1    4    4    0    0  0.10014675685E+01  0.20637594889E+01  0.59552575680E-01  0.22946866950E+01  0.00000000000E+00 0. -1.
</event>
<event>
 8    1  0.2482403E-006  0.9118800E+02  0.7816164E-02  0.1184000E+00
        -11   -1    0    0    0    0  0.00000000000E+00  0.00000000000E+00  0.45593999997E+02  0.45594000000E+02  0.51100000000E-03 0. -1.
         11   -1    0    0    0    0 -0.00000000000E+00 -0.00000000000E+00 -0.45593999997E+02  0.45594000000E+02  0.51100000000E-03 0.  1.
         23    2    1    2    0    0  0.00000000000E+00  0.00000000000E+00 -0.35527136788E-14  0.91188000000E+02  0.91188000000E+02 0.  0.
    9900012    2    3    3    0    0  0.21313949026E+02  0.55222706773E+01  0.29512704127E+02  0.54367087444E+02  0.40000007447E+02 0.  0.
        -12    1    3    3    0    0 -0.21313949026E+02 -0.55222706773E+01 -0.29512704127E+02  0.36820912556E+02  0.00000000000E+00 0.  1.
         11    1    4    4    0    0 -0.60147807624E+01  0.24660768389E+01 -0.18720753815E+00  0.65033967677E+01  0.51100000000E-03 0. -1.
        -11    1    4    4    0    0 -0.83736245812E+00 -0.14697588775E+01  0.16226777650E+02  0.16314707482E+02  0.51100000000E-03 0.  1.
         12    1    4    4    0    0  0.28166092247E+02  0.45259527158E+01  0.13473134015E+02  0.31548983195E+02  0.00000000000E+00 0. -1.
</event>
<event>
 8    1  0.2482403E-006  0.9118800E+02  0.7816164E-02  0.1184000E+00
        -11   -1    0    0    0    0  0.00000000000E+00  0.00000000000E+00  0.45593999997E+02  0.45594000000E+02  0.51100000000E-03 0. -1.
         11   -1    0    0    0    0 -0.00000000000E+00 -0.00000000000E+00 -0.45593999997E+02  0.45594000000E+02  0.51100000000E-03 0.  1.
         23    2    1    2    0    0 -0.35527136788E-14 -0.44408920985E-14  0.00000000000E+00  0.91188000000E+02  0.91188000000E+02 0.  0.
    9900012    2    3    3    0    0 -0.24188200973E+02 -0.70811988461E+01 -0.26843383276E+02  0.54367086526E+02  0.40000005352E+02 0.  0.
         12    1    3    3    0    0  0.24188200973E+02  0.70811988461E+01  0.26843383276E+02  0.36820913474E+02  0.00000000000E+00 0. -1.
         11    1    4    4    0    0  0.20485926925E+01 -0.10797383224E+02 -0.49353183340E+01  0.12047306082E+02  0.51100000000E-03 0. -1.
        -11    1    4    4    0    0 -0.16131020807E+01  0.97671060437E+01 -0.10759927728E+02  0.14621029504E+02  0.51100000000E-03 0.  1.
        -12    1    4    4    0    0 -0.24623691585E+02 -0.60509216654E+01 -0.11148137214E+02  0.27698750939E+02  0.00000000000E+00 0.  1.
</event>
<event>
 8    1  0.2482403E-006  0.9118800E+02  0.7816164E-02  0.1184000E+00
        -11   -1    0    0    0    0  0.00000000000E+00  0.00000000000E+00  0.45593999997E+02  0.45594000000E+02  0.51100000000E-03 0.  1.
         11   -1    0    0    0    0 -0.00000000000E+00 -0.00000000000E+00 -0.45593999997E+02  0.45594000000E+02  0.51100000000E-03 0. -1.
         23    2    1    2    0    0  0.00000000000E+00 -0.71054273576E-14 -0.17763568394E-14  0.91188000000E+02  0.91188000000E+02 0.  0.
    9900012    2    3    3    0    0  0.10153808268E+02  0.34177320831E+02  0.91971683071E+01  0.54367122954E+02  0.40000088399E+02 0.  0.
        -12    1    3    3    0    0 -0.10153808268E+02 -0.34177320831E+02 -0.91971683071E+01  0.36820877046E+02  0.00000000000E+00 0.  1.
         11    1    4    4    0    0  0.16210997559E+02  0.29952185293E+02  0.64528218174E+01  0.34663651789E+02  0.51100000000E-03 0. -1.
        -11    1    4    4    0    0  0.54005225046E+01  0.48164481492E+01 -0.16426256788E+01  0.74203797395E+01  0.51100000000E-03 0.  1.
        -12    1    4    4    0    0 -0.11457711795E+02 -0.59131261082E+00  0.43869721685E+01  0.12283091426E+02  0.00000000000E+00 0.  1.
</event>
<event>
 8    1  0.2482403E-006  0.9118800E+02  0.7816164E-02  0.1184000E+00
        -11   -1    0    0    0    0  0.00000000000E+00  0.00000000000E+00  0.45593999997E+02  0.45594000000E+02  0.51100000000E-03 0.  1.
         11   -1    0    0    0    0 -0.00000000000E+00 -0.00000000000E+00 -0.45593999997E+02  0.45594000000E+02  0.51100000000E-03 0. -1.
         23    2    1    2    0    0 -0.71054273576E-14  0.00000000000E+00 -0.35527136788E-14  0.91188000000E+02  0.91188000000E+02 0.  0.
    9900012    2    3    3    0    0  0.29908705259E+02 -0.91966864292E+01  0.19407996400E+02  0.54367081817E+02  0.39999994619E+02 0.  0.
         12    1    3    3    0    0 -0.29908705259E+02  0.91966864292E+01 -0.19407996400E+02  0.36820918183E+02  0.00000000000E+00 0. -1.
         11    1    4    4    0    0  0.17417106825E+01 -0.73529319159E+01  0.55800203379E+01  0.93933908198E+01  0.51100000000E-03 0. -1.
        -11    1    4    4    0    0 -0.44623672297E+01 -0.80755499524E+01  0.69442021128E+00  0.92525373826E+01  0.51100000000E-03 0.  1.
         12    1    4    4    0    0  0.32629361807E+02  0.62317954391E+01  0.13133555850E+02  0.35721153615E+02  0.00000000000E+00 0. -1.
</event>
<event>
 8    1  0.2482403E-006  0.9118800E+02  0.7816164E-02  0.1184000E+00
        -11   -1    0    0    0    0  0.00000000000E+00  0.00000000000E+00  0.45593999997E+02  0.45594000000E+02  0.51100000000E-03 0.  1.
         11   -1    0    0    0    0 -0.00000000000E+00 -0.00000000000E+00 -0.45593999997E+02  0.45594000000E+02  0.51100000000E-03 0. -1.
         23    2    1    2    0    0 -0.35527136788E-14  0.88817841970E-15  0.35527136788E-14  0.91188000000E+02  0.91188000000E+02 0.  0.
    9900012    2    3    3    0    0 -0.20611077572E+02 -0.77071933914E+01 -0.29522267448E+02  0.54367059980E+02  0.39999944837E+02 0.  0.
        -12    1    3    3    0    0  0.20611077572E+02  0.77071933914E+01  0.29522267448E+02  0.36820940020E+02  0.00000000000E+00 0.  1.
         11    1    4    4    0    0 -0.11528519261E+02 -0.57008829589E+01 -0.10113991045E+02  0.16361529207E+02  0.51100000000E-03 0. -1.
        -11    1    4    4    0    0 -0.65903448390E+01  0.22779546244E+01  0.77346599244E+01  0.10413773897E+02  0.51100000000E-03 0.  1.
        -12    1    4    4    0    0 -0.24922134722E+01 -0.42842650569E+01 -0.27142936327E+02  0.27591756876E+02  0.00000000000E+00 0.  1.
</event>
<event>
 8    1  0.2482403E-006  0.9118800E+02  0.7816164E-02  0.1184000E+00
        -11   -1    0    0    0    0  0.00000000000E+00  0.00000000000E+00  0.45593999997E+02  0.45594000000E+02  0.51100000000E-03 0. -1.
         11   -1    0    0    0    0 -0.00000000000E+00 -0.00000000000E+00 -0.45593999997E+02  0.45594000000E+02  0.51100000000E-03 0.  1.
         23    2    1    2    0    0  0.00000000000E+00  0.00000000000E+00  0.00000000000E+00  0.91188000000E+02  0.91188000000E+02 0.  0.
    9900012    2    3    3    0    0 -0.23173553109E+02  0.24204411026E+02  0.15261488813E+02  0.54367080436E+02  0.39999991469E+02 0.  0.
        -12    1    3    3    0    0  0.23173553109E+02 -0.24204411026E+02 -0.15261488813E+02  0.36820919564E+02  0.00000000000E+00 0.  1.
         11    1    4    4    0    0  0.47010151982E+01  0.64981939342E+01 -0.74468057033E+01  0.10944449906E+02  0.51100000000E-03 0. -1.
        -11    1    4    4    0    0 -0.29737517102E+01  0.62631203287E-01  0.98800888845E+01  0.10318104406E+02  0.51100000000E-03 0.  1.
         12    1    4    4    0    0 -0.24900816597E+02  0.17643585888E+02  0.12828205631E+02  0.33104526124E+02  0.00000000000E+00 0. -1.
</event>
<event>
 8    1  0.2482403E-006  0.9118800E+02  0.7816164E-02  0.1184000E+00
        -11   -1    0    0    0    0  0.00000000000E+00  0.00000000000E+00  0.45593999997E+02  0.45594000000E+02  0.51100000000E-03 0.  1.
         11   -1    0    0    0    0 -0.00000000000E+00 -0.00000000000E+00 -0.45593999997E+02  0.45594000000E+02  0.51100000000E-03 0. -1.
         23    2    1    2    0    0  0.17763568394E-14  0.22204460493E-15  0.00000000000E+00  0.91188000000E+02  0.91188000000E+02 0.  0.
    9900012    2    3    3    0    0  0.15339375590E+02 -0.14764421877E+00  0.33473282415E+02  0.54367097269E+02  0.40000029843E+02 0.  0.
         12    1    3    3    0    0 -0.15339375590E+02  0.14764421877E+00 -0.33473282415E+02  0.36820902731E+02  0.00000000000E+00 0. -1.
         11    1    4    4    0    0 -0.54364227032E+01 -0.37513773497E+01  0.61460586290E+00  0.66336463921E+01  0.51100000000E-03 0. -1.
        -11    1    4    4    0    0  0.24682905906E+02  0.47671239670E+00  0.14339128058E+02  0.28549670618E+02  0.51100000000E-03 0.  1.
        -12    1    4    4    0    0 -0.39071076129E+01  0.31270207342E+01  0.18519548494E+02  0.19183780258E+02  0.00000000000E+00 0.  1.
</event>
<event>
 8    1  0.2482403E-006  0.9118800E+02  0.7816164E-02  0.1184000E+00
        -11   -1    0    0    0    0  0.00000000000E+00  0.00000000000E+00  0.45593999997E+02  0.45594000000E+02  0.51100000000E-03 0. -1.
         11   -1    0    0    0    0 -0.00000000000E+00 -0.00000000000E+00 -0.45593999997E+02  0.45594000000E+02  0.51100000000E-03 0.  1.
         23    2    1    2    0    0  0.35527136788E-14 -0.35527136788E-14 -0.35527136788E-14  0.91188000000E+02  0.91188000000E+02 0.  0.
    9900012    2    3    3    0    0  0.27449107252E+02 -0.19806868564E+02 -0.14492336756E+02  0.54366900670E+02  0.39999581656E+02 0.  0.
         12    1    3    3    0    0 -0.27449107252E+02  0.19806868564E+02  0.14492336756E+02  0.36821099330E+02  0.00000000000E+00 0. -1.
         11    1    4    4    0    0 -0.27080834363E+01 -0.36905155830E+01 -0.19568540819E+01  0.49782425940E+01  0.51100000000E-03 0. -1.
        -11    1    4    4    0    0  0.26572369641E+02 -0.23923078554E+02 -0.20220602489E+01  0.35811914829E+02  0.51100000000E-03 0.  1.
         12    1    4    4    0    0  0.35848210472E+01  0.78067255730E+01 -0.10513422425E+02  0.13576743247E+02  0.00000000000E+00 0. -1.
</event>
<event>
 8    1  0.2482403E-006  0.9118800E+02  0.7816164E-02  0.1184000E+00
        -11   -1    0    0    0    0  0.00000000000E+00  0.00000000000E+00  0.45593999997E+02  0.45594000000E+02  0.51100000000E-03 0. -1.
         11   -1    0    0    0    0 -0.00000000000E+00 -0.00000000000E+00 -0.45593999997E+02  0.45594000000E+02  0.51100000000E-03 0.  1.
         23    2    1    2    0    0  0.35527136788E-14 -0.17763568394E-14 -0.17763568394E-14  0.91188000000E+02  0.91188000000E+02 0.  0.
    9900012    2    3    3    0    0 -0.30745161269E+02  0.15516130005E+02  0.13029377086E+02  0.54367083402E+02  0.39999998233E+02 0.  0.
        -12    1    3    3    0    0  0.30745161269E+02 -0.15516130005E+02 -0.13029377086E+02  0.36820916598E+02  0.00000000000E+00 0.  1.
         11    1    4    4    0    0 -0.13346232993E+02  0.77189654746E+01  0.22100790082E+02  0.26947157282E+02  0.51100000000E-03 0. -1.
        -11    1    4    4    0    0 -0.17140033010E+02  0.10021257937E+02 -0.19445832375E+01  0.19949630234E+02  0.51100000000E-03 0.  1.
         12    1    4    4    0    0 -0.25889526646E+00 -0.22240934064E+01 -0.71268297577E+01  0.74702958866E+01  0.00000000000E+00 0. -1.
</event>
<event>
 8    1  0.2482403E-006  0.9118800E+02  0.7816164E-02  0.1184000E+00
        -11   -1    0    0    0    0  0.00000000000E+00  0.00000000000E+00  0.45593999997E+02  0.45594000000E+02  0.51100000000E-03 0.  1.
         11   -1    0    0    0    0 -0.00000000000E+00 -0.00000000000E+00 -0.45593999997E+02  0.45594000000E+02  0.51100000000E-03 0. -1.
         23    2    1    2    0    0 -0.71054273576E-14  0.00000000000E+00  0.00000000000E+00  0.91188000000E+02  0.91188000000E+02 0.  0.
    9900012    2    3    3    0    0  0.32141249849E+02 -0.40816261572E+01  0.17494576131E+02  0.54367084640E+02  0.40000001054E+02 0.  0.
         12    1    3    3    0    0 -0.32141249849E+02  0.40816261572E+01 -0.17494576131E+02  0.36820915360E+02  0.00000000000E+00 0. -1.
         11    1    4    4    0    0 -0.56872017766E+01  0.26522893541E+01  0.12403436588E+01  0.63966675323E+01  0.51100000000E-03 0. -1.
        -11    1    4    4    0    0  0.36621928577E+02 -0.74669517059E+00  0.19011422487E+02  0.41269327491E+02  0.51100000000E-03 0.  1.
        -12    1    4    4    0    0  0.12065230482E+01 -0.59872203407E+01 -0.27571900139E+01  0.67010896164E+01  0.00000000000E+00 0.  1.
</event>
<event>
 8    1  0.2482403E-006  0.9118800E+02  0.7816164E-02  0.1184000E+00
        -11   -1    0    0    0    0  0.00000000000E+00  0.00000000000E+00  0.45593999997E+02  0.45594000000E+02  0.51100000000E-03 0. -1.
         11   -1    0    0    0    0 -0.00000000000E+00 -0.00000000000E+00 -0.45593999997E+02  0.45594000000E+02  0.51100000000E-03 0.  1.
         23    2    1    2    0    0  0.00000000000E+00  0.35527136788E-14 -0.35527136788E-14  0.91188000000E+02  0.91188000000E+02 0.  0.
    9900012    2    3    3    0    0 -0.19916141708E+02 -0.26087262463E+02  0.16690741209E+02  0.54367098253E+02  0.40000032087E+02 0.  0.
         12    1    3    3    0    0  0.19916141708E+02  0.26087262463E+02 -0.16690741209E+02  0.36820901747E+02  0.00000000000E+00 0. -1.
         11    1    4    4    0    0 -0.19642441573E+02 -0.30707450188E+01 -0.68197810777E+00  0.19892714252E+02  0.51100000000E-03 0. -1.
        -11    1    4    4    0    0 -0.20934917569E+00 -0.15967516836E+02  0.21130610732E+02  0.26485998775E+02  0.51100000000E-03 0.  1.
         12    1    4    4    0    0 -0.64350959751E-01 -0.70490006088E+01 -0.37578914148E+01  0.79883852257E+01  0.00000000000E+00 0. -1.
</event>
<event>
 8    1  0.2482403E-006  0.9118800E+02  0.7816164E-02  0.1184000E+00
        -11   -1    0    0    0    0  0.00000000000E+00  0.00000000000E+00  0.45593999997E+02  0.45594000000E+02  0.51100000000E-03 0.  1.
         11   -1    0    0    0    0 -0.00000000000E+00 -0.00000000000E+00 -0.45593999997E+02  0.45594000000E+02  0.51100000000E-03 0. -1.
         23    2    1    2    0    0 -0.35527136788E-14  0.00000000000E+00 -0.88817841970E-15  0.91188000000E+02  0.91188000000E+02 0.  0.
    9900012    2    3    3    0    0 -0.24827204626E+02  0.26888838025E+02  0.40472387871E+01  0.54367084182E+02  0.40000000009E+02 0.  0.
         12    1    3    3    0    0  0.24827204626E+02 -0.26888838025E+02 -0.40472387871E+01  0.36820915818E+02  0.00000000000E+00 0. -1.
         11    1    4    4    0    0 -0.20292667926E+02  0.21838765354E+02  0.27903381227E+01  0.29941777350E+02  0.51100000000E-03 0. -1.
        -11    1    4    4    0    0 -0.37337963697E+01 -0.19103218294E+00  0.11933113875E+02  0.12505076395E+02  0.51100000000E-03 0.  1.
         12    1    4    4    0    0 -0.80074032994E+00  0.52411048540E+01 -0.10676213210E+02  0.11920230437E+02  0.00000000000E+00 0. -1.
</event>
<event>
 8    1  0.2482403E-006  0.9118800E+02  0.7816164E-02  0.1184000E+00
        -11   -1    0    0    0    0  0.00000000000E+00  0.00000000000E+00  0.45593999997E+02  0.45594000000E+02  0.51100000000E-03 0.  1.
         11   -1    0    0    0    0 -0.00000000000E+00 -0.00000000000E+00 -0.45593999997E+02  0.45594000000E+02  0.51100000000E-03 0. -1.
         23    2    1    2    0    0  0.17763568394E-14  0.11102230246E-14  0.71054273576E-14  0.91188000000E+02  0.91188000000E+02 0.  0.
    9900012    2    3    3    0    0 -0.12140269859E+02  0.11974232219E+01  0.34741322228E+02  0.54367089572E+02  0.40000012298E+02 0.  0.
         12    1    3    3    0    0  0.12140269859E+02 -0.11974232219E+01 -0.34741322228E+02  0.36820910428E+02  0.00000000000E+00 0. -1.
         11    1    4    4    0    0  0.43814936274E+01 -0.76337611675E+01  0.91029596318E+00  0.88487533004E+01  0.51100000000E-03 0. -1.
        -11    1    4    4    0    0  0.30408207821E+01  0.60722011921E+01  0.20727422278E+02  0.21811562367E+02  0.51100000000E-03 0.  1.
         12    1    4    4    0    0 -0.19562584268E+02  0.27589831973E+01  0.13103603987E+02  0.23706773905E+02  0.00000000000E+00 0. -1.
</event>
<event>
 8    1  0.2482403E-006  0.9118800E+02  0.7816164E-02  0.1184000E+00
        -11   -1    0    0    0    0  0.00000000000E+00  0.00000000000E+00  0.45593999997E+02  0.45594000000E+02  0.51100000000E-03 0.  1.
         11   -1    0    0    0    0 -0.00000000000E+00 -0.00000000000E+00 -0.45593999997E+02  0.45594000000E+02  0.51100000000E-03 0. -1.
         23    2    1    2    0    0  0.17763568394E-14  0.00000000000E+00  0.00000000000E+00  0.91188000000E+02  0.91188000000E+02 0.  0.
    9900012    2    3    3    0    0  0.97781261674E+01  0.93993714057E+01 -0.34231777951E+02  0.54367155959E+02  0.40000163640E+02 0.  0.
        -12    1    3    3    0    0 -0.97781261674E+01 -0.93993714057E+01  0.34231777951E+02  0.36820844041E+02  0.00000000000E+00 0.  1.
         11    1    4    4    0    0 -0.10353974836E+02  0.54071189178E+01 -0.28925590938E+02  0.31195056359E+02  0.51100000000E-03 0. -1.
        -11    1    4    4    0    0  0.10224420563E+01 -0.16253033926E+01  0.11444790607E+01  0.22353593577E+01  0.51100000000E-03 0.  1.
         12    1    4    4    0    0  0.19109658947E+02  0.56175558805E+01 -0.64506660745E+01  0.20936740242E+02  0.00000000000E+00 0. -1.
</event>
<event>
 8    1  0.2482403E-006  0.9118800E+02  0.7816164E-02  0.1184000E+00
        -11   -1    0    0    0    0  0.00000000000E+00  0.00000000000E+00  0.45593999997E+02  0.45594000000E+02  0.51100000000E-03 0.  1.
         11   -1    0    0    0    0 -0.00000000000E+00 -0.00000000000E+00 -0.45593999997E+02  0.45594000000E+02  0.51100000000E-03 0. -1.
         23    2    1    2    0    0  0.00000000000E+00  0.49960036108E-15  0.00000000000E+00  0.91188000000E+02  0.91188000000E+02 0.  0.
    9900012    2    3    3    0    0 -0.12188895285E+02  0.49252846945E+00 -0.34741350416E+02  0.54367174625E+02  0.40000206191E+02 0.  0.
        -12    1    3    3    0    0  0.12188895285E+02 -0.49252846945E+00  0.34741350416E+02  0.36820825375E+02  0.00000000000E+00 0.  1.
         11    1    4    4    0    0  0.14135144859E+01 -0.70544674894E+01 -0.30504469659E+02  0.31341445470E+02  0.51100000000E-03 0. -1.
        -11    1    4    4    0    0 -0.90318013892E+01 -0.39910818577E+01 -0.38827992331E+01  0.10610292214E+02  0.51100000000E-03 0.  1.
         12    1    4    4    0    0 -0.45706083820E+01  0.11538077817E+02 -0.35408152456E+00  0.12415436940E+02  0.00000000000E+00 0. -1.
</event>
<event>
 8    1  0.2482403E-006  0.9118800E+02  0.7816164E-02  0.1184000E+00
        -11   -1    0    0    0    0  0.00000000000E+00  0.00000000000E+00  0.45593999997E+02  0.45594000000E+02  0.51100000000E-03 0. -1.
         11   -1    0    0    0    0 -0.00000000000E+00 -0.00000000000E+00 -0.45593999997E+02  0.45594000000E+02  0.51100000000E-03 0.  1.
         23    2    1    2    0    0  0.00000000000E+00  0.00000000000E+00  0.00000000000E+00  0.91188000000E+02  0.91188000000E+02 0.  0.
    9900012    2    3    3    0    0 -0.18156099891E+02 -0.64050038026E+01  0.31386505174E+02  0.54367071929E+02  0.39999972077E+02 0.  0.
        -12    1    3    3    0    0  0.18156099891E+02  0.64050038026E+01 -0.31386505174E+02  0.36820928071E+02  0.00000000000E+00 0.  1.
         11    1    4    4    0    0 -0.11289768867E+02 -0.50415414952E+01  0.24498028076E+02  0.27441381189E+02  0.51100000000E-03 0. -1.
        -11    1    4    4    0    0  0.12461607566E+01 -0.11857940095E+02  0.66643164044E+01  0.13659310866E+02  0.51100000000E-03 0.  1.
         12    1    4    4    0    0 -0.81124917806E+01  0.10494477788E+02  0.22416069403E+00  0.13266379874E+02  0.00000000000E+00 0. -1.
</event>
<event>
 8    1  0.2482403E-006  0.9118800E+02  0.7816164E-02  0.1184000E+00
        -11   -1    0    0    0    0  0.00000000000E+00  0.00000000000E+00  0.45593999997E+02  0.45594000000E+02  0.51100000000E-03 0.  1.
         11   -1    0    0    0    0 -0.00000000000E+00 -0.00000000000E+00 -0.45593999997E+02  0.45594000000E+02  0.51100000000E-03 0. -1.
         23    2    1    2    0    0  0.00000000000E+00  0.00000000000E+00  0.00000000000E+00  0.91188000000E+02  0.91188000000E+02 0.  0.
    9900012    2    3    3    0    0 -0.18730372019E+02 -0.23226432438E+02  0.21575100848E+02  0.54367095932E+02  0.40000026797E+02 0.  0.
         12    1    3    3    0    0  0.18730372019E+02  0.23226432438E+02 -0.21575100848E+02  0.36820904068E+02  0.00000000000E+00 0. -1.
         11    1    4    4    0    0 -0.74518434173E+01  0.33702289080E+01 -0.66022410357E+01  0.10510851543E+02  0.51100000000E-03 0. -1.
        -11    1    4    4    0    0 -0.10477576745E+02 -0.46052287141E+01  0.76804776007E+01  0.13783231928E+02  0.51100000000E-03 0.  1.
        -12    1    4    4    0    0 -0.80095185722E+00 -0.21991432631E+02  0.20496864283E+02  0.30073012461E+02  0.00000000000E+00 0.  1.
</event>
<event>
 8    1  0.2482403E-006  0.9118800E+02  0.7816164E-02  0.1184000E+00
        -11   -1    0    0    0    0  0.00000000000E+00  0.00000000000E+00  0.45593999997E+02  0.45594000000E+02  0.51100000000E-03 0.  1.
         11   -1    0    0    0    0 -0.00000000000E+00 -0.00000000000E+00 -0.45593999997E+02  0.45594000000E+02  0.51100000000E-03 0. -1.
         23    2    1    2    0    0  0.35527136788E-14  0.00000000000E+00 -0.35527136788E-14  0.91188000000E+02  0.91188000000E+02 0.  0.
    9900012    2    3    3    0    0  0.16713231602E+02  0.11359456635E+02  0.30780057002E+02  0.54367064723E+02  0.39999955649E+02 0.  0.
         12    1    3    3    0    0 -0.16713231602E+02 -0.11359456635E+02 -0.30780057002E+02  0.36820935277E+02  0.00000000000E+00 0. -1.
         11    1    4    4    0    0  0.14349481848E+02 -0.36404663464E+01  0.32726193117E+02  0.35918857731E+02  0.51100000000E-03 0. -1.
        -11    1    4    4    0    0  0.17753501097E+01  0.11625869662E+00  0.23483420434E+01  0.29462000459E+01  0.51100000000E-03 0.  1.
         12    1    4    4    0    0  0.58839964443E+00  0.14883664285E+02 -0.42944781586E+01  0.15502006946E+02  0.00000000000E+00 0. -1.
</event>
<event>
 8    1  0.2482403E-006  0.9118800E+02  0.7816164E-02  0.1184000E+00
        -11   -1    0    0    0    0  0.00000000000E+00  0.00000000000E+00  0.45593999997E+02  0.45594000000E+02  0.51100000000E-03 0.  1.
         11   -1    0    0    0    0 -0.00000000000E+00 -0.00000000000E+00 -0.45593999997E+02  0.45594000000E+02  0.51100000000E-03 0. -1.
         23    2    1    2    0    0  0.35527136788E-14  0.00000000000E+00  0.00000000000E+00  0.91188000000E+02  0.91188000000E+02 0.  0.
    9900012    2    3    3    0    0  0.22453880514E+02  0.19333761364E+02  0.21858457210E+02  0.54367309753E+02  0.40000514242E+02 0.  0.
         12    1    3    3    0    0 -0.22453880514E+02 -0.19333761364E+02 -0.21858457210E+02  0.36820690247E+02  0.00000000000E+00 0. -1.
         11    1    4    4    0    0 -0.90265602972E+01  0.38469150407E+01  0.84568147842E+01  0.12953581076E+02  0.51100000000E-03 0. -1.
        -11    1    4    4    0    0  0.25078297760E+02  0.16875947780E+02  0.16193995342E+02  0.34292333216E+02  0.51100000000E-03 0.  1.
         12    1    4    4    0    0  0.64021430513E+01 -0.13891014558E+01 -0.27923529170E+01  0.71213954614E+01  0.00000000000E+00 0. -1.
</event>
<event>
 8    1  0.2482403E-006  0.9118800E+02  0.7816164E-02  0.1184000E+00
        -11   -1    0    0    0    0  0.00000000000E+00  0.00000000000E+00  0.45593999997E+02  0.45594000000E+02  0.51100000000E-03 0.  1.
         11   -1    0    0    0    0 -0.00000000000E+00 -0.00000000000E+00 -0.45593999997E+02  0.45594000000E+02  0.51100000000E-03 0. -1.
         23    2    1    2    0    0  0.00000000000E+00  0.00000000000E+00  0.00000000000E+00  0.91188000000E+02  0.91188000000E+02 0.  0.
    9900012    2    3    3    0    0  0.32626692617E+02  0.11866174248E+02  0.12266729768E+02  0.54367084454E+02  0.40000000630E+02 0.  0.
        -12    1    3    3    0    0 -0.32626692617E+02 -0.11866174248E+02 -0.12266729768E+02  0.36820915546E+02  0.00000000000E+00 0.  1.
         11    1    4    4    0    0  0.32915030390E+02  0.63501775951E+01  0.38399204438E+01  0.33741205822E+02  0.51100000000E-03 0. -1.
        -11    1    4    4    0    0 -0.68630043071E+01 -0.14314901848E+01 -0.11338754619E+01  0.71018072413E+01  0.51100000000E-03 0.  1.
        -12    1    4    4    0    0  0.65746665344E+01  0.69474868380E+01  0.95606847865E+01  0.13524071391E+02  0.00000000000E+00 0.  1.
</event>
<event>
 8    1  0.2482403E-006  0.9118800E+02  0.7816164E-02  0.1184000E+00
        -11   -1    0    0    0    0  0.00000000000E+00  0.00000000000E+00  0.45593999997E+02  0.45594000000E+02  0.51100000000E-03 0.  1.
         11   -1    0    0    0    0 -0.00000000000E+00 -0.00000000000E+00 -0.45593999997E+02  0.45594000000E+02  0.51100000000E-03 0. -1.
         23    2    1    2    0    0  0.00000000000E+00  0.17763568394E-14 -0.35527136788E-14  0.91188000000E+02  0.91188000000E+02 0.  0.
    9900012    2    3    3    0    0 -0.15323445254E+02  0.12900497731E+02 -0.30895777816E+02  0.54367083349E+02  0.39999998111E+02 0.  0.
        -12    1    3    3    0    0  0.15323445254E+02 -0.12900497731E+02  0.30895777816E+02  0.36820916651E+02  0.00000000000E+00 0.  1.
         11    1    4    4    0    0 -0.29551607825E+01  0.33904314644E+01 -0.32478378452E+02  0.32788306877E+02  0.51100000000E-03 0. -1.
        -11    1    4    4    0    0 -0.10401766219E+02 -0.13075712363E+01  0.14469336517E+01  0.10583009982E+02  0.51100000000E-03 0.  1.
         12    1    4    4    0    0 -0.19665182527E+01  0.10817637503E+02  0.13566698451E+00  0.10995766490E+02  0.00000000000E+00 0. -1.
</event>
<event>
 8    1  0.2482403E-006  0.9118800E+02  0.7816164E-02  0.1184000E+00
        -11   -1    0    0    0    0  0.00000000000E+00  0.00000000000E+00  0.45593999997E+02  0.45594000000E+02  0.51100000000E-03 0.  1.
         11   -1    0    0    0    0 -0.00000000000E+00 -0.00000000000E+00 -0.45593999997E+02  0.45594000000E+02  0.51100000000E-03 0. -1.
         23    2    1    2    0    0  0.00000000000E+00  0.00000000000E+00  0.00000000000E+00  0.91188000000E+02  0.91188000000E+02 0.  0.
    9900012    2    3    3    0    0 -0.20240034774E+02  0.15757866544E+02  0.26416111702E+02  0.54367077644E+02  0.39999985106E+02 0.  0.
         12    1    3    3    0    0  0.20240034774E+02 -0.15757866544E+02 -0.26416111702E+02  0.36820922356E+02  0.00000000000E+00 0. -1.
         11    1    4    4    0    0  0.27169012803E-01 -0.86802960860E-01 -0.84208675989E+01  0.84213588149E+01  0.51100000000E-03 0. -1.
        -11    1    4    4    0    0 -0.11156466545E+02  0.91638708765E+00  0.74344737770E+01  0.13437928102E+02  0.51100000000E-03 0.  1.
        -12    1    4    4    0    0 -0.91107372417E+01  0.14928282417E+02  0.27402505524E+02  0.32507790728E+02  0.00000000000E+00 0.  1.
</event>
<event>
 8    1  0.2482403E-006  0.9118800E+02  0.7816164E-02  0.1184000E+00
        -11   -1    0    0    0    0  0.00000000000E+00  0.00000000000E+00  0.45593999997E+02  0.45594000000E+02  0.51100000000E-03 0.  1.
         11   -1    0    0    0    0 -0.00000000000E+00 -0.00000000000E+00 -0.45593999997E+02  0.45594000000E+02  0.51100000000E-03 0. -1.
         23    2    1    2    0    0  0.00000000000E+00  0.00000000000E+00  0.00000000000E+00  0.91188000000E+02  0.91188000000E+02 0.  0.
    9900012    2    3    3    0    0 -0.30156711287E+02 -0.52321465680E+01  0.20468930619E+02  0.54367085915E+02  0.40000003960E+02 0.  0.
         12    1    3    3    0    0  0.30156711287E+02  0.52321465680E+01 -0.20468930619E+02  0.36820914085E+02  0.00000000000E+00 0. -1.
         11    1    4    4    0    0 -0.39010469770E+01 -0.39663256942E+01 -0.56454323203E+01  0.79259581991E+01  0.51100000000E-03 0. -1.
        -11    1    4    4    0    0  0.98155713230E+00 -0.56676472428E+01  0.16087744916E+02  0.17085116810E+02  0.51100000000E-03 0.  1.
        -12    1    4    4    0    0 -0.27237221442E+02  0.44018263689E+01  0.10026618024E+02  0.29356010905E+02  0.00000000000E+00 0.  1.
</event>
<event>
 8    1  0.2482403E-006  0.9118800E+02  0.7816164E-02  0.1184000E+00
        -11   -1    0    0    0    0  0.00000000000E+00  0.00000000000E+00  0.45593999997E+02  0.45594000000E+02  0.51100000000E-03 0.  1.
         11   -1    0    0    0    0 -0.00000000000E+00 -0.00000000000E+00 -0.45593999997E+02  0.45594000000E+02  0.51100000000E-03 0. -1.
         23    2    1    2    0    0  0.00000000000E+00  0.00000000000E+00 -0.88817841970E-15  0.91188000000E+02  0.91188000000E+02 0.  0.
    9900012    2    3    3    0    0 -0.33367910493E+02 -0.14155819623E+02 -0.64788491641E+01  0.54367079773E+02  0.39999989958E+02 0.  0.
        -12    1    3    3    0    0  0.33367910493E+02  0.14155819623E+02  0.64788491641E+01  0.36820920227E+02  0.00000000000E+00 0.  1.
         11    1    4    4    0    0  0.19582405994E+01 -0.13167328036E+02 -0.85892620343E+01  0.15842621513E+02  0.51100000000E-03 0. -1.
        -11    1    4    4    0    0 -0.12584350014E+02 -0.76340766339E+01  0.18092788305E+01  0.14829648730E+02  0.51100000000E-03 0.  1.
         12    1    4    4    0    0 -0.22741801079E+02  0.66455850471E+01  0.30113403969E+00  0.23694809530E+02  0.00000000000E+00 0. -1.
</event>
<event>
 8    1  0.2482403E-006  0.9118800E+02  0.7816164E-02  0.1184000E+00
        -11   -1    0    0    0    0  0.00000000000E+00  0.00000000000E+00  0.45593999997E+02  0.45594000000E+02  0.51100000000E-03 0. -1.
         11   -1    0    0    0    0 -0.00000000000E+00 -0.00000000000E+00 -0.45593999997E+02  0.45594000000E+02  0.51100000000E-03 0.  1.
         23    2    1    2    0    0  0.00000000000E+00  0.00000000000E+00  0.35527136788E-14  0.91188000000E+02  0.91188000000E+02 0.  0.
    9900012    2    3    3    0    0  0.16851752511E+02 -0.21021851775E+02  0.25097414044E+02  0.54367081944E+02  0.39999994909E+02 0.  0.
        -12    1    3    3    0    0 -0.16851752511E+02  0.21021851775E+02 -0.25097414044E+02  0.36820918056E+02  0.00000000000E+00 0.  1.
         11    1    4    4    0    0  0.25884550403E+02 -0.15659556926E+02  0.19434106177E+02  0.35957143321E+02  0.51100000000E-03 0. -1.
        -11    1    4    4    0    0 -0.84101376868E+01 -0.82434870105E+01  0.83381701805E+01  0.14429503672E+02  0.51100000000E-03 0.  1.
        -12    1    4    4    0    0 -0.62266020451E+00  0.28811921616E+01 -0.26748623135E+01  0.39804349509E+01  0.00000000000E+00 0.  1.
</event>
<event>
 8    1  0.2482403E-006  0.9118800E+02  0.7816164E-02  0.1184000E+00
        -11   -1    0    0    0    0  0.00000000000E+00  0.00000000000E+00  0.45593999997E+02  0.45594000000E+02  0.51100000000E-03 0. -1.
         11   -1    0    0    0    0 -0.00000000000E+00 -0.00000000000E+00 -0.45593999997E+02  0.45594000000E+02  0.51100000000E-03 0.  1.
         23    2    1    2    0    0 -0.35527136788E-14 -0.11102230246E-14  0.00000000000E+00  0.91188000000E+02  0.91188000000E+02 0.  0.
    9900012    2    3    3    0    0  0.28854406822E+02 -0.15673026546E+01  0.22819879916E+02  0.54367079994E+02  0.39999990463E+02 0.  0.
        -12    1    3    3    0    0 -0.28854406822E+02  0.15673026546E+01 -0.22819879916E+02  0.36820920006E+02  0.00000000000E+00 0.  1.
         11    1    4    4    0    0  0.16704743204E+02  0.11883576719E+02  0.94282422185E+01  0.22564564980E+02  0.51100000000E-03 0. -1.
        -11    1    4    4    0    0 -0.19999938976E+01 -0.71770734152E+01  0.14481840255E+02  0.16286007977E+02  0.51100000000E-03 0.  1.
         12    1    4    4    0    0  0.14149657516E+02 -0.62738059587E+01 -0.10902025567E+01  0.15516507038E+02  0.00000000000E+00 0. -1.
</event>
<event>
 8    1  0.2482403E-006  0.9118800E+02  0.7816164E-02  0.1184000E+00
        -11   -1    0    0    0    0  0.00000000000E+00  0.00000000000E+00  0.45593999997E+02  0.45594000000E+02  0.51100000000E-03 0.  1.
         11   -1    0    0    0    0 -0.00000000000E+00 -0.00000000000E+00 -0.45593999997E+02  0.45594000000E+02  0.51100000000E-03 0. -1.
         23    2    1    2    0    0  0.00000000000E+00 -0.35527136788E-14  0.00000000000E+00  0.91188000000E+02  0.91188000000E+02 0.  0.
    9900012    2    3    3    0    0  0.11715826236E+02 -0.24927714458E+02  0.24436240438E+02  0.54367063304E+02  0.39999952413E+02 0.  0.
         12    1    3    3    0    0 -0.11715826236E+02  0.24927714458E+02 -0.24436240438E+02  0.36820936696E+02  0.00000000000E+00 0. -1.
         11    1    4    4    0    0  0.13760577601E+02 -0.20281619604E+02  0.56927820633E+01  0.25161584957E+02  0.51100000000E-03 0. -1.
        -11    1    4    4    0    0 -0.84017700117E+01 -0.48263932952E+01  0.29741970867E+00  0.96939295599E+01  0.51100000000E-03 0.  1.
        -12    1    4    4    0    0  0.63570186463E+01  0.18029844133E+00  0.18446038666E+02  0.19511548787E+02  0.00000000000E+00 0.  1.
</event>
<event>
 8    1  0.2482403E-006  0.9118800E+02  0.7816164E-02  0.1184000E+00
        -11   -1    0    0    0    0  0.00000000000E+00  0.00000000000E+00  0.45593999997E+02  0.45594000000E+02  0.51100000000E-03 0.  1.
         11   -1    0    0    0    0 -0.00000000000E+00 -0.00000000000E+00 -0.45593999997E+02  0.45594000000E+02  0.51100000000E-03 0. -1.
         23    2    1    2    0    0  0.00000000000E+00  0.00000000000E+00  0.00000000000E+00  0.91188000000E+02  0.91188000000E+02 0.  0.
    9900012    2    3    3    0    0 -0.15032472491E+02  0.30389980390E+02  0.14361596493E+02  0.54367060426E+02  0.39999945852E+02 0.  0.
         12    1    3    3    0    0  0.15032472491E+02 -0.30389980390E+02 -0.14361596493E+02  0.36820939574E+02  0.00000000000E+00 0. -1.
         11    1    4    4    0    0 -0.70249978290E+01  0.14710276873E+02  0.94729723661E+01  0.18854178473E+02  0.51100000000E-03 0.  1.
        -11    1    4    4    0    0 -0.11330240232E+02  0.23041898660E+02 -0.70711975305E+00  0.25686639643E+02  0.51100000000E-03 0. -1.
        -12    1    4    4    0    0  0.33227655700E+01 -0.73621951427E+01  0.55957438803E+01  0.98262423096E+01  0.00000000000E+00 0.  1.
</event>
<event>
 8    1  0.2482403E-006  0.9118800E+02  0.7816164E-02  0.1184000E+00
        -11   -1    0    0    0    0  0.00000000000E+00  0.00000000000E+00  0.45593999997E+02  0.45594000000E+02  0.51100000000E-03 0. -1.
         11   -1    0    0    0    0 -0.00000000000E+00 -0.00000000000E+00 -0.45593999997E+02  0.45594000000E+02  0.51100000000E-03 0.  1.
         23    2    1    2    0    0  0.00000000000E+00  0.00000000000E+00  0.71054273576E-14  0.91188000000E+02  0.91188000000E+02 0.  0.
    9900012    2    3    3    0    0  0.82057404856E+01 -0.16236528803E+02  0.32012816769E+02  0.54367089067E+02  0.40000011145E+02 0.  0.
        -12    1    3    3    0    0 -0.82057404856E+01  0.16236528803E+02 -0.32012816769E+02  0.36820910933E+02  0.00000000000E+00 0.  1.
         11    1    4    4    0    0  0.49529428483E+01  0.54970376113E+01  0.27715917178E+02  0.28686601936E+02  0.51100000000E-03 0. -1.
        -11    1    4    4    0    0  0.14327605256E+01 -0.11890319871E+02 -0.40545525472E+01  0.12644046266E+02  0.51100000000E-03 0.  1.
        -12    1    4    4    0    0  0.18200371117E+01 -0.98432465426E+01  0.83514521388E+01  0.13036440864E+02  0.00000000000E+00 0.  1.
</event>
<event>
 8    1  0.2482403E-006  0.9118800E+02  0.7816164E-02  0.1184000E+00
        -11   -1    0    0    0    0  0.00000000000E+00  0.00000000000E+00  0.45593999997E+02  0.45594000000E+02  0.51100000000E-03 0.  1.
         11   -1    0    0    0    0 -0.00000000000E+00 -0.00000000000E+00 -0.45593999997E+02  0.45594000000E+02  0.51100000000E-03 0. -1.
         23    2    1    2    0    0 -0.71054273576E-14  0.17763568394E-14  0.00000000000E+00  0.91188000000E+02  0.91188000000E+02 0.  0.
    9900012    2    3    3    0    0 -0.28753294957E+02  0.85813665565E+01 -0.21339942171E+02  0.54367014751E+02  0.39999841728E+02 0.  0.
         12    1    3    3    0    0  0.28753294957E+02 -0.85813665565E+01  0.21339942171E+02  0.36820985249E+02  0.00000000000E+00 0. -1.
         11    1    4    4    0    0 -0.91362445781E+01 -0.92803577753E+01 -0.19515103737E+02  0.23461357155E+02  0.51100000000E-03 0. -1.
        -11    1    4    4    0    0 -0.54205395447E+01  0.91721406382E+01  0.63066329889E+01  0.12380792897E+02  0.51100000000E-03 0.  1.
         12    1    4    4    0    0 -0.14196510834E+02  0.86895836936E+01 -0.81314714224E+01  0.18524864699E+02  0.00000000000E+00 0. -1.
</event>
<event>
 8    1  0.2482403E-006  0.9118800E+02  0.7816164E-02  0.1184000E+00
        -11   -1    0    0    0    0  0.00000000000E+00  0.00000000000E+00  0.45593999997E+02  0.45594000000E+02  0.51100000000E-03 0.  1.
         11   -1    0    0    0    0 -0.00000000000E+00 -0.00000000000E+00 -0.45593999997E+02  0.45594000000E+02  0.51100000000E-03 0. -1.
         23    2    1    2    0    0  0.35527136788E-14 -0.17763568394E-14  0.35527136788E-14  0.91188000000E+02  0.91188000000E+02 0.  0.
    9900012    2    3    3    0    0  0.24974862875E+02  0.15047755280E+02 -0.22485573062E+02  0.54367085963E+02  0.40000004071E+02 0.  0.
        -12    1    3    3    0    0 -0.24974862875E+02 -0.15047755280E+02  0.22485573062E+02  0.36820914037E+02  0.00000000000E+00 0.  1.
         11    1    4    4    0    0  0.26484719331E+01  0.12204606092E+02 -0.24306139477E+02  0.27326822538E+02  0.51100000000E-03 0. -1.
        -11    1    4    4    0    0  0.66090250772E+01 -0.34309396362E+01  0.60522736354E+01  0.95958624249E+01  0.51100000000E-03 0.  1.
        -12    1    4    4    0    0  0.15717365864E+02  0.62740888245E+01 -0.42317072195E+01  0.17444401001E+02  0.00000000000E+00 0.  1.
</event>
<event>
 8    1  0.2482403E-006  0.9118800E+02  0.7816164E-02  0.1184000E+00
        -11   -1    0    0    0    0  0.00000000000E+00  0.00000000000E+00  0.45593999997E+02  0.45594000000E+02  0.51100000000E-03 0. -1.
         11   -1    0    0    0    0 -0.00000000000E+00 -0.00000000000E+00 -0.45593999997E+02  0.45594000000E+02  0.51100000000E-03 0.  1.
         23    2    1    2    0    0  0.88817841970E-15  0.00000000000E+00 -0.88817841970E-15  0.91188000000E+02  0.91188000000E+02 0.  0.
    9900012    2    3    3    0    0 -0.52458757009E+01  0.36068336870E+02 -0.52285301069E+01  0.54367059443E+02  0.39999943612E+02 0.  0.
         12    1    3    3    0    0  0.52458757009E+01 -0.36068336870E+02  0.52285301069E+01  0.36820940557E+02  0.00000000000E+00 0. -1.
         11    1    4    4    0    0 -0.17282460746E+01 -0.21380663219E+01  0.58890002972E+01  0.64991143130E+01  0.51100000000E-03 0. -1.
        -11    1    4    4    0    0 -0.10475858982E+02  0.38130097724E+02 -0.10292663413E+02  0.40860578731E+02  0.51100000000E-03 0.  1.
        -12    1    4    4    0    0  0.69582293561E+01  0.76305467759E-01 -0.82486699142E+00  0.70073663990E+01  0.00000000000E+00 0.  1.
</event>
<event>
 8    1  0.2482403E-006  0.9118800E+02  0.7816164E-02  0.1184000E+00
        -11   -1    0    0    0    0  0.00000000000E+00  0.00000000000E+00  0.45593999997E+02  0.45594000000E+02  0.51100000000E-03 0. -1.
         11   -1    0    0    0    0 -0.00000000000E+00 -0.00000000000E+00 -0.45593999997E+02  0.45594000000E+02  0.51100000000E-03 0.  1.
         23    2    1    2    0    0 -0.88817841970E-15  0.14210854715E-13  0.38857805862E-15  0.91188000000E+02  0.91188000000E+02 0.  0.
    9900012    2    3    3    0    0 -0.71064394020E+01  0.36128482090E+02 -0.10668890491E+00  0.54367080923E+02  0.39999992581E+02 0.  0.
         12    1    3    3    0    0  0.71064394020E+01 -0.36128482090E+02  0.10668890491E+00  0.36820919077E+02  0.00000000000E+00 0. -1.
         11    1    4    4    0    0  0.11770197543E+01  0.40352646253E+01 -0.72489783081E+01  0.83795240241E+01  0.51100000000E-03 0. -1.
        -11    1    4    4    0    0 -0.19531698201E+02  0.18678962084E+02  0.87520480735E+01  0.28407555419E+02  0.51100000000E-03 0.  1.
         12    1    4    4    0    0  0.11248239045E+02  0.13414255382E+02 -0.16097586703E+01  0.17580001480E+02  0.00000000000E+00 0. -1.
</event>
<event>
 8    1  0.2482403E-006  0.9118800E+02  0.7816164E-02  0.1184000E+00
        -11   -1    0    0    0    0  0.00000000000E+00  0.00000000000E+00  0.45593999997E+02  0.45594000000E+02  0.51100000000E-03 0.  1.
         11   -1    0    0    0    0 -0.00000000000E+00 -0.00000000000E+00 -0.45593999997E+02  0.45594000000E+02  0.51100000000E-03 0. -1.
         23    2    1    2    0    0  0.00000000000E+00 -0.35527136788E-14  0.00000000000E+00  0.91188000000E+02  0.91188000000E+02 0.  0.
    9900012    2    3    3    0    0 -0.25061961970E+02 -0.26932192220E+02  0.15275997053E+01  0.54367102721E+02  0.40000042273E+02 0.  0.
        -12    1    3    3    0    0  0.25061961970E+02  0.26932192220E+02 -0.15275997053E+01  0.36820897279E+02  0.00000000000E+00 0.  1.
         11    1    4    4    0    0 -0.18877185060E+02 -0.99300418746E+01 -0.40577288200E+01  0.21712185769E+02  0.51100000000E-03 0. -1.
        -11    1    4    4    0    0  0.85933223860E+01 -0.14834181678E+02  0.17395830136E+01  0.17231491085E+02  0.51100000000E-03 0.  1.
        -12    1    4    4    0    0 -0.14778099296E+02 -0.21679686671E+01  0.38457455116E+01  0.15423425867E+02  0.00000000000E+00 0.  1.
</event>
<event>
 8    1  0.2482403E-006  0.9118800E+02  0.7816164E-02  0.1184000E+00
        -11   -1    0    0    0    0  0.00000000000E+00  0.00000000000E+00  0.45593999997E+02  0.45594000000E+02  0.51100000000E-03 0.  1.
         11   -1    0    0    0    0 -0.00000000000E+00 -0.00000000000E+00 -0.45593999997E+02  0.45594000000E+02  0.51100000000E-03 0. -1.
         23    2    1    2    0    0 -0.17763568394E-14  0.17763568394E-14  0.00000000000E+00  0.91188000000E+02  0.91188000000E+02 0.  0.
    9900012    2    3    3    0    0 -0.15351939759E+02  0.14882982638E+02  0.29976499619E+02  0.54367139663E+02  0.40000126491E+02 0.  0.
         12    1    3    3    0    0  0.15351939759E+02 -0.14882982638E+02 -0.29976499619E+02  0.36820860337E+02  0.00000000000E+00 0. -1.
         11    1    4    4    0    0  0.90736992256E+01  0.10904356830E+01 -0.15047599080E+00  0.91402248824E+01  0.51100000000E-03 0. -1.
        -11    1    4    4    0    0 -0.23719652095E+01  0.11110953508E+02  0.81917868447E+01  0.14006601257E+02  0.51100000000E-03 0.  1.
        -12    1    4    4    0    0 -0.22053673775E+02  0.26815934466E+01  0.21935188765E+02  0.31220313524E+02  0.00000000000E+00 0.  1.
</event>
<event>
 8    1  0.2482403E-006  0.9118800E+02  0.7816164E-02  0.1184000E+00
        -11   -1    0    0    0    0  0.00000000000E+00  0.00000000000E+00  0.45593999997E+02  0.45594000000E+02  0.51100000000E-03 0. -1.
         11   -1    0    0    0    0 -0.00000000000E+00 -0.00000000000E+00 -0.45593999997E+02  0.45594000000E+02  0.51100000000E-03 0.  1.
         23    2    1    2    0    0  0.00000000000E+00  0.35527136788E-14  0.17763568394E-14  0.91188000000E+02  0.91188000000E+02 0.  0.
    9900012    2    3    3    0    0 -0.19142728504E+02  0.29026065295E+02 -0.12117079132E+02  0.54367080297E+02  0.39999991153E+02 0.  0.
         12    1    3    3    0    0  0.19142728504E+02 -0.29026065295E+02  0.12117079132E+02  0.36820919703E+02  0.00000000000E+00 0. -1.
         11    1    4    4    0    0 -0.43194332670E+01  0.13303912860E+02  0.81106623604E+01  0.16168934576E+02  0.51100000000E-03 0. -1.
        -11    1    4    4    0    0 -0.77863381077E+01  0.16537825788E+02 -0.16949249642E+01  0.18357546508E+02  0.51100000000E-03 0.  1.
         12    1    4    4    0    0 -0.70369571295E+01 -0.81567335245E+00 -0.18532816528E+02  0.19840599213E+02  0.00000000000E+00 0. -1.
</event>
<event>
 8    1  0.2482403E-006  0.9118800E+02  0.7816164E-02  0.1184000E+00
        -11   -1    0    0    0    0  0.00000000000E+00  0.00000000000E+00  0.45593999997E+02  0.45594000000E+02  0.51100000000E-03 0. -1.
         11   -1    0    0    0    0 -0.00000000000E+00 -0.00000000000E+00 -0.45593999997E+02  0.45594000000E+02  0.51100000000E-03 0.  1.
         23    2    1    2    0    0  0.88817841970E-15  0.00000000000E+00  0.00000000000E+00  0.91188000000E+02  0.91188000000E+02 0.  0.
    9900012    2    3    3    0    0 -0.32284921038E+01  0.32265196175E+02  0.17444582300E+02  0.54367088861E+02  0.40000010676E+02 0.  0.
        -12    1    3    3    0    0  0.32284921038E+01 -0.32265196175E+02 -0.17444582300E+02  0.36820911139E+02  0.00000000000E+00 0.  1.
         11    1    4    4    0    0 -0.22416397842E+01  0.33271983793E+02  0.86235636269E+01  0.34444385672E+02  0.51100000000E-03 0. -1.
        -11    1    4    4    0    0 -0.43252696604E+01 -0.52426944572E+01 -0.26121542918E+01  0.72812878746E+01  0.51100000000E-03 0.  1.
         12    1    4    4    0    0  0.33384173407E+01  0.42359068398E+01  0.11433172965E+02  0.12641415314E+02  0.00000000000E+00 0. -1.
</event>
<event>
 8    1  0.2482403E-006  0.9118800E+02  0.7816164E-02  0.1184000E+00
        -11   -1    0    0    0    0  0.00000000000E+00  0.00000000000E+00  0.45593999997E+02  0.45594000000E+02  0.51100000000E-03 0.  1.
         11   -1    0    0    0    0 -0.00000000000E+00 -0.00000000000E+00 -0.45593999997E+02  0.45594000000E+02  0.51100000000E-03 0. -1.
         23    2    1    2    0    0  0.00000000000E+00 -0.71054273576E-14 -0.88817841970E-15  0.91188000000E+02  0.91188000000E+02 0.  0.
    9900012    2    3    3    0    0  0.23173773358E+02 -0.28281645481E+02  0.43479262265E+01  0.54367086034E+02  0.40000004233E+02 0.  0.
        -12    1    3    3    0    0 -0.23173773358E+02  0.28281645481E+02 -0.43479262265E+01  0.36820913966E+02  0.00000000000E+00 0.  1.
         11    1    4    4    0    0  0.66162680839E+01  0.31971529307E+01 -0.29274476039E+00  0.73540798185E+01  0.51100000000E-03 0. -1.
        -11    1    4    4    0    0  0.77542181243E+01  0.49569732021E+01 -0.27840872122E+00  0.92074423008E+01  0.51100000000E-03 0.  1.
        -12    1    4    4    0    0  0.88032871497E+01 -0.36435771614E+02  0.49190797081E+01  0.37805563915E+02  0.00000000000E+00 0.  1.
</event>
<event>
 8    1  0.2482403E-006  0.9118800E+02  0.7816164E-02  0.1184000E+00
        -11   -1    0    0    0    0  0.00000000000E+00  0.00000000000E+00  0.45593999997E+02  0.45594000000E+02  0.51100000000E-03 0.  1.
         11   -1    0    0    0    0 -0.00000000000E+00 -0.00000000000E+00 -0.45593999997E+02  0.45594000000E+02  0.51100000000E-03 0. -1.
         23    2    1    2    0    0  0.00000000000E+00  0.00000000000E+00  0.00000000000E+00  0.91188000000E+02  0.91188000000E+02 0.  0.
    9900012    2    3    3    0    0 -0.24232041540E+02 -0.27219319238E+02  0.52628779857E+01  0.54367067615E+02  0.39999962243E+02 0.  0.
         12    1    3    3    0    0  0.24232041540E+02  0.27219319238E+02 -0.52628779857E+01  0.36820932385E+02  0.00000000000E+00 0. -1.
         11    1    4    4    0    0 -0.19065181786E+02 -0.98162791197E+01  0.14675688973E+02  0.25984925233E+02  0.51100000000E-03 0. -1.
        -11    1    4    4    0    0 -0.10455106698E+02 -0.15751595979E+02 -0.18340509811E+01  0.18994361669E+02  0.51100000000E-03 0.  1.
         12    1    4    4    0    0  0.52882469444E+01 -0.16514441397E+01 -0.75787600060E+01  0.93877807132E+01  0.00000000000E+00 0. -1.
</event>
<event>
 8    1  0.2482403E-006  0.9118800E+02  0.7816164E-02  0.1184000E+00
        -11   -1    0    0    0    0  0.00000000000E+00  0.00000000000E+00  0.45593999997E+02  0.45594000000E+02  0.51100000000E-03 0. -1.
         11   -1    0    0    0    0 -0.00000000000E+00 -0.00000000000E+00 -0.45593999997E+02  0.45594000000E+02  0.51100000000E-03 0.  1.
         23    2    1    2    0    0  0.35527136788E-14  0.00000000000E+00  0.00000000000E+00  0.91188000000E+02  0.91188000000E+02 0.  0.
    9900012    2    3    3    0    0  0.24121067282E+02  0.11557069719E+02 -0.25305899460E+02  0.54367078029E+02  0.39999985982E+02 0.  0.
         12    1    3    3    0    0 -0.24121067282E+02 -0.11557069719E+02  0.25305899460E+02  0.36820921971E+02  0.00000000000E+00 0. -1.
         11    1    4    4    0    0  0.50734866974E+01  0.12386388670E+01  0.64373339806E+01  0.82893764874E+01  0.51100000000E-03 0. -1.
        -11    1    4    4    0    0  0.43447658421E+01  0.15246209997E+02 -0.80990269424E+01  0.17802195010E+02  0.51100000000E-03 0.  1.
         12    1    4    4    0    0  0.14702814743E+02 -0.49277791451E+01 -0.23644206498E+02  0.28275506531E+02  0.00000000000E+00 0. -1.
</event>
<event>
 8    1  0.2482403E-006  0.9118800E+02  0.7816164E-02  0.1184000E+00
        -11   -1    0    0    0    0  0.00000000000E+00  0.00000000000E+00  0.45593999997E+02  0.45594000000E+02  0.51100000000E-03 0. -1.
         11   -1    0    0    0    0 -0.00000000000E+00 -0.00000000000E+00 -0.45593999997E+02  0.45594000000E+02  0.51100000000E-03 0.  1.
         23    2    1    2    0    0  0.35527136788E-14  0.00000000000E+00  0.00000000000E+00  0.91188000000E+02  0.91188000000E+02 0.  0.
    9900012    2    3    3    0    0  0.12784044930E+02 -0.23253149401E+02  0.25527274764E+02  0.54367047830E+02  0.39999917138E+02 0.  0.
        -12    1    3    3    0    0 -0.12784044930E+02  0.23253149401E+02 -0.25527274764E+02  0.36820952170E+02  0.00000000000E+00 0.  1.
         11    1    4    4    0    0 -0.14602619399E+01 -0.74221589334E+01  0.16900463788E+02  0.18516114190E+02  0.51100000000E-03 0. -1.
        -11    1    4    4    0    0 -0.51079103881E+01  0.43373950177E+01  0.29858971582E+01  0.73361656315E+01  0.51100000000E-03 0.  1.
         12    1    4    4    0    0  0.19352217258E+02 -0.20168385485E+02  0.56409138173E+01  0.28514768009E+02  0.00000000000E+00 0. -1.
</event>
<event>
 8    1  0.2482403E-006  0.9118800E+02  0.7816164E-02  0.1184000E+00
        -11   -1    0    0    0    0  0.00000000000E+00  0.00000000000E+00  0.45593999997E+02  0.45594000000E+02  0.51100000000E-03 0.  1.
         11   -1    0    0    0    0 -0.00000000000E+00 -0.00000000000E+00 -0.45593999997E+02  0.45594000000E+02  0.51100000000E-03 0. -1.
         23    2    1    2    0    0  0.00000000000E+00  0.00000000000E+00  0.35527136788E-14  0.91188000000E+02  0.91188000000E+02 0.  0.
    9900012    2    3    3    0    0  0.22186744204E+02 -0.15202791562E+02  0.25147643149E+02  0.54367075981E+02  0.39999981315E+02 0.  0.
         12    1    3    3    0    0 -0.22186744204E+02  0.15202791562E+02 -0.25147643149E+02  0.36820924019E+02  0.00000000000E+00 0. -1.
         11    1    4    4    0    0  0.22542815454E+01  0.54569959583E+01  0.36927261579E+01  0.69639656025E+01  0.51100000000E-03 0. -1.
        -11    1    4    4    0    0  0.26451302464E+02 -0.10559308603E+02  0.84833712811E+01  0.29717637672E+02  0.51100000000E-03 0.  1.
         12    1    4    4    0    0 -0.65188398061E+01 -0.10100478917E+02  0.12971545709E+02  0.17685472707E+02  0.00000000000E+00 0. -1.
</event>
<event>
 8    1  0.2482403E-006  0.9118800E+02  0.7816164E-02  0.1184000E+00
        -11   -1    0    0    0    0  0.00000000000E+00  0.00000000000E+00  0.45593999997E+02  0.45594000000E+02  0.51100000000E-03 0. -1.
         11   -1    0    0    0    0 -0.00000000000E+00 -0.00000000000E+00 -0.45593999997E+02  0.45594000000E+02  0.51100000000E-03 0.  1.
         23    2    1    2    0    0  0.71054273576E-14  0.11102230246E-14 -0.88817841970E-15  0.91188000000E+02  0.91188000000E+02 0.  0.
    9900012    2    3    3    0    0  0.36364987118E+02 -0.60055101276E+00 -0.57450833443E+01  0.54367096532E+02  0.40000028163E+02 0.  0.
         12    1    3    3    0    0 -0.36364987118E+02  0.60055101276E+00  0.57450833443E+01  0.36820903468E+02  0.00000000000E+00 0. -1.
         11    1    4    4    0    0 -0.25486325188E+01  0.42831369745E+01 -0.37410400481E+00  0.49980740417E+01  0.51100000000E-03 0. -1.
        -11    1    4    4    0    0  0.21108040203E+02 -0.16686508908E+02 -0.74126771802E+01  0.27909437902E+02  0.51100000000E-03 0.  1.
         12    1    4    4    0    0  0.17805579433E+02  0.11802820920E+02  0.20416978408E+01  0.21459584588E+02  0.00000000000E+00 0. -1.
</event>
<event>
 8    1  0.2482403E-006  0.9118800E+02  0.7816164E-02  0.1184000E+00
        -11   -1    0    0    0    0  0.00000000000E+00  0.00000000000E+00  0.45593999997E+02  0.45594000000E+02  0.51100000000E-03 0.  1.
         11   -1    0    0    0    0 -0.00000000000E+00 -0.00000000000E+00 -0.45593999997E+02  0.45594000000E+02  0.51100000000E-03 0. -1.
         23    2    1    2    0    0  0.00000000000E+00  0.00000000000E+00  0.00000000000E+00  0.91188000000E+02  0.91188000000E+02 0.  0.
    9900012    2    3    3    0    0  0.16399990935E+02  0.52755278844E+00 -0.32962726324E+02  0.54367090977E+02  0.40000015499E+02 0.  0.
        -12    1    3    3    0    0 -0.16399990935E+02 -0.52755278844E+00  0.32962726324E+02  0.36820909023E+02  0.00000000000E+00 0.  1.
         11    1    4    4    0    0  0.85031832613E+00 -0.10708106161E+02 -0.17070536092E+02  0.20169030257E+02  0.51100000000E-03 0. -1.
        -11    1    4    4    0    0  0.71216975502E+01 -0.70809404389E+01 -0.64362946633E+01  0.11928293371E+02  0.51100000000E-03 0.  1.
         12    1    4    4    0    0  0.84279750584E+01  0.18316599388E+02 -0.94558955690E+01  0.22269767348E+02  0.00000000000E+00 0. -1.
</event>
<event>
 8    1  0.2482403E-006  0.9118800E+02  0.7816164E-02  0.1184000E+00
        -11   -1    0    0    0    0  0.00000000000E+00  0.00000000000E+00  0.45593999997E+02  0.45594000000E+02  0.51100000000E-03 0.  1.
         11   -1    0    0    0    0 -0.00000000000E+00 -0.00000000000E+00 -0.45593999997E+02  0.45594000000E+02  0.51100000000E-03 0. -1.
         23    2    1    2    0    0 -0.88817841970E-15  0.44408920985E-15  0.00000000000E+00  0.91188000000E+02  0.91188000000E+02 0.  0.
    9900012    2    3    3    0    0 -0.14124264843E+01  0.30064381556E+01  0.36670770199E+02  0.54367095531E+02  0.40000025882E+02 0.  0.
         12    1    3    3    0    0  0.14124264843E+01 -0.30064381556E+01 -0.36670770199E+02  0.36820904469E+02  0.00000000000E+00 0. -1.
         11    1    4    4    0    0 -0.85456771082E+01  0.32844120121E+01  0.11157801511E+02  0.14433034827E+02  0.51100000000E-03 0. -1.
        -11    1    4    4    0    0 -0.54800417531E+01 -0.86080640430E+01  0.22238172270E+02  0.24467650691E+02  0.51100000000E-03 0.  1.
         12    1    4    4    0    0  0.12613292377E+02  0.83300901865E+01  0.32747964180E+01  0.15466410013E+02  0.00000000000E+00 0. -1.
</event>
<event>
 8    1  0.2482403E-006  0.9118800E+02  0.7816164E-02  0.1184000E+00
        -11   -1    0    0    0    0  0.00000000000E+00  0.00000000000E+00  0.45593999997E+02  0.45594000000E+02  0.51100000000E-03 0. -1.
         11   -1    0    0    0    0 -0.00000000000E+00 -0.00000000000E+00 -0.45593999997E+02  0.45594000000E+02  0.51100000000E-03 0.  1.
         23    2    1    2    0    0 -0.44408920985E-15  0.00000000000E+00  0.00000000000E+00  0.91188000000E+02  0.91188000000E+02 0.  0.
    9900012    2    3    3    0    0 -0.10920698601E+01  0.66379385520E+01  0.36201173515E+02  0.54367084630E+02  0.40000001031E+02 0.  0.
        -12    1    3    3    0    0  0.10920698601E+01 -0.66379385520E+01 -0.36201173515E+02  0.36820915370E+02  0.00000000000E+00 0.  1.
         11    1    4    4    0    0  0.15985746634E+01  0.97414380045E+01  0.48870171722E+01  0.11015171013E+02  0.51100000000E-03 0. -1.
        -11    1    4    4    0    0  0.51553648954E+01  0.27181936559E+01 -0.37644872827E+01  0.69381358245E+01  0.51100000000E-03 0.  1.
         12    1    4    4    0    0 -0.78460094190E+01 -0.58216931084E+01  0.35078643626E+02  0.36413777792E+02  0.00000000000E+00 0. -1.
</event>
<event>
 8    1  0.2482403E-006  0.9118800E+02  0.7816164E-02  0.1184000E+00
        -11   -1    0    0    0    0  0.00000000000E+00  0.00000000000E+00  0.45593999997E+02  0.45594000000E+02  0.51100000000E-03 0.  1.
         11   -1    0    0    0    0 -0.00000000000E+00 -0.00000000000E+00 -0.45593999997E+02  0.45594000000E+02  0.51100000000E-03 0. -1.
         23    2    1    2    0    0  0.26645352591E-14  0.17763568394E-14  0.00000000000E+00  0.91188000000E+02  0.91188000000E+02 0.  0.
    9900012    2    3    3    0    0  0.42012311813E+01  0.15439834381E+02  0.33162346319E+02  0.54367081455E+02  0.39999993793E+02 0.  0.
         12    1    3    3    0    0 -0.42012311813E+01 -0.15439834381E+02 -0.33162346319E+02  0.36820918545E+02  0.00000000000E+00 0. -1.
         11    1    4    4    0    0 -0.67903509407E+01  0.30718565263E+01  0.34640683117E+01  0.82185727438E+01  0.51100000000E-03 0. -1.
        -11    1    4    4    0    0 -0.67782885266E+01  0.72940269776E+01  0.25247402487E+02  0.27139995532E+02  0.51100000000E-03 0.  1.
        -12    1    4    4    0    0  0.17769870649E+02  0.50739508772E+01  0.44508755200E+01  0.19008513179E+02  0.00000000000E+00 0.  1.
</event>
<event>
 8    1  0.2482403E-006  0.9118800E+02  0.7816164E-02  0.1184000E+00
        -11   -1    0    0    0    0  0.00000000000E+00  0.00000000000E+00  0.45593999997E+02  0.45594000000E+02  0.51100000000E-03 0.  1.
         11   -1    0    0    0    0 -0.00000000000E+00 -0.00000000000E+00 -0.45593999997E+02  0.45594000000E+02  0.51100000000E-03 0. -1.
         23    2    1    2    0    0  0.00000000000E+00  0.17763568394E-14 -0.35527136788E-14  0.91188000000E+02  0.91188000000E+02 0.  0.
    9900012    2    3    3    0    0  0.24947686625E+02 -0.11518548719E+02  0.24509534445E+02  0.54367064226E+02  0.39999954517E+02 0.  0.
         12    1    3    3    0    0 -0.24947686625E+02  0.11518548719E+02 -0.24509534445E+02  0.36820935774E+02  0.00000000000E+00 0. -1.
         11    1    4    4    0    0  0.88152157800E+01  0.30572569749E+01 -0.87197137436E+01  0.12770601297E+02  0.51100000000E-03 0. -1.
        -11    1    4    4    0    0  0.93764360948E+01 -0.11682324329E+01  0.87394312443E+01  0.12870896612E+02  0.51100000000E-03 0.  1.
         12    1    4    4    0    0  0.67560347502E+01 -0.13407573261E+02  0.24489816944E+02  0.28725566318E+02  0.00000000000E+00 0. -1.
</event>
<event>
 8    1  0.2482403E-006  0.9118800E+02  0.7816164E-02  0.1184000E+00
        -11   -1    0    0    0    0  0.00000000000E+00  0.00000000000E+00  0.45593999997E+02  0.45594000000E+02  0.51100000000E-03 0. -1.
         11   -1    0    0    0    0 -0.00000000000E+00 -0.00000000000E+00 -0.45593999997E+02  0.45594000000E+02  0.51100000000E-03 0.  1.
         23    2    1    2    0    0  0.00000000000E+00  0.00000000000E+00  0.00000000000E+00  0.91188000000E+02  0.91188000000E+02 0.  0.
    9900012    2    3    3    0    0  0.12072107487E+02  0.29179417301E+02 -0.18936824557E+02  0.54367116014E+02  0.40000072578E+02 0.  0.
         12    1    3    3    0    0 -0.12072107487E+02 -0.29179417301E+02  0.18936824557E+02  0.36820883986E+02  0.00000000000E+00 0. -1.
         11    1    4    4    0    0  0.11138491865E+02  0.15274953241E+01 -0.80509389089E+01  0.13828118475E+02  0.51100000000E-03 0. -1.
        -11    1    4    4    0    0  0.74681381061E+01  0.21833808851E+02 -0.17997275314E+02  0.29264145548E+02  0.51100000000E-03 0.  1.
        -12    1    4    4    0    0 -0.65345224842E+01  0.58181131259E+01  0.71113896654E+01  0.11274851991E+02  0.00000000000E+00 0.  1.
</event>
<event>
 8    1  0.2482403E-006  0.9118800E+02  0.7816164E-02  0.1184000E+00
        -11   -1    0    0    0    0  0.00000000000E+00  0.00000000000E+00  0.45593999997E+02  0.45594000000E+02  0.51100000000E-03 0. -1.
         11   -1    0    0    0    0 -0.00000000000E+00 -0.00000000000E+00 -0.45593999997E+02  0.45594000000E+02  0.51100000000E-03 0.  1.
         23    2    1    2    0    0 -0.35527136788E-14 -0.71054273576E-14  0.00000000000E+00  0.91188000000E+02  0.91188000000E+02 0.  0.
    9900012    2    3    3    0    0  0.21778635804E+02  0.28418708974E+02  0.85935003989E+01  0.54367078687E+02  0.39999987483E+02 0.  0.
         12    1    3    3    0    0 -0.21778635804E+02 -0.28418708974E+02 -0.85935003989E+01  0.36820921313E+02  0.00000000000E+00 0. -1.
         11    1    4    4    0    0 -0.93061696518E+01  0.69940079882E+01 -0.59464471450E+01  0.13072152663E+02  0.51100000000E-03 0. -1.
        -11    1    4    4    0    0  0.22099143489E+02  0.10569103274E+02  0.80984758270E+01  0.25800453444E+02  0.51100000000E-03 0.  1.
         12    1    4    4    0    0  0.89856619666E+01  0.10855597712E+02  0.64414717169E+01  0.15494472580E+02  0.00000000000E+00 0. -1.
</event>
<event>
 8    1  0.2482403E-006  0.9118800E+02  0.7816164E-02  0.1184000E+00
        -11   -1    0    0    0    0  0.00000000000E+00  0.00000000000E+00  0.45593999997E+02  0.45594000000E+02  0.51100000000E-03 0.  1.
         11   -1    0    0    0    0 -0.00000000000E+00 -0.00000000000E+00 -0.45593999997E+02  0.45594000000E+02  0.51100000000E-03 0. -1.
         23    2    1    2    0    0  0.00000000000E+00  0.00000000000E+00  0.00000000000E+00  0.91188000000E+02  0.91188000000E+02 0.  0.
    9900012    2    3    3    0    0 -0.18016788805E+02 -0.30717840173E+01 -0.31964596782E+02  0.54367136575E+02  0.40000119450E+02 0.  0.
        -12    1    3    3    0    0  0.18016788805E+02  0.30717840173E+01  0.31964596782E+02  0.36820863425E+02  0.00000000000E+00 0.  1.
         11    1    4    4    0    0  0.47760609335E+01  0.53346085598E+01 -0.33808198007E+01  0.79182541834E+01  0.51100000000E-03 0. -1.
        -11    1    4    4    0    0 -0.65821943899E+01 -0.10182107998E+02  0.15125644598E+01  0.12218365594E+02  0.51100000000E-03 0.  1.
         12    1    4    4    0    0 -0.16210655349E+02  0.17757154212E+01 -0.30096341441E+02  0.34230516798E+02  0.00000000000E+00 0. -1.
</event>
<event>
 8    1  0.2482403E-006  0.9118800E+02  0.7816164E-02  0.1184000E+00
        -11   -1    0    0    0    0  0.00000000000E+00  0.00000000000E+00  0.45593999997E+02  0.45594000000E+02  0.51100000000E-03 0.  1.
         11   -1    0    0    0    0 -0.00000000000E+00 -0.00000000000E+00 -0.45593999997E+02  0.45594000000E+02  0.51100000000E-03 0. -1.
         23    2    1    2    0    0  0.00000000000E+00  0.00000000000E+00  0.00000000000E+00  0.91188000000E+02  0.91188000000E+02 0.  0.
    9900012    2    3    3    0    0  0.13305537582E+02 -0.31037827914E+02  0.14676380658E+02  0.54367078758E+02  0.39999987644E+02 0.  0.
         12    1    3    3    0    0 -0.13305537582E+02  0.31037827914E+02 -0.14676380658E+02  0.36820921242E+02  0.00000000000E+00 0. -1.
         11    1    4    4    0    0 -0.25988060834E+01 -0.68570560523E+01  0.97512890484E+01  0.12200846247E+02  0.51100000000E-03 0. -1.
        -11    1    4    4    0    0  0.74152609746E+01 -0.30439918457E+02  0.37662387056E+01  0.31555653776E+02  0.51100000000E-03 0.  1.
        -12    1    4    4    0    0  0.84890826907E+01  0.62591465959E+01  0.11588529037E+01  0.10610578735E+02  0.00000000000E+00 0.  1.
</event>
<event>
 8    1  0.2482403E-006  0.9118800E+02  0.7816164E-02  0.1184000E+00
        -11   -1    0    0    0    0  0.00000000000E+00  0.00000000000E+00  0.45593999997E+02  0.45594000000E+02  0.51100000000E-03 0. -1.
         11   -1    0    0    0    0 -0.00000000000E+00 -0.00000000000E+00 -0.45593999997E+02  0.45594000000E+02  0.51100000000E-03 0.  1.
         23    2    1    2    0    0  0.00000000000E+00 -0.17763568394E-14  0.17763568394E-14  0.91188000000E+02  0.91188000000E+02 0.  0.
    9900012    2    3    3    0    0 -0.33324994201E+02  0.12712445013E+02 -0.91443011896E+01  0.54367085550E+02  0.40000003128E+02 0.  0.
         12    1    3    3    0    0  0.33324994201E+02 -0.12712445013E+02  0.91443011896E+01  0.36820914450E+02  0.00000000000E+00 0. -1.
         11    1    4    4    0    0 -0.78933742223E+01  0.88259112855E+01  0.68697197462E+01  0.13689233590E+02  0.51100000000E-03 0.  1.
        -11    1    4    4    0    0  0.39376755517E+01  0.67948489649E+01 -0.39990849189E+01  0.88129417141E+01  0.51100000000E-03 0. -1.
         12    1    4    4    0    0 -0.29369295530E+02 -0.29083152372E+01 -0.12014936017E+02  0.31864910246E+02  0.00000000000E+00 0. -1.
</event>
<event>
 8    1  0.2482403E-006  0.9118800E+02  0.7816164E-02  0.1184000E+00
        -11   -1    0    0    0    0  0.00000000000E+00  0.00000000000E+00  0.45593999997E+02  0.45594000000E+02  0.51100000000E-03 0.  1.
         11   -1    0    0    0    0 -0.00000000000E+00 -0.00000000000E+00 -0.45593999997E+02  0.45594000000E+02  0.51100000000E-03 0. -1.
         23    2    1    2    0    0  0.26645352591E-14  0.00000000000E+00  0.71054273576E-14  0.91188000000E+02  0.91188000000E+02 0.  0.
    9900012    2    3    3    0    0 -0.79496495825E+01  0.16850025324E+02  0.31759407476E+02  0.54367078703E+02  0.39999987520E+02 0.  0.
         12    1    3    3    0    0  0.79496495825E+01 -0.16850025324E+02 -0.31759407476E+02  0.36820921297E+02  0.00000000000E+00 0. -1.
         11    1    4    4    0    0  0.15520482077E+02  0.23489118688E+01  0.11460725308E+02  0.19435816826E+02  0.51100000000E-03 0. -1.
        -11    1    4    4    0    0 -0.69978938362E+01  0.38940553282E+01  0.99551565771E+01  0.12776514696E+02  0.51100000000E-03 0.  1.
        -12    1    4    4    0    0 -0.16472237823E+02  0.10607058127E+02  0.10343525591E+02  0.22154747181E+02  0.00000000000E+00 0.  1.
</event>
<event>
 8    1  0.2482403E-006  0.9118800E+02  0.7816164E-02  0.1184000E+00
        -11   -1    0    0    0    0  0.00000000000E+00  0.00000000000E+00  0.45593999997E+02  0.45594000000E+02  0.51100000000E-03 0.  1.
         11   -1    0    0    0    0 -0.00000000000E+00 -0.00000000000E+00 -0.45593999997E+02  0.45594000000E+02  0.51100000000E-03 0. -1.
         23    2    1    2    0    0  0.00000000000E+00  0.00000000000E+00  0.44408920985E-15  0.91188000000E+02  0.91188000000E+02 0.  0.
    9900012    2    3    3    0    0  0.36479678563E+02 -0.39132679448E+01  0.31144090928E+01  0.54367079886E+02  0.39999990216E+02 0.  0.
         12    1    3    3    0    0 -0.36479678563E+02  0.39132679448E+01 -0.31144090928E+01  0.36820920114E+02  0.00000000000E+00 0. -1.
         11    1    4    4    0    0  0.28354039667E+02  0.75718745323E+01  0.75232814351E+01  0.30296610589E+02  0.51100000000E-03 0. -1.
        -11    1    4    4    0    0  0.98229258539E+01  0.12853714715E+00  0.29010930280E+01  0.10243179933E+02  0.51100000000E-03 0.  1.
        -12    1    4    4    0    0 -0.16972869581E+01 -0.11613679624E+02 -0.73099653703E+01  0.13827289364E+02  0.00000000000E+00 0.  1.
</event>
<event>
 8    1  0.2482403E-006  0.9118800E+02  0.7816164E-02  0.1184000E+00
        -11   -1    0    0    0    0  0.00000000000E+00  0.00000000000E+00  0.45593999997E+02  0.45594000000E+02  0.51100000000E-03 0. -1.
         11   -1    0    0    0    0 -0.00000000000E+00 -0.00000000000E+00 -0.45593999997E+02  0.45594000000E+02  0.51100000000E-03 0.  1.
         23    2    1    2    0    0  0.17763568394E-14  0.44408920985E-15  0.00000000000E+00  0.91188000000E+02  0.91188000000E+02 0.  0.
    9900012    2    3    3    0    0  0.60798174166E+01  0.25821000937E+01  0.36223622398E+02  0.54367051610E+02  0.39999925754E+02 0.  0.
        -12    1    3    3    0    0 -0.60798174166E+01 -0.25821000937E+01 -0.36223622398E+02  0.36820948390E+02  0.00000000000E+00 0.  1.
         11    1    4    4    0    0  0.16976896151E+02  0.48369083399E+01  0.35602113346E+02  0.39738157484E+02  0.51100000000E-03 0. -1.
        -11    1    4    4    0    0  0.30406508020E+00  0.20932653650E+01  0.14818743324E+01  0.25826666954E+01  0.51100000000E-03 0.  1.
        -12    1    4    4    0    0 -0.11201143815E+02 -0.43480736112E+01 -0.86036528039E+00  0.12046227430E+02  0.00000000000E+00 0.  1.
</event>
<event>
 8    1  0.2482403E-006  0.9118800E+02  0.7816164E-02  0.1184000E+00
        -11   -1    0    0    0    0  0.00000000000E+00  0.00000000000E+00  0.45593999997E+02  0.45594000000E+02  0.51100000000E-03 0. -1.
         11   -1    0    0    0    0 -0.00000000000E+00 -0.00000000000E+00 -0.45593999997E+02  0.45594000000E+02  0.51100000000E-03 0.  1.
         23    2    1    2    0    0  0.00000000000E+00 -0.35527136788E-14 -0.35527136788E-14  0.91188000000E+02  0.91188000000E+02 0.  0.
    9900012    2    3    3    0    0  0.36017915559E+01  0.31944972716E+02  0.17953429587E+02  0.54367084501E+02  0.40000000737E+02 0.  0.
        -12    1    3    3    0    0 -0.36017915559E+01 -0.31944972716E+02 -0.17953429587E+02  0.36820915499E+02  0.00000000000E+00 0.  1.
         11    1    4    4    0    0  0.10285866558E+02  0.14342008249E+02  0.18733301618E+01  0.17748284921E+02  0.51100000000E-03 0. -1.
        -11    1    4    4    0    0  0.62047774731E+01  0.18946526535E+02  0.94661102415E+01  0.22069829510E+02  0.51100000000E-03 0.  1.
        -12    1    4    4    0    0 -0.12888852476E+02 -0.13435620688E+01  0.66139891840E+01  0.14548970070E+02  0.00000000000E+00 0.  1.
</event>
<event>
 8    1  0.2482403E-006  0.9118800E+02  0.7816164E-02  0.1184000E+00
        -11   -1    0    0    0    0  0.00000000000E+00  0.00000000000E+00  0.45593999997E+02  0.45594000000E+02  0.51100000000E-03 0.  1.
         11   -1    0    0    0    0 -0.00000000000E+00 -0.00000000000E+00 -0.45593999997E+02  0.45594000000E+02  0.51100000000E-03 0. -1.
         23    2    1    2    0    0  0.00000000000E+00  0.00000000000E+00 -0.35527136788E-14  0.91188000000E+02  0.91188000000E+02 0.  0.
    9900012    2    3    3    0    0 -0.28289545421E+02  0.15257781146E+02 -0.17963218943E+02  0.54367143133E+02  0.40000134400E+02 0.  0.
        -12    1    3    3    0    0  0.28289545421E+02 -0.15257781146E+02  0.17963218943E+02  0.36820856867E+02  0.00000000000E+00 0.  1.
         11    1    4    4    0    0 -0.20885353816E+02 -0.40645571455E+01  0.72069250129E-01  0.21277307702E+02  0.51100000000E-03 0. -1.
        -11    1    4    4    0    0 -0.12144847050E+02  0.70195579245E+01 -0.12505786158E+02  0.18792716435E+02  0.51100000000E-03 0.  1.
        -12    1    4    4    0    0  0.47406554454E+01  0.12302780367E+02 -0.55295020352E+01  0.14297118996E+02  0.00000000000E+00 0.  1.
</event>
<event>
 8    1  0.2482403E-006  0.9118800E+02  0.7816164E-02  0.1184000E+00
        -11   -1    0    0    0    0  0.00000000000E+00  0.00000000000E+00  0.45593999997E+02  0.45594000000E+02  0.51100000000E-03 0.  1.
         11   -1    0    0    0    0 -0.00000000000E+00 -0.00000000000E+00 -0.45593999997E+02  0.45594000000E+02  0.51100000000E-03 0. -1.
         23    2    1    2    0    0  0.00000000000E+00  0.17763568394E-14  0.00000000000E+00  0.91188000000E+02  0.91188000000E+02 0.  0.
    9900012    2    3    3    0    0  0.76201442290E+01  0.15106017587E+02  0.32703558496E+02  0.54367067045E+02  0.39999960942E+02 0.  0.
         12    1    3    3    0    0 -0.76201442290E+01 -0.15106017587E+02 -0.32703558496E+02  0.36820932955E+02  0.00000000000E+00 0. -1.
         11    1    4    4    0    0  0.14466300048E+02 -0.80234365306E+00  0.86471093467E+01  0.16872761859E+02  0.51100000000E-03 0. -1.
        -11    1    4    4    0    0 -0.34672038974E+01  0.55469658267E+01  0.25658082938E+02  0.26478813286E+02  0.51100000000E-03 0.  1.
        -12    1    4    4    0    0 -0.33789519218E+01  0.10361395413E+02 -0.16016337888E+01  0.11015491900E+02  0.00000000000E+00 0.  1.
</event>
<event>
 8    1  0.2482403E-006  0.9118800E+02  0.7816164E-02  0.1184000E+00
        -11   -1    0    0    0    0  0.00000000000E+00  0.00000000000E+00  0.45593999997E+02  0.45594000000E+02  0.51100000000E-03 0. -1.
         11   -1    0    0    0    0 -0.00000000000E+00 -0.00000000000E+00 -0.45593999997E+02  0.45594000000E+02  0.51100000000E-03 0.  1.
         23    2    1    2    0    0  0.00000000000E+00  0.00000000000E+00  0.00000000000E+00  0.91188000000E+02  0.91188000000E+02 0.  0.
    9900012    2    3    3    0    0  0.81706486824E+01 -0.27171697355E+02 -0.23467472074E+02  0.54367042889E+02  0.39999905873E+02 0.  0.
         12    1    3    3    0    0 -0.81706486824E+01  0.27171697355E+02  0.23467472074E+02  0.36820957111E+02  0.00000000000E+00 0. -1.
         11    1    4    4    0    0  0.11285788527E+02 -0.19200346137E+02 -0.17626165458E+02  0.28402535511E+02  0.51100000000E-03 0. -1.
        -11    1    4    4    0    0 -0.73124875518E+00 -0.12600878114E+02 -0.12329826568E+02  0.17644871137E+02  0.51100000000E-03 0.  1.
         12    1    4    4    0    0 -0.23838910894E+01  0.46295268965E+01  0.64885199515E+01  0.83196362404E+01  0.00000000000E+00 0. -1.
</event>
<event>
 8    1  0.2482403E-006  0.9118800E+02  0.7816164E-02  0.1184000E+00
        -11   -1    0    0    0    0  0.00000000000E+00  0.00000000000E+00  0.45593999997E+02  0.45594000000E+02  0.51100000000E-03 0.  1.
         11   -1    0    0    0    0 -0.00000000000E+00 -0.00000000000E+00 -0.45593999997E+02  0.45594000000E+02  0.51100000000E-03 0. -1.
         23    2    1    2    0    0  0.35527136788E-14 -0.22204460493E-15  0.00000000000E+00  0.91188000000E+02  0.91188000000E+02 0.  0.
    9900012    2    3    3    0    0  0.31066661922E+02  0.10225750768E+01  0.19738202446E+02  0.54367085039E+02  0.40000001964E+02 0.  0.
         12    1    3    3    0    0 -0.31066661922E+02 -0.10225750768E+01 -0.19738202446E+02  0.36820914961E+02  0.00000000000E+00 0. -1.
         11    1    4    4    0    0  0.10889317217E+02 -0.13764320807E+02  0.10867643164E+02  0.20643144744E+02  0.51100000000E-03 0. -1.
        -11    1    4    4    0    0  0.23997088925E+02  0.95971422258E+01  0.87261880567E+01  0.27278412234E+02  0.51100000000E-03 0.  1.
         12    1    4    4    0    0 -0.38197442202E+01  0.51897536577E+01  0.14437122594E+00  0.64455280611E+01  0.00000000000E+00 0. -1.
</event>
<event>
 8    1  0.2482403E-006  0.9118800E+02  0.7816164E-02  0.1184000E+00
        -11   -1    0    0    0    0  0.00000000000E+00  0.00000000000E+00  0.45593999997E+02  0.45594000000E+02  0.51100000000E-03 0. -1.
         11   -1    0    0    0    0 -0.00000000000E+00 -0.00000000000E+00 -0.45593999997E+02  0.45594000000E+02  0.51100000000E-03 0.  1.
         23    2    1    2    0    0  0.00000000000E+00  0.17763568394E-14  0.00000000000E+00  0.91188000000E+02  0.91188000000E+02 0.  0.
    9900012    2    3    3    0    0 -0.20110490366E+02 -0.14065831978E+02  0.27449961849E+02  0.54367083967E+02  0.39999999518E+02 0.  0.
        -12    1    3    3    0    0  0.20110490366E+02  0.14065831978E+02 -0.27449961849E+02  0.36820916033E+02  0.00000000000E+00 0.  1.
         11    1    4    4    0    0  0.74270906622E+01  0.35636155042E+01  0.79928035720E+01  0.11478063442E+02  0.51100000000E-03 0.  1.
        -11    1    4    4    0    0 -0.21784034382E+02 -0.88722326843E+01  0.21890696327E+02  0.32131966213E+02  0.51100000000E-03 0. -1.
        -12    1    4    4    0    0 -0.57535466463E+01 -0.87572147977E+01 -0.24335380498E+01  0.10757054312E+02  0.00000000000E+00 0.  1.
</event>
<event>
 8    1  0.2482403E-006  0.9118800E+02  0.7816164E-02  0.1184000E+00
        -11   -1    0    0    0    0  0.00000000000E+00  0.00000000000E+00  0.45593999997E+02  0.45594000000E+02  0.51100000000E-03 0. -1.
         11   -1    0    0    0    0 -0.00000000000E+00 -0.00000000000E+00 -0.45593999997E+02  0.45594000000E+02  0.51100000000E-03 0.  1.
         23    2    1    2    0    0 -0.35527136788E-14 -0.17763568394E-14  0.00000000000E+00  0.91188000000E+02  0.91188000000E+02 0.  0.
    9900012    2    3    3    0    0 -0.27697245373E+02  0.97810352298E+01  0.22203011044E+02  0.54367085416E+02  0.40000002822E+02 0.  0.
        -12    1    3    3    0    0  0.27697245373E+02 -0.97810352298E+01 -0.22203011044E+02  0.36820914584E+02  0.00000000000E+00 0.  1.
         11    1    4    4    0    0  0.21033488309E+01 -0.21697454289E+01  0.33240529920E+01  0.44923490609E+01  0.51100000000E-03 0. -1.
        -11    1    4    4    0    0  0.65775134621E+01  0.16596424179E+01  0.80938553983E+01  0.10560709814E+02  0.51100000000E-03 0.  1.
        -12    1    4    4    0    0 -0.36378107666E+02  0.10291138241E+02  0.10785102653E+02  0.39314026541E+02  0.00000000000E+00 0.  1.
</event>
<event>
 8    1  0.2482403E-006  0.9118800E+02  0.7816164E-02  0.1184000E+00
        -11   -1    0    0    0    0  0.00000000000E+00  0.00000000000E+00  0.45593999997E+02  0.45594000000E+02  0.51100000000E-03 0. -1.
         11   -1    0    0    0    0 -0.00000000000E+00 -0.00000000000E+00 -0.45593999997E+02  0.45594000000E+02  0.51100000000E-03 0.  1.
         23    2    1    2    0    0 -0.44408920985E-15  0.00000000000E+00  0.00000000000E+00  0.91188000000E+02  0.91188000000E+02 0.  0.
    9900012    2    3    3    0    0 -0.23922863106E+01 -0.73465798397E+01 -0.36001173662E+02  0.54367085099E+02  0.40000002100E+02 0.  0.
         12    1    3    3    0    0  0.23922863106E+01  0.73465798397E+01  0.36001173662E+02  0.36820914901E+02  0.00000000000E+00 0. -1.
         11    1    4    4    0    0 -0.12894602134E+01  0.41872078514E+01 -0.13747578793E+02  0.14428837104E+02  0.51100000000E-03 0. -1.
        -11    1    4    4    0    0  0.13204751923E+02  0.14534273242E+01 -0.55530175744E+01  0.14398400216E+02  0.51100000000E-03 0.  1.
        -12    1    4    4    0    0 -0.14307578020E+02 -0.12987215015E+02 -0.16700577294E+02  0.25539847780E+02  0.00000000000E+00 0.  1.
</event>
<event>
 8    1  0.2482403E-006  0.9118800E+02  0.7816164E-02  0.1184000E+00
        -11   -1    0    0    0    0  0.00000000000E+00  0.00000000000E+00  0.45593999997E+02  0.45594000000E+02  0.51100000000E-03 0.  1.
         11   -1    0    0    0    0 -0.00000000000E+00 -0.00000000000E+00 -0.45593999997E+02  0.45594000000E+02  0.51100000000E-03 0. -1.
         23    2    1    2    0    0 -0.88817841970E-15  0.00000000000E+00  0.44408920985E-15  0.91188000000E+02  0.91188000000E+02 0.  0.
    9900012    2    3    3    0    0 -0.75013797660E+01 -0.36044739188E+02 -0.53359352962E+00  0.54367100451E+02  0.40000037098E+02 0.  0.
         12    1    3    3    0    0  0.75013797660E+01  0.36044739188E+02  0.53359352962E+00  0.36820899549E+02  0.00000000000E+00 0. -1.
         11    1    4    4    0    0 -0.13352449057E+01  0.45991364265E+01  0.72520532288E+01  0.86906392816E+01  0.51100000000E-03 0. -1.
        -11    1    4    4    0    0  0.17235733948E+01 -0.32673618605E+02 -0.13513669380E+01  0.32746942619E+02  0.51100000000E-03 0.  1.
         12    1    4    4    0    0 -0.78897082551E+01 -0.79702570096E+01 -0.64342798204E+01  0.12929518551E+02  0.00000000000E+00 0. -1.
</event>
<event>
 8    1  0.2482403E-006  0.9118800E+02  0.7816164E-02  0.1184000E+00
        -11   -1    0    0    0    0  0.00000000000E+00  0.00000000000E+00  0.45593999997E+02  0.45594000000E+02  0.51100000000E-03 0.  1.
         11   -1    0    0    0    0 -0.00000000000E+00 -0.00000000000E+00 -0.45593999997E+02  0.45594000000E+02  0.51100000000E-03 0. -1.
         23    2    1    2    0    0  0.00000000000E+00  0.00000000000E+00  0.22204460493E-15  0.91188000000E+02  0.91188000000E+02 0.  0.
    9900012    2    3    3    0    0  0.11797516005E+02  0.34847368439E+02  0.15044969231E+01  0.54367027959E+02  0.39999871838E+02 0.  0.
         12    1    3    3    0    0 -0.11797516005E+02 -0.34847368439E+02 -0.15044969231E+01  0.36820972041E+02  0.00000000000E+00 0. -1.
         11    1    4    4    0    0  0.14105583261E+02  0.19459901806E+02 -0.13529111026E+02  0.27580647253E+02  0.51100000000E-03 0. -1.
        -11    1    4    4    0    0 -0.26153186194E+01 -0.28823103815E+01  0.24159395503E+01  0.45808698724E+01  0.51100000000E-03 0.  1.
        -12    1    4    4    0    0  0.30725136344E+00  0.18269777014E+02  0.12617668399E+02  0.22205510834E+02  0.00000000000E+00 0.  1.
</event>
<event>
 8    1  0.2482403E-006  0.9118800E+02  0.7816164E-02  0.1184000E+00
        -11   -1    0    0    0    0  0.00000000000E+00  0.00000000000E+00  0.45593999997E+02  0.45594000000E+02  0.51100000000E-03 0. -1.
         11   -1    0    0    0    0 -0.00000000000E+00 -0.00000000000E+00 -0.45593999997E+02  0.45594000000E+02  0.51100000000E-03 0.  1.
         23    2    1    2    0    0  0.00000000000E+00  0.00000000000E+00  0.00000000000E+00  0.91188000000E+02  0.91188000000E+02 0.  0.
    9900012    2    3    3    0    0  0.23729987002E+02  0.23089498751E+02  0.16110334858E+02  0.54367080336E+02  0.39999991242E+02 0.  0.
        -12    1    3    3    0    0 -0.23729987002E+02 -0.23089498751E+02 -0.16110334858E+02  0.36820919664E+02  0.00000000000E+00 0.  1.
         11    1    4    4    0    0  0.10287755190E+02  0.13083625173E+02  0.15859320848E+02  0.22989937202E+02  0.51100000000E-03 0. -1.
        -11    1    4    4    0    0 -0.71756297046E+01  0.37642804483E+01  0.47186458662E+01  0.93768378477E+01  0.51100000000E-03 0.  1.
         12    1    4    4    0    0  0.20617861516E+02  0.62415931295E+01 -0.44676318556E+01  0.22000305287E+02  0.00000000000E+00 0. -1.
</event>
<event>
 8    1  0.2482403E-006  0.9118800E+02  0.7816164E-02  0.1184000E+00
        -11   -1    0    0    0    0  0.00000000000E+00  0.00000000000E+00  0.45593999997E+02  0.45594000000E+02  0.51100000000E-03 0. -1.
         11   -1    0    0    0    0 -0.00000000000E+00 -0.00000000000E+00 -0.45593999997E+02  0.45594000000E+02  0.51100000000E-03 0.  1.
         23    2    1    2    0    0  0.00000000000E+00  0.35527136788E-14  0.17763568394E-14  0.91188000000E+02  0.91188000000E+02 0.  0.
    9900012    2    3    3    0    0  0.25395908532E+02 -0.26472940938E+02 -0.31649900240E+01  0.54367001454E+02  0.39999811415E+02 0.  0.
         12    1    3    3    0    0 -0.25395908532E+02  0.26472940938E+02  0.31649900240E+01  0.36820998546E+02  0.00000000000E+00 0. -1.
         11    1    4    4    0    0  0.21631293177E+02 -0.31433458859E+01  0.43562378820E+01  0.22288343963E+02  0.51100000000E-03 0. -1.
        -11    1    4    4    0    0 -0.73123722650E+01 -0.13012194373E+02  0.52523226771E+00  0.14935322553E+02  0.51100000000E-03 0.  1.
         12    1    4    4    0    0  0.11076987620E+02 -0.10317400678E+02 -0.80464601737E+01  0.17143334939E+02  0.00000000000E+00 0. -1.
</event>
<event>
 8    1  0.2482403E-006  0.9118800E+02  0.7816164E-02  0.1184000E+00
        -11   -1    0    0    0    0  0.00000000000E+00  0.00000000000E+00  0.45593999997E+02  0.45594000000E+02  0.51100000000E-03 0.  1.
         11   -1    0    0    0    0 -0.00000000000E+00 -0.00000000000E+00 -0.45593999997E+02  0.45594000000E+02  0.51100000000E-03 0. -1.
         23    2    1    2    0    0 -0.66613381478E-15  0.71054273576E-14  0.00000000000E+00  0.91188000000E+02  0.91188000000E+02 0.  0.
    9900012    2    3    3    0    0 -0.50945092971E+00  0.36433665453E+02  0.53015392228E+01  0.54367111408E+02  0.40000062077E+02 0.  0.
         12    1    3    3    0    0  0.50945092971E+00 -0.36433665453E+02 -0.53015392228E+01  0.36820888592E+02  0.00000000000E+00 0. -1.
         11    1    4    4    0    0 -0.10169829482E+02 -0.69473361758E+00 -0.50851432658E+01  0.11391521795E+02  0.51100000000E-03 0. -1.
        -11    1    4    4    0    0  0.13319989268E+02  0.21396752181E+02  0.90069803389E+01  0.26765067029E+02  0.51100000000E-03 0.  1.
         12    1    4    4    0    0 -0.36596107149E+01  0.15731646890E+02  0.13797021497E+01  0.16210522585E+02  0.00000000000E+00 0. -1.
</event>
<event>
 8    1  0.2482403E-006  0.9118800E+02  0.7816164E-02  0.1184000E+00
        -11   -1    0    0    0    0  0.00000000000E+00  0.00000000000E+00  0.45593999997E+02  0.45594000000E+02  0.51100000000E-03 0. -1.
         11   -1    0    0    0    0 -0.00000000000E+00 -0.00000000000E+00 -0.45593999997E+02  0.45594000000E+02  0.51100000000E-03 0.  1.
         23    2    1    2    0    0  0.88817841970E-15  0.17763568394E-14  0.00000000000E+00  0.91188000000E+02  0.91188000000E+02 0.  0.
    9900012    2    3    3    0    0  0.46099855862E+01  0.11628680635E+02 -0.34630713427E+02  0.54367292608E+02  0.40000475156E+02 0.  0.
         12    1    3    3    0    0 -0.46099855862E+01 -0.11628680635E+02  0.34630713427E+02  0.36820707392E+02  0.00000000000E+00 0. -1.
         11    1    4    4    0    0 -0.64309101141E+00 -0.12138908731E+02 -0.14493211732E+01  0.12242026113E+02  0.51100000000E-03 0. -1.
        -11    1    4    4    0    0 -0.22516017932E+01  0.99864152529E+01 -0.12233241702E+02  0.15951501592E+02  0.51100000000E-03 0.  1.
         12    1    4    4    0    0  0.75046783907E+01  0.13781174113E+02 -0.20948150551E+02  0.26173764903E+02  0.00000000000E+00 0. -1.
</event>
<event>
 8    1  0.2482403E-006  0.9118800E+02  0.7816164E-02  0.1184000E+00
        -11   -1    0    0    0    0  0.00000000000E+00  0.00000000000E+00  0.45593999997E+02  0.45594000000E+02  0.51100000000E-03 0.  1.
         11   -1    0    0    0    0 -0.00000000000E+00 -0.00000000000E+00 -0.45593999997E+02  0.45594000000E+02  0.51100000000E-03 0. -1.
         23    2    1    2    0    0  0.00000000000E+00  0.22204460493E-15 -0.35527136788E-14  0.91188000000E+02  0.91188000000E+02 0.  0.
    9900012    2    3    3    0    0 -0.29161050659E+02 -0.18589373718E+01 -0.22404420940E+02  0.54367073867E+02  0.39999976494E+02 0.  0.
        -12    1    3    3    0    0  0.29161050659E+02  0.18589373718E+01  0.22404420940E+02  0.36820926133E+02  0.00000000000E+00 0.  1.
         11    1    4    4    0    0 -0.15459999577E+02  0.69118654981E+01  0.18072162283E+01  0.17030898460E+02  0.51100000000E-03 0. -1.
        -11    1    4    4    0    0  0.40632275328E+01 -0.86268896338E+01 -0.37704950424E+01  0.10254251599E+02  0.51100000000E-03 0.  1.
        -12    1    4    4    0    0 -0.17764278614E+02 -0.14391323615E+00 -0.20441142126E+02  0.27081923807E+02  0.00000000000E+00 0.  1.
</event>
<event>
 8    1  0.2482403E-006  0.9118800E+02  0.7816164E-02  0.1184000E+00
        -11   -1    0    0    0    0  0.00000000000E+00  0.00000000000E+00  0.45593999997E+02  0.45594000000E+02  0.51100000000E-03 0.  1.
         11   -1    0    0    0    0 -0.00000000000E+00 -0.00000000000E+00 -0.45593999997E+02  0.45594000000E+02  0.51100000000E-03 0. -1.
         23    2    1    2    0    0  0.35527136788E-14 -0.26645352591E-14  0.35527136788E-14  0.91188000000E+02  0.91188000000E+02 0.  0.
    9900012    2    3    3    0    0  0.20373058446E+02 -0.53638741572E+01  0.30198451990E+02  0.54367093452E+02  0.40000021143E+02 0.  0.
         12    1    3    3    0    0 -0.20373058446E+02  0.53638741572E+01 -0.30198451990E+02  0.36820906548E+02  0.00000000000E+00 0. -1.
         11    1    4    4    0    0  0.66098222226E+01  0.40391084793E+01  0.17070526532E+01  0.79320978400E+01  0.51100000000E-03 0. -1.
        -11    1    4    4    0    0  0.13167724462E+02  0.95920438454E+01  0.19504028626E+02  0.25412662307E+02  0.51100000000E-03 0.  1.
         12    1    4    4    0    0  0.59551176089E+00 -0.18995026482E+02  0.89873707109E+01  0.21022333305E+02  0.00000000000E+00 0. -1.
</event>
<event>
 8    1  0.2482403E-006  0.9118800E+02  0.7816164E-02  0.1184000E+00
        -11   -1    0    0    0    0  0.00000000000E+00  0.00000000000E+00  0.45593999997E+02  0.45594000000E+02  0.51100000000E-03 0.  1.
         11   -1    0    0    0    0 -0.00000000000E+00 -0.00000000000E+00 -0.45593999997E+02  0.45594000000E+02  0.51100000000E-03 0. -1.
         23    2    1    2    0    0  0.00000000000E+00 -0.88817841970E-15  0.00000000000E+00  0.91188000000E+02  0.91188000000E+02 0.  0.
    9900012    2    3    3    0    0 -0.15065938735E+02 -0.45578883736E+01  0.33286970889E+02  0.54367091709E+02  0.40000017169E+02 0.  0.
         12    1    3    3    0    0  0.15065938735E+02  0.45578883736E+01 -0.33286970889E+02  0.36820908291E+02  0.00000000000E+00 0. -1.
         11    1    4    4    0    0 -0.20949473948E+02  0.48843052662E+01  0.73193041424E+01  0.22722436270E+02  0.51100000000E-03 0. -1.
        -11    1    4    4    0    0  0.31519063339E+00  0.25940828738E+01  0.12398813672E+02  0.12671195359E+02  0.51100000000E-03 0.  1.
         12    1    4    4    0    0  0.55683445798E+01 -0.12036276514E+02  0.13568853075E+02  0.18973460081E+02  0.00000000000E+00 0. -1.
</event>
<event>
 8    1  0.2482403E-006  0.9118800E+02  0.7816164E-02  0.1184000E+00
        -11   -1    0    0    0    0  0.00000000000E+00  0.00000000000E+00  0.45593999997E+02  0.45594000000E+02  0.51100000000E-03 0. -1.
         11   -1    0    0    0    0 -0.00000000000E+00 -0.00000000000E+00 -0.45593999997E+02  0.45594000000E+02  0.51100000000E-03 0.  1.
         23    2    1    2    0    0  0.00000000000E+00  0.22204460493E-14  0.00000000000E+00  0.91188000000E+02  0.91188000000E+02 0.  0.
    9900012    2    3    3    0    0 -0.35591637852E+02  0.14950160838E+01  0.93156071538E+01  0.54367078030E+02  0.39999985984E+02 0.  0.
        -12    1    3    3    0    0  0.35591637852E+02 -0.14950160838E+01 -0.93156071538E+01  0.36820921970E+02  0.00000000000E+00 0.  1.
         11    1    4    4    0    0 -0.90303347305E+01 -0.42903932068E+01  0.11625675822E+02  0.15333321812E+02  0.51100000000E-03 0. -1.
        -11    1    4    4    0    0 -0.42190396387E+01 -0.74403032736E+01  0.74039377385E+01  0.11312678842E+02  0.51100000000E-03 0.  1.
        -12    1    4    4    0    0 -0.22342263483E+02  0.13225712564E+02 -0.97140064072E+01  0.27721077376E+02  0.00000000000E+00 0.  1.
</event>
<event>
 8    1  0.2482403E-006  0.9118800E+02  0.7816164E-02  0.1184000E+00
        -11   -1    0    0    0    0  0.00000000000E+00  0.00000000000E+00  0.45593999997E+02  0.45594000000E+02  0.51100000000E-03 0.  1.
         11   -1    0    0    0    0 -0.00000000000E+00 -0.00000000000E+00 -0.45593999997E+02  0.45594000000E+02  0.51100000000E-03 0. -1.
         23    2    1    2    0    0  0.00000000000E+00  0.00000000000E+00 -0.17763568394E-14  0.91188000000E+02  0.91188000000E+02 0.  0.
    9900012    2    3    3    0    0 -0.20751263049E+02 -0.30067297550E+02  0.45959015725E+01  0.54367087310E+02  0.40000007141E+02 0.  0.
        -12    1    3    3    0    0  0.20751263049E+02  0.30067297550E+02 -0.45959015725E+01  0.36820912690E+02  0.00000000000E+00 0.  1.
         11    1    4    4    0    0 -0.11063317726E+02 -0.16142535852E+02  0.15299530779E+02  0.24840573769E+02  0.51100000000E-03 0. -1.
        -11    1    4    4    0    0  0.13948412217E+01 -0.15842843239E+02 -0.38786971357E+01  0.16370264374E+02  0.51100000000E-03 0.  1.
        -12    1    4    4    0    0 -0.11082786545E+02  0.19180815416E+01 -0.68249320705E+01  0.13156249168E+02  0.00000000000E+00 0.  1.
</event>
<event>
 8    1  0.2482403E-006  0.9118800E+02  0.7816164E-02  0.1184000E+00
        -11   -1    0    0    0    0  0.00000000000E+00  0.00000000000E+00  0.45593999997E+02  0.45594000000E+02  0.51100000000E-03 0.  1.
         11   -1    0    0    0    0 -0.00000000000E+00 -0.00000000000E+00 -0.45593999997E+02  0.45594000000E+02  0.51100000000E-03 0. -1.
         23    2    1    2    0    0  0.00000000000E+00  0.00000000000E+00 -0.35527136788E-14  0.91188000000E+02  0.91188000000E+02 0.  0.
    9900012    2    3    3    0    0  0.17506918770E+02  0.20597094114E+02 -0.25000963652E+02  0.54367072876E+02  0.39999974235E+02 0.  0.
        -12    1    3    3    0    0 -0.17506918770E+02 -0.20597094114E+02  0.25000963652E+02  0.36820927124E+02  0.00000000000E+00 0.  1.
         11    1    4    4    0    0  0.19951435225E+02  0.15102351167E+02 -0.24027513238E+02  0.34690952292E+02  0.51100000000E-03 0. -1.
        -11    1    4    4    0    0  0.67335345417E+01  0.57137195877E+01 -0.44130307031E+01  0.98722803444E+01  0.51100000000E-03 0.  1.
        -12    1    4    4    0    0 -0.91780509966E+01 -0.21897664055E+00  0.34395802891E+01  0.98038402390E+01  0.00000000000E+00 0.  1.
</event>
<event>
 8    1  0.2482403E-006  0.9118800E+02  0.7816164E-02  0.1184000E+00
        -11   -1    0    0    0    0  0.00000000000E+00  0.00000000000E+00  0.45593999997E+02  0.45594000000E+02  0.51100000000E-03 0. -1.
         11   -1    0    0    0    0 -0.00000000000E+00 -0.00000000000E+00 -0.45593999997E+02  0.45594000000E+02  0.51100000000E-03 0.  1.
         23    2    1    2    0    0  0.17763568394E-14  0.44408920985E-15  0.00000000000E+00  0.91188000000E+02  0.91188000000E+02 0.  0.
    9900012    2    3    3    0    0  0.12060016902E+02 -0.27964874419E+01 -0.34677304314E+02  0.54367084963E+02  0.40000001789E+02 0.  0.
         12    1    3    3    0    0 -0.12060016902E+02  0.27964874419E+01  0.34677304314E+02  0.36820915037E+02  0.00000000000E+00 0. -1.
         11    1    4    4    0    0  0.16131214281E+02  0.23129271277E+01 -0.32523709575E+02  0.36377979477E+02  0.51100000000E-03 0.  1.
        -11    1    4    4    0    0 -0.73666965052E+01  0.35768342636E+00 -0.68487306845E+01  0.10064853058E+02  0.51100000000E-03 0. -1.
         12    1    4    4    0    0  0.32954991258E+01 -0.54670979959E+01  0.46951359452E+01  0.79242524271E+01  0.00000000000E+00 0. -1.
</event>
<event>
 8    1  0.2482403E-006  0.9118800E+02  0.7816164E-02  0.1184000E+00
        -11   -1    0    0    0    0  0.00000000000E+00  0.00000000000E+00  0.45593999997E+02  0.45594000000E+02  0.51100000000E-03 0.  1.
         11   -1    0    0    0    0 -0.00000000000E+00 -0.00000000000E+00 -0.45593999997E+02  0.45594000000E+02  0.51100000000E-03 0. -1.
         23    2    1    2    0    0  0.00000000000E+00 -0.88817841970E-15 -0.13322676296E-14  0.91188000000E+02  0.91188000000E+02 0.  0.
    9900012    2    3    3    0    0 -0.36453139605E+02 -0.37166105115E+01  0.36244248675E+01  0.54367067959E+02  0.39999963027E+02 0.  0.
         12    1    3    3    0    0  0.36453139605E+02  0.37166105115E+01 -0.36244248675E+01  0.36820932041E+02  0.00000000000E+00 0. -1.
         11    1    4    4    0    0 -0.27872441338E+02 -0.12014260805E+02  0.56569826412E+01  0.30874210948E+02  0.51100000000E-03 0. -1.
        -11    1    4    4    0    0  0.32899194611E+01 -0.36010821168E+01  0.32658449911E+01  0.58700175672E+01  0.51100000000E-03 0.  1.
        -12    1    4    4    0    0 -0.11870617728E+02  0.11898732410E+02 -0.52984027648E+01  0.17622839444E+02  0.00000000000E+00 0.  1.
</event>
<event>
 8    1  0.2482403E-006  0.9118800E+02  0.7816164E-02  0.1184000E+00
        -11   -1    0    0    0    0  0.00000000000E+00  0.00000000000E+00  0.45593999997E+02  0.45594000000E+02  0.51100000000E-03 0. -1.
         11   -1    0    0    0    0 -0.00000000000E+00 -0.00000000000E+00 -0.45593999997E+02  0.45594000000E+02  0.51100000000E-03 0.  1.
         23    2    1    2    0    0 -0.19984014443E-14  0.71054273576E-14  0.35527136788E-14  0.91188000000E+02  0.91188000000E+02 0.  0.
    9900012    2    3    3    0    0 -0.15905915640E+01  0.27028811787E+02  0.24953793386E+02  0.54367103047E+02  0.40000043015E+02 0.  0.
        -12    1    3    3    0    0  0.15905915640E+01 -0.27028811787E+02 -0.24953793386E+02  0.36820896953E+02  0.00000000000E+00 0.  1.
         11    1    4    4    0    0  0.43125786822E-01  0.10926028063E+02  0.13625548557E+02  0.17465266181E+02  0.51100000000E-03 0. -1.
        -11    1    4    4    0    0  0.10866165315E+02  0.48786634414E+01  0.15542448703E+02  0.19581690876E+02  0.51100000000E-03 0.  1.
        -12    1    4    4    0    0 -0.12499882666E+02  0.11224120282E+02 -0.42142038742E+01  0.17320145989E+02  0.00000000000E+00 0.  1.
</event>
<event>
 8    1  0.2482403E-006  0.9118800E+02  0.7816164E-02  0.1184000E+00
        -11   -1    0    0    0    0  0.00000000000E+00  0.00000000000E+00  0.45593999997E+02  0.45594000000E+02  0.51100000000E-03 0. -1.
         11   -1    0    0    0    0 -0.00000000000E+00 -0.00000000000E+00 -0.45593999997E+02  0.45594000000E+02  0.51100000000E-03 0.  1.
         23    2    1    2    0    0  0.71054273576E-14  0.00000000000E+00  0.17763568394E-14  0.91188000000E+02  0.91188000000E+02 0.  0.
    9900012    2    3    3    0    0  0.32487770402E+02  0.82071252854E+01  0.15263245203E+02  0.54367098527E+02  0.40000032712E+02 0.  0.
        -12    1    3    3    0    0 -0.32487770402E+02 -0.82071252854E+01 -0.15263245203E+02  0.36820901473E+02  0.00000000000E+00 0.  1.
         11    1    4    4    0    0 -0.43136068774E+01  0.91585325470E+01  0.19698138834E+01  0.10313393704E+02  0.51100000000E-03 0. -1.
        -11    1    4    4    0    0  0.17626618030E+01 -0.39467779013E+01  0.71493809093E+01  0.83545005883E+01  0.51100000000E-03 0.  1.
         12    1    4    4    0    0  0.35038715476E+02  0.29953706397E+01  0.61440504106E+01  0.35699204234E+02  0.00000000000E+00 0. -1.
</event>
<event>
 8    1  0.2482403E-006  0.9118800E+02  0.7816164E-02  0.1184000E+00
        -11   -1    0    0    0    0  0.00000000000E+00  0.00000000000E+00  0.45593999997E+02  0.45594000000E+02  0.51100000000E-03 0. -1.
         11   -1    0    0    0    0 -0.00000000000E+00 -0.00000000000E+00 -0.45593999997E+02  0.45594000000E+02  0.51100000000E-03 0.  1.
         23    2    1    2    0    0  0.00000000000E+00  0.35527136788E-14  0.17763568394E-14  0.91188000000E+02  0.91188000000E+02 0.  0.
    9900012    2    3    3    0    0 -0.32363202200E+02 -0.17021864756E+02 -0.43196391834E+01  0.54367081773E+02  0.39999994518E+02 0.  0.
        -12    1    3    3    0    0  0.32363202200E+02  0.17021864756E+02  0.43196391834E+01  0.36820918227E+02  0.00000000000E+00 0.  1.
         11    1    4    4    0    0 -0.11615536792E+02  0.31629173811E+01 -0.15441895666E+02  0.19580012343E+02  0.51100000000E-03 0.  1.
        -11    1    4    4    0    0 -0.23289879125E+02 -0.16847349353E+02  0.10115966341E+02  0.30472683261E+02  0.51100000000E-03 0. -1.
        -12    1    4    4    0    0  0.25422137165E+01 -0.33374327845E+01  0.10062901415E+01  0.43143861696E+01  0.00000000000E+00 0.  1.
</event>
<event>
 8    1  0.2482403E-006  0.9118800E+02  0.7816164E-02  0.1184000E+00
        -11   -1    0    0    0    0  0.00000000000E+00  0.00000000000E+00  0.45593999997E+02  0.45594000000E+02  0.51100000000E-03 0.  1.
         11   -1    0    0    0    0 -0.00000000000E+00 -0.00000000000E+00 -0.45593999997E+02  0.45594000000E+02  0.51100000000E-03 0. -1.
         23    2    1    2    0    0  0.00000000000E+00  0.00000000000E+00 -0.71054273576E-14  0.91188000000E+02  0.91188000000E+02 0.  0.
    9900012    2    3    3    0    0  0.78932428561E+01 -0.22416841431E+02 -0.28124045177E+02  0.54367082308E+02  0.39999995738E+02 0.  0.
        -12    1    3    3    0    0 -0.78932428561E+01  0.22416841431E+02  0.28124045177E+02  0.36820917692E+02  0.00000000000E+00 0.  1.
         11    1    4    4    0    0 -0.49625689550E+00  0.77988902458E+01 -0.79468130433E+01  0.11145438429E+02  0.51100000000E-03 0. -1.
        -11    1    4    4    0    0 -0.42637562282E+01 -0.23383583136E-01 -0.64311021926E+01  0.77161674190E+01  0.51100000000E-03 0.  1.
         12    1    4    4    0    0  0.12653255980E+02 -0.30192348094E+02 -0.13746129941E+02  0.35505476460E+02  0.00000000000E+00 0. -1.
</event>
<event>
 8    1  0.2482403E-006  0.9118800E+02  0.7816164E-02  0.1184000E+00
        -11   -1    0    0    0    0  0.00000000000E+00  0.00000000000E+00  0.45593999997E+02  0.45594000000E+02  0.51100000000E-03 0.  1.
         11   -1    0    0    0    0 -0.00000000000E+00 -0.00000000000E+00 -0.45593999997E+02  0.45594000000E+02  0.51100000000E-03 0. -1.
         23    2    1    2    0    0  0.88817841970E-15  0.17763568394E-14  0.00000000000E+00  0.91188000000E+02  0.91188000000E+02 0.  0.
    9900012    2    3    3    0    0 -0.73385203234E+01 -0.14927763185E+02  0.32849498714E+02  0.54367060849E+02  0.39999946817E+02 0.  0.
         12    1    3    3    0    0  0.73385203234E+01  0.14927763185E+02 -0.32849498714E+02  0.36820939151E+02  0.00000000000E+00 0. -1.
         11    1    4    4    0    0  0.69037707519E+01 -0.78863196954E+01  0.29897371301E+01  0.10899294349E+02  0.51100000000E-03 0. -1.
        -11    1    4    4    0    0 -0.11509976623E+02 -0.17349271846E+02  0.21388463704E+02  0.29848671249E+02  0.51100000000E-03 0.  1.
         12    1    4    4    0    0 -0.27323144525E+01  0.10307828356E+02  0.84712978796E+01  0.13619095251E+02  0.00000000000E+00 0. -1.
</event>
<event>
 8    1  0.2482403E-006  0.9118800E+02  0.7816164E-02  0.1184000E+00
        -11   -1    0    0    0    0  0.00000000000E+00  0.00000000000E+00  0.45593999997E+02  0.45594000000E+02  0.51100000000E-03 0.  1.
         11   -1    0    0    0    0 -0.00000000000E+00 -0.00000000000E+00 -0.45593999997E+02  0.45594000000E+02  0.51100000000E-03 0. -1.
         23    2    1    2    0    0  0.00000000000E+00  0.00000000000E+00  0.00000000000E+00  0.91188000000E+02  0.91188000000E+02 0.  0.
    9900012    2    3    3    0    0  0.23940573679E+02 -0.26757364313E+02  0.81651604280E+01  0.54367116552E+02  0.40000073805E+02 0.  0.
         12    1    3    3    0    0 -0.23940573679E+02  0.26757364313E+02 -0.81651604280E+01  0.36820883448E+02  0.00000000000E+00 0. -1.
         11    1    4    4    0    0  0.11912395506E+02 -0.13838312613E+02  0.18558720440E+02  0.26035171735E+02  0.51100000000E-03 0.  1.
        -11    1    4    4    0    0  0.79172086746E+01  0.33052184700E+01  0.95189594890E-01  0.85799605856E+01  0.51100000000E-03 0. -1.
         12    1    4    4    0    0  0.41109694986E+01 -0.16224270170E+02 -0.10488749607E+02  0.19751984232E+02  0.00000000000E+00 0. -1.
</event>
<event>
 8    1  0.2482403E-006  0.9118800E+02  0.7816164E-02  0.1184000E+00
        -11   -1    0    0    0    0  0.00000000000E+00  0.00000000000E+00  0.45593999997E+02  0.45594000000E+02  0.51100000000E-03 0.  1.
         11   -1    0    0    0    0 -0.00000000000E+00 -0.00000000000E+00 -0.45593999997E+02  0.45594000000E+02  0.51100000000E-03 0. -1.
         23    2    1    2    0    0 -0.88817841970E-15  0.00000000000E+00  0.00000000000E+00  0.91188000000E+02  0.91188000000E+02 0.  0.
    9900012    2    3    3    0    0  0.68641773713E+01 -0.16255722684E+02  0.32317373801E+02  0.54367107828E+02  0.40000053915E+02 0.  0.
         12    1    3    3    0    0 -0.68641773713E+01  0.16255722684E+02 -0.32317373801E+02  0.36820892172E+02  0.00000000000E+00 0. -1.
         11    1    4    4    0    0  0.47637995942E+01  0.57558824550E+01  0.29648364335E+01  0.80382973787E+01  0.51100000000E-03 0. -1.
        -11    1    4    4    0    0 -0.10861337732E+02 -0.39979556752E+01  0.18003993425E+02  0.21403179353E+02  0.51100000000E-03 0.  1.
         12    1    4    4    0    0  0.12961715509E+02 -0.18013649463E+02  0.11348543943E+02  0.24925631096E+02  0.00000000000E+00 0. -1.
</event>
<event>
 8    1  0.2482403E-006  0.9118800E+02  0.7816164E-02  0.1184000E+00
        -11   -1    0    0    0    0  0.00000000000E+00  0.00000000000E+00  0.45593999997E+02  0.45594000000E+02  0.51100000000E-03 0.  1.
         11   -1    0    0    0    0 -0.00000000000E+00 -0.00000000000E+00 -0.45593999997E+02  0.45594000000E+02  0.51100000000E-03 0. -1.
         23    2    1    2    0    0  0.00000000000E+00  0.00000000000E+00  0.35527136788E-14  0.91188000000E+02  0.91188000000E+02 0.  0.
    9900012    2    3    3    0    0 -0.11214212710E+02  0.27506558072E+02  0.21758026719E+02  0.54367068040E+02  0.39999963210E+02 0.  0.
         12    1    3    3    0    0  0.11214212710E+02 -0.27506558072E+02 -0.21758026719E+02  0.36820931960E+02  0.00000000000E+00 0. -1.
         11    1    4    4    0    0  0.60850884343E+01  0.87852971737E+01 -0.83609696277E+01  0.13568918935E+02  0.51100000000E-03 0. -1.
        -11    1    4    4    0    0 -0.14954227025E+02  0.97194727814E+01  0.22885150621E+02  0.29014258154E+02  0.51100000000E-03 0.  1.
        -12    1    4    4    0    0 -0.23450741200E+01  0.90017881173E+01  0.72338457262E+01  0.11783890950E+02  0.00000000000E+00 0.  1.
</event>
<event>
 8    1  0.2482403E-006  0.9118800E+02  0.7816164E-02  0.1184000E+00
        -11   -1    0    0    0    0  0.00000000000E+00  0.00000000000E+00  0.45593999997E+02  0.45594000000E+02  0.51100000000E-03 0.  1.
         11   -1    0    0    0    0 -0.00000000000E+00 -0.00000000000E+00 -0.45593999997E+02  0.45594000000E+02  0.51100000000E-03 0. -1.
         23    2    1    2    0    0  0.22204460493E-15  0.35527136788E-14 -0.35527136788E-14  0.91188000000E+02  0.91188000000E+02 0.  0.
    9900012    2    3    3    0    0  0.12013373135E+01 -0.29161395436E+02  0.22448844703E+02  0.54367070848E+02  0.39999969612E+02 0.  0.
         12    1    3    3    0    0 -0.12013373135E+01  0.29161395436E+02 -0.22448844703E+02  0.36820929152E+02  0.00000000000E+00 0. -1.
         11    1    4    4    0    0 -0.18007393817E+00 -0.69266162562E+01  0.44781912630E+00  0.69434128219E+01  0.51100000000E-03 0. -1.
        -11    1    4    4    0    0  0.19593924128E+01 -0.26546360759E+02  0.17120600908E+01  0.26673575655E+02  0.51100000000E-03 0.  1.
         12    1    4    4    0    0 -0.57798116118E+00  0.43115815792E+01  0.20288965486E+02  0.20750082371E+02  0.00000000000E+00 0. -1.
</event>
<event>
 8    1  0.2482403E-006  0.9118800E+02  0.7816164E-02  0.1184000E+00
        -11   -1    0    0    0    0  0.00000000000E+00  0.00000000000E+00  0.45593999997E+02  0.45594000000E+02  0.51100000000E-03 0.  1.
         11   -1    0    0    0    0 -0.00000000000E+00 -0.00000000000E+00 -0.45593999997E+02  0.45594000000E+02  0.51100000000E-03 0. -1.
         23    2    1    2    0    0  0.00000000000E+00 -0.39968028887E-14  0.00000000000E+00  0.91188000000E+02  0.91188000000E+02 0.  0.
    9900012    2    3    3    0    0  0.35637657706E+02 -0.32272175211E+01 -0.86788437998E+01  0.54367083262E+02  0.39999997913E+02 0.  0.
         12    1    3    3    0    0 -0.35637657706E+02  0.32272175211E+01  0.86788437998E+01  0.36820916738E+02  0.00000000000E+00 0. -1.
         11    1    4    4    0    0  0.13994710923E+02 -0.31043393829E+01 -0.11265329930E+02  0.18231744719E+02  0.51100000000E-03 0. -1.
        -11    1    4    4    0    0  0.14377179971E+02  0.13872978569E+02  0.37308721585E+01  0.20324424853E+02  0.51100000000E-03 0.  1.
        -12    1    4    4    0    0  0.72657668127E+01 -0.13995856707E+02 -0.11443860287E+01  0.15810913690E+02  0.00000000000E+00 0.  1.
</event>
<event>
 8    1  0.2482403E-006  0.9118800E+02  0.7816164E-02  0.1184000E+00
        -11   -1    0    0    0    0  0.00000000000E+00  0.00000000000E+00  0.45593999997E+02  0.45594000000E+02  0.51100000000E-03 0.  1.
         11   -1    0    0    0    0 -0.00000000000E+00 -0.00000000000E+00 -0.45593999997E+02  0.45594000000E+02  0.51100000000E-03 0. -1.
         23    2    1    2    0    0 -0.35527136788E-14 -0.88817841970E-15  0.00000000000E+00  0.91188000000E+02  0.91188000000E+02 0.  0.
    9900012    2    3    3    0    0 -0.17683527909E+02 -0.76556510640E+01 -0.31376172321E+02  0.54367077388E+02  0.39999984521E+02 0.  0.
        -12    1    3    3    0    0  0.17683527909E+02  0.76556510640E+01  0.31376172321E+02  0.36820922612E+02  0.00000000000E+00 0.  1.
         11    1    4    4    0    0 -0.25457512283E+02 -0.16951630666E+02 -0.19828254838E+02  0.36449998684E+02  0.51100000000E-03 0. -1.
        -11    1    4    4    0    0  0.69397361742E+01  0.91079697952E+01 -0.12280776198E+02  0.16790846204E+02  0.51100000000E-03 0.  1.
         12    1    4    4    0    0  0.83424820033E+00  0.18800980644E+00  0.73285871541E+00  0.11262324999E+01  0.00000000000E+00 0. -1.
</event>
<event>
 8    1  0.2482403E-006  0.9118800E+02  0.7816164E-02  0.1184000E+00
        -11   -1    0    0    0    0  0.00000000000E+00  0.00000000000E+00  0.45593999997E+02  0.45594000000E+02  0.51100000000E-03 0. -1.
         11   -1    0    0    0    0 -0.00000000000E+00 -0.00000000000E+00 -0.45593999997E+02  0.45594000000E+02  0.51100000000E-03 0.  1.
         23    2    1    2    0    0  0.00000000000E+00  0.00000000000E+00  0.00000000000E+00  0.91188000000E+02  0.91188000000E+02 0.  0.
    9900012    2    3    3    0    0  0.35413301186E+02 -0.64821469386E+01  0.77239216273E+01  0.54367094320E+02  0.40000023121E+02 0.  0.
        -12    1    3    3    0    0 -0.35413301186E+02  0.64821469386E+01 -0.77239216273E+01  0.36820905680E+02  0.00000000000E+00 0.  1.
         11    1    4    4    0    0  0.11464044416E+02 -0.48995560824E+01 -0.22525152974E+01  0.12669009022E+02  0.51100000000E-03 0. -1.
        -11    1    4    4    0    0  0.23657074643E+02 -0.14027723240E+02  0.99548647504E+01  0.29249504824E+02  0.51100000000E-03 0.  1.
        -12    1    4    4    0    0  0.29218212630E+00  0.12445132384E+02  0.21572174247E-01  0.12448580474E+02  0.00000000000E+00 0.  1.
</event>
<event>
 8    1  0.2482403E-006  0.9118800E+02  0.7816164E-02  0.1184000E+00
        -11   -1    0    0    0    0  0.00000000000E+00  0.00000000000E+00  0.45593999997E+02  0.45594000000E+02  0.51100000000E-03 0.  1.
         11   -1    0    0    0    0 -0.00000000000E+00 -0.00000000000E+00 -0.45593999997E+02  0.45594000000E+02  0.51100000000E-03 0. -1.
         23    2    1    2    0    0 -0.88817841970E-15  0.71054273576E-14  0.35527136788E-14  0.91188000000E+02  0.91188000000E+02 0.  0.
    9900012    2    3    3    0    0  0.36197680635E+01  0.29538208250E+02  0.21683428973E+02  0.54367088014E+02  0.40000008746E+02 0.  0.
         12    1    3    3    0    0 -0.36197680635E+01 -0.29538208250E+02 -0.21683428973E+02  0.36820911986E+02  0.00000000000E+00 0. -1.
         11    1    4    4    0    0 -0.43493873507E+01  0.82110224726E+01  0.12803031377E+02  0.15819471327E+02  0.51100000000E-03 0. -1.
        -11    1    4    4    0    0 -0.19216065154E+01 -0.66426887730E+01  0.52020578703E+01  0.86532821566E+01  0.51100000000E-03 0.  1.
        -12    1    4    4    0    0  0.98907619296E+01  0.27969874550E+02  0.36783397258E+01  0.29894334531E+02  0.00000000000E+00 0.  1.
</event>
<event>
 8    1  0.2482403E-006  0.9118800E+02  0.7816164E-02  0.1184000E+00
        -11   -1    0    0    0    0  0.00000000000E+00  0.00000000000E+00  0.45593999997E+02  0.45594000000E+02  0.51100000000E-03 0.  1.
         11   -1    0    0    0    0 -0.00000000000E+00 -0.00000000000E+00 -0.45593999997E+02  0.45594000000E+02  0.51100000000E-03 0. -1.
         23    2    1    2    0    0  0.11102230246E-15  0.00000000000E+00  0.00000000000E+00  0.91188000000E+02  0.91188000000E+02 0.  0.
    9900012    2    3    3    0    0 -0.81596240257E+00  0.77736163582E+01 -0.35981760592E+02  0.54367054856E+02  0.39999933156E+02 0.  0.
        -12    1    3    3    0    0  0.81596240257E+00 -0.77736163582E+01  0.35981760592E+02  0.36820945144E+02  0.00000000000E+00 0.  1.
         11    1    4    4    0    0  0.10423080129E+02  0.10149201383E+02 -0.20526824516E+02  0.25159439840E+02  0.51100000000E-03 0. -1.
        -11    1    4    4    0    0  0.61014131072E+01  0.21886584391E+01 -0.19799052364E+01  0.67777203154E+01  0.51100000000E-03 0.  1.
         12    1    4    4    0    0 -0.17340455639E+02 -0.45642434637E+01 -0.13475030840E+02  0.22429894701E+02  0.00000000000E+00 0. -1.
</event>
<event>
 8    1  0.2482403E-006  0.9118800E+02  0.7816164E-02  0.1184000E+00
        -11   -1    0    0    0    0  0.00000000000E+00  0.00000000000E+00  0.45593999997E+02  0.45594000000E+02  0.51100000000E-03 0. -1.
         11   -1    0    0    0    0 -0.00000000000E+00 -0.00000000000E+00 -0.45593999997E+02  0.45594000000E+02  0.51100000000E-03 0.  1.
         23    2    1    2    0    0  0.35527136788E-14  0.00000000000E+00  0.00000000000E+00  0.91188000000E+02  0.91188000000E+02 0.  0.
    9900012    2    3    3    0    0  0.30177365209E+02 -0.12502572457E+02 -0.16993921071E+02  0.54367067878E+02  0.39999962841E+02 0.  0.
         12    1    3    3    0    0 -0.30177365209E+02  0.12502572457E+02  0.16993921071E+02  0.36820932122E+02  0.00000000000E+00 0. -1.
         11    1    4    4    0    0  0.16558956912E+02  0.42956882578E+01 -0.77712255619E+01  0.18789463500E+02  0.51100000000E-03 0. -1.
        -11    1    4    4    0    0  0.21635906935E+02 -0.10150964624E+02 -0.72815787369E+01  0.24983513381E+02  0.51100000000E-03 0.  1.
         12    1    4    4    0    0 -0.80174986379E+01 -0.66472960906E+01 -0.19411167719E+01  0.10594090997E+02  0.00000000000E+00 0. -1.
</event>
<event>
 8    1  0.2482403E-006  0.9118800E+02  0.7816164E-02  0.1184000E+00
        -11   -1    0    0    0    0  0.00000000000E+00  0.00000000000E+00  0.45593999997E+02  0.45594000000E+02  0.51100000000E-03 0. -1.
         11   -1    0    0    0    0 -0.00000000000E+00 -0.00000000000E+00 -0.45593999997E+02  0.45594000000E+02  0.51100000000E-03 0.  1.
         23    2    1    2    0    0  0.00000000000E+00  0.00000000000E+00  0.71054273576E-14  0.91188000000E+02  0.91188000000E+02 0.  0.
    9900012    2    3    3    0    0 -0.20094747160E+02 -0.10624494334E+02  0.28967235801E+02  0.54367088913E+02  0.40000010796E+02 0.  0.
        -12    1    3    3    0    0  0.20094747160E+02  0.10624494334E+02 -0.28967235801E+02  0.36820911087E+02  0.00000000000E+00 0.  1.
         11    1    4    4    0    0 -0.44150032044E+01  0.13297593309E+01  0.12180029972E+01  0.47690716849E+01  0.51100000000E-03 0. -1.
        -11    1    4    4    0    0 -0.10350696078E+02 -0.27936176540E+01 -0.73073446816E+01  0.12974532572E+02  0.51100000000E-03 0.  1.
        -12    1    4    4    0    0 -0.53290478775E+01 -0.91606360110E+01  0.35056577486E+02  0.36623484657E+02  0.00000000000E+00 0.  1.
</event>
<event>
 8    1  0.2482403E-006  0.9118800E+02  0.7816164E-02  0.1184000E+00
        -11   -1    0    0    0    0  0.00000000000E+00  0.00000000000E+00  0.45593999997E+02  0.45594000000E+02  0.51100000000E-03 0. -1.
         11   -1    0    0    0    0 -0.00000000000E+00 -0.00000000000E+00 -0.45593999997E+02  0.45594000000E+02  0.51100000000E-03 0.  1.
         23    2    1    2    0    0  0.00000000000E+00 -0.71054273576E-14  0.00000000000E+00  0.91188000000E+02  0.91188000000E+02 0.  0.
    9900012    2    3    3    0    0  0.82454257158E+01 -0.34569433242E+02  0.96304895093E+01  0.54367094415E+02  0.40000023339E+02 0.  0.
         12    1    3    3    0    0 -0.82454257158E+01  0.34569433242E+02 -0.96304895093E+01  0.36820905585E+02  0.00000000000E+00 0. -1.
         11    1    4    4    0    0  0.12318120117E+02 -0.13396282715E+02  0.11143794838E+01  0.18232891040E+02  0.51100000000E-03 0. -1.
        -11    1    4    4    0    0  0.57218623872E+00 -0.14520306581E+02 -0.88161083913E+01  0.16996778157E+02  0.51100000000E-03 0.  1.
         12    1    4    4    0    0 -0.46448806397E+01 -0.66528439454E+01  0.17332218417E+02  0.19137425218E+02  0.00000000000E+00 0. -1.
</event>
<event>
 8    1  0.2482403E-006  0.9118800E+02  0.7816164E-02  0.1184000E+00
        -11   -1    0    0    0    0  0.00000000000E+00  0.00000000000E+00  0.45593999997E+02  0.45594000000E+02  0.51100000000E-03 0. -1.
         11   -1    0    0    0    0 -0.00000000000E+00 -0.00000000000E+00 -0.45593999997E+02  0.45594000000E+02  0.51100000000E-03 0.  1.
         23    2    1    2    0    0 -0.17763568394E-14 -0.35527136788E-14  0.00000000000E+00  0.91188000000E+02  0.91188000000E+02 0.  0.
    9900012    2    3    3    0    0 -0.15054371476E+02 -0.31342604118E+02 -0.12115562479E+02  0.54367084916E+02  0.40000001682E+02 0.  0.
        -12    1    3    3    0    0  0.15054371476E+02  0.31342604118E+02  0.12115562479E+02  0.36820915084E+02  0.00000000000E+00 0.  1.
         11    1    4    4    0    0 -0.18091251373E+02 -0.16689382504E+02  0.33408832789E+01  0.24839290770E+02  0.51100000000E-03 0. -1.
        -11    1    4    4    0    0 -0.79932137101E+01 -0.67359464265E+01 -0.24725284472E+01  0.10741407583E+02  0.51100000000E-03 0.  1.
        -12    1    4    4    0    0  0.11030093607E+02 -0.79172751879E+01 -0.12983917311E+02  0.18786386563E+02  0.00000000000E+00 0.  1.
</event>
<event>
 8    1  0.2482403E-006  0.9118800E+02  0.7816164E-02  0.1184000E+00
        -11   -1    0    0    0    0  0.00000000000E+00  0.00000000000E+00  0.45593999997E+02  0.45594000000E+02  0.51100000000E-03 0. -1.
         11   -1    0    0    0    0 -0.00000000000E+00 -0.00000000000E+00 -0.45593999997E+02  0.45594000000E+02  0.51100000000E-03 0.  1.
         23    2    1    2    0    0  0.35527136788E-14  0.00000000000E+00  0.71054273576E-14  0.91188000000E+02  0.91188000000E+02 0.  0.
    9900012    2    3    3    0    0  0.26314212937E+02 -0.50985253405E+01  0.25245691194E+02  0.54367113441E+02  0.40000066711E+02 0.  0.
        -12    1    3    3    0    0 -0.26314212937E+02  0.50985253405E+01 -0.25245691194E+02  0.36820886559E+02  0.00000000000E+00 0.  1.
         11    1    4    4    0    0  0.21630100978E+01  0.43306045853E+01  0.16468766570E+02  0.17165460126E+02  0.51100000000E-03 0. -1.
        -11    1    4    4    0    0  0.30273219474E+01 -0.10908080152E+02 -0.45288415543E+01  0.12192673901E+02  0.51100000000E-03 0.  1.
        -12    1    4    4    0    0  0.21123880892E+02  0.14789502260E+01  0.13305766179E+02  0.25008979413E+02  0.00000000000E+00 0.  1.
</event>
<event>
 8    1  0.2482403E-006  0.9118800E+02  0.7816164E-02  0.1184000E+00
        -11   -1    0    0    0    0  0.00000000000E+00  0.00000000000E+00  0.45593999997E+02  0.45594000000E+02  0.51100000000E-03 0.  1.
         11   -1    0    0    0    0 -0.00000000000E+00 -0.00000000000E+00 -0.45593999997E+02  0.45594000000E+02  0.51100000000E-03 0. -1.
         23    2    1    2    0    0  0.35527136788E-14  0.00000000000E+00  0.00000000000E+00  0.91188000000E+02  0.91188000000E+02 0.  0.
    9900012    2    3    3    0    0  0.29435888459E+02  0.10976431310E+02  0.19204936266E+02  0.54367039248E+02  0.39999897575E+02 0.  0.
         12    1    3    3    0    0 -0.29435888459E+02 -0.10976431310E+02 -0.19204936266E+02  0.36820960752E+02  0.00000000000E+00 0. -1.
         11    1    4    4    0    0 -0.25109480725E+01  0.32377641288E+01 -0.52264703844E+01  0.66410819688E+01  0.51100000000E-03 0. -1.
        -11    1    4    4    0    0  0.26449745023E+02  0.92813403612E+00  0.57319401745E+01  0.27079615636E+02  0.51100000000E-03 0.  1.
         12    1    4    4    0    0  0.54970915087E+01  0.68105331446E+01  0.18699466476E+02  0.20646341643E+02  0.00000000000E+00 0. -1.
</event>
<event>
 8    1  0.2482403E-006  0.9118800E+02  0.7816164E-02  0.1184000E+00
        -11   -1    0    0    0    0  0.00000000000E+00  0.00000000000E+00  0.45593999997E+02  0.45594000000E+02  0.51100000000E-03 0. -1.
         11   -1    0    0    0    0 -0.00000000000E+00 -0.00000000000E+00 -0.45593999997E+02  0.45594000000E+02  0.51100000000E-03 0.  1.
         23    2    1    2    0    0 -0.17763568394E-14  0.17763568394E-14  0.00000000000E+00  0.91188000000E+02  0.91188000000E+02 0.  0.
    9900012    2    3    3    0    0 -0.77502619753E+01  0.12048225619E+02 -0.33919814424E+02  0.54367080514E+02  0.39999991648E+02 0.  0.
         12    1    3    3    0    0  0.77502619753E+01 -0.12048225619E+02  0.33919814424E+02  0.36820919486E+02  0.00000000000E+00 0. -1.
         11    1    4    4    0    0  0.10626635727E+02 -0.52516909205E+01 -0.51305931999E+01  0.12916215825E+02  0.51100000000E-03 0. -1.
        -11    1    4    4    0    0 -0.63641737277E+00  0.29739991889E+01 -0.13874086902E+02  0.14203520193E+02  0.51100000000E-03 0.  1.
        -12    1    4    4    0    0 -0.17740480329E+02  0.14325917350E+02 -0.14915134322E+02  0.27247344496E+02  0.00000000000E+00 0.  1.
</event>
<event>
 8    1  0.2482403E-006  0.9118800E+02  0.7816164E-02  0.1184000E+00
        -11   -1    0    0    0    0  0.00000000000E+00  0.00000000000E+00  0.45593999997E+02  0.45594000000E+02  0.51100000000E-03 0.  1.
         11   -1    0    0    0    0 -0.00000000000E+00 -0.00000000000E+00 -0.45593999997E+02  0.45594000000E+02  0.51100000000E-03 0. -1.
         23    2    1    2    0    0 -0.17763568394E-14  0.00000000000E+00 -0.35527136788E-14  0.91188000000E+02  0.91188000000E+02 0.  0.
    9900012    2    3    3    0    0  0.10727494621E+02  0.25256273381E+02  0.24552412473E+02  0.54367089579E+02  0.40000012314E+02 0.  0.
         12    1    3    3    0    0 -0.10727494621E+02 -0.25256273381E+02 -0.24552412473E+02  0.36820910421E+02  0.00000000000E+00 0. -1.
         11    1    4    4    0    0  0.20437914112E+02  0.29160376559E+01  0.34350037002E+01  0.20928708979E+02  0.51100000000E-03 0. -1.
        -11    1    4    4    0    0  0.12088430945E+01  0.17840574214E+01  0.23537145123E+00  0.21678474326E+01  0.51100000000E-03 0.  1.
         12    1    4    4    0    0 -0.10919262585E+02  0.20556178304E+02  0.20882037322E+02  0.31270533167E+02  0.00000000000E+00 0. -1.
</event>
<event>
 8    1  0.2482403E-006  0.9118800E+02  0.7816164E-02  0.1184000E+00
        -11   -1    0    0    0    0  0.00000000000E+00  0.00000000000E+00  0.45593999997E+02  0.45594000000E+02  0.51100000000E-03 0. -1.
         11   -1    0    0    0    0 -0.00000000000E+00 -0.00000000000E+00 -0.45593999997E+02  0.45594000000E+02  0.51100000000E-03 0.  1.
         23    2    1    2    0    0  0.00000000000E+00  0.00000000000E+00 -0.17763568394E-14  0.91188000000E+02  0.91188000000E+02 0.  0.
    9900012    2    3    3    0    0 -0.34729618806E+02 -0.90005071571E+01  0.82839672966E+01  0.54367086572E+02  0.40000005459E+02 0.  0.
         12    1    3    3    0    0  0.34729618806E+02  0.90005071571E+01 -0.82839672966E+01  0.36820913428E+02  0.00000000000E+00 0. -1.
         11    1    4    4    0    0  0.26515485212E+01  0.14186467490E+01 -0.27757126240E+01  0.40924135899E+01  0.51100000000E-03 0. -1.
        -11    1    4    4    0    0 -0.26240101213E+02 -0.16429484867E+02  0.18026888640E+02  0.35825125247E+02  0.51100000000E-03 0.  1.
        -12    1    4    4    0    0 -0.11141066114E+02  0.60103309604E+01 -0.69672087198E+01  0.14449547736E+02  0.00000000000E+00 0.  1.
</event>
<event>
 8    1  0.2482403E-006  0.9118800E+02  0.7816164E-02  0.1184000E+00
        -11   -1    0    0    0    0  0.00000000000E+00  0.00000000000E+00  0.45593999997E+02  0.45594000000E+02  0.51100000000E-03 0.  1.
         11   -1    0    0    0    0 -0.00000000000E+00 -0.00000000000E+00 -0.45593999997E+02  0.45594000000E+02  0.51100000000E-03 0. -1.
         23    2    1    2    0    0 -0.35527136788E-14 -0.35527136788E-14 -0.88817841970E-15  0.91188000000E+02  0.91188000000E+02 0.  0.
    9900012    2    3    3    0    0 -0.28370088297E+02 -0.22792747962E+02 -0.56043685765E+01  0.54367079089E+02  0.39999988398E+02 0.  0.
        -12    1    3    3    0    0  0.28370088297E+02  0.22792747962E+02  0.56043685765E+01  0.36820920911E+02  0.00000000000E+00 0.  1.
         11    1    4    4    0    0 -0.22493214674E+02 -0.64273600998E+01  0.13945476072E+01  0.23435025656E+02  0.51100000000E-03 0. -1.
        -11    1    4    4    0    0 -0.13655116392E+02 -0.15349655457E+02 -0.19073802703E+00  0.20545328121E+02  0.51100000000E-03 0.  1.
        -12    1    4    4    0    0  0.77782427688E+01 -0.10157324049E+01 -0.68081781567E+01  0.10386725312E+02  0.00000000000E+00 0.  1.
</event>
<event>
 8    1  0.2482403E-006  0.9118800E+02  0.7816164E-02  0.1184000E+00
        -11   -1    0    0    0    0  0.00000000000E+00  0.00000000000E+00  0.45593999997E+02  0.45594000000E+02  0.51100000000E-03 0. -1.
         11   -1    0    0    0    0 -0.00000000000E+00 -0.00000000000E+00 -0.45593999997E+02  0.45594000000E+02  0.51100000000E-03 0.  1.
         23    2    1    2    0    0  0.00000000000E+00  0.35527136788E-14 -0.88817841970E-15  0.91188000000E+02  0.91188000000E+02 0.  0.
    9900012    2    3    3    0    0 -0.31881750254E+02  0.16723763788E+02 -0.77231682227E+01  0.54367114597E+02  0.40000069347E+02 0.  0.
         12    1    3    3    0    0  0.31881750254E+02 -0.16723763788E+02  0.77231682227E+01  0.36820885403E+02  0.00000000000E+00 0. -1.
         11    1    4    4    0    0 -0.52100143455E+01 -0.39732779507E+01 -0.26422547715E+01  0.70648919095E+01  0.51100000000E-03 0. -1.
        -11    1    4    4    0    0 -0.28213584778E+02  0.34106912174E+01 -0.83963664776E+01  0.29633395872E+02  0.51100000000E-03 0.  1.
         12    1    4    4    0    0  0.15418488699E+01  0.17286350521E+02  0.33154530264E+01  0.17668826816E+02  0.00000000000E+00 0. -1.
</event>
<event>
 8    1  0.2482403E-006  0.9118800E+02  0.7816164E-02  0.1184000E+00
        -11   -1    0    0    0    0  0.00000000000E+00  0.00000000000E+00  0.45593999997E+02  0.45594000000E+02  0.51100000000E-03 0.  1.
         11   -1    0    0    0    0 -0.00000000000E+00 -0.00000000000E+00 -0.45593999997E+02  0.45594000000E+02  0.51100000000E-03 0. -1.
         23    2    1    2    0    0  0.00000000000E+00  0.00000000000E+00  0.00000000000E+00  0.91188000000E+02  0.91188000000E+02 0.  0.
    9900012    2    3    3    0    0  0.20535591947E+02  0.18458299344E+02 -0.24358823666E+02  0.54367195532E+02  0.40000253853E+02 0.  0.
        -12    1    3    3    0    0 -0.20535591947E+02 -0.18458299344E+02  0.24358823666E+02  0.36820804468E+02  0.00000000000E+00 0.  1.
         11    1    4    4    0    0  0.10685381440E+02  0.93043181968E+01 -0.10599474046E+02  0.17694534861E+02  0.51100000000E-03 0. -1.
        -11    1    4    4    0    0  0.19874855424E+01 -0.18081737470E+01  0.94515806313E+01  0.98260860861E+01  0.51100000000E-03 0.  1.
        -12    1    4    4    0    0  0.78627249646E+01  0.10962154894E+02 -0.23210930252E+02  0.26846574585E+02  0.00000000000E+00 0.  1.
</event>
<event>
 8    1  0.2482403E-006  0.9118800E+02  0.7816164E-02  0.1184000E+00
        -11   -1    0    0    0    0  0.00000000000E+00  0.00000000000E+00  0.45593999997E+02  0.45594000000E+02  0.51100000000E-03 0. -1.
         11   -1    0    0    0    0 -0.00000000000E+00 -0.00000000000E+00 -0.45593999997E+02  0.45594000000E+02  0.51100000000E-03 0.  1.
         23    2    1    2    0    0 -0.35527136788E-14  0.17763568394E-14  0.00000000000E+00  0.91188000000E+02  0.91188000000E+02 0.  0.
    9900012    2    3    3    0    0  0.15286002411E+02 -0.91793937361E+01 -0.32215765177E+02  0.54367100160E+02  0.40000036435E+02 0.  0.
         12    1    3    3    0    0 -0.15286002411E+02  0.91793937361E+01  0.32215765177E+02  0.36820899840E+02  0.00000000000E+00 0. -1.
         11    1    4    4    0    0 -0.49606690237E+01  0.62530047270E+01  0.42477351093E+01  0.90416568779E+01  0.51100000000E-03 0. -1.
        -11    1    4    4    0    0  0.15687438330E+02 -0.88566868552E+01 -0.30195278642E+02  0.35160936790E+02  0.51100000000E-03 0.  1.
         12    1    4    4    0    0  0.45592331050E+01 -0.65757116078E+01 -0.62682216440E+01  0.10164506492E+02  0.00000000000E+00 0. -1.
</event>
<event>
 8    1  0.2482403E-006  0.9118800E+02  0.7816164E-02  0.1184000E+00
        -11   -1    0    0    0    0  0.00000000000E+00  0.00000000000E+00  0.45593999997E+02  0.45594000000E+02  0.51100000000E-03 0.  1.
         11   -1    0    0    0    0 -0.00000000000E+00 -0.00000000000E+00 -0.45593999997E+02  0.45594000000E+02  0.51100000000E-03 0. -1.
         23    2    1    2    0    0  0.00000000000E+00  0.71054273576E-14  0.35527136788E-14  0.91188000000E+02  0.91188000000E+02 0.  0.
    9900012    2    3    3    0    0  0.93777810931E+01 -0.30511096755E+02 -0.18355084505E+02  0.54367096553E+02  0.40000028213E+02 0.  0.
        -12    1    3    3    0    0 -0.93777810931E+01  0.30511096755E+02  0.18355084505E+02  0.36820903447E+02  0.00000000000E+00 0.  1.
         11    1    4    4    0    0  0.12793276612E+02 -0.11304995200E+02  0.69544623695E+01  0.18434624761E+02  0.51100000000E-03 0. -1.
        -11    1    4    4    0    0 -0.80887605961E+01 -0.33257313104E+01 -0.10985744202E+02  0.14041905592E+02  0.51100000000E-03 0.  1.
        -12    1    4    4    0    0  0.46732650768E+01 -0.15880370245E+02 -0.14323802672E+02  0.21890566201E+02  0.00000000000E+00 0.  1.
</event>
<event>
 8    1  0.2482403E-006  0.9118800E+02  0.7816164E-02  0.1184000E+00
        -11   -1    0    0    0    0  0.00000000000E+00  0.00000000000E+00  0.45593999997E+02  0.45594000000E+02  0.51100000000E-03 0. -1.
         11   -1    0    0    0    0 -0.00000000000E+00 -0.00000000000E+00 -0.45593999997E+02  0.45594000000E+02  0.51100000000E-03 0.  1.
         23    2    1    2    0    0 -0.66613381478E-15  0.00000000000E+00 -0.35527136788E-14  0.91188000000E+02  0.91188000000E+02 0.  0.
    9900012    2    3    3    0    0 -0.17287539237E+01 -0.29514331555E+02  0.21947565601E+02  0.54367082126E+02  0.39999995322E+02 0.  0.
        -12    1    3    3    0    0  0.17287539237E+01  0.29514331555E+02 -0.21947565601E+02  0.36820917874E+02  0.00000000000E+00 0.  1.
         11    1    4    4    0    0 -0.14060114622E+01  0.14368916049E+01  0.18325009756E+02  0.18434953445E+02  0.51100000000E-03 0.  1.
        -11    1    4    4    0    0 -0.47902316300E+01 -0.26544348722E+02  0.81689913840E+01  0.28182994672E+02  0.51100000000E-03 0. -1.
        -12    1    4    4    0    0  0.44674891686E+01 -0.44068744375E+01 -0.45464355386E+01  0.77491340088E+01  0.00000000000E+00 0.  1.
</event>
<event>
 8    1  0.2482403E-006  0.9118800E+02  0.7816164E-02  0.1184000E+00
        -11   -1    0    0    0    0  0.00000000000E+00  0.00000000000E+00  0.45593999997E+02  0.45594000000E+02  0.51100000000E-03 0. -1.
         11   -1    0    0    0    0 -0.00000000000E+00 -0.00000000000E+00 -0.45593999997E+02  0.45594000000E+02  0.51100000000E-03 0.  1.
         23    2    1    2    0    0  0.35527136788E-14  0.00000000000E+00  0.00000000000E+00  0.91188000000E+02  0.91188000000E+02 0.  0.
    9900012    2    3    3    0    0 -0.28274437980E+02  0.38822993876E+01 -0.23265085307E+02  0.54367078149E+02  0.39999986257E+02 0.  0.
         12    1    3    3    0    0  0.28274437980E+02 -0.38822993876E+01  0.23265085307E+02  0.36820921851E+02  0.00000000000E+00 0. -1.
         11    1    4    4    0    0 -0.15277790811E+02  0.12316881361E+02 -0.50677905542E+01  0.20268176037E+02  0.51100000000E-03 0. -1.
        -11    1    4    4    0    0  0.55500218725E+01  0.30770880678E+01 -0.73914149877E+01  0.97418801853E+01  0.51100000000E-03 0.  1.
        -12    1    4    4    0    0 -0.18546669041E+02 -0.11511670041E+02 -0.10805879765E+02  0.24357021927E+02  0.00000000000E+00 0.  1.
</event>
<event>
 8    1  0.2482403E-006  0.9118800E+02  0.7816164E-02  0.1184000E+00
        -11   -1    0    0    0    0  0.00000000000E+00  0.00000000000E+00  0.45593999997E+02  0.45594000000E+02  0.51100000000E-03 0.  1.
         11   -1    0    0    0    0 -0.00000000000E+00 -0.00000000000E+00 -0.45593999997E+02  0.45594000000E+02  0.51100000000E-03 0. -1.
         23    2    1    2    0    0  0.00000000000E+00  0.00000000000E+00 -0.88817841970E-15  0.91188000000E+02  0.91188000000E+02 0.  0.
    9900012    2    3    3    0    0 -0.11133109950E+02 -0.34324163225E+02  0.73270363357E+01  0.54367085023E+02  0.40000001927E+02 0.  0.
         12    1    3    3    0    0  0.11133109950E+02  0.34324163225E+02 -0.73270363357E+01  0.36820914977E+02  0.00000000000E+00 0. -1.
         11    1    4    4    0    0  0.31256931647E+01 -0.16397577101E+02 -0.62615051120E+01  0.17828542820E+02  0.51100000000E-03 0. -1.
        -11    1    4    4    0    0  0.26029642312E+01 -0.97555636629E+01  0.14625951255E+02  0.17772588319E+02  0.51100000000E-03 0.  1.
        -12    1    4    4    0    0 -0.16861767346E+02 -0.81710224616E+01 -0.10374098077E+01  0.18765953884E+02  0.00000000000E+00 0.  1.
</event>
<event>
 8    1  0.2482403E-006  0.9118800E+02  0.7816164E-02  0.1184000E+00
        -11   -1    0    0    0    0  0.00000000000E+00  0.00000000000E+00  0.45593999997E+02  0.45594000000E+02  0.51100000000E-03 0. -1.
         11   -1    0    0    0    0 -0.00000000000E+00 -0.00000000000E+00 -0.45593999997E+02  0.45594000000E+02  0.51100000000E-03 0.  1.
         23    2    1    2    0    0 -0.35527136788E-14 -0.17763568394E-14  0.00000000000E+00  0.91188000000E+02  0.91188000000E+02 0.  0.
    9900012    2    3    3    0    0  0.30821852648E+02  0.13975098818E+02  0.14508233014E+02  0.54367098153E+02  0.40000031859E+02 0.  0.
        -12    1    3    3    0    0 -0.30821852648E+02 -0.13975098818E+02 -0.14508233014E+02  0.36820901847E+02  0.00000000000E+00 0.  1.
         11    1    4    4    0    0  0.97712648406E+01 -0.39165471916E+01  0.16250638228E+02  0.19362339775E+02  0.51100000000E-03 0. -1.
        -11    1    4    4    0    0 -0.29568105819E+01  0.85482891068E+01  0.98789187968E+00  0.90990057752E+01  0.51100000000E-03 0.  1.
         12    1    4    4    0    0  0.24007398390E+02  0.93433569032E+01 -0.27302970941E+01  0.25905752602E+02  0.00000000000E+00 0. -1.
</event>
<event>
 8    1  0.2482403E-006  0.9118800E+02  0.7816164E-02  0.1184000E+00
        -11   -1    0    0    0    0  0.00000000000E+00  0.00000000000E+00  0.45593999997E+02  0.45594000000E+02  0.51100000000E-03 0.  1.
         11   -1    0    0    0    0 -0.00000000000E+00 -0.00000000000E+00 -0.45593999997E+02  0.45594000000E+02  0.51100000000E-03 0. -1.
         23    2    1    2    0    0  0.71054273576E-14  0.00000000000E+00 -0.35527136788E-14  0.91188000000E+02  0.91188000000E+02 0.  0.
    9900012    2    3    3    0    0  0.35504662580E+02 -0.31241347331E+01 -0.92433076181E+01  0.54367081782E+02  0.39999994538E+02 0.  0.
         12    1    3    3    0    0 -0.35504662580E+02  0.31241347331E+01  0.92433076181E+01  0.36820918218E+02  0.00000000000E+00 0. -1.
         11    1    4    4    0    0  0.11297910296E+01 -0.21951607645E+01 -0.67654336312E+01  0.72018227576E+01  0.51100000000E-03 0. -1.
        -11    1    4    4    0    0  0.21121912964E+02 -0.15246325268E+02 -0.73299100859E+01  0.27061286436E+02  0.51100000000E-03 0.  1.
         12    1    4    4    0    0  0.13252958586E+02  0.14317351300E+02  0.48520360990E+01  0.20103972588E+02  0.00000000000E+00 0. -1.
</event>
<event>
 8    1  0.2482403E-006  0.9118800E+02  0.7816164E-02  0.1184000E+00
        -11   -1    0    0    0    0  0.00000000000E+00  0.00000000000E+00  0.45593999997E+02  0.45594000000E+02  0.51100000000E-03 0. -1.
         11   -1    0    0    0    0 -0.00000000000E+00 -0.00000000000E+00 -0.45593999997E+02  0.45594000000E+02  0.51100000000E-03 0.  1.
         23    2    1    2    0    0  0.00000000000E+00  0.00000000000E+00  0.00000000000E+00  0.91188000000E+02  0.91188000000E+02 0.  0.
    9900012    2    3    3    0    0  0.35500070704E+02 -0.53911884234E+01 -0.81522300483E+01  0.54367098499E+02  0.40000032648E+02 0.  0.
         12    1    3    3    0    0 -0.35500070704E+02  0.53911884234E+01  0.81522300483E+01  0.36820901501E+02  0.00000000000E+00 0. -1.
         11    1    4    4    0    0  0.51948423522E+01 -0.33036215025E+01 -0.16967879820E+02  0.18050186923E+02  0.51100000000E-03 0. -1.
        -11    1    4    4    0    0  0.18923261737E+02  0.68212340842E+01  0.16457101545E+01  0.20182354455E+02  0.51100000000E-03 0.  1.
         12    1    4    4    0    0  0.11381966615E+02 -0.89088010051E+01  0.71699396173E+01  0.16134557121E+02  0.00000000000E+00 0. -1.
</event>
<event>
 8    1  0.2482403E-006  0.9118800E+02  0.7816164E-02  0.1184000E+00
        -11   -1    0    0    0    0  0.00000000000E+00  0.00000000000E+00  0.45593999997E+02  0.45594000000E+02  0.51100000000E-03 0. -1.
         11   -1    0    0    0    0 -0.00000000000E+00 -0.00000000000E+00 -0.45593999997E+02  0.45594000000E+02  0.51100000000E-03 0.  1.
         23    2    1    2    0    0  0.35527136788E-14  0.00000000000E+00  0.00000000000E+00  0.91188000000E+02  0.91188000000E+02 0.  0.
    9900012    2    3    3    0    0 -0.27918005806E+02 -0.84391346700E+01 -0.22475451165E+02  0.54367082749E+02  0.39999996742E+02 0.  0.
         12    1    3    3    0    0  0.27918005806E+02  0.84391346700E+01  0.22475451165E+02  0.36820917251E+02  0.00000000000E+00 0. -1.
         11    1    4    4    0    0  0.57666430203E+01  0.20634528337E+01 -0.41708262576E+01  0.74099798416E+01  0.51100000000E-03 0. -1.
        -11    1    4    4    0    0 -0.91409298750E+01  0.74201100236E+01 -0.10012091508E+02  0.15454986521E+02  0.51100000000E-03 0.  1.
        -12    1    4    4    0    0 -0.24543718951E+02 -0.17922697527E+02 -0.82925333997E+01  0.31502116386E+02  0.00000000000E+00 0.  1.
</event>
<event>
 8    1  0.2482403E-006  0.9118800E+02  0.7816164E-02  0.1184000E+00
        -11   -1    0    0    0    0  0.00000000000E+00  0.00000000000E+00  0.45593999997E+02  0.45594000000E+02  0.51100000000E-03 0.  1.
         11   -1    0    0    0    0 -0.00000000000E+00 -0.00000000000E+00 -0.45593999997E+02  0.45594000000E+02  0.51100000000E-03 0. -1.
         23    2    1    2    0    0  0.00000000000E+00  0.00000000000E+00 -0.88817841970E-15  0.91188000000E+02  0.91188000000E+02 0.  0.
    9900012    2    3    3    0    0  0.16351005074E+02 -0.32277741099E+02 -0.68243009129E+01  0.54367095335E+02  0.40000025436E+02 0.  0.
        -12    1    3    3    0    0 -0.16351005074E+02  0.32277741099E+02  0.68243009129E+01  0.36820904665E+02  0.00000000000E+00 0.  1.
         11    1    4    4    0    0 -0.47977690970E+01 -0.10220274026E+02 -0.13078142355E+01  0.11365868546E+02  0.51100000000E-03 0.  1.
        -11    1    4    4    0    0  0.44468149896E+01 -0.35424066060E+01 -0.15217948659E+02  0.16245269150E+02  0.51100000000E-03 0. -1.
         12    1    4    4    0    0  0.16701959181E+02 -0.18515060467E+02  0.97014619818E+01  0.26755957639E+02  0.00000000000E+00 0. -1.
</event>
<event>
 8    1  0.2482403E-006  0.9118800E+02  0.7816164E-02  0.1184000E+00
        -11   -1    0    0    0    0  0.00000000000E+00  0.00000000000E+00  0.45593999997E+02  0.45594000000E+02  0.51100000000E-03 0.  1.
         11   -1    0    0    0    0 -0.00000000000E+00 -0.00000000000E+00 -0.45593999997E+02  0.45594000000E+02  0.51100000000E-03 0. -1.
         23    2    1    2    0    0  0.00000000000E+00 -0.13322676296E-14 -0.22204460493E-15  0.91188000000E+02  0.91188000000E+02 0.  0.
    9900012    2    3    3    0    0  0.36715384313E+02 -0.21989031033E+01  0.17102071952E+01  0.54367089789E+02  0.40000012792E+02 0.  0.
         12    1    3    3    0    0 -0.36715384313E+02  0.21989031033E+01 -0.17102071952E+01  0.36820910211E+02  0.00000000000E+00 0. -1.
         11    1    4    4    0    0 -0.10776708877E+01 -0.58880232613E+01 -0.82956149400E+01  0.10229732155E+02  0.51100000000E-03 0. -1.
        -11    1    4    4    0    0  0.25566357357E+02 -0.68060726103E+01  0.32147859702E+01  0.26651380864E+02  0.51100000000E-03 0.  1.
        -12    1    4    4    0    0  0.12226697844E+02  0.10495192768E+02  0.67910361650E+01  0.17485976770E+02  0.00000000000E+00 0.  1.
</event>
<event>
 8    1  0.2482403E-006  0.9118800E+02  0.7816164E-02  0.1184000E+00
        -11   -1    0    0    0    0  0.00000000000E+00  0.00000000000E+00  0.45593999997E+02  0.45594000000E+02  0.51100000000E-03 0. -1.
         11   -1    0    0    0    0 -0.00000000000E+00 -0.00000000000E+00 -0.45593999997E+02  0.45594000000E+02  0.51100000000E-03 0.  1.
         23    2    1    2    0    0  0.00000000000E+00  0.17763568394E-14  0.00000000000E+00  0.91188000000E+02  0.91188000000E+02 0.  0.
    9900012    2    3    3    0    0 -0.32976829537E+02  0.85486053258E+01 -0.13972466869E+02  0.54367085159E+02  0.40000002237E+02 0.  0.
         12    1    3    3    0    0  0.32976829537E+02 -0.85486053258E+01  0.13972466869E+02  0.36820914841E+02  0.00000000000E+00 0. -1.
         11    1    4    4    0    0 -0.19864389742E+02  0.11926079946E+02 -0.21002568811E+02  0.31271924463E+02  0.51100000000E-03 0. -1.
        -11    1    4    4    0    0 -0.50890193267E+01 -0.13348654267E+01 -0.57967779797E+01  0.78283215712E+01  0.51100000000E-03 0.  1.
         12    1    4    4    0    0 -0.80234204684E+01 -0.20426091938E+01  0.12826879922E+02  0.15266839125E+02  0.00000000000E+00 0. -1.
</event>
<event>
 8    1  0.2482403E-006  0.9118800E+02  0.7816164E-02  0.1184000E+00
        -11   -1    0    0    0    0  0.00000000000E+00  0.00000000000E+00  0.45593999997E+02  0.45594000000E+02  0.51100000000E-03 0.  1.
         11   -1    0    0    0    0 -0.00000000000E+00 -0.00000000000E+00 -0.45593999997E+02  0.45594000000E+02  0.51100000000E-03 0. -1.
         23    2    1    2    0    0  0.00000000000E+00 -0.17763568394E-14  0.00000000000E+00  0.91188000000E+02  0.91188000000E+02 0.  0.
    9900012    2    3    3    0    0  0.14995282673E+02 -0.99505230889E+01  0.32123340821E+02  0.54367076088E+02  0.39999981559E+02 0.  0.
         12    1    3    3    0    0 -0.14995282673E+02  0.99505230889E+01 -0.32123340821E+02  0.36820923912E+02  0.00000000000E+00 0. -1.
         11    1    4    4    0    0 -0.50713629620E+01  0.98015485420E+01  0.18529992274E+02  0.21567329228E+02  0.51100000000E-03 0. -1.
        -11    1    4    4    0    0  0.72128671112E+01 -0.56196749062E+01  0.96491411416E+01  0.13293311215E+02  0.51100000000E-03 0.  1.
         12    1    4    4    0    0  0.12853778524E+02 -0.14132396725E+02  0.39442074055E+01  0.19506435645E+02  0.00000000000E+00 0. -1.
</event>
<event>
 8    1  0.2482403E-006  0.9118800E+02  0.7816164E-02  0.1184000E+00
        -11   -1    0    0    0    0  0.00000000000E+00  0.00000000000E+00  0.45593999997E+02  0.45594000000E+02  0.51100000000E-03 0.  1.
         11   -1    0    0    0    0 -0.00000000000E+00 -0.00000000000E+00 -0.45593999997E+02  0.45594000000E+02  0.51100000000E-03 0. -1.
         23    2    1    2    0    0  0.00000000000E+00  0.00000000000E+00  0.00000000000E+00  0.91188000000E+02  0.91188000000E+02 0.  0.
    9900012    2    3    3    0    0 -0.49731135901E+01  0.36207645249E+02 -0.44784144077E+01  0.54367059913E+02  0.39999944683E+02 0.  0.
        -12    1    3    3    0    0  0.49731135901E+01 -0.36207645249E+02  0.44784144077E+01  0.36820940087E+02  0.00000000000E+00 0.  1.
         11    1    4    4    0    0  0.14106095716E+02  0.24707167658E+02 -0.57611782183E+01  0.29027870138E+02  0.51100000000E-03 0. -1.
        -11    1    4    4    0    0 -0.70938570080E+01  0.33589775982E+01 -0.52526954858E+01  0.94443818158E+01  0.51100000000E-03 0.  1.
         12    1    4    4    0    0 -0.11985352298E+02  0.81414999934E+01  0.65354592964E+01  0.15894807959E+02  0.00000000000E+00 0. -1.
</event>
<event>
 8    1  0.2482403E-006  0.9118800E+02  0.7816164E-02  0.1184000E+00
        -11   -1    0    0    0    0  0.00000000000E+00  0.00000000000E+00  0.45593999997E+02  0.45594000000E+02  0.51100000000E-03 0. -1.
         11   -1    0    0    0    0 -0.00000000000E+00 -0.00000000000E+00 -0.45593999997E+02  0.45594000000E+02  0.51100000000E-03 0.  1.
         23    2    1    2    0    0 -0.35527136788E-14  0.17763568394E-14  0.00000000000E+00  0.91188000000E+02  0.91188000000E+02 0.  0.
    9900012    2    3    3    0    0 -0.13861105792E+02  0.11574664616E+02 -0.32088594185E+02  0.54367068568E+02  0.39999964414E+02 0.  0.
         12    1    3    3    0    0  0.13861105792E+02 -0.11574664616E+02  0.32088594185E+02  0.36820931432E+02  0.00000000000E+00 0. -1.
         11    1    4    4    0    0 -0.62335672400E+01 -0.68099685878E+01 -0.92794774824E+01  0.13089756885E+02  0.51100000000E-03 0. -1.
        -11    1    4    4    0    0 -0.80222766569E+01  0.13666165794E+02 -0.29259740748E+02  0.33275417941E+02  0.51100000000E-03 0.  1.
         12    1    4    4    0    0  0.39473810444E+00  0.47184674100E+01  0.64506240456E+01  0.80018937414E+01  0.00000000000E+00 0. -1.
</event>
<event>
 8    1  0.2482403E-006  0.9118800E+02  0.7816164E-02  0.1184000E+00
        -11   -1    0    0    0    0  0.00000000000E+00  0.00000000000E+00  0.45593999997E+02  0.45594000000E+02  0.51100000000E-03 0. -1.
         11   -1    0    0    0    0 -0.00000000000E+00 -0.00000000000E+00 -0.45593999997E+02  0.45594000000E+02  0.51100000000E-03 0.  1.
         23    2    1    2    0    0 -0.35527136788E-14 -0.35527136788E-14  0.00000000000E+00  0.91188000000E+02  0.91188000000E+02 0.  0.
    9900012    2    3    3    0    0  0.25807085108E+02 -0.25176645086E+02  0.74773727497E+01  0.54367079278E+02  0.39999988830E+02 0.  0.
        -12    1    3    3    0    0 -0.25807085108E+02  0.25176645086E+02 -0.74773727497E+01  0.36820920722E+02  0.00000000000E+00 0.  1.
         11    1    4    4    0    0  0.23215149481E+02 -0.13780488729E+02  0.13170078974E+02  0.30038242550E+02  0.51100000000E-03 0. -1.
        -11    1    4    4    0    0 -0.53736169451E+00  0.53135019528E+01 -0.49979769176E+01  0.73144947962E+01  0.51100000000E-03 0.  1.
        -12    1    4    4    0    0  0.31292973221E+01 -0.16709658310E+02 -0.69472930686E+00  0.17014341932E+02  0.00000000000E+00 0.  1.
</event>
<event>
 8    1  0.2482403E-006  0.9118800E+02  0.7816164E-02  0.1184000E+00
        -11   -1    0    0    0    0  0.00000000000E+00  0.00000000000E+00  0.45593999997E+02  0.45594000000E+02  0.51100000000E-03 0.  1.
         11   -1    0    0    0    0 -0.00000000000E+00 -0.00000000000E+00 -0.45593999997E+02  0.45594000000E+02  0.51100000000E-03 0. -1.
         23    2    1    2    0    0  0.35527136788E-14  0.00000000000E+00  0.17763568394E-14  0.91188000000E+02  0.91188000000E+02 0.  0.
    9900012    2    3    3    0    0 -0.22560190554E+02  0.26072145334E+02 -0.12925177707E+02  0.54367093182E+02  0.40000020526E+02 0.  0.
        -12    1    3    3    0    0  0.22560190554E+02 -0.26072145334E+02  0.12925177707E+02  0.36820906818E+02  0.00000000000E+00 0.  1.
         11    1    4    4    0    0 -0.16610225045E+02  0.27981043107E+02 -0.16949043499E+02  0.36689350297E+02  0.51100000000E-03 0. -1.
        -11    1    4    4    0    0 -0.32386658404E+01  0.56470000400E+01 -0.28527793742E+01  0.71074549803E+01  0.51100000000E-03 0.  1.
        -12    1    4    4    0    0 -0.27112996685E+01 -0.75558978130E+01  0.68766451657E+01  0.10570287905E+02  0.00000000000E+00 0.  1.
</event>
<event>
 8    1  0.2482403E-006  0.9118800E+02  0.7816164E-02  0.1184000E+00
        -11   -1    0    0    0    0  0.00000000000E+00  0.00000000000E+00  0.45593999997E+02  0.45594000000E+02  0.51100000000E-03 0. -1.
         11   -1    0    0    0    0 -0.00000000000E+00 -0.00000000000E+00 -0.45593999997E+02  0.45594000000E+02  0.51100000000E-03 0.  1.
         23    2    1    2    0    0  0.00000000000E+00  0.00000000000E+00  0.49960036108E-15  0.91188000000E+02  0.91188000000E+02 0.  0.
    9900012    2    3    3    0    0 -0.28080025327E+02  0.23817456950E+02 -0.14508753845E+00  0.54367080289E+02  0.39999991136E+02 0.  0.
        -12    1    3    3    0    0  0.28080025327E+02 -0.23817456950E+02  0.14508753845E+00  0.36820919711E+02  0.00000000000E+00 0.  1.
         11    1    4    4    0    0 -0.21018956070E+02  0.55655664821E+00  0.14548518885E+00  0.21026826574E+02  0.51100000000E-03 0.  1.
        -11    1    4    4    0    0 -0.10989519525E+02  0.75754626417E+01 -0.78561948531E+01  0.15487962147E+02  0.51100000000E-03 0. -1.
         12    1    4    4    0    0  0.39284502678E+01  0.15685437660E+02  0.75656221258E+01  0.17852291569E+02  0.00000000000E+00 0. -1.
</event>
<event>
 8    1  0.2482403E-006  0.9118800E+02  0.7816164E-02  0.1184000E+00
        -11   -1    0    0    0    0  0.00000000000E+00  0.00000000000E+00  0.45593999997E+02  0.45594000000E+02  0.51100000000E-03 0.  1.
         11   -1    0    0    0    0 -0.00000000000E+00 -0.00000000000E+00 -0.45593999997E+02  0.45594000000E+02  0.51100000000E-03 0. -1.
         23    2    1    2    0    0  0.00000000000E+00 -0.35527136788E-14  0.00000000000E+00  0.91188000000E+02  0.91188000000E+02 0.  0.
    9900012    2    3    3    0    0 -0.16898696413E+02 -0.21432951594E+02 -0.24715225794E+02  0.54367085555E+02  0.40000003141E+02 0.  0.
        -12    1    3    3    0    0  0.16898696413E+02  0.21432951594E+02  0.24715225794E+02  0.36820914445E+02  0.00000000000E+00 0.  1.
         11    1    4    4    0    0 -0.96291486452E+01  0.10536413659E+00  0.33895977963E+01  0.10208867651E+02  0.51100000000E-03 0. -1.
        -11    1    4    4    0    0 -0.11939260207E+02 -0.35809433520E+00 -0.67458907261E+01  0.13717915578E+02  0.51100000000E-03 0.  1.
         12    1    4    4    0    0  0.46697124397E+01 -0.21180221395E+02 -0.21358932865E+02  0.30440302326E+02  0.00000000000E+00 0. -1.
</event>
<event>
 8    1  0.2482403E-006  0.9118800E+02  0.7816164E-02  0.1184000E+00
        -11   -1    0    0    0    0  0.00000000000E+00  0.00000000000E+00  0.45593999997E+02  0.45594000000E+02  0.51100000000E-03 0. -1.
         11   -1    0    0    0    0 -0.00000000000E+00 -0.00000000000E+00 -0.45593999997E+02  0.45594000000E+02  0.51100000000E-03 0.  1.
         23    2    1    2    0    0  0.13322676296E-14  0.00000000000E+00  0.71054273576E-14  0.91188000000E+02  0.91188000000E+02 0.  0.
    9900012    2    3    3    0    0  0.24403414519E+01 -0.13319345388E+02  0.34240656919E+02  0.54367043817E+02  0.39999907990E+02 0.  0.
        -12    1    3    3    0    0 -0.24403414519E+01  0.13319345388E+02 -0.34240656919E+02  0.36820956183E+02  0.00000000000E+00 0.  1.
         11    1    4    4    0    0 -0.56511812411E+01  0.60847885604E+01  0.10971819690E+02  0.13760135494E+02  0.51100000000E-03 0. -1.
        -11    1    4    4    0    0 -0.63914654883E+01 -0.64573160652E+01 -0.14155491619E+01  0.91951912185E+01  0.51100000000E-03 0.  1.
        -12    1    4    4    0    0  0.14482988181E+02 -0.12946817883E+02  0.24684386391E+02  0.31411717105E+02  0.00000000000E+00 0.  1.
</event>
<event>
 8    1  0.2482403E-006  0.9118800E+02  0.7816164E-02  0.1184000E+00
        -11   -1    0    0    0    0  0.00000000000E+00  0.00000000000E+00  0.45593999997E+02  0.45594000000E+02  0.51100000000E-03 0.  1.
         11   -1    0    0    0    0 -0.00000000000E+00 -0.00000000000E+00 -0.45593999997E+02  0.45594000000E+02  0.51100000000E-03 0. -1.
         23    2    1    2    0    0 -0.35527136788E-14  0.17763568394E-14  0.35527136788E-14  0.91188000000E+02  0.91188000000E+02 0.  0.
    9900012    2    3    3    0    0 -0.29420239721E+02 -0.61197798741E+01  0.21278539792E+02  0.54367102854E+02  0.40000042576E+02 0.  0.
         12    1    3    3    0    0  0.29420239721E+02  0.61197798741E+01 -0.21278539792E+02  0.36820897146E+02  0.00000000000E+00 0. -1.
         11    1    4    4    0    0 -0.12575017782E+02  0.10279323926E+02  0.86313299563E+01  0.18392809183E+02  0.51100000000E-03 0. -1.
        -11    1    4    4    0    0  0.56763325241E+01 -0.36843954606E+01 -0.81743842764E+00  0.68164306406E+01  0.51100000000E-03 0.  1.
        -12    1    4    4    0    0 -0.22521554464E+02 -0.12714708339E+02  0.13464648263E+02  0.29157863030E+02  0.00000000000E+00 0.  1.
</event>
<event>
 8    1  0.2482403E-006  0.9118800E+02  0.7816164E-02  0.1184000E+00
        -11   -1    0    0    0    0  0.00000000000E+00  0.00000000000E+00  0.45593999997E+02  0.45594000000E+02  0.51100000000E-03 0. -1.
         11   -1    0    0    0    0 -0.00000000000E+00 -0.00000000000E+00 -0.45593999997E+02  0.45594000000E+02  0.51100000000E-03 0.  1.
         23    2    1    2    0    0  0.00000000000E+00  0.00000000000E+00  0.00000000000E+00  0.91188000000E+02  0.91188000000E+02 0.  0.
    9900012    2    3    3    0    0 -0.21638567722E+02 -0.10671134663E+02  0.27815057214E+02  0.54367107345E+02  0.40000052815E+02 0.  0.
        -12    1    3    3    0    0  0.21638567722E+02  0.10671134663E+02 -0.27815057214E+02  0.36820892655E+02  0.00000000000E+00 0.  1.
         11    1    4    4    0    0 -0.14831572540E+02 -0.57529009181E+01  0.85274980786E+00  0.15931057576E+02  0.51100000000E-03 0. -1.
        -11    1    4    4    0    0  0.11873638072E+01  0.98267839375E+01  0.59448170947E+01  0.11546270650E+02  0.51100000000E-03 0.  1.
         12    1    4    4    0    0 -0.79943589892E+01 -0.14745017683E+02  0.21017490312E+02  0.26889779120E+02  0.00000000000E+00 0. -1.
</event>
<event>
 8    1  0.2482403E-006  0.9118800E+02  0.7816164E-02  0.1184000E+00
        -11   -1    0    0    0    0  0.00000000000E+00  0.00000000000E+00  0.45593999997E+02  0.45594000000E+02  0.51100000000E-03 0.  1.
         11   -1    0    0    0    0 -0.00000000000E+00 -0.00000000000E+00 -0.45593999997E+02  0.45594000000E+02  0.51100000000E-03 0. -1.
         23    2    1    2    0    0  0.35527136788E-14  0.00000000000E+00 -0.35527136788E-14  0.91188000000E+02  0.91188000000E+02 0.  0.
    9900012    2    3    3    0    0  0.24081746294E+02 -0.24395121367E+02 -0.13443486274E+02  0.54367085097E+02  0.40000002096E+02 0.  0.
         12    1    3    3    0    0 -0.24081746294E+02  0.24395121367E+02  0.13443486274E+02  0.36820914903E+02  0.00000000000E+00 0. -1.
         11    1    4    4    0    0 -0.53032178240E+01 -0.65306307807E+01 -0.92429189136E+00  0.84633074766E+01  0.51100000000E-03 0. -1.
        -11    1    4    4    0    0  0.84053623755E+01 -0.75125243440E+01  0.87619359928E+01  0.14277943174E+02  0.51100000000E-03 0.  1.
         12    1    4    4    0    0  0.20979601742E+02 -0.10351966243E+02 -0.21281130376E+02  0.31625834446E+02  0.00000000000E+00 0. -1.
</event>
<event>
 8    1  0.2482403E-006  0.9118800E+02  0.7816164E-02  0.1184000E+00
        -11   -1    0    0    0    0  0.00000000000E+00  0.00000000000E+00  0.45593999997E+02  0.45594000000E+02  0.51100000000E-03 0.  1.
         11   -1    0    0    0    0 -0.00000000000E+00 -0.00000000000E+00 -0.45593999997E+02  0.45594000000E+02  0.51100000000E-03 0. -1.
         23    2    1    2    0    0  0.35527136788E-14 -0.88817841970E-15 -0.35527136788E-14  0.91188000000E+02  0.91188000000E+02 0.  0.
    9900012    2    3    3    0    0 -0.24875982368E+02  0.44347374491E+01  0.26782463193E+02  0.54367058544E+02  0.39999941563E+02 0.  0.
         12    1    3    3    0    0  0.24875982368E+02 -0.44347374491E+01 -0.26782463193E+02  0.36820941456E+02  0.00000000000E+00 0. -1.
         11    1    4    4    0    0 -0.18289840015E+02  0.12181367280E+02  0.13199813134E+02  0.25634723007E+02  0.51100000000E-03 0. -1.
        -11    1    4    4    0    0 -0.40976635649E+01 -0.66107846754E+01  0.20160286712E+02  0.21608574253E+02  0.51100000000E-03 0.  1.
        -12    1    4    4    0    0 -0.24884787881E+01 -0.11358451558E+01 -0.65776366524E+01  0.71237612837E+01  0.00000000000E+00 0.  1.
</event>
<event>
 8    1  0.2482403E-006  0.9118800E+02  0.7816164E-02  0.1184000E+00
        -11   -1    0    0    0    0  0.00000000000E+00  0.00000000000E+00  0.45593999997E+02  0.45594000000E+02  0.51100000000E-03 0.  1.
         11   -1    0    0    0    0 -0.00000000000E+00 -0.00000000000E+00 -0.45593999997E+02  0.45594000000E+02  0.51100000000E-03 0. -1.
         23    2    1    2    0    0 -0.44408920985E-15  0.00000000000E+00 -0.17763568394E-14  0.91188000000E+02  0.91188000000E+02 0.  0.
    9900012    2    3    3    0    0 -0.17600253713E+01  0.33449919816E+02 -0.15290048281E+02  0.54367076581E+02  0.39999982681E+02 0.  0.
        -12    1    3    3    0    0  0.17600253713E+01 -0.33449919816E+02  0.15290048281E+02  0.36820923419E+02  0.00000000000E+00 0.  1.
         11    1    4    4    0    0 -0.13199037093E+02  0.47873767075E+01 -0.57056682654E+01  0.15155467876E+02  0.51100000000E-03 0. -1.
        -11    1    4    4    0    0 -0.34513757801E+01 -0.19563159968E+01 -0.76543702568E+00  0.40404283382E+01  0.51100000000E-03 0.  1.
         12    1    4    4    0    0  0.14890387502E+02  0.30618859106E+02 -0.88189429900E+01  0.35171180366E+02  0.00000000000E+00 0. -1.
</event>
<event>
 8    1  0.2482403E-006  0.9118800E+02  0.7816164E-02  0.1184000E+00
        -11   -1    0    0    0    0  0.00000000000E+00  0.00000000000E+00  0.45593999997E+02  0.45594000000E+02  0.51100000000E-03 0.  1.
         11   -1    0    0    0    0 -0.00000000000E+00 -0.00000000000E+00 -0.45593999997E+02  0.45594000000E+02  0.51100000000E-03 0. -1.
         23    2    1    2    0    0  0.17763568394E-14  0.17763568394E-14 -0.71054273576E-14  0.91188000000E+02  0.91188000000E+02 0.  0.
    9900012    2    3    3    0    0 -0.12832893194E+02 -0.43323409223E+01 -0.34239332733E+02  0.54367024571E+02  0.39999864113E+02 0.  0.
        -12    1    3    3    0    0  0.12832893194E+02  0.43323409223E+01  0.34239332733E+02  0.36820975429E+02  0.00000000000E+00 0.  1.
         11    1    4    4    0    0 -0.81164144733E+01  0.12267438090E+02 -0.11330020792E+01  0.14752962928E+02  0.51100000000E-03 0. -1.
        -11    1    4    4    0    0 -0.13552971019E+01 -0.42087256153E+01 -0.35457514403E+00  0.44357553284E+01  0.51100000000E-03 0.  1.
         12    1    4    4    0    0 -0.33611816191E+01 -0.12391053397E+02 -0.32751755509E+02  0.35178306314E+02  0.00000000000E+00 0. -1.
</event>
<event>
 8    1  0.2482403E-006  0.9118800E+02  0.7816164E-02  0.1184000E+00
        -11   -1    0    0    0    0  0.00000000000E+00  0.00000000000E+00  0.45593999997E+02  0.45594000000E+02  0.51100000000E-03 0.  1.
         11   -1    0    0    0    0 -0.00000000000E+00 -0.00000000000E+00 -0.45593999997E+02  0.45594000000E+02  0.51100000000E-03 0. -1.
         23    2    1    2    0    0  0.35527136788E-14 -0.13322676296E-14  0.71054273576E-14  0.91188000000E+02  0.91188000000E+02 0.  0.
    9900012    2    3    3    0    0 -0.23433358402E+02  0.26728029554E+01 -0.28275742351E+02  0.54367030877E+02  0.39999878490E+02 0.  0.
         12    1    3    3    0    0  0.23433358402E+02 -0.26728029554E+01  0.28275742351E+02  0.36820969123E+02  0.00000000000E+00 0. -1.
         11    1    4    4    0    0 -0.13342138733E+02  0.14855696741E+02 -0.14256593099E+02  0.24534767956E+02  0.51100000000E-03 0. -1.
        -11    1    4    4    0    0 -0.12662815423E+02 -0.13014114033E+02 -0.28984858742E+01  0.18387911223E+02  0.51100000000E-03 0.  1.
        -12    1    4    4    0    0  0.25715957539E+01  0.83122024815E+00 -0.11120663378E+02  0.11444351698E+02  0.00000000000E+00 0.  1.
</event>
<event>
 8    1  0.2482403E-006  0.9118800E+02  0.7816164E-02  0.1184000E+00
        -11   -1    0    0    0    0  0.00000000000E+00  0.00000000000E+00  0.45593999997E+02  0.45594000000E+02  0.51100000000E-03 0. -1.
         11   -1    0    0    0    0 -0.00000000000E+00 -0.00000000000E+00 -0.45593999997E+02  0.45594000000E+02  0.51100000000E-03 0.  1.
         23    2    1    2    0    0  0.17763568394E-14 -0.35527136788E-14  0.00000000000E+00  0.91188000000E+02  0.91188000000E+02 0.  0.
    9900012    2    3    3    0    0  0.10971597709E+02 -0.31690975785E+02 -0.15201496074E+02  0.54367090378E+02  0.40000014136E+02 0.  0.
        -12    1    3    3    0    0 -0.10971597709E+02  0.31690975785E+02  0.15201496074E+02  0.36820909622E+02  0.00000000000E+00 0.  1.
         11    1    4    4    0    0  0.20467688435E+01 -0.63660358498E+01 -0.80116784927E+00  0.67348010604E+01  0.51100000000E-03 0. -1.
        -11    1    4    4    0    0  0.17746792608E+02 -0.15368660538E+02  0.51026965995E+01  0.24024610038E+02  0.51100000000E-03 0.  1.
        -12    1    4    4    0    0 -0.88219637431E+01 -0.99562793970E+01 -0.19503024824E+02  0.23607679280E+02  0.00000000000E+00 0.  1.
</event>
<event>
 8    1  0.2482403E-006  0.9118800E+02  0.7816164E-02  0.1184000E+00
        -11   -1    0    0    0    0  0.00000000000E+00  0.00000000000E+00  0.45593999997E+02  0.45594000000E+02  0.51100000000E-03 0.  1.
         11   -1    0    0    0    0 -0.00000000000E+00 -0.00000000000E+00 -0.45593999997E+02  0.45594000000E+02  0.51100000000E-03 0. -1.
         23    2    1    2    0    0  0.88817841970E-15  0.00000000000E+00  0.00000000000E+00  0.91188000000E+02  0.91188000000E+02 0.  0.
    9900012    2    3    3    0    0 -0.64742685332E+01 -0.30184052117E+02  0.20069834134E+02  0.54366927264E+02  0.39999642282E+02 0.  0.
         12    1    3    3    0    0  0.64742685332E+01  0.30184052117E+02 -0.20069834134E+02  0.36821072736E+02  0.00000000000E+00 0. -1.
         11    1    4    4    0    0  0.32504705151E+01  0.22868204638E+01 -0.57427492258E+01  0.69838581984E+01  0.51100000000E-03 0. -1.
        -11    1    4    4    0    0 -0.51715137597E+01 -0.63826607704E+01  0.17977995490E+02  0.19765910937E+02  0.51100000000E-03 0.  1.
        -12    1    4    4    0    0 -0.45532252885E+01 -0.26088211811E+02  0.78345878695E+01  0.27617158128E+02  0.00000000000E+00 0.  1.
</event>
<event>
 8    1  0.2482403E-006  0.9118800E+02  0.7816164E-02  0.1184000E+00
        -11   -1    0    0    0    0  0.00000000000E+00  0.00000000000E+00  0.45593999997E+02  0.45594000000E+02  0.51100000000E-03 0.  1.
         11   -1    0    0    0    0 -0.00000000000E+00 -0.00000000000E+00 -0.45593999997E+02  0.45594000000E+02  0.51100000000E-03 0. -1.
         23    2    1    2    0    0  0.00000000000E+00  0.00000000000E+00  0.00000000000E+00  0.91188000000E+02  0.91188000000E+02 0.  0.
    9900012    2    3    3    0    0 -0.13224095997E+02  0.17389392753E+02  0.29639696588E+02  0.54367091414E+02  0.40000016496E+02 0.  0.
         12    1    3    3    0    0  0.13224095997E+02 -0.17389392753E+02 -0.29639696588E+02  0.36820908586E+02  0.00000000000E+00 0. -1.
         11    1    4    4    0    0 -0.26362109016E+02  0.71353332059E+01  0.14798313061E+02  0.31062257507E+02  0.51100000000E-03 0. -1.
        -11    1    4    4    0    0  0.63869219453E+00  0.28618810495E+01  0.48860971273E+01  0.56984415641E+01  0.51100000000E-03 0.  1.
         12    1    4    4    0    0  0.12499320825E+02  0.73921784979E+01  0.99552863997E+01  0.17606392343E+02  0.00000000000E+00 0. -1.
</event>
<event>
 8    1  0.2482403E-006  0.9118800E+02  0.7816164E-02  0.1184000E+00
        -11   -1    0    0    0    0  0.00000000000E+00  0.00000000000E+00  0.45593999997E+02  0.45594000000E+02  0.51100000000E-03 0. -1.
         11   -1    0    0    0    0 -0.00000000000E+00 -0.00000000000E+00 -0.45593999997E+02  0.45594000000E+02  0.51100000000E-03 0.  1.
         23    2    1    2    0    0  0.00000000000E+00  0.00000000000E+00  0.17763568394E-14  0.91188000000E+02  0.91188000000E+02 0.  0.
    9900012    2    3    3    0    0  0.35344299195E+02  0.70028576568E+01  0.75842481673E+01  0.54367077671E+02  0.39999985166E+02 0.  0.
        -12    1    3    3    0    0 -0.35344299195E+02 -0.70028576568E+01 -0.75842481673E+01  0.36820922329E+02  0.00000000000E+00 0.  1.
         11    1    4    4    0    0  0.14115780519E+02  0.82449477646E+01  0.34203761893E+01  0.16701299256E+02  0.51100000000E-03 0. -1.
        -11    1    4    4    0    0  0.19997250275E+01  0.78635147957E+01  0.12427349314E+02  0.14841589415E+02  0.51100000000E-03 0.  1.
        -12    1    4    4    0    0  0.19228793648E+02 -0.91056049035E+01 -0.82634773360E+01  0.22824189000E+02  0.00000000000E+00 0.  1.
</event>
<event>
 8    1  0.2482403E-006  0.9118800E+02  0.7816164E-02  0.1184000E+00
        -11   -1    0    0    0    0  0.00000000000E+00  0.00000000000E+00  0.45593999997E+02  0.45594000000E+02  0.51100000000E-03 0.  1.
         11   -1    0    0    0    0 -0.00000000000E+00 -0.00000000000E+00 -0.45593999997E+02  0.45594000000E+02  0.51100000000E-03 0. -1.
         23    2    1    2    0    0  0.00000000000E+00  0.00000000000E+00  0.00000000000E+00  0.91188000000E+02  0.91188000000E+02 0.  0.
    9900012    2    3    3    0    0 -0.30319245950E+02 -0.20248310422E+02  0.51506375973E+01  0.54367084509E+02  0.40000000755E+02 0.  0.
        -12    1    3    3    0    0  0.30319245950E+02  0.20248310422E+02 -0.51506375973E+01  0.36820915491E+02  0.00000000000E+00 0.  1.
         11    1    4    4    0    0 -0.38980841006E+01 -0.52161247467E+01  0.33064175970E+01  0.73031099277E+01  0.51100000000E-03 0. -1.
        -11    1    4    4    0    0  0.66919282105E+01 -0.11733099104E+02 -0.16334338128E+01  0.13605720269E+02  0.51100000000E-03 0.  1.
        -12    1    4    4    0    0 -0.33113090060E+02 -0.32990865706E+01  0.34776538131E+01  0.33458254312E+02  0.00000000000E+00 0.  1.
</event>
<event>
 8    1  0.2482403E-006  0.9118800E+02  0.7816164E-02  0.1184000E+00
        -11   -1    0    0    0    0  0.00000000000E+00  0.00000000000E+00  0.45593999997E+02  0.45594000000E+02  0.51100000000E-03 0.  1.
         11   -1    0    0    0    0 -0.00000000000E+00 -0.00000000000E+00 -0.45593999997E+02  0.45594000000E+02  0.51100000000E-03 0. -1.
         23    2    1    2    0    0  0.13322676296E-14  0.00000000000E+00 -0.17763568394E-14  0.91188000000E+02  0.91188000000E+02 0.  0.
    9900012    2    3    3    0    0 -0.22443396008E+01  0.34633885970E+02 -0.12297832024E+02  0.54367084883E+02  0.40000001607E+02 0.  0.
        -12    1    3    3    0    0  0.22443396008E+01 -0.34633885970E+02  0.12297832024E+02  0.36820915117E+02  0.00000000000E+00 0.  1.
         11    1    4    4    0    0 -0.13600140082E+02  0.14946642844E+02  0.27583718887E+01  0.20395454354E+02  0.51100000000E-03 0. -1.
        -11    1    4    4    0    0  0.16117669335E+02  0.10237022139E+02 -0.59181809381E+01  0.19990016332E+02  0.51100000000E-03 0.  1.
        -12    1    4    4    0    0 -0.47618688539E+01  0.94502209865E+01 -0.91380229745E+01  0.13981614197E+02  0.00000000000E+00 0.  1.
</event>
<event>
 8    1  0.2482403E-006  0.9118800E+02  0.7816164E-02  0.1184000E+00
        -11   -1    0    0    0    0  0.00000000000E+00  0.00000000000E+00  0.45593999997E+02  0.45594000000E+02  0.51100000000E-03 0.  1.
         11   -1    0    0    0    0 -0.00000000000E+00 -0.00000000000E+00 -0.45593999997E+02  0.45594000000E+02  0.51100000000E-03 0. -1.
         23    2    1    2    0    0  0.00000000000E+00  0.00000000000E+00  0.00000000000E+00  0.91188000000E+02  0.91188000000E+02 0.  0.
    9900012    2    3    3    0    0 -0.82866922490E+01 -0.11234917620E+02 -0.34071798240E+02  0.54367080977E+02  0.39999992704E+02 0.  0.
        -12    1    3    3    0    0  0.82866922490E+01  0.11234917620E+02  0.34071798240E+02  0.36820919023E+02  0.00000000000E+00 0.  1.
         11    1    4    4    0    0 -0.85005000224E+01  0.75601992551E+01 -0.66903388871E+01  0.13197565991E+02  0.51100000000E-03 0. -1.
        -11    1    4    4    0    0  0.11595044448E+02 -0.11106578756E+02 -0.96218902937E+01  0.18718491405E+02  0.51100000000E-03 0.  1.
         12    1    4    4    0    0 -0.11381236675E+02 -0.76885381199E+01 -0.17759569059E+02  0.22451023581E+02  0.00000000000E+00 0. -1.
</event>
<event>
 8    1  0.2482403E-006  0.9118800E+02  0.7816164E-02  0.1184000E+00
        -11   -1    0    0    0    0  0.00000000000E+00  0.00000000000E+00  0.45593999997E+02  0.45594000000E+02  0.51100000000E-03 0.  1.
         11   -1    0    0    0    0 -0.00000000000E+00 -0.00000000000E+00 -0.45593999997E+02  0.45594000000E+02  0.51100000000E-03 0. -1.
         23    2    1    2    0    0  0.00000000000E+00  0.00000000000E+00  0.88817841970E-15  0.91188000000E+02  0.91188000000E+02 0.  0.
    9900012    2    3    3    0    0  0.12183732857E+02 -0.33850305902E+02 -0.78417765028E+01  0.54367081832E+02  0.39999994653E+02 0.  0.
        -12    1    3    3    0    0 -0.12183732857E+02  0.33850305902E+02  0.78417765028E+01  0.36820918168E+02  0.00000000000E+00 0.  1.
         11    1    4    4    0    0  0.20784103234E+02 -0.13238201455E+02 -0.47994749376E+01  0.25105056959E+02  0.51100000000E-03 0. -1.
        -11    1    4    4    0    0 -0.51614243654E+01 -0.12615704638E+02  0.75260920442E+01  0.15570432451E+02  0.51100000000E-03 0.  1.
         12    1    4    4    0    0 -0.34389460113E+01 -0.79963998092E+01 -0.10568393609E+02  0.13691592422E+02  0.00000000000E+00 0. -1.
</event>
<event>
 8    1  0.2482403E-006  0.9118800E+02  0.7816164E-02  0.1184000E+00
        -11   -1    0    0    0    0  0.00000000000E+00  0.00000000000E+00  0.45593999997E+02  0.45594000000E+02  0.51100000000E-03 0.  1.
         11   -1    0    0    0    0 -0.00000000000E+00 -0.00000000000E+00 -0.45593999997E+02  0.45594000000E+02  0.51100000000E-03 0. -1.
         23    2    1    2    0    0  0.00000000000E+00 -0.35527136788E-14 -0.88817841970E-15  0.91188000000E+02  0.91188000000E+02 0.  0.
    9900012    2    3    3    0    0 -0.27157374823E+02 -0.24776642773E+02 -0.20938543855E+01  0.54366956281E+02  0.39999708432E+02 0.  0.
        -12    1    3    3    0    0  0.27157374823E+02  0.24776642773E+02  0.20938543855E+01  0.36821043719E+02  0.00000000000E+00 0.  1.
         11    1    4    4    0    0 -0.17364067700E+02 -0.62519968462E+01 -0.15892590252E+02  0.24355137791E+02  0.51100000000E-03 0. -1.
        -11    1    4    4    0    0  0.29479078137E+01  0.11673436017E+01  0.20869309163E+01  0.37958045883E+01  0.51100000000E-03 0.  1.
        -12    1    4    4    0    0 -0.12741214937E+02 -0.19691989528E+02  0.11711804950E+02  0.26216013901E+02  0.00000000000E+00 0.  1.
</event>
<event>
 8    1  0.2482403E-006  0.9118800E+02  0.7816164E-02  0.1184000E+00
        -11   -1    0    0    0    0  0.00000000000E+00  0.00000000000E+00  0.45593999997E+02  0.45594000000E+02  0.51100000000E-03 0.  1.
         11   -1    0    0    0    0 -0.00000000000E+00 -0.00000000000E+00 -0.45593999997E+02  0.45594000000E+02  0.51100000000E-03 0. -1.
         23    2    1    2    0    0  0.17763568394E-14  0.00000000000E+00  0.71054273576E-14  0.91188000000E+02  0.91188000000E+02 0.  0.
    9900012    2    3    3    0    0 -0.12393714693E+02  0.13127750346E+02 -0.32091098172E+02  0.54367074225E+02  0.39999977311E+02 0.  0.
        -12    1    3    3    0    0  0.12393714693E+02 -0.13127750346E+02  0.32091098172E+02  0.36820925775E+02  0.00000000000E+00 0.  1.
         11    1    4    4    0    0 -0.99857731165E+00  0.19191121736E+02 -0.20340125367E+02  0.27982441108E+02  0.51100000000E-03 0. -1.
        -11    1    4    4    0    0 -0.12029699197E+02 -0.11063283477E+02 -0.34968223149E+01  0.16713397938E+02  0.51100000000E-03 0.  1.
        -12    1    4    4    0    0  0.63456181619E+00  0.49999120867E+01 -0.82541504901E+01  0.96712351789E+01  0.00000000000E+00 0.  1.
</event>
<event>
 8    1  0.2482403E-006  0.9118800E+02  0.7816164E-02  0.1184000E+00
        -11   -1    0    0    0    0  0.00000000000E+00  0.00000000000E+00  0.45593999997E+02  0.45594000000E+02  0.51100000000E-03 0.  1.
         11   -1    0    0    0    0 -0.00000000000E+00 -0.00000000000E+00 -0.45593999997E+02  0.45594000000E+02  0.51100000000E-03 0. -1.
         23    2    1    2    0    0  0.00000000000E+00  0.00000000000E+00  0.35527136788E-14  0.91188000000E+02  0.91188000000E+02 0.  0.
    9900012    2    3    3    0    0  0.16782995915E+02 -0.18503529330E+02 -0.27050522612E+02  0.54367077644E+02  0.39999985106E+02 0.  0.
        -12    1    3    3    0    0 -0.16782995915E+02  0.18503529330E+02  0.27050522612E+02  0.36820922356E+02  0.00000000000E+00 0.  1.
         11    1    4    4    0    0  0.13323949133E+01  0.56073609985E+01 -0.12464314879E+02  0.13732331166E+02  0.51100000000E-03 0. -1.
        -11    1    4    4    0    0 -0.98759477750E+00 -0.32048592912E+01 -0.13615442674E+02  0.14022365920E+02  0.51100000000E-03 0.  1.
        -12    1    4    4    0    0  0.16438195779E+02 -0.20906031037E+02 -0.97076505837E+00  0.26612380559E+02  0.00000000000E+00 0.  1.
</event>
<event>
 8    1  0.2482403E-006  0.9118800E+02  0.7816164E-02  0.1184000E+00
        -11   -1    0    0    0    0  0.00000000000E+00  0.00000000000E+00  0.45593999997E+02  0.45594000000E+02  0.51100000000E-03 0. -1.
         11   -1    0    0    0    0 -0.00000000000E+00 -0.00000000000E+00 -0.45593999997E+02  0.45594000000E+02  0.51100000000E-03 0.  1.
         23    2    1    2    0    0  0.00000000000E+00  0.35527136788E-14 -0.35527136788E-14  0.91188000000E+02  0.91188000000E+02 0.  0.
    9900012    2    3    3    0    0  0.89049589800E+01 -0.22475264372E+02  0.27773075722E+02  0.54367088305E+02  0.40000009408E+02 0.  0.
        -12    1    3    3    0    0 -0.89049589800E+01  0.22475264372E+02 -0.27773075722E+02  0.36820911695E+02  0.00000000000E+00 0.  1.
         11    1    4    4    0    0 -0.11012523228E+01  0.21720478766E+01 -0.17710180461E+01  0.30111549010E+01  0.51100000000E-03 0. -1.
        -11    1    4    4    0    0 -0.10503033421E+02 -0.11547022379E+02  0.19625860608E+02  0.25076320339E+02  0.51100000000E-03 0.  1.
         12    1    4    4    0    0  0.20509244724E+02 -0.13100289870E+02  0.99182331595E+01  0.26279613065E+02  0.00000000000E+00 0. -1.
</event>
<event>
 8    1  0.2482403E-006  0.9118800E+02  0.7816164E-02  0.1184000E+00
        -11   -1    0    0    0    0  0.00000000000E+00  0.00000000000E+00  0.45593999997E+02  0.45594000000E+02  0.51100000000E-03 0.  1.
         11   -1    0    0    0    0 -0.00000000000E+00 -0.00000000000E+00 -0.45593999997E+02  0.45594000000E+02  0.51100000000E-03 0. -1.
         23    2    1    2    0    0 -0.44408920985E-15  0.00000000000E+00  0.00000000000E+00  0.91188000000E+02  0.91188000000E+02 0.  0.
    9900012    2    3    3    0    0  0.35986023948E+01  0.36570186852E+02 -0.23339149704E+01  0.54367140902E+02  0.40000129314E+02 0.  0.
         12    1    3    3    0    0 -0.35986023948E+01 -0.36570186852E+02  0.23339149704E+01  0.36820859098E+02  0.00000000000E+00 0. -1.
         11    1    4    4    0    0 -0.82608075977E+01  0.23935048773E+02 -0.61435870242E+01  0.26055156183E+02  0.51100000000E-03 0.  1.
        -11    1    4    4    0    0 -0.60929443558E+01  0.58541033337E+01  0.34263597680E+01  0.91178088533E+01  0.51100000000E-03 0. -1.
         12    1    4    4    0    0  0.17952354348E+02  0.67810347459E+01  0.38331228576E+00  0.19194175866E+02  0.00000000000E+00 0. -1.
</event>
<event>
 8    1  0.2482403E-006  0.9118800E+02  0.7816164E-02  0.1184000E+00
        -11   -1    0    0    0    0  0.00000000000E+00  0.00000000000E+00  0.45593999997E+02  0.45594000000E+02  0.51100000000E-03 0.  1.
         11   -1    0    0    0    0 -0.00000000000E+00 -0.00000000000E+00 -0.45593999997E+02  0.45594000000E+02  0.51100000000E-03 0. -1.
         23    2    1    2    0    0  0.18596235662E-14  0.00000000000E+00  0.00000000000E+00  0.91188000000E+02  0.91188000000E+02 0.  0.
    9900012    2    3    3    0    0  0.19383881100E+00 -0.27484819344E+02 -0.24501567302E+02  0.54367086539E+02  0.40000005383E+02 0.  0.
        -12    1    3    3    0    0 -0.19383881100E+00  0.27484819344E+02  0.24501567302E+02  0.36820913461E+02  0.00000000000E+00 0.  1.
         11    1    4    4    0    0  0.98095517288E+01 -0.20315226683E+02 -0.24614760363E+02  0.33388952788E+02  0.51100000000E-03 0. -1.
        -11    1    4    4    0    0  0.38355723540E+01 -0.49517513218E+01  0.31501643235E+01  0.70110621136E+01  0.51100000000E-03 0.  1.
         12    1    4    4    0    0 -0.13451285272E+02 -0.22178413395E+01 -0.30369712619E+01  0.13967071637E+02  0.00000000000E+00 0. -1.
</event>
<event>
 8    1  0.2482403E-006  0.9118800E+02  0.7816164E-02  0.1184000E+00
        -11   -1    0    0    0    0  0.00000000000E+00  0.00000000000E+00  0.45593999997E+02  0.45594000000E+02  0.51100000000E-03 0. -1.
         11   -1    0    0    0    0 -0.00000000000E+00 -0.00000000000E+00 -0.45593999997E+02  0.45594000000E+02  0.51100000000E-03 0.  1.
         23    2    1    2    0    0 -0.17763568394E-14 -0.17763568394E-14  0.71054273576E-14  0.91188000000E+02  0.91188000000E+02 0.  0.
    9900012    2    3    3    0    0  0.46506795692E+01 -0.12504521857E+02 -0.34318914137E+02  0.54367085361E+02  0.40000002697E+02 0.  0.
         12    1    3    3    0    0 -0.46506795692E+01  0.12504521857E+02  0.34318914137E+02  0.36820914639E+02  0.00000000000E+00 0. -1.
         11    1    4    4    0    0 -0.45580830293E+01 -0.47588918506E+01 -0.95653143063E+00  0.66586879478E+01  0.51100000000E-03 0. -1.
        -11    1    4    4    0    0  0.14594013322E+02 -0.88691973443E+01 -0.36143568643E+01  0.17455986428E+02  0.51100000000E-03 0.  1.
         12    1    4    4    0    0 -0.53852507236E+01  0.11235673378E+01 -0.29748025842E+02  0.30252410985E+02  0.00000000000E+00 0. -1.
</event>
<event>
 8    1  0.2482403E-006  0.9118800E+02  0.7816164E-02  0.1184000E+00
        -11   -1    0    0    0    0  0.00000000000E+00  0.00000000000E+00  0.45593999997E+02  0.45594000000E+02  0.51100000000E-03 0.  1.
         11   -1    0    0    0    0 -0.00000000000E+00 -0.00000000000E+00 -0.45593999997E+02  0.45594000000E+02  0.51100000000E-03 0. -1.
         23    2    1    2    0    0  0.00000000000E+00 -0.35527136788E-14  0.00000000000E+00  0.91188000000E+02  0.91188000000E+02 0.  0.
    9900012    2    3    3    0    0 -0.51263521096E+01  0.29236927453E+02 -0.21787648212E+02  0.54367095238E+02  0.40000025214E+02 0.  0.
        -12    1    3    3    0    0  0.51263521096E+01 -0.29236927453E+02  0.21787648212E+02  0.36820904762E+02  0.00000000000E+00 0.  1.
         11    1    4    4    0    0 -0.57903081947E+01  0.92250611828E+01 -0.30119051775E+02  0.32027905065E+02  0.51100000000E-03 0. -1.
        -11    1    4    4    0    0 -0.14503042393E+01  0.13950578891E+02  0.39647477117E+01  0.14575364780E+02  0.51100000000E-03 0.  1.
         12    1    4    4    0    0  0.21142603244E+01  0.60612873795E+01  0.43666558505E+01  0.77638253930E+01  0.00000000000E+00 0. -1.
</event>
<event>
 8    1  0.2482403E-006  0.9118800E+02  0.7816164E-02  0.1184000E+00
        -11   -1    0    0    0    0  0.00000000000E+00  0.00000000000E+00  0.45593999997E+02  0.45594000000E+02  0.51100000000E-03 0. -1.
         11   -1    0    0    0    0 -0.00000000000E+00 -0.00000000000E+00 -0.45593999997E+02  0.45594000000E+02  0.51100000000E-03 0.  1.
         23    2    1    2    0    0 -0.88817841970E-15 -0.35527136788E-14 -0.35527136788E-14  0.91188000000E+02  0.91188000000E+02 0.  0.
    9900012    2    3    3    0    0  0.44029067384E+01  0.24649546848E+02 -0.26996183137E+02  0.54367086764E+02  0.40000005896E+02 0.  0.
         12    1    3    3    0    0 -0.44029067384E+01 -0.24649546848E+02  0.26996183137E+02  0.36820913236E+02  0.00000000000E+00 0. -1.
         11    1    4    4    0    0  0.44798060441E+00 -0.36287134738E+01 -0.36302741178E+01  0.51523915348E+01  0.51100000000E-03 0. -1.
        -11    1    4    4    0    0 -0.10806278207E+02  0.10586427025E+02  0.16347146848E+01  0.15215793709E+02  0.51100000000E-03 0.  1.
        -12    1    4    4    0    0  0.14761204341E+02  0.17691833297E+02 -0.25000623704E+02  0.33998901520E+02  0.00000000000E+00 0.  1.
</event>
<event>
 8    1  0.2482403E-006  0.9118800E+02  0.7816164E-02  0.1184000E+00
        -11   -1    0    0    0    0  0.00000000000E+00  0.00000000000E+00  0.45593999997E+02  0.45594000000E+02  0.51100000000E-03 0.  1.
         11   -1    0    0    0    0 -0.00000000000E+00 -0.00000000000E+00 -0.45593999997E+02  0.45594000000E+02  0.51100000000E-03 0. -1.
         23    2    1    2    0    0  0.26645352591E-14 -0.35527136788E-14  0.71054273576E-14  0.91188000000E+02  0.91188000000E+02 0.  0.
    9900012    2    3    3    0    0  0.72751464193E+01 -0.16369814086E+02  0.32169575048E+02  0.54367080302E+02  0.39999991165E+02 0.  0.
         12    1    3    3    0    0 -0.72751464193E+01  0.16369814086E+02 -0.32169575048E+02  0.36820919698E+02  0.00000000000E+00 0. -1.
         11    1    4    4    0    0 -0.93683574037E+01 -0.18120186383E+02  0.51188587495E+01  0.21031167114E+02  0.51100000000E-03 0.  1.
        -11    1    4    4    0    0 -0.28253205179E+00  0.25143424253E+01  0.31940437734E+01  0.40747586529E+01  0.51100000000E-03 0. -1.
        -12    1    4    4    0    0  0.16926035875E+02 -0.76397012753E+00  0.23856672525E+02  0.29261154536E+02  0.00000000000E+00 0.  1.
</event>
<event>
 8    1  0.2482403E-006  0.9118800E+02  0.7816164E-02  0.1184000E+00
        -11   -1    0    0    0    0  0.00000000000E+00  0.00000000000E+00  0.45593999997E+02  0.45594000000E+02  0.51100000000E-03 0. -1.
         11   -1    0    0    0    0 -0.00000000000E+00 -0.00000000000E+00 -0.45593999997E+02  0.45594000000E+02  0.51100000000E-03 0.  1.
         23    2    1    2    0    0  0.00000000000E+00  0.00000000000E+00  0.35527136788E-14  0.91188000000E+02  0.91188000000E+02 0.  0.
    9900012    2    3    3    0    0 -0.75504436369E+01 -0.26683583786E+02  0.24223033289E+02  0.54367106685E+02  0.40000051310E+02 0.  0.
        -12    1    3    3    0    0  0.75504436369E+01  0.26683583786E+02 -0.24223033289E+02  0.36820893315E+02  0.00000000000E+00 0.  1.
         11    1    4    4    0    0  0.13469511387E+02 -0.10982308528E+02  0.84849665149E+01  0.19339945569E+02  0.51100000000E-03 0. -1.
        -11    1    4    4    0    0 -0.43684883200E+01  0.20193152897E+01  0.83073101049E+01  0.96006627834E+01  0.51100000000E-03 0.  1.
         12    1    4    4    0    0 -0.16651466704E+02 -0.17720590548E+02  0.74307566693E+01  0.25426498332E+02  0.00000000000E+00 0. -1.
</event>
<event>
 8    1  0.2482403E-006  0.9118800E+02  0.7816164E-02  0.1184000E+00
        -11   -1    0    0    0    0  0.00000000000E+00  0.00000000000E+00  0.45593999997E+02  0.45594000000E+02  0.51100000000E-03 0.  1.
         11   -1    0    0    0    0 -0.00000000000E+00 -0.00000000000E+00 -0.45593999997E+02  0.45594000000E+02  0.51100000000E-03 0. -1.
         23    2    1    2    0    0  0.00000000000E+00 -0.17763568394E-14  0.00000000000E+00  0.91188000000E+02  0.91188000000E+02 0.  0.
    9900012    2    3    3    0    0 -0.35043351221E+02 -0.10912019322E+02  0.29445348163E+01  0.54367096755E+02  0.40000028673E+02 0.  0.
         12    1    3    3    0    0  0.35043351221E+02  0.10912019322E+02 -0.29445348163E+01  0.36820903245E+02  0.00000000000E+00 0. -1.
         11    1    4    4    0    0  0.24273717309E+01 -0.12839841152E+02 -0.13479588446E+01  0.13136614771E+02  0.51100000000E-03 0. -1.
        -11    1    4    4    0    0 -0.24216816311E+02 -0.67605463962E+01  0.20748694666E+01  0.25228243367E+02  0.51100000000E-03 0.  1.
         12    1    4    4    0    0 -0.13253906641E+02  0.86883682266E+01  0.22176241943E+01  0.16002238617E+02  0.00000000000E+00 0. -1.
</event>
<event>
 8    1  0.2482403E-006  0.9118800E+02  0.7816164E-02  0.1184000E+00
        -11   -1    0    0    0    0  0.00000000000E+00  0.00000000000E+00  0.45593999997E+02  0.45594000000E+02  0.51100000000E-03 0. -1.
         11   -1    0    0    0    0 -0.00000000000E+00 -0.00000000000E+00 -0.45593999997E+02  0.45594000000E+02  0.51100000000E-03 0.  1.
         23    2    1    2    0    0  0.17763568394E-14 -0.35527136788E-14  0.00000000000E+00  0.91188000000E+02  0.91188000000E+02 0.  0.
    9900012    2    3    3    0    0  0.11117900873E+02 -0.29105396505E+02  0.19622629803E+02  0.54367089828E+02  0.40000012880E+02 0.  0.
        -12    1    3    3    0    0 -0.11117900873E+02  0.29105396505E+02 -0.19622629803E+02  0.36820910172E+02  0.00000000000E+00 0.  1.
         11    1    4    4    0    0  0.81060063591E+01 -0.11241404496E+02  0.24721092716E+02  0.28340941048E+02  0.51100000000E-03 0. -1.
        -11    1    4    4    0    0 -0.66919064955E+01 -0.12995903983E+02 -0.21367092773E+01  0.14772970577E+02  0.51100000000E-03 0.  1.
        -12    1    4    4    0    0  0.97038010096E+01 -0.48680880257E+01 -0.29617536361E+01  0.11253178203E+02  0.00000000000E+00 0.  1.
</event>
<event>
 8    1  0.2482403E-006  0.9118800E+02  0.7816164E-02  0.1184000E+00
        -11   -1    0    0    0    0  0.00000000000E+00  0.00000000000E+00  0.45593999997E+02  0.45594000000E+02  0.51100000000E-03 0.  1.
         11   -1    0    0    0    0 -0.00000000000E+00 -0.00000000000E+00 -0.45593999997E+02  0.45594000000E+02  0.51100000000E-03 0. -1.
         23    2    1    2    0    0 -0.35527136788E-14  0.88817841970E-15 -0.35527136788E-14  0.91188000000E+02  0.91188000000E+02 0.  0.
    9900012    2    3    3    0    0 -0.21993093932E+02 -0.48976787963E+01  0.29122101456E+02  0.54367078889E+02  0.39999987943E+02 0.  0.
         12    1    3    3    0    0  0.21993093932E+02  0.48976787963E+01 -0.29122101456E+02  0.36820921111E+02  0.00000000000E+00 0. -1.
         11    1    4    4    0    0  0.23738764103E+01  0.34964793509E+01  0.98562483869E+01  0.10724098544E+02  0.51100000000E-03 0. -1.
        -11    1    4    4    0    0 -0.20037463408E+02  0.21867389110E+01  0.23936946380E+02  0.31293116962E+02  0.51100000000E-03 0.  1.
         12    1    4    4    0    0 -0.43295069339E+01 -0.10580897058E+02 -0.46710933116E+01  0.12349863383E+02  0.00000000000E+00 0. -1.
</event>
<event>
 8    1  0.2482403E-006  0.9118800E+02  0.7816164E-02  0.1184000E+00
        -11   -1    0    0    0    0  0.00000000000E+00  0.00000000000E+00  0.45593999997E+02  0.45594000000E+02  0.51100000000E-03 0. -1.
         11   -1    0    0    0    0 -0.00000000000E+00 -0.00000000000E+00 -0.45593999997E+02  0.45594000000E+02  0.51100000000E-03 0.  1.
         23    2    1    2    0    0  0.00000000000E+00 -0.71054273576E-14 -0.17763568394E-14  0.91188000000E+02  0.91188000000E+02 0.  0.
    9900012    2    3    3    0    0  0.12500996996E+01  0.33775158392E+02 -0.14610156851E+02  0.54367071754E+02  0.39999971678E+02 0.  0.
         12    1    3    3    0    0 -0.12500996996E+01 -0.33775158392E+02  0.14610156851E+02  0.36820928246E+02  0.00000000000E+00 0. -1.
         11    1    4    4    0    0  0.40008649298E+01  0.65281008854E+01  0.30662285255E+01  0.82477135612E+01  0.51100000000E-03 0. -1.
        -11    1    4    4    0    0  0.42580438063E+01  0.18626981513E+02 -0.25979559923E+02  0.32249541259E+02  0.51100000000E-03 0.  1.
         12    1    4    4    0    0 -0.70088090364E+01  0.86200759934E+01  0.83031745464E+01  0.13869816934E+02  0.00000000000E+00 0. -1.
</event>
<event>
 8    1  0.2482403E-006  0.9118800E+02  0.7816164E-02  0.1184000E+00
        -11   -1    0    0    0    0  0.00000000000E+00  0.00000000000E+00  0.45593999997E+02  0.45594000000E+02  0.51100000000E-03 0. -1.
         11   -1    0    0    0    0 -0.00000000000E+00 -0.00000000000E+00 -0.45593999997E+02  0.45594000000E+02  0.51100000000E-03 0.  1.
         23    2    1    2    0    0  0.00000000000E+00  0.00000000000E+00  0.35527136788E-14  0.91188000000E+02  0.91188000000E+02 0.  0.
    9900012    2    3    3    0    0  0.14363397671E+02  0.26258763237E+02  0.21446452464E+02  0.54367079823E+02  0.39999990073E+02 0.  0.
         12    1    3    3    0    0 -0.14363397671E+02 -0.26258763237E+02 -0.21446452464E+02  0.36820920177E+02  0.00000000000E+00 0. -1.
         11    1    4    4    0    0  0.24693946694E+01 -0.41253811265E+01 -0.25469071335E+01  0.54409021017E+01  0.51100000000E-03 0. -1.
        -11    1    4    4    0    0  0.68831574882E+01  0.25694229706E+02  0.29793552503E+02  0.39940293792E+02  0.51100000000E-03 0.  1.
        -12    1    4    4    0    0  0.50108455130E+01  0.46899146581E+01 -0.58001929057E+01  0.89858839297E+01  0.00000000000E+00 0.  1.
</event>
<event>
 8    1  0.2482403E-006  0.9118800E+02  0.7816164E-02  0.1184000E+00
        -11   -1    0    0    0    0  0.00000000000E+00  0.00000000000E+00  0.45593999997E+02  0.45594000000E+02  0.51100000000E-03 0.  1.
         11   -1    0    0    0    0 -0.00000000000E+00 -0.00000000000E+00 -0.45593999997E+02  0.45594000000E+02  0.51100000000E-03 0. -1.
         23    2    1    2    0    0  0.00000000000E+00  0.00000000000E+00  0.00000000000E+00  0.91188000000E+02  0.91188000000E+02 0.  0.
    9900012    2    3    3    0    0 -0.17255455536E+02  0.18217077266E+02  0.26947493624E+02  0.54367081184E+02  0.39999993174E+02 0.  0.
         12    1    3    3    0    0  0.17255455536E+02 -0.18217077266E+02 -0.26947493624E+02  0.36820918816E+02  0.00000000000E+00 0. -1.
         11    1    4    4    0    0 -0.42795997722E+00  0.63863401981E+01  0.91078913763E+01  0.11132033797E+02  0.51100000000E-03 0. -1.
        -11    1    4    4    0    0  0.26375464341E+01  0.18531263926E+02  0.98637540239E+01  0.21157930844E+02  0.51100000000E-03 0.  1.
         12    1    4    4    0    0 -0.19465041993E+02 -0.67005268581E+01  0.79758482238E+01  0.22077116543E+02  0.00000000000E+00 0. -1.
</event>
<event>
 8    1  0.2482403E-006  0.9118800E+02  0.7816164E-02  0.1184000E+00
        -11   -1    0    0    0    0  0.00000000000E+00  0.00000000000E+00  0.45593999997E+02  0.45594000000E+02  0.51100000000E-03 0. -1.
         11   -1    0    0    0    0 -0.00000000000E+00 -0.00000000000E+00 -0.45593999997E+02  0.45594000000E+02  0.51100000000E-03 0.  1.
         23    2    1    2    0    0  0.00000000000E+00  0.17763568394E-14  0.00000000000E+00  0.91188000000E+02  0.91188000000E+02 0.  0.
    9900012    2    3    3    0    0 -0.23381078283E+02  0.15782196321E+02  0.23664935335E+02  0.54367058855E+02  0.39999942273E+02 0.  0.
        -12    1    3    3    0    0  0.23381078283E+02 -0.15782196321E+02 -0.23664935335E+02  0.36820941145E+02  0.00000000000E+00 0.  1.
         11    1    4    4    0    0 -0.20554977631E+01  0.31129192579E+01  0.38786558335E+01  0.53813853882E+01  0.51100000000E-03 0. -1.
        -11    1    4    4    0    0  0.49263058365E+01 -0.44121823228E+01  0.16154647729E+02  0.17455901167E+02  0.51100000000E-03 0.  1.
        -12    1    4    4    0    0 -0.26251886356E+02  0.17081459385E+02  0.36316317729E+01  0.31529772300E+02  0.00000000000E+00 0.  1.
</event>
<event>
 8    1  0.2482403E-006  0.9118800E+02  0.7816164E-02  0.1184000E+00
        -11   -1    0    0    0    0  0.00000000000E+00  0.00000000000E+00  0.45593999997E+02  0.45594000000E+02  0.51100000000E-03 0.  1.
         11   -1    0    0    0    0 -0.00000000000E+00 -0.00000000000E+00 -0.45593999997E+02  0.45594000000E+02  0.51100000000E-03 0. -1.
         23    2    1    2    0    0  0.00000000000E+00  0.00000000000E+00  0.17763568394E-14  0.91188000000E+02  0.91188000000E+02 0.  0.
    9900012    2    3    3    0    0 -0.17203254951E+02  0.31274849942E+02  0.90394406250E+01  0.54367086016E+02  0.40000004190E+02 0.  0.
        -12    1    3    3    0    0  0.17203254951E+02 -0.31274849942E+02 -0.90394406250E+01  0.36820913984E+02  0.00000000000E+00 0.  1.
         11    1    4    4    0    0  0.37307250750E+01 -0.19961311933E+00 -0.41060469875E+01  0.55513761454E+01  0.51100000000E-03 0. -1.
        -11    1    4    4    0    0 -0.45666437528E+01 -0.42252971719E+01  0.64763293539E+01  0.89805463930E+01  0.51100000000E-03 0.  1.
         12    1    4    4    0    0 -0.16367336273E+02  0.35699760233E+02  0.66691582587E+01  0.39835163478E+02  0.00000000000E+00 0. -1.
</event>
<event>
 8    1  0.2482403E-006  0.9118800E+02  0.7816164E-02  0.1184000E+00
        -11   -1    0    0    0    0  0.00000000000E+00  0.00000000000E+00  0.45593999997E+02  0.45594000000E+02  0.51100000000E-03 0.  1.
         11   -1    0    0    0    0 -0.00000000000E+00 -0.00000000000E+00 -0.45593999997E+02  0.45594000000E+02  0.51100000000E-03 0. -1.
         23    2    1    2    0    0  0.00000000000E+00  0.00000000000E+00  0.35527136788E-14  0.91188000000E+02  0.91188000000E+02 0.  0.
    9900012    2    3    3    0    0 -0.25555481013E+02  0.21101726139E+02 -0.16044099512E+02  0.54367101247E+02  0.40000038912E+02 0.  0.
        -12    1    3    3    0    0  0.25555481013E+02 -0.21101726139E+02  0.16044099512E+02  0.36820898753E+02  0.00000000000E+00 0.  1.
         11    1    4    4    0    0 -0.77689016817E+01  0.14238199705E+02 -0.36573566189E+00  0.16223930689E+02  0.51100000000E-03 0. -1.
        -11    1    4    4    0    0 -0.15964202381E+02 -0.81951043741E+01 -0.14236703140E+02  0.22906313757E+02  0.51100000000E-03 0.  1.
        -12    1    4    4    0    0 -0.18223769502E+01  0.15058630809E+02 -0.14416607099E+01  0.15236856801E+02  0.00000000000E+00 0.  1.
</event>
<event>
 8    1  0.2482403E-006  0.9118800E+02  0.7816164E-02  0.1184000E+00
        -11   -1    0    0    0    0  0.00000000000E+00  0.00000000000E+00  0.45593999997E+02  0.45594000000E+02  0.51100000000E-03 0.  1.
         11   -1    0    0    0    0 -0.00000000000E+00 -0.00000000000E+00 -0.45593999997E+02  0.45594000000E+02  0.51100000000E-03 0. -1.
         23    2    1    2    0    0 -0.35527136788E-14  0.00000000000E+00  0.00000000000E+00  0.91188000000E+02  0.91188000000E+02 0.  0.
    9900012    2    3    3    0    0 -0.27034108951E+02 -0.16017652304E+02  0.19192989783E+02  0.54367094404E+02  0.40000023313E+02 0.  0.
         12    1    3    3    0    0  0.27034108951E+02  0.16017652304E+02 -0.19192989783E+02  0.36820905596E+02  0.00000000000E+00 0. -1.
         11    1    4    4    0    0 -0.13629712789E+02 -0.36513418447E+01 -0.18180665567E+01  0.14226972069E+02  0.51100000000E-03 0. -1.
        -11    1    4    4    0    0 -0.78044235390E+01 -0.18994562620E+02  0.38261835744E+01  0.20888803626E+02  0.51100000000E-03 0.  1.
         12    1    4    4    0    0 -0.55999726230E+01  0.66282521611E+01  0.17184872765E+02  0.19251318709E+02  0.00000000000E+00 0. -1.
</event>
<event>
 8    1  0.2482403E-006  0.9118800E+02  0.7816164E-02  0.1184000E+00
        -11   -1    0    0    0    0  0.00000000000E+00  0.00000000000E+00  0.45593999997E+02  0.45594000000E+02  0.51100000000E-03 0. -1.
         11   -1    0    0    0    0 -0.00000000000E+00 -0.00000000000E+00 -0.45593999997E+02  0.45594000000E+02  0.51100000000E-03 0.  1.
         23    2    1    2    0    0  0.00000000000E+00  0.00000000000E+00  0.00000000000E+00  0.91188000000E+02  0.91188000000E+02 0.  0.
    9900012    2    3    3    0    0 -0.86797874147E+01  0.86559725854E+01  0.34720523852E+02  0.54367090892E+02  0.40000015307E+02 0.  0.
        -12    1    3    3    0    0  0.86797874147E+01 -0.86559725854E+01 -0.34720523852E+02  0.36820909108E+02  0.00000000000E+00 0.  1.
         11    1    4    4    0    0 -0.42321975393E+01 -0.10319551016E+02  0.12612146079E+02  0.16836592831E+02  0.51100000000E-03 0. -1.
        -11    1    4    4    0    0 -0.58115848535E+01 -0.25294314095E+01 -0.42492328793E+00  0.63524091356E+01  0.51100000000E-03 0.  1.
         12    1    4    4    0    0  0.13639949780E+01  0.21504955011E+02  0.22533301061E+02  0.31178088925E+02  0.00000000000E+00 0. -1.
</event>
<event>
 8    1  0.2482403E-006  0.9118800E+02  0.7816164E-02  0.1184000E+00
        -11   -1    0    0    0    0  0.00000000000E+00  0.00000000000E+00  0.45593999997E+02  0.45594000000E+02  0.51100000000E-03 0.  1.
         11   -1    0    0    0    0 -0.00000000000E+00 -0.00000000000E+00 -0.45593999997E+02  0.45594000000E+02  0.51100000000E-03 0. -1.
         23    2    1    2    0    0 -0.35527136788E-14  0.00000000000E+00 -0.88817841970E-15  0.91188000000E+02  0.91188000000E+02 0.  0.
    9900012    2    3    3    0    0 -0.25832329393E+02  0.25599579592E+02 -0.57560820759E+01  0.54367079344E+02  0.39999988980E+02 0.  0.
         12    1    3    3    0    0  0.25832329393E+02 -0.25599579592E+02  0.57560820759E+01  0.36820920656E+02  0.00000000000E+00 0. -1.
         11    1    4    4    0    0  0.92182299418E+01  0.66403096974E+01  0.29388621901E+00  0.11364675337E+02  0.51100000000E-03 0. -1.
        -11    1    4    4    0    0 -0.14537118435E+02 -0.11986790465E+00 -0.14044064930E+01  0.14605291458E+02  0.51100000000E-03 0.  1.
        -12    1    4    4    0    0 -0.20513440899E+02  0.19079137799E+02 -0.46455618019E+01  0.28397112549E+02  0.00000000000E+00 0.  1.
</event>
<event>
 8    1  0.2482403E-006  0.9118800E+02  0.7816164E-02  0.1184000E+00
        -11   -1    0    0    0    0  0.00000000000E+00  0.00000000000E+00  0.45593999997E+02  0.45594000000E+02  0.51100000000E-03 0.  1.
         11   -1    0    0    0    0 -0.00000000000E+00 -0.00000000000E+00 -0.45593999997E+02  0.45594000000E+02  0.51100000000E-03 0. -1.
         23    2    1    2    0    0 -0.35527136788E-14  0.00000000000E+00  0.35527136788E-14  0.91188000000E+02  0.91188000000E+02 0.  0.
    9900012    2    3    3    0    0  0.17815727919E+02  0.26814635922E+02 -0.17870556398E+02  0.54367059669E+02  0.39999944126E+02 0.  0.
        -12    1    3    3    0    0 -0.17815727919E+02 -0.26814635922E+02  0.17870556398E+02  0.36820940331E+02  0.00000000000E+00 0.  1.
         11    1    4    4    0    0  0.22366338520E+02  0.27424065849E+02 -0.14499468768E+02  0.38243523390E+02  0.51100000000E-03 0. -1.
        -11    1    4    4    0    0 -0.30826151209E+01  0.63606173913E+01  0.18329739028E+01  0.73020382889E+01  0.51100000000E-03 0.  1.
        -12    1    4    4    0    0 -0.14679954799E+01 -0.69700473181E+01 -0.52040615333E+01  0.88214979900E+01  0.00000000000E+00 0.  1.
</event>
<event>
 8    1  0.2482403E-006  0.9118800E+02  0.7816164E-02  0.1184000E+00
        -11   -1    0    0    0    0  0.00000000000E+00  0.00000000000E+00  0.45593999997E+02  0.45594000000E+02  0.51100000000E-03 0. -1.
         11   -1    0    0    0    0 -0.00000000000E+00 -0.00000000000E+00 -0.45593999997E+02  0.45594000000E+02  0.51100000000E-03 0.  1.
         23    2    1    2    0    0  0.35527136788E-14  0.00000000000E+00  0.00000000000E+00  0.91188000000E+02  0.91188000000E+02 0.  0.
    9900012    2    3    3    0    0  0.19156235733E+02 -0.26952384310E+02  0.16198436706E+02  0.54367058415E+02  0.39999941270E+02 0.  0.
         12    1    3    3    0    0 -0.19156235733E+02  0.26952384310E+02 -0.16198436706E+02  0.36820941585E+02  0.00000000000E+00 0. -1.
         11    1    4    4    0    0  0.24991189150E+02 -0.15414349955E+02 -0.28935724003E+01  0.29504821321E+02  0.51100000000E-03 0.  1.
        -11    1    4    4    0    0 -0.22142385284E+01 -0.11377627503E+02  0.17287158398E+02  0.20813435699E+02  0.51100000000E-03 0. -1.
        -12    1    4    4    0    0 -0.36207148887E+01 -0.16040685264E+00  0.18048507086E+01  0.40488013960E+01  0.00000000000E+00 0.  1.
</event>
<event>
 8    1  0.2482403E-006  0.9118800E+02  0.7816164E-02  0.1184000E+00
        -11   -1    0    0    0    0  0.00000000000E+00  0.00000000000E+00  0.45593999997E+02  0.45594000000E+02  0.51100000000E-03 0.  1.
         11   -1    0    0    0    0 -0.00000000000E+00 -0.00000000000E+00 -0.45593999997E+02  0.45594000000E+02  0.51100000000E-03 0. -1.
         23    2    1    2    0    0  0.17763568394E-14 -0.88817841970E-15  0.71054273576E-14  0.91188000000E+02  0.91188000000E+02 0.  0.
    9900012    2    3    3    0    0  0.93852790693E+01 -0.63031786797E+01  0.35042378787E+02  0.54367057105E+02  0.39999938282E+02 0.  0.
         12    1    3    3    0    0 -0.93852790693E+01  0.63031786797E+01 -0.35042378787E+02  0.36820942895E+02  0.00000000000E+00 0. -1.
         11    1    4    4    0    0 -0.97073009354E+00 -0.24574432165E+01  0.38862521862E+01  0.46993936197E+01  0.51100000000E-03 0. -1.
        -11    1    4    4    0    0 -0.26662676084E+01 -0.18006067913E+02  0.21410104636E+02  0.28101958036E+02  0.51100000000E-03 0.  1.
         12    1    4    4    0    0  0.13022276771E+02  0.14160332450E+02  0.97460219644E+01  0.21565705449E+02  0.00000000000E+00 0. -1.
</event>
<event>
 8    1  0.2482403E-006  0.9118800E+02  0.7816164E-02  0.1184000E+00
        -11   -1    0    0    0    0  0.00000000000E+00  0.00000000000E+00  0.45593999997E+02  0.45594000000E+02  0.51100000000E-03 0.  1.
         11   -1    0    0    0    0 -0.00000000000E+00 -0.00000000000E+00 -0.45593999997E+02  0.45594000000E+02  0.51100000000E-03 0. -1.
         23    2    1    2    0    0  0.00000000000E+00  0.00000000000E+00 -0.35527136788E-14  0.91188000000E+02  0.91188000000E+02 0.  0.
    9900012    2    3    3    0    0  0.32475350421E+02 -0.64788969520E+01 -0.16098302874E+02  0.54367084122E+02  0.39999999872E+02 0.  0.
        -12    1    3    3    0    0 -0.32475350421E+02  0.64788969520E+01  0.16098302874E+02  0.36820915878E+02  0.00000000000E+00 0.  1.
         11    1    4    4    0    0  0.15988283665E+02 -0.48131535784E+01 -0.83394534262E+01  0.18663819160E+02  0.51100000000E-03 0. -1.
        -11    1    4    4    0    0  0.18415880077E+02 -0.98318595386E+01 -0.14094997651E+02  0.25188867780E+02  0.51100000000E-03 0.  1.
        -12    1    4    4    0    0 -0.19288133201E+01  0.81661161650E+01  0.63361482039E+01  0.10514397182E+02  0.00000000000E+00 0.  1.
</event>
<event>
 8    1  0.2482403E-006  0.9118800E+02  0.7816164E-02  0.1184000E+00
        -11   -1    0    0    0    0  0.00000000000E+00  0.00000000000E+00  0.45593999997E+02  0.45594000000E+02  0.51100000000E-03 0.  1.
         11   -1    0    0    0    0 -0.00000000000E+00 -0.00000000000E+00 -0.45593999997E+02  0.45594000000E+02  0.51100000000E-03 0. -1.
         23    2    1    2    0    0 -0.35527136788E-14 -0.71054273576E-14 -0.33306690739E-15  0.91188000000E+02  0.91188000000E+02 0.  0.
    9900012    2    3    3    0    0 -0.19056246631E+02 -0.31499843223E+02 -0.63161625118E+00  0.54367087493E+02  0.40000007559E+02 0.  0.
         12    1    3    3    0    0  0.19056246631E+02  0.31499843223E+02  0.63161625118E+00  0.36820912507E+02  0.00000000000E+00 0. -1.
         11    1    4    4    0    0  0.60049061679E+01  0.17748958826E+00 -0.14568740471E+01  0.61816569696E+01  0.51100000000E-03 0. -1.
        -11    1    4    4    0    0 -0.66986550429E+01  0.27497790999E+01 -0.49090652253E+01  0.87482676074E+01  0.51100000000E-03 0.  1.
        -12    1    4    4    0    0 -0.18362497756E+02 -0.34427111911E+02  0.57343230213E+01  0.39437162916E+02  0.00000000000E+00 0.  1.
</event>
<event>
 8    1  0.2482403E-006  0.9118800E+02  0.7816164E-02  0.1184000E+00
        -11   -1    0    0    0    0  0.00000000000E+00  0.00000000000E+00  0.45593999997E+02  0.45594000000E+02  0.51100000000E-03 0.  1.
         11   -1    0    0    0    0 -0.00000000000E+00 -0.00000000000E+00 -0.45593999997E+02  0.45594000000E+02  0.51100000000E-03 0. -1.
         23    2    1    2    0    0  0.00000000000E+00 -0.17763568394E-14  0.35527136788E-14  0.91188000000E+02  0.91188000000E+02 0.  0.
    9900012    2    3    3    0    0  0.14707038800E+02 -0.11309380182E+02 -0.31805361556E+02  0.54367080755E+02  0.39999992197E+02 0.  0.
        -12    1    3    3    0    0 -0.14707038800E+02  0.11309380182E+02  0.31805361556E+02  0.36820919245E+02  0.00000000000E+00 0.  1.
         11    1    4    4    0    0 -0.43627037061E+01 -0.11490946436E+02 -0.32742793165E+02  0.34973783583E+02  0.51100000000E-03 0. -1.
        -11    1    4    4    0    0  0.80461260590E+01  0.17073063509E+01  0.79602052175E+00  0.82636970216E+01  0.51100000000E-03 0.  1.
         12    1    4    4    0    0  0.11023616447E+02 -0.15257400970E+01  0.14141108735E+00  0.11129600150E+02  0.00000000000E+00 0. -1.
</event>
<event>
 8    1  0.2482403E-006  0.9118800E+02  0.7816164E-02  0.1184000E+00
        -11   -1    0    0    0    0  0.00000000000E+00  0.00000000000E+00  0.45593999997E+02  0.45594000000E+02  0.51100000000E-03 0.  1.
         11   -1    0    0    0    0 -0.00000000000E+00 -0.00000000000E+00 -0.45593999997E+02  0.45594000000E+02  0.51100000000E-03 0. -1.
         23    2    1    2    0    0  0.35527136788E-14  0.00000000000E+00  0.00000000000E+00  0.91188000000E+02  0.91188000000E+02 0.  0.
    9900012    2    3    3    0    0  0.27574665612E+02  0.19301859527E+02  0.14928316949E+02  0.54367100883E+02  0.40000038084E+02 0.  0.
         12    1    3    3    0    0 -0.27574665612E+02 -0.19301859527E+02 -0.14928316949E+02  0.36820899117E+02  0.00000000000E+00 0. -1.
         11    1    4    4    0    0 -0.66727795254E+01  0.44933104844E+01  0.23036057914E+01  0.83679403444E+01  0.51100000000E-03 0. -1.
        -11    1    4    4    0    0  0.16912901785E+02  0.15918947436E+02 -0.19726846070E+01  0.23309882434E+02  0.51100000000E-03 0.  1.
        -12    1    4    4    0    0  0.17334543352E+02 -0.11103983928E+01  0.14597395765E+02  0.22689278105E+02  0.00000000000E+00 0.  1.
</event>
<event>
 8    1  0.2482403E-006  0.9118800E+02  0.7816164E-02  0.1184000E+00
        -11   -1    0    0    0    0  0.00000000000E+00  0.00000000000E+00  0.45593999997E+02  0.45594000000E+02  0.51100000000E-03 0. -1.
         11   -1    0    0    0    0 -0.00000000000E+00 -0.00000000000E+00 -0.45593999997E+02  0.45594000000E+02  0.51100000000E-03 0.  1.
         23    2    1    2    0    0  0.26645352591E-14 -0.35527136788E-14  0.71054273576E-14  0.91188000000E+02  0.91188000000E+02 0.  0.
    9900012    2    3    3    0    0 -0.60818416321E+01  0.20912879747E+02 -0.29689167664E+02  0.54367027531E+02  0.39999870862E+02 0.  0.
         12    1    3    3    0    0  0.60818416321E+01 -0.20912879747E+02  0.29689167664E+02  0.36820972469E+02  0.00000000000E+00 0. -1.
         11    1    4    4    0    0  0.27952507906E+01  0.11843361978E+02  0.59282038277E+01  0.13535961392E+02  0.51100000000E-03 0. -1.
        -11    1    4    4    0    0 -0.79522660692E+01  0.13334759705E+02 -0.26270440787E+02  0.30515412686E+02  0.51100000000E-03 0.  1.
         12    1    4    4    0    0 -0.92482635352E+00 -0.42652419355E+01 -0.93469307052E+01  0.10315653453E+02  0.00000000000E+00 0. -1.
</event>
<event>
 8    1  0.2482403E-006  0.9118800E+02  0.7816164E-02  0.1184000E+00
        -11   -1    0    0    0    0  0.00000000000E+00  0.00000000000E+00  0.45593999997E+02  0.45594000000E+02  0.51100000000E-03 0.  1.
         11   -1    0    0    0    0 -0.00000000000E+00 -0.00000000000E+00 -0.45593999997E+02  0.45594000000E+02  0.51100000000E-03 0. -1.
         23    2    1    2    0    0 -0.17763568394E-14  0.00000000000E+00 -0.17763568394E-14  0.91188000000E+02  0.91188000000E+02 0.  0.
    9900012    2    3    3    0    0 -0.72957696975E+01 -0.33037617327E+02  0.14528181270E+02  0.54367075716E+02  0.39999980710E+02 0.  0.
         12    1    3    3    0    0  0.72957696975E+01  0.33037617327E+02 -0.14528181270E+02  0.36820924284E+02  0.00000000000E+00 0. -1.
         11    1    4    4    0    0 -0.12643156290E+02  0.14405658463E+01 -0.11339197171E+01  0.12775382777E+02  0.51100000000E-03 0. -1.
        -11    1    4    4    0    0  0.34097656074E+01 -0.13304954862E+02  0.14973547288E+02  0.20318844554E+02  0.51100000000E-03 0.  1.
        -12    1    4    4    0    0  0.19376209848E+01 -0.21173228311E+02  0.68855369876E+00  0.21272848385E+02  0.00000000000E+00 0.  1.
</event>
<event>
 8    1  0.2482403E-006  0.9118800E+02  0.7816164E-02  0.1184000E+00
        -11   -1    0    0    0    0  0.00000000000E+00  0.00000000000E+00  0.45593999997E+02  0.45594000000E+02  0.51100000000E-03 0. -1.
         11   -1    0    0    0    0 -0.00000000000E+00 -0.00000000000E+00 -0.45593999997E+02  0.45594000000E+02  0.51100000000E-03 0.  1.
         23    2    1    2    0    0  0.00000000000E+00  0.00000000000E+00  0.35527136788E-14  0.91188000000E+02  0.91188000000E+02 0.  0.
    9900012    2    3    3    0    0  0.31133220066E+02  0.19258786383E+01 -0.19565058910E+02  0.54367110137E+02  0.40000059179E+02 0.  0.
         12    1    3    3    0    0 -0.31133220066E+02 -0.19258786383E+01  0.19565058910E+02  0.36820889863E+02  0.00000000000E+00 0. -1.
         11    1    4    4    0    0  0.32002112438E+01  0.92124592054E+01  0.72463623449E+01  0.12149918687E+02  0.51100000000E-03 0. -1.
        -11    1    4    4    0    0  0.89776843588E+01 -0.13417762126E+01 -0.29180536479E+00  0.90820884428E+01  0.51100000000E-03 0.  1.
        -12    1    4    4    0    0  0.18955324463E+02 -0.59448043545E+01 -0.26519615890E+02  0.33135103006E+02  0.00000000000E+00 0.  1.
</event>
<event>
 8    1  0.2482403E-006  0.9118800E+02  0.7816164E-02  0.1184000E+00
        -11   -1    0    0    0    0  0.00000000000E+00  0.00000000000E+00  0.45593999997E+02  0.45594000000E+02  0.51100000000E-03 0.  1.
         11   -1    0    0    0    0 -0.00000000000E+00 -0.00000000000E+00 -0.45593999997E+02  0.45594000000E+02  0.51100000000E-03 0. -1.
         23    2    1    2    0    0  0.00000000000E+00  0.35527136788E-14  0.00000000000E+00  0.91188000000E+02  0.91188000000E+02 0.  0.
    9900012    2    3    3    0    0 -0.30699566516E+02  0.17516941051E+02  0.10318595713E+02  0.54367081685E+02  0.39999994317E+02 0.  0.
        -12    1    3    3    0    0  0.30699566516E+02 -0.17516941051E+02 -0.10318595713E+02  0.36820918315E+02  0.00000000000E+00 0.  1.
         11    1    4    4    0    0 -0.30271984966E+02  0.66125595932E+01  0.15382674985E+01  0.31023946965E+02  0.51100000000E-03 0.  1.
        -11    1    4    4    0    0 -0.69288701031E+01  0.33753236447E+01 -0.26872049091E+01  0.81622987630E+01  0.51100000000E-03 0. -1.
        -12    1    4    4    0    0  0.65012885525E+01  0.75290578135E+01  0.11467533123E+02  0.15180835956E+02  0.00000000000E+00 0.  1.
</event>
<event>
 8    1  0.2482403E-006  0.9118800E+02  0.7816164E-02  0.1184000E+00
        -11   -1    0    0    0    0  0.00000000000E+00  0.00000000000E+00  0.45593999997E+02  0.45594000000E+02  0.51100000000E-03 0.  1.
         11   -1    0    0    0    0 -0.00000000000E+00 -0.00000000000E+00 -0.45593999997E+02  0.45594000000E+02  0.51100000000E-03 0. -1.
         23    2    1    2    0    0  0.17763568394E-14  0.71054273576E-14 -0.17763568394E-14  0.91188000000E+02  0.91188000000E+02 0.  0.
    9900012    2    3    3    0    0  0.75671673760E+01  0.34547536489E+02 -0.10246259998E+02  0.54367080084E+02  0.39999990666E+02 0.  0.
        -12    1    3    3    0    0 -0.75671673760E+01 -0.34547536489E+02  0.10246259998E+02  0.36820919916E+02  0.00000000000E+00 0.  1.
         11    1    4    4    0    0  0.38788652791E+01  0.17691773642E+02 -0.42265683486E+00  0.18116928258E+02  0.51100000000E-03 0. -1.
        -11    1    4    4    0    0 -0.10091106111E+02  0.11078901773E+02  0.44029101397E+01  0.15619158268E+02  0.51100000000E-03 0.  1.
        -12    1    4    4    0    0  0.13779408208E+02  0.57768610741E+01 -0.14226513302E+02  0.20630993558E+02  0.00000000000E+00 0.  1.
</event>
<event>
 8    1  0.2482403E-006  0.9118800E+02  0.7816164E-02  0.1184000E+00
        -11   -1    0    0    0    0  0.00000000000E+00  0.00000000000E+00  0.45593999997E+02  0.45594000000E+02  0.51100000000E-03 0.  1.
         11   -1    0    0    0    0 -0.00000000000E+00 -0.00000000000E+00 -0.45593999997E+02  0.45594000000E+02  0.51100000000E-03 0. -1.
         23    2    1    2    0    0 -0.88817841970E-15  0.00000000000E+00  0.17763568394E-14  0.91188000000E+02  0.91188000000E+02 0.  0.
    9900012    2    3    3    0    0  0.61066805092E+01 -0.32837747971E+02 -0.15497439422E+02  0.54367083835E+02  0.39999999218E+02 0.  0.
        -12    1    3    3    0    0 -0.61066805092E+01  0.32837747971E+02  0.15497439422E+02  0.36820916165E+02  0.00000000000E+00 0.  1.
         11    1    4    4    0    0  0.12218426394E+02 -0.51318302927E+01  0.61538574734E+01  0.14611488212E+02  0.51100000000E-03 0. -1.
        -11    1    4    4    0    0  0.22038557769E+01  0.96503177686E+00  0.65069681724E+00  0.24923228572E+01  0.51100000000E-03 0.  1.
         12    1    4    4    0    0 -0.83156016618E+01 -0.28670949455E+02 -0.22301993712E+02  0.37263272765E+02  0.00000000000E+00 0. -1.
</event>
<event>
 8    1  0.2482403E-006  0.9118800E+02  0.7816164E-02  0.1184000E+00
        -11   -1    0    0    0    0  0.00000000000E+00  0.00000000000E+00  0.45593999997E+02  0.45594000000E+02  0.51100000000E-03 0. -1.
         11   -1    0    0    0    0 -0.00000000000E+00 -0.00000000000E+00 -0.45593999997E+02  0.45594000000E+02  0.51100000000E-03 0.  1.
         23    2    1    2    0    0  0.00000000000E+00  0.00000000000E+00  0.00000000000E+00  0.91188000000E+02  0.91188000000E+02 0.  0.
    9900012    2    3    3    0    0  0.12981351660E+02  0.27928188943E+02  0.20181186603E+02  0.54367088533E+02  0.40000009928E+02 0.  0.
        -12    1    3    3    0    0 -0.12981351660E+02 -0.27928188943E+02 -0.20181186603E+02  0.36820911467E+02  0.00000000000E+00 0.  1.
         11    1    4    4    0    0 -0.50280659299E+01  0.11054035057E+02  0.14953254115E+02  0.19263253799E+02  0.51100000000E-03 0. -1.
        -11    1    4    4    0    0  0.23832408256E+02  0.16264088292E+02  0.45537044328E+01  0.29210280306E+02  0.51100000000E-03 0.  1.
        -12    1    4    4    0    0 -0.58229906653E+01  0.61006559358E+00  0.67422805522E+00  0.58935544273E+01  0.00000000000E+00 0.  1.
</event>
<event>
 8    1  0.2482403E-006  0.9118800E+02  0.7816164E-02  0.1184000E+00
        -11   -1    0    0    0    0  0.00000000000E+00  0.00000000000E+00  0.45593999997E+02  0.45594000000E+02  0.51100000000E-03 0.  1.
         11   -1    0    0    0    0 -0.00000000000E+00 -0.00000000000E+00 -0.45593999997E+02  0.45594000000E+02  0.51100000000E-03 0. -1.
         23    2    1    2    0    0 -0.71054273576E-14  0.00000000000E+00  0.22204460493E-15  0.91188000000E+02  0.91188000000E+02 0.  0.
    9900012    2    3    3    0    0 -0.34499100141E+02 -0.12742882782E+02 -0.17918601519E+01  0.54367085631E+02  0.40000003314E+02 0.  0.
         12    1    3    3    0    0  0.34499100141E+02  0.12742882782E+02  0.17918601519E+01  0.36820914369E+02  0.00000000000E+00 0. -1.
         11    1    4    4    0    0 -0.25974843605E+02 -0.85765668175E+01  0.89491041353E+01  0.28780835008E+02  0.51100000000E-03 0. -1.
        -11    1    4    4    0    0 -0.15465595988E+02 -0.22781008173E+01 -0.50956831269E+01  0.16442031182E+02  0.51100000000E-03 0.  1.
         12    1    4    4    0    0  0.69413394514E+01 -0.18882151470E+01 -0.56452811603E+01  0.91442194418E+01  0.00000000000E+00 0. -1.
</event>
<event>
 8    1  0.2482403E-006  0.9118800E+02  0.7816164E-02  0.1184000E+00
        -11   -1    0    0    0    0  0.00000000000E+00  0.00000000000E+00  0.45593999997E+02  0.45594000000E+02  0.51100000000E-03 0.  1.
         11   -1    0    0    0    0 -0.00000000000E+00 -0.00000000000E+00 -0.45593999997E+02  0.45594000000E+02  0.51100000000E-03 0. -1.
         23    2    1    2    0    0  0.00000000000E+00 -0.17763568394E-14  0.00000000000E+00  0.91188000000E+02  0.91188000000E+02 0.  0.
    9900012    2    3    3    0    0 -0.21237352446E+02 -0.15507751618E+02  0.25773342337E+02  0.54367072874E+02  0.39999974232E+02 0.  0.
         12    1    3    3    0    0  0.21237352446E+02  0.15507751618E+02 -0.25773342337E+02  0.36820927126E+02  0.00000000000E+00 0. -1.
         11    1    4    4    0    0 -0.52527362376E+00 -0.14062739118E+01  0.12424884521E+01  0.19486653150E+01  0.51100000000E-03 0. -1.
        -11    1    4    4    0    0 -0.24562894184E+02 -0.22585695430E+02  0.94313414682E+01  0.34675634254E+02  0.51100000000E-03 0.  1.
         12    1    4    4    0    0  0.38508153622E+01  0.84842177237E+01  0.15099512417E+02  0.17742773306E+02  0.00000000000E+00 0. -1.
</event>
<event>
 8    1  0.2482403E-006  0.9118800E+02  0.7816164E-02  0.1184000E+00
        -11   -1    0    0    0    0  0.00000000000E+00  0.00000000000E+00  0.45593999997E+02  0.45594000000E+02  0.51100000000E-03 0.  1.
         11   -1    0    0    0    0 -0.00000000000E+00 -0.00000000000E+00 -0.45593999997E+02  0.45594000000E+02  0.51100000000E-03 0. -1.
         23    2    1    2    0    0  0.00000000000E+00  0.00000000000E+00  0.00000000000E+00  0.91188000000E+02  0.91188000000E+02 0.  0.
    9900012    2    3    3    0    0 -0.20573706557E+01 -0.35739728696E+02 -0.86150188626E+01  0.54367088397E+02  0.40000009618E+02 0.  0.
        -12    1    3    3    0    0  0.20573706557E+01  0.35739728696E+02  0.86150188626E+01  0.36820911603E+02  0.00000000000E+00 0.  1.
         11    1    4    4    0    0 -0.61567209928E+00 -0.19345840504E+01  0.49636387314E+01  0.53627770137E+01  0.51100000000E-03 0. -1.
        -11    1    4    4    0    0 -0.61513510401E+01 -0.61152960456E+01  0.93446503956E+01  0.12749841435E+02  0.51100000000E-03 0.  1.
         12    1    4    4    0    0  0.47096524837E+01 -0.27689848600E+02 -0.22923307990E+02  0.36254469948E+02  0.00000000000E+00 0. -1.
</event>
<event>
 8    1  0.2482403E-006  0.9118800E+02  0.7816164E-02  0.1184000E+00
        -11   -1    0    0    0    0  0.00000000000E+00  0.00000000000E+00  0.45593999997E+02  0.45594000000E+02  0.51100000000E-03 0. -1.
         11   -1    0    0    0    0 -0.00000000000E+00 -0.00000000000E+00 -0.45593999997E+02  0.45594000000E+02  0.51100000000E-03 0.  1.
         23    2    1    2    0    0  0.00000000000E+00 -0.17763568394E-14 -0.44408920985E-15  0.91188000000E+02  0.91188000000E+02 0.  0.
    9900012    2    3    3    0    0  0.35929695985E+02  0.72902576686E+01 -0.34191035658E+01  0.54367066014E+02  0.39999958592E+02 0.  0.
         12    1    3    3    0    0 -0.35929695985E+02 -0.72902576686E+01  0.34191035658E+01  0.36820933986E+02  0.00000000000E+00 0. -1.
         11    1    4    4    0    0  0.28767229119E+01  0.27672665586E+01  0.23329288704E+00  0.39984652994E+01  0.51100000000E-03 0. -1.
        -11    1    4    4    0    0  0.20253026724E+02  0.20367616486E+02 -0.73922792842E+01  0.29659242844E+02  0.51100000000E-03 0.  1.
        -12    1    4    4    0    0  0.12799946348E+02 -0.15844625376E+02  0.37398828314E+01  0.20709357871E+02  0.00000000000E+00 0.  1.
</event>
<event>
 8    1  0.2482403E-006  0.9118800E+02  0.7816164E-02  0.1184000E+00
        -11   -1    0    0    0    0  0.00000000000E+00  0.00000000000E+00  0.45593999997E+02  0.45594000000E+02  0.51100000000E-03 0. -1.
         11   -1    0    0    0    0 -0.00000000000E+00 -0.00000000000E+00 -0.45593999997E+02  0.45594000000E+02  0.51100000000E-03 0.  1.
         23    2    1    2    0    0  0.00000000000E+00  0.71054273576E-14 -0.26645352591E-14  0.91188000000E+02  0.91188000000E+02 0.  0.
    9900012    2    3    3    0    0 -0.15989999701E+02  0.32369499493E+02 -0.72328998489E+01  0.54367089798E+02  0.40000012813E+02 0.  0.
        -12    1    3    3    0    0  0.15989999701E+02 -0.32369499493E+02  0.72328998489E+01  0.36820910202E+02  0.00000000000E+00 0.  1.
         11    1    4    4    0    0 -0.13088656787E+01  0.10715779663E+02  0.10953118271E+02  0.15378942202E+02  0.51100000000E-03 0. -1.
        -11    1    4    4    0    0 -0.98124033397E+01  0.16871009256E+02 -0.23348023297E+02  0.30430977716E+02  0.51100000000E-03 0.  1.
        -12    1    4    4    0    0 -0.48687306829E+01  0.47827105738E+01  0.51620051775E+01  0.85571698796E+01  0.00000000000E+00 0.  1.
</event>
<event>
 8    1  0.2482403E-006  0.9118800E+02  0.7816164E-02  0.1184000E+00
        -11   -1    0    0    0    0  0.00000000000E+00  0.00000000000E+00  0.45593999997E+02  0.45594000000E+02  0.51100000000E-03 0. -1.
         11   -1    0    0    0    0 -0.00000000000E+00 -0.00000000000E+00 -0.45593999997E+02  0.45594000000E+02  0.51100000000E-03 0.  1.
         23    2    1    2    0    0  0.00000000000E+00  0.71054273576E-14  0.00000000000E+00  0.91188000000E+02  0.91188000000E+02 0.  0.
    9900012    2    3    3    0    0 -0.12359761734E+02  0.34464346814E+02 -0.39019121246E+01  0.54367084345E+02  0.40000000382E+02 0.  0.
        -12    1    3    3    0    0  0.12359761734E+02 -0.34464346814E+02  0.39019121246E+01  0.36820915655E+02  0.00000000000E+00 0.  1.
         11    1    4    4    0    0 -0.18198518125E+01 -0.68448179822E+01  0.43439976937E+00  0.70959211700E+01  0.51100000000E-03 0. -1.
        -11    1    4    4    0    0 -0.12804320139E+02  0.24785751684E+02 -0.10033334114E+02  0.29647122870E+02  0.51100000000E-03 0.  1.
         12    1    4    4    0    0  0.22644102183E+01  0.16523413112E+02  0.56970222196E+01  0.17624040305E+02  0.00000000000E+00 0. -1.
</event>
<event>
 8    1  0.2482403E-006  0.9118800E+02  0.7816164E-02  0.1184000E+00
        -11   -1    0    0    0    0  0.00000000000E+00  0.00000000000E+00  0.45593999997E+02  0.45594000000E+02  0.51100000000E-03 0. -1.
         11   -1    0    0    0    0 -0.00000000000E+00 -0.00000000000E+00 -0.45593999997E+02  0.45594000000E+02  0.51100000000E-03 0.  1.
         23    2    1    2    0    0  0.00000000000E+00  0.00000000000E+00  0.00000000000E+00  0.91188000000E+02  0.91188000000E+02 0.  0.
    9900012    2    3    3    0    0 -0.22900215858E+02  0.17416509518E+02  0.22978813237E+02  0.54367074592E+02  0.39999978147E+02 0.  0.
        -12    1    3    3    0    0  0.22900215858E+02 -0.17416509518E+02 -0.22978813237E+02  0.36820925408E+02  0.00000000000E+00 0.  1.
         11    1    4    4    0    0  0.63716874942E+01  0.54673229446E+01  0.19169195789E+02  0.20927209302E+02  0.51100000000E-03 0. -1.
        -11    1    4    4    0    0 -0.20155221720E+02  0.33247658459E+01  0.38468406839E+00  0.20431226410E+02  0.51100000000E-03 0.  1.
         12    1    4    4    0    0 -0.91166816320E+01  0.86244207270E+01  0.34249333797E+01  0.13008638880E+02  0.00000000000E+00 0. -1.
</event>
<event>
 8    1  0.2482403E-006  0.9118800E+02  0.7816164E-02  0.1184000E+00
        -11   -1    0    0    0    0  0.00000000000E+00  0.00000000000E+00  0.45593999997E+02  0.45594000000E+02  0.51100000000E-03 0.  1.
         11   -1    0    0    0    0 -0.00000000000E+00 -0.00000000000E+00 -0.45593999997E+02  0.45594000000E+02  0.51100000000E-03 0. -1.
         23    2    1    2    0    0  0.00000000000E+00 -0.83266726847E-15 -0.35527136788E-14  0.91188000000E+02  0.91188000000E+02 0.  0.
    9900012    2    3    3    0    0 -0.20022013170E+02 -0.31446197131E+00  0.30899810021E+02  0.54367107058E+02  0.40000052160E+02 0.  0.
         12    1    3    3    0    0  0.20022013170E+02  0.31446197131E+00 -0.30899810021E+02  0.36820892942E+02  0.00000000000E+00 0. -1.
         11    1    4    4    0    0 -0.73397949636E+01 -0.14965734106E+02  0.17942546060E+02  0.24490421532E+02  0.51100000000E-03 0. -1.
        -11    1    4    4    0    0 -0.12783366517E+02  0.18138793460E+01  0.10854418109E+02  0.16867809892E+02  0.51100000000E-03 0.  1.
         12    1    4    4    0    0  0.10114831124E+00  0.12837392788E+02  0.21028458525E+01  0.13008875634E+02  0.00000000000E+00 0. -1.
</event>
<event>
 8    1  0.2482403E-006  0.9118800E+02  0.7816164E-02  0.1184000E+00
        -11   -1    0    0    0    0  0.00000000000E+00  0.00000000000E+00  0.45593999997E+02  0.45594000000E+02  0.51100000000E-03 0.  1.
         11   -1    0    0    0    0 -0.00000000000E+00 -0.00000000000E+00 -0.45593999997E+02  0.45594000000E+02  0.51100000000E-03 0. -1.
         23    2    1    2    0    0  0.00000000000E+00  0.35527136788E-14 -0.35527136788E-14  0.91188000000E+02  0.91188000000E+02 0.  0.
    9900012    2    3    3    0    0 -0.16522316833E+02  0.30253025053E+02 -0.12944020132E+02  0.54367080191E+02  0.39999990911E+02 0.  0.
        -12    1    3    3    0    0  0.16522316833E+02 -0.30253025053E+02  0.12944020132E+02  0.36820919809E+02  0.00000000000E+00 0.  1.
         11    1    4    4    0    0  0.20843828972E+01  0.77985479785E+01 -0.13312850773E+00  0.80733961934E+01  0.51100000000E-03 0. -1.
        -11    1    4    4    0    0 -0.58465243983E+01  0.11056507531E+02  0.11214549245E+02  0.16798640462E+02  0.51100000000E-03 0.  1.
         12    1    4    4    0    0 -0.12760175332E+02  0.11397969543E+02 -0.24025440869E+02  0.29495043536E+02  0.00000000000E+00 0. -1.
</event>
<event>
 8    1  0.2482403E-006  0.9118800E+02  0.7816164E-02  0.1184000E+00
        -11   -1    0    0    0    0  0.00000000000E+00  0.00000000000E+00  0.45593999997E+02  0.45594000000E+02  0.51100000000E-03 0. -1.
         11   -1    0    0    0    0 -0.00000000000E+00 -0.00000000000E+00 -0.45593999997E+02  0.45594000000E+02  0.51100000000E-03 0.  1.
         23    2    1    2    0    0  0.00000000000E+00  0.00000000000E+00  0.22204460493E-15  0.91188000000E+02  0.91188000000E+02 0.  0.
    9900012    2    3    3    0    0  0.27071092177E+02 -0.24925556648E+02  0.12886964041E+01  0.54366971439E+02  0.39999742989E+02 0.  0.
        -12    1    3    3    0    0 -0.27071092177E+02  0.24925556648E+02 -0.12886964041E+01  0.36821028561E+02  0.00000000000E+00 0.  1.
         11    1    4    4    0    0  0.21413631348E+02 -0.17304348633E+02 -0.23330855446E+01  0.27630189604E+02  0.51100000000E-03 0. -1.
        -11    1    4    4    0    0  0.13535648210E+02 -0.68451174622E+01 -0.40641914374E+01  0.15703090710E+02  0.51100000000E-03 0.  1.
         12    1    4    4    0    0 -0.78781873811E+01 -0.77609055263E+00  0.76859733862E+01  0.11033691125E+02  0.00000000000E+00 0. -1.
</event>
<event>
 8    1  0.2482403E-006  0.9118800E+02  0.7816164E-02  0.1184000E+00
        -11   -1    0    0    0    0  0.00000000000E+00  0.00000000000E+00  0.45593999997E+02  0.45594000000E+02  0.51100000000E-03 0. -1.
         11   -1    0    0    0    0 -0.00000000000E+00 -0.00000000000E+00 -0.45593999997E+02  0.45594000000E+02  0.51100000000E-03 0.  1.
         23    2    1    2    0    0  0.00000000000E+00  0.00000000000E+00 -0.88817841970E-15  0.91188000000E+02  0.91188000000E+02 0.  0.
    9900012    2    3    3    0    0  0.22768399735E+02  0.28520079101E+02  0.48977531240E+01  0.54367042325E+02  0.39999904588E+02 0.  0.
         12    1    3    3    0    0 -0.22768399735E+02 -0.28520079101E+02 -0.48977531240E+01  0.36820957675E+02  0.00000000000E+00 0. -1.
         11    1    4    4    0    0  0.12382312447E+02  0.10049917253E+02 -0.98256629315E+01  0.18731421479E+02  0.51100000000E-03 0.  1.
        -11    1    4    4    0    0 -0.70584897161E+01  0.58389704988E+01  0.10047200666E+02  0.13596400076E+02  0.51100000000E-03 0. -1.
         12    1    4    4    0    0  0.17444577004E+02  0.12631191349E+02  0.46762153898E+01  0.22039220770E+02  0.00000000000E+00 0. -1.
</event>
<event>
 8    1  0.2482403E-006  0.9118800E+02  0.7816164E-02  0.1184000E+00
        -11   -1    0    0    0    0  0.00000000000E+00  0.00000000000E+00  0.45593999997E+02  0.45594000000E+02  0.51100000000E-03 0. -1.
         11   -1    0    0    0    0 -0.00000000000E+00 -0.00000000000E+00 -0.45593999997E+02  0.45594000000E+02  0.51100000000E-03 0.  1.
         23    2    1    2    0    0  0.88817841970E-15  0.00000000000E+00  0.00000000000E+00  0.91188000000E+02  0.91188000000E+02 0.  0.
    9900012    2    3    3    0    0 -0.42944476828E+01 -0.33234746361E+02  0.15257281142E+02  0.54367146202E+02  0.40000141397E+02 0.  0.
         12    1    3    3    0    0  0.42944476828E+01  0.33234746361E+02 -0.15257281142E+02  0.36820853798E+02  0.00000000000E+00 0. -1.
         11    1    4    4    0    0  0.26240981031E+01 -0.18425090098E+02  0.14224002734E+02  0.23424177468E+02  0.51100000000E-03 0. -1.
        -11    1    4    4    0    0 -0.33274585263E+01 -0.20353522873E+02  0.72611192564E+01  0.21864622720E+02  0.51100000000E-03 0.  1.
        -12    1    4    4    0    0 -0.35910872597E+01  0.55438666105E+01 -0.62278408494E+01  0.90783460139E+01  0.00000000000E+00 0.  1.
</event>
<event>
 8    1  0.2482403E-006  0.9118800E+02  0.7816164E-02  0.1184000E+00
        -11   -1    0    0    0    0  0.00000000000E+00  0.00000000000E+00  0.45593999997E+02  0.45594000000E+02  0.51100000000E-03 0.  1.
         11   -1    0    0    0    0 -0.00000000000E+00 -0.00000000000E+00 -0.45593999997E+02  0.45594000000E+02  0.51100000000E-03 0. -1.
         23    2    1    2    0    0  0.00000000000E+00  0.00000000000E+00 -0.17763568394E-14  0.91188000000E+02  0.91188000000E+02 0.  0.
    9900012    2    3    3    0    0 -0.31166952165E+02 -0.16876144685E+02 -0.99798045823E+01  0.54367086565E+02  0.40000005442E+02 0.  0.
         12    1    3    3    0    0  0.31166952165E+02  0.16876144685E+02  0.99798045823E+01  0.36820913435E+02  0.00000000000E+00 0. -1.
         11    1    4    4    0    0 -0.95236251598E+01 -0.17233915496E+01 -0.21826780577E+02  0.23876303425E+02  0.51100000000E-03 0. -1.
        -11    1    4    4    0    0 -0.75144773072E+01 -0.24145028323E+01  0.76876715127E+01  0.11018052762E+02  0.51100000000E-03 0.  1.
         12    1    4    4    0    0 -0.14128849698E+02 -0.12738250303E+02  0.41593044819E+01  0.19472730377E+02  0.00000000000E+00 0. -1.
</event>
<event>
 8    1  0.2482403E-006  0.9118800E+02  0.7816164E-02  0.1184000E+00
        -11   -1    0    0    0    0  0.00000000000E+00  0.00000000000E+00  0.45593999997E+02  0.45594000000E+02  0.51100000000E-03 0.  1.
         11   -1    0    0    0    0 -0.00000000000E+00 -0.00000000000E+00 -0.45593999997E+02  0.45594000000E+02  0.51100000000E-03 0. -1.
         23    2    1    2    0    0  0.17763568394E-14  0.00000000000E+00  0.00000000000E+00  0.91188000000E+02  0.91188000000E+02 0.  0.
    9900012    2    3    3    0    0  0.13353579678E+02  0.83579474967E+01 -0.33280719494E+02  0.54367086559E+02  0.40000005429E+02 0.  0.
        -12    1    3    3    0    0 -0.13353579678E+02 -0.83579474967E+01  0.33280719494E+02  0.36820913441E+02  0.00000000000E+00 0.  1.
         11    1    4    4    0    0 -0.35490217578E+01 -0.35754997468E+01 -0.18301081098E+02  0.18981815601E+02  0.51100000000E-03 0. -1.
        -11    1    4    4    0    0  0.25566969167E+01 -0.25977320121E+01 -0.14509457695E+02  0.14960256468E+02  0.51100000000E-03 0.  1.
        -12    1    4    4    0    0  0.14345904519E+02  0.14531179256E+02 -0.47018070104E+00  0.20425014490E+02  0.00000000000E+00 0.  1.
</event>
<event>
 8    1  0.2482403E-006  0.9118800E+02  0.7816164E-02  0.1184000E+00
        -11   -1    0    0    0    0  0.00000000000E+00  0.00000000000E+00  0.45593999997E+02  0.45594000000E+02  0.51100000000E-03 0. -1.
         11   -1    0    0    0    0 -0.00000000000E+00 -0.00000000000E+00 -0.45593999997E+02  0.45594000000E+02  0.51100000000E-03 0.  1.
         23    2    1    2    0    0  0.88817841970E-15 -0.17763568394E-14  0.71054273576E-14  0.91188000000E+02  0.91188000000E+02 0.  0.
    9900012    2    3    3    0    0 -0.56108560744E+01  0.14986740222E+02 -0.33161630141E+02  0.54367111880E+02  0.40000063152E+02 0.  0.
         12    1    3    3    0    0  0.56108560744E+01 -0.14986740222E+02  0.33161630141E+02  0.36820888120E+02  0.00000000000E+00 0. -1.
         11    1    4    4    0    0  0.84050254336E+01 -0.31360895820E+01  0.24565067590E+00  0.89743999755E+01  0.51100000000E-03 0. -1.
        -11    1    4    4    0    0  0.18028331698E+01  0.14272591115E+02 -0.14199111583E+02  0.20213159936E+02  0.51100000000E-03 0.  1.
         12    1    4    4    0    0 -0.15818714678E+02  0.38502386883E+01 -0.19208169234E+02  0.25179551969E+02  0.00000000000E+00 0. -1.
</event>
<event>
 8    1  0.2482403E-006  0.9118800E+02  0.7816164E-02  0.1184000E+00
        -11   -1    0    0    0    0  0.00000000000E+00  0.00000000000E+00  0.45593999997E+02  0.45594000000E+02  0.51100000000E-03 0.  1.
         11   -1    0    0    0    0 -0.00000000000E+00 -0.00000000000E+00 -0.45593999997E+02  0.45594000000E+02  0.51100000000E-03 0. -1.
         23    2    1    2    0    0  0.00000000000E+00 -0.71054273576E-14  0.35527136788E-14  0.91188000000E+02  0.91188000000E+02 0.  0.
    9900012    2    3    3    0    0  0.86714198182E+01  0.33408135418E+02 -0.12825116263E+02  0.54367073329E+02  0.39999975267E+02 0.  0.
         12    1    3    3    0    0 -0.86714198182E+01 -0.33408135418E+02  0.12825116263E+02  0.36820926671E+02  0.00000000000E+00 0. -1.
         11    1    4    4    0    0  0.76266794329E+01  0.21699995861E+02 -0.25044772100E+02  0.34004362505E+02  0.51100000000E-03 0. -1.
        -11    1    4    4    0    0  0.26580149512E+01  0.95006362420E-01  0.70760885127E+01  0.75594377166E+01  0.51100000000E-03 0.  1.
         12    1    4    4    0    0 -0.16132745659E+01  0.11613133195E+02  0.51435673249E+01  0.12803273107E+02  0.00000000000E+00 0. -1.
</event>
<event>
 8    1  0.2482403E-006  0.9118800E+02  0.7816164E-02  0.1184000E+00
        -11   -1    0    0    0    0  0.00000000000E+00  0.00000000000E+00  0.45593999997E+02  0.45594000000E+02  0.51100000000E-03 0. -1.
         11   -1    0    0    0    0 -0.00000000000E+00 -0.00000000000E+00 -0.45593999997E+02  0.45594000000E+02  0.51100000000E-03 0.  1.
         23    2    1    2    0    0 -0.35527136788E-14  0.00000000000E+00  0.35527136788E-14  0.91188000000E+02  0.91188000000E+02 0.  0.
    9900012    2    3    3    0    0 -0.16122350991E+02  0.91528641318E+01 -0.31813130276E+02  0.54367076855E+02  0.39999983306E+02 0.  0.
         12    1    3    3    0    0  0.16122350991E+02 -0.91528641318E+01  0.31813130276E+02  0.36820923145E+02  0.00000000000E+00 0. -1.
         11    1    4    4    0    0  0.11818922748E+02  0.98981253591E+01 -0.12632689919E+02  0.19930997853E+02  0.51100000000E-03 0. -1.
        -11    1    4    4    0    0 -0.16644328429E+02 -0.23998968156E+01 -0.14073730614E+02  0.21928590178E+02  0.51100000000E-03 0.  1.
         12    1    4    4    0    0 -0.11296945310E+02  0.16546355883E+01 -0.51067097434E+01  0.12507488824E+02  0.00000000000E+00 0. -1.
</event>
<event>
 8    1  0.2482403E-006  0.9118800E+02  0.7816164E-02  0.1184000E+00
        -11   -1    0    0    0    0  0.00000000000E+00  0.00000000000E+00  0.45593999997E+02  0.45594000000E+02  0.51100000000E-03 0.  1.
         11   -1    0    0    0    0 -0.00000000000E+00 -0.00000000000E+00 -0.45593999997E+02  0.45594000000E+02  0.51100000000E-03 0. -1.
         23    2    1    2    0    0  0.00000000000E+00  0.00000000000E+00  0.00000000000E+00  0.91188000000E+02  0.91188000000E+02 0.  0.
    9900012    2    3    3    0    0 -0.11705438516E+02 -0.45810034494E+01 -0.34608906334E+02  0.54367091795E+02  0.40000017364E+02 0.  0.
        -12    1    3    3    0    0  0.11705438516E+02  0.45810034494E+01  0.34608906334E+02  0.36820908205E+02  0.00000000000E+00 0.  1.
         11    1    4    4    0    0 -0.90490402162E+01 -0.89346179427E+01 -0.15532230449E+02  0.20073931095E+02  0.51100000000E-03 0. -1.
        -11    1    4    4    0    0 -0.11744176345E+02 -0.68760897362E+01 -0.12269719544E+02  0.18323545128E+02  0.51100000000E-03 0.  1.
        -12    1    4    4    0    0  0.90877780459E+01  0.11229704230E+02 -0.68069563405E+01  0.15969615572E+02  0.00000000000E+00 0.  1.
</event>
<event>
 8    1  0.2482403E-006  0.9118800E+02  0.7816164E-02  0.1184000E+00
        -11   -1    0    0    0    0  0.00000000000E+00  0.00000000000E+00  0.45593999997E+02  0.45594000000E+02  0.51100000000E-03 0.  1.
         11   -1    0    0    0    0 -0.00000000000E+00 -0.00000000000E+00 -0.45593999997E+02  0.45594000000E+02  0.51100000000E-03 0. -1.
         23    2    1    2    0    0  0.00000000000E+00  0.35527136788E-14  0.17763568394E-14  0.91188000000E+02  0.91188000000E+02 0.  0.
    9900012    2    3    3    0    0  0.25978842100E+02  0.20627927130E+02  0.15980256629E+02  0.54367079093E+02  0.39999988408E+02 0.  0.
         12    1    3    3    0    0 -0.25978842100E+02 -0.20627927130E+02 -0.15980256629E+02  0.36820920907E+02  0.00000000000E+00 0. -1.
         11    1    4    4    0    0 -0.55482689967E+01  0.37693446498E+01 -0.22384355104E+01  0.70711980417E+01  0.51100000000E-03 0. -1.
        -11    1    4    4    0    0  0.60787077102E+01  0.12248860154E+02  0.16423765848E+02  0.21371133507E+02  0.51100000000E-03 0.  1.
         12    1    4    4    0    0  0.25448403386E+02  0.46097223261E+01  0.17949262914E+01  0.25924747544E+02  0.00000000000E+00 0. -1.
</event>
<event>
 8    1  0.2482403E-006  0.9118800E+02  0.7816164E-02  0.1184000E+00
        -11   -1    0    0    0    0  0.00000000000E+00  0.00000000000E+00  0.45593999997E+02  0.45594000000E+02  0.51100000000E-03 0.  1.
         11   -1    0    0    0    0 -0.00000000000E+00 -0.00000000000E+00 -0.45593999997E+02  0.45594000000E+02  0.51100000000E-03 0. -1.
         23    2    1    2    0    0  0.00000000000E+00  0.17763568394E-14  0.00000000000E+00  0.91188000000E+02  0.91188000000E+02 0.  0.
    9900012    2    3    3    0    0  0.20266549083E+02  0.11527825741E+02 -0.28498308697E+02  0.54367117655E+02  0.40000076319E+02 0.  0.
        -12    1    3    3    0    0 -0.20266549083E+02 -0.11527825741E+02  0.28498308697E+02  0.36820882345E+02  0.00000000000E+00 0.  1.
         11    1    4    4    0    0  0.66612247342E+01  0.28269538630E+01 -0.11046422051E+02  0.13205567898E+02  0.51100000000E-03 0. -1.
        -11    1    4    4    0    0  0.14990390230E+01  0.10051851359E+01 -0.24922403223E+02  0.24987670917E+02  0.51100000000E-03 0.  1.
        -12    1    4    4    0    0  0.12106285326E+02  0.76956867426E+01  0.74705165779E+01  0.16173878841E+02  0.00000000000E+00 0.  1.
</event>
<event>
 8    1  0.2482403E-006  0.9118800E+02  0.7816164E-02  0.1184000E+00
        -11   -1    0    0    0    0  0.00000000000E+00  0.00000000000E+00  0.45593999997E+02  0.45594000000E+02  0.51100000000E-03 0. -1.
         11   -1    0    0    0    0 -0.00000000000E+00 -0.00000000000E+00 -0.45593999997E+02  0.45594000000E+02  0.51100000000E-03 0.  1.
         23    2    1    2    0    0  0.00000000000E+00  0.24424906542E-14  0.35527136788E-14  0.91188000000E+02  0.91188000000E+02 0.  0.
    9900012    2    3    3    0    0 -0.19379800665E+02 -0.12587870142E+01  0.31282890584E+02  0.54367075761E+02  0.39999980811E+02 0.  0.
        -12    1    3    3    0    0  0.19379800665E+02  0.12587870142E+01 -0.31282890584E+02  0.36820924239E+02  0.00000000000E+00 0.  1.
         11    1    4    4    0    0 -0.18983448085E+02  0.24851044289E+01  0.16552346892E+02  0.25308639495E+02  0.51100000000E-03 0. -1.
        -11    1    4    4    0    0  0.59501080324E+00 -0.14043561481E+02  0.11666626775E+02  0.18267069756E+02  0.51100000000E-03 0.  1.
        -12    1    4    4    0    0 -0.99136338332E+00  0.10299670038E+02  0.30639169179E+01  0.10791366509E+02  0.00000000000E+00 0.  1.
</event>
<event>
 8    1  0.2482403E-006  0.9118800E+02  0.7816164E-02  0.1184000E+00
        -11   -1    0    0    0    0  0.00000000000E+00  0.00000000000E+00  0.45593999997E+02  0.45594000000E+02  0.51100000000E-03 0. -1.
         11   -1    0    0    0    0 -0.00000000000E+00 -0.00000000000E+00 -0.45593999997E+02  0.45594000000E+02  0.51100000000E-03 0.  1.
         23    2    1    2    0    0  0.00000000000E+00 -0.35527136788E-14  0.00000000000E+00  0.91188000000E+02  0.91188000000E+02 0.  0.
    9900012    2    3    3    0    0  0.17963197766E+02 -0.19300447160E+02 -0.25702061866E+02  0.54367085851E+02  0.40000003815E+02 0.  0.
         12    1    3    3    0    0 -0.17963197766E+02  0.19300447160E+02  0.25702061866E+02  0.36820914149E+02  0.00000000000E+00 0. -1.
         11    1    4    4    0    0  0.66751754234E+01 -0.14441539990E+01  0.60992521959E+01  0.91566601617E+01  0.51100000000E-03 0. -1.
        -11    1    4    4    0    0  0.63281404748E+01 -0.95851039814E+01 -0.33503027373E+02  0.35417120487E+02  0.51100000000E-03 0.  1.
        -12    1    4    4    0    0  0.49598818675E+01 -0.82711891800E+01  0.17017133108E+01  0.97933052022E+01  0.00000000000E+00 0.  1.
</event>
<event>
 8    1  0.2482403E-006  0.9118800E+02  0.7816164E-02  0.1184000E+00
        -11   -1    0    0    0    0  0.00000000000E+00  0.00000000000E+00  0.45593999997E+02  0.45594000000E+02  0.51100000000E-03 0. -1.
         11   -1    0    0    0    0 -0.00000000000E+00 -0.00000000000E+00 -0.45593999997E+02  0.45594000000E+02  0.51100000000E-03 0.  1.
         23    2    1    2    0    0  0.71054273576E-14  0.00000000000E+00  0.00000000000E+00  0.91188000000E+02  0.91188000000E+02 0.  0.
    9900012    2    3    3    0    0  0.23704709161E+02 -0.46769332629E+01  0.27784744076E+02  0.54367096365E+02  0.40000027783E+02 0.  0.
        -12    1    3    3    0    0 -0.23704709161E+02  0.46769332629E+01 -0.27784744076E+02  0.36820903635E+02  0.00000000000E+00 0.  1.
         11    1    4    4    0    0 -0.21587768098E+01 -0.18916392373E+01  0.26338159692E+01  0.38955876501E+01  0.51100000000E-03 0. -1.
        -11    1    4    4    0    0  0.62929730984E+01 -0.84016430363E+01  0.28009004951E+02  0.29911427160E+02  0.51100000000E-03 0.  1.
        -12    1    4    4    0    0  0.19570512873E+02  0.56163490107E+01 -0.28580768440E+01  0.20560081555E+02  0.00000000000E+00 0.  1.
</event>
<event>
 8    1  0.2482403E-006  0.9118800E+02  0.7816164E-02  0.1184000E+00
        -11   -1    0    0    0    0  0.00000000000E+00  0.00000000000E+00  0.45593999997E+02  0.45594000000E+02  0.51100000000E-03 0.  1.
         11   -1    0    0    0    0 -0.00000000000E+00 -0.00000000000E+00 -0.45593999997E+02  0.45594000000E+02  0.51100000000E-03 0. -1.
         23    2    1    2    0    0  0.00000000000E+00 -0.13322676296E-14  0.00000000000E+00  0.91188000000E+02  0.91188000000E+02 0.  0.
    9900012    2    3    3    0    0 -0.17730277087E+02  0.25107468877E+01  0.32173097658E+02  0.54367152801E+02  0.40000156441E+02 0.  0.
         12    1    3    3    0    0  0.17730277087E+02 -0.25107468877E+01 -0.32173097658E+02  0.36820847199E+02  0.00000000000E+00 0. -1.
         11    1    4    4    0    0 -0.13283020243E+02 -0.45952457698E+01 -0.12164482067E+01  0.14107964309E+02  0.51100000000E-03 0. -1.
        -11    1    4    4    0    0 -0.78388637788E+01 -0.54075276189E+01  0.14561687822E+02  0.17399192303E+02  0.51100000000E-03 0.  1.
        -12    1    4    4    0    0  0.33916069347E+01  0.12513520276E+02  0.18827858043E+02  0.22859996189E+02  0.00000000000E+00 0.  1.
</event>
<event>
 8    1  0.2482403E-006  0.9118800E+02  0.7816164E-02  0.1184000E+00
        -11   -1    0    0    0    0  0.00000000000E+00  0.00000000000E+00  0.45593999997E+02  0.45594000000E+02  0.51100000000E-03 0.  1.
         11   -1    0    0    0    0 -0.00000000000E+00 -0.00000000000E+00 -0.45593999997E+02  0.45594000000E+02  0.51100000000E-03 0. -1.
         23    2    1    2    0    0  0.35527136788E-14  0.00000000000E+00  0.35527136788E-14  0.91188000000E+02  0.91188000000E+02 0.  0.
    9900012    2    3    3    0    0  0.21806144572E+02  0.10684923955E+02 -0.27678600561E+02  0.54367075649E+02  0.39999980557E+02 0.  0.
        -12    1    3    3    0    0 -0.21806144572E+02 -0.10684923955E+02  0.27678600561E+02  0.36820924351E+02  0.00000000000E+00 0.  1.
         11    1    4    4    0    0  0.51053435282E+01  0.66476306260E+01  0.81327531055E+01  0.11678921132E+02  0.51100000000E-03 0. -1.
        -11    1    4    4    0    0  0.23735683436E+01 -0.34869442551E+01 -0.10535286452E+01  0.43477039673E+01  0.51100000000E-03 0.  1.
         12    1    4    4    0    0  0.14327232700E+02  0.75242375844E+01 -0.34757825022E+02  0.38340450549E+02  0.00000000000E+00 0. -1.
</event>
<event>
 8    1  0.2482403E-006  0.9118800E+02  0.7816164E-02  0.1184000E+00
        -11   -1    0    0    0    0  0.00000000000E+00  0.00000000000E+00  0.45593999997E+02  0.45594000000E+02  0.51100000000E-03 0. -1.
         11   -1    0    0    0    0 -0.00000000000E+00 -0.00000000000E+00 -0.45593999997E+02  0.45594000000E+02  0.51100000000E-03 0.  1.
         23    2    1    2    0    0  0.00000000000E+00 -0.35527136788E-14  0.35527136788E-14  0.91188000000E+02  0.91188000000E+02 0.  0.
    9900012    2    3    3    0    0  0.19557679411E+02 -0.19658163182E+02  0.24224634733E+02  0.54367093824E+02  0.40000021991E+02 0.  0.
        -12    1    3    3    0    0 -0.19557679411E+02  0.19658163182E+02 -0.24224634733E+02  0.36820906176E+02  0.00000000000E+00 0.  1.
         11    1    4    4    0    0  0.12614631179E+02 -0.12611785218E+02  0.23506449703E+02  0.29508290768E+02  0.51100000000E-03 0. -1.
        -11    1    4    4    0    0  0.34182766667E+01 -0.12447460035E+02  0.79569563884E+01  0.15163674750E+02  0.51100000000E-03 0.  1.
         12    1    4    4    0    0  0.35247715657E+01  0.54010820702E+01 -0.72387713576E+01  0.96951283069E+01  0.00000000000E+00 0. -1.
</event>
<event>
 8    1  0.2482403E-006  0.9118800E+02  0.7816164E-02  0.1184000E+00
        -11   -1    0    0    0    0  0.00000000000E+00  0.00000000000E+00  0.45593999997E+02  0.45594000000E+02  0.51100000000E-03 0. -1.
         11   -1    0    0    0    0 -0.00000000000E+00 -0.00000000000E+00 -0.45593999997E+02  0.45594000000E+02  0.51100000000E-03 0.  1.
         23    2    1    2    0    0  0.35527136788E-14  0.00000000000E+00  0.00000000000E+00  0.91188000000E+02  0.91188000000E+02 0.  0.
    9900012    2    3    3    0    0  0.18581852075E+02 -0.27088869350E+02 -0.16633892883E+02  0.54367102922E+02  0.40000042730E+02 0.  0.
         12    1    3    3    0    0 -0.18581852075E+02  0.27088869350E+02  0.16633892883E+02  0.36820897078E+02  0.00000000000E+00 0. -1.
         11    1    4    4    0    0 -0.46630778526E+01  0.26907209187E+01  0.15012217870E+00  0.53857971603E+01  0.51100000000E-03 0. -1.
        -11    1    4    4    0    0  0.10147701273E+02 -0.77021043270E+01 -0.19367180670E+02  0.23181586218E+02  0.51100000000E-03 0.  1.
        -12    1    4    4    0    0  0.13097228655E+02 -0.22077485942E+02  0.25831656088E+01  0.25799719543E+02  0.00000000000E+00 0.  1.
</event>
<event>
 8    1  0.2482403E-006  0.9118800E+02  0.7816164E-02  0.1184000E+00
        -11   -1    0    0    0    0  0.00000000000E+00  0.00000000000E+00  0.45593999997E+02  0.45594000000E+02  0.51100000000E-03 0.  1.
         11   -1    0    0    0    0 -0.00000000000E+00 -0.00000000000E+00 -0.45593999997E+02  0.45594000000E+02  0.51100000000E-03 0. -1.
         23    2    1    2    0    0  0.35527136788E-14  0.00000000000E+00  0.00000000000E+00  0.91188000000E+02  0.91188000000E+02 0.  0.
    9900012    2    3    3    0    0 -0.22910119228E+02  0.28509693427E+02 -0.42546185546E+01  0.54367109715E+02  0.40000058218E+02 0.  0.
        -12    1    3    3    0    0  0.22910119228E+02 -0.28509693427E+02  0.42546185546E+01  0.36820890285E+02  0.00000000000E+00 0.  1.
         11    1    4    4    0    0 -0.19232652519E+02  0.10108347791E+02 -0.77936043813E+01  0.23082761696E+02  0.51100000000E-03 0. -1.
        -11    1    4    4    0    0  0.14991058277E+00  0.18561631960E+02 -0.71791755866E+01  0.19902191250E+02  0.51100000000E-03 0.  1.
        -12    1    4    4    0    0 -0.38273772917E+01 -0.16028632405E+00  0.10718161413E+02  0.11382156769E+02  0.00000000000E+00 0.  1.
</event>
<event>
 8    1  0.2482403E-006  0.9118800E+02  0.7816164E-02  0.1184000E+00
        -11   -1    0    0    0    0  0.00000000000E+00  0.00000000000E+00  0.45593999997E+02  0.45594000000E+02  0.51100000000E-03 0. -1.
         11   -1    0    0    0    0 -0.00000000000E+00 -0.00000000000E+00 -0.45593999997E+02  0.45594000000E+02  0.51100000000E-03 0.  1.
         23    2    1    2    0    0  0.17763568394E-14 -0.55511151231E-16  0.00000000000E+00  0.91188000000E+02  0.91188000000E+02 0.  0.
    9900012    2    3    3    0    0  0.14924825595E+02  0.21027802604E+00 -0.33659814606E+02  0.54367112515E+02  0.40000064599E+02 0.  0.
         12    1    3    3    0    0 -0.14924825595E+02 -0.21027802604E+00  0.33659814606E+02  0.36820887485E+02  0.00000000000E+00 0. -1.
         11    1    4    4    0    0 -0.56006627769E+01  0.72124253519E+00 -0.48199036391E+01  0.74242229012E+01  0.51100000000E-03 0. -1.
        -11    1    4    4    0    0  0.38960511883E+01  0.24785119236E+00 -0.30002667400E+02  0.30255589508E+02  0.51100000000E-03 0.  1.
         12    1    4    4    0    0  0.16629437183E+02 -0.75881570151E+00  0.11627564326E+01  0.16687300106E+02  0.00000000000E+00 0. -1.
</event>
<event>
 8    1  0.2482403E-006  0.9118800E+02  0.7816164E-02  0.1184000E+00
        -11   -1    0    0    0    0  0.00000000000E+00  0.00000000000E+00  0.45593999997E+02  0.45594000000E+02  0.51100000000E-03 0.  1.
         11   -1    0    0    0    0 -0.00000000000E+00 -0.00000000000E+00 -0.45593999997E+02  0.45594000000E+02  0.51100000000E-03 0. -1.
         23    2    1    2    0    0 -0.17763568394E-14  0.88817841970E-15  0.00000000000E+00  0.91188000000E+02  0.91188000000E+02 0.  0.
    9900012    2    3    3    0    0 -0.11758962719E+02 -0.35922461135E+01 -0.34707388826E+02  0.54367078291E+02  0.39999986580E+02 0.  0.
        -12    1    3    3    0    0  0.11758962719E+02  0.35922461135E+01  0.34707388826E+02  0.36820921709E+02  0.00000000000E+00 0.  1.
         11    1    4    4    0    0 -0.17628594316E+02 -0.17164198103E+02 -0.21782326807E+02  0.32861022435E+02  0.51100000000E-03 0. -1.
        -11    1    4    4    0    0  0.44744076052E+01  0.48885598163E+01 -0.10205689791E+01  0.67052145229E+01  0.51100000000E-03 0.  1.
         12    1    4    4    0    0  0.13952239920E+01  0.86833921735E+01 -0.11904493040E+02  0.14800841333E+02  0.00000000000E+00 0. -1.
</event>
<event>
 8    1  0.2482403E-006  0.9118800E+02  0.7816164E-02  0.1184000E+00
        -11   -1    0    0    0    0  0.00000000000E+00  0.00000000000E+00  0.45593999997E+02  0.45594000000E+02  0.51100000000E-03 0.  1.
         11   -1    0    0    0    0 -0.00000000000E+00 -0.00000000000E+00 -0.45593999997E+02  0.45594000000E+02  0.51100000000E-03 0. -1.
         23    2    1    2    0    0 -0.88817841970E-15  0.00000000000E+00 -0.17763568394E-14  0.91188000000E+02  0.91188000000E+02 0.  0.
    9900012    2    3    3    0    0 -0.51362754372E+01  0.34571804995E+02  0.11583962753E+02  0.54367092637E+02  0.40000019285E+02 0.  0.
         12    1    3    3    0    0  0.51362754372E+01 -0.34571804995E+02 -0.11583962753E+02  0.36820907363E+02  0.00000000000E+00 0. -1.
         11    1    4    4    0    0  0.81215807651E+00 -0.34738201686E+01 -0.57058508227E+01  0.67293210041E+01  0.51100000000E-03 0. -1.
        -11    1    4    4    0    0 -0.10492818165E+02  0.12167443170E+02 -0.21158629988E+00  0.16068312773E+02  0.51100000000E-03 0.  1.
        -12    1    4    4    0    0  0.45443846509E+01  0.25878181993E+02  0.17501399876E+02  0.31569458860E+02  0.00000000000E+00 0.  1.
</event>
<event>
 8    1  0.2482403E-006  0.9118800E+02  0.7816164E-02  0.1184000E+00
        -11   -1    0    0    0    0  0.00000000000E+00  0.00000000000E+00  0.45593999997E+02  0.45594000000E+02  0.51100000000E-03 0.  1.
         11   -1    0    0    0    0 -0.00000000000E+00 -0.00000000000E+00 -0.45593999997E+02  0.45594000000E+02  0.51100000000E-03 0. -1.
         23    2    1    2    0    0  0.00000000000E+00 -0.17763568394E-14  0.35527136788E-14  0.91188000000E+02  0.91188000000E+02 0.  0.
    9900012    2    3    3    0    0  0.24122698189E+02 -0.14909792089E+02 -0.23485604252E+02  0.54367081012E+02  0.39999992783E+02 0.  0.
        -12    1    3    3    0    0 -0.24122698189E+02  0.14909792089E+02  0.23485604252E+02  0.36820918988E+02  0.00000000000E+00 0.  1.
         11    1    4    4    0    0  0.15932315728E+00 -0.62579257107E+01 -0.57730484326E+01  0.85155802230E+01  0.51100000000E-03 0. -1.
        -11    1    4    4    0    0 -0.37432968452E+01  0.70013281605E+01  0.22919885069E+01  0.82634181099E+01  0.51100000000E-03 0.  1.
         12    1    4    4    0    0  0.27706671877E+02 -0.15653194539E+02 -0.20004544326E+02  0.37588082679E+02  0.00000000000E+00 0. -1.
</event>
<event>
 8    1  0.2482403E-006  0.9118800E+02  0.7816164E-02  0.1184000E+00
        -11   -1    0    0    0    0  0.00000000000E+00  0.00000000000E+00  0.45593999997E+02  0.45594000000E+02  0.51100000000E-03 0. -1.
         11   -1    0    0    0    0 -0.00000000000E+00 -0.00000000000E+00 -0.45593999997E+02  0.45594000000E+02  0.51100000000E-03 0.  1.
         23    2    1    2    0    0  0.88817841970E-15  0.00000000000E+00  0.00000000000E+00  0.91188000000E+02  0.91188000000E+02 0.  0.
    9900012    2    3    3    0    0  0.48711045866E+01  0.25004513065E+02  0.26586203534E+02  0.54367088118E+02  0.40000008982E+02 0.  0.
        -12    1    3    3    0    0 -0.48711045866E+01 -0.25004513065E+02 -0.26586203534E+02  0.36820911882E+02  0.00000000000E+00 0.  1.
         11    1    4    4    0    0 -0.40330224612E+01  0.21592797712E+02  0.25650639008E+02  0.33770837493E+02  0.51100000000E-03 0. -1.
        -11    1    4    4    0    0 -0.37281253261E+01 -0.41536735044E+01 -0.12247449193E+01  0.57141860669E+01  0.51100000000E-03 0.  1.
        -12    1    4    4    0    0  0.12632252374E+02  0.75653888568E+01  0.21603094457E+01  0.14882064558E+02  0.00000000000E+00 0.  1.
</event>
<event>
 8    1  0.2482403E-006  0.9118800E+02  0.7816164E-02  0.1184000E+00
        -11   -1    0    0    0    0  0.00000000000E+00  0.00000000000E+00  0.45593999997E+02  0.45594000000E+02  0.51100000000E-03 0.  1.
         11   -1    0    0    0    0 -0.00000000000E+00 -0.00000000000E+00 -0.45593999997E+02  0.45594000000E+02  0.51100000000E-03 0. -1.
         23    2    1    2    0    0  0.26645352591E-14 -0.35527136788E-14  0.00000000000E+00  0.91188000000E+02  0.91188000000E+02 0.  0.
    9900012    2    3    3    0    0 -0.16798334578E+01 -0.20759602976E+02 -0.30364393809E+02  0.54367090620E+02  0.40000014687E+02 0.  0.
        -12    1    3    3    0    0  0.16798334578E+01  0.20759602976E+02  0.30364393809E+02  0.36820909380E+02  0.00000000000E+00 0.  1.
         11    1    4    4    0    0  0.13647471415E+02 -0.18151497948E+02 -0.72567513474E+01  0.23840947845E+02  0.51100000000E-03 0. -1.
        -11    1    4    4    0    0 -0.16589511430E+02 -0.49181829577E+01 -0.20395897719E+02  0.26746832656E+02  0.51100000000E-03 0.  1.
        -12    1    4    4    0    0  0.12622065575E+01  0.23100779290E+01 -0.27117447423E+01  0.37793101195E+01  0.00000000000E+00 0.  1.
</event>
<event>
 8    1  0.2482403E-006  0.9118800E+02  0.7816164E-02  0.1184000E+00
        -11   -1    0    0    0    0  0.00000000000E+00  0.00000000000E+00  0.45593999997E+02  0.45594000000E+02  0.51100000000E-03 0. -1.
         11   -1    0    0    0    0 -0.00000000000E+00 -0.00000000000E+00 -0.45593999997E+02  0.45594000000E+02  0.51100000000E-03 0.  1.
         23    2    1    2    0    0  0.00000000000E+00  0.88817841970E-15  0.00000000000E+00  0.91188000000E+02  0.91188000000E+02 0.  0.
    9900012    2    3    3    0    0  0.26786104751E+02 -0.72481885335E+01  0.24202235441E+02  0.54367084135E+02  0.39999999903E+02 0.  0.
        -12    1    3    3    0    0 -0.26786104751E+02  0.72481885335E+01 -0.24202235441E+02  0.36820915865E+02  0.00000000000E+00 0.  1.
         11    1    4    4    0    0  0.13524090626E+02 -0.14159041089E+02  0.17272896454E+02  0.26110006204E+02  0.51100000000E-03 0. -1.
        -11    1    4    4    0    0 -0.39208769178E+01 -0.15994644736E+01 -0.43008167704E+01  0.60356099576E+01  0.51100000000E-03 0.  1.
        -12    1    4    4    0    0  0.17182891043E+02  0.85103170296E+01  0.11230155757E+02  0.22221467973E+02  0.00000000000E+00 0.  1.
</event>
<event>
 8    1  0.2482403E-006  0.9118800E+02  0.7816164E-02  0.1184000E+00
        -11   -1    0    0    0    0  0.00000000000E+00  0.00000000000E+00  0.45593999997E+02  0.45594000000E+02  0.51100000000E-03 0.  1.
         11   -1    0    0    0    0 -0.00000000000E+00 -0.00000000000E+00 -0.45593999997E+02  0.45594000000E+02  0.51100000000E-03 0. -1.
         23    2    1    2    0    0  0.00000000000E+00  0.71054273576E-14  0.00000000000E+00  0.91188000000E+02  0.91188000000E+02 0.  0.
    9900012    2    3    3    0    0 -0.13762319255E+02 -0.33373936508E+02 -0.72497111274E+01  0.54367090441E+02  0.40000014278E+02 0.  0.
         12    1    3    3    0    0  0.13762319255E+02  0.33373936508E+02  0.72497111274E+01  0.36820909559E+02  0.00000000000E+00 0. -1.
         11    1    4    4    0    0  0.76044271285E+01 -0.71462098907E+01 -0.13261571492E+02  0.16874978710E+02  0.51100000000E-03 0. -1.
        -11    1    4    4    0    0 -0.13692313537E+02 -0.20427254529E+02  0.10666441906E+02  0.26805319636E+02  0.51100000000E-03 0.  1.
        -12    1    4    4    0    0 -0.76744328458E+01 -0.58004720883E+01 -0.46545815416E+01  0.10686792095E+02  0.00000000000E+00 0.  1.
</event>
<event>
 8    1  0.2482403E-006  0.9118800E+02  0.7816164E-02  0.1184000E+00
        -11   -1    0    0    0    0  0.00000000000E+00  0.00000000000E+00  0.45593999997E+02  0.45594000000E+02  0.51100000000E-03 0.  1.
         11   -1    0    0    0    0 -0.00000000000E+00 -0.00000000000E+00 -0.45593999997E+02  0.45594000000E+02  0.51100000000E-03 0. -1.
         23    2    1    2    0    0  0.17763568394E-14 -0.35527136788E-14  0.00000000000E+00  0.91188000000E+02  0.91188000000E+02 0.  0.
    9900012    2    3    3    0    0  0.15303315632E+02 -0.25703763080E+02 -0.21468695117E+02  0.54367085076E+02  0.40000002048E+02 0.  0.
        -12    1    3    3    0    0 -0.15303315632E+02  0.25703763080E+02  0.21468695117E+02  0.36820914924E+02  0.00000000000E+00 0.  1.
         11    1    4    4    0    0  0.12540136385E+02 -0.80286750925E+01 -0.17974901568E+02  0.23341202431E+02  0.51100000000E-03 0. -1.
        -11    1    4    4    0    0  0.88131538603E+01  0.14793169582E+01  0.37239926810E+01  0.96813315911E+01  0.51100000000E-03 0.  1.
        -12    1    4    4    0    0 -0.60499746129E+01 -0.19154404946E+02 -0.72177862293E+01  0.21344551054E+02  0.00000000000E+00 0.  1.
</event>
<event>
 8    1  0.2482403E-006  0.9118800E+02  0.7816164E-02  0.1184000E+00
        -11   -1    0    0    0    0  0.00000000000E+00  0.00000000000E+00  0.45593999997E+02  0.45594000000E+02  0.51100000000E-03 0.  1.
         11   -1    0    0    0    0 -0.00000000000E+00 -0.00000000000E+00 -0.45593999997E+02  0.45594000000E+02  0.51100000000E-03 0. -1.
         23    2    1    2    0    0 -0.35527136788E-14  0.00000000000E+00 -0.22204460493E-15  0.91188000000E+02  0.91188000000E+02 0.  0.
    9900012    2    3    3    0    0 -0.18771056882E+02  0.31671074691E+02  0.60827550296E+00  0.54367088175E+02  0.40000009112E+02 0.  0.
        -12    1    3    3    0    0  0.18771056882E+02 -0.31671074691E+02 -0.60827550296E+00  0.36820911825E+02  0.00000000000E+00 0.  1.
         11    1    4    4    0    0  0.64732250073E+01 -0.34813768093E+01  0.20591672664E+01  0.76330070467E+01  0.51100000000E-03 0. -1.
        -11    1    4    4    0    0 -0.58818566211E+01  0.31245755981E+01 -0.60863261314E+01  0.90223376139E+01  0.51100000000E-03 0.  1.
         12    1    4    4    0    0 -0.19362425268E+02  0.32027875903E+02  0.46354343680E+01  0.37711743514E+02  0.00000000000E+00 0. -1.
</event>
<event>
 8    1  0.2482403E-006  0.9118800E+02  0.7816164E-02  0.1184000E+00
        -11   -1    0    0    0    0  0.00000000000E+00  0.00000000000E+00  0.45593999997E+02  0.45594000000E+02  0.51100000000E-03 0. -1.
         11   -1    0    0    0    0 -0.00000000000E+00 -0.00000000000E+00 -0.45593999997E+02  0.45594000000E+02  0.51100000000E-03 0.  1.
         23    2    1    2    0    0  0.00000000000E+00 -0.35527136788E-14  0.35527136788E-14  0.91188000000E+02  0.91188000000E+02 0.  0.
    9900012    2    3    3    0    0  0.11101985635E+02  0.24642764203E+02 -0.25005205397E+02  0.54367079187E+02  0.39999988623E+02 0.  0.
         12    1    3    3    0    0 -0.11101985635E+02 -0.24642764203E+02  0.25005205397E+02  0.36820920813E+02  0.00000000000E+00 0. -1.
         11    1    4    4    0    0  0.91921823074E+01  0.21360378714E+02 -0.73514715984E+01  0.24388647550E+02  0.51100000000E-03 0. -1.
        -11    1    4    4    0    0 -0.64178930502E+00  0.13130285644E+02 -0.58303572279E+01  0.14380867855E+02  0.51100000000E-03 0.  1.
         12    1    4    4    0    0  0.25515926324E+01 -0.98479001552E+01 -0.11823376570E+02  0.15597563783E+02  0.00000000000E+00 0. -1.
</event>
<event>
 8    1  0.2482403E-006  0.9118800E+02  0.7816164E-02  0.1184000E+00
        -11   -1    0    0    0    0  0.00000000000E+00  0.00000000000E+00  0.45593999997E+02  0.45594000000E+02  0.51100000000E-03 0.  1.
         11   -1    0    0    0    0 -0.00000000000E+00 -0.00000000000E+00 -0.45593999997E+02  0.45594000000E+02  0.51100000000E-03 0. -1.
         23    2    1    2    0    0  0.00000000000E+00  0.35527136788E-14  0.00000000000E+00  0.91188000000E+02  0.91188000000E+02 0.  0.
    9900012    2    3    3    0    0  0.14656021898E+02 -0.19140673647E+02 -0.27831907636E+02  0.54367089525E+02  0.40000012190E+02 0.  0.
        -12    1    3    3    0    0 -0.14656021898E+02  0.19140673647E+02  0.27831907636E+02  0.36820910475E+02  0.00000000000E+00 0.  1.
         11    1    4    4    0    0  0.23587889466E+02 -0.11237133365E+01 -0.15023972956E+02  0.27988766045E+02  0.51100000000E-03 0. -1.
        -11    1    4    4    0    0 -0.12696868366E+01 -0.13937224978E+02 -0.55208769139E+01  0.15044548079E+02  0.51100000000E-03 0.  1.
         12    1    4    4    0    0 -0.76621807309E+01 -0.40797353329E+01 -0.72870577665E+01  0.11333775401E+02  0.00000000000E+00 0. -1.
</event>
<event>
 8    1  0.2482403E-006  0.9118800E+02  0.7816164E-02  0.1184000E+00
        -11   -1    0    0    0    0  0.00000000000E+00  0.00000000000E+00  0.45593999997E+02  0.45594000000E+02  0.51100000000E-03 0. -1.
         11   -1    0    0    0    0 -0.00000000000E+00 -0.00000000000E+00 -0.45593999997E+02  0.45594000000E+02  0.51100000000E-03 0.  1.
         23    2    1    2    0    0  0.35527136788E-14  0.00000000000E+00  0.00000000000E+00  0.91188000000E+02  0.91188000000E+02 0.  0.
    9900012    2    3    3    0    0 -0.26404238601E+02 -0.14564063213E+02  0.21130184142E+02  0.54367076122E+02  0.39999981636E+02 0.  0.
        -12    1    3    3    0    0  0.26404238601E+02  0.14564063213E+02 -0.21130184142E+02  0.36820923878E+02  0.00000000000E+00 0.  1.
         11    1    4    4    0    0 -0.11854261787E+02 -0.64080009539E+01  0.28619240693E+02  0.31633003918E+02  0.51100000000E-03 0. -1.
        -11    1    4    4    0    0 -0.13507735311E+02 -0.12359279135E+01 -0.17361906592E+01  0.13674823191E+02  0.51100000000E-03 0.  1.
        -12    1    4    4    0    0 -0.10422415029E+01 -0.69201343456E+01 -0.57528658923E+01  0.90592490134E+01  0.00000000000E+00 0.  1.
</event>
<event>
 8    1  0.2482403E-006  0.9118800E+02  0.7816164E-02  0.1184000E+00
        -11   -1    0    0    0    0  0.00000000000E+00  0.00000000000E+00  0.45593999997E+02  0.45594000000E+02  0.51100000000E-03 0.  1.
         11   -1    0    0    0    0 -0.00000000000E+00 -0.00000000000E+00 -0.45593999997E+02  0.45594000000E+02  0.51100000000E-03 0. -1.
         23    2    1    2    0    0 -0.88817841970E-15  0.71054273576E-14  0.17763568394E-14  0.91188000000E+02  0.91188000000E+02 0.  0.
    9900012    2    3    3    0    0  0.50292849518E+01 -0.33523914167E+02 -0.14374980280E+02  0.54366992596E+02  0.39999791220E+02 0.  0.
        -12    1    3    3    0    0 -0.50292849518E+01  0.33523914167E+02  0.14374980280E+02  0.36821007404E+02  0.00000000000E+00 0.  1.
         11    1    4    4    0    0  0.85494878472E+00 -0.21208308266E+02 -0.18453291535E+02  0.28125562139E+02  0.51100000000E-03 0. -1.
        -11    1    4    4    0    0 -0.29521986683E+01  0.54896502826E+01  0.32867865200E+01  0.70466093330E+01  0.51100000000E-03 0.  1.
        -12    1    4    4    0    0  0.71265348354E+01 -0.17805256184E+02  0.79152473509E+00  0.19194821123E+02  0.00000000000E+00 0.  1.
</event>
<event>
 8    1  0.2482403E-006  0.9118800E+02  0.7816164E-02  0.1184000E+00
        -11   -1    0    0    0    0  0.00000000000E+00  0.00000000000E+00  0.45593999997E+02  0.45594000000E+02  0.51100000000E-03 0.  1.
         11   -1    0    0    0    0 -0.00000000000E+00 -0.00000000000E+00 -0.45593999997E+02  0.45594000000E+02  0.51100000000E-03 0. -1.
         23    2    1    2    0    0  0.35527136788E-14  0.00000000000E+00  0.00000000000E+00  0.91188000000E+02  0.91188000000E+02 0.  0.
    9900012    2    3    3    0    0 -0.17713503551E+02 -0.11771111912E+02  0.30057484083E+02  0.54367087014E+02  0.40000006466E+02 0.  0.
         12    1    3    3    0    0  0.17713503551E+02  0.11771111912E+02 -0.30057484083E+02  0.36820912986E+02  0.00000000000E+00 0. -1.
         11    1    4    4    0    0  0.12857876732E+00  0.69187420436E+01  0.42251594084E+01  0.81078663194E+01  0.51100000000E-03 0. -1.
        -11    1    4    4    0    0  0.50743692241E+01 -0.73861571407E+01  0.17010545592E+02  0.19226627419E+02  0.51100000000E-03 0.  1.
        -12    1    4    4    0    0 -0.22916451543E+02 -0.11303696815E+02  0.88217790824E+01  0.27032593275E+02  0.00000000000E+00 0.  1.
</event>
<event>
 8    1  0.2482403E-006  0.9118800E+02  0.7816164E-02  0.1184000E+00
        -11   -1    0    0    0    0  0.00000000000E+00  0.00000000000E+00  0.45593999997E+02  0.45594000000E+02  0.51100000000E-03 0.  1.
         11   -1    0    0    0    0 -0.00000000000E+00 -0.00000000000E+00 -0.45593999997E+02  0.45594000000E+02  0.51100000000E-03 0. -1.
         23    2    1    2    0    0  0.00000000000E+00  0.00000000000E+00 -0.22204460493E-15  0.91188000000E+02  0.91188000000E+02 0.  0.
    9900012    2    3    3    0    0  0.36554374607E+02  0.43117101744E+01 -0.98309467286E+00  0.54367087156E+02  0.40000006789E+02 0.  0.
         12    1    3    3    0    0 -0.36554374607E+02 -0.43117101744E+01  0.98309467286E+00  0.36820912844E+02  0.00000000000E+00 0. -1.
         11    1    4    4    0    0  0.16620644696E+02  0.31370257184E+01  0.90422178741E+01  0.19179376028E+02  0.51100000000E-03 0. -1.
        -11    1    4    4    0    0  0.19749371048E+01  0.11685278225E+02  0.51462624812E+00  0.11862164398E+02  0.51100000000E-03 0.  1.
         12    1    4    4    0    0  0.17958792806E+02 -0.10510593769E+02 -0.10539938795E+02  0.23325546730E+02  0.00000000000E+00 0. -1.
</event>
<event>
 8    1  0.2482403E-006  0.9118800E+02  0.7816164E-02  0.1184000E+00
        -11   -1    0    0    0    0  0.00000000000E+00  0.00000000000E+00  0.45593999997E+02  0.45594000000E+02  0.51100000000E-03 0.  1.
         11   -1    0    0    0    0 -0.00000000000E+00 -0.00000000000E+00 -0.45593999997E+02  0.45594000000E+02  0.51100000000E-03 0. -1.
         23    2    1    2    0    0 -0.88817841970E-15  0.71054273576E-14  0.35527136788E-14  0.91188000000E+02  0.91188000000E+02 0.  0.
    9900012    2    3    3    0    0  0.46949894000E+01 -0.27485202270E+02 -0.24047821157E+02  0.54367123155E+02  0.40000088856E+02 0.  0.
        -12    1    3    3    0    0 -0.46949894000E+01  0.27485202270E+02  0.24047821157E+02  0.36820876845E+02  0.00000000000E+00 0.  1.
         11    1    4    4    0    0 -0.13795472350E+02 -0.10297547973E+02 -0.31245164741E+01  0.17496204019E+02  0.51100000000E-03 0. -1.
        -11    1    4    4    0    0  0.10835170200E+02 -0.10586247722E+02 -0.18189463054E+01  0.15257067871E+02  0.51100000000E-03 0.  1.
         12    1    4    4    0    0  0.76552915502E+01 -0.66014065750E+01 -0.19104358377E+02  0.21613851265E+02  0.00000000000E+00 0. -1.
</event>
<event>
 8    1  0.2482403E-006  0.9118800E+02  0.7816164E-02  0.1184000E+00
        -11   -1    0    0    0    0  0.00000000000E+00  0.00000000000E+00  0.45593999997E+02  0.45594000000E+02  0.51100000000E-03 0. -1.
         11   -1    0    0    0    0 -0.00000000000E+00 -0.00000000000E+00 -0.45593999997E+02  0.45594000000E+02  0.51100000000E-03 0.  1.
         23    2    1    2    0    0  0.00000000000E+00 -0.88817841970E-15 -0.35527136788E-14  0.91188000000E+02  0.91188000000E+02 0.  0.
    9900012    2    3    3    0    0 -0.23529839414E+02  0.49085940613E+01  0.27893164202E+02  0.54367132986E+02  0.40000111268E+02 0.  0.
        -12    1    3    3    0    0  0.23529839414E+02 -0.49085940613E+01 -0.27893164202E+02  0.36820867014E+02  0.00000000000E+00 0.  1.
         11    1    4    4    0    0 -0.16439577646E+02  0.13686609396E+02  0.16015308835E+02  0.26722146382E+02  0.51100000000E-03 0. -1.
        -11    1    4    4    0    0 -0.79215372265E+01 -0.48622641805E+01 -0.48226684239E+01  0.10471413275E+02  0.51100000000E-03 0.  1.
        -12    1    4    4    0    0  0.83127545838E+00 -0.39157511543E+01  0.16700523791E+02  0.17173573329E+02  0.00000000000E+00 0.  1.
</event>
<event>
 8    1  0.2482403E-006  0.9118800E+02  0.7816164E-02  0.1184000E+00
        -11   -1    0    0    0    0  0.00000000000E+00  0.00000000000E+00  0.45593999997E+02  0.45594000000E+02  0.51100000000E-03 0. -1.
         11   -1    0    0    0    0 -0.00000000000E+00 -0.00000000000E+00 -0.45593999997E+02  0.45594000000E+02  0.51100000000E-03 0.  1.
         23    2    1    2    0    0  0.00000000000E+00  0.00000000000E+00  0.17763568394E-14  0.91188000000E+02  0.91188000000E+02 0.  0.
    9900012    2    3    3    0    0  0.33714387204E+02  0.12808416362E+02 -0.74203772731E+01  0.54367116888E+02  0.40000074570E+02 0.  0.
         12    1    3    3    0    0 -0.33714387204E+02 -0.12808416362E+02  0.74203772731E+01  0.36820883112E+02  0.00000000000E+00 0. -1.
         11    1    4    4    0    0  0.16868959890E+01  0.88621017698E+01  0.68725717380E+01  0.11340842491E+02  0.51100000000E-03 0. -1.
        -11    1    4    4    0    0  0.13759981019E+02 -0.60942282994E+01  0.36915105980E+01  0.15495287896E+02  0.51100000000E-03 0.  1.
        -12    1    4    4    0    0  0.18267510196E+02  0.10040542891E+02 -0.17984459609E+02  0.27530986501E+02  0.00000000000E+00 0.  1.
</event>
<event>
 8    1  0.2482403E-006  0.9118800E+02  0.7816164E-02  0.1184000E+00
        -11   -1    0    0    0    0  0.00000000000E+00  0.00000000000E+00  0.45593999997E+02  0.45594000000E+02  0.51100000000E-03 0.  1.
         11   -1    0    0    0    0 -0.00000000000E+00 -0.00000000000E+00 -0.45593999997E+02  0.45594000000E+02  0.51100000000E-03 0. -1.
         23    2    1    2    0    0  0.00000000000E+00  0.00000000000E+00  0.17763568394E-14  0.91188000000E+02  0.91188000000E+02 0.  0.
    9900012    2    3    3    0    0 -0.34286807020E+02  0.14464058441E+01 -0.13345485159E+02  0.54367092900E+02  0.40000019885E+02 0.  0.
        -12    1    3    3    0    0  0.34286807020E+02 -0.14464058441E+01  0.13345485159E+02  0.36820907100E+02  0.00000000000E+00 0.  1.
         11    1    4    4    0    0 -0.19494204511E+02  0.35780929905E+01  0.52223639514E+00  0.19826736748E+02  0.51100000000E-03 0. -1.
        -11    1    4    4    0    0  0.28763635041E+01  0.55344586721E+01  0.46826409152E+01  0.77994119011E+01  0.51100000000E-03 0.  1.
        -12    1    4    4    0    0 -0.17668966013E+02 -0.76661458186E+01 -0.18550362470E+02  0.26740944251E+02  0.00000000000E+00 0.  1.
</event>
<event>
 8    1  0.2482403E-006  0.9118800E+02  0.7816164E-02  0.1184000E+00
        -11   -1    0    0    0    0  0.00000000000E+00  0.00000000000E+00  0.45593999997E+02  0.45594000000E+02  0.51100000000E-03 0.  1.
         11   -1    0    0    0    0 -0.00000000000E+00 -0.00000000000E+00 -0.45593999997E+02  0.45594000000E+02  0.51100000000E-03 0. -1.
         23    2    1    2    0    0  0.00000000000E+00  0.00000000000E+00  0.88817841970E-15  0.91188000000E+02  0.91188000000E+02 0.  0.
    9900012    2    3    3    0    0 -0.34657924327E+02  0.10884518540E+02  0.60113014988E+01  0.54367079205E+02  0.39999988664E+02 0.  0.
        -12    1    3    3    0    0  0.34657924327E+02 -0.10884518540E+02 -0.60113014988E+01  0.36820920795E+02  0.00000000000E+00 0.  1.
         11    1    4    4    0    0 -0.24129953944E+02  0.14363270325E+02  0.23755689542E+01  0.28181581572E+02  0.51100000000E-03 0. -1.
        -11    1    4    4    0    0 -0.12218722830E+02 -0.54187422527E+01  0.11673221552E+02  0.17746099764E+02  0.51100000000E-03 0.  1.
        -12    1    4    4    0    0  0.16907524475E+01  0.19399904677E+01 -0.80374890071E+01  0.84393978690E+01  0.00000000000E+00 0.  1.
</event>
<event>
 8    1  0.2482403E-006  0.9118800E+02  0.7816164E-02  0.1184000E+00
        -11   -1    0    0    0    0  0.00000000000E+00  0.00000000000E+00  0.45593999997E+02  0.45594000000E+02  0.51100000000E-03 0.  1.
         11   -1    0    0    0    0 -0.00000000000E+00 -0.00000000000E+00 -0.45593999997E+02  0.45594000000E+02  0.51100000000E-03 0. -1.
         23    2    1    2    0    0  0.00000000000E+00  0.00000000000E+00  0.35527136788E-14  0.91188000000E+02  0.91188000000E+02 0.  0.
    9900012    2    3    3    0    0 -0.54644204349E+01 -0.17445896840E+02  0.31961863387E+02  0.54367083140E+02  0.39999997634E+02 0.  0.
         12    1    3    3    0    0  0.54644204349E+01  0.17445896840E+02 -0.31961863387E+02  0.36820916860E+02  0.00000000000E+00 0. -1.
         11    1    4    4    0    0  0.67300406523E+01  0.47447217782E+01  0.17351369102E+02  0.19206140734E+02  0.51100000000E-03 0. -1.
        -11    1    4    4    0    0 -0.65326560519E+01 -0.14121279947E+02 -0.21595950132E+01  0.15708277860E+02  0.51100000000E-03 0.  1.
         12    1    4    4    0    0 -0.56618050353E+01 -0.80693386706E+01  0.16770089299E+02  0.19452664546E+02  0.00000000000E+00 0. -1.
</event>
<event>
 8    1  0.2482403E-006  0.9118800E+02  0.7816164E-02  0.1184000E+00
        -11   -1    0    0    0    0  0.00000000000E+00  0.00000000000E+00  0.45593999997E+02  0.45594000000E+02  0.51100000000E-03 0. -1.
         11   -1    0    0    0    0 -0.00000000000E+00 -0.00000000000E+00 -0.45593999997E+02  0.45594000000E+02  0.51100000000E-03 0.  1.
         23    2    1    2    0    0  0.00000000000E+00  0.22204460493E-15 -0.88817841970E-15  0.91188000000E+02  0.91188000000E+02 0.  0.
    9900012    2    3    3    0    0  0.36523604074E+02 -0.12272206141E+01  0.45055991595E+01  0.54367080012E+02  0.39999990504E+02 0.  0.
        -12    1    3    3    0    0 -0.36523604074E+02  0.12272206141E+01 -0.45055991595E+01  0.36820919988E+02  0.00000000000E+00 0.  1.
         11    1    4    4    0    0  0.66382489672E+01  0.13643362030E+02  0.69517864668E+01  0.16689368238E+02  0.51100000000E-03 0. -1.
        -11    1    4    4    0    0  0.64594048233E+01 -0.15252451903E+01 -0.77466565613E+01  0.10201027973E+02  0.51100000000E-03 0.  1.
        -12    1    4    4    0    0  0.23425950283E+02 -0.13345337454E+02  0.53004692540E+01  0.27476683802E+02  0.00000000000E+00 0.  1.
</event>
<event>
 8    1  0.2482403E-006  0.9118800E+02  0.7816164E-02  0.1184000E+00
        -11   -1    0    0    0    0  0.00000000000E+00  0.00000000000E+00  0.45593999997E+02  0.45594000000E+02  0.51100000000E-03 0.  1.
         11   -1    0    0    0    0 -0.00000000000E+00 -0.00000000000E+00 -0.45593999997E+02  0.45594000000E+02  0.51100000000E-03 0. -1.
         23    2    1    2    0    0  0.00000000000E+00  0.00000000000E+00  0.00000000000E+00  0.91188000000E+02  0.91188000000E+02 0.  0.
    9900012    2    3    3    0    0  0.82292057069E+01  0.35061232117E+02  0.76658265860E+01  0.54367153712E+02  0.40000158516E+02 0.  0.
         12    1    3    3    0    0 -0.82292057069E+01 -0.35061232117E+02 -0.76658265860E+01  0.36820846288E+02  0.00000000000E+00 0. -1.
         11    1    4    4    0    0 -0.36962681979E+01  0.18195742708E+02  0.57135858503E+01  0.19426592980E+02  0.51100000000E-03 0. -1.
        -11    1    4    4    0    0 -0.26695996105E+01  0.18164089351E+02  0.66912044229E+01  0.19540550681E+02  0.51100000000E-03 0.  1.
         12    1    4    4    0    0  0.14595073515E+02 -0.12985999416E+01 -0.47389636872E+01  0.15400010050E+02  0.00000000000E+00 0. -1.
</event>
<event>
 8    1  0.2482403E-006  0.9118800E+02  0.7816164E-02  0.1184000E+00
        -11   -1    0    0    0    0  0.00000000000E+00  0.00000000000E+00  0.45593999997E+02  0.45594000000E+02  0.51100000000E-03 0.  1.
         11   -1    0    0    0    0 -0.00000000000E+00 -0.00000000000E+00 -0.45593999997E+02  0.45594000000E+02  0.51100000000E-03 0. -1.
         23    2    1    2    0    0  0.00000000000E+00  0.17763568394E-14  0.00000000000E+00  0.91188000000E+02  0.91188000000E+02 0.  0.
    9900012    2    3    3    0    0  0.22086018765E+02 -0.15746306375E+02  0.24900628318E+02  0.54367086377E+02  0.40000005015E+02 0.  0.
         12    1    3    3    0    0 -0.22086018765E+02  0.15746306375E+02 -0.24900628318E+02  0.36820913623E+02  0.00000000000E+00 0. -1.
         11    1    4    4    0    0  0.44088217549E+01 -0.70751180932E+01 -0.57849578012E+01  0.10146957294E+02  0.51100000000E-03 0. -1.
        -11    1    4    4    0    0  0.17650952375E+02  0.42429003439E+01  0.22581399320E+02  0.28973745332E+02  0.51100000000E-03 0.  1.
        -12    1    4    4    0    0  0.26244635434E-01 -0.12914088626E+02  0.81041867999E+01  0.15246383752E+02  0.00000000000E+00 0.  1.
</event>
<event>
 8    1  0.2482403E-006  0.9118800E+02  0.7816164E-02  0.1184000E+00
        -11   -1    0    0    0    0  0.00000000000E+00  0.00000000000E+00  0.45593999997E+02  0.45594000000E+02  0.51100000000E-03 0. -1.
         11   -1    0    0    0    0 -0.00000000000E+00 -0.00000000000E+00 -0.45593999997E+02  0.45594000000E+02  0.51100000000E-03 0.  1.
         23    2    1    2    0    0  0.35527136788E-14  0.00000000000E+00 -0.17763568394E-14  0.91188000000E+02  0.91188000000E+02 0.  0.
    9900012    2    3    3    0    0  0.30205482446E+02  0.17249418596E+02 -0.12077113509E+02  0.54367213990E+02  0.40000295931E+02 0.  0.
         12    1    3    3    0    0 -0.30205482446E+02 -0.17249418596E+02  0.12077113509E+02  0.36820786010E+02  0.00000000000E+00 0. -1.
         11    1    4    4    0    0 -0.57683015819E+01  0.20049677130E+01  0.19946810733E+01  0.64243249852E+01  0.51100000000E-03 0. -1.
        -11    1    4    4    0    0  0.38826102713E+02  0.17103713852E+02 -0.13042025497E+02  0.44385782732E+02  0.51100000000E-03 0.  1.
        -12    1    4    4    0    0 -0.28523186849E+01 -0.18592629686E+01 -0.10297690855E+01  0.35571062728E+01  0.00000000000E+00 0.  1.
</event>
<event>
 8    1  0.2482403E-006  0.9118800E+02  0.7816164E-02  0.1184000E+00
        -11   -1    0    0    0    0  0.00000000000E+00  0.00000000000E+00  0.45593999997E+02  0.45594000000E+02  0.51100000000E-03 0.  1.
         11   -1    0    0    0    0 -0.00000000000E+00 -0.00000000000E+00 -0.45593999997E+02  0.45594000000E+02  0.51100000000E-03 0. -1.
         23    2    1    2    0    0  0.13322676296E-14  0.71054273576E-14 -0.35527136788E-14  0.91188000000E+02  0.91188000000E+02 0.  0.
    9900012    2    3    3    0    0  0.30702681985E+01  0.33017365642E+02 -0.16006419336E+02  0.54367103206E+02  0.40000043379E+02 0.  0.
        -12    1    3    3    0    0 -0.30702681985E+01 -0.33017365642E+02  0.16006419336E+02  0.36820896794E+02  0.00000000000E+00 0.  1.
         11    1    4    4    0    0 -0.26373622411E+01  0.29717533435E+02 -0.76028536658E+01  0.30787836189E+02  0.51100000000E-03 0. -1.
        -11    1    4    4    0    0 -0.55107743795E+01  0.27920597561E-01  0.37914543702E+01  0.66891359923E+01  0.51100000000E-03 0.  1.
        -12    1    4    4    0    0  0.11218404819E+02  0.32719116089E+01 -0.12195020040E+02  0.16890131025E+02  0.00000000000E+00 0.  1.
</event>
<event>
 8    1  0.2482403E-006  0.9118800E+02  0.7816164E-02  0.1184000E+00
        -11   -1    0    0    0    0  0.00000000000E+00  0.00000000000E+00  0.45593999997E+02  0.45594000000E+02  0.51100000000E-03 0. -1.
         11   -1    0    0    0    0 -0.00000000000E+00 -0.00000000000E+00 -0.45593999997E+02  0.45594000000E+02  0.51100000000E-03 0.  1.
         23    2    1    2    0    0 -0.35527136788E-14  0.11102230246E-15  0.35527136788E-14  0.91188000000E+02  0.91188000000E+02 0.  0.
    9900012    2    3    3    0    0 -0.20727016031E+02  0.65017983077E+00 -0.30426101563E+02  0.54367087685E+02  0.40000007997E+02 0.  0.
         12    1    3    3    0    0  0.20727016031E+02 -0.65017983077E+00  0.30426101563E+02  0.36820912315E+02  0.00000000000E+00 0. -1.
         11    1    4    4    0    0 -0.77437383726E+01  0.27373821054E+01  0.29690718277E+01  0.87335063149E+01  0.51100000000E-03 0. -1.
        -11    1    4    4    0    0 -0.15570626912E+02 -0.81202681110E+01 -0.34745991109E+02  0.38931569131E+02  0.51100000000E-03 0.  1.
         12    1    4    4    0    0  0.25873492537E+01  0.60330658364E+01  0.13508177184E+01  0.67020122392E+01  0.00000000000E+00 0. -1.
</event>
<event>
 8    1  0.2482403E-006  0.9118800E+02  0.7816164E-02  0.1184000E+00
        -11   -1    0    0    0    0  0.00000000000E+00  0.00000000000E+00  0.45593999997E+02  0.45594000000E+02  0.51100000000E-03 0. -1.
         11   -1    0    0    0    0 -0.00000000000E+00 -0.00000000000E+00 -0.45593999997E+02  0.45594000000E+02  0.51100000000E-03 0.  1.
         23    2    1    2    0    0  0.44408920985E-15  0.00000000000E+00  0.00000000000E+00  0.91188000000E+02  0.91188000000E+02 0.  0.
    9900012    2    3    3    0    0  0.10603642426E+01 -0.31091776675E+02 -0.19696734573E+02  0.54367023614E+02  0.39999861934E+02 0.  0.
         12    1    3    3    0    0 -0.10603642426E+01  0.31091776675E+02  0.19696734573E+02  0.36820976386E+02  0.00000000000E+00 0. -1.
         11    1    4    4    0    0 -0.17061648275E+01  0.41208585085E+00 -0.10789543663E+01  0.20603290885E+01  0.51100000000E-03 0. -1.
        -11    1    4    4    0    0  0.15795673829E+02 -0.11623400891E+02  0.34029865253E+01  0.19904448687E+02  0.51100000000E-03 0.  1.
        -12    1    4    4    0    0 -0.13029144758E+02 -0.19880461635E+02 -0.22020766732E+02  0.32402245839E+02  0.00000000000E+00 0.  1.
</event>
<event>
 8    1  0.2482403E-006  0.9118800E+02  0.7816164E-02  0.1184000E+00
        -11   -1    0    0    0    0  0.00000000000E+00  0.00000000000E+00  0.45593999997E+02  0.45594000000E+02  0.51100000000E-03 0. -1.
         11   -1    0    0    0    0 -0.00000000000E+00 -0.00000000000E+00 -0.45593999997E+02  0.45594000000E+02  0.51100000000E-03 0.  1.
         23    2    1    2    0    0  0.88817841970E-15  0.00000000000E+00 -0.71054273576E-14  0.91188000000E+02  0.91188000000E+02 0.  0.
    9900012    2    3    3    0    0 -0.53700889482E+01 -0.20225719511E+02  0.30296231287E+02  0.54367092688E+02  0.40000019402E+02 0.  0.
        -12    1    3    3    0    0  0.53700889482E+01  0.20225719511E+02 -0.30296231287E+02  0.36820907312E+02  0.00000000000E+00 0.  1.
         11    1    4    4    0    0 -0.36210514979E+01 -0.14704324217E+02  0.12686273877E+02  0.19755270431E+02  0.51100000000E-03 0. -1.
        -11    1    4    4    0    0 -0.12365129396E+02 -0.90192916652E+01  0.20329646505E+01  0.15439462188E+02  0.51100000000E-03 0.  1.
         12    1    4    4    0    0  0.10616091946E+02  0.34978963716E+01  0.15576992759E+02  0.19172360070E+02  0.00000000000E+00 0. -1.
</event>
<event>
 8    1  0.2482403E-006  0.9118800E+02  0.7816164E-02  0.1184000E+00
        -11   -1    0    0    0    0  0.00000000000E+00  0.00000000000E+00  0.45593999997E+02  0.45594000000E+02  0.51100000000E-03 0. -1.
         11   -1    0    0    0    0 -0.00000000000E+00 -0.00000000000E+00 -0.45593999997E+02  0.45594000000E+02  0.51100000000E-03 0.  1.
         23    2    1    2    0    0  0.00000000000E+00 -0.33306690739E-15  0.00000000000E+00  0.91188000000E+02  0.91188000000E+02 0.  0.
    9900012    2    3    3    0    0  0.16792990261E+02 -0.86006689684E+00 -0.32757258915E+02  0.54367051497E+02  0.39999925499E+02 0.  0.
         12    1    3    3    0    0 -0.16792990261E+02  0.86006689684E+00  0.32757258915E+02  0.36820948503E+02  0.00000000000E+00 0. -1.
         11    1    4    4    0    0  0.44279366744E+01  0.61333464395E+01  0.48026516550E+01  0.89604701282E+01  0.51100000000E-03 0. -1.
        -11    1    4    4    0    0 -0.37523111988E+01 -0.19397657297E+01 -0.22127786884E+02  0.22527349668E+02  0.51100000000E-03 0.  1.
        -12    1    4    4    0    0  0.16117364786E+02 -0.50536476066E+01 -0.15432123686E+02  0.22879231701E+02  0.00000000000E+00 0.  1.
</event>
<event>
 8    1  0.2482403E-006  0.9118800E+02  0.7816164E-02  0.1184000E+00
        -11   -1    0    0    0    0  0.00000000000E+00  0.00000000000E+00  0.45593999997E+02  0.45594000000E+02  0.51100000000E-03 0.  1.
         11   -1    0    0    0    0 -0.00000000000E+00 -0.00000000000E+00 -0.45593999997E+02  0.45594000000E+02  0.51100000000E-03 0. -1.
         23    2    1    2    0    0  0.00000000000E+00  0.00000000000E+00 -0.35527136788E-14  0.91188000000E+02  0.91188000000E+02 0.  0.
    9900012    2    3    3    0    0 -0.24776748257E+02  0.25441836158E+01 -0.27118631201E+02  0.54367078194E+02  0.39999986358E+02 0.  0.
        -12    1    3    3    0    0  0.24776748257E+02 -0.25441836158E+01  0.27118631201E+02  0.36820921806E+02  0.00000000000E+00 0.  1.
         11    1    4    4    0    0 -0.96001318345E+01  0.37887906343E+01 -0.77305139359E+01  0.12894894792E+02  0.51100000000E-03 0. -1.
        -11    1    4    4    0    0 -0.16329604560E+02 -0.15907125228E+01  0.49243267017E+01  0.17129954616E+02  0.51100000000E-03 0.  1.
         12    1    4    4    0    0  0.11529881373E+01  0.34610550436E+00 -0.24312443967E+02  0.24342228786E+02  0.00000000000E+00 0. -1.
</event>
<event>
 8    1  0.2482403E-006  0.9118800E+02  0.7816164E-02  0.1184000E+00
        -11   -1    0    0    0    0  0.00000000000E+00  0.00000000000E+00  0.45593999997E+02  0.45594000000E+02  0.51100000000E-03 0. -1.
         11   -1    0    0    0    0 -0.00000000000E+00 -0.00000000000E+00 -0.45593999997E+02  0.45594000000E+02  0.51100000000E-03 0.  1.
         23    2    1    2    0    0 -0.44408920985E-15  0.17763568394E-14 -0.71054273576E-14  0.91188000000E+02  0.91188000000E+02 0.  0.
    9900012    2    3    3    0    0  0.38244785512E+01 -0.87552599996E+01  0.35559709417E+02  0.54367161503E+02  0.40000176277E+02 0.  0.
        -12    1    3    3    0    0 -0.38244785512E+01  0.87552599996E+01 -0.35559709417E+02  0.36820838497E+02  0.00000000000E+00 0.  1.
         11    1    4    4    0    0 -0.22437638194E+01 -0.73628372853E+01  0.84595257722E+01  0.11437194827E+02  0.51100000000E-03 0. -1.
        -11    1    4    4    0    0  0.30963301932E+01  0.10947212781E+01 -0.74611943572E+01  0.81519995608E+01  0.51100000000E-03 0.  1.
        -12    1    4    4    0    0  0.29719121774E+01 -0.24871439924E+01  0.34561378002E+02  0.34777967114E+02  0.00000000000E+00 0.  1.
</event>
<event>
 8    1  0.2482403E-006  0.9118800E+02  0.7816164E-02  0.1184000E+00
        -11   -1    0    0    0    0  0.00000000000E+00  0.00000000000E+00  0.45593999997E+02  0.45594000000E+02  0.51100000000E-03 0.  1.
         11   -1    0    0    0    0 -0.00000000000E+00 -0.00000000000E+00 -0.45593999997E+02  0.45594000000E+02  0.51100000000E-03 0. -1.
         23    2    1    2    0    0  0.00000000000E+00  0.00000000000E+00  0.44408920985E-15  0.91188000000E+02  0.91188000000E+02 0.  0.
    9900012    2    3    3    0    0 -0.34962158065E+02  0.11065984325E+02  0.33123603167E+01  0.54367078820E+02  0.39999987787E+02 0.  0.
         12    1    3    3    0    0  0.34962158065E+02 -0.11065984325E+02 -0.33123603167E+01  0.36820921180E+02  0.00000000000E+00 0. -1.
         11    1    4    4    0    0  0.25858291104E+01  0.23492410512E+01  0.80337949894E+00  0.35848102579E+01  0.51100000000E-03 0. -1.
        -11    1    4    4    0    0 -0.20779748272E+02 -0.11395770562E+02  0.57774368988E+01  0.24393447939E+02  0.51100000000E-03 0.  1.
         12    1    4    4    0    0 -0.16768238903E+02  0.20112513837E+02 -0.32684560810E+01  0.26388820623E+02  0.00000000000E+00 0. -1.
</event>
<event>
 8    1  0.2482403E-006  0.9118800E+02  0.7816164E-02  0.1184000E+00
        -11   -1    0    0    0    0  0.00000000000E+00  0.00000000000E+00  0.45593999997E+02  0.45594000000E+02  0.51100000000E-03 0.  1.
         11   -1    0    0    0    0 -0.00000000000E+00 -0.00000000000E+00 -0.45593999997E+02  0.45594000000E+02  0.51100000000E-03 0. -1.
         23    2    1    2    0    0  0.44408920985E-15 -0.35527136788E-14 -0.71054273576E-14  0.91188000000E+02  0.91188000000E+02 0.  0.
    9900012    2    3    3    0    0  0.21872930130E+01 -0.12148186887E+02 -0.34690254014E+02  0.54367130660E+02  0.40000105966E+02 0.  0.
        -12    1    3    3    0    0 -0.21872930130E+01  0.12148186887E+02  0.34690254014E+02  0.36820869340E+02  0.00000000000E+00 0.  1.
         11    1    4    4    0    0  0.90542327494E+01 -0.11616792565E+02 -0.28296462644E+02  0.31900137909E+02  0.51100000000E-03 0. -1.
        -11    1    4    4    0    0  0.45554631482E+01 -0.45361485292E+01 -0.79931867145E+01  0.10257676252E+02  0.51100000000E-03 0.  1.
        -12    1    4    4    0    0 -0.11422402885E+02  0.40047542071E+01  0.15993953441E+01  0.12209316500E+02  0.00000000000E+00 0.  1.
</event>
<event>
 8    1  0.2482403E-006  0.9118800E+02  0.7816164E-02  0.1184000E+00
        -11   -1    0    0    0    0  0.00000000000E+00  0.00000000000E+00  0.45593999997E+02  0.45594000000E+02  0.51100000000E-03 0. -1.
         11   -1    0    0    0    0 -0.00000000000E+00 -0.00000000000E+00 -0.45593999997E+02  0.45594000000E+02  0.51100000000E-03 0.  1.
         23    2    1    2    0    0  0.71054273576E-14 -0.17763568394E-14  0.44408920985E-15  0.91188000000E+02  0.91188000000E+02 0.  0.
    9900012    2    3    3    0    0  0.36117893550E+02 -0.70976668762E+01  0.94862700365E+00  0.54367095574E+02  0.40000025980E+02 0.  0.
        -12    1    3    3    0    0 -0.36117893550E+02  0.70976668762E+01 -0.94862700365E+00  0.36820904426E+02  0.00000000000E+00 0.  1.
         11    1    4    4    0    0  0.46346285782E+01  0.35274235672E+00 -0.31182456086E+01  0.55971122165E+01  0.51100000000E-03 0. -1.
        -11    1    4    4    0    0  0.75879532506E+01 -0.16234522006E+02 -0.91104189572E+01  0.20103145852E+02  0.51100000000E-03 0.  1.
        -12    1    4    4    0    0  0.23895311721E+02  0.87841127735E+01  0.13177291569E+02  0.28666837505E+02  0.00000000000E+00 0.  1.
</event>
<event>
 8    1  0.2482403E-006  0.9118800E+02  0.7816164E-02  0.1184000E+00
        -11   -1    0    0    0    0  0.00000000000E+00  0.00000000000E+00  0.45593999997E+02  0.45594000000E+02  0.51100000000E-03 0.  1.
         11   -1    0    0    0    0 -0.00000000000E+00 -0.00000000000E+00 -0.45593999997E+02  0.45594000000E+02  0.51100000000E-03 0. -1.
         23    2    1    2    0    0  0.00000000000E+00  0.00000000000E+00  0.00000000000E+00  0.91188000000E+02  0.91188000000E+02 0.  0.
    9900012    2    3    3    0    0 -0.27521454274E+01 -0.13573875506E+02 -0.34116761945E+02  0.54367111277E+02  0.40000061778E+02 0.  0.
        -12    1    3    3    0    0  0.27521454274E+01  0.13573875506E+02  0.34116761945E+02  0.36820888723E+02  0.00000000000E+00 0.  1.
         11    1    4    4    0    0 -0.34972912821E+01 -0.14841939541E+00  0.67981304844E+01  0.76464143867E+01  0.51100000000E-03 0.  1.
        -11    1    4    4    0    0 -0.14392574658E+01  0.38922360517E+01 -0.14321367628E+02  0.14910484047E+02  0.51100000000E-03 0. -1.
        -12    1    4    4    0    0  0.21844033206E+01 -0.17317692163E+02 -0.26593524802E+02  0.31810212843E+02  0.00000000000E+00 0.  1.
</event>
<event>
 8    1  0.2482403E-006  0.9118800E+02  0.7816164E-02  0.1184000E+00
        -11   -1    0    0    0    0  0.00000000000E+00  0.00000000000E+00  0.45593999997E+02  0.45594000000E+02  0.51100000000E-03 0. -1.
         11   -1    0    0    0    0 -0.00000000000E+00 -0.00000000000E+00 -0.45593999997E+02  0.45594000000E+02  0.51100000000E-03 0.  1.
         23    2    1    2    0    0  0.44408920985E-15  0.00000000000E+00  0.00000000000E+00  0.91188000000E+02  0.91188000000E+02 0.  0.
    9900012    2    3    3    0    0  0.39364929659E+01 -0.81275245273E+01  0.35696310391E+02  0.54367092796E+02  0.40000019648E+02 0.  0.
        -12    1    3    3    0    0 -0.39364929659E+01  0.81275245273E+01 -0.35696310391E+02  0.36820907204E+02  0.00000000000E+00 0.  1.
         11    1    4    4    0    0  0.18835198249E+01  0.75176039581E+01  0.12291236166E+02  0.14530536912E+02  0.51100000000E-03 0. -1.
        -11    1    4    4    0    0  0.21630149569E+01  0.23521342241E+01  0.21502532017E+02  0.21738676421E+02  0.51100000000E-03 0.  1.
        -12    1    4    4    0    0 -0.11004181590E+00 -0.17997262709E+02  0.19025422077E+01  0.18097879464E+02  0.00000000000E+00 0.  1.
</event>
<event>
 8    1  0.2482403E-006  0.9118800E+02  0.7816164E-02  0.1184000E+00
        -11   -1    0    0    0    0  0.00000000000E+00  0.00000000000E+00  0.45593999997E+02  0.45594000000E+02  0.51100000000E-03 0. -1.
         11   -1    0    0    0    0 -0.00000000000E+00 -0.00000000000E+00 -0.45593999997E+02  0.45594000000E+02  0.51100000000E-03 0.  1.
         23    2    1    2    0    0  0.00000000000E+00  0.35527136788E-14  0.17763568394E-14  0.91188000000E+02  0.91188000000E+02 0.  0.
    9900012    2    3    3    0    0  0.19267037371E+02  0.29463715100E+02  0.10791242601E+02  0.54367079949E+02  0.39999990360E+02 0.  0.
         12    1    3    3    0    0 -0.19267037371E+02 -0.29463715100E+02 -0.10791242601E+02  0.36820920051E+02  0.00000000000E+00 0. -1.
         11    1    4    4    0    0  0.10249714993E+02  0.18192750223E+02 -0.91308535524E+01  0.22790465221E+02  0.51100000000E-03 0. -1.
        -11    1    4    4    0    0  0.30589511857E+01 -0.36776321063E-01 -0.36498631420E+01  0.47623561470E+01  0.51100000000E-03 0.  1.
         12    1    4    4    0    0  0.59583711922E+01  0.11307741198E+02  0.23571959295E+02  0.26814258581E+02  0.00000000000E+00 0. -1.
</event>
<event>
 8    1  0.2482403E-006  0.9118800E+02  0.7816164E-02  0.1184000E+00
        -11   -1    0    0    0    0  0.00000000000E+00  0.00000000000E+00  0.45593999997E+02  0.45594000000E+02  0.51100000000E-03 0.  1.
         11   -1    0    0    0    0 -0.00000000000E+00 -0.00000000000E+00 -0.45593999997E+02  0.45594000000E+02  0.51100000000E-03 0. -1.
         23    2    1    2    0    0  0.00000000000E+00  0.00000000000E+00  0.35527136788E-14  0.91188000000E+02  0.91188000000E+02 0.  0.
    9900012    2    3    3    0    0  0.32746054775E+02 -0.15542546441E+02  0.64734380922E+01  0.54367078584E+02  0.39999987247E+02 0.  0.
         12    1    3    3    0    0 -0.32746054775E+02  0.15542546441E+02 -0.64734380922E+01  0.36820921416E+02  0.00000000000E+00 0. -1.
         11    1    4    4    0    0 -0.13839689260E+01 -0.59370347098E+01  0.68181393798E+01  0.91460798158E+01  0.51100000000E-03 0. -1.
        -11    1    4    4    0    0  0.31362543717E+02 -0.10711783219E+02 -0.10398749659E+02  0.34734499317E+02  0.51100000000E-03 0.  1.
        -12    1    4    4    0    0  0.27674799849E+01  0.11062714875E+01  0.10054048371E+02  0.10486499450E+02  0.00000000000E+00 0.  1.
</event>
<event>
 8    1  0.2482403E-006  0.9118800E+02  0.7816164E-02  0.1184000E+00
        -11   -1    0    0    0    0  0.00000000000E+00  0.00000000000E+00  0.45593999997E+02  0.45594000000E+02  0.51100000000E-03 0.  1.
         11   -1    0    0    0    0 -0.00000000000E+00 -0.00000000000E+00 -0.45593999997E+02  0.45594000000E+02  0.51100000000E-03 0. -1.
         23    2    1    2    0    0  0.00000000000E+00  0.00000000000E+00  0.44408920985E-15  0.91188000000E+02  0.91188000000E+02 0.  0.
    9900012    2    3    3    0    0  0.26255690608E+02 -0.25807115475E+02 -0.64139411742E+00  0.54367083596E+02  0.39999998673E+02 0.  0.
        -12    1    3    3    0    0 -0.26255690608E+02  0.25807115475E+02  0.64139411742E+00  0.36820916404E+02  0.00000000000E+00 0.  1.
         11    1    4    4    0    0  0.26738772088E+02 -0.90463687249E+01  0.42356007537E+01  0.28543633860E+02  0.51100000000E-03 0. -1.
        -11    1    4    4    0    0  0.18023803141E+01 -0.61888717096E+01  0.71645117137E+01  0.96374756130E+01  0.51100000000E-03 0.  1.
         12    1    4    4    0    0 -0.22854617943E+01 -0.10571875040E+02 -0.12041506585E+02  0.16185974123E+02  0.00000000000E+00 0. -1.
</event>
<event>
 8    1  0.2482403E-006  0.9118800E+02  0.7816164E-02  0.1184000E+00
        -11   -1    0    0    0    0  0.00000000000E+00  0.00000000000E+00  0.45593999997E+02  0.45594000000E+02  0.51100000000E-03 0.  1.
         11   -1    0    0    0    0 -0.00000000000E+00 -0.00000000000E+00 -0.45593999997E+02  0.45594000000E+02  0.51100000000E-03 0. -1.
         23    2    1    2    0    0  0.00000000000E+00  0.17763568394E-14 -0.35527136788E-14  0.91188000000E+02  0.91188000000E+02 0.  0.
    9900012    2    3    3    0    0 -0.10090266468E+02 -0.15763883218E+02  0.31709105902E+02  0.54367069966E+02  0.39999967601E+02 0.  0.
         12    1    3    3    0    0  0.10090266468E+02  0.15763883218E+02 -0.31709105902E+02  0.36820930034E+02  0.00000000000E+00 0. -1.
         11    1    4    4    0    0 -0.61569987762E+01 -0.77309169659E+01 -0.15930246281E+01  0.10010666251E+02  0.51100000000E-03 0. -1.
        -11    1    4    4    0    0  0.37668778434E+01 -0.11789051489E+02  0.33576293403E+02  0.35784613770E+02  0.51100000000E-03 0.  1.
         12    1    4    4    0    0 -0.77001455351E+01  0.37560852377E+01 -0.27416287363E+00  0.85717899447E+01  0.00000000000E+00 0. -1.
</event>
<event>
 8    1  0.2482403E-006  0.9118800E+02  0.7816164E-02  0.1184000E+00
        -11   -1    0    0    0    0  0.00000000000E+00  0.00000000000E+00  0.45593999997E+02  0.45594000000E+02  0.51100000000E-03 0. -1.
         11   -1    0    0    0    0 -0.00000000000E+00 -0.00000000000E+00 -0.45593999997E+02  0.45594000000E+02  0.51100000000E-03 0.  1.
         23    2    1    2    0    0  0.00000000000E+00  0.00000000000E+00  0.00000000000E+00  0.91188000000E+02  0.91188000000E+02 0.  0.
    9900012    2    3    3    0    0  0.36101704621E+02 -0.31250377795E+01  0.65332023273E+01  0.54367059351E+02  0.39999943402E+02 0.  0.
         12    1    3    3    0    0 -0.36101704621E+02  0.31250377795E+01 -0.65332023273E+01  0.36820940649E+02  0.00000000000E+00 0. -1.
         11    1    4    4    0    0  0.21537883452E+02  0.49526378762E+01  0.16488317450E+02  0.27573060369E+02  0.51100000000E-03 0. -1.
        -11    1    4    4    0    0  0.16238598496E+02 -0.17110237339E+00 -0.39161935019E+01  0.16705027056E+02  0.51100000000E-03 0.  1.
        -12    1    4    4    0    0 -0.16747773276E+01 -0.79065732823E+01 -0.60389216212E+01  0.10088971925E+02  0.00000000000E+00 0.  1.
</event>
<event>
 8    1  0.2482403E-006  0.9118800E+02  0.7816164E-02  0.1184000E+00
        -11   -1    0    0    0    0  0.00000000000E+00  0.00000000000E+00  0.45593999997E+02  0.45594000000E+02  0.51100000000E-03 0.  1.
         11   -1    0    0    0    0 -0.00000000000E+00 -0.00000000000E+00 -0.45593999997E+02  0.45594000000E+02  0.51100000000E-03 0. -1.
         23    2    1    2    0    0  0.00000000000E+00  0.88817841970E-15 -0.17763568394E-14  0.91188000000E+02  0.91188000000E+02 0.  0.
    9900012    2    3    3    0    0 -0.35460585478E+02 -0.50940048275E+01  0.85074879106E+01  0.54367090748E+02  0.40000014977E+02 0.  0.
         12    1    3    3    0    0  0.35460585478E+02  0.50940048275E+01 -0.85074879106E+01  0.36820909252E+02  0.00000000000E+00 0. -1.
         11    1    4    4    0    0 -0.10286242987E+01  0.28915360633E+01 -0.52854309060E+01  0.61118596905E+01  0.51100000000E-03 0. -1.
        -11    1    4    4    0    0 -0.34797485695E+02 -0.15869088178E+02  0.12637885619E+02  0.40279140054E+02  0.51100000000E-03 0.  1.
        -12    1    4    4    0    0  0.36552451609E+00  0.78835472871E+01  0.11550331978E+01  0.79760910030E+01  0.00000000000E+00 0.  1.
</event>
<event>
 8    1  0.2482403E-006  0.9118800E+02  0.7816164E-02  0.1184000E+00
        -11   -1    0    0    0    0  0.00000000000E+00  0.00000000000E+00  0.45593999997E+02  0.45594000000E+02  0.51100000000E-03 0.  1.
         11   -1    0    0    0    0 -0.00000000000E+00 -0.00000000000E+00 -0.45593999997E+02  0.45594000000E+02  0.51100000000E-03 0. -1.
         23    2    1    2    0    0 -0.17763568394E-14  0.17763568394E-14  0.35527136788E-14  0.91188000000E+02  0.91188000000E+02 0.  0.
    9900012    2    3    3    0    0  0.11934945950E+02 -0.15638807032E+02 -0.31124990552E+02  0.54367078541E+02  0.39999987150E+02 0.  0.
        -12    1    3    3    0    0 -0.11934945950E+02  0.15638807032E+02  0.31124990552E+02  0.36820921459E+02  0.00000000000E+00 0.  1.
         11    1    4    4    0    0 -0.37444748073E+01 -0.78953881409E+00 -0.15455705629E+02  0.15922415013E+02  0.51100000000E-03 0. -1.
        -11    1    4    4    0    0 -0.58239716539E+01 -0.41841672969E+01 -0.12256591617E+02  0.14200350000E+02  0.51100000000E-03 0.  1.
         12    1    4    4    0    0  0.21503392411E+02 -0.10665100921E+02 -0.34126933070E+01  0.24244313528E+02  0.00000000000E+00 0. -1.
</event>
<event>
 8    1  0.2482403E-006  0.9118800E+02  0.7816164E-02  0.1184000E+00
        -11   -1    0    0    0    0  0.00000000000E+00  0.00000000000E+00  0.45593999997E+02  0.45594000000E+02  0.51100000000E-03 0. -1.
         11   -1    0    0    0    0 -0.00000000000E+00 -0.00000000000E+00 -0.45593999997E+02  0.45594000000E+02  0.51100000000E-03 0.  1.
         23    2    1    2    0    0  0.00000000000E+00  0.35527136788E-14  0.17763568394E-14  0.91188000000E+02  0.91188000000E+02 0.  0.
    9900012    2    3    3    0    0  0.24619219128E+02 -0.23580710944E+02 -0.13914879773E+02  0.54367085315E+02  0.40000002593E+02 0.  0.
         12    1    3    3    0    0 -0.24619219128E+02  0.23580710944E+02  0.13914879773E+02  0.36820914685E+02  0.00000000000E+00 0. -1.
         11    1    4    4    0    0 -0.64579714938E+01 -0.89992936638E+01 -0.34012010977E+00  0.11081893530E+02  0.51100000000E-03 0. -1.
        -11    1    4    4    0    0 -0.20720427551E+01  0.22879100385E+01  0.11330615698E+01  0.32881183533E+01  0.51100000000E-03 0.  1.
         12    1    4    4    0    0  0.33149233377E+02 -0.16869327319E+02 -0.14707821233E+02  0.39997073432E+02  0.00000000000E+00 0. -1.
</event>
<event>
 8    1  0.2482403E-006  0.9118800E+02  0.7816164E-02  0.1184000E+00
        -11   -1    0    0    0    0  0.00000000000E+00  0.00000000000E+00  0.45593999997E+02  0.45594000000E+02  0.51100000000E-03 0.  1.
         11   -1    0    0    0    0 -0.00000000000E+00 -0.00000000000E+00 -0.45593999997E+02  0.45594000000E+02  0.51100000000E-03 0. -1.
         23    2    1    2    0    0  0.35527136788E-14 -0.71054273576E-14  0.71054273576E-14  0.91188000000E+02  0.91188000000E+02 0.  0.
    9900012    2    3    3    0    0 -0.96757008541E+01  0.30329532968E+02 -0.18500794401E+02  0.54367093567E+02  0.40000021405E+02 0.  0.
         12    1    3    3    0    0  0.96757008541E+01 -0.30329532968E+02  0.18500794401E+02  0.36820906433E+02  0.00000000000E+00 0. -1.
         11    1    4    4    0    0 -0.60440938813E+00  0.10612233125E+02  0.93073401785E+01  0.14128389295E+02  0.51100000000E-03 0. -1.
        -11    1    4    4    0    0  0.55444542982E+01  0.38121200192E+01 -0.30661728595E+01  0.73942307761E+01  0.51100000000E-03 0.  1.
         12    1    4    4    0    0 -0.14615745764E+02  0.15905179824E+02 -0.24741961720E+02  0.32844473496E+02  0.00000000000E+00 0. -1.
</event>
<event>
 8    1  0.2482403E-006  0.9118800E+02  0.7816164E-02  0.1184000E+00
        -11   -1    0    0    0    0  0.00000000000E+00  0.00000000000E+00  0.45593999997E+02  0.45594000000E+02  0.51100000000E-03 0. -1.
         11   -1    0    0    0    0 -0.00000000000E+00 -0.00000000000E+00 -0.45593999997E+02  0.45594000000E+02  0.51100000000E-03 0.  1.
         23    2    1    2    0    0  0.22204460493E-15 -0.17763568394E-14  0.00000000000E+00  0.91188000000E+02  0.91188000000E+02 0.  0.
    9900012    2    3    3    0    0  0.19627283834E+01  0.13421430856E+02  0.34231462658E+02  0.54367080069E+02  0.39999990632E+02 0.  0.
        -12    1    3    3    0    0 -0.19627283834E+01 -0.13421430856E+02 -0.34231462658E+02  0.36820919931E+02  0.00000000000E+00 0.  1.
         11    1    4    4    0    0 -0.77496379351E+01  0.10756568043E+02  0.16640035599E+02  0.21275606435E+02  0.51100000000E-03 0. -1.
        -11    1    4    4    0    0  0.79822924738E+01 -0.10148122976E+02  0.15199063641E+02  0.19942741259E+02  0.51100000000E-03 0.  1.
        -12    1    4    4    0    0  0.17300738447E+01  0.12812985789E+02  0.23923634174E+01  0.13148732375E+02  0.00000000000E+00 0.  1.
</event>
<event>
 8    1  0.2482403E-006  0.9118800E+02  0.7816164E-02  0.1184000E+00
        -11   -1    0    0    0    0  0.00000000000E+00  0.00000000000E+00  0.45593999997E+02  0.45594000000E+02  0.51100000000E-03 0.  1.
         11   -1    0    0    0    0 -0.00000000000E+00 -0.00000000000E+00 -0.45593999997E+02  0.45594000000E+02  0.51100000000E-03 0. -1.
         23    2    1    2    0    0  0.88817841970E-15  0.35527136788E-14  0.00000000000E+00  0.91188000000E+02  0.91188000000E+02 0.  0.
    9900012    2    3    3    0    0 -0.79496280031E+01 -0.16719135794E+02  0.31828500410E+02  0.54367088476E+02  0.40000009799E+02 0.  0.
         12    1    3    3    0    0  0.79496280031E+01  0.16719135794E+02 -0.31828500410E+02  0.36820911524E+02  0.00000000000E+00 0. -1.
         11    1    4    4    0    0 -0.18018509332E+02 -0.38704599124E+01  0.90346139694E+01  0.20524896792E+02  0.51100000000E-03 0.  1.
        -11    1    4    4    0    0 -0.38446837099E+00 -0.98876584368E+00 -0.32260773143E+01  0.33960342932E+01  0.51100000000E-03 0. -1.
        -12    1    4    4    0    0  0.10453349700E+02 -0.11859910038E+02  0.26019963755E+02  0.30446157391E+02  0.00000000000E+00 0.  1.
</event>
<event>
 8    1  0.2482403E-006  0.9118800E+02  0.7816164E-02  0.1184000E+00
        -11   -1    0    0    0    0  0.00000000000E+00  0.00000000000E+00  0.45593999997E+02  0.45594000000E+02  0.51100000000E-03 0.  1.
         11   -1    0    0    0    0 -0.00000000000E+00 -0.00000000000E+00 -0.45593999997E+02  0.45594000000E+02  0.51100000000E-03 0. -1.
         23    2    1    2    0    0  0.00000000000E+00  0.44408920985E-15  0.00000000000E+00  0.91188000000E+02  0.91188000000E+02 0.  0.
    9900012    2    3    3    0    0  0.26526348589E+02 -0.22973715004E+01  0.25433589146E+02  0.54366911720E+02  0.39999606847E+02 0.  0.
         12    1    3    3    0    0 -0.26526348589E+02  0.22973715004E+01 -0.25433589146E+02  0.36821088280E+02  0.00000000000E+00 0. -1.
         11    1    4    4    0    0 -0.41584298347E+00 -0.26804618995E+01 -0.23243546480E+01  0.35721738720E+01  0.51100000000E-03 0.  1.
        -11    1    4    4    0    0  0.36702920472E+01  0.41037112253E+01 -0.69345712608E+01  0.88543643682E+01  0.51100000000E-03 0. -1.
        -12    1    4    4    0    0  0.23271899525E+02 -0.37206208263E+01  0.34692515054E+02  0.41940373480E+02  0.00000000000E+00 0.  1.
</event>
<event>
 8    1  0.2482403E-006  0.9118800E+02  0.7816164E-02  0.1184000E+00
        -11   -1    0    0    0    0  0.00000000000E+00  0.00000000000E+00  0.45593999997E+02  0.45594000000E+02  0.51100000000E-03 0.  1.
         11   -1    0    0    0    0 -0.00000000000E+00 -0.00000000000E+00 -0.45593999997E+02  0.45594000000E+02  0.51100000000E-03 0. -1.
         23    2    1    2    0    0  0.35527136788E-14 -0.71054273576E-14  0.00000000000E+00  0.91188000000E+02  0.91188000000E+02 0.  0.
    9900012    2    3    3    0    0  0.10641548304E+02 -0.34222422045E+02  0.84475965832E+01  0.54367100922E+02  0.40000038171E+02 0.  0.
         12    1    3    3    0    0 -0.10641548304E+02  0.34222422045E+02 -0.84475965832E+01  0.36820899078E+02  0.00000000000E+00 0. -1.
         11    1    4    4    0    0 -0.25042032820E+01  0.14719496158E+01 -0.11977726364E+01  0.31420263045E+01  0.51100000000E-03 0. -1.
        -11    1    4    4    0    0  0.34915236960E+01  0.62619949733E+01  0.33700469835E+00  0.71775268159E+01  0.51100000000E-03 0.  1.
         12    1    4    4    0    0  0.96542278895E+01 -0.41956366634E+02  0.93083645212E+01  0.44047547801E+02  0.00000000000E+00 0. -1.
</event>
<event>
 8    1  0.2482403E-006  0.9118800E+02  0.7816164E-02  0.1184000E+00
        -11   -1    0    0    0    0  0.00000000000E+00  0.00000000000E+00  0.45593999997E+02  0.45594000000E+02  0.51100000000E-03 0.  1.
         11   -1    0    0    0    0 -0.00000000000E+00 -0.00000000000E+00 -0.45593999997E+02  0.45594000000E+02  0.51100000000E-03 0. -1.
         23    2    1    2    0    0 -0.17763568394E-14  0.00000000000E+00  0.00000000000E+00  0.91188000000E+02  0.91188000000E+02 0.  0.
    9900012    2    3    3    0    0  0.48663906744E+01  0.25092780332E+02  0.26503784770E+02  0.54367082166E+02  0.39999995414E+02 0.  0.
         12    1    3    3    0    0 -0.48663906744E+01 -0.25092780332E+02 -0.26503784770E+02  0.36820917834E+02  0.00000000000E+00 0. -1.
         11    1    4    4    0    0 -0.18005276536E+01  0.78021137222E+01  0.29117584116E+02  0.30198486442E+02  0.51100000000E-03 0. -1.
        -11    1    4    4    0    0  0.51248459678E+01  0.18497630503E+02  0.18606340213E+01  0.19284406645E+02  0.51100000000E-03 0.  1.
         12    1    4    4    0    0  0.15420723601E+01 -0.12069638930E+01 -0.44744333677E+01  0.48841890795E+01  0.00000000000E+00 0. -1.
</event>
<event>
 8    1  0.2482403E-006  0.9118800E+02  0.7816164E-02  0.1184000E+00
        -11   -1    0    0    0    0  0.00000000000E+00  0.00000000000E+00  0.45593999997E+02  0.45594000000E+02  0.51100000000E-03 0.  1.
         11   -1    0    0    0    0 -0.00000000000E+00 -0.00000000000E+00 -0.45593999997E+02  0.45594000000E+02  0.51100000000E-03 0. -1.
         23    2    1    2    0    0  0.00000000000E+00  0.44408920985E-15  0.00000000000E+00  0.91188000000E+02  0.91188000000E+02 0.  0.
    9900012    2    3    3    0    0 -0.34341900444E+02  0.98506910300E+00 -0.13245566082E+02  0.54367061553E+02  0.39999948423E+02 0.  0.
        -12    1    3    3    0    0  0.34341900444E+02 -0.98506910300E+00  0.13245566082E+02  0.36820938447E+02  0.00000000000E+00 0.  1.
         11    1    4    4    0    0 -0.24166697457E+02  0.22732715903E+01 -0.10809270450E+02  0.26571363488E+02  0.51100000000E-03 0. -1.
        -11    1    4    4    0    0 -0.67435264720E+01  0.11741968260E+02 -0.42678422646E+01  0.14197304172E+02  0.51100000000E-03 0.  1.
        -12    1    4    4    0    0 -0.34316765148E+01 -0.13030170747E+02  0.18315466321E+01  0.13598393893E+02  0.00000000000E+00 0.  1.
</event>
<event>
 8    1  0.2482403E-006  0.9118800E+02  0.7816164E-02  0.1184000E+00
        -11   -1    0    0    0    0  0.00000000000E+00  0.00000000000E+00  0.45593999997E+02  0.45594000000E+02  0.51100000000E-03 0. -1.
         11   -1    0    0    0    0 -0.00000000000E+00 -0.00000000000E+00 -0.45593999997E+02  0.45594000000E+02  0.51100000000E-03 0.  1.
         23    2    1    2    0    0  0.17763568394E-14  0.00000000000E+00  0.00000000000E+00  0.91188000000E+02  0.91188000000E+02 0.  0.
    9900012    2    3    3    0    0  0.12927457738E+02  0.24116386218E+02  0.24638563834E+02  0.54367108164E+02  0.40000054682E+02 0.  0.
        -12    1    3    3    0    0 -0.12927457738E+02 -0.24116386218E+02 -0.24638563834E+02  0.36820891836E+02  0.00000000000E+00 0.  1.
         11    1    4    4    0    0  0.73827143002E+01  0.56506706816E+00  0.22539350445E+02  0.23724377547E+02  0.51100000000E-03 0. -1.
        -11    1    4    4    0    0  0.46489203822E+01  0.51644527195E+01 -0.72105911375E+01  0.10013823317E+02  0.51100000000E-03 0.  1.
         12    1    4    4    0    0  0.89582305547E+00  0.18386866431E+02  0.93098045258E+01  0.20628907300E+02  0.00000000000E+00 0. -1.
</event>
<event>
 8    1  0.2482403E-006  0.9118800E+02  0.7816164E-02  0.1184000E+00
        -11   -1    0    0    0    0  0.00000000000E+00  0.00000000000E+00  0.45593999997E+02  0.45594000000E+02  0.51100000000E-03 0. -1.
         11   -1    0    0    0    0 -0.00000000000E+00 -0.00000000000E+00 -0.45593999997E+02  0.45594000000E+02  0.51100000000E-03 0.  1.
         23    2    1    2    0    0  0.00000000000E+00  0.00000000000E+00  0.00000000000E+00  0.91188000000E+02  0.91188000000E+02 0.  0.
    9900012    2    3    3    0    0 -0.79782136068E+01 -0.35088149612E+02  0.78074076553E+01  0.54367003953E+02  0.39999817112E+02 0.  0.
        -12    1    3    3    0    0  0.79782136068E+01  0.35088149612E+02 -0.78074076553E+01  0.36820996047E+02  0.00000000000E+00 0.  1.
         11    1    4    4    0    0 -0.25632475689E+01  0.48914423325E+01  0.10700464803E+02  0.12041444824E+02  0.51100000000E-03 0. -1.
        -11    1    4    4    0    0 -0.10349090675E+01 -0.19381037947E+02 -0.74318947936E+01  0.20782895110E+02  0.51100000000E-03 0.  1.
         12    1    4    4    0    0 -0.43800569704E+01 -0.20598553998E+02  0.45388376460E+01  0.21542664019E+02  0.00000000000E+00 0. -1.
</event>
<event>
 8    1  0.2482403E-006  0.9118800E+02  0.7816164E-02  0.1184000E+00
        -11   -1    0    0    0    0  0.00000000000E+00  0.00000000000E+00  0.45593999997E+02  0.45594000000E+02  0.51100000000E-03 0.  1.
         11   -1    0    0    0    0 -0.00000000000E+00 -0.00000000000E+00 -0.45593999997E+02  0.45594000000E+02  0.51100000000E-03 0. -1.
         23    2    1    2    0    0 -0.35527136788E-14  0.88817841970E-15  0.35527136788E-14  0.91188000000E+02  0.91188000000E+02 0.  0.
    9900012    2    3    3    0    0  0.23574034292E+02 -0.68387788837E+01 -0.27445872482E+02  0.54367083312E+02  0.39999998027E+02 0.  0.
        -12    1    3    3    0    0 -0.23574034292E+02  0.68387788837E+01  0.27445872482E+02  0.36820916688E+02  0.00000000000E+00 0.  1.
         11    1    4    4    0    0  0.11067205220E+02 -0.45037583369E+01  0.97562490709E+00  0.11988274053E+02  0.51100000000E-03 0. -1.
        -11    1    4    4    0    0  0.59654373488E+01  0.12789628031E+02 -0.83057026964E+01  0.16375155739E+02  0.51100000000E-03 0.  1.
         12    1    4    4    0    0  0.65413917234E+01 -0.15124648578E+02 -0.20115794693E+02  0.26003653520E+02  0.00000000000E+00 0. -1.
</event>
<event>
 8    1  0.2482403E-006  0.9118800E+02  0.7816164E-02  0.1184000E+00
        -11   -1    0    0    0    0  0.00000000000E+00  0.00000000000E+00  0.45593999997E+02  0.45594000000E+02  0.51100000000E-03 0. -1.
         11   -1    0    0    0    0 -0.00000000000E+00 -0.00000000000E+00 -0.45593999997E+02  0.45594000000E+02  0.51100000000E-03 0.  1.
         23    2    1    2    0    0 -0.88817841970E-15 -0.35527136788E-14 -0.35527136788E-14  0.91188000000E+02  0.91188000000E+02 0.  0.
    9900012    2    3    3    0    0 -0.44775845132E+01  0.30344840112E+02  0.20369669973E+02  0.54367061130E+02  0.39999947458E+02 0.  0.
        -12    1    3    3    0    0  0.44775845132E+01 -0.30344840112E+02 -0.20369669973E+02  0.36820938870E+02  0.00000000000E+00 0.  1.
         11    1    4    4    0    0 -0.61056256934E+01  0.28462336277E+02  0.28057077043E+02  0.40429974325E+02  0.51100000000E-03 0. -1.
        -11    1    4    4    0    0 -0.32519070119E+01 -0.28780513262E+01 -0.11512256478E+01  0.44925938391E+01  0.51100000000E-03 0.  1.
        -12    1    4    4    0    0  0.48799481921E+01  0.47605551610E+01 -0.65361814226E+01  0.94444929662E+01  0.00000000000E+00 0.  1.
</event>
<event>
 8    1  0.2482403E-006  0.9118800E+02  0.7816164E-02  0.1184000E+00
        -11   -1    0    0    0    0  0.00000000000E+00  0.00000000000E+00  0.45593999997E+02  0.45594000000E+02  0.51100000000E-03 0. -1.
         11   -1    0    0    0    0 -0.00000000000E+00 -0.00000000000E+00 -0.45593999997E+02  0.45594000000E+02  0.51100000000E-03 0.  1.
         23    2    1    2    0    0 -0.35527136788E-14  0.00000000000E+00  0.00000000000E+00  0.91188000000E+02  0.91188000000E+02 0.  0.
    9900012    2    3    3    0    0  0.21788882491E+02  0.18020007390E+02 -0.23586127519E+02  0.54367061963E+02  0.39999949358E+02 0.  0.
         12    1    3    3    0    0 -0.21788882491E+02 -0.18020007390E+02  0.23586127519E+02  0.36820938037E+02  0.00000000000E+00 0. -1.
         11    1    4    4    0    0  0.24425576899E+02  0.62434588818E+01 -0.87639736017E+01  0.26690762807E+02  0.51100000000E-03 0. -1.
        -11    1    4    4    0    0  0.48479163640E+01  0.13901864349E+02 -0.13100587650E+02  0.19707600628E+02  0.51100000000E-03 0.  1.
         12    1    4    4    0    0 -0.74846107717E+01 -0.21253158415E+01 -0.17215662675E+01  0.79686985288E+01  0.00000000000E+00 0. -1.
</event>
<event>
 8    1  0.2482403E-006  0.9118800E+02  0.7816164E-02  0.1184000E+00
        -11   -1    0    0    0    0  0.00000000000E+00  0.00000000000E+00  0.45593999997E+02  0.45594000000E+02  0.51100000000E-03 0.  1.
         11   -1    0    0    0    0 -0.00000000000E+00 -0.00000000000E+00 -0.45593999997E+02  0.45594000000E+02  0.51100000000E-03 0. -1.
         23    2    1    2    0    0  0.22204460493E-15  0.00000000000E+00  0.00000000000E+00  0.91188000000E+02  0.91188000000E+02 0.  0.
    9900012    2    3    3    0    0 -0.17660039340E+01  0.42536762532E+01  0.36531855051E+02  0.54366960294E+02  0.39999717580E+02 0.  0.
         12    1    3    3    0    0  0.17660039340E+01 -0.42536762532E+01 -0.36531855051E+02  0.36821039706E+02  0.00000000000E+00 0. -1.
         11    1    4    4    0    0 -0.82303226507E+00  0.19125161273E+01 -0.61372797479E+01  0.64808412272E+01  0.51100000000E-03 0. -1.
        -11    1    4    4    0    0 -0.45430741641E+00  0.90571464586E+01  0.66564433231E+01  0.11249290430E+02  0.51100000000E-03 0.  1.
        -12    1    4    4    0    0 -0.48866425257E+00 -0.67159863327E+01  0.36012691476E+02  0.36636828636E+02  0.00000000000E+00 0.  1.
</event>
<event>
 8    1  0.2482403E-006  0.9118800E+02  0.7816164E-02  0.1184000E+00
        -11   -1    0    0    0    0  0.00000000000E+00  0.00000000000E+00  0.45593999997E+02  0.45594000000E+02  0.51100000000E-03 0. -1.
         11   -1    0    0    0    0 -0.00000000000E+00 -0.00000000000E+00 -0.45593999997E+02  0.45594000000E+02  0.51100000000E-03 0.  1.
         23    2    1    2    0    0  0.00000000000E+00  0.00000000000E+00 -0.35527136788E-14  0.91188000000E+02  0.91188000000E+02 0.  0.
    9900012    2    3    3    0    0  0.13654360826E+02  0.23246325798E+02 -0.25078872749E+02  0.54367040058E+02  0.39999899420E+02 0.  0.
         12    1    3    3    0    0 -0.13654360826E+02 -0.23246325798E+02  0.25078872749E+02  0.36820959942E+02  0.00000000000E+00 0. -1.
         11    1    4    4    0    0  0.10442010855E+02 -0.23156420128E+01  0.33025418523E+01  0.11193952456E+02  0.51100000000E-03 0. -1.
        -11    1    4    4    0    0  0.61004501846E+01  0.25103155361E+02 -0.15857835774E+02  0.30312618778E+02  0.51100000000E-03 0.  1.
         12    1    4    4    0    0 -0.28881002135E+01  0.45881244977E+00 -0.12523578828E+02  0.12860468824E+02  0.00000000000E+00 0. -1.
</event>
<event>
 8    1  0.2482403E-006  0.9118800E+02  0.7816164E-02  0.1184000E+00
        -11   -1    0    0    0    0  0.00000000000E+00  0.00000000000E+00  0.45593999997E+02  0.45594000000E+02  0.51100000000E-03 0.  1.
         11   -1    0    0    0    0 -0.00000000000E+00 -0.00000000000E+00 -0.45593999997E+02  0.45594000000E+02  0.51100000000E-03 0. -1.
         23    2    1    2    0    0 -0.71054273576E-14  0.17763568394E-14  0.88817841970E-15  0.91188000000E+02  0.91188000000E+02 0.  0.
    9900012    2    3    3    0    0 -0.34937174980E+02  0.98231865169E+01  0.62191765657E+01  0.54367090911E+02  0.40000015351E+02 0.  0.
         12    1    3    3    0    0  0.34937174980E+02 -0.98231865169E+01 -0.62191765657E+01  0.36820909089E+02  0.00000000000E+00 0. -1.
         11    1    4    4    0    0 -0.23478619525E+02 -0.78568618758E+01  0.44122625282E+00  0.24762280472E+02  0.51100000000E-03 0. -1.
        -11    1    4    4    0    0  0.51227970815E+01  0.77659477967E+00  0.23131621601E+01  0.56742284788E+01  0.51100000000E-03 0.  1.
        -12    1    4    4    0    0 -0.16581352537E+02  0.16903453613E+02  0.34647881528E+01  0.23930581960E+02  0.00000000000E+00 0.  1.
</event>
<event>
 8    1  0.2482403E-006  0.9118800E+02  0.7816164E-02  0.1184000E+00
        -11   -1    0    0    0    0  0.00000000000E+00  0.00000000000E+00  0.45593999997E+02  0.45594000000E+02  0.51100000000E-03 0. -1.
         11   -1    0    0    0    0 -0.00000000000E+00 -0.00000000000E+00 -0.45593999997E+02  0.45594000000E+02  0.51100000000E-03 0.  1.
         23    2    1    2    0    0  0.00000000000E+00  0.00000000000E+00  0.00000000000E+00  0.91188000000E+02  0.91188000000E+02 0.  0.
    9900012    2    3    3    0    0  0.11474860783E+02 -0.37131462774E+01 -0.34789663666E+02  0.54367074112E+02  0.39999977053E+02 0.  0.
         12    1    3    3    0    0 -0.11474860783E+02  0.37131462774E+01  0.34789663666E+02  0.36820925888E+02  0.00000000000E+00 0. -1.
         11    1    4    4    0    0  0.74740048344E+01 -0.60681609587E+01 -0.12241400712E+02  0.15573542222E+02  0.51100000000E-03 0. -1.
        -11    1    4    4    0    0  0.11631803888E+01 -0.11831468996E+02 -0.21145246352E+02  0.24258155139E+02  0.51100000000E-03 0.  1.
         12    1    4    4    0    0  0.28376755593E+01  0.14186483677E+02 -0.14030166026E+01  0.14535376751E+02  0.00000000000E+00 0. -1.
</event>
<event>
 8    1  0.2482403E-006  0.9118800E+02  0.7816164E-02  0.1184000E+00
        -11   -1    0    0    0    0  0.00000000000E+00  0.00000000000E+00  0.45593999997E+02  0.45594000000E+02  0.51100000000E-03 0.  1.
         11   -1    0    0    0    0 -0.00000000000E+00 -0.00000000000E+00 -0.45593999997E+02  0.45594000000E+02  0.51100000000E-03 0. -1.
         23    2    1    2    0    0 -0.35527136788E-14  0.00000000000E+00  0.00000000000E+00  0.91188000000E+02  0.91188000000E+02 0.  0.
    9900012    2    3    3    0    0 -0.23498507250E+02 -0.27593459095E+02 -0.64962002856E+01  0.54367089556E+02  0.40000012260E+02 0.  0.
        -12    1    3    3    0    0  0.23498507250E+02  0.27593459095E+02  0.64962002856E+01  0.36820910444E+02  0.00000000000E+00 0.  1.
         11    1    4    4    0    0 -0.19602587263E+02 -0.20696689041E+02 -0.30772493075E+01  0.28672004259E+02  0.51100000000E-03 0. -1.
        -11    1    4    4    0    0 -0.27252762207E+01  0.86927201626E+01 -0.42228162119E+01  0.10041050310E+02  0.51100000000E-03 0.  1.
        -12    1    4    4    0    0 -0.11706437660E+01 -0.15589490217E+02  0.80386523381E+00  0.15654034987E+02  0.00000000000E+00 0.  1.
</event>
<event>
 8    1  0.2482403E-006  0.9118800E+02  0.7816164E-02  0.1184000E+00
        -11   -1    0    0    0    0  0.00000000000E+00  0.00000000000E+00  0.45593999997E+02  0.45594000000E+02  0.51100000000E-03 0.  1.
         11   -1    0    0    0    0 -0.00000000000E+00 -0.00000000000E+00 -0.45593999997E+02  0.45594000000E+02  0.51100000000E-03 0. -1.
         23    2    1    2    0    0 -0.35527136788E-14  0.00000000000E+00  0.00000000000E+00  0.91188000000E+02  0.91188000000E+02 0.  0.
    9900012    2    3    3    0    0  0.30408440889E+02 -0.18733171683E+02  0.89539820612E+01  0.54367098418E+02  0.40000032462E+02 0.  0.
         12    1    3    3    0    0 -0.30408440889E+02  0.18733171683E+02 -0.89539820612E+01  0.36820901582E+02  0.00000000000E+00 0. -1.
         11    1    4    4    0    0  0.12839762847E+02 -0.16208666560E+02  0.10712462961E+02  0.23288135275E+02  0.51100000000E-03 0.  1.
        -11    1    4    4    0    0  0.13337932185E+02 -0.12848558130E+02 -0.54862349441E+01  0.19315399430E+02  0.51100000000E-03 0. -1.
         12    1    4    4    0    0  0.42307458571E+01  0.10324053008E+02  0.37277540440E+01  0.11763563713E+02  0.00000000000E+00 0. -1.
</event>
<event>
 8    1  0.2482403E-006  0.9118800E+02  0.7816164E-02  0.1184000E+00
        -11   -1    0    0    0    0  0.00000000000E+00  0.00000000000E+00  0.45593999997E+02  0.45594000000E+02  0.51100000000E-03 0.  1.
         11   -1    0    0    0    0 -0.00000000000E+00 -0.00000000000E+00 -0.45593999997E+02  0.45594000000E+02  0.51100000000E-03 0. -1.
         23    2    1    2    0    0  0.00000000000E+00  0.17763568394E-14  0.71054273576E-14  0.91188000000E+02  0.91188000000E+02 0.  0.
    9900012    2    3    3    0    0  0.58154700051E+01 -0.15670204357E+02 -0.32808568356E+02  0.54367120685E+02  0.40000083226E+02 0.  0.
        -12    1    3    3    0    0 -0.58154700051E+01  0.15670204357E+02  0.32808568356E+02  0.36820879315E+02  0.00000000000E+00 0.  1.
         11    1    4    4    0    0 -0.42007772203E+01 -0.51737224113E+00 -0.17147832299E+01  0.45666930132E+01  0.51100000000E-03 0. -1.
        -11    1    4    4    0    0  0.14063436051E+01 -0.81067338422E+01  0.65691871815E+01  0.10528587579E+02  0.51100000000E-03 0.  1.
         12    1    4    4    0    0  0.86099036203E+01 -0.70460982733E+01 -0.37662972308E+02  0.39271840093E+02  0.00000000000E+00 0. -1.
</event>
<event>
 8    1  0.2482403E-006  0.9118800E+02  0.7816164E-02  0.1184000E+00
        -11   -1    0    0    0    0  0.00000000000E+00  0.00000000000E+00  0.45593999997E+02  0.45594000000E+02  0.51100000000E-03 0. -1.
         11   -1    0    0    0    0 -0.00000000000E+00 -0.00000000000E+00 -0.45593999997E+02  0.45594000000E+02  0.51100000000E-03 0.  1.
         23    2    1    2    0    0 -0.88817841970E-15  0.88817841970E-15  0.00000000000E+00  0.91188000000E+02  0.91188000000E+02 0.  0.
    9900012    2    3    3    0    0 -0.11009248889E+01 -0.68908056795E+01  0.36153623748E+02  0.54367085446E+02  0.40000002891E+02 0.  0.
        -12    1    3    3    0    0  0.11009248889E+01  0.68908056795E+01 -0.36153623748E+02  0.36820914554E+02  0.00000000000E+00 0.  1.
         11    1    4    4    0    0 -0.77820835596E+01 -0.16175041411E+02  0.27318112633E+02  0.32687490991E+02  0.51100000000E-03 0. -1.
        -11    1    4    4    0    0  0.11421087495E+02  0.38322107283E+01  0.30574930428E+01  0.12428810989E+02  0.51100000000E-03 0.  1.
         12    1    4    4    0    0 -0.47399288240E+01  0.54520250037E+01  0.57780180716E+01  0.92507834659E+01  0.00000000000E+00 0. -1.
</event>
<event>
 8    1  0.2482403E-006  0.9118800E+02  0.7816164E-02  0.1184000E+00
        -11   -1    0    0    0    0  0.00000000000E+00  0.00000000000E+00  0.45593999997E+02  0.45594000000E+02  0.51100000000E-03 0.  1.
         11   -1    0    0    0    0 -0.00000000000E+00 -0.00000000000E+00 -0.45593999997E+02  0.45594000000E+02  0.51100000000E-03 0. -1.
         23    2    1    2    0    0  0.17763568394E-14  0.17763568394E-14  0.71054273576E-14  0.91188000000E+02  0.91188000000E+02 0.  0.
    9900012    2    3    3    0    0 -0.11989254036E+02 -0.14697570142E+02 -0.31559785921E+02  0.54367070248E+02  0.39999968245E+02 0.  0.
        -12    1    3    3    0    0  0.11989254036E+02  0.14697570142E+02  0.31559785921E+02  0.36820929752E+02  0.00000000000E+00 0.  1.
         11    1    4    4    0    0  0.76245006959E+01 -0.88577044691E+00 -0.23069900398E+02  0.24313327719E+02  0.51100000000E-03 0. -1.
        -11    1    4    4    0    0 -0.23613331237E+01  0.32643434441E+01  0.71683174810E+00  0.40921486114E+01  0.51100000000E-03 0.  1.
        -12    1    4    4    0    0 -0.17252421608E+02 -0.17076143139E+02 -0.92067172710E+01  0.25961593918E+02  0.00000000000E+00 0.  1.
</event>
<event>
 8    1  0.2482403E-006  0.9118800E+02  0.7816164E-02  0.1184000E+00
        -11   -1    0    0    0    0  0.00000000000E+00  0.00000000000E+00  0.45593999997E+02  0.45594000000E+02  0.51100000000E-03 0. -1.
         11   -1    0    0    0    0 -0.00000000000E+00 -0.00000000000E+00 -0.45593999997E+02  0.45594000000E+02  0.51100000000E-03 0.  1.
         23    2    1    2    0    0  0.00000000000E+00  0.00000000000E+00  0.00000000000E+00  0.91188000000E+02  0.91188000000E+02 0.  0.
    9900012    2    3    3    0    0 -0.25180896551E+02  0.22079367338E+02 -0.15303625244E+02  0.54367123330E+02  0.40000089254E+02 0.  0.
         12    1    3    3    0    0  0.25180896551E+02 -0.22079367338E+02  0.15303625244E+02  0.36820876670E+02  0.00000000000E+00 0. -1.
         11    1    4    4    0    0  0.72721131341E+00 -0.20215066729E+01  0.16786521137E+01  0.27263893161E+01  0.51100000000E-03 0. -1.
        -11    1    4    4    0    0 -0.12510211525E+02  0.27022120265E+01 -0.22418991796E+02  0.25815083491E+02  0.51100000000E-03 0.  1.
        -12    1    4    4    0    0 -0.13397896339E+02  0.21398661984E+02  0.54367144378E+01  0.25825650522E+02  0.00000000000E+00 0.  1.
</event>
<event>
 8    1  0.2482403E-006  0.9118800E+02  0.7816164E-02  0.1184000E+00
        -11   -1    0    0    0    0  0.00000000000E+00  0.00000000000E+00  0.45593999997E+02  0.45594000000E+02  0.51100000000E-03 0. -1.
         11   -1    0    0    0    0 -0.00000000000E+00 -0.00000000000E+00 -0.45593999997E+02  0.45594000000E+02  0.51100000000E-03 0.  1.
         23    2    1    2    0    0  0.00000000000E+00 -0.44408920985E-15  0.71054273576E-14  0.91188000000E+02  0.91188000000E+02 0.  0.
    9900012    2    3    3    0    0  0.12469960656E+02 -0.13737049244E+01  0.34617831910E+02  0.54367064785E+02  0.39999955789E+02 0.  0.
        -12    1    3    3    0    0 -0.12469960656E+02  0.13737049244E+01 -0.34617831910E+02  0.36820935215E+02  0.00000000000E+00 0.  1.
         11    1    4    4    0    0 -0.12673913275E+02  0.38067103441E+01  0.17846894517E+02  0.22217802896E+02  0.51100000000E-03 0. -1.
        -11    1    4    4    0    0  0.79694406564E+01 -0.58209112469E+01  0.36324746374E+01  0.10516171564E+02  0.51100000000E-03 0.  1.
         12    1    4    4    0    0  0.17174433275E+02  0.64049597846E+00  0.13138462755E+02  0.21633090324E+02  0.00000000000E+00 0. -1.
</event>
<event>
 8    1  0.2482403E-006  0.9118800E+02  0.7816164E-02  0.1184000E+00
        -11   -1    0    0    0    0  0.00000000000E+00  0.00000000000E+00  0.45593999997E+02  0.45594000000E+02  0.51100000000E-03 0. -1.
         11   -1    0    0    0    0 -0.00000000000E+00 -0.00000000000E+00 -0.45593999997E+02  0.45594000000E+02  0.51100000000E-03 0.  1.
         23    2    1    2    0    0  0.00000000000E+00  0.00000000000E+00  0.35527136788E-14  0.91188000000E+02  0.91188000000E+02 0.  0.
    9900012    2    3    3    0    0 -0.20034372830E+02  0.16790899164E+02  0.25932061392E+02  0.54367052192E+02  0.39999927083E+02 0.  0.
        -12    1    3    3    0    0  0.20034372830E+02 -0.16790899164E+02 -0.25932061392E+02  0.36820947808E+02  0.00000000000E+00 0.  1.
         11    1    4    4    0    0 -0.81503540947E+01 -0.11472093471E+02  0.83350198555E+01  0.16355725503E+02  0.51100000000E-03 0. -1.
        -11    1    4    4    0    0  0.10825491093E+01  0.61963839944E+01  0.90625240474E+01  0.11031610469E+02  0.51100000000E-03 0.  1.
        -12    1    4    4    0    0 -0.12966567844E+02  0.22066608640E+02  0.85345174891E+01  0.26979716220E+02  0.00000000000E+00 0.  1.
</event>
<event>
 8    1  0.2482403E-006  0.9118800E+02  0.7816164E-02  0.1184000E+00
        -11   -1    0    0    0    0  0.00000000000E+00  0.00000000000E+00  0.45593999997E+02  0.45594000000E+02  0.51100000000E-03 0.  1.
         11   -1    0    0    0    0 -0.00000000000E+00 -0.00000000000E+00 -0.45593999997E+02  0.45594000000E+02  0.51100000000E-03 0. -1.
         23    2    1    2    0    0  0.35527136788E-14  0.17763568394E-14  0.35527136788E-14  0.91188000000E+02  0.91188000000E+02 0.  0.
    9900012    2    3    3    0    0  0.29682838319E+02 -0.82254007353E+01  0.20175518151E+02  0.54367086912E+02  0.40000006234E+02 0.  0.
         12    1    3    3    0    0 -0.29682838319E+02  0.82254007353E+01 -0.20175518151E+02  0.36820913088E+02  0.00000000000E+00 0. -1.
         11    1    4    4    0    0 -0.14527430938E+01  0.10348209036E+02  0.80655776912E+01  0.13200357438E+02  0.51100000000E-03 0. -1.
        -11    1    4    4    0    0  0.29602323664E+02 -0.11048311427E+02  0.87654590257E+01  0.32790181822E+02  0.51100000000E-03 0.  1.
         12    1    4    4    0    0  0.15332577487E+01 -0.75252983445E+01  0.33444814344E+01  0.83765476518E+01  0.00000000000E+00 0. -1.
</event>
<event>
 8    1  0.2482403E-006  0.9118800E+02  0.7816164E-02  0.1184000E+00
        -11   -1    0    0    0    0  0.00000000000E+00  0.00000000000E+00  0.45593999997E+02  0.45594000000E+02  0.51100000000E-03 0.  1.
         11   -1    0    0    0    0 -0.00000000000E+00 -0.00000000000E+00 -0.45593999997E+02  0.45594000000E+02  0.51100000000E-03 0. -1.
         23    2    1    2    0    0  0.00000000000E+00  0.35527136788E-14  0.71054273576E-14  0.91188000000E+02  0.91188000000E+02 0.  0.
    9900012    2    3    3    0    0 -0.42370008450E+01  0.22063676192E+02  0.29172310539E+02  0.54367059145E+02  0.39999942934E+02 0.  0.
         12    1    3    3    0    0  0.42370008450E+01 -0.22063676192E+02 -0.29172310539E+02  0.36820940855E+02  0.00000000000E+00 0. -1.
         11    1    4    4    0    0  0.50725394180E+01 -0.25098069316E+01  0.55539926480E+01  0.79294780141E+01  0.51100000000E-03 0. -1.
        -11    1    4    4    0    0 -0.36734861979E+00 -0.30142479627E+01 -0.48996122988E+01  0.57642724370E+01  0.51100000000E-03 0.  1.
        -12    1    4    4    0    0 -0.89421916432E+01  0.27587731086E+02  0.28517930190E+02  0.40673308694E+02  0.00000000000E+00 0.  1.
</event>
<event>
 8    1  0.2482403E-006  0.9118800E+02  0.7816164E-02  0.1184000E+00
        -11   -1    0    0    0    0  0.00000000000E+00  0.00000000000E+00  0.45593999997E+02  0.45594000000E+02  0.51100000000E-03 0.  1.
         11   -1    0    0    0    0 -0.00000000000E+00 -0.00000000000E+00 -0.45593999997E+02  0.45594000000E+02  0.51100000000E-03 0. -1.
         23    2    1    2    0    0 -0.35527136788E-14  0.11102230246E-14  0.00000000000E+00  0.91188000000E+02  0.91188000000E+02 0.  0.
    9900012    2    3    3    0    0 -0.15641304298E+02  0.19558702225E+01  0.33276187962E+02  0.54367075056E+02  0.39999979205E+02 0.  0.
         12    1    3    3    0    0  0.15641304298E+02 -0.19558702225E+01 -0.33276187962E+02  0.36820924944E+02  0.00000000000E+00 0. -1.
         11    1    4    4    0    0 -0.67353601620E+01 -0.21114255458E+01 -0.30939380148E+01  0.77068571446E+01  0.51100000000E-03 0. -1.
        -11    1    4    4    0    0 -0.14573592504E+02  0.12924330391E+01  0.62905039070E+01  0.15925778515E+02  0.51100000000E-03 0.  1.
         12    1    4    4    0    0  0.56676483681E+01  0.27748627292E+01  0.30079622070E+02  0.30734439397E+02  0.00000000000E+00 0. -1.
</event>
<event>
 8    1  0.2482403E-006  0.9118800E+02  0.7816164E-02  0.1184000E+00
        -11   -1    0    0    0    0  0.00000000000E+00  0.00000000000E+00  0.45593999997E+02  0.45594000000E+02  0.51100000000E-03 0.  1.
         11   -1    0    0    0    0 -0.00000000000E+00 -0.00000000000E+00 -0.45593999997E+02  0.45594000000E+02  0.51100000000E-03 0. -1.
         23    2    1    2    0    0 -0.56898930012E-15 -0.35527136788E-14  0.35527136788E-14  0.91188000000E+02  0.91188000000E+02 0.  0.
    9900012    2    3    3    0    0 -0.90659121521E-01 -0.30936747170E+02  0.19967220991E+02  0.54367075804E+02  0.39999980911E+02 0.  0.
         12    1    3    3    0    0  0.90659121521E-01  0.30936747170E+02 -0.19967220991E+02  0.36820924196E+02  0.00000000000E+00 0. -1.
         11    1    4    4    0    0 -0.20848306882E+01  0.20577263233E+01  0.14665053573E+02  0.14954750188E+02  0.51100000000E-03 0. -1.
        -11    1    4    4    0    0 -0.62548735724E+01 -0.89168259827E+01  0.84248710173E+01  0.13769955735E+02  0.51100000000E-03 0.  1.
        -12    1    4    4    0    0  0.82490451391E+01 -0.24077647511E+02 -0.31227036000E+01  0.25642369881E+02  0.00000000000E+00 0.  1.
</event>
<event>
 8    1  0.2482403E-006  0.9118800E+02  0.7816164E-02  0.1184000E+00
        -11   -1    0    0    0    0  0.00000000000E+00  0.00000000000E+00  0.45593999997E+02  0.45594000000E+02  0.51100000000E-03 0. -1.
         11   -1    0    0    0    0 -0.00000000000E+00 -0.00000000000E+00 -0.45593999997E+02  0.45594000000E+02  0.51100000000E-03 0.  1.
         23    2    1    2    0    0  0.88817841970E-15  0.71054273576E-14  0.55511151231E-15  0.91188000000E+02  0.91188000000E+02 0.  0.
    9900012    2    3    3    0    0  0.52467733410E+01  0.36445106203E+02 -0.66320686068E-01  0.54367098394E+02  0.40000032409E+02 0.  0.
        -12    1    3    3    0    0 -0.52467733410E+01 -0.36445106203E+02  0.66320686068E-01  0.36820901606E+02  0.00000000000E+00 0.  1.
         11    1    4    4    0    0  0.59981406498E+01  0.26559865893E+01 -0.33843780442E+01  0.73814613069E+01  0.51100000000E-03 0. -1.
        -11    1    4    4    0    0  0.68470075196E+01  0.15652592024E+02 -0.12971493734E+02  0.21450985968E+02  0.51100000000E-03 0.  1.
         12    1    4    4    0    0 -0.75983748283E+01  0.18136527589E+02  0.16289551092E+02  0.25534651120E+02  0.00000000000E+00 0. -1.
</event>
<event>
 8    1  0.2482403E-006  0.9118800E+02  0.7816164E-02  0.1184000E+00
        -11   -1    0    0    0    0  0.00000000000E+00  0.00000000000E+00  0.45593999997E+02  0.45594000000E+02  0.51100000000E-03 0. -1.
         11   -1    0    0    0    0 -0.00000000000E+00 -0.00000000000E+00 -0.45593999997E+02  0.45594000000E+02  0.51100000000E-03 0.  1.
         23    2    1    2    0    0 -0.22204460493E-15  0.00000000000E+00  0.17763568394E-14  0.91188000000E+02  0.91188000000E+02 0.  0.
    9900012    2    3    3    0    0 -0.18211268459E+01  0.35000791246E+02  0.11287305996E+02  0.54367147655E+02  0.40000144708E+02 0.  0.
        -12    1    3    3    0    0  0.18211268459E+01 -0.35000791246E+02 -0.11287305996E+02  0.36820852345E+02  0.00000000000E+00 0.  1.
         11    1    4    4    0    0 -0.74792433413E+01  0.11080575346E+01 -0.20828398133E+01  0.78425183715E+01  0.51100000000E-03 0. -1.
        -11    1    4    4    0    0  0.49266351925E+01  0.14878837110E+02  0.20845981613E+02  0.26080768350E+02  0.51100000000E-03 0.  1.
        -12    1    4    4    0    0  0.73148130283E+00  0.19013896601E+02 -0.74758358044E+01  0.20443860933E+02  0.00000000000E+00 0.  1.
</event>
<event>
 8    1  0.2482403E-006  0.9118800E+02  0.7816164E-02  0.1184000E+00
        -11   -1    0    0    0    0  0.00000000000E+00  0.00000000000E+00  0.45593999997E+02  0.45594000000E+02  0.51100000000E-03 0. -1.
         11   -1    0    0    0    0 -0.00000000000E+00 -0.00000000000E+00 -0.45593999997E+02  0.45594000000E+02  0.51100000000E-03 0.  1.
         23    2    1    2    0    0  0.00000000000E+00  0.00000000000E+00  0.35527136788E-14  0.91188000000E+02  0.91188000000E+02 0.  0.
    9900012    2    3    3    0    0 -0.25498114549E+02  0.91067503022E+01 -0.24953798030E+02  0.54367098562E+02  0.40000032791E+02 0.  0.
         12    1    3    3    0    0  0.25498114549E+02 -0.91067503022E+01  0.24953798030E+02  0.36820901438E+02  0.00000000000E+00 0. -1.
         11    1    4    4    0    0 -0.29763494017E+01  0.83800910883E+01 -0.14197314949E+02  0.16752562026E+02  0.51100000000E-03 0.  1.
        -11    1    4    4    0    0 -0.67507203640E+01 -0.79380695081E+01  0.68251918978E+01  0.12456661577E+02  0.51100000000E-03 0. -1.
        -12    1    4    4    0    0 -0.15771044783E+02  0.86647287220E+01 -0.17581674978E+02  0.25157874958E+02  0.00000000000E+00 0.  1.
</event>
<event>
 8    1  0.2482403E-006  0.9118800E+02  0.7816164E-02  0.1184000E+00
        -11   -1    0    0    0    0  0.00000000000E+00  0.00000000000E+00  0.45593999997E+02  0.45594000000E+02  0.51100000000E-03 0.  1.
         11   -1    0    0    0    0 -0.00000000000E+00 -0.00000000000E+00 -0.45593999997E+02  0.45594000000E+02  0.51100000000E-03 0. -1.
         23    2    1    2    0    0  0.17763568394E-14  0.00000000000E+00  0.00000000000E+00  0.91188000000E+02  0.91188000000E+02 0.  0.
    9900012    2    3    3    0    0  0.12696039964E+02 -0.12504726627E+01 -0.34540132100E+02  0.54367165705E+02  0.40000185858E+02 0.  0.
        -12    1    3    3    0    0 -0.12696039964E+02  0.12504726627E+01  0.34540132100E+02  0.36820834295E+02  0.00000000000E+00 0.  1.
         11    1    4    4    0    0 -0.17622201825E+01  0.38437509188E+01  0.27887067582E+01  0.50652469576E+01  0.51100000000E-03 0.  1.
        -11    1    4    4    0    0  0.18078840332E+02 -0.23056127202E+01 -0.84944286821E+01  0.20107601465E+02  0.51100000000E-03 0. -1.
         12    1    4    4    0    0 -0.36205801852E+01 -0.27886108613E+01 -0.28834410176E+02  0.29194317283E+02  0.00000000000E+00 0. -1.
</event>
<event>
 8    1  0.2482403E-006  0.9118800E+02  0.7816164E-02  0.1184000E+00
        -11   -1    0    0    0    0  0.00000000000E+00  0.00000000000E+00  0.45593999997E+02  0.45594000000E+02  0.51100000000E-03 0.  1.
         11   -1    0    0    0    0 -0.00000000000E+00 -0.00000000000E+00 -0.45593999997E+02  0.45594000000E+02  0.51100000000E-03 0. -1.
         23    2    1    2    0    0  0.35527136788E-14  0.00000000000E+00  0.00000000000E+00  0.91188000000E+02  0.91188000000E+02 0.  0.
    9900012    2    3    3    0    0 -0.17142495095E+02  0.29417835795E+02  0.14018056634E+02  0.54367080501E+02  0.39999991618E+02 0.  0.
         12    1    3    3    0    0  0.17142495095E+02 -0.29417835795E+02 -0.14018056634E+02  0.36820919499E+02  0.00000000000E+00 0. -1.
         11    1    4    4    0    0 -0.11137286462E+02  0.75692409353E+01 -0.89819599483E+01  0.16186666205E+02  0.51100000000E-03 0. -1.
        -11    1    4    4    0    0 -0.65194086112E+01  0.16314931438E+02  0.26365653405E+02  0.31683234623E+02  0.51100000000E-03 0.  1.
        -12    1    4    4    0    0  0.51419997833E+00  0.55336634213E+01 -0.33656368219E+01  0.64971796724E+01  0.00000000000E+00 0.  1.
</event>
<event>
 8    1  0.2482403E-006  0.9118800E+02  0.7816164E-02  0.1184000E+00
        -11   -1    0    0    0    0  0.00000000000E+00  0.00000000000E+00  0.45593999997E+02  0.45594000000E+02  0.51100000000E-03 0. -1.
         11   -1    0    0    0    0 -0.00000000000E+00 -0.00000000000E+00 -0.45593999997E+02  0.45594000000E+02  0.51100000000E-03 0.  1.
         23    2    1    2    0    0  0.00000000000E+00  0.00000000000E+00  0.00000000000E+00  0.91188000000E+02  0.91188000000E+02 0.  0.
    9900012    2    3    3    0    0  0.84499032798E+01 -0.64145115248E+01 -0.35259522435E+02  0.54367071904E+02  0.39999972019E+02 0.  0.
         12    1    3    3    0    0 -0.84499032798E+01  0.64145115248E+01  0.35259522435E+02  0.36820928096E+02  0.00000000000E+00 0. -1.
         11    1    4    4    0    0 -0.29372341136E+01 -0.12339544648E+02 -0.14860728310E+02  0.19537987422E+02  0.51100000000E-03 0. -1.
        -11    1    4    4    0    0 -0.13179048325E+01  0.65815783145E+01 -0.21046183005E+02  0.22090628456E+02  0.51100000000E-03 0.  1.
        -12    1    4    4    0    0  0.12705042226E+02 -0.65654519137E+00  0.64738887973E+00  0.12738456025E+02  0.00000000000E+00 0.  1.
</event>
<event>
 8    1  0.2482403E-006  0.9118800E+02  0.7816164E-02  0.1184000E+00
        -11   -1    0    0    0    0  0.00000000000E+00  0.00000000000E+00  0.45593999997E+02  0.45594000000E+02  0.51100000000E-03 0. -1.
         11   -1    0    0    0    0 -0.00000000000E+00 -0.00000000000E+00 -0.45593999997E+02  0.45594000000E+02  0.51100000000E-03 0.  1.
         23    2    1    2    0    0 -0.17763568394E-14  0.00000000000E+00  0.00000000000E+00  0.91188000000E+02  0.91188000000E+02 0.  0.
    9900012    2    3    3    0    0  0.70127211790E+01 -0.11816490979E+02  0.34160972981E+02  0.54367084851E+02  0.40000001536E+02 0.  0.
        -12    1    3    3    0    0 -0.70127211790E+01  0.11816490979E+02 -0.34160972981E+02  0.36820915149E+02  0.00000000000E+00 0.  1.
         11    1    4    4    0    0  0.17179718192E+02  0.69058065756E+01  0.13491155439E+02  0.22909477448E+02  0.51100000000E-03 0. -1.
        -11    1    4    4    0    0 -0.84208238992E+01 -0.16819956910E+02  0.11766072417E+02  0.22186971086E+02  0.51100000000E-03 0.  1.
        -12    1    4    4    0    0 -0.17461731139E+01 -0.19023406441E+01  0.89037451248E+01  0.92706363168E+01  0.00000000000E+00 0.  1.
</event>
<event>
 8    1  0.2482403E-006  0.9118800E+02  0.7816164E-02  0.1184000E+00
        -11   -1    0    0    0    0  0.00000000000E+00  0.00000000000E+00  0.45593999997E+02  0.45594000000E+02  0.51100000000E-03 0. -1.
         11   -1    0    0    0    0 -0.00000000000E+00 -0.00000000000E+00 -0.45593999997E+02  0.45594000000E+02  0.51100000000E-03 0.  1.
         23    2    1    2    0    0  0.00000000000E+00  0.00000000000E+00  0.00000000000E+00  0.91188000000E+02  0.91188000000E+02 0.  0.
    9900012    2    3    3    0    0  0.19711884940E+02  0.28213546425E+02  0.13084976075E+02  0.54367092778E+02  0.40000019606E+02 0.  0.
        -12    1    3    3    0    0 -0.19711884940E+02 -0.28213546425E+02 -0.13084976075E+02  0.36820907222E+02  0.00000000000E+00 0.  1.
         11    1    4    4    0    0  0.19310672871E+01  0.64619704287E+01  0.66557338448E+01  0.94754881649E+01  0.51100000000E-03 0. -1.
        -11    1    4    4    0    0  0.14667391416E+01  0.18678992776E+02  0.16926717371E+02  0.25250145664E+02  0.51100000000E-03 0.  1.
        -12    1    4    4    0    0  0.16314078511E+02  0.30725832201E+01 -0.10497475141E+02  0.19641458949E+02  0.00000000000E+00 0.  1.
</event>
<event>
 8    1  0.2482403E-006  0.9118800E+02  0.7816164E-02  0.1184000E+00
        -11   -1    0    0    0    0  0.00000000000E+00  0.00000000000E+00  0.45593999997E+02  0.45594000000E+02  0.51100000000E-03 0.  1.
         11   -1    0    0    0    0 -0.00000000000E+00 -0.00000000000E+00 -0.45593999997E+02  0.45594000000E+02  0.51100000000E-03 0. -1.
         23    2    1    2    0    0  0.35527136788E-14  0.00000000000E+00  0.00000000000E+00  0.91188000000E+02  0.91188000000E+02 0.  0.
    9900012    2    3    3    0    0  0.30102165322E+02 -0.66192289163E+01 -0.20145079695E+02  0.54367098539E+02  0.40000032739E+02 0.  0.
        -12    1    3    3    0    0 -0.30102165322E+02  0.66192289163E+01  0.20145079695E+02  0.36820901461E+02  0.00000000000E+00 0.  1.
         11    1    4    4    0    0 -0.78426316877E+01 -0.42823807328E-01 -0.10936013155E+02  0.13457529107E+02  0.51100000000E-03 0. -1.
        -11    1    4    4    0    0  0.27613154500E+02 -0.15820295327E-01 -0.67532556075E+01  0.28426976858E+02  0.51100000000E-03 0.  1.
         12    1    4    4    0    0  0.10331642509E+02 -0.65605848136E+01 -0.24558109322E+01  0.12482592574E+02  0.00000000000E+00 0. -1.
</event>
<event>
 8    1  0.2482403E-006  0.9118800E+02  0.7816164E-02  0.1184000E+00
        -11   -1    0    0    0    0  0.00000000000E+00  0.00000000000E+00  0.45593999997E+02  0.45594000000E+02  0.51100000000E-03 0.  1.
         11   -1    0    0    0    0 -0.00000000000E+00 -0.00000000000E+00 -0.45593999997E+02  0.45594000000E+02  0.51100000000E-03 0. -1.
         23    2    1    2    0    0  0.17763568394E-14  0.00000000000E+00  0.00000000000E+00  0.91188000000E+02  0.91188000000E+02 0.  0.
    9900012    2    3    3    0    0 -0.10541732788E+02 -0.34789542156E+02 -0.58599326505E+01  0.54367093109E+02  0.40000020360E+02 0.  0.
        -12    1    3    3    0    0  0.10541732788E+02  0.34789542156E+02  0.58599326505E+01  0.36820906891E+02  0.00000000000E+00 0.  1.
         11    1    4    4    0    0 -0.17563291300E+02 -0.19817991765E+02 -0.56950085918E+01  0.27086068781E+02  0.51100000000E-03 0. -1.
        -11    1    4    4    0    0  0.61209334275E+01  0.23966629222E+01 -0.60369259605E+01  0.89249254619E+01  0.51100000000E-03 0.  1.
        -12    1    4    4    0    0  0.90062508442E+00 -0.17368213313E+02  0.58720019017E+01  0.18356098866E+02  0.00000000000E+00 0.  1.
</event>
<event>
 8    1  0.2482403E-006  0.9118800E+02  0.7816164E-02  0.1184000E+00
        -11   -1    0    0    0    0  0.00000000000E+00  0.00000000000E+00  0.45593999997E+02  0.45594000000E+02  0.51100000000E-03 0.  1.
         11   -1    0    0    0    0 -0.00000000000E+00 -0.00000000000E+00 -0.45593999997E+02  0.45594000000E+02  0.51100000000E-03 0. -1.
         23    2    1    2    0    0 -0.17763568394E-14  0.00000000000E+00  0.00000000000E+00  0.91188000000E+02  0.91188000000E+02 0.  0.
    9900012    2    3    3    0    0  0.97206882399E+01 -0.21917557835E+01 -0.35446906351E+02  0.54367099099E+02  0.40000034017E+02 0.  0.
        -12    1    3    3    0    0 -0.97206882399E+01  0.21917557835E+01  0.35446906351E+02  0.36820900901E+02  0.00000000000E+00 0.  1.
         11    1    4    4    0    0  0.16298958042E-01 -0.46238512571E+01 -0.14193308714E+02  0.14927500749E+02  0.51100000000E-03 0. -1.
        -11    1    4    4    0    0  0.70350746056E+01 -0.25989801701E+01  0.72150060756E+01  0.10406886449E+02  0.51100000000E-03 0.  1.
        -12    1    4    4    0    0  0.26693146763E+01  0.50310756438E+01 -0.28468603713E+02  0.29032711901E+02  0.00000000000E+00 0.  1.
</event>
<event>
 8    1  0.2482403E-006  0.9118800E+02  0.7816164E-02  0.1184000E+00
        -11   -1    0    0    0    0  0.00000000000E+00  0.00000000000E+00  0.45593999997E+02  0.45594000000E+02  0.51100000000E-03 0.  1.
         11   -1    0    0    0    0 -0.00000000000E+00 -0.00000000000E+00 -0.45593999997E+02  0.45594000000E+02  0.51100000000E-03 0. -1.
         23    2    1    2    0    0  0.00000000000E+00 -0.88817841970E-15  0.00000000000E+00  0.91188000000E+02  0.91188000000E+02 0.  0.
    9900012    2    3    3    0    0 -0.22832301962E+02  0.67799883791E+01  0.28080231784E+02  0.54367059323E+02  0.39999943339E+02 0.  0.
         12    1    3    3    0    0  0.22832301962E+02 -0.67799883791E+01 -0.28080231784E+02  0.36820940677E+02  0.00000000000E+00 0. -1.
         11    1    4    4    0    0 -0.24685219660E+02  0.48354239818E+01  0.15178465753E+02  0.29379026833E+02  0.51100000000E-03 0. -1.
        -11    1    4    4    0    0 -0.84304782091E+01  0.37446639571E+01  0.11034701178E+02  0.14382631933E+02  0.51100000000E-03 0.  1.
         12    1    4    4    0    0  0.10283395908E+02 -0.18000995598E+01  0.18670648535E+01  0.10605400557E+02  0.00000000000E+00 0. -1.
</event>
<event>
 8    1  0.2482403E-006  0.9118800E+02  0.7816164E-02  0.1184000E+00
        -11   -1    0    0    0    0  0.00000000000E+00  0.00000000000E+00  0.45593999997E+02  0.45594000000E+02  0.51100000000E-03 0.  1.
         11   -1    0    0    0    0 -0.00000000000E+00 -0.00000000000E+00 -0.45593999997E+02  0.45594000000E+02  0.51100000000E-03 0. -1.
         23    2    1    2    0    0  0.00000000000E+00  0.27755575616E-15  0.00000000000E+00  0.91188000000E+02  0.91188000000E+02 0.  0.
    9900012    2    3    3    0    0  0.85868231558E+01  0.92896082903E-01  0.35805558258E+02  0.54367079808E+02  0.39999990039E+02 0.  0.
         12    1    3    3    0    0 -0.85868231558E+01 -0.92896082903E-01 -0.35805558258E+02  0.36820920192E+02  0.00000000000E+00 0. -1.
         11    1    4    4    0    0 -0.89192517904E+01  0.45568249688E+00  0.26647048706E+02  0.28103841447E+02  0.51100000000E-03 0. -1.
        -11    1    4    4    0    0  0.42113235403E+01  0.55942710722E+01  0.93650916635E+01  0.11693419385E+02  0.51100000000E-03 0.  1.
        -12    1    4    4    0    0  0.13294751406E+02 -0.59570574862E+01 -0.20658211160E+00  0.14569818977E+02  0.00000000000E+00 0.  1.
</event>
<event>
 8    1  0.2482403E-006  0.9118800E+02  0.7816164E-02  0.1184000E+00
        -11   -1    0    0    0    0  0.00000000000E+00  0.00000000000E+00  0.45593999997E+02  0.45594000000E+02  0.51100000000E-03 0. -1.
         11   -1    0    0    0    0 -0.00000000000E+00 -0.00000000000E+00 -0.45593999997E+02  0.45594000000E+02  0.51100000000E-03 0.  1.
         23    2    1    2    0    0  0.00000000000E+00  0.35527136788E-14  0.00000000000E+00  0.91188000000E+02  0.91188000000E+02 0.  0.
    9900012    2    3    3    0    0  0.15815174593E+02 -0.29411187228E+02  0.15512645328E+02  0.54367084115E+02  0.39999999856E+02 0.  0.
        -12    1    3    3    0    0 -0.15815174593E+02  0.29411187228E+02 -0.15512645328E+02  0.36820915885E+02  0.00000000000E+00 0.  1.
         11    1    4    4    0    0  0.82067937215E+01 -0.27420796179E+02  0.25591780856E+02  0.38395192068E+02  0.51100000000E-03 0. -1.
        -11    1    4    4    0    0  0.62840476070E+01 -0.51020082604E+01 -0.95989420130E+01  0.12556250660E+02  0.51100000000E-03 0.  1.
         12    1    4    4    0    0  0.13243332644E+01  0.31116172120E+01 -0.48019351451E+00  0.34156413865E+01  0.00000000000E+00 0. -1.
</event>
<event>
 8    1  0.2482403E-006  0.9118800E+02  0.7816164E-02  0.1184000E+00
        -11   -1    0    0    0    0  0.00000000000E+00  0.00000000000E+00  0.45593999997E+02  0.45594000000E+02  0.51100000000E-03 0. -1.
         11   -1    0    0    0    0 -0.00000000000E+00 -0.00000000000E+00 -0.45593999997E+02  0.45594000000E+02  0.51100000000E-03 0.  1.
         23    2    1    2    0    0  0.00000000000E+00 -0.35527136788E-14 -0.35527136788E-14  0.91188000000E+02  0.91188000000E+02 0.  0.
    9900012    2    3    3    0    0 -0.20827955473E+02 -0.21860410769E+02 -0.21073634736E+02  0.54367090599E+02  0.40000014638E+02 0.  0.
         12    1    3    3    0    0  0.20827955473E+02  0.21860410769E+02  0.21073634736E+02  0.36820909401E+02  0.00000000000E+00 0. -1.
         11    1    4    4    0    0 -0.70685234679E+01 -0.27449972481E+01  0.63059273011E+01  0.98622387569E+01  0.51100000000E-03 0. -1.
        -11    1    4    4    0    0 -0.74816602800E+01  0.45707711440E+01 -0.15537022767E+01  0.89039980021E+01  0.51100000000E-03 0.  1.
        -12    1    4    4    0    0 -0.62777717249E+01 -0.23686184665E+02 -0.25825859760E+02  0.35600853840E+02  0.00000000000E+00 0.  1.
</event>
<event>
 8    1  0.2482403E-006  0.9118800E+02  0.7816164E-02  0.1184000E+00
        -11   -1    0    0    0    0  0.00000000000E+00  0.00000000000E+00  0.45593999997E+02  0.45594000000E+02  0.51100000000E-03 0. -1.
         11   -1    0    0    0    0 -0.00000000000E+00 -0.00000000000E+00 -0.45593999997E+02  0.45594000000E+02  0.51100000000E-03 0.  1.
         23    2    1    2    0    0 -0.17763568394E-14  0.00000000000E+00  0.35527136788E-14  0.91188000000E+02  0.91188000000E+02 0.  0.
    9900012    2    3    3    0    0 -0.23761474829E+01 -0.28999626887E+02 -0.22564437171E+02  0.54367105643E+02  0.40000048933E+02 0.  0.
         12    1    3    3    0    0  0.23761474829E+01  0.28999626887E+02  0.22564437171E+02  0.36820894357E+02  0.00000000000E+00 0. -1.
         11    1    4    4    0    0 -0.10343460577E+02 -0.10216681947E+02  0.48169909008E+01  0.15315716383E+02  0.51100000000E-03 0. -1.
        -11    1    4    4    0    0  0.86175834380E+01 -0.84055812618E+00 -0.39099287628E+01  0.95003592283E+01  0.51100000000E-03 0.  1.
         12    1    4    4    0    0 -0.65027034372E+00 -0.17942386813E+02 -0.23471499310E+02  0.29551030031E+02  0.00000000000E+00 0. -1.
</event>
<event>
 8    1  0.2482403E-006  0.9118800E+02  0.7816164E-02  0.1184000E+00
        -11   -1    0    0    0    0  0.00000000000E+00  0.00000000000E+00  0.45593999997E+02  0.45594000000E+02  0.51100000000E-03 0. -1.
         11   -1    0    0    0    0 -0.00000000000E+00 -0.00000000000E+00 -0.45593999997E+02  0.45594000000E+02  0.51100000000E-03 0.  1.
         23    2    1    2    0    0  0.00000000000E+00  0.00000000000E+00  0.00000000000E+00  0.91188000000E+02  0.91188000000E+02 0.  0.
    9900012    2    3    3    0    0  0.66699004797E+01 -0.60531393290E+01 -0.35702238249E+02  0.54367110764E+02  0.40000060608E+02 0.  0.
         12    1    3    3    0    0 -0.66699004797E+01  0.60531393290E+01  0.35702238249E+02  0.36820889236E+02  0.00000000000E+00 0. -1.
         11    1    4    4    0    0  0.41526151740E+01 -0.14308872616E+02 -0.38741515710E+02  0.41507747326E+02  0.51100000000E-03 0. -1.
        -11    1    4    4    0    0  0.55249967392E+01  0.74714652089E+01  0.15806796982E+01  0.94258649420E+01  0.51100000000E-03 0.  1.
         12    1    4    4    0    0 -0.30077114335E+01  0.78426807850E+00  0.14585977625E+01  0.34334984956E+01  0.00000000000E+00 0. -1.
</event>
<event>
 8    1  0.2482403E-006  0.9118800E+02  0.7816164E-02  0.1184000E+00
        -11   -1    0    0    0    0  0.00000000000E+00  0.00000000000E+00  0.45593999997E+02  0.45594000000E+02  0.51100000000E-03 0.  1.
         11   -1    0    0    0    0 -0.00000000000E+00 -0.00000000000E+00 -0.45593999997E+02  0.45594000000E+02  0.51100000000E-03 0. -1.
         23    2    1    2    0    0  0.71054273576E-14 -0.88817841970E-15 -0.17763568394E-14  0.91188000000E+02  0.91188000000E+02 0.  0.
    9900012    2    3    3    0    0  0.32775068931E+02 -0.79143467656E+01 -0.14796538838E+02  0.54367087603E+02  0.40000007808E+02 0.  0.
        -12    1    3    3    0    0 -0.32775068931E+02  0.79143467656E+01  0.14796538838E+02  0.36820912397E+02  0.00000000000E+00 0.  1.
         11    1    4    4    0    0 -0.56464815482E+00  0.34179540482E+01  0.14200120387E-01  0.34643093567E+01  0.51100000000E-03 0. -1.
        -11    1    4    4    0    0 -0.55740709821E+00  0.86616960437E+01 -0.60637637124E+01  0.10587960694E+02  0.51100000000E-03 0.  1.
         12    1    4    4    0    0  0.33897124184E+02 -0.19993996858E+02 -0.87469752463E+01  0.40314817552E+02  0.00000000000E+00 0. -1.
</event>
<event>
 8    1  0.2482403E-006  0.9118800E+02  0.7816164E-02  0.1184000E+00
        -11   -1    0    0    0    0  0.00000000000E+00  0.00000000000E+00  0.45593999997E+02  0.45594000000E+02  0.51100000000E-03 0. -1.
         11   -1    0    0    0    0 -0.00000000000E+00 -0.00000000000E+00 -0.45593999997E+02  0.45594000000E+02  0.51100000000E-03 0.  1.
         23    2    1    2    0    0 -0.17763568394E-14  0.71054273576E-14  0.00000000000E+00  0.91188000000E+02  0.91188000000E+02 0.  0.
    9900012    2    3    3    0    0 -0.91322923380E+01  0.34713164930E+02  0.82083277332E+01  0.54367092529E+02  0.40000019038E+02 0.  0.
        -12    1    3    3    0    0  0.91322923380E+01 -0.34713164930E+02 -0.82083277332E+01  0.36820907471E+02  0.00000000000E+00 0.  1.
         11    1    4    4    0    0  0.15226956401E+01  0.76088741309E+01  0.18660639574E+02  0.20209726300E+02  0.51100000000E-03 0. -1.
        -11    1    4    4    0    0  0.28047928939E+01  0.95770249786E+01 -0.59042541677E+01  0.11595106216E+02  0.51100000000E-03 0.  1.
        -12    1    4    4    0    0 -0.13459780872E+02  0.17527265821E+02 -0.45480576733E+01  0.22562260013E+02  0.00000000000E+00 0.  1.
</event>
<event>
 8    1  0.2482403E-006  0.9118800E+02  0.7816164E-02  0.1184000E+00
        -11   -1    0    0    0    0  0.00000000000E+00  0.00000000000E+00  0.45593999997E+02  0.45594000000E+02  0.51100000000E-03 0. -1.
         11   -1    0    0    0    0 -0.00000000000E+00 -0.00000000000E+00 -0.45593999997E+02  0.45594000000E+02  0.51100000000E-03 0.  1.
         23    2    1    2    0    0 -0.17763568394E-14 -0.17763568394E-14  0.71054273576E-14  0.91188000000E+02  0.91188000000E+02 0.  0.
    9900012    2    3    3    0    0 -0.22002068544E+01  0.11314706569E+02 -0.34970357294E+02  0.54366954602E+02  0.39999704605E+02 0.  0.
         12    1    3    3    0    0  0.22002068544E+01 -0.11314706569E+02  0.34970357294E+02  0.36821045398E+02  0.00000000000E+00 0. -1.
         11    1    4    4    0    0  0.14539641525E+02  0.10819798261E+02 -0.63361888747E+01  0.19199388006E+02  0.51100000000E-03 0. -1.
        -11    1    4    4    0    0 -0.66210117163E+01  0.58749923469E+01 -0.14261819486E+02  0.16785494528E+02  0.51100000000E-03 0.  1.
        -12    1    4    4    0    0 -0.10118836663E+02 -0.53800840390E+01 -0.14372348933E+02  0.18382072068E+02  0.00000000000E+00 0.  1.
</event>
<event>
 8    1  0.2482403E-006  0.9118800E+02  0.7816164E-02  0.1184000E+00
        -11   -1    0    0    0    0  0.00000000000E+00  0.00000000000E+00  0.45593999997E+02  0.45594000000E+02  0.51100000000E-03 0.  1.
         11   -1    0    0    0    0 -0.00000000000E+00 -0.00000000000E+00 -0.45593999997E+02  0.45594000000E+02  0.51100000000E-03 0. -1.
         23    2    1    2    0    0 -0.35527136788E-14  0.35527136788E-14  0.00000000000E+00  0.91188000000E+02  0.91188000000E+02 0.  0.
    9900012    2    3    3    0    0  0.28072887279E+02 -0.22936475998E+02 -0.64505774898E+01  0.54367097222E+02  0.40000029737E+02 0.  0.
        -12    1    3    3    0    0 -0.28072887279E+02  0.22936475998E+02  0.64505774898E+01  0.36820902778E+02  0.00000000000E+00 0.  1.
         11    1    4    4    0    0  0.11109144818E+02  0.78606708127E+01 -0.80504174686E+01  0.15811782502E+02  0.51100000000E-03 0. -1.
        -11    1    4    4    0    0 -0.16461173732E+01  0.95296924872E-01  0.18652093888E+01  0.24895361487E+01  0.51100000000E-03 0.  1.
         12    1    4    4    0    0  0.18609859834E+02 -0.30892443736E+02 -0.26536941006E+00  0.36065778571E+02  0.00000000000E+00 0. -1.
</event>
<event>
 8    1  0.2482403E-006  0.9118800E+02  0.7816164E-02  0.1184000E+00
        -11   -1    0    0    0    0  0.00000000000E+00  0.00000000000E+00  0.45593999997E+02  0.45594000000E+02  0.51100000000E-03 0.  1.
         11   -1    0    0    0    0 -0.00000000000E+00 -0.00000000000E+00 -0.45593999997E+02  0.45594000000E+02  0.51100000000E-03 0. -1.
         23    2    1    2    0    0  0.00000000000E+00  0.00000000000E+00 -0.35527136788E-14  0.91188000000E+02  0.91188000000E+02 0.  0.
    9900012    2    3    3    0    0  0.19840733161E+02 -0.20807969210E+02  0.23003332985E+02  0.54367087417E+02  0.40000007384E+02 0.  0.
         12    1    3    3    0    0 -0.19840733161E+02  0.20807969210E+02 -0.23003332985E+02  0.36820912583E+02  0.00000000000E+00 0. -1.
         11    1    4    4    0    0  0.64708154799E+01 -0.19927839463E+01  0.16701876556E+02  0.18022078725E+02  0.51100000000E-03 0. -1.
        -11    1    4    4    0    0  0.10954557850E+01  0.39835790279E+01  0.93994568912E+01  0.10267361655E+02  0.51100000000E-03 0.  1.
        -12    1    4    4    0    0  0.12274461896E+02 -0.22798764292E+02 -0.30980004614E+01  0.26077647036E+02  0.00000000000E+00 0.  1.
</event>
<event>
 8    1  0.2482403E-006  0.9118800E+02  0.7816164E-02  0.1184000E+00
        -11   -1    0    0    0    0  0.00000000000E+00  0.00000000000E+00  0.45593999997E+02  0.45594000000E+02  0.51100000000E-03 0.  1.
         11   -1    0    0    0    0 -0.00000000000E+00 -0.00000000000E+00 -0.45593999997E+02  0.45594000000E+02  0.51100000000E-03 0. -1.
         23    2    1    2    0    0  0.00000000000E+00  0.00000000000E+00  0.00000000000E+00  0.91188000000E+02  0.91188000000E+02 0.  0.
    9900012    2    3    3    0    0 -0.22336941009E+02  0.28625972763E+02 -0.61150431775E+01  0.54367095566E+02  0.40000025963E+02 0.  0.
        -12    1    3    3    0    0  0.22336941009E+02 -0.28625972763E+02  0.61150431775E+01  0.36820904434E+02  0.00000000000E+00 0.  1.
         11    1    4    4    0    0 -0.19563695129E+01  0.20746274514E+02 -0.44444853913E+01  0.21307011488E+02  0.51100000000E-03 0. -1.
        -11    1    4    4    0    0 -0.16337336420E+02 -0.59562869661E+01 -0.53307547656E+01  0.18187986759E+02  0.51100000000E-03 0.  1.
        -12    1    4    4    0    0 -0.40432350757E+01  0.13835985215E+02  0.36601969793E+01  0.14872097319E+02  0.00000000000E+00 0.  1.
</event>
<event>
 8    1  0.2482403E-006  0.9118800E+02  0.7816164E-02  0.1184000E+00
        -11   -1    0    0    0    0  0.00000000000E+00  0.00000000000E+00  0.45593999997E+02  0.45594000000E+02  0.51100000000E-03 0.  1.
         11   -1    0    0    0    0 -0.00000000000E+00 -0.00000000000E+00 -0.45593999997E+02  0.45594000000E+02  0.51100000000E-03 0. -1.
         23    2    1    2    0    0 -0.17763568394E-14  0.71054273576E-14  0.00000000000E+00  0.91188000000E+02  0.91188000000E+02 0.  0.
    9900012    2    3    3    0    0  0.99641078731E+01 -0.27862521204E+02  0.21912921868E+02  0.54367086400E+02  0.40000005066E+02 0.  0.
         12    1    3    3    0    0 -0.99641078731E+01  0.27862521204E+02 -0.21912921868E+02  0.36820913600E+02  0.00000000000E+00 0. -1.
         11    1    4    4    0    0  0.11261578348E+02 -0.27425670840E+01  0.20331321538E+01  0.11767686591E+02  0.51100000000E-03 0. -1.
        -11    1    4    4    0    0 -0.81764323572E+01  0.26941654965E+01  0.73807208940E+01  0.11339647922E+02  0.51100000000E-03 0.  1.
        -12    1    4    4    0    0  0.68789618824E+01 -0.27814119617E+02  0.12499068820E+02  0.31259751887E+02  0.00000000000E+00 0.  1.
</event>
<event>
 8    1  0.2482403E-006  0.9118800E+02  0.7816164E-02  0.1184000E+00
        -11   -1    0    0    0    0  0.00000000000E+00  0.00000000000E+00  0.45593999997E+02  0.45594000000E+02  0.51100000000E-03 0.  1.
         11   -1    0    0    0    0 -0.00000000000E+00 -0.00000000000E+00 -0.45593999997E+02  0.45594000000E+02  0.51100000000E-03 0. -1.
         23    2    1    2    0    0  0.00000000000E+00  0.00000000000E+00  0.00000000000E+00  0.91188000000E+02  0.91188000000E+02 0.  0.
    9900012    2    3    3    0    0 -0.19999578299E+02  0.87656313407E+01  0.29647162488E+02  0.54367168009E+02  0.40000191110E+02 0.  0.
         12    1    3    3    0    0  0.19999578299E+02 -0.87656313407E+01 -0.29647162488E+02  0.36820831991E+02  0.00000000000E+00 0. -1.
         11    1    4    4    0    0 -0.73787930351E+01  0.15599637478E+02  0.74563210310E+01  0.18798723352E+02  0.51100000000E-03 0. -1.
        -11    1    4    4    0    0 -0.16659497666E+02 -0.49544587916E+01  0.54050998954E+01  0.18201665570E+02  0.51100000000E-03 0.  1.
        -12    1    4    4    0    0  0.40387124021E+01 -0.18795473452E+01  0.16785741561E+02  0.17366779087E+02  0.00000000000E+00 0.  1.
</event>
<event>
 8    1  0.2482403E-006  0.9118800E+02  0.7816164E-02  0.1184000E+00
        -11   -1    0    0    0    0  0.00000000000E+00  0.00000000000E+00  0.45593999997E+02  0.45594000000E+02  0.51100000000E-03 0.  1.
         11   -1    0    0    0    0 -0.00000000000E+00 -0.00000000000E+00 -0.45593999997E+02  0.45594000000E+02  0.51100000000E-03 0. -1.
         23    2    1    2    0    0 -0.11102230246E-15  0.00000000000E+00 -0.35527136788E-14  0.91188000000E+02  0.91188000000E+02 0.  0.
    9900012    2    3    3    0    0 -0.47924381744E+00  0.20264201548E+02  0.30739427235E+02  0.54367083041E+02  0.39999997409E+02 0.  0.
        -12    1    3    3    0    0  0.47924381744E+00 -0.20264201548E+02 -0.30739427235E+02  0.36820916959E+02  0.00000000000E+00 0.  1.
         11    1    4    4    0    0  0.68135522565E+01  0.23128975588E+02  0.22317448786E+01  0.24214761852E+02  0.51100000000E-03 0. -1.
        -11    1    4    4    0    0 -0.40984012802E+01 -0.36997206135E+01  0.10693746268E+02  0.12034992114E+02  0.51100000000E-03 0.  1.
         12    1    4    4    0    0 -0.31943947937E+01  0.83494657354E+00  0.17813936088E+02  0.18117329075E+02  0.00000000000E+00 0. -1.
</event>
<event>
 8    1  0.2482403E-006  0.9118800E+02  0.7816164E-02  0.1184000E+00
        -11   -1    0    0    0    0  0.00000000000E+00  0.00000000000E+00  0.45593999997E+02  0.45594000000E+02  0.51100000000E-03 0.  1.
         11   -1    0    0    0    0 -0.00000000000E+00 -0.00000000000E+00 -0.45593999997E+02  0.45594000000E+02  0.51100000000E-03 0. -1.
         23    2    1    2    0    0  0.00000000000E+00  0.00000000000E+00  0.35527136788E-14  0.91188000000E+02  0.91188000000E+02 0.  0.
    9900012    2    3    3    0    0  0.16954825027E+02 -0.12188430388E+02 -0.30327466231E+02  0.54367093778E+02  0.40000021886E+02 0.  0.
        -12    1    3    3    0    0 -0.16954825027E+02  0.12188430388E+02  0.30327466231E+02  0.36820906222E+02  0.00000000000E+00 0.  1.
         11    1    4    4    0    0  0.82459189123E+01 -0.15190045930E+02 -0.12939734609E+02  0.21590956581E+02  0.51100000000E-03 0. -1.
        -11    1    4    4    0    0 -0.62129708881E+01  0.87814512046E+01 -0.11443306546E+02  0.15705545437E+02  0.51100000000E-03 0.  1.
        -12    1    4    4    0    0  0.14921877002E+02 -0.57798356630E+01 -0.59444250759E+01  0.17070591760E+02  0.00000000000E+00 0.  1.
</event>
<event>
 8    1  0.2482403E-006  0.9118800E+02  0.7816164E-02  0.1184000E+00
        -11   -1    0    0    0    0  0.00000000000E+00  0.00000000000E+00  0.45593999997E+02  0.45594000000E+02  0.51100000000E-03 0. -1.
         11   -1    0    0    0    0 -0.00000000000E+00 -0.00000000000E+00 -0.45593999997E+02  0.45594000000E+02  0.51100000000E-03 0.  1.
         23    2    1    2    0    0 -0.71054273576E-14 -0.17763568394E-14  0.00000000000E+00  0.91188000000E+02  0.91188000000E+02 0.  0.
    9900012    2    3    3    0    0 -0.19553167768E+02  0.10872187977E+02 -0.29244648551E+02  0.54367077822E+02  0.39999985510E+02 0.  0.
         12    1    3    3    0    0  0.19553167768E+02 -0.10872187977E+02  0.29244648551E+02  0.36820922178E+02  0.00000000000E+00 0. -1.
         11    1    4    4    0    0  0.70085058724E+01 -0.12811480774E+00 -0.42684459678E+01  0.82070213360E+01  0.51100000000E-03 0. -1.
        -11    1    4    4    0    0  0.70063894894E-01  0.12088107099E+02 -0.64642265081E+01  0.13708153297E+02  0.51100000000E-03 0.  1.
         12    1    4    4    0    0 -0.26631737535E+02 -0.10878043145E+01 -0.18511976075E+02  0.32451903189E+02  0.00000000000E+00 0. -1.
</event>
<event>
 8    1  0.2482403E-006  0.9118800E+02  0.7816164E-02  0.1184000E+00
        -11   -1    0    0    0    0  0.00000000000E+00  0.00000000000E+00  0.45593999997E+02  0.45594000000E+02  0.51100000000E-03 0.  1.
         11   -1    0    0    0    0 -0.00000000000E+00 -0.00000000000E+00 -0.45593999997E+02  0.45594000000E+02  0.51100000000E-03 0. -1.
         23    2    1    2    0    0  0.00000000000E+00  0.00000000000E+00 -0.35527136788E-14  0.91188000000E+02  0.91188000000E+02 0.  0.
    9900012    2    3    3    0    0 -0.21968652049E+02  0.20843889406E+02 -0.20944935472E+02  0.54367085830E+02  0.40000003766E+02 0.  0.
        -12    1    3    3    0    0  0.21968652049E+02 -0.20843889406E+02  0.20944935472E+02  0.36820914170E+02  0.00000000000E+00 0.  1.
         11    1    4    4    0    0 -0.18127142724E+02  0.11317376478E+02 -0.74665502121E+01  0.22636821465E+02  0.51100000000E-03 0. -1.
        -11    1    4    4    0    0 -0.10362008661E+02  0.16278690764E+02 -0.82572333538E+01  0.20989256761E+02  0.51100000000E-03 0.  1.
         12    1    4    4    0    0  0.65204993368E+01 -0.67521778351E+01 -0.52211519057E+01  0.10741007604E+02  0.00000000000E+00 0. -1.
</event>
<event>
 8    1  0.2482403E-006  0.9118800E+02  0.7816164E-02  0.1184000E+00
        -11   -1    0    0    0    0  0.00000000000E+00  0.00000000000E+00  0.45593999997E+02  0.45594000000E+02  0.51100000000E-03 0.  1.
         11   -1    0    0    0    0 -0.00000000000E+00 -0.00000000000E+00 -0.45593999997E+02  0.45594000000E+02  0.51100000000E-03 0. -1.
         23    2    1    2    0    0 -0.88817841970E-15  0.00000000000E+00  0.00000000000E+00  0.91188000000E+02  0.91188000000E+02 0.  0.
    9900012    2    3    3    0    0  0.70944545463E+01  0.69168992329E+01  0.35462688178E+02  0.54367122320E+02  0.40000086952E+02 0.  0.
         12    1    3    3    0    0 -0.70944545463E+01 -0.69168992329E+01 -0.35462688178E+02  0.36820877680E+02  0.00000000000E+00 0. -1.
         11    1    4    4    0    0 -0.13337961986E+02 -0.29888381739E+01  0.19665162605E+02  0.23948966660E+02  0.51100000000E-03 0. -1.
        -11    1    4    4    0    0  0.11833783347E+02  0.11534442542E+01  0.13403914281E+02  0.17917415557E+02  0.51100000000E-03 0.  1.
         12    1    4    4    0    0  0.85986331849E+01  0.87522931526E+01  0.23936112928E+01  0.12500740102E+02  0.00000000000E+00 0. -1.
</event>
<event>
 8    1  0.2482403E-006  0.9118800E+02  0.7816164E-02  0.1184000E+00
        -11   -1    0    0    0    0  0.00000000000E+00  0.00000000000E+00  0.45593999997E+02  0.45594000000E+02  0.51100000000E-03 0.  1.
         11   -1    0    0    0    0 -0.00000000000E+00 -0.00000000000E+00 -0.45593999997E+02  0.45594000000E+02  0.51100000000E-03 0. -1.
         23    2    1    2    0    0  0.15543122345E-14  0.71054273576E-14  0.00000000000E+00  0.91188000000E+02  0.91188000000E+02 0.  0.
    9900012    2    3    3    0    0 -0.12349705830E+01 -0.36307059621E+02 -0.60044019350E+01  0.54367074248E+02  0.39999977363E+02 0.  0.
        -12    1    3    3    0    0  0.12349705830E+01  0.36307059621E+02  0.60044019350E+01  0.36820925752E+02  0.00000000000E+00 0.  1.
         11    1    4    4    0    0 -0.12476792490E+02 -0.19083841280E+02 -0.15213063862E+02  0.27409864304E+02  0.51100000000E-03 0. -1.
        -11    1    4    4    0    0  0.50199701528E+01 -0.18302626525E+02  0.62282623772E+01  0.19974420906E+02  0.51100000000E-03 0.  1.
        -12    1    4    4    0    0  0.62218517539E+01  0.10794081839E+01  0.29803995495E+01  0.69827890380E+01  0.00000000000E+00 0.  1.
</event>
<event>
 8    1  0.2482403E-006  0.9118800E+02  0.7816164E-02  0.1184000E+00
        -11   -1    0    0    0    0  0.00000000000E+00  0.00000000000E+00  0.45593999997E+02  0.45594000000E+02  0.51100000000E-03 0. -1.
         11   -1    0    0    0    0 -0.00000000000E+00 -0.00000000000E+00 -0.45593999997E+02  0.45594000000E+02  0.51100000000E-03 0.  1.
         23    2    1    2    0    0  0.00000000000E+00  0.00000000000E+00  0.00000000000E+00  0.91188000000E+02  0.91188000000E+02 0.  0.
    9900012    2    3    3    0    0  0.15669726354E+02  0.22370649235E+02  0.24694030151E+02  0.54367063071E+02  0.39999951883E+02 0.  0.
        -12    1    3    3    0    0 -0.15669726354E+02 -0.22370649235E+02 -0.24694030151E+02  0.36820936929E+02  0.00000000000E+00 0.  1.
         11    1    4    4    0    0  0.13818924384E+02  0.37054763816E+01  0.11104900892E+02  0.18111102960E+02  0.51100000000E-03 0. -1.
        -11    1    4    4    0    0  0.11392294137E+02  0.12356271550E+02 -0.19948425027E+01  0.16924574121E+02  0.51100000000E-03 0.  1.
        -12    1    4    4    0    0 -0.95414921666E+01  0.63089013039E+01  0.15583971762E+02  0.19331385990E+02  0.00000000000E+00 0.  1.
</event>
<event>
 8    1  0.2482403E-006  0.9118800E+02  0.7816164E-02  0.1184000E+00
        -11   -1    0    0    0    0  0.00000000000E+00  0.00000000000E+00  0.45593999997E+02  0.45594000000E+02  0.51100000000E-03 0. -1.
         11   -1    0    0    0    0 -0.00000000000E+00 -0.00000000000E+00 -0.45593999997E+02  0.45594000000E+02  0.51100000000E-03 0.  1.
         23    2    1    2    0    0 -0.71054273576E-14  0.00000000000E+00  0.00000000000E+00  0.91188000000E+02  0.91188000000E+02 0.  0.
    9900012    2    3    3    0    0 -0.32127797537E+02 -0.55232242295E+01 -0.17119310711E+02  0.54367188226E+02  0.40000237198E+02 0.  0.
         12    1    3    3    0    0  0.32127797537E+02  0.55232242295E+01  0.17119310711E+02  0.36820811774E+02  0.00000000000E+00 0. -1.
         11    1    4    4    0    0  0.38751967334E+01 -0.11624338331E+01  0.59250130768E+01  0.71745510215E+01  0.51100000000E-03 0. -1.
        -11    1    4    4    0    0  0.30840969212E+00  0.63360825318E+00 -0.72450541660E+01  0.72792435106E+01  0.51100000000E-03 0.  1.
        -12    1    4    4    0    0 -0.36311403963E+02 -0.49943986496E+01 -0.15799269621E+02  0.39913393694E+02  0.00000000000E+00 0.  1.
</event>
<event>
 8    1  0.2482403E-006  0.9118800E+02  0.7816164E-02  0.1184000E+00
        -11   -1    0    0    0    0  0.00000000000E+00  0.00000000000E+00  0.45593999997E+02  0.45594000000E+02  0.51100000000E-03 0. -1.
         11   -1    0    0    0    0 -0.00000000000E+00 -0.00000000000E+00 -0.45593999997E+02  0.45594000000E+02  0.51100000000E-03 0.  1.
         23    2    1    2    0    0 -0.35527136788E-14 -0.17763568394E-14  0.00000000000E+00  0.91188000000E+02  0.91188000000E+02 0.  0.
    9900012    2    3    3    0    0  0.26436600476E+02 -0.10526660714E+02  0.23368239375E+02  0.54367095041E+02  0.40000024765E+02 0.  0.
        -12    1    3    3    0    0 -0.26436600476E+02  0.10526660714E+02 -0.23368239375E+02  0.36820904959E+02  0.00000000000E+00 0.  1.
         11    1    4    4    0    0 -0.12116237400E+01 -0.15266963723E+01 -0.22466138326E+00  0.19619650605E+01  0.51100000000E-03 0. -1.
        -11    1    4    4    0    0  0.27822896934E+02 -0.20898505793E+02  0.16088663120E+02  0.38336747638E+02  0.51100000000E-03 0.  1.
        -12    1    4    4    0    0 -0.17467271778E+00  0.11898541451E+02  0.75042376376E+01  0.14068382343E+02  0.00000000000E+00 0.  1.
</event>
<event>
 8    1  0.2482403E-006  0.9118800E+02  0.7816164E-02  0.1184000E+00
        -11   -1    0    0    0    0  0.00000000000E+00  0.00000000000E+00  0.45593999997E+02  0.45594000000E+02  0.51100000000E-03 0. -1.
         11   -1    0    0    0    0 -0.00000000000E+00 -0.00000000000E+00 -0.45593999997E+02  0.45594000000E+02  0.51100000000E-03 0.  1.
         23    2    1    2    0    0  0.17763568394E-14 -0.71054273576E-14  0.44408920985E-15  0.91188000000E+02  0.91188000000E+02 0.  0.
    9900012    2    3    3    0    0  0.10457082019E+02 -0.35177656179E+02 -0.29937621690E+01  0.54367072927E+02  0.39999974352E+02 0.  0.
        -12    1    3    3    0    0 -0.10457082019E+02  0.35177656179E+02  0.29937621690E+01  0.36820927073E+02  0.00000000000E+00 0.  1.
         11    1    4    4    0    0  0.95597374955E+00  0.35955803009E+01  0.63545264060E+01  0.73635650072E+01  0.51100000000E-03 0.  1.
        -11    1    4    4    0    0 -0.40115085773E+01 -0.24819201438E+01  0.38520520876E+01  0.60901916401E+01  0.51100000000E-03 0. -1.
         12    1    4    4    0    0  0.13512616846E+02 -0.36291316336E+02 -0.13200340663E+02  0.40913316280E+02  0.00000000000E+00 0. -1.
</event>
<event>
 8    1  0.2482403E-006  0.9118800E+02  0.7816164E-02  0.1184000E+00
        -11   -1    0    0    0    0  0.00000000000E+00  0.00000000000E+00  0.45593999997E+02  0.45594000000E+02  0.51100000000E-03 0.  1.
         11   -1    0    0    0    0 -0.00000000000E+00 -0.00000000000E+00 -0.45593999997E+02  0.45594000000E+02  0.51100000000E-03 0. -1.
         23    2    1    2    0    0  0.88817841970E-15  0.35527136788E-14  0.00000000000E+00  0.91188000000E+02  0.91188000000E+02 0.  0.
    9900012    2    3    3    0    0  0.54980061932E+01  0.20998591916E+02 -0.29742400715E+02  0.54367091064E+02  0.40000015699E+02 0.  0.
        -12    1    3    3    0    0 -0.54980061932E+01 -0.20998591916E+02  0.29742400715E+02  0.36820908936E+02  0.00000000000E+00 0.  1.
         11    1    4    4    0    0  0.39773225024E+01  0.26284093281E+02 -0.30283820798E+01  0.26755256533E+02  0.51100000000E-03 0. -1.
        -11    1    4    4    0    0  0.29242695139E+01 -0.24421272693E+01 -0.14172437228E+02  0.14675602714E+02  0.51100000000E-03 0.  1.
         12    1    4    4    0    0 -0.14035858232E+01 -0.28433740950E+01 -0.12541581408E+02  0.12936231817E+02  0.00000000000E+00 0. -1.
</event>
<event>
 8    1  0.2482403E-006  0.9118800E+02  0.7816164E-02  0.1184000E+00
        -11   -1    0    0    0    0  0.00000000000E+00  0.00000000000E+00  0.45593999997E+02  0.45594000000E+02  0.51100000000E-03 0. -1.
         11   -1    0    0    0    0 -0.00000000000E+00 -0.00000000000E+00 -0.45593999997E+02  0.45594000000E+02  0.51100000000E-03 0.  1.
         23    2    1    2    0    0  0.00000000000E+00 -0.35527136788E-14  0.00000000000E+00  0.91188000000E+02  0.91188000000E+02 0.  0.
    9900012    2    3    3    0    0 -0.12656072895E+02  0.16442757281E+02  0.30417724860E+02  0.54367103300E+02  0.40000043593E+02 0.  0.
        -12    1    3    3    0    0  0.12656072895E+02 -0.16442757281E+02 -0.30417724860E+02  0.36820896700E+02  0.00000000000E+00 0.  1.
         11    1    4    4    0    0  0.27553060125E+01 -0.17425962803E+01  0.19886378466E+02  0.20151833708E+02  0.51100000000E-03 0. -1.
        -11    1    4    4    0    0  0.50794319615E+01  0.66552537466E+01 -0.18961065852E+00  0.83743049829E+01  0.51100000000E-03 0.  1.
         12    1    4    4    0    0 -0.20490810869E+02  0.11530099815E+02  0.10720957052E+02  0.25840964609E+02  0.00000000000E+00 0. -1.
</event>
<event>
 8    1  0.2482403E-006  0.9118800E+02  0.7816164E-02  0.1184000E+00
        -11   -1    0    0    0    0  0.00000000000E+00  0.00000000000E+00  0.45593999997E+02  0.45594000000E+02  0.51100000000E-03 0. -1.
         11   -1    0    0    0    0 -0.00000000000E+00 -0.00000000000E+00 -0.45593999997E+02  0.45594000000E+02  0.51100000000E-03 0.  1.
         23    2    1    2    0    0  0.00000000000E+00  0.00000000000E+00  0.00000000000E+00  0.91188000000E+02  0.91188000000E+02 0.  0.
    9900012    2    3    3    0    0 -0.22099715642E+02  0.24031230632E+02  0.17025940872E+02  0.54367080135E+02  0.39999990783E+02 0.  0.
        -12    1    3    3    0    0  0.22099715642E+02 -0.24031230632E+02 -0.17025940872E+02  0.36820919865E+02  0.00000000000E+00 0.  1.
         11    1    4    4    0    0 -0.17327734020E+02  0.17232393869E+02  0.14337133940E+02  0.28333005040E+02  0.51100000000E-03 0. -1.
        -11    1    4    4    0    0  0.81703131385E+01  0.76870486856E+01 -0.33740877918E+01  0.11714486884E+02  0.51100000000E-03 0.  1.
         12    1    4    4    0    0 -0.12942294760E+02 -0.88821192281E+00  0.60628947238E+01  0.14319588210E+02  0.00000000000E+00 0. -1.
</event>
<event>
 8    1  0.2482403E-006  0.9118800E+02  0.7816164E-02  0.1184000E+00
        -11   -1    0    0    0    0  0.00000000000E+00  0.00000000000E+00  0.45593999997E+02  0.45594000000E+02  0.51100000000E-03 0. -1.
         11   -1    0    0    0    0 -0.00000000000E+00 -0.00000000000E+00 -0.45593999997E+02  0.45594000000E+02  0.51100000000E-03 0.  1.
         23    2    1    2    0    0  0.17763568394E-14  0.00000000000E+00 -0.17763568394E-14  0.91188000000E+02  0.91188000000E+02 0.  0.
    9900012    2    3    3    0    0  0.10365367879E+02  0.34410548571E+02  0.80157815283E+01  0.54367089396E+02  0.40000011895E+02 0.  0.
         12    1    3    3    0    0 -0.10365367879E+02 -0.34410548571E+02 -0.80157815283E+01  0.36820910604E+02  0.00000000000E+00 0. -1.
         11    1    4    4    0    0 -0.10519908944E+02  0.52073641412E+01  0.12561023410E+02  0.17191987519E+02  0.51100000000E-03 0. -1.
        -11    1    4    4    0    0  0.15378830810E+02  0.14363747470E+02 -0.19213502666E+01  0.21130955150E+02  0.51100000000E-03 0.  1.
        -12    1    4    4    0    0  0.55064460138E+01  0.14839436960E+02 -0.26238916147E+01  0.16044146727E+02  0.00000000000E+00 0.  1.
</event>
<event>
 8    1  0.2482403E-006  0.9118800E+02  0.7816164E-02  0.1184000E+00
        -11   -1    0    0    0    0  0.00000000000E+00  0.00000000000E+00  0.45593999997E+02  0.45594000000E+02  0.51100000000E-03 0. -1.
         11   -1    0    0    0    0 -0.00000000000E+00 -0.00000000000E+00 -0.45593999997E+02  0.45594000000E+02  0.51100000000E-03 0.  1.
         23    2    1    2    0    0 -0.35527136788E-14  0.00000000000E+00  0.88817841970E-15  0.91188000000E+02  0.91188000000E+02 0.  0.
    9900012    2    3    3    0    0 -0.18831539491E+02  0.31519251604E+02  0.27729377922E+01  0.54367091738E+02  0.40000017235E+02 0.  0.
         12    1    3    3    0    0  0.18831539491E+02 -0.31519251604E+02 -0.27729377922E+01  0.36820908262E+02  0.00000000000E+00 0. -1.
         11    1    4    4    0    0  0.12170031054E+01  0.16663414401E+00 -0.54772446073E+01  0.56132942419E+01  0.51100000000E-03 0. -1.
        -11    1    4    4    0    0 -0.21931491425E+02  0.35693041017E+02  0.10958647281E+02  0.43302141329E+02  0.51100000000E-03 0.  1.
         12    1    4    4    0    0  0.18829488290E+01 -0.43404235576E+01 -0.27084648814E+01  0.54516561672E+01  0.00000000000E+00 0. -1.
</event>
<event>
 8    1  0.2482403E-006  0.9118800E+02  0.7816164E-02  0.1184000E+00
        -11   -1    0    0    0    0  0.00000000000E+00  0.00000000000E+00  0.45593999997E+02  0.45594000000E+02  0.51100000000E-03 0. -1.
         11   -1    0    0    0    0 -0.00000000000E+00 -0.00000000000E+00 -0.45593999997E+02  0.45594000000E+02  0.51100000000E-03 0.  1.
         23    2    1    2    0    0 -0.17763568394E-14 -0.17763568394E-14 -0.71054273576E-14  0.91188000000E+02  0.91188000000E+02 0.  0.
    9900012    2    3    3    0    0 -0.78551422259E+01 -0.63017842463E+01 -0.35417014615E+02  0.54367072957E+02  0.39999974420E+02 0.  0.
         12    1    3    3    0    0  0.78551422259E+01  0.63017842463E+01  0.35417014615E+02  0.36820927043E+02  0.00000000000E+00 0. -1.
         11    1    4    4    0    0  0.20974847122E+01  0.12450437397E+01  0.48720870043E+01  0.54485601832E+01  0.51100000000E-03 0. -1.
        -11    1    4    4    0    0  0.14491082497E+01  0.68909474740E+01 -0.21494685612E+02  0.22618721927E+02  0.51100000000E-03 0.  1.
         12    1    4    4    0    0 -0.11401735188E+02 -0.14437775460E+02 -0.18794416007E+02  0.26299790847E+02  0.00000000000E+00 0. -1.
</event>
<event>
 8    1  0.2482403E-006  0.9118800E+02  0.7816164E-02  0.1184000E+00
        -11   -1    0    0    0    0  0.00000000000E+00  0.00000000000E+00  0.45593999997E+02  0.45594000000E+02  0.51100000000E-03 0.  1.
         11   -1    0    0    0    0 -0.00000000000E+00 -0.00000000000E+00 -0.45593999997E+02  0.45594000000E+02  0.51100000000E-03 0. -1.
         23    2    1    2    0    0 -0.22204460493E-14  0.00000000000E+00  0.00000000000E+00  0.91188000000E+02  0.91188000000E+02 0.  0.
    9900012    2    3    3    0    0 -0.16732348463E+01 -0.32297676416E+02 -0.17602129024E+02  0.54367155864E+02  0.40000163422E+02 0.  0.
         12    1    3    3    0    0  0.16732348463E+01  0.32297676416E+02  0.17602129024E+02  0.36820844136E+02  0.00000000000E+00 0. -1.
         11    1    4    4    0    0  0.94826849837E+01  0.22283166304E+01 -0.14623378617E+00  0.97420785301E+01  0.51100000000E-03 0. -1.
        -11    1    4    4    0    0 -0.14866281730E+02 -0.32637230694E+02 -0.12118086894E+02  0.37855556925E+02  0.51100000000E-03 0.  1.
        -12    1    4    4    0    0  0.37103619001E+01 -0.18887623530E+01 -0.53378083435E+01  0.67695204090E+01  0.00000000000E+00 0.  1.
</event>
<event>
 8    1  0.2482403E-006  0.9118800E+02  0.7816164E-02  0.1184000E+00
        -11   -1    0    0    0    0  0.00000000000E+00  0.00000000000E+00  0.45593999997E+02  0.45594000000E+02  0.51100000000E-03 0. -1.
         11   -1    0    0    0    0 -0.00000000000E+00 -0.00000000000E+00 -0.45593999997E+02  0.45594000000E+02  0.51100000000E-03 0.  1.
         23    2    1    2    0    0 -0.35527136788E-14  0.00000000000E+00  0.00000000000E+00  0.91188000000E+02  0.91188000000E+02 0.  0.
    9900012    2    3    3    0    0  0.17036321025E+02 -0.26056152192E+02 -0.19662666161E+02  0.54367085540E+02  0.40000003105E+02 0.  0.
         12    1    3    3    0    0 -0.17036321025E+02  0.26056152192E+02  0.19662666161E+02  0.36820914460E+02  0.00000000000E+00 0. -1.
         11    1    4    4    0    0 -0.91866076593E+01 -0.88994442761E+01 -0.18805573095E+02  0.22742986796E+02  0.51100000000E-03 0. -1.
        -11    1    4    4    0    0  0.45088567463E+01 -0.49084335553E+01 -0.60592989218E+00  0.66925077826E+01  0.51100000000E-03 0.  1.
         12    1    4    4    0    0  0.21714071938E+02 -0.12248274361E+02 -0.25116317404E+00  0.24931590961E+02  0.00000000000E+00 0. -1.
</event>
<event>
 8    1  0.2482403E-006  0.9118800E+02  0.7816164E-02  0.1184000E+00
        -11   -1    0    0    0    0  0.00000000000E+00  0.00000000000E+00  0.45593999997E+02  0.45594000000E+02  0.51100000000E-03 0.  1.
         11   -1    0    0    0    0 -0.00000000000E+00 -0.00000000000E+00 -0.45593999997E+02  0.45594000000E+02  0.51100000000E-03 0. -1.
         23    2    1    2    0    0  0.00000000000E+00 -0.88817841970E-15  0.35527136788E-14  0.91188000000E+02  0.91188000000E+02 0.  0.
    9900012    2    3    3    0    0  0.18027256483E+02 -0.52607206266E+01  0.31672101973E+02  0.54367092879E+02  0.40000019836E+02 0.  0.
         12    1    3    3    0    0 -0.18027256483E+02  0.52607206266E+01 -0.31672101973E+02  0.36820907121E+02  0.00000000000E+00 0. -1.
         11    1    4    4    0    0 -0.53133187705E+01 -0.38859753172E+01  0.42604991188E+01  0.78411742441E+01  0.51100000000E-03 0. -1.
        -11    1    4    4    0    0  0.11342488399E+02 -0.32782623529E+01  0.31554292698E+02  0.33690836070E+02  0.51100000000E-03 0.  1.
         12    1    4    4    0    0  0.11998086855E+02  0.19035170434E+01 -0.41426898435E+01  0.12835082565E+02  0.00000000000E+00 0. -1.
</event>
<event>
 8    1  0.2482403E-006  0.9118800E+02  0.7816164E-02  0.1184000E+00
        -11   -1    0    0    0    0  0.00000000000E+00  0.00000000000E+00  0.45593999997E+02  0.45594000000E+02  0.51100000000E-03 0.  1.
         11   -1    0    0    0    0 -0.00000000000E+00 -0.00000000000E+00 -0.45593999997E+02  0.45594000000E+02  0.51100000000E-03 0. -1.
         23    2    1    2    0    0  0.00000000000E+00 -0.19984014443E-14  0.00000000000E+00  0.91188000000E+02  0.91188000000E+02 0.  0.
    9900012    2    3    3    0    0  0.27184129242E+02  0.18015478435E+01 -0.24770107319E+02  0.54367072881E+02  0.39999974248E+02 0.  0.
        -12    1    3    3    0    0 -0.27184129242E+02 -0.18015478435E+01  0.24770107319E+02  0.36820927119E+02  0.00000000000E+00 0.  1.
         11    1    4    4    0    0  0.17083118040E+02 -0.15947919998E+02 -0.17066739402E+02  0.28938601699E+02  0.51100000000E-03 0. -1.
        -11    1    4    4    0    0  0.16335746907E+01  0.15115109446E+02 -0.62713642921E+01  0.16445823488E+02  0.51100000000E-03 0.  1.
         12    1    4    4    0    0  0.84674365116E+01  0.26343583950E+01 -0.14320036251E+01  0.89826476951E+01  0.00000000000E+00 0. -1.
</event>
<event>
 8    1  0.2482403E-006  0.9118800E+02  0.7816164E-02  0.1184000E+00
        -11   -1    0    0    0    0  0.00000000000E+00  0.00000000000E+00  0.45593999997E+02  0.45594000000E+02  0.51100000000E-03 0. -1.
         11   -1    0    0    0    0 -0.00000000000E+00 -0.00000000000E+00 -0.45593999997E+02  0.45594000000E+02  0.51100000000E-03 0.  1.
         23    2    1    2    0    0 -0.17763568394E-14 -0.35527136788E-14 -0.35527136788E-14  0.91188000000E+02  0.91188000000E+02 0.  0.
    9900012    2    3    3    0    0 -0.13987769937E+02 -0.25257354149E+02 -0.22851439808E+02  0.54367082742E+02  0.39999996727E+02 0.  0.
         12    1    3    3    0    0  0.13987769937E+02  0.25257354149E+02  0.22851439808E+02  0.36820917258E+02  0.00000000000E+00 0. -1.
         11    1    4    4    0    0 -0.17383262292E+01 -0.45453219399E+01 -0.14757863637E+02  0.15539506717E+02  0.51100000000E-03 0. -1.
        -11    1    4    4    0    0  0.18232599472E+01 -0.51431066052E+01 -0.15609539074E+02  0.16535825735E+02  0.51100000000E-03 0.  1.
         12    1    4    4    0    0 -0.14072703655E+02 -0.15568925604E+02  0.75159629028E+01  0.22291750290E+02  0.00000000000E+00 0. -1.
</event>
<event>
 8    1  0.2482403E-006  0.9118800E+02  0.7816164E-02  0.1184000E+00
        -11   -1    0    0    0    0  0.00000000000E+00  0.00000000000E+00  0.45593999997E+02  0.45594000000E+02  0.51100000000E-03 0. -1.
         11   -1    0    0    0    0 -0.00000000000E+00 -0.00000000000E+00 -0.45593999997E+02  0.45594000000E+02  0.51100000000E-03 0.  1.
         23    2    1    2    0    0  0.00000000000E+00 -0.35527136788E-14 -0.17763568394E-14  0.91188000000E+02  0.91188000000E+02 0.  0.
    9900012    2    3    3    0    0  0.24352830537E+02 -0.26953945857E+02 -0.60171085753E+01  0.54367066443E+02  0.39999959570E+02 0.  0.
         12    1    3    3    0    0 -0.24352830537E+02  0.26953945857E+02  0.60171085753E+01  0.36820933557E+02  0.00000000000E+00 0. -1.
         11    1    4    4    0    0  0.54837135345E+01 -0.42357568059E+01  0.75715520672E+01  0.10263583722E+02  0.51100000000E-03 0. -1.
        -11    1    4    4    0    0 -0.65652347523E+01 -0.44085532963E+00 -0.70912652469E+01  0.96738153713E+01  0.51100000000E-03 0.  1.
         12    1    4    4    0    0  0.25434351754E+02 -0.22277333721E+02 -0.64973953957E+01  0.34429667350E+02  0.00000000000E+00 0. -1.
</event>
<event>
 8    1  0.2482403E-006  0.9118800E+02  0.7816164E-02  0.1184000E+00
        -11   -1    0    0    0    0  0.00000000000E+00  0.00000000000E+00  0.45593999997E+02  0.45594000000E+02  0.51100000000E-03 0. -1.
         11   -1    0    0    0    0 -0.00000000000E+00 -0.00000000000E+00 -0.45593999997E+02  0.45594000000E+02  0.51100000000E-03 0.  1.
         23    2    1    2    0    0  0.00000000000E+00  0.17763568394E-14  0.00000000000E+00  0.91188000000E+02  0.91188000000E+02 0.  0.
    9900012    2    3    3    0    0 -0.36038253926E+02  0.71882975596E+01  0.23134522928E+01  0.54367089781E+02  0.40000012774E+02 0.  0.
        -12    1    3    3    0    0  0.36038253926E+02 -0.71882975596E+01 -0.23134522928E+01  0.36820910219E+02  0.00000000000E+00 0.  1.
         11    1    4    4    0    0 -0.23933488795E+02  0.91746439268E+01  0.65339009133E+01  0.26451424130E+02  0.51100000000E-03 0. -1.
        -11    1    4    4    0    0 -0.73639711247E+00 -0.80932809676E+01  0.70679749761E+01  0.10770317918E+02  0.51100000000E-03 0.  1.
        -12    1    4    4    0    0 -0.11368368018E+02  0.61069346004E+01 -0.11288423597E+02  0.17145347734E+02  0.00000000000E+00 0.  1.
</event>
<event>
 8    1  0.2482403E-006  0.9118800E+02  0.7816164E-02  0.1184000E+00
        -11   -1    0    0    0    0  0.00000000000E+00  0.00000000000E+00  0.45593999997E+02  0.45594000000E+02  0.51100000000E-03 0.  1.
         11   -1    0    0    0    0 -0.00000000000E+00 -0.00000000000E+00 -0.45593999997E+02  0.45594000000E+02  0.51100000000E-03 0. -1.
         23    2    1    2    0    0  0.17763568394E-14 -0.35527136788E-14  0.35527136788E-14  0.91188000000E+02  0.91188000000E+02 0.  0.
    9900012    2    3    3    0    0 -0.83735080831E+01 -0.28222959156E+02 -0.22116252111E+02  0.54367086533E+02  0.40000005369E+02 0.  0.
        -12    1    3    3    0    0  0.83735080831E+01  0.28222959156E+02  0.22116252111E+02  0.36820913467E+02  0.00000000000E+00 0.  1.
         11    1    4    4    0    0 -0.15965170773E+02 -0.71145860866E+00 -0.19574035389E+02  0.25269264193E+02  0.51100000000E-03 0. -1.
        -11    1    4    4    0    0  0.18406229438E+01 -0.91594607212E+01 -0.31410194975E+01  0.98564505411E+01  0.51100000000E-03 0.  1.
        -12    1    4    4    0    0  0.57510397461E+01 -0.18352039826E+02  0.59880277591E+00  0.19241371799E+02  0.00000000000E+00 0.  1.
</event>
<event>
 8    1  0.2482403E-006  0.9118800E+02  0.7816164E-02  0.1184000E+00
        -11   -1    0    0    0    0  0.00000000000E+00  0.00000000000E+00  0.45593999997E+02  0.45594000000E+02  0.51100000000E-03 0. -1.
         11   -1    0    0    0    0 -0.00000000000E+00 -0.00000000000E+00 -0.45593999997E+02  0.45594000000E+02  0.51100000000E-03 0.  1.
         23    2    1    2    0    0 -0.88817841970E-15 -0.35527136788E-14  0.00000000000E+00  0.91188000000E+02  0.91188000000E+02 0.  0.
    9900012    2    3    3    0    0 -0.22724162525E+01  0.21618717000E+02 -0.29719452969E+02  0.54367099887E+02  0.40000035812E+02 0.  0.
         12    1    3    3    0    0  0.22724162525E+01 -0.21618717000E+02  0.29719452969E+02  0.36820900113E+02  0.00000000000E+00 0. -1.
         11    1    4    4    0    0 -0.70258811309E+01 -0.42769226498E+01 -0.26052958824E+01  0.86280148304E+01  0.51100000000E-03 0. -1.
        -11    1    4    4    0    0 -0.11738295809E+01 -0.47656926459E+01 -0.71553902744E+01  0.86769414265E+01  0.51100000000E-03 0.  1.
        -12    1    4    4    0    0  0.59272944593E+01  0.30661332296E+02 -0.19958766812E+02  0.37062143630E+02  0.00000000000E+00 0.  1.
</event>
<event>
 8    1  0.2482403E-006  0.9118800E+02  0.7816164E-02  0.1184000E+00
        -11   -1    0    0    0    0  0.00000000000E+00  0.00000000000E+00  0.45593999997E+02  0.45594000000E+02  0.51100000000E-03 0.  1.
         11   -1    0    0    0    0 -0.00000000000E+00 -0.00000000000E+00 -0.45593999997E+02  0.45594000000E+02  0.51100000000E-03 0. -1.
         23    2    1    2    0    0  0.00000000000E+00  0.35527136788E-14  0.00000000000E+00  0.91188000000E+02  0.91188000000E+02 0.  0.
    9900012    2    3    3    0    0 -0.15251288369E+02 -0.23924626065E+02  0.23468927862E+02  0.54367080616E+02  0.39999991880E+02 0.  0.
         12    1    3    3    0    0  0.15251288369E+02  0.23924626065E+02 -0.23468927862E+02  0.36820919384E+02  0.00000000000E+00 0. -1.
         11    1    4    4    0    0  0.19149294300E+01  0.21035974626E+01  0.98441124932E+01  0.10246883821E+02  0.51100000000E-03 0. -1.
        -11    1    4    4    0    0 -0.14129897817E+02 -0.29068697705E+02  0.27624075616E+01  0.32438774551E+02  0.51100000000E-03 0.  1.
        -12    1    4    4    0    0 -0.30363199826E+01  0.30404741770E+01  0.10862407807E+02  0.11681422244E+02  0.00000000000E+00 0.  1.
</event>
<event>
 8    1  0.2482403E-006  0.9118800E+02  0.7816164E-02  0.1184000E+00
        -11   -1    0    0    0    0  0.00000000000E+00  0.00000000000E+00  0.45593999997E+02  0.45594000000E+02  0.51100000000E-03 0.  1.
         11   -1    0    0    0    0 -0.00000000000E+00 -0.00000000000E+00 -0.45593999997E+02  0.45594000000E+02  0.51100000000E-03 0. -1.
         23    2    1    2    0    0  0.00000000000E+00  0.88817841970E-15  0.00000000000E+00  0.91188000000E+02  0.91188000000E+02 0.  0.
    9900012    2    3    3    0    0  0.13372785171E+02  0.71816743044E+01 -0.33546558217E+02  0.54367090217E+02  0.40000013769E+02 0.  0.
        -12    1    3    3    0    0 -0.13372785171E+02 -0.71816743044E+01  0.33546558217E+02  0.36820909783E+02  0.00000000000E+00 0.  1.
         11    1    4    4    0    0 -0.52243959753E+01  0.80755595385E+01 -0.29132108955E+02  0.30678799644E+02  0.51100000000E-03 0. -1.
        -11    1    4    4    0    0  0.17050611332E+02 -0.15073100560E+01 -0.86203798785E+01  0.19165236234E+02  0.51100000000E-03 0.  1.
        -12    1    4    4    0    0  0.15465698138E+01  0.61342482188E+00  0.42059306168E+01  0.45230543391E+01  0.00000000000E+00 0.  1.
</event>
<event>
 8    1  0.2482403E-006  0.9118800E+02  0.7816164E-02  0.1184000E+00
        -11   -1    0    0    0    0  0.00000000000E+00  0.00000000000E+00  0.45593999997E+02  0.45594000000E+02  0.51100000000E-03 0. -1.
         11   -1    0    0    0    0 -0.00000000000E+00 -0.00000000000E+00 -0.45593999997E+02  0.45594000000E+02  0.51100000000E-03 0.  1.
         23    2    1    2    0    0  0.00000000000E+00  0.00000000000E+00 -0.17763568394E-14  0.91188000000E+02  0.91188000000E+02 0.  0.
    9900012    2    3    3    0    0 -0.26534655359E+02  0.21806131828E+02 -0.13273427462E+02  0.54367092938E+02  0.40000019970E+02 0.  0.
         12    1    3    3    0    0  0.26534655359E+02 -0.21806131828E+02  0.13273427462E+02  0.36820907062E+02  0.00000000000E+00 0. -1.
         11    1    4    4    0    0 -0.98897579547E+01  0.20858655190E+02  0.53838091401E+01  0.23703928152E+02  0.51100000000E-03 0. -1.
        -11    1    4    4    0    0  0.19121953619E+01  0.48156586418E+01 -0.24877519096E+01  0.57476925006E+01  0.51100000000E-03 0.  1.
        -12    1    4    4    0    0 -0.18557092766E+02 -0.38681820036E+01 -0.16169484693E+02  0.24915472285E+02  0.00000000000E+00 0.  1.
</event>
<event>
 8    1  0.2482403E-006  0.9118800E+02  0.7816164E-02  0.1184000E+00
        -11   -1    0    0    0    0  0.00000000000E+00  0.00000000000E+00  0.45593999997E+02  0.45594000000E+02  0.51100000000E-03 0. -1.
         11   -1    0    0    0    0 -0.00000000000E+00 -0.00000000000E+00 -0.45593999997E+02  0.45594000000E+02  0.51100000000E-03 0.  1.
         23    2    1    2    0    0  0.00000000000E+00  0.00000000000E+00  0.00000000000E+00  0.91188000000E+02  0.91188000000E+02 0.  0.
    9900012    2    3    3    0    0  0.10073181060E+02 -0.22989278674E+02 -0.26940729879E+02  0.54367097824E+02  0.40000031110E+02 0.  0.
         12    1    3    3    0    0 -0.10073181060E+02  0.22989278674E+02  0.26940729879E+02  0.36820902176E+02  0.00000000000E+00 0. -1.
         11    1    4    4    0    0 -0.26357834143E+01 -0.22883673412E+02  0.13458857985E+01  0.23074255608E+02  0.51100000000E-03 0. -1.
        -11    1    4    4    0    0  0.11034306828E+01  0.10107707657E+01 -0.54559319077E+01  0.56574207953E+01  0.51100000000E-03 0.  1.
         12    1    4    4    0    0  0.11605533792E+02 -0.11163760280E+01 -0.22830683770E+02  0.25635421421E+02  0.00000000000E+00 0. -1.
</event>
<event>
 8    1  0.2482403E-006  0.9118800E+02  0.7816164E-02  0.1184000E+00
        -11   -1    0    0    0    0  0.00000000000E+00  0.00000000000E+00  0.45593999997E+02  0.45594000000E+02  0.51100000000E-03 0.  1.
         11   -1    0    0    0    0 -0.00000000000E+00 -0.00000000000E+00 -0.45593999997E+02  0.45594000000E+02  0.51100000000E-03 0. -1.
         23    2    1    2    0    0  0.00000000000E+00  0.00000000000E+00  0.00000000000E+00  0.91188000000E+02  0.91188000000E+02 0.  0.
    9900012    2    3    3    0    0 -0.25340076558E+02  0.57147945634E+01 -0.26095999574E+02  0.54367088134E+02  0.40000009020E+02 0.  0.
        -12    1    3    3    0    0  0.25340076558E+02 -0.57147945634E+01  0.26095999574E+02  0.36820911866E+02  0.00000000000E+00 0.  1.
         11    1    4    4    0    0 -0.20064771354E+02 -0.65073022899E+01  0.36496772191E+01  0.21407012324E+02  0.51100000000E-03 0. -1.
        -11    1    4    4    0    0  0.57154061232E+00 -0.78616886982E-01 -0.12757098755E+01  0.14000982944E+01  0.51100000000E-03 0.  1.
         12    1    4    4    0    0 -0.58468458164E+01  0.12300713740E+02 -0.28469966917E+02  0.31559977516E+02  0.00000000000E+00 0. -1.
</event>
<event>
 8    1  0.2482403E-006  0.9118800E+02  0.7816164E-02  0.1184000E+00
        -11   -1    0    0    0    0  0.00000000000E+00  0.00000000000E+00  0.45593999997E+02  0.45594000000E+02  0.51100000000E-03 0.  1.
         11   -1    0    0    0    0 -0.00000000000E+00 -0.00000000000E+00 -0.45593999997E+02  0.45594000000E+02  0.51100000000E-03 0. -1.
         23    2    1    2    0    0  0.88817841970E-15  0.00000000000E+00  0.00000000000E+00  0.91188000000E+02  0.91188000000E+02 0.  0.
    9900012    2    3    3    0    0  0.77524822842E+01 -0.97303466035E+01 -0.34655432169E+02  0.54367087390E+02  0.40000007323E+02 0.  0.
        -12    1    3    3    0    0 -0.77524822842E+01  0.97303466035E+01  0.34655432169E+02  0.36820912610E+02  0.00000000000E+00 0.  1.
         11    1    4    4    0    0 -0.24451542499E+01 -0.62300279136E+01 -0.29133923483E+02  0.29892767100E+02  0.51100000000E-03 0. -1.
        -11    1    4    4    0    0 -0.46216897678E+01  0.86589140979E+00  0.41298728440E+01  0.62582452982E+01  0.51100000000E-03 0.  1.
        -12    1    4    4    0    0  0.14819326302E+02 -0.43662100997E+01 -0.96513815305E+01  0.18216074992E+02  0.00000000000E+00 0.  1.
</event>
<event>
 8    1  0.2482403E-006  0.9118800E+02  0.7816164E-02  0.1184000E+00
        -11   -1    0    0    0    0  0.00000000000E+00  0.00000000000E+00  0.45593999997E+02  0.45594000000E+02  0.51100000000E-03 0. -1.
         11   -1    0    0    0    0 -0.00000000000E+00 -0.00000000000E+00 -0.45593999997E+02  0.45594000000E+02  0.51100000000E-03 0.  1.
         23    2    1    2    0    0  0.00000000000E+00  0.00000000000E+00  0.44408920985E-15  0.91188000000E+02  0.91188000000E+02 0.  0.
    9900012    2    3    3    0    0  0.35840267181E+02  0.79623675053E+01  0.28027655855E+01  0.54367088240E+02  0.40000009261E+02 0.  0.
        -12    1    3    3    0    0 -0.35840267181E+02 -0.79623675053E+01 -0.28027655855E+01  0.36820911760E+02  0.00000000000E+00 0.  1.
         11    1    4    4    0    0  0.32749236654E+02  0.18446561149E+01  0.13721498953E+02  0.35555517032E+02  0.51100000000E-03 0. -1.
        -11    1    4    4    0    0  0.54941047481E+01  0.91546195341E+01 -0.51258383990E+01  0.11843414430E+02  0.51100000000E-03 0.  1.
        -12    1    4    4    0    0 -0.24030742213E+01 -0.30369081437E+01 -0.57928949681E+01  0.69681567791E+01  0.00000000000E+00 0.  1.
</event>
<event>
 8    1  0.2482403E-006  0.9118800E+02  0.7816164E-02  0.1184000E+00
        -11   -1    0    0    0    0  0.00000000000E+00  0.00000000000E+00  0.45593999997E+02  0.45594000000E+02  0.51100000000E-03 0.  1.
         11   -1    0    0    0    0 -0.00000000000E+00 -0.00000000000E+00 -0.45593999997E+02  0.45594000000E+02  0.51100000000E-03 0. -1.
         23    2    1    2    0    0  0.00000000000E+00  0.00000000000E+00  0.00000000000E+00  0.91188000000E+02  0.91188000000E+02 0.  0.
    9900012    2    3    3    0    0 -0.11985639626E+02 -0.10159263529E+02 -0.33300343375E+02  0.54367094774E+02  0.40000024157E+02 0.  0.
        -12    1    3    3    0    0  0.11985639626E+02  0.10159263529E+02  0.33300343375E+02  0.36820905226E+02  0.00000000000E+00 0.  1.
         11    1    4    4    0    0 -0.14875739305E+02 -0.91738700869E+01 -0.18567112378E+02  0.25498728881E+02  0.51100000000E-03 0. -1.
        -11    1    4    4    0    0 -0.46159191006E+01  0.97002133641E+01 -0.26213310213E+01  0.11057677199E+02  0.51100000000E-03 0.  1.
        -12    1    4    4    0    0  0.75060187791E+01 -0.10685606806E+02 -0.12111899976E+02  0.17810688694E+02  0.00000000000E+00 0.  1.
</event>
<event>
 8    1  0.2482403E-006  0.9118800E+02  0.7816164E-02  0.1184000E+00
        -11   -1    0    0    0    0  0.00000000000E+00  0.00000000000E+00  0.45593999997E+02  0.45594000000E+02  0.51100000000E-03 0. -1.
         11   -1    0    0    0    0 -0.00000000000E+00 -0.00000000000E+00 -0.45593999997E+02  0.45594000000E+02  0.51100000000E-03 0.  1.
         23    2    1    2    0    0 -0.17763568394E-14  0.00000000000E+00  0.00000000000E+00  0.91188000000E+02  0.91188000000E+02 0.  0.
    9900012    2    3    3    0    0  0.15384076046E+02 -0.21823580302E+02 -0.25354305519E+02  0.54367092063E+02  0.40000017975E+02 0.  0.
         12    1    3    3    0    0 -0.15384076046E+02  0.21823580302E+02  0.25354305519E+02  0.36820907937E+02  0.00000000000E+00 0. -1.
         11    1    4    4    0    0 -0.76900372558E+01  0.81007090144E+00 -0.15256942660E+02  0.17104595507E+02  0.51100000000E-03 0. -1.
        -11    1    4    4    0    0 -0.14453753532E+01 -0.38471010749E+01 -0.40832969572E+01  0.57933246840E+01  0.51100000000E-03 0.  1.
         12    1    4    4    0    0  0.24519488655E+02 -0.18786550129E+02 -0.60140659019E+01  0.31469171872E+02  0.00000000000E+00 0. -1.
</event>
<event>
 8    1  0.2482403E-006  0.9118800E+02  0.7816164E-02  0.1184000E+00
        -11   -1    0    0    0    0  0.00000000000E+00  0.00000000000E+00  0.45593999997E+02  0.45594000000E+02  0.51100000000E-03 0.  1.
         11   -1    0    0    0    0 -0.00000000000E+00 -0.00000000000E+00 -0.45593999997E+02  0.45594000000E+02  0.51100000000E-03 0. -1.
         23    2    1    2    0    0  0.00000000000E+00  0.71054273576E-14  0.00000000000E+00  0.91188000000E+02  0.91188000000E+02 0.  0.
    9900012    2    3    3    0    0 -0.69625062204E+01  0.32078823171E+02  0.16680887981E+02  0.54367090007E+02  0.40000013289E+02 0.  0.
         12    1    3    3    0    0  0.69625062204E+01 -0.32078823171E+02 -0.16680887981E+02  0.36820909993E+02  0.00000000000E+00 0. -1.
         11    1    4    4    0    0 -0.31007303392E+01  0.15586724268E+02 -0.35712468142E+01  0.16288471571E+02  0.51100000000E-03 0. -1.
        -11    1    4    4    0    0 -0.14782315475E+01  0.21454042214E+02  0.53043218675E+01  0.22149422714E+02  0.51100000000E-03 0.  1.
         12    1    4    4    0    0 -0.23835443338E+01 -0.49619433124E+01  0.14947812927E+02  0.15929195722E+02  0.00000000000E+00 0. -1.
</event>
<event>
 8    1  0.2482403E-006  0.9118800E+02  0.7816164E-02  0.1184000E+00
        -11   -1    0    0    0    0  0.00000000000E+00  0.00000000000E+00  0.45593999997E+02  0.45594000000E+02  0.51100000000E-03 0. -1.
         11   -1    0    0    0    0 -0.00000000000E+00 -0.00000000000E+00 -0.45593999997E+02  0.45594000000E+02  0.51100000000E-03 0.  1.
         23    2    1    2    0    0  0.00000000000E+00  0.35527136788E-14  0.00000000000E+00  0.91188000000E+02  0.91188000000E+02 0.  0.
    9900012    2    3    3    0    0  0.11927262798E+02 -0.30388329476E+02  0.17031450546E+02  0.54367075597E+02  0.39999980439E+02 0.  0.
        -12    1    3    3    0    0 -0.11927262798E+02  0.30388329476E+02 -0.17031450546E+02  0.36820924403E+02  0.00000000000E+00 0.  1.
         11    1    4    4    0    0  0.13797685212E+02 -0.22908750939E+02  0.22951740830E+01  0.26841289297E+02  0.51100000000E-03 0. -1.
        -11    1    4    4    0    0  0.86039455437E+00  0.67704471295E+01  0.10295316638E+02  0.12352035381E+02  0.51100000000E-03 0.  1.
        -12    1    4    4    0    0 -0.27308169683E+01 -0.14250025666E+02  0.44409598256E+01  0.15173750919E+02  0.00000000000E+00 0.  1.
</event>
<event>
 8    1  0.2482403E-006  0.9118800E+02  0.7816164E-02  0.1184000E+00
        -11   -1    0    0    0    0  0.00000000000E+00  0.00000000000E+00  0.45593999997E+02  0.45594000000E+02  0.51100000000E-03 0.  1.
         11   -1    0    0    0    0 -0.00000000000E+00 -0.00000000000E+00 -0.45593999997E+02  0.45594000000E+02  0.51100000000E-03 0. -1.
         23    2    1    2    0    0  0.00000000000E+00  0.00000000000E+00  0.17763568394E-14  0.91188000000E+02  0.91188000000E+02 0.  0.
    9900012    2    3    3    0    0 -0.15093766229E+02 -0.29814710176E+02 -0.15460897911E+02  0.54367108022E+02  0.40000054358E+02 0.  0.
        -12    1    3    3    0    0  0.15093766229E+02  0.29814710176E+02  0.15460897911E+02  0.36820891978E+02  0.00000000000E+00 0.  1.
         11    1    4    4    0    0  0.50292973283E+01 -0.14940993347E+02 -0.25569735745E+01  0.15970761658E+02  0.51100000000E-03 0. -1.
        -11    1    4    4    0    0 -0.20682126239E+02 -0.21065016032E+02 -0.12806597314E+02  0.32179095407E+02  0.51100000000E-03 0.  1.
        -12    1    4    4    0    0  0.55906268169E+00  0.61912992036E+01 -0.97327022039E-01  0.62172509568E+01  0.00000000000E+00 0.  1.
</event>
<event>
 8    1  0.2482403E-006  0.9118800E+02  0.7816164E-02  0.1184000E+00
        -11   -1    0    0    0    0  0.00000000000E+00  0.00000000000E+00  0.45593999997E+02  0.45594000000E+02  0.51100000000E-03 0.  1.
         11   -1    0    0    0    0 -0.00000000000E+00 -0.00000000000E+00 -0.45593999997E+02  0.45594000000E+02  0.51100000000E-03 0. -1.
         23    2    1    2    0    0  0.00000000000E+00 -0.71054273576E-14  0.00000000000E+00  0.91188000000E+02  0.91188000000E+02 0.  0.
    9900012    2    3    3    0    0 -0.23874577876E+01 -0.34255423783E+02  0.13290836058E+02  0.54367077465E+02  0.39999984696E+02 0.  0.
         12    1    3    3    0    0  0.23874577876E+01  0.34255423783E+02 -0.13290836058E+02  0.36820922535E+02  0.00000000000E+00 0. -1.
         11    1    4    4    0    0  0.15931772475E+01 -0.21621038159E+01 -0.81261666990E+01  0.85584748719E+01  0.51100000000E-03 0. -1.
        -11    1    4    4    0    0 -0.57746235530E+01  0.76905731729E+00  0.88171131214E+01  0.10567838492E+02  0.51100000000E-03 0.  1.
        -12    1    4    4    0    0  0.17939885179E+01 -0.32862377284E+02  0.12599889636E+02  0.35240764101E+02  0.00000000000E+00 0.  1.
</event>
<event>
 8    1  0.2482403E-006  0.9118800E+02  0.7816164E-02  0.1184000E+00
        -11   -1    0    0    0    0  0.00000000000E+00  0.00000000000E+00  0.45593999997E+02  0.45594000000E+02  0.51100000000E-03 0.  1.
         11   -1    0    0    0    0 -0.00000000000E+00 -0.00000000000E+00 -0.45593999997E+02  0.45594000000E+02  0.51100000000E-03 0. -1.
         23    2    1    2    0    0 -0.17763568394E-14 -0.35527136788E-14 -0.35527136788E-14  0.91188000000E+02  0.91188000000E+02 0.  0.
    9900012    2    3    3    0    0 -0.45621451185E+01 -0.19464074781E+02 -0.30921148127E+02  0.54367071486E+02  0.39999971066E+02 0.  0.
        -12    1    3    3    0    0  0.45621451185E+01  0.19464074781E+02  0.30921148127E+02  0.36820928514E+02  0.00000000000E+00 0.  1.
         11    1    4    4    0    0 -0.11379832317E+02 -0.49558922675E+01 -0.10402918527E+01  0.12455667751E+02  0.51100000000E-03 0. -1.
        -11    1    4    4    0    0  0.11325146209E+02 -0.13218885292E+01 -0.24407939608E+02  0.26939818895E+02  0.51100000000E-03 0.  1.
        -12    1    4    4    0    0 -0.45074590105E+01 -0.13186293984E+02 -0.54729166667E+01  0.14971584840E+02  0.00000000000E+00 0.  1.
</event>
<event>
 8    1  0.2482403E-006  0.9118800E+02  0.7816164E-02  0.1184000E+00
        -11   -1    0    0    0    0  0.00000000000E+00  0.00000000000E+00  0.45593999997E+02  0.45594000000E+02  0.51100000000E-03 0.  1.
         11   -1    0    0    0    0 -0.00000000000E+00 -0.00000000000E+00 -0.45593999997E+02  0.45594000000E+02  0.51100000000E-03 0. -1.
         23    2    1    2    0    0  0.00000000000E+00  0.00000000000E+00  0.00000000000E+00  0.91188000000E+02  0.91188000000E+02 0.  0.
    9900012    2    3    3    0    0 -0.19747769153E+02  0.17414348923E+02 -0.25739967708E+02  0.54367083763E+02  0.39999999055E+02 0.  0.
        -12    1    3    3    0    0  0.19747769153E+02 -0.17414348923E+02  0.25739967708E+02  0.36820916237E+02  0.00000000000E+00 0.  1.
         11    1    4    4    0    0 -0.11899288451E+02 -0.62726940695E+01 -0.40992760760E+01  0.14062141414E+02  0.51100000000E-03 0. -1.
        -11    1    4    4    0    0 -0.24787258550E+00  0.22604357766E+02 -0.23285328806E+02  0.32453427688E+02  0.51100000000E-03 0.  1.
        -12    1    4    4    0    0 -0.76006081162E+01  0.10826852269E+01  0.16446371748E+01  0.78515146611E+01  0.00000000000E+00 0.  1.
</event>
<event>
 8    1  0.2482403E-006  0.9118800E+02  0.7816164E-02  0.1184000E+00
        -11   -1    0    0    0    0  0.00000000000E+00  0.00000000000E+00  0.45593999997E+02  0.45594000000E+02  0.51100000000E-03 0.  1.
         11   -1    0    0    0    0 -0.00000000000E+00 -0.00000000000E+00 -0.45593999997E+02  0.45594000000E+02  0.51100000000E-03 0. -1.
         23    2    1    2    0    0 -0.35527136788E-14  0.00000000000E+00 -0.35527136788E-14  0.91188000000E+02  0.91188000000E+02 0.  0.
    9900012    2    3    3    0    0 -0.22524273626E+02 -0.27220632908E+02 -0.10366831295E+02  0.54367123457E+02  0.40000089544E+02 0.  0.
        -12    1    3    3    0    0  0.22524273626E+02  0.27220632908E+02  0.10366831295E+02  0.36820876543E+02  0.00000000000E+00 0.  1.
         11    1    4    4    0    0 -0.12055534110E+02 -0.21916073006E+02  0.58226469104E+01  0.25681771279E+02  0.51100000000E-03 0. -1.
        -11    1    4    4    0    0 -0.37361078159E+01 -0.46596017679E+01  0.41355689755E+01  0.72645248475E+01  0.51100000000E-03 0.  1.
         12    1    4    4    0    0 -0.67326317000E+01 -0.64495813411E+00 -0.20325047181E+02  0.21420827331E+02  0.00000000000E+00 0. -1.
</event>
<event>
 8    1  0.2482403E-006  0.9118800E+02  0.7816164E-02  0.1184000E+00
        -11   -1    0    0    0    0  0.00000000000E+00  0.00000000000E+00  0.45593999997E+02  0.45594000000E+02  0.51100000000E-03 0. -1.
         11   -1    0    0    0    0 -0.00000000000E+00 -0.00000000000E+00 -0.45593999997E+02  0.45594000000E+02  0.51100000000E-03 0.  1.
         23    2    1    2    0    0 -0.35527136788E-14  0.00000000000E+00  0.35527136788E-14  0.91188000000E+02  0.91188000000E+02 0.  0.
    9900012    2    3    3    0    0  0.20848427595E+02  0.16187449548E+02  0.25672716373E+02  0.54367098028E+02  0.40000031576E+02 0.  0.
         12    1    3    3    0    0 -0.20848427595E+02 -0.16187449548E+02 -0.25672716373E+02  0.36820901972E+02  0.00000000000E+00 0. -1.
         11    1    4    4    0    0 -0.15863584244E+01 -0.99231710614E+01  0.10135775744E+02  0.14273044776E+02  0.51100000000E-03 0. -1.
        -11    1    4    4    0    0  0.17573071847E+02  0.10496738951E+02  0.69062951184E+01  0.21603039029E+02  0.51100000000E-03 0.  1.
         12    1    4    4    0    0  0.48617141718E+01  0.15613881658E+02  0.86306455104E+01  0.18491014224E+02  0.00000000000E+00 0. -1.
</event>
<event>
 8    1  0.2482403E-006  0.9118800E+02  0.7816164E-02  0.1184000E+00
        -11   -1    0    0    0    0  0.00000000000E+00  0.00000000000E+00  0.45593999997E+02  0.45594000000E+02  0.51100000000E-03 0.  1.
         11   -1    0    0    0    0 -0.00000000000E+00 -0.00000000000E+00 -0.45593999997E+02  0.45594000000E+02  0.51100000000E-03 0. -1.
         23    2    1    2    0    0  0.00000000000E+00  0.35527136788E-14  0.35527136788E-14  0.91188000000E+02  0.91188000000E+02 0.  0.
    9900012    2    3    3    0    0  0.43592792256E+01  0.31181180622E+02  0.19092056867E+02  0.54367136678E+02  0.40000119685E+02 0.  0.
         12    1    3    3    0    0 -0.43592792256E+01 -0.31181180622E+02 -0.19092056867E+02  0.36820863322E+02  0.00000000000E+00 0. -1.
         11    1    4    4    0    0  0.15076631092E+02  0.87193129331E+01  0.18011970532E+02  0.25055185208E+02  0.51100000000E-03 0. -1.
        -11    1    4    4    0    0  0.17218844606E+01  0.10776507138E+02  0.46717820170E+01  0.11871122090E+02  0.51100000000E-03 0.  1.
        -12    1    4    4    0    0 -0.12439236327E+02  0.11685360551E+02 -0.35916956818E+01  0.17440829380E+02  0.00000000000E+00 0.  1.
</event>
<event>
 8    1  0.2482403E-006  0.9118800E+02  0.7816164E-02  0.1184000E+00
        -11   -1    0    0    0    0  0.00000000000E+00  0.00000000000E+00  0.45593999997E+02  0.45594000000E+02  0.51100000000E-03 0. -1.
         11   -1    0    0    0    0 -0.00000000000E+00 -0.00000000000E+00 -0.45593999997E+02  0.45594000000E+02  0.51100000000E-03 0.  1.
         23    2    1    2    0    0  0.22204460493E-14  0.00000000000E+00 -0.35527136788E-14  0.91188000000E+02  0.91188000000E+02 0.  0.
    9900012    2    3    3    0    0  0.21331121907E+01  0.32460902820E+02  0.17248733151E+02  0.54367093237E+02  0.40000020653E+02 0.  0.
        -12    1    3    3    0    0 -0.21331121907E+01 -0.32460902820E+02 -0.17248733151E+02  0.36820906763E+02  0.00000000000E+00 0.  1.
         11    1    4    4    0    0  0.64854816905E+01  0.14302309304E+02  0.28862663754E+01  0.15967092974E+02  0.51100000000E-03 0. -1.
        -11    1    4    4    0    0  0.12173835432E+02  0.51188669412E+01  0.54162004206E+00  0.13217353003E+02  0.51100000000E-03 0.  1.
         12    1    4    4    0    0 -0.16526204932E+02  0.13039726575E+02  0.13820846733E+02  0.25182647260E+02  0.00000000000E+00 0. -1.
</event>
<event>
 8    1  0.2482403E-006  0.9118800E+02  0.7816164E-02  0.1184000E+00
        -11   -1    0    0    0    0  0.00000000000E+00  0.00000000000E+00  0.45593999997E+02  0.45594000000E+02  0.51100000000E-03 0. -1.
         11   -1    0    0    0    0 -0.00000000000E+00 -0.00000000000E+00 -0.45593999997E+02  0.45594000000E+02  0.51100000000E-03 0.  1.
         23    2    1    2    0    0  0.00000000000E+00 -0.71054273576E-14 -0.21649348980E-14  0.91188000000E+02  0.91188000000E+02 0.  0.
    9900012    2    3    3    0    0  0.12918197244E+02  0.34479702216E+02 -0.18150329710E+00  0.54367317926E+02  0.40000532873E+02 0.  0.
         12    1    3    3    0    0 -0.12918197244E+02 -0.34479702216E+02  0.18150329710E+00  0.36820682074E+02  0.00000000000E+00 0. -1.
         11    1    4    4    0    0 -0.12728402452E+01  0.21955902189E+01 -0.73391631069E+01  0.77655684963E+01  0.51100000000E-03 0. -1.
        -11    1    4    4    0    0  0.21180511914E+02  0.30145092744E+02  0.10858294555E+02  0.38408895616E+02  0.51100000000E-03 0.  1.
         12    1    4    4    0    0 -0.69894744253E+01  0.21390192526E+01 -0.37006347452E+01  0.81928538143E+01  0.00000000000E+00 0. -1.
</event>
<event>
 8    1  0.2482403E-006  0.9118800E+02  0.7816164E-02  0.1184000E+00
        -11   -1    0    0    0    0  0.00000000000E+00  0.00000000000E+00  0.45593999997E+02  0.45594000000E+02  0.51100000000E-03 0.  1.
         11   -1    0    0    0    0 -0.00000000000E+00 -0.00000000000E+00 -0.45593999997E+02  0.45594000000E+02  0.51100000000E-03 0. -1.
         23    2    1    2    0    0 -0.35527136788E-14  0.35527136788E-14  0.88817841970E-15  0.91188000000E+02  0.91188000000E+02 0.  0.
    9900012    2    3    3    0    0  0.31631201591E+02 -0.17690556567E+02  0.65031107119E+01  0.54367093511E+02  0.40000021278E+02 0.  0.
        -12    1    3    3    0    0 -0.31631201591E+02  0.17690556567E+02 -0.65031107119E+01  0.36820906489E+02  0.00000000000E+00 0.  1.
         11    1    4    4    0    0  0.20163951624E+02 -0.16177859216E+02  0.15476114369E+02  0.30130021409E+02  0.51100000000E-03 0. -1.
        -11    1    4    4    0    0  0.18236503713E+01  0.44783297093E+01  0.45090820838E+01  0.66115776606E+01  0.51100000000E-03 0.  1.
        -12    1    4    4    0    0  0.96435995957E+01 -0.59910270605E+01 -0.13482085741E+02  0.17625494442E+02  0.00000000000E+00 0.  1.
</event>
<event>
 8    1  0.2482403E-006  0.9118800E+02  0.7816164E-02  0.1184000E+00
        -11   -1    0    0    0    0  0.00000000000E+00  0.00000000000E+00  0.45593999997E+02  0.45594000000E+02  0.51100000000E-03 0. -1.
         11   -1    0    0    0    0 -0.00000000000E+00 -0.00000000000E+00 -0.45593999997E+02  0.45594000000E+02  0.51100000000E-03 0.  1.
         23    2    1    2    0    0  0.00000000000E+00  0.00000000000E+00 -0.35527136788E-14  0.91188000000E+02  0.91188000000E+02 0.  0.
    9900012    2    3    3    0    0 -0.27128522452E+02 -0.10636872842E+02  0.22509573803E+02  0.54367072430E+02  0.39999973219E+02 0.  0.
        -12    1    3    3    0    0  0.27128522452E+02  0.10636872842E+02 -0.22509573803E+02  0.36820927570E+02  0.00000000000E+00 0.  1.
         11    1    4    4    0    0 -0.27357833761E+02 -0.14915288181E+02  0.14831430398E+02  0.34509248290E+02  0.51100000000E-03 0. -1.
        -11    1    4    4    0    0 -0.23342030493E+01  0.87733921221E+01  0.10567083159E+02  0.13931409116E+02  0.51100000000E-03 0.  1.
         12    1    4    4    0    0  0.25635143578E+01 -0.44949767834E+01 -0.28889397539E+01  0.59264150249E+01  0.00000000000E+00 0. -1.
</event>
<event>
 8    1  0.2482403E-006  0.9118800E+02  0.7816164E-02  0.1184000E+00
        -11   -1    0    0    0    0  0.00000000000E+00  0.00000000000E+00  0.45593999997E+02  0.45594000000E+02  0.51100000000E-03 0. -1.
         11   -1    0    0    0    0 -0.00000000000E+00 -0.00000000000E+00 -0.45593999997E+02  0.45594000000E+02  0.51100000000E-03 0.  1.
         23    2    1    2    0    0 -0.17763568394E-14 -0.35527136788E-14  0.35527136788E-14  0.91188000000E+02  0.91188000000E+02 0.  0.
    9900012    2    3    3    0    0  0.14850723177E+02 -0.21155392452E+02 -0.26223769550E+02  0.54367072552E+02  0.39999973497E+02 0.  0.
         12    1    3    3    0    0 -0.14850723177E+02  0.21155392452E+02  0.26223769550E+02  0.36820927448E+02  0.00000000000E+00 0. -1.
         11    1    4    4    0    0 -0.89149865415E+01  0.51663809350E+00 -0.36650456012E+01  0.96527954228E+01  0.51100000000E-03 0. -1.
        -11    1    4    4    0    0  0.18147620792E+02 -0.22596217078E+02 -0.25230195990E+02  0.38425095402E+02  0.51100000000E-03 0.  1.
        -12    1    4    4    0    0  0.56180889268E+01  0.92418653229E+00  0.26714720416E+01  0.62891817278E+01  0.00000000000E+00 0.  1.
</event>
<event>
 8    1  0.2482403E-006  0.9118800E+02  0.7816164E-02  0.1184000E+00
        -11   -1    0    0    0    0  0.00000000000E+00  0.00000000000E+00  0.45593999997E+02  0.45594000000E+02  0.51100000000E-03 0.  1.
         11   -1    0    0    0    0 -0.00000000000E+00 -0.00000000000E+00 -0.45593999997E+02  0.45594000000E+02  0.51100000000E-03 0. -1.
         23    2    1    2    0    0  0.00000000000E+00  0.00000000000E+00  0.35527136788E-14  0.91188000000E+02  0.91188000000E+02 0.  0.
    9900012    2    3    3    0    0  0.26979530338E+02 -0.42027979980E+01 -0.24702664756E+02  0.54367079122E+02  0.39999988473E+02 0.  0.
        -12    1    3    3    0    0 -0.26979530338E+02  0.42027979980E+01  0.24702664756E+02  0.36820920878E+02  0.00000000000E+00 0.  1.
         11    1    4    4    0    0  0.11538631971E+02  0.55320406206E+00 -0.22750727957E+02  0.25515518519E+02  0.51100000000E-03 0. -1.
        -11    1    4    4    0    0  0.19797708001E+02 -0.14920238266E+01  0.45530314826E+01  0.20369228585E+02  0.51100000000E-03 0.  1.
         12    1    4    4    0    0 -0.43568096342E+01 -0.32639782334E+01 -0.65049682824E+01  0.84823320173E+01  0.00000000000E+00 0. -1.
</event>
<event>
 8    1  0.2482403E-006  0.9118800E+02  0.7816164E-02  0.1184000E+00
        -11   -1    0    0    0    0  0.00000000000E+00  0.00000000000E+00  0.45593999997E+02  0.45594000000E+02  0.51100000000E-03 0.  1.
         11   -1    0    0    0    0 -0.00000000000E+00 -0.00000000000E+00 -0.45593999997E+02  0.45594000000E+02  0.51100000000E-03 0. -1.
         23    2    1    2    0    0 -0.88817841970E-15  0.71054273576E-14  0.00000000000E+00  0.91188000000E+02  0.91188000000E+02 0.  0.
    9900012    2    3    3    0    0  0.67603274939E+01 -0.22677122380E+02 -0.28210384003E+02  0.54367086475E+02  0.40000005237E+02 0.  0.
        -12    1    3    3    0    0 -0.67603274939E+01  0.22677122380E+02  0.28210384003E+02  0.36820913525E+02  0.00000000000E+00 0.  1.
         11    1    4    4    0    0  0.47918443042E+01 -0.34658329012E+01  0.26684614281E+01  0.64880240589E+01  0.51100000000E-03 0. -1.
        -11    1    4    4    0    0  0.55891456980E+01  0.66323011671E+01 -0.18943344016E+01  0.88777514885E+01  0.51100000000E-03 0.  1.
         12    1    4    4    0    0 -0.36206625082E+01 -0.25843590645E+02 -0.28984511029E+02  0.39001310927E+02  0.00000000000E+00 0. -1.
</event>
<event>
 8    1  0.2482403E-006  0.9118800E+02  0.7816164E-02  0.1184000E+00
        -11   -1    0    0    0    0  0.00000000000E+00  0.00000000000E+00  0.45593999997E+02  0.45594000000E+02  0.51100000000E-03 0.  1.
         11   -1    0    0    0    0 -0.00000000000E+00 -0.00000000000E+00 -0.45593999997E+02  0.45594000000E+02  0.51100000000E-03 0. -1.
         23    2    1    2    0    0 -0.35527136788E-14 -0.35527136788E-14 -0.17763568394E-14  0.91188000000E+02  0.91188000000E+02 0.  0.
    9900012    2    3    3    0    0 -0.22387287711E+02  0.24617228849E+02  0.15766439261E+02  0.54367092703E+02  0.40000019434E+02 0.  0.
         12    1    3    3    0    0  0.22387287711E+02 -0.24617228849E+02 -0.15766439261E+02  0.36820907297E+02  0.00000000000E+00 0. -1.
         11    1    4    4    0    0 -0.14145032998E+02  0.69720598431E+01  0.10764639935E+01  0.15806655305E+02  0.51100000000E-03 0. -1.
        -11    1    4    4    0    0 -0.48265145763E+01  0.15613792578E+02  0.23656501746E+02  0.28752666602E+02  0.51100000000E-03 0.  1.
         12    1    4    4    0    0 -0.34157401370E+01  0.20313764282E+01 -0.89665264786E+01  0.98077707951E+01  0.00000000000E+00 0. -1.
</event>
<event>
 8    1  0.2482403E-006  0.9118800E+02  0.7816164E-02  0.1184000E+00
        -11   -1    0    0    0    0  0.00000000000E+00  0.00000000000E+00  0.45593999997E+02  0.45594000000E+02  0.51100000000E-03 0. -1.
         11   -1    0    0    0    0 -0.00000000000E+00 -0.00000000000E+00 -0.45593999997E+02  0.45594000000E+02  0.51100000000E-03 0.  1.
         23    2    1    2    0    0  0.00000000000E+00  0.35527136788E-14  0.00000000000E+00  0.91188000000E+02  0.91188000000E+02 0.  0.
    9900012    2    3    3    0    0  0.11274161480E+02 -0.24207796262E+02 -0.25350394707E+02  0.54367263604E+02  0.40000409036E+02 0.  0.
         12    1    3    3    0    0 -0.11274161480E+02  0.24207796262E+02  0.25350394707E+02  0.36820736396E+02  0.00000000000E+00 0. -1.
         11    1    4    4    0    0 -0.81678195916E+00 -0.97304146586E+01 -0.20107390497E+02  0.22352969715E+02  0.51100000000E-03 0. -1.
        -11    1    4    4    0    0  0.11486202415E+02 -0.19487255665E+02 -0.10313466983E+02  0.24860683433E+02  0.51100000000E-03 0.  1.
         12    1    4    4    0    0  0.60474102402E+00  0.50098740619E+01  0.50704627731E+01  0.71536104560E+01  0.00000000000E+00 0. -1.
</event>
<event>
 8    1  0.2482403E-006  0.9118800E+02  0.7816164E-02  0.1184000E+00
        -11   -1    0    0    0    0  0.00000000000E+00  0.00000000000E+00  0.45593999997E+02  0.45594000000E+02  0.51100000000E-03 0. -1.
         11   -1    0    0    0    0 -0.00000000000E+00 -0.00000000000E+00 -0.45593999997E+02  0.45594000000E+02  0.51100000000E-03 0.  1.
         23    2    1    2    0    0  0.88817841970E-15 -0.35527136788E-14 -0.71054273576E-14  0.91188000000E+02  0.91188000000E+02 0.  0.
    9900012    2    3    3    0    0 -0.15297771716E+01  0.27674229275E+02 -0.24239981882E+02  0.54367083311E+02  0.39999998024E+02 0.  0.
        -12    1    3    3    0    0  0.15297771716E+01 -0.27674229275E+02  0.24239981882E+02  0.36820916689E+02  0.00000000000E+00 0.  1.
         11    1    4    4    0    0 -0.83623586565E+01  0.14106509043E+02 -0.34366704019E+01  0.16755099027E+02  0.51100000000E-03 0. -1.
        -11    1    4    4    0    0 -0.63044826950E+01 -0.27520413568E+01  0.14696223734E+01  0.70342038542E+01  0.51100000000E-03 0.  1.
         12    1    4    4    0    0  0.13137064180E+02  0.16319761589E+02 -0.22272933854E+02  0.30577780430E+02  0.00000000000E+00 0. -1.
</event>
<event>
 8    1  0.2482403E-006  0.9118800E+02  0.7816164E-02  0.1184000E+00
        -11   -1    0    0    0    0  0.00000000000E+00  0.00000000000E+00  0.45593999997E+02  0.45594000000E+02  0.51100000000E-03 0. -1.
         11   -1    0    0    0    0 -0.00000000000E+00 -0.00000000000E+00 -0.45593999997E+02  0.45594000000E+02  0.51100000000E-03 0.  1.
         23    2    1    2    0    0  0.00000000000E+00  0.00000000000E+00  0.00000000000E+00  0.91188000000E+02  0.91188000000E+02 0.  0.
    9900012    2    3    3    0    0 -0.40779852487E+01  0.17339593537E+02  0.32225590921E+02  0.54367079616E+02  0.39999989602E+02 0.  0.
        -12    1    3    3    0    0  0.40779852487E+01 -0.17339593537E+02 -0.32225590921E+02  0.36820920384E+02  0.00000000000E+00 0.  1.
         11    1    4    4    0    0  0.50862540564E+01  0.21849261824E+02  0.22422780280E+02  0.31718154082E+02  0.51100000000E-03 0. -1.
        -11    1    4    4    0    0 -0.40555475302E+00  0.61364213553E+01  0.53796607061E+01  0.81707338276E+01  0.51100000000E-03 0.  1.
        -12    1    4    4    0    0 -0.87586845521E+01 -0.10646089643E+02  0.44231499341E+01  0.14478191707E+02  0.00000000000E+00 0.  1.
</event>
<event>
 8    1  0.2482403E-006  0.9118800E+02  0.7816164E-02  0.1184000E+00
        -11   -1    0    0    0    0  0.00000000000E+00  0.00000000000E+00  0.45593999997E+02  0.45594000000E+02  0.51100000000E-03 0. -1.
         11   -1    0    0    0    0 -0.00000000000E+00 -0.00000000000E+00 -0.45593999997E+02  0.45594000000E+02  0.51100000000E-03 0.  1.
         23    2    1    2    0    0  0.00000000000E+00  0.00000000000E+00  0.88817841970E-15  0.91188000000E+02  0.91188000000E+02 0.  0.
    9900012    2    3    3    0    0  0.35411291811E+02 -0.10067957330E+02 -0.67590531638E+00  0.54367079309E+02  0.39999988901E+02 0.  0.
        -12    1    3    3    0    0 -0.35411291811E+02  0.10067957330E+02  0.67590531638E+00  0.36820920691E+02  0.00000000000E+00 0.  1.
         11    1    4    4    0    0  0.26495199813E+02  0.67743510101E+01  0.72240542889E+01  0.28285586530E+02  0.51100000000E-03 0. -1.
        -11    1    4    4    0    0  0.12664250467E+01 -0.10817367621E+02  0.31652570279E+01  0.11341874932E+02  0.51100000000E-03 0.  1.
        -12    1    4    4    0    0  0.76496669517E+01 -0.60249407185E+01 -0.11065216633E+02  0.14739617847E+02  0.00000000000E+00 0.  1.
</event>
<event>
 8    1  0.2482403E-006  0.9118800E+02  0.7816164E-02  0.1184000E+00
        -11   -1    0    0    0    0  0.00000000000E+00  0.00000000000E+00  0.45593999997E+02  0.45594000000E+02  0.51100000000E-03 0.  1.
         11   -1    0    0    0    0 -0.00000000000E+00 -0.00000000000E+00 -0.45593999997E+02  0.45594000000E+02  0.51100000000E-03 0. -1.
         23    2    1    2    0    0  0.00000000000E+00  0.00000000000E+00 -0.35527136788E-14  0.91188000000E+02  0.91188000000E+02 0.  0.
    9900012    2    3    3    0    0 -0.10574536973E+02 -0.17212978315E+02  0.30784286297E+02  0.54367085597E+02  0.40000003235E+02 0.  0.
         12    1    3    3    0    0  0.10574536973E+02  0.17212978315E+02 -0.30784286297E+02  0.36820914403E+02  0.00000000000E+00 0. -1.
         11    1    4    4    0    0 -0.15587731012E+02 -0.11839237026E+02  0.27930641800E+01  0.19772356947E+02  0.51100000000E-03 0. -1.
        -11    1    4    4    0    0  0.64056201936E+01 -0.11971852561E+02  0.19161379759E+02  0.23484371364E+02  0.51100000000E-03 0.  1.
        -12    1    4    4    0    0 -0.13924261545E+01  0.65981112726E+01  0.88298423576E+01  0.11110357286E+02  0.00000000000E+00 0.  1.
</event>
<event>
 8    1  0.2482403E-006  0.9118800E+02  0.7816164E-02  0.1184000E+00
        -11   -1    0    0    0    0  0.00000000000E+00  0.00000000000E+00  0.45593999997E+02  0.45594000000E+02  0.51100000000E-03 0.  1.
         11   -1    0    0    0    0 -0.00000000000E+00 -0.00000000000E+00 -0.45593999997E+02  0.45594000000E+02  0.51100000000E-03 0. -1.
         23    2    1    2    0    0  0.00000000000E+00 -0.88817841970E-15  0.00000000000E+00  0.91188000000E+02  0.91188000000E+02 0.  0.
    9900012    2    3    3    0    0 -0.23722724954E+02 -0.45291019307E+01  0.27793870547E+02  0.54367086330E+02  0.40000004906E+02 0.  0.
         12    1    3    3    0    0  0.23722724954E+02  0.45291019307E+01 -0.27793870547E+02  0.36820913670E+02  0.00000000000E+00 0. -1.
         11    1    4    4    0    0 -0.57217062179E+01  0.11400002676E+00  0.20753605641E+02  0.21528192340E+02  0.51100000000E-03 0. -1.
        -11    1    4    4    0    0 -0.10188241691E+02  0.82023089461E+01  0.11221342369E+02  0.17233591199E+02  0.51100000000E-03 0.  1.
         12    1    4    4    0    0 -0.78127770450E+01 -0.12845410904E+02 -0.41810774632E+01  0.15605302791E+02  0.00000000000E+00 0. -1.
</event>
<event>
 8    1  0.2482403E-006  0.9118800E+02  0.7816164E-02  0.1184000E+00
        -11   -1    0    0    0    0  0.00000000000E+00  0.00000000000E+00  0.45593999997E+02  0.45594000000E+02  0.51100000000E-03 0.  1.
         11   -1    0    0    0    0 -0.00000000000E+00 -0.00000000000E+00 -0.45593999997E+02  0.45594000000E+02  0.51100000000E-03 0. -1.
         23    2    1    2    0    0  0.00000000000E+00 -0.26367796835E-14 -0.35527136788E-14  0.91188000000E+02  0.91188000000E+02 0.  0.
    9900012    2    3    3    0    0  0.28390147661E+02 -0.20136566689E+00  0.23446529994E+02  0.54367071153E+02  0.39999970308E+02 0.  0.
         12    1    3    3    0    0 -0.28390147661E+02  0.20136566689E+00 -0.23446529994E+02  0.36820928847E+02  0.00000000000E+00 0. -1.
         11    1    4    4    0    0  0.19722782732E+02 -0.12149821624E+02  0.99309053760E+01  0.25203753809E+02  0.51100000000E-03 0. -1.
        -11    1    4    4    0    0  0.13199817863E+02  0.14490686577E+01  0.11467733505E+02  0.17545481002E+02  0.51100000000E-03 0.  1.
         12    1    4    4    0    0 -0.45324529335E+01  0.10499387300E+02  0.20478911132E+01  0.11617836342E+02  0.00000000000E+00 0. -1.
</event>
<event>
 8    1  0.2482403E-006  0.9118800E+02  0.7816164E-02  0.1184000E+00
        -11   -1    0    0    0    0  0.00000000000E+00  0.00000000000E+00  0.45593999997E+02  0.45594000000E+02  0.51100000000E-03 0. -1.
         11   -1    0    0    0    0 -0.00000000000E+00 -0.00000000000E+00 -0.45593999997E+02  0.45594000000E+02  0.51100000000E-03 0.  1.
         23    2    1    2    0    0  0.00000000000E+00 -0.17763568394E-14  0.00000000000E+00  0.91188000000E+02  0.91188000000E+02 0.  0.
    9900012    2    3    3    0    0  0.35184561465E+02 -0.35985294157E+01  0.10241039631E+02  0.54367059325E+02  0.39999943344E+02 0.  0.
        -12    1    3    3    0    0 -0.35184561465E+02  0.35985294157E+01 -0.10241039631E+02  0.36820940675E+02  0.00000000000E+00 0.  1.
         11    1    4    4    0    0  0.84452247888E+01 -0.78880814043E+01 -0.14104791525E+01  0.11641868479E+02  0.51100000000E-03 0. -1.
        -11    1    4    4    0    0  0.47419509682E+00  0.13138481830E+02  0.59420926358E+01  0.14427509520E+02  0.51100000000E-03 0.  1.
        -12    1    4    4    0    0  0.26265141579E+02 -0.88489298418E+01  0.57094261482E+01  0.28297681327E+02  0.00000000000E+00 0.  1.
</event>
<event>
 8    1  0.2482403E-006  0.9118800E+02  0.7816164E-02  0.1184000E+00
        -11   -1    0    0    0    0  0.00000000000E+00  0.00000000000E+00  0.45593999997E+02  0.45594000000E+02  0.51100000000E-03 0.  1.
         11   -1    0    0    0    0 -0.00000000000E+00 -0.00000000000E+00 -0.45593999997E+02  0.45594000000E+02  0.51100000000E-03 0. -1.
         23    2    1    2    0    0  0.00000000000E+00  0.88817841970E-15  0.17763568394E-14  0.91188000000E+02  0.91188000000E+02 0.  0.
    9900012    2    3    3    0    0  0.35171033581E+02 -0.62365089234E+01  0.89378556831E+01  0.54367069662E+02  0.39999966909E+02 0.  0.
        -12    1    3    3    0    0 -0.35171033581E+02  0.62365089234E+01 -0.89378556831E+01  0.36820930338E+02  0.00000000000E+00 0.  1.
         11    1    4    4    0    0  0.10361453133E+01 -0.38499240972E+01  0.40641068204E+00  0.40075781425E+01  0.51100000000E-03 0. -1.
        -11    1    4    4    0    0  0.27425881861E+01  0.13074142679E+02 -0.26589254682E+01  0.13620751876E+02  0.51100000000E-03 0.  1.
        -12    1    4    4    0    0  0.31392300082E+02 -0.15460727505E+02  0.11190370469E+02  0.36738739644E+02  0.00000000000E+00 0.  1.
</event>
<event>
 8    1  0.2482403E-006  0.9118800E+02  0.7816164E-02  0.1184000E+00
        -11   -1    0    0    0    0  0.00000000000E+00  0.00000000000E+00  0.45593999997E+02  0.45594000000E+02  0.51100000000E-03 0.  1.
         11   -1    0    0    0    0 -0.00000000000E+00 -0.00000000000E+00 -0.45593999997E+02  0.45594000000E+02  0.51100000000E-03 0. -1.
         23    2    1    2    0    0 -0.17763568394E-14 -0.35527136788E-14  0.35527136788E-14  0.91188000000E+02  0.91188000000E+02 0.  0.
    9900012    2    3    3    0    0 -0.13639607481E+02  0.30485093833E+02  0.15504881832E+02  0.54367065753E+02  0.39999957996E+02 0.  0.
        -12    1    3    3    0    0  0.13639607481E+02 -0.30485093833E+02 -0.15504881832E+02  0.36820934247E+02  0.00000000000E+00 0.  1.
         11    1    4    4    0    0  0.12735665955E-01 -0.50051665314E+01 -0.18938922820E+01  0.53515121640E+01  0.51100000000E-03 0. -1.
        -11    1    4    4    0    0 -0.10974488471E+02  0.78902720511E+00  0.36215798460E+01  0.11583514233E+02  0.51100000000E-03 0.  1.
         12    1    4    4    0    0 -0.26778546755E+01  0.34701233159E+02  0.13777194268E+02  0.37432039356E+02  0.00000000000E+00 0. -1.
</event>
<event>
 8    1  0.2482403E-006  0.9118800E+02  0.7816164E-02  0.1184000E+00
        -11   -1    0    0    0    0  0.00000000000E+00  0.00000000000E+00  0.45593999997E+02  0.45594000000E+02  0.51100000000E-03 0.  1.
         11   -1    0    0    0    0 -0.00000000000E+00 -0.00000000000E+00 -0.45593999997E+02  0.45594000000E+02  0.51100000000E-03 0. -1.
         23    2    1    2    0    0  0.88817841970E-15  0.00000000000E+00 -0.71054273576E-14  0.91188000000E+02  0.91188000000E+02 0.  0.
    9900012    2    3    3    0    0 -0.97731664158E+00  0.98673961647E+01 -0.35460666016E+02  0.54367088968E+02  0.40000010921E+02 0.  0.
        -12    1    3    3    0    0  0.97731664158E+00 -0.98673961647E+01  0.35460666016E+02  0.36820911032E+02  0.00000000000E+00 0.  1.
         11    1    4    4    0    0 -0.57032695175E+01  0.79520074656E+01 -0.11736173450E+02  0.15280689560E+02  0.51100000000E-03 0. -1.
        -11    1    4    4    0    0  0.16904638958E+02  0.10206054754E+01 -0.68763406809E+01  0.18278197812E+02  0.51100000000E-03 0.  1.
        -12    1    4    4    0    0 -0.12178686082E+02  0.89478322374E+00 -0.16848151885E+02  0.20808201596E+02  0.00000000000E+00 0.  1.
</event>
<event>
 8    1  0.2482403E-006  0.9118800E+02  0.7816164E-02  0.1184000E+00
        -11   -1    0    0    0    0  0.00000000000E+00  0.00000000000E+00  0.45593999997E+02  0.45594000000E+02  0.51100000000E-03 0. -1.
         11   -1    0    0    0    0 -0.00000000000E+00 -0.00000000000E+00 -0.45593999997E+02  0.45594000000E+02  0.51100000000E-03 0.  1.
         23    2    1    2    0    0  0.00000000000E+00 -0.11102230246E-14  0.00000000000E+00  0.91188000000E+02  0.91188000000E+02 0.  0.
    9900012    2    3    3    0    0 -0.31456867992E+02  0.15284377772E+01  0.19076336010E+02  0.54367119220E+02  0.40000079885E+02 0.  0.
        -12    1    3    3    0    0  0.31456867992E+02 -0.15284377772E+01 -0.19076336010E+02  0.36820880780E+02  0.00000000000E+00 0.  1.
         11    1    4    4    0    0 -0.41999532069E+01  0.90641058134E+01  0.13152853336E+02  0.16516512110E+02  0.51100000000E-03 0. -1.
        -11    1    4    4    0    0 -0.17658154833E+02  0.69363421551E+01  0.75281771490E+01  0.20410701263E+02  0.51100000000E-03 0.  1.
        -12    1    4    4    0    0 -0.95987599519E+01 -0.14472010191E+02 -0.16046944749E+01  0.17439905847E+02  0.00000000000E+00 0.  1.
</event>
<event>
 8    1  0.2482403E-006  0.9118800E+02  0.7816164E-02  0.1184000E+00
        -11   -1    0    0    0    0  0.00000000000E+00  0.00000000000E+00  0.45593999997E+02  0.45594000000E+02  0.51100000000E-03 0. -1.
         11   -1    0    0    0    0 -0.00000000000E+00 -0.00000000000E+00 -0.45593999997E+02  0.45594000000E+02  0.51100000000E-03 0.  1.
         23    2    1    2    0    0  0.00000000000E+00 -0.35527136788E-14  0.00000000000E+00  0.91188000000E+02  0.91188000000E+02 0.  0.
    9900012    2    3    3    0    0 -0.26655728224E+02 -0.21463642944E+02 -0.13585448314E+02  0.54367079025E+02  0.39999988252E+02 0.  0.
         12    1    3    3    0    0  0.26655728224E+02  0.21463642944E+02  0.13585448314E+02  0.36820920975E+02  0.00000000000E+00 0. -1.
         11    1    4    4    0    0 -0.24396166367E+01  0.27762969969E+01 -0.17100609594E+01  0.40723289522E+01  0.51100000000E-03 0. -1.
        -11    1    4    4    0    0 -0.32823186358E+02 -0.15126804457E+02 -0.68223888327E+01  0.36779434000E+02  0.51100000000E-03 0.  1.
        -12    1    4    4    0    0  0.86070747704E+01 -0.91131354846E+01 -0.50529985221E+01  0.13515316072E+02  0.00000000000E+00 0.  1.
</event>
<event>
 8    1  0.2482403E-006  0.9118800E+02  0.7816164E-02  0.1184000E+00
        -11   -1    0    0    0    0  0.00000000000E+00  0.00000000000E+00  0.45593999997E+02  0.45594000000E+02  0.51100000000E-03 0.  1.
         11   -1    0    0    0    0 -0.00000000000E+00 -0.00000000000E+00 -0.45593999997E+02  0.45594000000E+02  0.51100000000E-03 0. -1.
         23    2    1    2    0    0  0.17763568394E-14  0.17763568394E-14  0.00000000000E+00  0.91188000000E+02  0.91188000000E+02 0.  0.
    9900012    2    3    3    0    0  0.12654484749E+02 -0.12396167763E+02 -0.32279711452E+02  0.54367072107E+02  0.39999972483E+02 0.  0.
        -12    1    3    3    0    0 -0.12654484749E+02  0.12396167763E+02  0.32279711452E+02  0.36820927893E+02  0.00000000000E+00 0.  1.
         11    1    4    4    0    0  0.15154691449E+02 -0.82011510331E+01 -0.87872230886E+01  0.19342668923E+02  0.51100000000E-03 0. -1.
        -11    1    4    4    0    0  0.71144646301E+01  0.28419694208E+01  0.10595751739E+01  0.77340220436E+01  0.51100000000E-03 0.  1.
        -12    1    4    4    0    0 -0.96146713308E+01 -0.70369861508E+01 -0.24552063537E+02  0.27290381141E+02  0.00000000000E+00 0.  1.
</event>
<event>
 8    1  0.2482403E-006  0.9118800E+02  0.7816164E-02  0.1184000E+00
        -11   -1    0    0    0    0  0.00000000000E+00  0.00000000000E+00  0.45593999997E+02  0.45594000000E+02  0.51100000000E-03 0.  1.
         11   -1    0    0    0    0 -0.00000000000E+00 -0.00000000000E+00 -0.45593999997E+02  0.45594000000E+02  0.51100000000E-03 0. -1.
         23    2    1    2    0    0  0.00000000000E+00  0.00000000000E+00  0.00000000000E+00  0.91188000000E+02  0.91188000000E+02 0.  0.
    9900012    2    3    3    0    0 -0.34287807358E+02 -0.11062283904E+02  0.75994331040E+01  0.54367092324E+02  0.40000018571E+02 0.  0.
         12    1    3    3    0    0  0.34287807358E+02  0.11062283904E+02 -0.75994331040E+01  0.36820907676E+02  0.00000000000E+00 0. -1.
         11    1    4    4    0    0 -0.19118807567E+02  0.11162458608E+02  0.16462155648E+01  0.22199984480E+02  0.51100000000E-03 0. -1.
        -11    1    4    4    0    0 -0.21195837153E+01 -0.12460468174E+02  0.90915539039E+01  0.15569593922E+02  0.51100000000E-03 0.  1.
        -12    1    4    4    0    0 -0.13049416076E+02 -0.97642743374E+01 -0.31383363648E+01  0.16597513922E+02  0.00000000000E+00 0.  1.
</event>
<event>
 8    1  0.2482403E-006  0.9118800E+02  0.7816164E-02  0.1184000E+00
        -11   -1    0    0    0    0  0.00000000000E+00  0.00000000000E+00  0.45593999997E+02  0.45594000000E+02  0.51100000000E-03 0. -1.
         11   -1    0    0    0    0 -0.00000000000E+00 -0.00000000000E+00 -0.45593999997E+02  0.45594000000E+02  0.51100000000E-03 0.  1.
         23    2    1    2    0    0  0.00000000000E+00  0.00000000000E+00 -0.35527136788E-14  0.91188000000E+02  0.91188000000E+02 0.  0.
    9900012    2    3    3    0    0  0.18882731385E+02  0.16266080606E+02 -0.27104213776E+02  0.54367064008E+02  0.39999954020E+02 0.  0.
         12    1    3    3    0    0 -0.18882731385E+02 -0.16266080606E+02  0.27104213776E+02  0.36820935992E+02  0.00000000000E+00 0. -1.
         11    1    4    4    0    0  0.11716749785E+02  0.99950169193E+01 -0.24462782404E+01  0.15593808586E+02  0.51100000000E-03 0. -1.
        -11    1    4    4    0    0 -0.42242117776E+01  0.61632913925E+01 -0.26230997286E+02  0.27274444904E+02  0.51100000000E-03 0.  1.
         12    1    4    4    0    0  0.11390193378E+02  0.10777229436E+00  0.15730617500E+01  0.11498810518E+02  0.00000000000E+00 0. -1.
</event>
<event>
 8    1  0.2482403E-006  0.9118800E+02  0.7816164E-02  0.1184000E+00
        -11   -1    0    0    0    0  0.00000000000E+00  0.00000000000E+00  0.45593999997E+02  0.45594000000E+02  0.51100000000E-03 0.  1.
         11   -1    0    0    0    0 -0.00000000000E+00 -0.00000000000E+00 -0.45593999997E+02  0.45594000000E+02  0.51100000000E-03 0. -1.
         23    2    1    2    0    0  0.00000000000E+00  0.00000000000E+00 -0.35527136788E-14  0.91188000000E+02  0.91188000000E+02 0.  0.
    9900012    2    3    3    0    0  0.14601364448E+02  0.17647894921E+02  0.28829269383E+02  0.54367152481E+02  0.40000155709E+02 0.  0.
         12    1    3    3    0    0 -0.14601364448E+02 -0.17647894921E+02 -0.28829269383E+02  0.36820847519E+02  0.00000000000E+00 0. -1.
         11    1    4    4    0    0 -0.65301563174E+01 -0.20308909249E+01  0.13263104960E+02  0.14922379599E+02  0.51100000000E-03 0.  1.
        -11    1    4    4    0    0 -0.99427371369E+00 -0.32573858034E+01 -0.97006854085E+00  0.35412110534E+01  0.51100000000E-03 0. -1.
        -12    1    4    4    0    0  0.22125794479E+02  0.22936171650E+02  0.16536232964E+02  0.35903561828E+02  0.00000000000E+00 0.  1.
</event>
<event>
 8    1  0.2482403E-006  0.9118800E+02  0.7816164E-02  0.1184000E+00
        -11   -1    0    0    0    0  0.00000000000E+00  0.00000000000E+00  0.45593999997E+02  0.45594000000E+02  0.51100000000E-03 0. -1.
         11   -1    0    0    0    0 -0.00000000000E+00 -0.00000000000E+00 -0.45593999997E+02  0.45594000000E+02  0.51100000000E-03 0.  1.
         23    2    1    2    0    0 -0.44408920985E-15  0.71054273576E-14  0.00000000000E+00  0.91188000000E+02  0.91188000000E+02 0.  0.
    9900012    2    3    3    0    0  0.27551448507E+01  0.34537125940E+02  0.12464988363E+02  0.54367084392E+02  0.40000000489E+02 0.  0.
        -12    1    3    3    0    0 -0.27551448507E+01 -0.34537125940E+02 -0.12464988363E+02  0.36820915608E+02  0.00000000000E+00 0.  1.
         11    1    4    4    0    0  0.11981867535E+02  0.24419196789E+02  0.15248736649E+02  0.31183109067E+02  0.51100000000E-03 0. -1.
        -11    1    4    4    0    0 -0.14154834066E+02  0.45267315927E+01  0.86403084108E+00  0.14886140397E+02  0.51100000000E-03 0.  1.
        -12    1    4    4    0    0  0.49281113826E+01  0.55911975581E+01 -0.36477791275E+01  0.82978349282E+01  0.00000000000E+00 0.  1.
</event>
<event>
 8    1  0.2482403E-006  0.9118800E+02  0.7816164E-02  0.1184000E+00
        -11   -1    0    0    0    0  0.00000000000E+00  0.00000000000E+00  0.45593999997E+02  0.45594000000E+02  0.51100000000E-03 0.  1.
         11   -1    0    0    0    0 -0.00000000000E+00 -0.00000000000E+00 -0.45593999997E+02  0.45594000000E+02  0.51100000000E-03 0. -1.
         23    2    1    2    0    0  0.00000000000E+00  0.00000000000E+00  0.35527136788E-14  0.91188000000E+02  0.91188000000E+02 0.  0.
    9900012    2    3    3    0    0 -0.19605522493E+02  0.50940261443E+01 -0.30748259183E+02  0.54367067673E+02  0.39999962375E+02 0.  0.
        -12    1    3    3    0    0  0.19605522493E+02 -0.50940261443E+01  0.30748259183E+02  0.36820932327E+02  0.00000000000E+00 0.  1.
         11    1    4    4    0    0  0.65328113800E+01 -0.66616262402E+00 -0.20297879416E+02  0.21333666029E+02  0.51100000000E-03 0. -1.
        -11    1    4    4    0    0 -0.13199366840E+02 -0.52969235248E+01 -0.60359184275E+01  0.15450339651E+02  0.51100000000E-03 0.  1.
        -12    1    4    4    0    0 -0.12938967034E+02  0.11057112293E+02 -0.44144613396E+01  0.17583061994E+02  0.00000000000E+00 0.  1.
</event>
<event>
 8    1  0.2482403E-006  0.9118800E+02  0.7816164E-02  0.1184000E+00
        -11   -1    0    0    0    0  0.00000000000E+00  0.00000000000E+00  0.45593999997E+02  0.45594000000E+02  0.51100000000E-03 0. -1.
         11   -1    0    0    0    0 -0.00000000000E+00 -0.00000000000E+00 -0.45593999997E+02  0.45594000000E+02  0.51100000000E-03 0.  1.
         23    2    1    2    0    0  0.00000000000E+00 -0.13322676296E-14  0.71054273576E-14  0.91188000000E+02  0.91188000000E+02 0.  0.
    9900012    2    3    3    0    0 -0.17571972907E+02  0.30049828170E+01 -0.32217657114E+02  0.54367060530E+02  0.39999946089E+02 0.  0.
         12    1    3    3    0    0  0.17571972907E+02 -0.30049828170E+01  0.32217657114E+02  0.36820939470E+02  0.00000000000E+00 0. -1.
         11    1    4    4    0    0 -0.52228519334E+01  0.57527625106E+01  0.24065960839E+01  0.81341357128E+01  0.51100000000E-03 0. -1.
        -11    1    4    4    0    0 -0.14515556082E+02 -0.89115334739E+01 -0.79985833084E+01  0.18817389097E+02  0.51100000000E-03 0.  1.
         12    1    4    4    0    0  0.21664351089E+01  0.61637537803E+01 -0.26625669889E+02  0.27415535720E+02  0.00000000000E+00 0. -1.
</event>
<event>
 8    1  0.2482403E-006  0.9118800E+02  0.7816164E-02  0.1184000E+00
        -11   -1    0    0    0    0  0.00000000000E+00  0.00000000000E+00  0.45593999997E+02  0.45594000000E+02  0.51100000000E-03 0. -1.
         11   -1    0    0    0    0 -0.00000000000E+00 -0.00000000000E+00 -0.45593999997E+02  0.45594000000E+02  0.51100000000E-03 0.  1.
         23    2    1    2    0    0  0.35527136788E-14  0.71054273576E-14  0.17763568394E-14  0.91188000000E+02  0.91188000000E+02 0.  0.
    9900012    2    3    3    0    0  0.99695499048E+01 -0.34150146291E+02  0.94950409712E+01  0.54367079044E+02  0.39999988296E+02 0.  0.
        -12    1    3    3    0    0 -0.99695499048E+01  0.34150146291E+02 -0.94950409712E+01  0.36820920956E+02  0.00000000000E+00 0.  1.
         11    1    4    4    0    0 -0.26718926605E+01 -0.15860612428E+02  0.63835563358E+01  0.17304560923E+02  0.51100000000E-03 0. -1.
        -11    1    4    4    0    0 -0.75105711095E+01 -0.10141200645E+01 -0.52659734205E+01  0.92286290544E+01  0.51100000000E-03 0.  1.
        -12    1    4    4    0    0  0.20152013675E+02 -0.17275413799E+02  0.83774580558E+01  0.27833889066E+02  0.00000000000E+00 0.  1.
</event>
<event>
 8    1  0.2482403E-006  0.9118800E+02  0.7816164E-02  0.1184000E+00
        -11   -1    0    0    0    0  0.00000000000E+00  0.00000000000E+00  0.45593999997E+02  0.45594000000E+02  0.51100000000E-03 0.  1.
         11   -1    0    0    0    0 -0.00000000000E+00 -0.00000000000E+00 -0.45593999997E+02  0.45594000000E+02  0.51100000000E-03 0. -1.
         23    2    1    2    0    0  0.00000000000E+00  0.00000000000E+00  0.88817841970E-15  0.91188000000E+02  0.91188000000E+02 0.  0.
    9900012    2    3    3    0    0  0.89515776224E+01  0.35267454049E+02  0.56440693469E+01  0.54367087792E+02  0.40000008239E+02 0.  0.
         12    1    3    3    0    0 -0.89515776224E+01 -0.35267454049E+02 -0.56440693469E+01  0.36820912208E+02  0.00000000000E+00 0. -1.
         11    1    4    4    0    0  0.10061500496E+02 -0.97375886838E+00  0.32407143679E+01  0.10615282777E+02  0.51100000000E-03 0. -1.
        -11    1    4    4    0    0  0.19912345927E+01  0.37238837309E+02 -0.30318678026E+01  0.37415080408E+02  0.51100000000E-03 0.  1.
         12    1    4    4    0    0 -0.31011574662E+01 -0.99762439075E+00  0.54352227816E+01  0.63367246067E+01  0.00000000000E+00 0. -1.
</event>
<event>
 8    1  0.2482403E-006  0.9118800E+02  0.7816164E-02  0.1184000E+00
        -11   -1    0    0    0    0  0.00000000000E+00  0.00000000000E+00  0.45593999997E+02  0.45594000000E+02  0.51100000000E-03 0.  1.
         11   -1    0    0    0    0 -0.00000000000E+00 -0.00000000000E+00 -0.45593999997E+02  0.45594000000E+02  0.51100000000E-03 0. -1.
         23    2    1    2    0    0 -0.17763568394E-14  0.00000000000E+00  0.35527136788E-14  0.91188000000E+02  0.91188000000E+02 0.  0.
    9900012    2    3    3    0    0 -0.11801436685E+02  0.24251268752E+02  0.25067536581E+02  0.54367091074E+02  0.40000015721E+02 0.  0.
         12    1    3    3    0    0  0.11801436685E+02 -0.24251268752E+02 -0.25067536581E+02  0.36820908926E+02  0.00000000000E+00 0. -1.
         11    1    4    4    0    0 -0.79773691073E+01  0.12157019520E+02  0.75533336627E+01  0.16385493314E+02  0.51100000000E-03 0. -1.
        -11    1    4    4    0    0 -0.56802335990E+01  0.16166181142E+02  0.24372100231E+02  0.29792779937E+02  0.51100000000E-03 0.  1.
         12    1    4    4    0    0  0.18561660208E+01 -0.40719319092E+01 -0.68578973132E+01  0.81888178224E+01  0.00000000000E+00 0. -1.
</event>
<event>
 8    1  0.2482403E-006  0.9118800E+02  0.7816164E-02  0.1184000E+00
        -11   -1    0    0    0    0  0.00000000000E+00  0.00000000000E+00  0.45593999997E+02  0.45594000000E+02  0.51100000000E-03 0.  1.
         11   -1    0    0    0    0 -0.00000000000E+00 -0.00000000000E+00 -0.45593999997E+02  0.45594000000E+02  0.51100000000E-03 0. -1.
         23    2    1    2    0    0  0.00000000000E+00  0.88817841970E-15  0.00000000000E+00  0.91188000000E+02  0.91188000000E+02 0.  0.
    9900012    2    3    3    0    0 -0.99738297618E+01 -0.62353064699E+01  0.34891603183E+02  0.54367077965E+02  0.39999985836E+02 0.  0.
         12    1    3    3    0    0  0.99738297618E+01  0.62353064699E+01 -0.34891603183E+02  0.36820922035E+02  0.00000000000E+00 0. -1.
         11    1    4    4    0    0  0.63730526474E+01  0.63793782070E+01 -0.16740632185E+01  0.91714096123E+01  0.51100000000E-03 0. -1.
        -11    1    4    4    0    0 -0.20056240634E+01 -0.72071695829E+01  0.24712892380E+02  0.25820396420E+02  0.51100000000E-03 0.  1.
        -12    1    4    4    0    0 -0.14341258346E+02 -0.54075150940E+01  0.11852774022E+02  0.19375271932E+02  0.00000000000E+00 0.  1.
</event>
<event>
 8    1  0.2482403E-006  0.9118800E+02  0.7816164E-02  0.1184000E+00
        -11   -1    0    0    0    0  0.00000000000E+00  0.00000000000E+00  0.45593999997E+02  0.45594000000E+02  0.51100000000E-03 0. -1.
         11   -1    0    0    0    0 -0.00000000000E+00 -0.00000000000E+00 -0.45593999997E+02  0.45594000000E+02  0.51100000000E-03 0.  1.
         23    2    1    2    0    0 -0.19428902931E-15 -0.17763568394E-14  0.71054273576E-14  0.91188000000E+02  0.91188000000E+02 0.  0.
    9900012    2    3    3    0    0 -0.57545536063E-01  0.12742671401E+02  0.34545638839E+02  0.54367080013E+02  0.39999990505E+02 0.  0.
        -12    1    3    3    0    0  0.57545536063E-01 -0.12742671401E+02 -0.34545638839E+02  0.36820919987E+02  0.00000000000E+00 0.  1.
         11    1    4    4    0    0 -0.50276582406E+01 -0.39043597948E+01  0.27212001870E+02  0.27946635196E+02  0.51100000000E-03 0. -1.
        -11    1    4    4    0    0 -0.30240359263E+01 -0.98421160455E+00 -0.30895807468E+01  0.44338442934E+01  0.51100000000E-03 0.  1.
        -12    1    4    4    0    0  0.79941486309E+01  0.17631242800E+02  0.10423217716E+02  0.21986600523E+02  0.00000000000E+00 0.  1.
</event>
<event>
 8    1  0.2482403E-006  0.9118800E+02  0.7816164E-02  0.1184000E+00
        -11   -1    0    0    0    0  0.00000000000E+00  0.00000000000E+00  0.45593999997E+02  0.45594000000E+02  0.51100000000E-03 0.  1.
         11   -1    0    0    0    0 -0.00000000000E+00 -0.00000000000E+00 -0.45593999997E+02  0.45594000000E+02  0.51100000000E-03 0. -1.
         23    2    1    2    0    0  0.00000000000E+00 -0.71054273576E-14  0.88817841970E-15  0.91188000000E+02  0.91188000000E+02 0.  0.
    9900012    2    3    3    0    0  0.16935692790E+02 -0.32081339182E+02  0.63047952690E+01  0.54367075821E+02  0.39999980949E+02 0.  0.
         12    1    3    3    0    0 -0.16935692790E+02  0.32081339182E+02 -0.63047952690E+01  0.36820924179E+02  0.00000000000E+00 0. -1.
         11    1    4    4    0    0 -0.90307409062E+00 -0.20639557618E+02  0.11133329020E+02  0.23468231650E+02  0.51100000000E-03 0. -1.
        -11    1    4    4    0    0  0.89076322424E+01  0.60531322824E+01 -0.29504044130E+01  0.11166521798E+02  0.51100000000E-03 0.  1.
        -12    1    4    4    0    0  0.89311346379E+01 -0.17494913847E+02 -0.18781293378E+01  0.19732322373E+02  0.00000000000E+00 0.  1.
</event>
<event>
 8    1  0.2482403E-006  0.9118800E+02  0.7816164E-02  0.1184000E+00
        -11   -1    0    0    0    0  0.00000000000E+00  0.00000000000E+00  0.45593999997E+02  0.45594000000E+02  0.51100000000E-03 0.  1.
         11   -1    0    0    0    0 -0.00000000000E+00 -0.00000000000E+00 -0.45593999997E+02  0.45594000000E+02  0.51100000000E-03 0. -1.
         23    2    1    2    0    0  0.35527136788E-14  0.00000000000E+00  0.17763568394E-14  0.91188000000E+02  0.91188000000E+02 0.  0.
    9900012    2    3    3    0    0 -0.20880697464E+02 -0.30321135264E+02  0.63678619867E+00  0.54367078407E+02  0.39999986845E+02 0.  0.
        -12    1    3    3    0    0  0.20880697464E+02  0.30321135264E+02 -0.63678619867E+00  0.36820921593E+02  0.00000000000E+00 0.  1.
         11    1    4    4    0    0 -0.20383027845E+02 -0.19848146961E+02  0.92285263699E+01  0.29909571396E+02  0.51100000000E-03 0. -1.
        -11    1    4    4    0    0 -0.62898420396E+01  0.42005581278E+00 -0.10225587086E+02  0.12012543081E+02  0.51100000000E-03 0.  1.
         12    1    4    4    0    0  0.57921724202E+01 -0.10893044116E+02  0.16338469147E+01  0.12444963929E+02  0.00000000000E+00 0. -1.
</event>
<event>
 8    1  0.2482403E-006  0.9118800E+02  0.7816164E-02  0.1184000E+00
        -11   -1    0    0    0    0  0.00000000000E+00  0.00000000000E+00  0.45593999997E+02  0.45594000000E+02  0.51100000000E-03 0.  1.
         11   -1    0    0    0    0 -0.00000000000E+00 -0.00000000000E+00 -0.45593999997E+02  0.45594000000E+02  0.51100000000E-03 0. -1.
         23    2    1    2    0    0  0.88817841970E-15  0.17763568394E-14  0.00000000000E+00  0.91188000000E+02  0.91188000000E+02 0.  0.
    9900012    2    3    3    0    0 -0.46124153397E+01  0.11860649991E+02  0.34551857260E+02  0.54367078860E+02  0.39999987877E+02 0.  0.
         12    1    3    3    0    0  0.46124153397E+01 -0.11860649991E+02 -0.34551857260E+02  0.36820921140E+02  0.00000000000E+00 0. -1.
         11    1    4    4    0    0  0.43241548238E+01  0.12138098211E+02  0.20171432798E+02  0.23935714832E+02  0.51100000000E-03 0.  1.
        -11    1    4    4    0    0 -0.11565251923E+02  0.19285617207E+01  0.20384370517E+02  0.23515887481E+02  0.51100000000E-03 0. -1.
         12    1    4    4    0    0  0.26286817599E+01 -0.22060099404E+01 -0.60039460547E+01  0.69154765476E+01  0.00000000000E+00 0. -1.
</event>
<event>
 8    1  0.2482403E-006  0.9118800E+02  0.7816164E-02  0.1184000E+00
        -11   -1    0    0    0    0  0.00000000000E+00  0.00000000000E+00  0.45593999997E+02  0.45594000000E+02  0.51100000000E-03 0.  1.
         11   -1    0    0    0    0 -0.00000000000E+00 -0.00000000000E+00 -0.45593999997E+02  0.45594000000E+02  0.51100000000E-03 0. -1.
         23    2    1    2    0    0 -0.17763568394E-14 -0.15543122345E-14  0.00000000000E+00  0.91188000000E+02  0.91188000000E+02 0.  0.
    9900012    2    3    3    0    0  0.13786364806E+02 -0.15466799151E+01  0.34107517299E+02  0.54367098197E+02  0.40000031959E+02 0.  0.
         12    1    3    3    0    0 -0.13786364806E+02  0.15466799151E+01 -0.34107517299E+02  0.36820901803E+02  0.00000000000E+00 0. -1.
         11    1    4    4    0    0  0.71449087816E+01  0.11295605139E+02  0.11476229094E+02  0.17616590233E+02  0.51100000000E-03 0. -1.
        -11    1    4    4    0    0 -0.55118401017E+01 -0.12199772241E+02  0.31057735491E+01  0.13742658173E+02  0.51100000000E-03 0.  1.
        -12    1    4    4    0    0  0.12153296127E+02 -0.64251281267E+00  0.19525514656E+02  0.23007849791E+02  0.00000000000E+00 0.  1.
</event>
<event>
 8    1  0.2482403E-006  0.9118800E+02  0.7816164E-02  0.1184000E+00
        -11   -1    0    0    0    0  0.00000000000E+00  0.00000000000E+00  0.45593999997E+02  0.45594000000E+02  0.51100000000E-03 0.  1.
         11   -1    0    0    0    0 -0.00000000000E+00 -0.00000000000E+00 -0.45593999997E+02  0.45594000000E+02  0.51100000000E-03 0. -1.
         23    2    1    2    0    0 -0.17763568394E-14  0.10658141036E-13 -0.35527136788E-14  0.91188000000E+02  0.91188000000E+02 0.  0.
    9900012    2    3    3    0    0 -0.86458053078E+01  0.30101657692E+02 -0.19362850989E+02  0.54367085513E+02  0.40000003044E+02 0.  0.
        -12    1    3    3    0    0  0.86458053078E+01 -0.30101657692E+02  0.19362850989E+02  0.36820914487E+02  0.00000000000E+00 0.  1.
         11    1    4    4    0    0 -0.78094845814E+01  0.69322539739E+01 -0.77064216603E+00  0.10470820608E+02  0.51100000000E-03 0. -1.
        -11    1    4    4    0    0  0.68145980015E+01  0.19946735264E+02  0.25024900710E+01  0.21226715489E+02  0.51100000000E-03 0.  1.
         12    1    4    4    0    0 -0.76509187278E+01  0.32226684542E+01 -0.21094698894E+02  0.22669549417E+02  0.00000000000E+00 0. -1.
</event>
<event>
 8    1  0.2482403E-006  0.9118800E+02  0.7816164E-02  0.1184000E+00
        -11   -1    0    0    0    0  0.00000000000E+00  0.00000000000E+00  0.45593999997E+02  0.45594000000E+02  0.51100000000E-03 0. -1.
         11   -1    0    0    0    0 -0.00000000000E+00 -0.00000000000E+00 -0.45593999997E+02  0.45594000000E+02  0.51100000000E-03 0.  1.
         23    2    1    2    0    0 -0.17763568394E-14  0.00000000000E+00  0.00000000000E+00  0.91188000000E+02  0.91188000000E+02 0.  0.
    9900012    2    3    3    0    0  0.10796411872E+02 -0.34919413120E+02 -0.44555196685E+01  0.54367087770E+02  0.40000008189E+02 0.  0.
         12    1    3    3    0    0 -0.10796411872E+02  0.34919413120E+02  0.44555196685E+01  0.36820912230E+02  0.00000000000E+00 0. -1.
         11    1    4    4    0    0  0.11075403926E+02 -0.12349309123E+02  0.12046213240E+02  0.20500762465E+02  0.51100000000E-03 0. -1.
        -11    1    4    4    0    0  0.17868045554E+00 -0.20969639970E+02 -0.41176142263E+01  0.21370832327E+02  0.51100000000E-03 0.  1.
        -12    1    4    4    0    0 -0.45767250940E+00 -0.16004640265E+01 -0.12384118683E+02  0.12495492978E+02  0.00000000000E+00 0.  1.
</event>
<event>
 8    1  0.2482403E-006  0.9118800E+02  0.7816164E-02  0.1184000E+00
        -11   -1    0    0    0    0  0.00000000000E+00  0.00000000000E+00  0.45593999997E+02  0.45594000000E+02  0.51100000000E-03 0.  1.
         11   -1    0    0    0    0 -0.00000000000E+00 -0.00000000000E+00 -0.45593999997E+02  0.45594000000E+02  0.51100000000E-03 0. -1.
         23    2    1    2    0    0  0.00000000000E+00  0.35527136788E-14  0.00000000000E+00  0.91188000000E+02  0.91188000000E+02 0.  0.
    9900012    2    3    3    0    0  0.21969054723E+02  0.22786328221E+02  0.18813011438E+02  0.54367007094E+02  0.39999824272E+02 0.  0.
         12    1    3    3    0    0 -0.21969054723E+02 -0.22786328221E+02 -0.18813011438E+02  0.36820992906E+02  0.00000000000E+00 0. -1.
         11    1    4    4    0    0  0.24236288243E+02  0.21768466687E+01  0.49084361164E+01  0.24823961702E+02  0.51100000000E-03 0. -1.
        -11    1    4    4    0    0 -0.67032638120E+01  0.96580324081E+01  0.13243482888E+02  0.17708788072E+02  0.51100000000E-03 0.  1.
         12    1    4    4    0    0  0.44360302923E+01  0.10951449144E+02  0.66109243361E+00  0.11834257320E+02  0.00000000000E+00 0. -1.
</event>
<event>
 8    1  0.2482403E-006  0.9118800E+02  0.7816164E-02  0.1184000E+00
        -11   -1    0    0    0    0  0.00000000000E+00  0.00000000000E+00  0.45593999997E+02  0.45594000000E+02  0.51100000000E-03 0.  1.
         11   -1    0    0    0    0 -0.00000000000E+00 -0.00000000000E+00 -0.45593999997E+02  0.45594000000E+02  0.51100000000E-03 0. -1.
         23    2    1    2    0    0 -0.88817841970E-15  0.00000000000E+00 -0.35527136788E-14  0.91188000000E+02  0.91188000000E+02 0.  0.
    9900012    2    3    3    0    0 -0.73190207879E+01  0.30480354079E+02 -0.19317306656E+02  0.54367103942E+02  0.40000045058E+02 0.  0.
        -12    1    3    3    0    0  0.73190207879E+01 -0.30480354079E+02  0.19317306656E+02  0.36820896058E+02  0.00000000000E+00 0.  1.
         11    1    4    4    0    0  0.59885185236E+01  0.48042234424E+01  0.37920355173E+01  0.85628529485E+01  0.51100000000E-03 0.  1.
        -11    1    4    4    0    0 -0.21212458257E+02  0.14128744535E+02 -0.13638561374E+02  0.28906749455E+02  0.51100000000E-03 0. -1.
         12    1    4    4    0    0  0.79049189457E+01  0.11547386101E+02 -0.94707807992E+01  0.16897501539E+02  0.00000000000E+00 0. -1.
</event>
<event>
 8    1  0.2482403E-006  0.9118800E+02  0.7816164E-02  0.1184000E+00
        -11   -1    0    0    0    0  0.00000000000E+00  0.00000000000E+00  0.45593999997E+02  0.45594000000E+02  0.51100000000E-03 0.  1.
         11   -1    0    0    0    0 -0.00000000000E+00 -0.00000000000E+00 -0.45593999997E+02  0.45594000000E+02  0.51100000000E-03 0. -1.
         23    2    1    2    0    0  0.00000000000E+00 -0.35527136788E-14  0.00000000000E+00  0.91188000000E+02  0.91188000000E+02 0.  0.
    9900012    2    3    3    0    0 -0.74740072913E+01 -0.31959326917E+02  0.16688943184E+02  0.54367079499E+02  0.39999989333E+02 0.  0.
         12    1    3    3    0    0  0.74740072913E+01  0.31959326917E+02 -0.16688943184E+02  0.36820920501E+02  0.00000000000E+00 0. -1.
         11    1    4    4    0    0 -0.41958845379E+01  0.26987415830E+01  0.24509986920E+01  0.55584213619E+01  0.51100000000E-03 0. -1.
        -11    1    4    4    0    0  0.15944632386E+01 -0.32002486431E+01  0.16511917179E+02  0.16894594212E+02  0.51100000000E-03 0.  1.
        -12    1    4    4    0    0 -0.48725859921E+01 -0.31457819857E+02 -0.22739726875E+01  0.31914063924E+02  0.00000000000E+00 0.  1.
</event>
<event>
 8    1  0.2482403E-006  0.9118800E+02  0.7816164E-02  0.1184000E+00
        -11   -1    0    0    0    0  0.00000000000E+00  0.00000000000E+00  0.45593999997E+02  0.45594000000E+02  0.51100000000E-03 0.  1.
         11   -1    0    0    0    0 -0.00000000000E+00 -0.00000000000E+00 -0.45593999997E+02  0.45594000000E+02  0.51100000000E-03 0. -1.
         23    2    1    2    0    0  0.71054273576E-14 -0.26645352591E-14 -0.17763568394E-14  0.91188000000E+02  0.91188000000E+02 0.  0.
    9900012    2    3    3    0    0  0.35238189468E+02  0.52566255875E+01 -0.92961478669E+01  0.54367075586E+02  0.39999980412E+02 0.  0.
        -12    1    3    3    0    0 -0.35238189468E+02 -0.52566255875E+01  0.92961478669E+01  0.36820924414E+02  0.00000000000E+00 0.  1.
         11    1    4    4    0    0  0.63596546759E+01 -0.14527620476E+02 -0.35042558698E+01  0.16241206044E+02  0.51100000000E-03 0.  1.
        -11    1    4    4    0    0  0.19479942870E+02  0.14037427215E+02  0.27749165878E+01  0.24170595760E+02  0.51100000000E-03 0. -1.
        -12    1    4    4    0    0  0.93985919221E+01  0.57468188488E+01 -0.85668085850E+01  0.13955273782E+02  0.00000000000E+00 0.  1.
</event>
<event>
 8    1  0.2482403E-006  0.9118800E+02  0.7816164E-02  0.1184000E+00
        -11   -1    0    0    0    0  0.00000000000E+00  0.00000000000E+00  0.45593999997E+02  0.45594000000E+02  0.51100000000E-03 0.  1.
         11   -1    0    0    0    0 -0.00000000000E+00 -0.00000000000E+00 -0.45593999997E+02  0.45594000000E+02  0.51100000000E-03 0. -1.
         23    2    1    2    0    0  0.13877787808E-15  0.00000000000E+00 -0.71054273576E-14  0.91188000000E+02  0.91188000000E+02 0.  0.
    9900012    2    3    3    0    0 -0.11281779725E+00  0.20535868453E+02 -0.30562145246E+02  0.54367090954E+02  0.40000015447E+02 0.  0.
        -12    1    3    3    0    0  0.11281779725E+00 -0.20535868453E+02  0.30562145246E+02  0.36820909046E+02  0.00000000000E+00 0.  1.
         11    1    4    4    0    0 -0.66420246382E+01  0.17037211461E+02 -0.17334323484E+02  0.25196464763E+02  0.51100000000E-03 0. -1.
        -11    1    4    4    0    0  0.15287145579E+01  0.13301455557E+02 -0.21583232042E+01  0.13561860029E+02  0.51100000000E-03 0.  1.
        -12    1    4    4    0    0  0.50004922830E+01 -0.98027985648E+01 -0.11069498557E+02  0.15608766162E+02  0.00000000000E+00 0.  1.
</event>
<event>
 8    1  0.2482403E-006  0.9118800E+02  0.7816164E-02  0.1184000E+00
        -11   -1    0    0    0    0  0.00000000000E+00  0.00000000000E+00  0.45593999997E+02  0.45594000000E+02  0.51100000000E-03 0. -1.
         11   -1    0    0    0    0 -0.00000000000E+00 -0.00000000000E+00 -0.45593999997E+02  0.45594000000E+02  0.51100000000E-03 0.  1.
         23    2    1    2    0    0  0.00000000000E+00  0.00000000000E+00  0.44408920985E-15  0.91188000000E+02  0.91188000000E+02 0.  0.
    9900012    2    3    3    0    0  0.20691411290E+02 -0.30259768714E+02  0.34629545220E+01  0.54367079889E+02  0.39999990223E+02 0.  0.
        -12    1    3    3    0    0 -0.20691411290E+02  0.30259768714E+02 -0.34629545220E+01  0.36820920111E+02  0.00000000000E+00 0.  1.
         11    1    4    4    0    0  0.84337619610E+00 -0.64441542559E+01 -0.71630107584E+01  0.96719765750E+01  0.51100000000E-03 0. -1.
        -11    1    4    4    0    0 -0.59434955171E+01 -0.57174818069E+01 -0.48754581230E+01  0.95804399348E+01  0.51100000000E-03 0.  1.
         12    1    4    4    0    0  0.25791530611E+02 -0.18098132651E+02  0.15501423403E+02  0.35114663379E+02  0.00000000000E+00 0. -1.
</event>
<event>
 8    1  0.2482403E-006  0.9118800E+02  0.7816164E-02  0.1184000E+00
        -11   -1    0    0    0    0  0.00000000000E+00  0.00000000000E+00  0.45593999997E+02  0.45594000000E+02  0.51100000000E-03 0.  1.
         11   -1    0    0    0    0 -0.00000000000E+00 -0.00000000000E+00 -0.45593999997E+02  0.45594000000E+02  0.51100000000E-03 0. -1.
         23    2    1    2    0    0  0.00000000000E+00  0.00000000000E+00  0.88817841970E-15  0.91188000000E+02  0.91188000000E+02 0.  0.
    9900012    2    3    3    0    0  0.21113819148E+02  0.29377347289E+02 -0.68525710404E+01  0.54367087157E+02  0.40000006791E+02 0.  0.
        -12    1    3    3    0    0 -0.21113819148E+02 -0.29377347289E+02  0.68525710404E+01  0.36820912843E+02  0.00000000000E+00 0.  1.
         11    1    4    4    0    0 -0.22767298052E+01  0.15135840900E+02  0.10898174569E+02  0.18789555279E+02  0.51100000000E-03 0. -1.
        -11    1    4    4    0    0 -0.35241822597E+00  0.54824864500E+01 -0.37994925595E+01  0.66796706694E+01  0.51100000000E-03 0.  1.
         12    1    4    4    0    0  0.23742967179E+02  0.87590199389E+01 -0.13951253050E+02  0.28897861209E+02  0.00000000000E+00 0. -1.
</event>
<event>
 8    1  0.2482403E-006  0.9118800E+02  0.7816164E-02  0.1184000E+00
        -11   -1    0    0    0    0  0.00000000000E+00  0.00000000000E+00  0.45593999997E+02  0.45594000000E+02  0.51100000000E-03 0.  1.
         11   -1    0    0    0    0 -0.00000000000E+00 -0.00000000000E+00 -0.45593999997E+02  0.45594000000E+02  0.51100000000E-03 0. -1.
         23    2    1    2    0    0  0.00000000000E+00  0.35527136788E-14 -0.17763568394E-14  0.91188000000E+02  0.91188000000E+02 0.  0.
    9900012    2    3    3    0    0 -0.28383802813E+02  0.20009457882E+02 -0.12237689892E+02  0.54367085824E+02  0.40000003753E+02 0.  0.
        -12    1    3    3    0    0  0.28383802813E+02 -0.20009457882E+02  0.12237689892E+02  0.36820914176E+02  0.00000000000E+00 0.  1.
         11    1    4    4    0    0 -0.23118465069E+02 -0.62138629611E+01 -0.93329029825E+01  0.25693940888E+02  0.51100000000E-03 0. -1.
        -11    1    4    4    0    0  0.33325234039E-02  0.80081727366E+01 -0.52368474648E+01  0.95684592969E+01  0.51100000000E-03 0.  1.
        -12    1    4    4    0    0 -0.52686702678E+01  0.18215148106E+02  0.23320605555E+01  0.19104685639E+02  0.00000000000E+00 0.  1.
</event>
<event>
 8    1  0.2482403E-006  0.9118800E+02  0.7816164E-02  0.1184000E+00
        -11   -1    0    0    0    0  0.00000000000E+00  0.00000000000E+00  0.45593999997E+02  0.45594000000E+02  0.51100000000E-03 0. -1.
         11   -1    0    0    0    0 -0.00000000000E+00 -0.00000000000E+00 -0.45593999997E+02  0.45594000000E+02  0.51100000000E-03 0.  1.
         23    2    1    2    0    0  0.00000000000E+00  0.35527136788E-14 -0.35527136788E-14  0.91188000000E+02  0.91188000000E+02 0.  0.
    9900012    2    3    3    0    0 -0.16102025074E+02  0.24886050393E+02  0.21844591760E+02  0.54367124063E+02  0.40000090926E+02 0.  0.
        -12    1    3    3    0    0  0.16102025074E+02 -0.24886050393E+02 -0.21844591760E+02  0.36820875937E+02  0.00000000000E+00 0.  1.
         11    1    4    4    0    0  0.58738672854E+01  0.68192512017E+01  0.12579857076E+02  0.15467944536E+02  0.51100000000E-03 0. -1.
        -11    1    4    4    0    0 -0.44587355716E+01 -0.52548055672E+01 -0.26614024881E+01  0.73875820071E+01  0.51100000000E-03 0.  1.
        -12    1    4    4    0    0 -0.17517156788E+02  0.23321604758E+02  0.11926137172E+02  0.31511597520E+02  0.00000000000E+00 0.  1.
</event>
<event>
 8    1  0.2482403E-006  0.9118800E+02  0.7816164E-02  0.1184000E+00
        -11   -1    0    0    0    0  0.00000000000E+00  0.00000000000E+00  0.45593999997E+02  0.45594000000E+02  0.51100000000E-03 0. -1.
         11   -1    0    0    0    0 -0.00000000000E+00 -0.00000000000E+00 -0.45593999997E+02  0.45594000000E+02  0.51100000000E-03 0.  1.
         23    2    1    2    0    0 -0.17763568394E-14  0.17763568394E-14  0.00000000000E+00  0.91188000000E+02  0.91188000000E+02 0.  0.
    9900012    2    3    3    0    0  0.83134705974E+01  0.14155834718E+02  0.32958724493E+02  0.54367096017E+02  0.40000026989E+02 0.  0.
        -12    1    3    3    0    0 -0.83134705974E+01 -0.14155834718E+02 -0.32958724493E+02  0.36820903983E+02  0.00000000000E+00 0.  1.
         11    1    4    4    0    0 -0.42840021127E+01  0.20292337456E+01  0.48782669044E+01  0.68020549797E+01  0.51100000000E-03 0. -1.
        -11    1    4    4    0    0 -0.47497224752E+01 -0.81699234462E+01  0.94631879438E+00  0.94975276904E+01  0.51100000000E-03 0.  1.
         12    1    4    4    0    0  0.17347195185E+02  0.20296524419E+02  0.27134138794E+02  0.38067513347E+02  0.00000000000E+00 0. -1.
</event>
<event>
 8    1  0.2482403E-006  0.9118800E+02  0.7816164E-02  0.1184000E+00
        -11   -1    0    0    0    0  0.00000000000E+00  0.00000000000E+00  0.45593999997E+02  0.45594000000E+02  0.51100000000E-03 0. -1.
         11   -1    0    0    0    0 -0.00000000000E+00 -0.00000000000E+00 -0.45593999997E+02  0.45594000000E+02  0.51100000000E-03 0.  1.
         23    2    1    2    0    0  0.44408920985E-14  0.44408920985E-15  0.00000000000E+00  0.91188000000E+02  0.91188000000E+02 0.  0.
    9900012    2    3    3    0    0  0.62233271727E+01 -0.22832770506E+01  0.36219278821E+02  0.54367091354E+02  0.40000016360E+02 0.  0.
        -12    1    3    3    0    0 -0.62233271727E+01  0.22832770506E+01 -0.36219278821E+02  0.36820908646E+02  0.00000000000E+00 0.  1.
         11    1    4    4    0    0  0.16812253042E+02  0.66864369218E+01  0.12408333250E+02  0.21939166469E+02  0.51100000000E-03 0. -1.
        -11    1    4    4    0    0 -0.88933115997E+01  0.11335613645E+01  0.33963710198E+01  0.95870375478E+01  0.51100000000E-03 0.  1.
        -12    1    4    4    0    0 -0.16956142692E+01 -0.10103275337E+02  0.20414574551E+02  0.22840887337E+02  0.00000000000E+00 0.  1.
</event>
<event>
 8    1  0.2482403E-006  0.9118800E+02  0.7816164E-02  0.1184000E+00
        -11   -1    0    0    0    0  0.00000000000E+00  0.00000000000E+00  0.45593999997E+02  0.45594000000E+02  0.51100000000E-03 0.  1.
         11   -1    0    0    0    0 -0.00000000000E+00 -0.00000000000E+00 -0.45593999997E+02  0.45594000000E+02  0.51100000000E-03 0. -1.
         23    2    1    2    0    0  0.00000000000E+00  0.17763568394E-14  0.00000000000E+00  0.91188000000E+02  0.91188000000E+02 0.  0.
    9900012    2    3    3    0    0  0.72555890104E+01 -0.11415924934E+02 -0.34246342447E+02  0.54367097173E+02  0.40000029625E+02 0.  0.
        -12    1    3    3    0    0 -0.72555890104E+01  0.11415924934E+02  0.34246342447E+02  0.36820902827E+02  0.00000000000E+00 0.  1.
         11    1    4    4    0    0  0.37738537997E+01 -0.25187941654E+02 -0.28977892354E+02  0.38579691844E+02  0.51100000000E-03 0. -1.
        -11    1    4    4    0    0  0.25648910429E+01  0.43510280148E+01 -0.21016724858E+00  0.50551242696E+01  0.51100000000E-03 0.  1.
         12    1    4    4    0    0  0.91684416781E+00  0.94209887047E+01 -0.50582828445E+01  0.10732281059E+02  0.00000000000E+00 0. -1.
</event>
<event>
 8    1  0.2482403E-006  0.9118800E+02  0.7816164E-02  0.1184000E+00
        -11   -1    0    0    0    0  0.00000000000E+00  0.00000000000E+00  0.45593999997E+02  0.45594000000E+02  0.51100000000E-03 0. -1.
         11   -1    0    0    0    0 -0.00000000000E+00 -0.00000000000E+00 -0.45593999997E+02  0.45594000000E+02  0.51100000000E-03 0.  1.
         23    2    1    2    0    0  0.00000000000E+00  0.00000000000E+00  0.00000000000E+00  0.91188000000E+02  0.91188000000E+02 0.  0.
    9900012    2    3    3    0    0 -0.27111642387E+02  0.23300904357E+02 -0.88208897489E+01  0.54367063120E+02  0.39999951995E+02 0.  0.
        -12    1    3    3    0    0  0.27111642387E+02 -0.23300904357E+02  0.88208897489E+01  0.36820936880E+02  0.00000000000E+00 0.  1.
         11    1    4    4    0    0 -0.67150428889E+01  0.15584628144E+02  0.65330164777E+00  0.16982321357E+02  0.51100000000E-03 0. -1.
        -11    1    4    4    0    0 -0.14053281457E+02  0.18411842757E+02 -0.29717899026E+01  0.23352134997E+02  0.51100000000E-03 0.  1.
        -12    1    4    4    0    0 -0.63433180412E+01 -0.10695566544E+02 -0.65024014941E+01  0.14032606766E+02  0.00000000000E+00 0.  1.
</event>
<event>
 8    1  0.2482403E-006  0.9118800E+02  0.7816164E-02  0.1184000E+00
        -11   -1    0    0    0    0  0.00000000000E+00  0.00000000000E+00  0.45593999997E+02  0.45594000000E+02  0.51100000000E-03 0. -1.
         11   -1    0    0    0    0 -0.00000000000E+00 -0.00000000000E+00 -0.45593999997E+02  0.45594000000E+02  0.51100000000E-03 0.  1.
         23    2    1    2    0    0  0.00000000000E+00 -0.17763568394E-14 -0.35527136788E-14  0.91188000000E+02  0.91188000000E+02 0.  0.
    9900012    2    3    3    0    0 -0.20877598886E+02 -0.14647798908E+02  0.26558391314E+02  0.54367077995E+02  0.39999985905E+02 0.  0.
        -12    1    3    3    0    0  0.20877598886E+02  0.14647798908E+02 -0.26558391314E+02  0.36820922005E+02  0.00000000000E+00 0.  1.
         11    1    4    4    0    0 -0.20320986403E+02 -0.13500476917E+02  0.34807294306E+02  0.42505918442E+02  0.51100000000E-03 0. -1.
        -11    1    4    4    0    0 -0.41015849139E+01 -0.23139960388E+01 -0.54068399262E+01  0.71701809407E+01  0.51100000000E-03 0.  1.
         12    1    4    4    0    0  0.35449724313E+01  0.11666740481E+01 -0.28420630658E+01  0.46909786125E+01  0.00000000000E+00 0. -1.
</event>
<event>
 8    1  0.2482403E-006  0.9118800E+02  0.7816164E-02  0.1184000E+00
        -11   -1    0    0    0    0  0.00000000000E+00  0.00000000000E+00  0.45593999997E+02  0.45594000000E+02  0.51100000000E-03 0. -1.
         11   -1    0    0    0    0 -0.00000000000E+00 -0.00000000000E+00 -0.45593999997E+02  0.45594000000E+02  0.51100000000E-03 0.  1.
         23    2    1    2    0    0 -0.44408920985E-15  0.00000000000E+00  0.00000000000E+00  0.91188000000E+02  0.91188000000E+02 0.  0.
    9900012    2    3    3    0    0  0.22615939956E+01 -0.30107183226E+02 -0.21076565459E+02  0.54367096959E+02  0.40000029138E+02 0.  0.
         12    1    3    3    0    0 -0.22615939956E+01  0.30107183226E+02  0.21076565459E+02  0.36820903041E+02  0.00000000000E+00 0. -1.
         11    1    4    4    0    0  0.72192907469E+00 -0.28389873141E+02 -0.48161084843E+01  0.28804530542E+02  0.51100000000E-03 0. -1.
        -11    1    4    4    0    0 -0.57064201513E+01  0.65782545489E+01 -0.73136257924E+01  0.11372149592E+02  0.51100000000E-03 0.  1.
        -12    1    4    4    0    0  0.72460850722E+01 -0.82955646335E+01 -0.89468311826E+01  0.14190416825E+02  0.00000000000E+00 0.  1.
</event>
<event>
 8    1  0.2482403E-006  0.9118800E+02  0.7816164E-02  0.1184000E+00
        -11   -1    0    0    0    0  0.00000000000E+00  0.00000000000E+00  0.45593999997E+02  0.45594000000E+02  0.51100000000E-03 0. -1.
         11   -1    0    0    0    0 -0.00000000000E+00 -0.00000000000E+00 -0.45593999997E+02  0.45594000000E+02  0.51100000000E-03 0.  1.
         23    2    1    2    0    0  0.00000000000E+00  0.35527136788E-14 -0.17763568394E-14  0.91188000000E+02  0.91188000000E+02 0.  0.
    9900012    2    3    3    0    0  0.25901321071E+02 -0.21542353795E+02  0.14860294651E+02  0.54367084784E+02  0.40000001382E+02 0.  0.
         12    1    3    3    0    0 -0.25901321071E+02  0.21542353795E+02 -0.14860294651E+02  0.36820915216E+02  0.00000000000E+00 0. -1.
         11    1    4    4    0    0  0.16606092835E+02 -0.49296928014E+01  0.57528463587E+01  0.18252655474E+02  0.51100000000E-03 0. -1.
        -11    1    4    4    0    0  0.22694719819E+01 -0.10749496894E+02 -0.10046135049E+02  0.14887142648E+02  0.51100000000E-03 0.  1.
         12    1    4    4    0    0  0.70257562546E+01 -0.58631640995E+01  0.19153583341E+02  0.21227286662E+02  0.00000000000E+00 0. -1.
</event>
<event>
 8    1  0.2482403E-006  0.9118800E+02  0.7816164E-02  0.1184000E+00
        -11   -1    0    0    0    0  0.00000000000E+00  0.00000000000E+00  0.45593999997E+02  0.45594000000E+02  0.51100000000E-03 0. -1.
         11   -1    0    0    0    0 -0.00000000000E+00 -0.00000000000E+00 -0.45593999997E+02  0.45594000000E+02  0.51100000000E-03 0.  1.
         23    2    1    2    0    0  0.44408920985E-15  0.00000000000E+00  0.17763568394E-14  0.91188000000E+02  0.91188000000E+02 0.  0.
    9900012    2    3    3    0    0 -0.11234995513E+01 -0.33451163854E+02  0.15347268954E+02  0.54367064667E+02  0.39999955522E+02 0.  0.
        -12    1    3    3    0    0  0.11234995513E+01  0.33451163854E+02 -0.15347268954E+02  0.36820935333E+02  0.00000000000E+00 0.  1.
         11    1    4    4    0    0 -0.99265077742E+01 -0.12231227703E+02  0.17934081202E+02  0.23869850366E+02  0.51100000000E-03 0. -1.
        -11    1    4    4    0    0 -0.49617822557E+01 -0.13900396477E+02 -0.20200616510E+01  0.14897011603E+02  0.51100000000E-03 0.  1.
        -12    1    4    4    0    0  0.13764790479E+02 -0.73195396745E+01 -0.56675059706E+00  0.15600202698E+02  0.00000000000E+00 0.  1.
</event>
<event>
 8    1  0.2482403E-006  0.9118800E+02  0.7816164E-02  0.1184000E+00
        -11   -1    0    0    0    0  0.00000000000E+00  0.00000000000E+00  0.45593999997E+02  0.45594000000E+02  0.51100000000E-03 0.  1.
         11   -1    0    0    0    0 -0.00000000000E+00 -0.00000000000E+00 -0.45593999997E+02  0.45594000000E+02  0.51100000000E-03 0. -1.
         23    2    1    2    0    0  0.35527136788E-14  0.35527136788E-14 -0.35527136788E-14  0.91188000000E+02  0.91188000000E+02 0.  0.
    9900012    2    3    3    0    0 -0.22302456770E+02 -0.21416160557E+02  0.19993225719E+02  0.54367074080E+02  0.39999976979E+02 0.  0.
         12    1    3    3    0    0  0.22302456770E+02  0.21416160557E+02 -0.19993225719E+02  0.36820925920E+02  0.00000000000E+00 0. -1.
         11    1    4    4    0    0  0.72832037550E+00 -0.45167862588E+01 -0.39269487249E+01  0.60293229492E+01  0.51100000000E-03 0. -1.
        -11    1    4    4    0    0 -0.25009658726E+02 -0.58689869327E+01  0.26425915689E+02  0.36854539170E+02  0.51100000000E-03 0.  1.
        -12    1    4    4    0    0  0.19788815804E+01 -0.11030387365E+02 -0.25057412446E+01  0.11483211960E+02  0.00000000000E+00 0.  1.
</event>
<event>
 8    1  0.2482403E-006  0.9118800E+02  0.7816164E-02  0.1184000E+00
        -11   -1    0    0    0    0  0.00000000000E+00  0.00000000000E+00  0.45593999997E+02  0.45594000000E+02  0.51100000000E-03 0. -1.
         11   -1    0    0    0    0 -0.00000000000E+00 -0.00000000000E+00 -0.45593999997E+02  0.45594000000E+02  0.51100000000E-03 0.  1.
         23    2    1    2    0    0  0.17763568394E-14  0.71054273576E-14  0.35527136788E-14  0.91188000000E+02  0.91188000000E+02 0.  0.
    9900012    2    3    3    0    0 -0.42775625113E+01 -0.29496970524E+02 -0.21619670702E+02  0.54367095986E+02  0.40000026919E+02 0.  0.
         12    1    3    3    0    0  0.42775625113E+01  0.29496970524E+02  0.21619670702E+02  0.36820904014E+02  0.00000000000E+00 0. -1.
         11    1    4    4    0    0 -0.17181865752E+02 -0.12980188535E+02 -0.13025960605E+01  0.21573098106E+02  0.51100000000E-03 0. -1.
        -11    1    4    4    0    0  0.13356832735E+02 -0.13638592887E+02 -0.89944434264E+01  0.21102516662E+02  0.51100000000E-03 0.  1.
        -12    1    4    4    0    0 -0.45252949391E+00 -0.28781891022E+01 -0.11322631215E+02  0.11691481219E+02  0.00000000000E+00 0.  1.
</event>
<event>
 8    1  0.2482403E-006  0.9118800E+02  0.7816164E-02  0.1184000E+00
        -11   -1    0    0    0    0  0.00000000000E+00  0.00000000000E+00  0.45593999997E+02  0.45594000000E+02  0.51100000000E-03 0.  1.
         11   -1    0    0    0    0 -0.00000000000E+00 -0.00000000000E+00 -0.45593999997E+02  0.45594000000E+02  0.51100000000E-03 0. -1.
         23    2    1    2    0    0 -0.17763568394E-14  0.35527136788E-14  0.00000000000E+00  0.91188000000E+02  0.91188000000E+02 0.  0.
    9900012    2    3    3    0    0 -0.14507785062E+02 -0.31895355805E+02  0.11313213127E+02  0.54367104566E+02  0.40000046480E+02 0.  0.
         12    1    3    3    0    0  0.14507785062E+02  0.31895355805E+02 -0.11313213127E+02  0.36820895434E+02  0.00000000000E+00 0. -1.
         11    1    4    4    0    0 -0.11657755544E+02  0.12703275538E+01  0.11702813991E+02  0.16567222216E+02  0.51100000000E-03 0. -1.
        -11    1    4    4    0    0  0.46511023638E+01 -0.26594271832E+02  0.32308163659E+01  0.27190553913E+02  0.51100000000E-03 0.  1.
        -12    1    4    4    0    0 -0.75011318818E+01 -0.65714115266E+01 -0.36204172296E+01  0.10609328437E+02  0.00000000000E+00 0.  1.
</event>
<event>
 8    1  0.2482403E-006  0.9118800E+02  0.7816164E-02  0.1184000E+00
        -11   -1    0    0    0    0  0.00000000000E+00  0.00000000000E+00  0.45593999997E+02  0.45594000000E+02  0.51100000000E-03 0. -1.
         11   -1    0    0    0    0 -0.00000000000E+00 -0.00000000000E+00 -0.45593999997E+02  0.45594000000E+02  0.51100000000E-03 0.  1.
         23    2    1    2    0    0  0.88817841970E-15  0.00000000000E+00  0.00000000000E+00  0.91188000000E+02  0.91188000000E+02 0.  0.
    9900012    2    3    3    0    0 -0.73471467496E+01  0.15420050206E+02  0.32619333851E+02  0.54367089438E+02  0.40000011992E+02 0.  0.
        -12    1    3    3    0    0  0.73471467496E+01 -0.15420050206E+02 -0.32619333851E+02  0.36820910562E+02  0.00000000000E+00 0.  1.
         11    1    4    4    0    0  0.53916205426E+01  0.41595268972E+01 -0.65485191264E+01  0.94474514602E+01  0.51100000000E-03 0. -1.
        -11    1    4    4    0    0 -0.27295938840E+01  0.61214682964E+01  0.28967451305E+02  0.29732747808E+02  0.51100000000E-03 0.  1.
        -12    1    4    4    0    0 -0.10009173408E+02  0.51390550128E+01  0.10200401673E+02  0.15186890170E+02  0.00000000000E+00 0.  1.
</event>
<event>
 8    1  0.2482403E-006  0.9118800E+02  0.7816164E-02  0.1184000E+00
        -11   -1    0    0    0    0  0.00000000000E+00  0.00000000000E+00  0.45593999997E+02  0.45594000000E+02  0.51100000000E-03 0. -1.
         11   -1    0    0    0    0 -0.00000000000E+00 -0.00000000000E+00 -0.45593999997E+02  0.45594000000E+02  0.51100000000E-03 0.  1.
         23    2    1    2    0    0  0.00000000000E+00  0.00000000000E+00  0.00000000000E+00  0.91188000000E+02  0.91188000000E+02 0.  0.
    9900012    2    3    3    0    0 -0.47794065107E+01 -0.73688837343E+01 -0.35758041931E+02  0.54367072027E+02  0.39999972299E+02 0.  0.
         12    1    3    3    0    0  0.47794065107E+01  0.73688837343E+01  0.35758041931E+02  0.36820927973E+02  0.00000000000E+00 0. -1.
         11    1    4    4    0    0  0.45796253879E+00  0.40225984884E+01  0.66153078221E+01  0.77558575366E+01  0.51100000000E-03 0. -1.
        -11    1    4    4    0    0 -0.35847536550E+01  0.18472484174E+01 -0.21236339213E+02  0.21615848096E+02  0.51100000000E-03 0.  1.
         12    1    4    4    0    0 -0.16526153945E+01 -0.13238730640E+02 -0.21137010540E+02  0.24995366394E+02  0.00000000000E+00 0. -1.
</event>
<event>
 8    1  0.2482403E-006  0.9118800E+02  0.7816164E-02  0.1184000E+00
        -11   -1    0    0    0    0  0.00000000000E+00  0.00000000000E+00  0.45593999997E+02  0.45594000000E+02  0.51100000000E-03 0. -1.
         11   -1    0    0    0    0 -0.00000000000E+00 -0.00000000000E+00 -0.45593999997E+02  0.45594000000E+02  0.51100000000E-03 0.  1.
         23    2    1    2    0    0  0.00000000000E+00 -0.22204460493E-15  0.71054273576E-14  0.91188000000E+02  0.91188000000E+02 0.  0.
    9900012    2    3    3    0    0 -0.69148362592E+01  0.78028989036E+00 -0.36157341496E+02  0.54367120640E+02  0.40000083123E+02 0.  0.
         12    1    3    3    0    0  0.69148362592E+01 -0.78028989036E+00  0.36157341496E+02  0.36820879360E+02  0.00000000000E+00 0. -1.
         11    1    4    4    0    0 -0.13950050650E+02 -0.12527007946E+02 -0.65128136845E+01  0.19848087655E+02  0.51100000000E-03 0. -1.
        -11    1    4    4    0    0  0.11402453620E+01  0.52450780007E+00 -0.11431734389E+02  0.11500426919E+02  0.51100000000E-03 0.  1.
         12    1    4    4    0    0  0.58949690287E+01  0.12782790037E+02 -0.18212793422E+02  0.23018606065E+02  0.00000000000E+00 0. -1.
</event>
<event>
 8    1  0.2482403E-006  0.9118800E+02  0.7816164E-02  0.1184000E+00
        -11   -1    0    0    0    0  0.00000000000E+00  0.00000000000E+00  0.45593999997E+02  0.45594000000E+02  0.51100000000E-03 0.  1.
         11   -1    0    0    0    0 -0.00000000000E+00 -0.00000000000E+00 -0.45593999997E+02  0.45594000000E+02  0.51100000000E-03 0. -1.
         23    2    1    2    0    0 -0.35527136788E-14  0.17763568394E-14  0.00000000000E+00  0.91188000000E+02  0.91188000000E+02 0.  0.
    9900012    2    3    3    0    0 -0.30360671696E+02  0.85636079243E+01  0.18991432278E+02  0.54367078414E+02  0.39999986860E+02 0.  0.
         12    1    3    3    0    0  0.30360671696E+02 -0.85636079243E+01 -0.18991432278E+02  0.36820921586E+02  0.00000000000E+00 0. -1.
         11    1    4    4    0    0 -0.18623380449E+02  0.11972853452E+02 -0.18172683653E+01  0.22214454386E+02  0.51100000000E-03 0. -1.
        -11    1    4    4    0    0 -0.28601986181E+01 -0.50060087260E+01  0.22279964201E+02  0.23013858098E+02  0.51100000000E-03 0.  1.
        -12    1    4    4    0    0 -0.88770926290E+01  0.15967631985E+01 -0.14712635576E+01  0.91387659294E+01  0.00000000000E+00 0.  1.
</event>
<event>
 8    1  0.2482403E-006  0.9118800E+02  0.7816164E-02  0.1184000E+00
        -11   -1    0    0    0    0  0.00000000000E+00  0.00000000000E+00  0.45593999997E+02  0.45594000000E+02  0.51100000000E-03 0.  1.
         11   -1    0    0    0    0 -0.00000000000E+00 -0.00000000000E+00 -0.45593999997E+02  0.45594000000E+02  0.51100000000E-03 0. -1.
         23    2    1    2    0    0  0.00000000000E+00  0.00000000000E+00 -0.71054273576E-14  0.91188000000E+02  0.91188000000E+02 0.  0.
    9900012    2    3    3    0    0  0.86470033828E+01 -0.58081770679E+01  0.35316758614E+02  0.54367095240E+02  0.40000025218E+02 0.  0.
         12    1    3    3    0    0 -0.86470033828E+01  0.58081770679E+01 -0.35316758614E+02  0.36820904760E+02  0.00000000000E+00 0. -1.
         11    1    4    4    0    0  0.99594152558E+01 -0.99870275297E+01  0.14232735896E+02  0.20037500904E+02  0.51100000000E-03 0. -1.
        -11    1    4    4    0    0  0.11986896414E+02 -0.80145405059E+00  0.53998578945E+01  0.13171426642E+02  0.51100000000E-03 0.  1.
         12    1    4    4    0    0 -0.13299308287E+02  0.49803045124E+01  0.15684164823E+02  0.21158167694E+02  0.00000000000E+00 0. -1.
</event>
<event>
 8    1  0.2482403E-006  0.9118800E+02  0.7816164E-02  0.1184000E+00
        -11   -1    0    0    0    0  0.00000000000E+00  0.00000000000E+00  0.45593999997E+02  0.45594000000E+02  0.51100000000E-03 0.  1.
         11   -1    0    0    0    0 -0.00000000000E+00 -0.00000000000E+00 -0.45593999997E+02  0.45594000000E+02  0.51100000000E-03 0. -1.
         23    2    1    2    0    0  0.69388939039E-16 -0.17763568394E-14  0.00000000000E+00  0.91188000000E+02  0.91188000000E+02 0.  0.
    9900012    2    3    3    0    0  0.11328423843E+00  0.12886915999E+02  0.34491864906E+02  0.54367161037E+02  0.40000175215E+02 0.  0.
         12    1    3    3    0    0 -0.11328423843E+00 -0.12886915999E+02 -0.34491864906E+02  0.36820838963E+02  0.00000000000E+00 0. -1.
         11    1    4    4    0    0 -0.12813951379E+02  0.19142650594E+01  0.11408653781E+02  0.17263230926E+02  0.51100000000E-03 0. -1.
        -11    1    4    4    0    0  0.12059170230E+02 -0.44869611583E+01  0.14554350551E+02  0.19426413135E+02  0.51100000000E-03 0.  1.
         12    1    4    4    0    0  0.86806538727E+00  0.15459612098E+02  0.85288605742E+01  0.17677516976E+02  0.00000000000E+00 0. -1.
</event>
<event>
 8    1  0.2482403E-006  0.9118800E+02  0.7816164E-02  0.1184000E+00
        -11   -1    0    0    0    0  0.00000000000E+00  0.00000000000E+00  0.45593999997E+02  0.45594000000E+02  0.51100000000E-03 0.  1.
         11   -1    0    0    0    0 -0.00000000000E+00 -0.00000000000E+00 -0.45593999997E+02  0.45594000000E+02  0.51100000000E-03 0. -1.
         23    2    1    2    0    0 -0.17763568394E-14  0.35527136788E-14  0.35527136788E-14  0.91188000000E+02  0.91188000000E+02 0.  0.
    9900012    2    3    3    0    0  0.15844663271E+02  0.21391334906E+02  0.25438809752E+02  0.54367141715E+02  0.40000131168E+02 0.  0.
         12    1    3    3    0    0 -0.15844663271E+02 -0.21391334906E+02 -0.25438809752E+02  0.36820858285E+02  0.00000000000E+00 0. -1.
         11    1    4    4    0    0  0.10842173111E+02  0.41659528870E+00  0.18476170337E+01  0.11006359905E+02  0.51100000000E-03 0. -1.
        -11    1    4    4    0    0  0.16603283050E+02  0.16820360770E+02  0.18559705220E+02  0.30050893541E+02  0.51100000000E-03 0.  1.
         12    1    4    4    0    0 -0.11600792890E+02  0.41543788469E+01  0.50314874985E+01  0.13309888269E+02  0.00000000000E+00 0. -1.
</event>
<event>
 8    1  0.2482403E-006  0.9118800E+02  0.7816164E-02  0.1184000E+00
        -11   -1    0    0    0    0  0.00000000000E+00  0.00000000000E+00  0.45593999997E+02  0.45594000000E+02  0.51100000000E-03 0. -1.
         11   -1    0    0    0    0 -0.00000000000E+00 -0.00000000000E+00 -0.45593999997E+02  0.45594000000E+02  0.51100000000E-03 0.  1.
         23    2    1    2    0    0 -0.35527136788E-14  0.00000000000E+00 -0.35527136788E-14  0.91188000000E+02  0.91188000000E+02 0.  0.
    9900012    2    3    3    0    0 -0.24111634925E+02 -0.51182278720E+01 -0.27353471375E+02  0.54367087579E+02  0.40000007753E+02 0.  0.
         12    1    3    3    0    0  0.24111634925E+02  0.51182278720E+01  0.27353471375E+02  0.36820912421E+02  0.00000000000E+00 0. -1.
         11    1    4    4    0    0 -0.12860209377E+01 -0.61211903390E+01 -0.70022112621E+01  0.93890246479E+01  0.51100000000E-03 0. -1.
        -11    1    4    4    0    0  0.81446297425E+01 -0.45026300357E+00 -0.85138967463E+01  0.11790851050E+02  0.51100000000E-03 0.  1.
        -12    1    4    4    0    0 -0.30970243730E+02  0.14532254705E+01 -0.11837363366E+02  0.33187211881E+02  0.00000000000E+00 0.  1.
</event>
<event>
 8    1  0.2482403E-006  0.9118800E+02  0.7816164E-02  0.1184000E+00
        -11   -1    0    0    0    0  0.00000000000E+00  0.00000000000E+00  0.45593999997E+02  0.45594000000E+02  0.51100000000E-03 0. -1.
         11   -1    0    0    0    0 -0.00000000000E+00 -0.00000000000E+00 -0.45593999997E+02  0.45594000000E+02  0.51100000000E-03 0.  1.
         23    2    1    2    0    0  0.00000000000E+00  0.00000000000E+00  0.35527136788E-14  0.91188000000E+02  0.91188000000E+02 0.  0.
    9900012    2    3    3    0    0 -0.10593484042E+02  0.21286917408E+02 -0.28114515163E+02  0.54367072259E+02  0.39999972828E+02 0.  0.
         12    1    3    3    0    0  0.10593484042E+02 -0.21286917408E+02  0.28114515163E+02  0.36820927741E+02  0.00000000000E+00 0. -1.
         11    1    4    4    0    0 -0.16348266507E+02  0.59101801901E+01 -0.79427392130E+01  0.19112382221E+02  0.51100000000E-03 0. -1.
        -11    1    4    4    0    0  0.44939544830E+01 -0.55377705099E+01 -0.90846721230E+01  0.11549623239E+02  0.51100000000E-03 0.  1.
        -12    1    4    4    0    0  0.12608279828E+01  0.20914507728E+02 -0.11087103827E+02  0.23705066799E+02  0.00000000000E+00 0.  1.
</event>
<event>
 8    1  0.2482403E-006  0.9118800E+02  0.7816164E-02  0.1184000E+00
        -11   -1    0    0    0    0  0.00000000000E+00  0.00000000000E+00  0.45593999997E+02  0.45594000000E+02  0.51100000000E-03 0. -1.
         11   -1    0    0    0    0 -0.00000000000E+00 -0.00000000000E+00 -0.45593999997E+02  0.45594000000E+02  0.51100000000E-03 0.  1.
         23    2    1    2    0    0  0.00000000000E+00  0.17763568394E-14  0.00000000000E+00  0.91188000000E+02  0.91188000000E+02 0.  0.
    9900012    2    3    3    0    0 -0.52336841813E+01  0.91723432688E+01  0.35273994019E+02  0.54367109391E+02  0.40000057479E+02 0.  0.
        -12    1    3    3    0    0  0.52336841813E+01 -0.91723432688E+01 -0.35273994019E+02  0.36820890609E+02  0.00000000000E+00 0.  1.
         11    1    4    4    0    0 -0.35610668882E+01 -0.28487743644E+01  0.19542565128E+02  0.20067599877E+02  0.51100000000E-03 0. -1.
        -11    1    4    4    0    0  0.28118784992E+01  0.18564546410E+02  0.18039482571E+02  0.26037894996E+02  0.51100000000E-03 0.  1.
         12    1    4    4    0    0 -0.44844957922E+01 -0.65434287766E+01 -0.23080536801E+01  0.82616145187E+01  0.00000000000E+00 0. -1.
</event>
<event>
 8    1  0.2482403E-006  0.9118800E+02  0.7816164E-02  0.1184000E+00
        -11   -1    0    0    0    0  0.00000000000E+00  0.00000000000E+00  0.45593999997E+02  0.45594000000E+02  0.51100000000E-03 0.  1.
         11   -1    0    0    0    0 -0.00000000000E+00 -0.00000000000E+00 -0.45593999997E+02  0.45594000000E+02  0.51100000000E-03 0. -1.
         23    2    1    2    0    0  0.00000000000E+00  0.00000000000E+00  0.35527136788E-14  0.91188000000E+02  0.91188000000E+02 0.  0.
    9900012    2    3    3    0    0 -0.19283620913E+02 -0.17989534776E+02  0.25696308198E+02  0.54367059600E+02  0.39999943969E+02 0.  0.
         12    1    3    3    0    0  0.19283620913E+02  0.17989534776E+02 -0.25696308198E+02  0.36820940400E+02  0.00000000000E+00 0. -1.
         11    1    4    4    0    0 -0.13843362914E+01 -0.20461553082E+02 -0.17798213759E+01  0.20585414883E+02  0.51100000000E-03 0. -1.
        -11    1    4    4    0    0 -0.15689099583E+01  0.28929851742E+01  0.52905799193E+01  0.62306562912E+01  0.51100000000E-03 0.  1.
         12    1    4    4    0    0 -0.16330374663E+02 -0.42096686761E+00  0.22185549654E+02  0.27550988425E+02  0.00000000000E+00 0. -1.
</event>
<event>
 8    1  0.2482403E-006  0.9118800E+02  0.7816164E-02  0.1184000E+00
        -11   -1    0    0    0    0  0.00000000000E+00  0.00000000000E+00  0.45593999997E+02  0.45594000000E+02  0.51100000000E-03 0.  1.
         11   -1    0    0    0    0 -0.00000000000E+00 -0.00000000000E+00 -0.45593999997E+02  0.45594000000E+02  0.51100000000E-03 0. -1.
         23    2    1    2    0    0  0.00000000000E+00  0.00000000000E+00  0.00000000000E+00  0.91188000000E+02  0.91188000000E+02 0.  0.
    9900012    2    3    3    0    0  0.23819920125E+02 -0.46110215889E+01 -0.27697078454E+02  0.54367105528E+02  0.40000048672E+02 0.  0.
        -12    1    3    3    0    0 -0.23819920125E+02  0.46110215889E+01  0.27697078454E+02  0.36820894472E+02  0.00000000000E+00 0.  1.
         11    1    4    4    0    0  0.16297505084E+02 -0.55441305626E+01  0.12653002432E+01  0.17261142506E+02  0.51100000000E-03 0. -1.
        -11    1    4    4    0    0 -0.24818394125E+01 -0.54113248211E+01 -0.15214787961E+00  0.59552592242E+01  0.51100000000E-03 0.  1.
         12    1    4    4    0    0  0.10004254454E+02  0.63444337948E+01 -0.28810230817E+02  0.31150703798E+02  0.00000000000E+00 0. -1.
</event>
<event>
 8    1  0.2482403E-006  0.9118800E+02  0.7816164E-02  0.1184000E+00
        -11   -1    0    0    0    0  0.00000000000E+00  0.00000000000E+00  0.45593999997E+02  0.45594000000E+02  0.51100000000E-03 0. -1.
         11   -1    0    0    0    0 -0.00000000000E+00 -0.00000000000E+00 -0.45593999997E+02  0.45594000000E+02  0.51100000000E-03 0.  1.
         23    2    1    2    0    0  0.00000000000E+00  0.00000000000E+00  0.35527136788E-14  0.91188000000E+02  0.91188000000E+02 0.  0.
    9900012    2    3    3    0    0  0.22373388502E+02  0.24777320625E+02  0.15533536749E+02  0.54367151362E+02  0.40000153160E+02 0.  0.
         12    1    3    3    0    0 -0.22373388502E+02 -0.24777320625E+02 -0.15533536749E+02  0.36820848638E+02  0.00000000000E+00 0. -1.
         11    1    4    4    0    0 -0.62682239639E+01  0.33346875117E+01 -0.32740835546E+01  0.78185929582E+01  0.51100000000E-03 0. -1.
        -11    1    4    4    0    0  0.26105711229E+02  0.81459464750E+01  0.18484789077E+02  0.33008363034E+02  0.51100000000E-03 0.  1.
        -12    1    4    4    0    0  0.25359012378E+01  0.13296686639E+02  0.32283122709E+00  0.13540195370E+02  0.00000000000E+00 0.  1.
</event>
<event>
 8    1  0.2482403E-006  0.9118800E+02  0.7816164E-02  0.1184000E+00
        -11   -1    0    0    0    0  0.00000000000E+00  0.00000000000E+00  0.45593999997E+02  0.45594000000E+02  0.51100000000E-03 0.  1.
         11   -1    0    0    0    0 -0.00000000000E+00 -0.00000000000E+00 -0.45593999997E+02  0.45594000000E+02  0.51100000000E-03 0. -1.
         23    2    1    2    0    0  0.00000000000E+00 -0.22204460493E-15  0.00000000000E+00  0.91188000000E+02  0.91188000000E+02 0.  0.
    9900012    2    3    3    0    0  0.26628257686E+02 -0.11830615543E+01 -0.25403069714E+02  0.54367086202E+02  0.40000004615E+02 0.  0.
        -12    1    3    3    0    0 -0.26628257686E+02  0.11830615543E+01  0.25403069714E+02  0.36820913798E+02  0.00000000000E+00 0.  1.
         11    1    4    4    0    0  0.53442929905E+01 -0.43055929557E+01 -0.12453175283E+02  0.14219042624E+02  0.51100000000E-03 0. -1.
        -11    1    4    4    0    0  0.18143594935E+02  0.73949900758E+00 -0.23028092629E+02  0.29326267174E+02  0.51100000000E-03 0.  1.
        -12    1    4    4    0    0  0.31403697604E+01  0.23830323937E+01  0.10078198198E+02  0.10821776404E+02  0.00000000000E+00 0.  1.
</event>
<event>
 8    1  0.2482403E-006  0.9118800E+02  0.7816164E-02  0.1184000E+00
        -11   -1    0    0    0    0  0.00000000000E+00  0.00000000000E+00  0.45593999997E+02  0.45594000000E+02  0.51100000000E-03 0. -1.
         11   -1    0    0    0    0 -0.00000000000E+00 -0.00000000000E+00 -0.45593999997E+02  0.45594000000E+02  0.51100000000E-03 0.  1.
         23    2    1    2    0    0 -0.17763568394E-14  0.00000000000E+00 -0.35527136788E-14  0.91188000000E+02  0.91188000000E+02 0.  0.
    9900012    2    3    3    0    0 -0.14455063878E+02 -0.26510807096E+02  0.21071481770E+02  0.54367094137E+02  0.40000022704E+02 0.  0.
        -12    1    3    3    0    0  0.14455063878E+02  0.26510807096E+02 -0.21071481770E+02  0.36820905863E+02  0.00000000000E+00 0.  1.
         11    1    4    4    0    0 -0.10567975138E+02 -0.59756654875E+01  0.21147014675E+02  0.24384152773E+02  0.51100000000E-03 0. -1.
        -11    1    4    4    0    0 -0.10229116435E+02 -0.73390691103E+01  0.62242603679E+01  0.14044150948E+02  0.51100000000E-03 0.  1.
        -12    1    4    4    0    0  0.63420276949E+01 -0.13196072498E+02 -0.62997932729E+01  0.15938790416E+02  0.00000000000E+00 0.  1.
</event>
<event>
 8    1  0.2482403E-006  0.9118800E+02  0.7816164E-02  0.1184000E+00
        -11   -1    0    0    0    0  0.00000000000E+00  0.00000000000E+00  0.45593999997E+02  0.45594000000E+02  0.51100000000E-03 0.  1.
         11   -1    0    0    0    0 -0.00000000000E+00 -0.00000000000E+00 -0.45593999997E+02  0.45594000000E+02  0.51100000000E-03 0. -1.
         23    2    1    2    0    0  0.00000000000E+00  0.00000000000E+00  0.00000000000E+00  0.91188000000E+02  0.91188000000E+02 0.  0.
    9900012    2    3    3    0    0 -0.18322018260E+02  0.25397386593E+02 -0.19366482611E+02  0.54367024353E+02  0.39999863617E+02 0.  0.
        -12    1    3    3    0    0  0.18322018260E+02 -0.25397386593E+02  0.19366482611E+02  0.36820975647E+02  0.00000000000E+00 0.  1.
         11    1    4    4    0    0 -0.18411420830E+01  0.19926020991E+02 -0.53655376080E+01  0.20717748690E+02  0.51100000000E-03 0. -1.
        -11    1    4    4    0    0 -0.11428137594E+02 -0.30459962695E+01  0.45082744950E+01  0.12657209855E+02  0.51100000000E-03 0.  1.
        -12    1    4    4    0    0 -0.50527385825E+01  0.85173618716E+01 -0.18509219498E+02  0.20992065807E+02  0.00000000000E+00 0.  1.
</event>
<event>
 8    1  0.2482403E-006  0.9118800E+02  0.7816164E-02  0.1184000E+00
        -11   -1    0    0    0    0  0.00000000000E+00  0.00000000000E+00  0.45593999997E+02  0.45594000000E+02  0.51100000000E-03 0. -1.
         11   -1    0    0    0    0 -0.00000000000E+00 -0.00000000000E+00 -0.45593999997E+02  0.45594000000E+02  0.51100000000E-03 0.  1.
         23    2    1    2    0    0  0.00000000000E+00  0.00000000000E+00  0.00000000000E+00  0.91188000000E+02  0.91188000000E+02 0.  0.
    9900012    2    3    3    0    0 -0.14520900929E+02 -0.19070569425E+02 -0.27950593247E+02  0.54367097718E+02  0.40000030868E+02 0.  0.
         12    1    3    3    0    0  0.14520900929E+02  0.19070569425E+02  0.27950593247E+02  0.36820902282E+02  0.00000000000E+00 0. -1.
         11    1    4    4    0    0 -0.14853940018E+02 -0.36483224041E+01 -0.51885756962E+01  0.16151504835E+02  0.51100000000E-03 0. -1.
        -11    1    4    4    0    0 -0.10327127596E+02  0.43265766804E+00 -0.13446486345E+02  0.16960092934E+02  0.51100000000E-03 0.  1.
         12    1    4    4    0    0  0.10660166685E+02 -0.15854904689E+02 -0.93155312057E+01  0.21255499949E+02  0.00000000000E+00 0. -1.
</event>
<event>
 8    1  0.2482403E-006  0.9118800E+02  0.7816164E-02  0.1184000E+00
        -11   -1    0    0    0    0  0.00000000000E+00  0.00000000000E+00  0.45593999997E+02  0.45594000000E+02  0.51100000000E-03 0.  1.
         11   -1    0    0    0    0 -0.00000000000E+00 -0.00000000000E+00 -0.45593999997E+02  0.45594000000E+02  0.51100000000E-03 0. -1.
         23    2    1    2    0    0  0.00000000000E+00  0.00000000000E+00  0.00000000000E+00  0.91188000000E+02  0.91188000000E+02 0.  0.
    9900012    2    3    3    0    0  0.77363995224E+01  0.16125778936E+02  0.32185145552E+02  0.54367133388E+02  0.40000112184E+02 0.  0.
         12    1    3    3    0    0 -0.77363995224E+01 -0.16125778936E+02 -0.32185145552E+02  0.36820866612E+02  0.00000000000E+00 0. -1.
         11    1    4    4    0    0  0.86464967137E+01  0.14048681572E+02  0.35448133978E+01  0.16872849836E+02  0.51100000000E-03 0. -1.
        -11    1    4    4    0    0  0.10440381112E+02  0.58465916011E+01  0.11519630264E+02  0.16609818566E+02  0.51100000000E-03 0.  1.
        -12    1    4    4    0    0 -0.11350478303E+02 -0.37694942364E+01  0.17120701890E+02  0.20884464985E+02  0.00000000000E+00 0.  1.
</event>
<event>
 8    1  0.2482403E-006  0.9118800E+02  0.7816164E-02  0.1184000E+00
        -11   -1    0    0    0    0  0.00000000000E+00  0.00000000000E+00  0.45593999997E+02  0.45594000000E+02  0.51100000000E-03 0.  1.
         11   -1    0    0    0    0 -0.00000000000E+00 -0.00000000000E+00 -0.45593999997E+02  0.45594000000E+02  0.51100000000E-03 0. -1.
         23    2    1    2    0    0  0.00000000000E+00  0.00000000000E+00  0.35527136788E-14  0.91188000000E+02  0.91188000000E+02 0.  0.
    9900012    2    3    3    0    0  0.30730342135E+02 -0.23271660623E+01  0.20149600956E+02  0.54367135693E+02  0.40000117440E+02 0.  0.
         12    1    3    3    0    0 -0.30730342135E+02  0.23271660623E+01 -0.20149600956E+02  0.36820864307E+02  0.00000000000E+00 0. -1.
         11    1    4    4    0    0 -0.61231330360E+01  0.15375754204E+01  0.34548031031E+01  0.71967048774E+01  0.51100000000E-03 0. -1.
        -11    1    4    4    0    0  0.18252846894E+02  0.17374081876E+01  0.20362765242E+02  0.27401226533E+02  0.51100000000E-03 0.  1.
        -12    1    4    4    0    0  0.18600628277E+02 -0.56021496702E+01 -0.36679673888E+01  0.19769204283E+02  0.00000000000E+00 0.  1.
</event>
<event>
 8    1  0.2482403E-006  0.9118800E+02  0.7816164E-02  0.1184000E+00
        -11   -1    0    0    0    0  0.00000000000E+00  0.00000000000E+00  0.45593999997E+02  0.45594000000E+02  0.51100000000E-03 0.  1.
         11   -1    0    0    0    0 -0.00000000000E+00 -0.00000000000E+00 -0.45593999997E+02  0.45594000000E+02  0.51100000000E-03 0. -1.
         23    2    1    2    0    0  0.00000000000E+00  0.00000000000E+00  0.35527136788E-14  0.91188000000E+02  0.91188000000E+02 0.  0.
    9900012    2    3    3    0    0 -0.20994125355E+02  0.13603764253E+02 -0.27017864428E+02  0.54367072533E+02  0.39999973453E+02 0.  0.
        -12    1    3    3    0    0  0.20994125355E+02 -0.13603764253E+02  0.27017864428E+02  0.36820927467E+02  0.00000000000E+00 0.  1.
         11    1    4    4    0    0 -0.65466705100E+01 -0.14619140842E+01 -0.30244569677E+01  0.73582217802E+01  0.51100000000E-03 0. -1.
        -11    1    4    4    0    0 -0.37151073104E+00 -0.12548684163E+01  0.81799383799E+01  0.82839668714E+01  0.51100000000E-03 0.  1.
         12    1    4    4    0    0 -0.14075944114E+02  0.16320546754E+02 -0.32173345841E+02  0.38724883881E+02  0.00000000000E+00 0. -1.
</event>
<event>
 8    1  0.2482403E-006  0.9118800E+02  0.7816164E-02  0.1184000E+00
        -11   -1    0    0    0    0  0.00000000000E+00  0.00000000000E+00  0.45593999997E+02  0.45594000000E+02  0.51100000000E-03 0. -1.
         11   -1    0    0    0    0 -0.00000000000E+00 -0.00000000000E+00 -0.45593999997E+02  0.45594000000E+02  0.51100000000E-03 0.  1.
         23    2    1    2    0    0  0.00000000000E+00 -0.35527136788E-14  0.26645352591E-14  0.91188000000E+02  0.91188000000E+02 0.  0.
    9900012    2    3    3    0    0  0.28423163039E+02  0.22784191802E+02  0.53650742094E+01  0.54367087267E+02  0.40000007044E+02 0.  0.
         12    1    3    3    0    0 -0.28423163039E+02 -0.22784191802E+02 -0.53650742094E+01  0.36820912733E+02  0.00000000000E+00 0. -1.
         11    1    4    4    0    0  0.12394064883E+02  0.20558940744E+02 -0.21129789417E+01  0.24098704718E+02  0.51100000000E-03 0. -1.
        -11    1    4    4    0    0  0.12169182154E+01  0.71272081823E+01 -0.61960547999E+01  0.95220313884E+01  0.51100000000E-03 0.  1.
         12    1    4    4    0    0  0.14812179940E+02 -0.49019571241E+01  0.13674107951E+02  0.20746351161E+02  0.00000000000E+00 0. -1.
</event>
<event>
 8    1  0.2482403E-006  0.9118800E+02  0.7816164E-02  0.1184000E+00
        -11   -1    0    0    0    0  0.00000000000E+00  0.00000000000E+00  0.45593999997E+02  0.45594000000E+02  0.51100000000E-03 0. -1.
         11   -1    0    0    0    0 -0.00000000000E+00 -0.00000000000E+00 -0.45593999997E+02  0.45594000000E+02  0.51100000000E-03 0.  1.
         23    2    1    2    0    0 -0.71054273576E-14 -0.88817841970E-15  0.00000000000E+00  0.91188000000E+02  0.91188000000E+02 0.  0.
    9900012    2    3    3    0    0  0.35667144355E+02  0.55892645899E+01 -0.72384304968E+01  0.54367082831E+02  0.39999996930E+02 0.  0.
         12    1    3    3    0    0 -0.35667144355E+02 -0.55892645899E+01  0.72384304968E+01  0.36820917169E+02  0.00000000000E+00 0. -1.
         11    1    4    4    0    0 -0.46801667460E+00  0.81236403263E+01 -0.11570393063E+01  0.82189605168E+01  0.51100000000E-03 0. -1.
        -11    1    4    4    0    0  0.21473777992E+02 -0.17998378523E+01  0.10526278384E+02  0.23982599826E+02  0.51100000000E-03 0.  1.
         12    1    4    4    0    0  0.14661383037E+02 -0.73453788418E+00 -0.16607669574E+02  0.22165522488E+02  0.00000000000E+00 0. -1.
</event>
<event>
 8    1  0.2482403E-006  0.9118800E+02  0.7816164E-02  0.1184000E+00
        -11   -1    0    0    0    0  0.00000000000E+00  0.00000000000E+00  0.45593999997E+02  0.45594000000E+02  0.51100000000E-03 0. -1.
         11   -1    0    0    0    0 -0.00000000000E+00 -0.00000000000E+00 -0.45593999997E+02  0.45594000000E+02  0.51100000000E-03 0.  1.
         23    2    1    2    0    0  0.00000000000E+00  0.35527136788E-14 -0.35527136788E-14  0.91188000000E+02  0.91188000000E+02 0.  0.
    9900012    2    3    3    0    0 -0.91281925176E+01  0.23003495892E+02 -0.27263452027E+02  0.54367074722E+02  0.39999978443E+02 0.  0.
         12    1    3    3    0    0  0.91281925176E+01 -0.23003495892E+02  0.27263452027E+02  0.36820925278E+02  0.00000000000E+00 0. -1.
         11    1    4    4    0    0 -0.25723600413E+01  0.22537058543E+02  0.12469944873E+01  0.22717637189E+02  0.51100000000E-03 0. -1.
        -11    1    4    4    0    0  0.88615295064E+00 -0.44895957861E+01 -0.70998239074E+01  0.84468477642E+01  0.51100000000E-03 0.  1.
        -12    1    4    4    0    0 -0.74419854270E+01  0.49560331360E+01 -0.21410622607E+02  0.23202589769E+02  0.00000000000E+00 0.  1.
</event>
<event>
 8    1  0.2482403E-006  0.9118800E+02  0.7816164E-02  0.1184000E+00
        -11   -1    0    0    0    0  0.00000000000E+00  0.00000000000E+00  0.45593999997E+02  0.45594000000E+02  0.51100000000E-03 0.  1.
         11   -1    0    0    0    0 -0.00000000000E+00 -0.00000000000E+00 -0.45593999997E+02  0.45594000000E+02  0.51100000000E-03 0. -1.
         23    2    1    2    0    0 -0.35527136788E-14 -0.88817841970E-15  0.00000000000E+00  0.91188000000E+02  0.91188000000E+02 0.  0.
    9900012    2    3    3    0    0 -0.17706399766E+02  0.46618506571E+01 -0.31945744622E+02  0.54367081439E+02  0.39999993757E+02 0.  0.
        -12    1    3    3    0    0  0.17706399766E+02 -0.46618506571E+01  0.31945744622E+02  0.36820918561E+02  0.00000000000E+00 0.  1.
         11    1    4    4    0    0 -0.18222372476E+02 -0.37101822204E+01 -0.53054945173E+01  0.19338267324E+02  0.51100000000E-03 0. -1.
        -11    1    4    4    0    0  0.58838464192E+01 -0.47860124137E+01 -0.48118408385E+01  0.89821698951E+01  0.51100000000E-03 0.  1.
         12    1    4    4    0    0 -0.53678737095E+01  0.13158045291E+02 -0.21828409266E+02  0.26046644220E+02  0.00000000000E+00 0. -1.
</event>
<event>
 8    1  0.2482403E-006  0.9118800E+02  0.7816164E-02  0.1184000E+00
        -11   -1    0    0    0    0  0.00000000000E+00  0.00000000000E+00  0.45593999997E+02  0.45594000000E+02  0.51100000000E-03 0.  1.
         11   -1    0    0    0    0 -0.00000000000E+00 -0.00000000000E+00 -0.45593999997E+02  0.45594000000E+02  0.51100000000E-03 0. -1.
         23    2    1    2    0    0  0.71054273576E-14 -0.35527136788E-14  0.00000000000E+00  0.91188000000E+02  0.91188000000E+02 0.  0.
    9900012    2    3    3    0    0  0.32041813871E+02 -0.17965395664E+02  0.25191329265E+01  0.54367091426E+02  0.40000016524E+02 0.  0.
        -12    1    3    3    0    0 -0.32041813871E+02  0.17965395664E+02 -0.25191329265E+01  0.36820908574E+02  0.00000000000E+00 0.  1.
         11    1    4    4    0    0 -0.36002314736E+01  0.54396690630E-01 -0.87889155048E+01  0.94978766930E+01  0.51100000000E-03 0. -1.
        -11    1    4    4    0    0  0.17737028061E+02  0.35289307276E+00  0.53876958512E+01  0.18540603140E+02  0.51100000000E-03 0.  1.
         12    1    4    4    0    0  0.17905017284E+02 -0.18372685427E+02  0.59203525801E+01  0.26328611593E+02  0.00000000000E+00 0. -1.
</event>
<event>
 8    1  0.2482403E-006  0.9118800E+02  0.7816164E-02  0.1184000E+00
        -11   -1    0    0    0    0  0.00000000000E+00  0.00000000000E+00  0.45593999997E+02  0.45594000000E+02  0.51100000000E-03 0. -1.
         11   -1    0    0    0    0 -0.00000000000E+00 -0.00000000000E+00 -0.45593999997E+02  0.45594000000E+02  0.51100000000E-03 0.  1.
         23    2    1    2    0    0  0.00000000000E+00  0.00000000000E+00  0.00000000000E+00  0.91188000000E+02  0.91188000000E+02 0.  0.
    9900012    2    3    3    0    0  0.35826249423E+00  0.31748045168E+02 -0.18647219866E+02  0.54367006902E+02  0.39999823834E+02 0.  0.
         12    1    3    3    0    0 -0.35826249423E+00 -0.31748045168E+02  0.18647219866E+02  0.36820993098E+02  0.00000000000E+00 0. -1.
         11    1    4    4    0    0  0.16038759172E+01  0.14351463387E+00  0.54430990491E+00  0.16997905582E+01  0.51100000000E-03 0. -1.
        -11    1    4    4    0    0  0.14879811781E+01  0.29615359352E+02  0.33792549813E+01  0.29844647125E+02  0.51100000000E-03 0.  1.
        -12    1    4    4    0    0 -0.27335946011E+01  0.19891711825E+01 -0.22570784752E+02  0.22822569219E+02  0.00000000000E+00 0.  1.
</event>
<event>
 8    1  0.2482403E-006  0.9118800E+02  0.7816164E-02  0.1184000E+00
        -11   -1    0    0    0    0  0.00000000000E+00  0.00000000000E+00  0.45593999997E+02  0.45594000000E+02  0.51100000000E-03 0. -1.
         11   -1    0    0    0    0 -0.00000000000E+00 -0.00000000000E+00 -0.45593999997E+02  0.45594000000E+02  0.51100000000E-03 0.  1.
         23    2    1    2    0    0 -0.35527136788E-14 -0.17763568394E-14 -0.35527136788E-14  0.91188000000E+02  0.91188000000E+02 0.  0.
    9900012    2    3    3    0    0 -0.22396326003E+02 -0.15418129829E+02 -0.24828751964E+02  0.54367067503E+02  0.39999961986E+02 0.  0.
         12    1    3    3    0    0  0.22396326003E+02  0.15418129829E+02  0.24828751964E+02  0.36820932497E+02  0.00000000000E+00 0. -1.
         11    1    4    4    0    0 -0.11592014784E+02 -0.15378030134E+02  0.36255436192E+01  0.19595999193E+02  0.51100000000E-03 0. -1.
        -11    1    4    4    0    0 -0.35312999562E+01 -0.82168065696E+01 -0.11101720690E+02  0.14256023012E+02  0.51100000000E-03 0.  1.
         12    1    4    4    0    0 -0.72730112624E+01  0.81767068747E+01 -0.17352574893E+02  0.20515045298E+02  0.00000000000E+00 0. -1.
</event>
<event>
 8    1  0.2482403E-006  0.9118800E+02  0.7816164E-02  0.1184000E+00
        -11   -1    0    0    0    0  0.00000000000E+00  0.00000000000E+00  0.45593999997E+02  0.45594000000E+02  0.51100000000E-03 0.  1.
         11   -1    0    0    0    0 -0.00000000000E+00 -0.00000000000E+00 -0.45593999997E+02  0.45594000000E+02  0.51100000000E-03 0. -1.
         23    2    1    2    0    0  0.44408920985E-15  0.00000000000E+00  0.00000000000E+00  0.91188000000E+02  0.91188000000E+02 0.  0.
    9900012    2    3    3    0    0 -0.24342491524E+01 -0.34819269613E+02 -0.11724847283E+02  0.54367093586E+02  0.40000021447E+02 0.  0.
         12    1    3    3    0    0  0.24342491524E+01  0.34819269613E+02  0.11724847283E+02  0.36820906414E+02  0.00000000000E+00 0. -1.
         11    1    4    4    0    0 -0.14298370882E+01  0.37363069154E+00 -0.16065352207E+02  0.16133182445E+02  0.51100000000E-03 0. -1.
        -11    1    4    4    0    0  0.62168369445E+01 -0.14421349332E+02  0.41448450885E+01  0.16242047876E+02  0.51100000000E-03 0.  1.
        -12    1    4    4    0    0 -0.72212490087E+01 -0.20771550973E+02  0.19565983547E+00  0.21991863264E+02  0.00000000000E+00 0.  1.
</event>
<event>
 8    1  0.2482403E-006  0.9118800E+02  0.7816164E-02  0.1184000E+00
        -11   -1    0    0    0    0  0.00000000000E+00  0.00000000000E+00  0.45593999997E+02  0.45594000000E+02  0.51100000000E-03 0.  1.
         11   -1    0    0    0    0 -0.00000000000E+00 -0.00000000000E+00 -0.45593999997E+02  0.45594000000E+02  0.51100000000E-03 0. -1.
         23    2    1    2    0    0  0.00000000000E+00  0.00000000000E+00 -0.35527136788E-14  0.91188000000E+02  0.91188000000E+02 0.  0.
    9900012    2    3    3    0    0 -0.24397091409E+02  0.14967582145E+02  0.23163190724E+02  0.54367082181E+02  0.39999995449E+02 0.  0.
         12    1    3    3    0    0  0.24397091409E+02 -0.14967582145E+02 -0.23163190724E+02  0.36820917819E+02  0.00000000000E+00 0. -1.
         11    1    4    4    0    0 -0.89038355398E+01  0.16968699698E+02 -0.26834787601E+01  0.19349835019E+02  0.51100000000E-03 0. -1.
        -11    1    4    4    0    0  0.29990549883E+01  0.17495685251E+01  0.92780737403E+01  0.99064611965E+01  0.51100000000E-03 0.  1.
        -12    1    4    4    0    0 -0.18492310857E+02 -0.37506860771E+01  0.16568595744E+02  0.25110785966E+02  0.00000000000E+00 0.  1.
</event>
<event>
 8    1  0.2482403E-006  0.9118800E+02  0.7816164E-02  0.1184000E+00
        -11   -1    0    0    0    0  0.00000000000E+00  0.00000000000E+00  0.45593999997E+02  0.45594000000E+02  0.51100000000E-03 0. -1.
         11   -1    0    0    0    0 -0.00000000000E+00 -0.00000000000E+00 -0.45593999997E+02  0.45594000000E+02  0.51100000000E-03 0.  1.
         23    2    1    2    0    0 -0.71054273576E-14  0.00000000000E+00 -0.17763568394E-14  0.91188000000E+02  0.91188000000E+02 0.  0.
    9900012    2    3    3    0    0 -0.32577258760E+02 -0.14377452013E+02 -0.93697384734E+01  0.54367069624E+02  0.39999966823E+02 0.  0.
         12    1    3    3    0    0  0.32577258760E+02  0.14377452013E+02  0.93697384734E+01  0.36820930376E+02  0.00000000000E+00 0. -1.
         11    1    4    4    0    0 -0.20725725274E+02 -0.56438224826E+01  0.89936691317E+01  0.23287217632E+02  0.51100000000E-03 0. -1.
        -11    1    4    4    0    0 -0.37401476860E+01 -0.33299755243E+01  0.41778906047E+01  0.65216724750E+01  0.51100000000E-03 0.  1.
        -12    1    4    4    0    0 -0.81113857999E+01 -0.54036540059E+01 -0.22541298210E+02  0.24558179517E+02  0.00000000000E+00 0.  1.
</event>
<event>
 8    1  0.2482403E-006  0.9118800E+02  0.7816164E-02  0.1184000E+00
        -11   -1    0    0    0    0  0.00000000000E+00  0.00000000000E+00  0.45593999997E+02  0.45594000000E+02  0.51100000000E-03 0. -1.
         11   -1    0    0    0    0 -0.00000000000E+00 -0.00000000000E+00 -0.45593999997E+02  0.45594000000E+02  0.51100000000E-03 0.  1.
         23    2    1    2    0    0 -0.35527136788E-14 -0.22204460493E-15  0.00000000000E+00  0.91188000000E+02  0.91188000000E+02 0.  0.
    9900012    2    3    3    0    0  0.30293198047E+02 -0.19349684892E+01  0.20841285706E+02  0.54367066540E+02  0.39999959792E+02 0.  0.
        -12    1    3    3    0    0 -0.30293198047E+02  0.19349684892E+01 -0.20841285706E+02  0.36820933460E+02  0.00000000000E+00 0.  1.
         11    1    4    4    0    0  0.28099232569E+02  0.53524491593E+01  0.20745067849E+02  0.35335158458E+02  0.51100000000E-03 0. -1.
        -11    1    4    4    0    0  0.83749645460E+01 -0.49651404768E+01 -0.47581443485E+01  0.10836631811E+02  0.51100000000E-03 0.  1.
         12    1    4    4    0    0 -0.61809990678E+01 -0.23222771718E+01  0.48543622056E+01  0.81952762713E+01  0.00000000000E+00 0. -1.
</event>
<event>
 8    1  0.2482403E-006  0.9118800E+02  0.7816164E-02  0.1184000E+00
        -11   -1    0    0    0    0  0.00000000000E+00  0.00000000000E+00  0.45593999997E+02  0.45594000000E+02  0.51100000000E-03 0. -1.
         11   -1    0    0    0    0 -0.00000000000E+00 -0.00000000000E+00 -0.45593999997E+02  0.45594000000E+02  0.51100000000E-03 0.  1.
         23    2    1    2    0    0  0.00000000000E+00  0.00000000000E+00  0.00000000000E+00  0.91188000000E+02  0.91188000000E+02 0.  0.
    9900012    2    3    3    0    0 -0.29390426095E+02 -0.21308257454E+02 -0.61594833553E+01  0.54367106244E+02  0.40000050304E+02 0.  0.
         12    1    3    3    0    0  0.29390426095E+02  0.21308257454E+02  0.61594833553E+01  0.36820893756E+02  0.00000000000E+00 0. -1.
         11    1    4    4    0    0 -0.23515138981E+01 -0.19343584157E+02 -0.38272043200E+01  0.19858281869E+02  0.51100000000E-03 0. -1.
        -11    1    4    4    0    0 -0.21640227199E+02 -0.76374040322E+01  0.53229439200E+01  0.23557654930E+02  0.51100000000E-03 0.  1.
         12    1    4    4    0    0 -0.53986849987E+01  0.56727307348E+01 -0.76552229553E+01  0.10951169444E+02  0.00000000000E+00 0. -1.
</event>
<event>
 8    1  0.2482403E-006  0.9118800E+02  0.7816164E-02  0.1184000E+00
        -11   -1    0    0    0    0  0.00000000000E+00  0.00000000000E+00  0.45593999997E+02  0.45594000000E+02  0.51100000000E-03 0. -1.
         11   -1    0    0    0    0 -0.00000000000E+00 -0.00000000000E+00 -0.45593999997E+02  0.45594000000E+02  0.51100000000E-03 0.  1.
         23    2    1    2    0    0 -0.44408920985E-15  0.00000000000E+00  0.00000000000E+00  0.91188000000E+02  0.91188000000E+02 0.  0.
    9900012    2    3    3    0    0  0.19554953486E+01 -0.65561873091E+00  0.36763088493E+02  0.54367102761E+02  0.40000042363E+02 0.  0.
        -12    1    3    3    0    0 -0.19554953486E+01  0.65561873091E+00 -0.36763088493E+02  0.36820897239E+02  0.00000000000E+00 0.  1.
         11    1    4    4    0    0 -0.48291016214E+01  0.34044746491E+01  0.61630103903E+01  0.85377612662E+01  0.51100000000E-03 0.  1.
        -11    1    4    4    0    0  0.35020884182E+01 -0.18555895345E+02  0.20428503798E+02  0.27819231532E+02  0.51100000000E-03 0. -1.
         12    1    4    4    0    0  0.32825085519E+01  0.14495801965E+02  0.10171574305E+02  0.18010109962E+02  0.00000000000E+00 0. -1.
</event>
<event>
 8    1  0.2482403E-006  0.9118800E+02  0.7816164E-02  0.1184000E+00
        -11   -1    0    0    0    0  0.00000000000E+00  0.00000000000E+00  0.45593999997E+02  0.45594000000E+02  0.51100000000E-03 0. -1.
         11   -1    0    0    0    0 -0.00000000000E+00 -0.00000000000E+00 -0.45593999997E+02  0.45594000000E+02  0.51100000000E-03 0.  1.
         23    2    1    2    0    0  0.00000000000E+00  0.35527136788E-14  0.00000000000E+00  0.91188000000E+02  0.91188000000E+02 0.  0.
    9900012    2    3    3    0    0  0.25088449795E+02  0.17466441193E+02  0.20524942693E+02  0.54367079946E+02  0.39999990352E+02 0.  0.
        -12    1    3    3    0    0 -0.25088449795E+02 -0.17466441193E+02 -0.20524942693E+02  0.36820920054E+02  0.00000000000E+00 0.  1.
         11    1    4    4    0    0 -0.34128873004E+01  0.51074636858E+01 -0.34238495999E+01  0.70325479999E+01  0.51100000000E-03 0. -1.
        -11    1    4    4    0    0  0.13344249311E+02 -0.66247461145E+01  0.15789203810E+02  0.21708413300E+02  0.51100000000E-03 0.  1.
        -12    1    4    4    0    0  0.15157087785E+02  0.18983723622E+02  0.81595884822E+01  0.25626118646E+02  0.00000000000E+00 0.  1.
</event>
<event>
 8    1  0.2482403E-006  0.9118800E+02  0.7816164E-02  0.1184000E+00
        -11   -1    0    0    0    0  0.00000000000E+00  0.00000000000E+00  0.45593999997E+02  0.45594000000E+02  0.51100000000E-03 0.  1.
         11   -1    0    0    0    0 -0.00000000000E+00 -0.00000000000E+00 -0.45593999997E+02  0.45594000000E+02  0.51100000000E-03 0. -1.
         23    2    1    2    0    0 -0.35527136788E-14  0.00000000000E+00  0.00000000000E+00  0.91188000000E+02  0.91188000000E+02 0.  0.
    9900012    2    3    3    0    0 -0.21854811300E+02  0.99300420539E+01  0.27920261820E+02  0.54367088383E+02  0.40000009588E+02 0.  0.
         12    1    3    3    0    0  0.21854811300E+02 -0.99300420539E+01 -0.27920261820E+02  0.36820911617E+02  0.00000000000E+00 0. -1.
         11    1    4    4    0    0 -0.18739377959E+02  0.48814118172E+01  0.58293483967E+01  0.20223099926E+02  0.51100000000E-03 0. -1.
        -11    1    4    4    0    0  0.20265311156E+01  0.34752233927E+01 -0.50607763202E+01  0.64649410837E+01  0.51100000000E-03 0.  1.
        -12    1    4    4    0    0 -0.51419644564E+01  0.15734068441E+01  0.27151689744E+02  0.27679047374E+02  0.00000000000E+00 0.  1.
</event>
<event>
 8    1  0.2482403E-006  0.9118800E+02  0.7816164E-02  0.1184000E+00
        -11   -1    0    0    0    0  0.00000000000E+00  0.00000000000E+00  0.45593999997E+02  0.45594000000E+02  0.51100000000E-03 0.  1.
         11   -1    0    0    0    0 -0.00000000000E+00 -0.00000000000E+00 -0.45593999997E+02  0.45594000000E+02  0.51100000000E-03 0. -1.
         23    2    1    2    0    0  0.00000000000E+00  0.00000000000E+00  0.35527136788E-14  0.91188000000E+02  0.91188000000E+02 0.  0.
    9900012    2    3    3    0    0 -0.29109576350E+02 -0.83506255445E+01 -0.20944716082E+02  0.54367061473E+02  0.39999948240E+02 0.  0.
        -12    1    3    3    0    0  0.29109576350E+02  0.83506255445E+01  0.20944716082E+02  0.36820938527E+02  0.00000000000E+00 0.  1.
         11    1    4    4    0    0 -0.54653134463E+00 -0.40991044585E+01  0.53247122647E+00  0.41695179266E+01  0.51100000000E-03 0. -1.
        -11    1    4    4    0    0 -0.68766230633E+01  0.24373130517E+01  0.93863315564E+01  0.11888299290E+02  0.51100000000E-03 0.  1.
         12    1    4    4    0    0 -0.21686421942E+02 -0.66888341378E+01 -0.30863518865E+02  0.38309244256E+02  0.00000000000E+00 0. -1.
</event>
<event>
 8    1  0.2482403E-006  0.9118800E+02  0.7816164E-02  0.1184000E+00
        -11   -1    0    0    0    0  0.00000000000E+00  0.00000000000E+00  0.45593999997E+02  0.45594000000E+02  0.51100000000E-03 0.  1.
         11   -1    0    0    0    0 -0.00000000000E+00 -0.00000000000E+00 -0.45593999997E+02  0.45594000000E+02  0.51100000000E-03 0. -1.
         23    2    1    2    0    0  0.00000000000E+00  0.00000000000E+00  0.00000000000E+00  0.91188000000E+02  0.91188000000E+02 0.  0.
    9900012    2    3    3    0    0  0.12519019118E+02 -0.20890637825E+01 -0.34564333883E+02  0.54367038525E+02  0.39999895926E+02 0.  0.
        -12    1    3    3    0    0 -0.12519019118E+02  0.20890637825E+01  0.34564333883E+02  0.36820961475E+02  0.00000000000E+00 0.  1.
         11    1    4    4    0    0  0.19212047503E+01 -0.19841290511E+01 -0.16262979833E+02  0.16495827021E+02  0.51100000000E-03 0. -1.
        -11    1    4    4    0    0  0.89658271073E+01  0.22956901245E+01  0.74966958635E+01  0.11910360952E+02  0.51100000000E-03 0.  1.
        -12    1    4    4    0    0  0.16319872600E+01 -0.24006248560E+01 -0.25798049913E+02  0.25960850553E+02  0.00000000000E+00 0.  1.
</event>
<event>
 8    1  0.2482403E-006  0.9118800E+02  0.7816164E-02  0.1184000E+00
        -11   -1    0    0    0    0  0.00000000000E+00  0.00000000000E+00  0.45593999997E+02  0.45594000000E+02  0.51100000000E-03 0.  1.
         11   -1    0    0    0    0 -0.00000000000E+00 -0.00000000000E+00 -0.45593999997E+02  0.45594000000E+02  0.51100000000E-03 0. -1.
         23    2    1    2    0    0  0.00000000000E+00 -0.17763568394E-14  0.35527136788E-14  0.91188000000E+02  0.91188000000E+02 0.  0.
    9900012    2    3    3    0    0  0.27401116120E+02 -0.12292135945E+02  0.21303834067E+02  0.54367202661E+02  0.40000270105E+02 0.  0.
         12    1    3    3    0    0 -0.27401116120E+02  0.12292135945E+02 -0.21303834067E+02  0.36820797339E+02  0.00000000000E+00 0. -1.
         11    1    4    4    0    0  0.74470767978E+01 -0.15476015658E+02 -0.44832336455E+01  0.17750081624E+02  0.51100000000E-03 0. -1.
        -11    1    4    4    0    0  0.10828172803E+02  0.58870442603E+01  0.41933290362E+01  0.13018856518E+02  0.51100000000E-03 0.  1.
        -12    1    4    4    0    0  0.91258665192E+01 -0.27031645482E+01  0.21593738676E+02  0.23598264519E+02  0.00000000000E+00 0.  1.
</event>
<event>
 8    1  0.2482403E-006  0.9118800E+02  0.7816164E-02  0.1184000E+00
        -11   -1    0    0    0    0  0.00000000000E+00  0.00000000000E+00  0.45593999997E+02  0.45594000000E+02  0.51100000000E-03 0.  1.
         11   -1    0    0    0    0 -0.00000000000E+00 -0.00000000000E+00 -0.45593999997E+02  0.45594000000E+02  0.51100000000E-03 0. -1.
         23    2    1    2    0    0  0.17763568394E-14 -0.88817841970E-15  0.00000000000E+00  0.91188000000E+02  0.91188000000E+02 0.  0.
    9900012    2    3    3    0    0  0.13679267156E+02  0.56258267859E+01 -0.33719547926E+02  0.54367079461E+02  0.39999989248E+02 0.  0.
        -12    1    3    3    0    0 -0.13679267156E+02 -0.56258267859E+01  0.33719547926E+02  0.36820920539E+02  0.00000000000E+00 0.  1.
         11    1    4    4    0    0 -0.57308453510E+01  0.46777354685E+01  0.46604930992E+01  0.87432255912E+01  0.51100000000E-03 0. -1.
        -11    1    4    4    0    0  0.93173850628E+00 -0.39754402409E+01 -0.14315100850E+02  0.14886046298E+02  0.51100000000E-03 0.  1.
         12    1    4    4    0    0  0.18478374001E+02  0.49235315583E+01 -0.24064940175E+02  0.30737807572E+02  0.00000000000E+00 0. -1.
</event>
<event>
 8    1  0.2482403E-006  0.9118800E+02  0.7816164E-02  0.1184000E+00
        -11   -1    0    0    0    0  0.00000000000E+00  0.00000000000E+00  0.45593999997E+02  0.45594000000E+02  0.51100000000E-03 0. -1.
         11   -1    0    0    0    0 -0.00000000000E+00 -0.00000000000E+00 -0.45593999997E+02  0.45594000000E+02  0.51100000000E-03 0.  1.
         23    2    1    2    0    0  0.00000000000E+00  0.00000000000E+00  0.35527136788E-14  0.91188000000E+02  0.91188000000E+02 0.  0.
    9900012    2    3    3    0    0  0.29524973717E+02  0.72276050544E+01  0.20780137708E+02  0.54367129954E+02  0.40000104356E+02 0.  0.
        -12    1    3    3    0    0 -0.29524973717E+02 -0.72276050544E+01 -0.20780137708E+02  0.36820870046E+02  0.00000000000E+00 0.  1.
         11    1    4    4    0    0 -0.31660701120E+01 -0.56849968189E+01  0.67549605524E+01  0.93793753049E+01  0.51100000000E-03 0. -1.
        -11    1    4    4    0    0 -0.36690087932E+01 -0.53164025881E+00 -0.15273116468E+00  0.37104708541E+01  0.51100000000E-03 0.  1.
        -12    1    4    4    0    0  0.36360052622E+02  0.13444242132E+02  0.14177908320E+02  0.41277283795E+02  0.00000000000E+00 0.  1.
</event>
<event>
 8    1  0.2482403E-006  0.9118800E+02  0.7816164E-02  0.1184000E+00
        -11   -1    0    0    0    0  0.00000000000E+00  0.00000000000E+00  0.45593999997E+02  0.45594000000E+02  0.51100000000E-03 0. -1.
         11   -1    0    0    0    0 -0.00000000000E+00 -0.00000000000E+00 -0.45593999997E+02  0.45594000000E+02  0.51100000000E-03 0.  1.
         23    2    1    2    0    0 -0.88817841970E-15 -0.17763568394E-14  0.71054273576E-14  0.91188000000E+02  0.91188000000E+02 0.  0.
    9900012    2    3    3    0    0 -0.46488721172E+01  0.93507711318E+01  0.35309086526E+02  0.54367074917E+02  0.39999978888E+02 0.  0.
        -12    1    3    3    0    0  0.46488721172E+01 -0.93507711318E+01 -0.35309086526E+02  0.36820925083E+02  0.00000000000E+00 0.  1.
         11    1    4    4    0    0  0.60055562887E+01 -0.92212837941E+01  0.18299672571E+02  0.21353613222E+02  0.51100000000E-03 0. -1.
        -11    1    4    4    0    0 -0.35970000204E+01 -0.30215201688E+01  0.10902013423E+00  0.46989231668E+01  0.51100000000E-03 0.  1.
         12    1    4    4    0    0 -0.70574283855E+01  0.21593575095E+02  0.16900393820E+02  0.28314538528E+02  0.00000000000E+00 0. -1.
</event>
<event>
 8    1  0.2482403E-006  0.9118800E+02  0.7816164E-02  0.1184000E+00
        -11   -1    0    0    0    0  0.00000000000E+00  0.00000000000E+00  0.45593999997E+02  0.45594000000E+02  0.51100000000E-03 0.  1.
         11   -1    0    0    0    0 -0.00000000000E+00 -0.00000000000E+00 -0.45593999997E+02  0.45594000000E+02  0.51100000000E-03 0. -1.
         23    2    1    2    0    0  0.00000000000E+00  0.35527136788E-14 -0.35527136788E-14  0.91188000000E+02  0.91188000000E+02 0.  0.
    9900012    2    3    3    0    0  0.19690961238E+02  0.27185860559E+02 -0.15131940233E+02  0.54367074101E+02  0.39999977028E+02 0.  0.
        -12    1    3    3    0    0 -0.19690961238E+02 -0.27185860559E+02  0.15131940233E+02  0.36820925899E+02  0.00000000000E+00 0.  1.
         11    1    4    4    0    0 -0.46709206098E+01  0.41310754287E+01 -0.43038518187E+01  0.75767027313E+01  0.51100000000E-03 0. -1.
        -11    1    4    4    0    0 -0.76392925807E+00  0.51452801641E+00  0.80587067359E+01  0.81111701688E+01  0.51100000000E-03 0.  1.
         12    1    4    4    0    0  0.25125811106E+02  0.22540257114E+02 -0.18886795150E+02  0.38679201201E+02  0.00000000000E+00 0. -1.
</event>
<event>
 8    1  0.2482403E-006  0.9118800E+02  0.7816164E-02  0.1184000E+00
        -11   -1    0    0    0    0  0.00000000000E+00  0.00000000000E+00  0.45593999997E+02  0.45594000000E+02  0.51100000000E-03 0.  1.
         11   -1    0    0    0    0 -0.00000000000E+00 -0.00000000000E+00 -0.45593999997E+02  0.45594000000E+02  0.51100000000E-03 0. -1.
         23    2    1    2    0    0 -0.88817841970E-15  0.00000000000E+00  0.00000000000E+00  0.91188000000E+02  0.91188000000E+02 0.  0.
    9900012    2    3    3    0    0 -0.31592609086E+01 -0.33181708019E+02  0.15645229919E+02  0.54367083448E+02  0.39999998335E+02 0.  0.
         12    1    3    3    0    0  0.31592609086E+01  0.33181708019E+02 -0.15645229919E+02  0.36820916552E+02  0.00000000000E+00 0. -1.
         11    1    4    4    0    0  0.61605043431E+01  0.63155445391E+00 -0.65720806425E+01  0.90301117946E+01  0.51100000000E-03 0.  1.
        -11    1    4    4    0    0 -0.11481612583E+01 -0.22891721054E+02  0.51558361242E+01  0.23493229099E+02  0.51100000000E-03 0. -1.
        -12    1    4    4    0    0 -0.81716039934E+01 -0.10921541418E+02  0.17061474437E+02  0.21843742554E+02  0.00000000000E+00 0.  1.
</event>
<event>
 8    1  0.2482403E-006  0.9118800E+02  0.7816164E-02  0.1184000E+00
        -11   -1    0    0    0    0  0.00000000000E+00  0.00000000000E+00  0.45593999997E+02  0.45594000000E+02  0.51100000000E-03 0.  1.
         11   -1    0    0    0    0 -0.00000000000E+00 -0.00000000000E+00 -0.45593999997E+02  0.45594000000E+02  0.51100000000E-03 0. -1.
         23    2    1    2    0    0 -0.24424906542E-14  0.44408920985E-15  0.71054273576E-14  0.91188000000E+02  0.91188000000E+02 0.  0.
    9900012    2    3    3    0    0 -0.15711527964E+01 -0.13607970643E+01 -0.36762230599E+02  0.54367056390E+02  0.39999936651E+02 0.  0.
        -12    1    3    3    0    0  0.15711527964E+01  0.13607970643E+01  0.36762230599E+02  0.36820943610E+02  0.00000000000E+00 0.  1.
         11    1    4    4    0    0 -0.95908547277E+00  0.12111420531E+02 -0.24584183597E+02  0.27422407546E+02  0.51100000000E-03 0.  1.
        -11    1    4    4    0    0  0.91181316389E+01 -0.71150369410E+01 -0.96201948603E+01  0.15043677232E+02  0.51100000000E-03 0. -1.
        -12    1    4    4    0    0 -0.97301989626E+01 -0.63571806544E+01 -0.25578521420E+01  0.11900971612E+02  0.00000000000E+00 0.  1.
</event>
<event>
 8    1  0.2482403E-006  0.9118800E+02  0.7816164E-02  0.1184000E+00
        -11   -1    0    0    0    0  0.00000000000E+00  0.00000000000E+00  0.45593999997E+02  0.45594000000E+02  0.51100000000E-03 0.  1.
         11   -1    0    0    0    0 -0.00000000000E+00 -0.00000000000E+00 -0.45593999997E+02  0.45594000000E+02  0.51100000000E-03 0. -1.
         23    2    1    2    0    0  0.35527136788E-14  0.35527136788E-14  0.00000000000E+00  0.91188000000E+02  0.91188000000E+02 0.  0.
    9900012    2    3    3    0    0  0.12949223005E+02  0.23951331395E+02  0.24787716023E+02  0.54367088582E+02  0.40000010040E+02 0.  0.
        -12    1    3    3    0    0 -0.12949223005E+02 -0.23951331395E+02 -0.24787716023E+02  0.36820911418E+02  0.00000000000E+00 0.  1.
         11    1    4    4    0    0  0.13062716204E+02  0.14696940140E+01 -0.45221863707E+01  0.13901249042E+02  0.51100000000E-03 0. -1.
        -11    1    4    4    0    0  0.52883781962E+01  0.13917650150E+02  0.80676666293E+01  0.16933847016E+02  0.51100000000E-03 0.  1.
        -12    1    4    4    0    0 -0.54018713945E+01  0.85639872311E+01  0.21242235764E+02  0.23531992523E+02  0.00000000000E+00 0.  1.
</event>
<event>
 8    1  0.2482403E-006  0.9118800E+02  0.7816164E-02  0.1184000E+00
        -11   -1    0    0    0    0  0.00000000000E+00  0.00000000000E+00  0.45593999997E+02  0.45594000000E+02  0.51100000000E-03 0. -1.
         11   -1    0    0    0    0 -0.00000000000E+00 -0.00000000000E+00 -0.45593999997E+02  0.45594000000E+02  0.51100000000E-03 0.  1.
         23    2    1    2    0    0 -0.88817841970E-15  0.00000000000E+00  0.00000000000E+00  0.91188000000E+02  0.91188000000E+02 0.  0.
    9900012    2    3    3    0    0  0.68327936053E+01 -0.15410641383E+02 -0.32735352684E+02  0.54367105774E+02  0.40000049232E+02 0.  0.
         12    1    3    3    0    0 -0.68327936053E+01  0.15410641383E+02  0.32735352684E+02  0.36820894226E+02  0.00000000000E+00 0. -1.
         11    1    4    4    0    0  0.11242494243E+02 -0.28918789171E+01 -0.21225960415E+02  0.24192933603E+02  0.51100000000E-03 0. -1.
        -11    1    4    4    0    0 -0.24412660894E+00  0.51508749831E+01  0.38170144378E+01  0.64156613356E+01  0.51100000000E-03 0.  1.
        -12    1    4    4    0    0 -0.41655740290E+01 -0.17669637449E+02 -0.15326406706E+02  0.23758510835E+02  0.00000000000E+00 0.  1.
</event>
<event>
 8    1  0.2482403E-006  0.9118800E+02  0.7816164E-02  0.1184000E+00
        -11   -1    0    0    0    0  0.00000000000E+00  0.00000000000E+00  0.45593999997E+02  0.45594000000E+02  0.51100000000E-03 0. -1.
         11   -1    0    0    0    0 -0.00000000000E+00 -0.00000000000E+00 -0.45593999997E+02  0.45594000000E+02  0.51100000000E-03 0.  1.
         23    2    1    2    0    0  0.00000000000E+00  0.35527136788E-14 -0.88817841970E-15  0.91188000000E+02  0.91188000000E+02 0.  0.
    9900012    2    3    3    0    0 -0.19923057851E+02  0.30399629512E+02 -0.58918350264E+01  0.54367089792E+02  0.40000012798E+02 0.  0.
        -12    1    3    3    0    0  0.19923057851E+02 -0.30399629512E+02  0.58918350264E+01  0.36820910208E+02  0.00000000000E+00 0.  1.
         11    1    4    4    0    0 -0.20037420589E+02  0.20026416232E+02 -0.48139802063E+01  0.28735517685E+02  0.51100000000E-03 0. -1.
        -11    1    4    4    0    0 -0.56078823679E+01  0.53821036545E+01  0.97109932763E+01  0.12438600206E+02  0.51100000000E-03 0.  1.
        -12    1    4    4    0    0  0.57222451052E+01  0.49911096250E+01 -0.10788848096E+02  0.13192971901E+02  0.00000000000E+00 0.  1.
</event>
<event>
 8    1  0.2482403E-006  0.9118800E+02  0.7816164E-02  0.1184000E+00
        -11   -1    0    0    0    0  0.00000000000E+00  0.00000000000E+00  0.45593999997E+02  0.45594000000E+02  0.51100000000E-03 0.  1.
         11   -1    0    0    0    0 -0.00000000000E+00 -0.00000000000E+00 -0.45593999997E+02  0.45594000000E+02  0.51100000000E-03 0. -1.
         23    2    1    2    0    0  0.35527136788E-14 -0.35527136788E-14  0.44408920985E-15  0.91188000000E+02  0.91188000000E+02 0.  0.
    9900012    2    3    3    0    0 -0.31508329583E+02  0.18629106547E+02 -0.39950601853E+01  0.54367096294E+02  0.40000027622E+02 0.  0.
        -12    1    3    3    0    0  0.31508329583E+02 -0.18629106547E+02  0.39950601853E+01  0.36820903706E+02  0.00000000000E+00 0.  1.
         11    1    4    4    0    0 -0.10293678827E+02  0.10192477951E+02 -0.47248265072E+00  0.14493780414E+02  0.51100000000E-03 0. -1.
        -11    1    4    4    0    0 -0.27651340027E+02  0.13718731201E+02 -0.91632588913E-01  0.30867597701E+02  0.51100000000E-03 0.  1.
        -12    1    4    4    0    0  0.64366892708E+01 -0.52821026053E+01 -0.34309449457E+01  0.90057181791E+01  0.00000000000E+00 0.  1.
</event>
<event>
 8    1  0.2482403E-006  0.9118800E+02  0.7816164E-02  0.1184000E+00
        -11   -1    0    0    0    0  0.00000000000E+00  0.00000000000E+00  0.45593999997E+02  0.45594000000E+02  0.51100000000E-03 0. -1.
         11   -1    0    0    0    0 -0.00000000000E+00 -0.00000000000E+00 -0.45593999997E+02  0.45594000000E+02  0.51100000000E-03 0.  1.
         23    2    1    2    0    0  0.71054273576E-14  0.44408920985E-15  0.00000000000E+00  0.91188000000E+02  0.91188000000E+02 0.  0.
    9900012    2    3    3    0    0  0.36528304222E+02 -0.37671953268E+01  0.26964032387E+01  0.54367090718E+02  0.40000014909E+02 0.  0.
        -12    1    3    3    0    0 -0.36528304222E+02  0.37671953268E+01 -0.26964032387E+01  0.36820909282E+02  0.00000000000E+00 0.  1.
         11    1    4    4    0    0  0.75545847017E+01 -0.62132214224E+01  0.13707525597E+02  0.16839600016E+02  0.51100000000E-03 0. -1.
        -11    1    4    4    0    0  0.11285953145E+02 -0.47940881485E+01  0.43464384419E+01  0.13009517553E+02  0.51100000000E-03 0.  1.
        -12    1    4    4    0    0  0.17687766375E+02  0.72401142441E+01 -0.15357560800E+02  0.24517973149E+02  0.00000000000E+00 0.  1.
</event>
<event>
 8    1  0.2482403E-006  0.9118800E+02  0.7816164E-02  0.1184000E+00
        -11   -1    0    0    0    0  0.00000000000E+00  0.00000000000E+00  0.45593999997E+02  0.45594000000E+02  0.51100000000E-03 0.  1.
         11   -1    0    0    0    0 -0.00000000000E+00 -0.00000000000E+00 -0.45593999997E+02  0.45594000000E+02  0.51100000000E-03 0. -1.
         23    2    1    2    0    0 -0.35527136788E-14 -0.88817841970E-15  0.00000000000E+00  0.91188000000E+02  0.91188000000E+02 0.  0.
    9900012    2    3    3    0    0  0.17129282898E+02 -0.35492883849E+01  0.32400177116E+02  0.54367064952E+02  0.39999956172E+02 0.  0.
         12    1    3    3    0    0 -0.17129282898E+02  0.35492883849E+01 -0.32400177116E+02  0.36820935048E+02  0.00000000000E+00 0. -1.
         11    1    4    4    0    0 -0.14876136697E+01 -0.14754362600E+02  0.47246498200E+01  0.15563628316E+02  0.51100000000E-03 0. -1.
        -11    1    4    4    0    0  0.50798206386E+01 -0.33949855470E+01  0.22524392997E+01  0.65118344301E+01  0.51100000000E-03 0.  1.
        -12    1    4    4    0    0  0.13537075929E+02  0.14600059762E+02  0.25423087996E+02  0.32291602206E+02  0.00000000000E+00 0.  1.
</event>
<event>
 8    1  0.2482403E-006  0.9118800E+02  0.7816164E-02  0.1184000E+00
        -11   -1    0    0    0    0  0.00000000000E+00  0.00000000000E+00  0.45593999997E+02  0.45594000000E+02  0.51100000000E-03 0. -1.
         11   -1    0    0    0    0 -0.00000000000E+00 -0.00000000000E+00 -0.45593999997E+02  0.45594000000E+02  0.51100000000E-03 0.  1.
         23    2    1    2    0    0  0.00000000000E+00  0.88817841970E-15  0.00000000000E+00  0.91188000000E+02  0.91188000000E+02 0.  0.
    9900012    2    3    3    0    0 -0.22961113687E+02  0.60692466971E+01 -0.28137720323E+02  0.54367084718E+02  0.40000001231E+02 0.  0.
         12    1    3    3    0    0  0.22961113687E+02 -0.60692466971E+01  0.28137720323E+02  0.36820915282E+02  0.00000000000E+00 0. -1.
         11    1    4    4    0    0 -0.16329278575E+02 -0.14425084484E+01 -0.19140864567E+02  0.25201167950E+02  0.51100000000E-03 0. -1.
        -11    1    4    4    0    0 -0.14232032939E+02 -0.22901812938E+01 -0.10889465531E+01  0.14456192334E+02  0.51100000000E-03 0.  1.
         12    1    4    4    0    0  0.76001978268E+01  0.98019364393E+01 -0.79079092028E+01  0.14709724434E+02  0.00000000000E+00 0. -1.
</event>
<event>
 8    1  0.2482403E-006  0.9118800E+02  0.7816164E-02  0.1184000E+00
        -11   -1    0    0    0    0  0.00000000000E+00  0.00000000000E+00  0.45593999997E+02  0.45594000000E+02  0.51100000000E-03 0. -1.
         11   -1    0    0    0    0 -0.00000000000E+00 -0.00000000000E+00 -0.45593999997E+02  0.45594000000E+02  0.51100000000E-03 0.  1.
         23    2    1    2    0    0  0.13322676296E-14  0.88817841970E-15  0.00000000000E+00  0.91188000000E+02  0.91188000000E+02 0.  0.
    9900012    2    3    3    0    0  0.21698063690E+01 -0.44082805107E+01  0.36491618883E+02  0.54367092279E+02  0.40000018468E+02 0.  0.
        -12    1    3    3    0    0 -0.21698063690E+01  0.44082805107E+01 -0.36491618883E+02  0.36820907721E+02  0.00000000000E+00 0.  1.
         11    1    4    4    0    0 -0.85639698733E+01 -0.37054921354E+01  0.18889335358E+02  0.21068441862E+02  0.51100000000E-03 0. -1.
        -11    1    4    4    0    0  0.29694917254E+01 -0.13033885584E+02  0.59110917657E+01  0.14616465395E+02  0.51100000000E-03 0.  1.
        -12    1    4    4    0    0  0.77642845168E+01  0.12331097209E+02  0.11691191759E+02  0.18682185022E+02  0.00000000000E+00 0.  1.
</event>
<event>
 8    1  0.2482403E-006  0.9118800E+02  0.7816164E-02  0.1184000E+00
        -11   -1    0    0    0    0  0.00000000000E+00  0.00000000000E+00  0.45593999997E+02  0.45594000000E+02  0.51100000000E-03 0. -1.
         11   -1    0    0    0    0 -0.00000000000E+00 -0.00000000000E+00 -0.45593999997E+02  0.45594000000E+02  0.51100000000E-03 0.  1.
         23    2    1    2    0    0 -0.88817841970E-15  0.00000000000E+00  0.00000000000E+00  0.91188000000E+02  0.91188000000E+02 0.  0.
    9900012    2    3    3    0    0 -0.50660804479E+01 -0.16642530623E+02  0.32452110685E+02  0.54367102611E+02  0.40000042021E+02 0.  0.
        -12    1    3    3    0    0  0.50660804479E+01  0.16642530623E+02 -0.32452110685E+02  0.36820897389E+02  0.00000000000E+00 0.  1.
         11    1    4    4    0    0  0.82775866675E+00 -0.15557409955E+02  0.12596249129E+02  0.20034562169E+02  0.51100000000E-03 0. -1.
        -11    1    4    4    0    0  0.23748296800E+01 -0.11286398482E+02  0.17549249887E+02  0.20999970919E+02  0.51100000000E-03 0.  1.
        -12    1    4    4    0    0 -0.82686687946E+01  0.10201277815E+02  0.23066116684E+01  0.13332569523E+02  0.00000000000E+00 0.  1.
</event>
<event>
 8    1  0.2482403E-006  0.9118800E+02  0.7816164E-02  0.1184000E+00
        -11   -1    0    0    0    0  0.00000000000E+00  0.00000000000E+00  0.45593999997E+02  0.45594000000E+02  0.51100000000E-03 0. -1.
         11   -1    0    0    0    0 -0.00000000000E+00 -0.00000000000E+00 -0.45593999997E+02  0.45594000000E+02  0.51100000000E-03 0.  1.
         23    2    1    2    0    0  0.00000000000E+00  0.00000000000E+00  0.00000000000E+00  0.91188000000E+02  0.91188000000E+02 0.  0.
    9900012    2    3    3    0    0  0.25604267254E+02 -0.92495844287E+01  0.24792065366E+02  0.54367084493E+02  0.40000000718E+02 0.  0.
        -12    1    3    3    0    0 -0.25604267254E+02  0.92495844287E+01 -0.24792065366E+02  0.36820915507E+02  0.00000000000E+00 0.  1.
         11    1    4    4    0    0  0.49980650357E+01 -0.14285584429E+02  0.20841677615E+02  0.25757214575E+02  0.51100000000E-03 0. -1.
        -11    1    4    4    0    0 -0.34317958127E+01  0.56979131675E-02 -0.96330674582E+00  0.35644375592E+01  0.51100000000E-03 0.  1.
         12    1    4    4    0    0  0.24037998031E+02  0.50303020870E+01  0.49136944959E+01  0.25045432358E+02  0.00000000000E+00 0. -1.
</event>
<event>
 8    1  0.2482403E-006  0.9118800E+02  0.7816164E-02  0.1184000E+00
        -11   -1    0    0    0    0  0.00000000000E+00  0.00000000000E+00  0.45593999997E+02  0.45594000000E+02  0.51100000000E-03 0.  1.
         11   -1    0    0    0    0 -0.00000000000E+00 -0.00000000000E+00 -0.45593999997E+02  0.45594000000E+02  0.51100000000E-03 0. -1.
         23    2    1    2    0    0 -0.17763568394E-14  0.00000000000E+00  0.35527136788E-14  0.91188000000E+02  0.91188000000E+02 0.  0.
    9900012    2    3    3    0    0 -0.89006767141E+01  0.29803745055E+02 -0.19705177843E+02  0.54367091550E+02  0.40000016808E+02 0.  0.
        -12    1    3    3    0    0  0.89006767141E+01 -0.29803745055E+02  0.19705177843E+02  0.36820908450E+02  0.00000000000E+00 0.  1.
         11    1    4    4    0    0 -0.13344993685E+02  0.30966030241E+02 -0.53012608885E+01  0.34133374468E+02  0.51100000000E-03 0. -1.
        -11    1    4    4    0    0  0.24196366581E+01  0.88253932064E+00  0.21969587171E+01  0.33852836034E+01  0.51100000000E-03 0.  1.
        -12    1    4    4    0    0  0.20246803126E+01 -0.20448245071E+01 -0.16600875671E+02  0.16848433479E+02  0.00000000000E+00 0.  1.
</event>
<event>
 8    1  0.2482403E-006  0.9118800E+02  0.7816164E-02  0.1184000E+00
        -11   -1    0    0    0    0  0.00000000000E+00  0.00000000000E+00  0.45593999997E+02  0.45594000000E+02  0.51100000000E-03 0. -1.
         11   -1    0    0    0    0 -0.00000000000E+00 -0.00000000000E+00 -0.45593999997E+02  0.45594000000E+02  0.51100000000E-03 0.  1.
         23    2    1    2    0    0  0.00000000000E+00  0.00000000000E+00  0.35527136788E-14  0.91188000000E+02  0.91188000000E+02 0.  0.
    9900012    2    3    3    0    0 -0.17200234593E+02  0.20101873148E+02  0.25609509006E+02  0.54367077611E+02  0.39999985029E+02 0.  0.
        -12    1    3    3    0    0  0.17200234593E+02 -0.20101873148E+02 -0.25609509006E+02  0.36820922389E+02  0.00000000000E+00 0.  1.
         11    1    4    4    0    0 -0.33695988742E+01 -0.36372735839E+01  0.18180492971E+02  0.18844476130E+02  0.51100000000E-03 0. -1.
        -11    1    4    4    0    0  0.36121258213E+01  0.48511611453E+00 -0.29162724228E+01  0.46677013292E+01  0.51100000000E-03 0.  1.
         12    1    4    4    0    0 -0.17442761540E+02  0.23254030617E+02  0.10345288458E+02  0.30854900151E+02  0.00000000000E+00 0. -1.
</event>
<event>
 8    1  0.2482403E-006  0.9118800E+02  0.7816164E-02  0.1184000E+00
        -11   -1    0    0    0    0  0.00000000000E+00  0.00000000000E+00  0.45593999997E+02  0.45594000000E+02  0.51100000000E-03 0. -1.
         11   -1    0    0    0    0 -0.00000000000E+00 -0.00000000000E+00 -0.45593999997E+02  0.45594000000E+02  0.51100000000E-03 0.  1.
         23    2    1    2    0    0  0.17763568394E-14  0.71054273576E-14  0.00000000000E+00  0.91188000000E+02  0.91188000000E+02 0.  0.
    9900012    2    3    3    0    0  0.10258319781E+02 -0.32153105973E+02 -0.14721547998E+02  0.54367091214E+02  0.40000016039E+02 0.  0.
         12    1    3    3    0    0 -0.10258319781E+02  0.32153105973E+02  0.14721547998E+02  0.36820908786E+02  0.00000000000E+00 0. -1.
         11    1    4    4    0    0 -0.67869593728E+01  0.14775009805E+01  0.41002642320E+01  0.80658535635E+01  0.51100000000E-03 0. -1.
        -11    1    4    4    0    0  0.11280125732E+02 -0.34414761703E+02 -0.17941568115E+02  0.40416790153E+02  0.51100000000E-03 0.  1.
         12    1    4    4    0    0  0.57651534213E+01  0.78415474970E+00 -0.88024411489E+00  0.58844474969E+01  0.00000000000E+00 0. -1.
</event>
<event>
 8    1  0.2482403E-006  0.9118800E+02  0.7816164E-02  0.1184000E+00
        -11   -1    0    0    0    0  0.00000000000E+00  0.00000000000E+00  0.45593999997E+02  0.45594000000E+02  0.51100000000E-03 0.  1.
         11   -1    0    0    0    0 -0.00000000000E+00 -0.00000000000E+00 -0.45593999997E+02  0.45594000000E+02  0.51100000000E-03 0. -1.
         23    2    1    2    0    0  0.00000000000E+00 -0.35527136788E-14 -0.35527136788E-14  0.91188000000E+02  0.91188000000E+02 0.  0.
    9900012    2    3    3    0    0  0.12095795997E+02 -0.29019418853E+02 -0.19166298707E+02  0.54367055451E+02  0.39999934512E+02 0.  0.
        -12    1    3    3    0    0 -0.12095795997E+02  0.29019418853E+02  0.19166298707E+02  0.36820944549E+02  0.00000000000E+00 0.  1.
         11    1    4    4    0    0 -0.11009546309E+01 -0.63537189734E+01 -0.11820614080E+01  0.65558458894E+01  0.51100000000E-03 0. -1.
        -11    1    4    4    0    0  0.43887309501E+01 -0.28313131676E+02 -0.20182198558E+01  0.28722249152E+02  0.51100000000E-03 0.  1.
        -12    1    4    4    0    0  0.88080196775E+01  0.56474317972E+01 -0.15966017443E+02  0.19088960410E+02  0.00000000000E+00 0.  1.
</event>
<event>
 8    1  0.2482403E-006  0.9118800E+02  0.7816164E-02  0.1184000E+00
        -11   -1    0    0    0    0  0.00000000000E+00  0.00000000000E+00  0.45593999997E+02  0.45594000000E+02  0.51100000000E-03 0.  1.
         11   -1    0    0    0    0 -0.00000000000E+00 -0.00000000000E+00 -0.45593999997E+02  0.45594000000E+02  0.51100000000E-03 0. -1.
         23    2    1    2    0    0  0.00000000000E+00  0.00000000000E+00  0.00000000000E+00  0.91188000000E+02  0.91188000000E+02 0.  0.
    9900012    2    3    3    0    0 -0.15022222624E+01  0.10810544597E+02  0.35166103816E+02  0.54367090128E+02  0.40000013564E+02 0.  0.
         12    1    3    3    0    0  0.15022222624E+01 -0.10810544597E+02 -0.35166103816E+02  0.36820909872E+02  0.00000000000E+00 0. -1.
         11    1    4    4    0    0  0.28229468364E+01 -0.48196083237E+00 -0.81574605888E+01  0.86455467499E+01  0.51100000000E-03 0.  1.
        -11    1    4    4    0    0 -0.32073691331E+01  0.70892115470E-01  0.72941182154E+01  0.79684630419E+01  0.51100000000E-03 0. -1.
        -12    1    4    4    0    0 -0.11177999658E+01  0.11221613314E+02  0.36029446189E+02  0.37753080336E+02  0.00000000000E+00 0.  1.
</event>
<event>
 8    1  0.2482403E-006  0.9118800E+02  0.7816164E-02  0.1184000E+00
        -11   -1    0    0    0    0  0.00000000000E+00  0.00000000000E+00  0.45593999997E+02  0.45594000000E+02  0.51100000000E-03 0. -1.
         11   -1    0    0    0    0 -0.00000000000E+00 -0.00000000000E+00 -0.45593999997E+02  0.45594000000E+02  0.51100000000E-03 0.  1.
         23    2    1    2    0    0  0.17763568394E-14 -0.35527136788E-14 -0.71054273576E-14  0.91188000000E+02  0.91188000000E+02 0.  0.
    9900012    2    3    3    0    0  0.14684408248E+02 -0.25413385065E+02 -0.22233053351E+02  0.54367073241E+02  0.39999975068E+02 0.  0.
         12    1    3    3    0    0 -0.14684408248E+02  0.25413385065E+02  0.22233053351E+02  0.36820926759E+02  0.00000000000E+00 0. -1.
         11    1    4    4    0    0 -0.18163746263E+01 -0.11842238767E+02  0.33034088570E+01  0.12427805363E+02  0.51100000000E-03 0. -1.
        -11    1    4    4    0    0  0.27566197008E+01 -0.17272984377E+02 -0.20242203616E+02  0.26752602658E+02  0.51100000000E-03 0.  1.
         12    1    4    4    0    0  0.13744163173E+02  0.37018380790E+01 -0.52942585917E+01  0.15186665221E+02  0.00000000000E+00 0. -1.
</event>
<event>
 8    1  0.2482403E-006  0.9118800E+02  0.7816164E-02  0.1184000E+00
        -11   -1    0    0    0    0  0.00000000000E+00  0.00000000000E+00  0.45593999997E+02  0.45594000000E+02  0.51100000000E-03 0. -1.
         11   -1    0    0    0    0 -0.00000000000E+00 -0.00000000000E+00 -0.45593999997E+02  0.45594000000E+02  0.51100000000E-03 0.  1.
         23    2    1    2    0    0  0.17763568394E-14 -0.71054273576E-14 -0.71054273576E-14  0.91188000000E+02  0.91188000000E+02 0.  0.
    9900012    2    3    3    0    0  0.76013518425E+01 -0.14088472935E+02 -0.33158858149E+02  0.54367143231E+02  0.40000134623E+02 0.  0.
         12    1    3    3    0    0 -0.76013518425E+01  0.14088472935E+02  0.33158858149E+02  0.36820856769E+02  0.00000000000E+00 0. -1.
         11    1    4    4    0    0 -0.17546971059E+01  0.37689222593E+01 -0.11952487831E+02  0.12654868728E+02  0.51100000000E-03 0. -1.
        -11    1    4    4    0    0  0.15316092704E+01  0.67405640483E+01 -0.12832011036E+02  0.14575374374E+02  0.51100000000E-03 0.  1.
         12    1    4    4    0    0  0.78244396780E+01 -0.24597959243E+02 -0.83743592824E+01  0.27136900129E+02  0.00000000000E+00 0. -1.
</event>
<event>
 8    1  0.2482403E-006  0.9118800E+02  0.7816164E-02  0.1184000E+00
        -11   -1    0    0    0    0  0.00000000000E+00  0.00000000000E+00  0.45593999997E+02  0.45594000000E+02  0.51100000000E-03 0. -1.
         11   -1    0    0    0    0 -0.00000000000E+00 -0.00000000000E+00 -0.45593999997E+02  0.45594000000E+02  0.51100000000E-03 0.  1.
         23    2    1    2    0    0 -0.53290705182E-14  0.00000000000E+00  0.00000000000E+00  0.91188000000E+02  0.91188000000E+02 0.  0.
    9900012    2    3    3    0    0  0.96270014375E+01 -0.55888806478E+01 -0.35097936657E+02  0.54367083374E+02  0.39999998168E+02 0.  0.
         12    1    3    3    0    0 -0.96270014375E+01  0.55888806478E+01  0.35097936657E+02  0.36820916626E+02  0.00000000000E+00 0. -1.
         11    1    4    4    0    0 -0.97621472500E+01  0.10203096935E+00 -0.28411327240E+02  0.30041861545E+02  0.51100000000E-03 0. -1.
        -11    1    4    4    0    0  0.12775378569E+02 -0.93119035813E+01 -0.51809919675E+01  0.16636241279E+02  0.51100000000E-03 0.  1.
         12    1    4    4    0    0  0.66137701191E+01  0.36209919642E+01 -0.15056174496E+01  0.76889805499E+01  0.00000000000E+00 0. -1.
</event>
<event>
 8    1  0.2482403E-006  0.9118800E+02  0.7816164E-02  0.1184000E+00
        -11   -1    0    0    0    0  0.00000000000E+00  0.00000000000E+00  0.45593999997E+02  0.45594000000E+02  0.51100000000E-03 0. -1.
         11   -1    0    0    0    0 -0.00000000000E+00 -0.00000000000E+00 -0.45593999997E+02  0.45594000000E+02  0.51100000000E-03 0.  1.
         23    2    1    2    0    0  0.00000000000E+00  0.00000000000E+00 -0.35527136788E-14  0.91188000000E+02  0.91188000000E+02 0.  0.
    9900012    2    3    3    0    0 -0.25169230450E+02  0.75124984432E+01  0.25804097747E+02  0.54367092151E+02  0.40000018176E+02 0.  0.
        -12    1    3    3    0    0  0.25169230450E+02 -0.75124984432E+01 -0.25804097747E+02  0.36820907849E+02  0.00000000000E+00 0.  1.
         11    1    4    4    0    0 -0.11064441819E+02  0.18596497018E+01 -0.83593473269E+01  0.13991385127E+02  0.51100000000E-03 0. -1.
        -11    1    4    4    0    0 -0.15549773980E+01  0.64557515420E+01  0.21608581511E+02  0.22605872641E+02  0.51100000000E-03 0.  1.
         12    1    4    4    0    0 -0.12549811233E+02 -0.80290280056E+00  0.12554863563E+02  0.17769834383E+02  0.00000000000E+00 0. -1.
</event>
<event>
 8    1  0.2482403E-006  0.9118800E+02  0.7816164E-02  0.1184000E+00
        -11   -1    0    0    0    0  0.00000000000E+00  0.00000000000E+00  0.45593999997E+02  0.45594000000E+02  0.51100000000E-03 0. -1.
         11   -1    0    0    0    0 -0.00000000000E+00 -0.00000000000E+00 -0.45593999997E+02  0.45594000000E+02  0.51100000000E-03 0.  1.
         23    2    1    2    0    0 -0.35527136788E-14  0.44408920985E-15 -0.35527136788E-14  0.91188000000E+02  0.91188000000E+02 0.  0.
    9900012    2    3    3    0    0  0.27175938344E+02  0.13060677959E+01 -0.24810153970E+02  0.54367066036E+02  0.39999958642E+02 0.  0.
         12    1    3    3    0    0 -0.27175938344E+02 -0.13060677959E+01  0.24810153970E+02  0.36820933964E+02  0.00000000000E+00 0. -1.
         11    1    4    4    0    0  0.13123268925E+02  0.28379980732E+01  0.43352767139E+01  0.14109182995E+02  0.51100000000E-03 0. -1.
        -11    1    4    4    0    0  0.19101589175E+02  0.60372561423E-01 -0.29282600166E+02  0.34962051236E+02  0.51100000000E-03 0.  1.
         12    1    4    4    0    0 -0.50489197562E+01 -0.15923028388E+01  0.13716948285E+00  0.52958318046E+01  0.00000000000E+00 0. -1.
</event>
<event>
 8    1  0.2482403E-006  0.9118800E+02  0.7816164E-02  0.1184000E+00
        -11   -1    0    0    0    0  0.00000000000E+00  0.00000000000E+00  0.45593999997E+02  0.45594000000E+02  0.51100000000E-03 0. -1.
         11   -1    0    0    0    0 -0.00000000000E+00 -0.00000000000E+00 -0.45593999997E+02  0.45594000000E+02  0.51100000000E-03 0.  1.
         23    2    1    2    0    0  0.00000000000E+00  0.22204460493E-15  0.00000000000E+00  0.91188000000E+02  0.91188000000E+02 0.  0.
    9900012    2    3    3    0    0  0.25173859288E+02  0.19999458954E+01  0.26796639156E+02  0.54367043398E+02  0.39999907034E+02 0.  0.
         12    1    3    3    0    0 -0.25173859288E+02 -0.19999458954E+01 -0.26796639156E+02  0.36820956602E+02  0.00000000000E+00 0. -1.
         11    1    4    4    0    0  0.12070780506E+02 -0.28726527068E+01  0.14384244276E+02  0.18996377530E+02  0.51100000000E-03 0. -1.
        -11    1    4    4    0    0  0.21766422739E+02  0.81886438028E+01  0.57684553375E+01  0.23960511752E+02  0.51100000000E-03 0.  1.
         12    1    4    4    0    0 -0.86633439576E+01 -0.33160452006E+01  0.66439395427E+01  0.11410154116E+02  0.00000000000E+00 0. -1.
</event>
<event>
 8    1  0.2482403E-006  0.9118800E+02  0.7816164E-02  0.1184000E+00
        -11   -1    0    0    0    0  0.00000000000E+00  0.00000000000E+00  0.45593999997E+02  0.45594000000E+02  0.51100000000E-03 0. -1.
         11   -1    0    0    0    0 -0.00000000000E+00 -0.00000000000E+00 -0.45593999997E+02  0.45594000000E+02  0.51100000000E-03 0.  1.
         23    2    1    2    0    0  0.88817841970E-15 -0.35527136788E-14  0.00000000000E+00  0.91188000000E+02  0.91188000000E+02 0.  0.
    9900012    2    3    3    0    0  0.41183707586E+01 -0.20513822932E+02  0.30298567447E+02  0.54367067117E+02  0.39999961107E+02 0.  0.
        -12    1    3    3    0    0 -0.41183707586E+01  0.20513822932E+02 -0.30298567447E+02  0.36820932883E+02  0.00000000000E+00 0.  1.
         11    1    4    4    0    0 -0.35328079244E+01  0.31607125907E+01  0.24319119042E+02  0.24776811480E+02  0.51100000000E-03 0. -1.
        -11    1    4    4    0    0 -0.36791457041E+01 -0.35421448936E+01 -0.14745539731E+01  0.53157514276E+01  0.51100000000E-03 0.  1.
         12    1    4    4    0    0  0.11330324387E+02 -0.20132390629E+02  0.74540023788E+01  0.24274504209E+02  0.00000000000E+00 0. -1.
</event>
<event>
 8    1  0.2482403E-006  0.9118800E+02  0.7816164E-02  0.1184000E+00
        -11   -1    0    0    0    0  0.00000000000E+00  0.00000000000E+00  0.45593999997E+02  0.45594000000E+02  0.51100000000E-03 0.  1.
         11   -1    0    0    0    0 -0.00000000000E+00 -0.00000000000E+00 -0.45593999997E+02  0.45594000000E+02  0.51100000000E-03 0. -1.
         23    2    1    2    0    0 -0.71054273576E-14  0.17763568394E-14 -0.66613381478E-15  0.91188000000E+02  0.91188000000E+02 0.  0.
    9900012    2    3    3    0    0  0.35063535431E+02 -0.11134368986E+02 -0.15343608977E+01  0.54367082670E+02  0.39999996564E+02 0.  0.
        -12    1    3    3    0    0 -0.35063535431E+02  0.11134368986E+02  0.15343608977E+01  0.36820917330E+02  0.00000000000E+00 0.  1.
         11    1    4    4    0    0  0.11041673358E+02  0.42595545614E+01  0.20795205933E+01  0.12016104268E+02  0.51100000000E-03 0. -1.
        -11    1    4    4    0    0  0.43408040627E+01  0.54293704299E+01  0.87243632702E+01  0.11155050780E+02  0.51100000000E-03 0.  1.
         12    1    4    4    0    0  0.19681058010E+02 -0.20823293977E+02 -0.12338244761E+02  0.31195927623E+02  0.00000000000E+00 0. -1.
</event>
<event>
 8    1  0.2482403E-006  0.9118800E+02  0.7816164E-02  0.1184000E+00
        -11   -1    0    0    0    0  0.00000000000E+00  0.00000000000E+00  0.45593999997E+02  0.45594000000E+02  0.51100000000E-03 0.  1.
         11   -1    0    0    0    0 -0.00000000000E+00 -0.00000000000E+00 -0.45593999997E+02  0.45594000000E+02  0.51100000000E-03 0. -1.
         23    2    1    2    0    0  0.13322676296E-14  0.00000000000E+00  0.35527136788E-14  0.91188000000E+02  0.91188000000E+02 0.  0.
    9900012    2    3    3    0    0 -0.34735841428E+01  0.18002619506E+02  0.31931473142E+02  0.54367094622E+02  0.40000023809E+02 0.  0.
         12    1    3    3    0    0  0.34735841428E+01 -0.18002619506E+02 -0.31931473142E+02  0.36820905378E+02  0.00000000000E+00 0. -1.
         11    1    4    4    0    0 -0.14176832170E+02  0.18024205758E+02  0.26145827023E+02  0.34777274686E+02  0.51100000000E-03 0. -1.
        -11    1    4    4    0    0  0.27436129836E+01 -0.73034885850E+01  0.35549419385E+01  0.85735622796E+01  0.51100000000E-03 0.  1.
        -12    1    4    4    0    0  0.79596350438E+01  0.72819023325E+01  0.22307041801E+01  0.11016257656E+02  0.00000000000E+00 0.  1.
</event>
<event>
 8    1  0.2482403E-006  0.9118800E+02  0.7816164E-02  0.1184000E+00
        -11   -1    0    0    0    0  0.00000000000E+00  0.00000000000E+00  0.45593999997E+02  0.45594000000E+02  0.51100000000E-03 0.  1.
         11   -1    0    0    0    0 -0.00000000000E+00 -0.00000000000E+00 -0.45593999997E+02  0.45594000000E+02  0.51100000000E-03 0. -1.
         23    2    1    2    0    0 -0.35527136788E-14 -0.35527136788E-14 -0.17763568394E-14  0.91188000000E+02  0.91188000000E+02 0.  0.
    9900012    2    3    3    0    0 -0.27532509874E+02  0.20587505316E+02 -0.13186900254E+02  0.54367098145E+02  0.40000031841E+02 0.  0.
        -12    1    3    3    0    0  0.27532509874E+02 -0.20587505316E+02  0.13186900254E+02  0.36820901855E+02  0.00000000000E+00 0.  1.
         11    1    4    4    0    0 -0.16813991852E+02  0.20930936791E+02 -0.87105542351E+01  0.28225665489E+02  0.51100000000E-03 0. -1.
        -11    1    4    4    0    0 -0.22333367611E+01  0.97542908799E+01  0.36475900875E+01  0.10650769802E+02  0.51100000000E-03 0.  1.
        -12    1    4    4    0    0 -0.84851812611E+01 -0.10097722356E+02 -0.81239361068E+01  0.15490662854E+02  0.00000000000E+00 0.  1.
</event>
<event>
 8    1  0.2482403E-006  0.9118800E+02  0.7816164E-02  0.1184000E+00
        -11   -1    0    0    0    0  0.00000000000E+00  0.00000000000E+00  0.45593999997E+02  0.45594000000E+02  0.51100000000E-03 0. -1.
         11   -1    0    0    0    0 -0.00000000000E+00 -0.00000000000E+00 -0.45593999997E+02  0.45594000000E+02  0.51100000000E-03 0.  1.
         23    2    1    2    0    0  0.88817841970E-15  0.35527136788E-14  0.71054273576E-14  0.91188000000E+02  0.91188000000E+02 0.  0.
    9900012    2    3    3    0    0 -0.51992164310E+01 -0.25069087169E+02 -0.26462989983E+02  0.54367070872E+02  0.39999969668E+02 0.  0.
         12    1    3    3    0    0  0.51992164310E+01  0.25069087169E+02  0.26462989983E+02  0.36820929128E+02  0.00000000000E+00 0. -1.
         11    1    4    4    0    0 -0.56383112398E+01 -0.28531402050E+01  0.43379458945E+00  0.63339672144E+01  0.51100000000E-03 0. -1.
        -11    1    4    4    0    0 -0.19301022721E+01 -0.30657434440E+02 -0.18310818639E+02  0.35761566810E+02  0.51100000000E-03 0.  1.
         12    1    4    4    0    0  0.23691970809E+01  0.84414874757E+01 -0.85859659329E+01  0.12271536848E+02  0.00000000000E+00 0. -1.
</event>
<event>
 8    1  0.2482403E-006  0.9118800E+02  0.7816164E-02  0.1184000E+00
        -11   -1    0    0    0    0  0.00000000000E+00  0.00000000000E+00  0.45593999997E+02  0.45594000000E+02  0.51100000000E-03 0.  1.
         11   -1    0    0    0    0 -0.00000000000E+00 -0.00000000000E+00 -0.45593999997E+02  0.45594000000E+02  0.51100000000E-03 0. -1.
         23    2    1    2    0    0 -0.88817841970E-15  0.71054273576E-14  0.00000000000E+00  0.91188000000E+02  0.91188000000E+02 0.  0.
    9900012    2    3    3    0    0  0.55726334367E+01 -0.35795420667E+02 -0.65883677108E+01  0.54367177451E+02  0.40000212634E+02 0.  0.
         12    1    3    3    0    0 -0.55726334367E+01  0.35795420667E+02  0.65883677108E+01  0.36820822549E+02  0.00000000000E+00 0. -1.
         11    1    4    4    0    0 -0.81676928626E+01 -0.36389341077E+01 -0.21432250134E+01  0.91949150000E+01  0.51100000000E-03 0. -1.
        -11    1    4    4    0    0 -0.66464420840E+01 -0.20080446500E+02 -0.54770963425E+00  0.21158910892E+02  0.51100000000E-03 0.  1.
        -12    1    4    4    0    0  0.20386768383E+02 -0.12076040058E+02 -0.38974330631E+01  0.24013351559E+02  0.00000000000E+00 0.  1.
</event>
<event>
 8    1  0.2482403E-006  0.9118800E+02  0.7816164E-02  0.1184000E+00
        -11   -1    0    0    0    0  0.00000000000E+00  0.00000000000E+00  0.45593999997E+02  0.45594000000E+02  0.51100000000E-03 0. -1.
         11   -1    0    0    0    0 -0.00000000000E+00 -0.00000000000E+00 -0.45593999997E+02  0.45594000000E+02  0.51100000000E-03 0.  1.
         23    2    1    2    0    0  0.35527136788E-14  0.12351231149E-14  0.35527136788E-14  0.91188000000E+02  0.91188000000E+02 0.  0.
    9900012    2    3    3    0    0 -0.23369601692E+02  0.98807075016E-01  0.28454030362E+02  0.54367083527E+02  0.39999998516E+02 0.  0.
        -12    1    3    3    0    0  0.23369601692E+02 -0.98807075016E-01 -0.28454030362E+02  0.36820916473E+02  0.00000000000E+00 0.  1.
         11    1    4    4    0    0 -0.27908280983E+02  0.46667047935E+01  0.24178103009E+02  0.37218690821E+02  0.51100000000E-03 0. -1.
        -11    1    4    4    0    0  0.19766010501E+01  0.56885526496E+01  0.18783409603E+01  0.63083078542E+01  0.51100000000E-03 0.  1.
        -12    1    4    4    0    0  0.25620782412E+01 -0.10256450368E+02  0.23975863926E+01  0.10840084851E+02  0.00000000000E+00 0.  1.
</event>
<event>
 8    1  0.2482403E-006  0.9118800E+02  0.7816164E-02  0.1184000E+00
        -11   -1    0    0    0    0  0.00000000000E+00  0.00000000000E+00  0.45593999997E+02  0.45594000000E+02  0.51100000000E-03 0.  1.
         11   -1    0    0    0    0 -0.00000000000E+00 -0.00000000000E+00 -0.45593999997E+02  0.45594000000E+02  0.51100000000E-03 0. -1.
         23    2    1    2    0    0  0.88817841970E-15  0.35527136788E-14  0.35527136788E-14  0.91188000000E+02  0.91188000000E+02 0.  0.
    9900012    2    3    3    0    0  0.29619043686E+01  0.22954281285E+02  0.28637519183E+02  0.54367090021E+02  0.40000013320E+02 0.  0.
         12    1    3    3    0    0 -0.29619043686E+01 -0.22954281285E+02 -0.28637519183E+02  0.36820909979E+02  0.00000000000E+00 0. -1.
         11    1    4    4    0    0 -0.76021076035E+00  0.23351773069E+01  0.13108861749E+02  0.13336912314E+02  0.51100000000E-03 0. -1.
        -11    1    4    4    0    0 -0.34101883926E+01  0.27091246770E+02  0.15502705403E+02  0.31399027238E+02  0.51100000000E-03 0.  1.
        -12    1    4    4    0    0  0.71323035215E+01 -0.64721427918E+01  0.25952030179E-01  0.96311504686E+01  0.00000000000E+00 0.  1.
</event>
<event>
 8    1  0.2482403E-006  0.9118800E+02  0.7816164E-02  0.1184000E+00
        -11   -1    0    0    0    0  0.00000000000E+00  0.00000000000E+00  0.45593999997E+02  0.45594000000E+02  0.51100000000E-03 0. -1.
         11   -1    0    0    0    0 -0.00000000000E+00 -0.00000000000E+00 -0.45593999997E+02  0.45594000000E+02  0.51100000000E-03 0.  1.
         23    2    1    2    0    0  0.00000000000E+00  0.00000000000E+00  0.00000000000E+00  0.91188000000E+02  0.91188000000E+02 0.  0.
    9900012    2    3    3    0    0  0.15106239859E+02  0.32348242975E+02 -0.90095766230E+01  0.54367085058E+02  0.40000002006E+02 0.  0.
         12    1    3    3    0    0 -0.15106239859E+02 -0.32348242975E+02  0.90095766230E+01  0.36820914942E+02  0.00000000000E+00 0. -1.
         11    1    4    4    0    0  0.25539749720E+01 -0.50684303584E+01  0.52363939884E+01  0.77221497472E+01  0.51100000000E-03 0. -1.
        -11    1    4    4    0    0  0.45296626616E+01  0.18861389190E+01 -0.84364347295E+01  0.97595489166E+01  0.51100000000E-03 0.  1.
        -12    1    4    4    0    0  0.80226022254E+01  0.35530534415E+02 -0.58095358819E+01  0.36885386394E+02  0.00000000000E+00 0.  1.
</event>
<event>
 8    1  0.2482403E-006  0.9118800E+02  0.7816164E-02  0.1184000E+00
        -11   -1    0    0    0    0  0.00000000000E+00  0.00000000000E+00  0.45593999997E+02  0.45594000000E+02  0.51100000000E-03 0.  1.
         11   -1    0    0    0    0 -0.00000000000E+00 -0.00000000000E+00 -0.45593999997E+02  0.45594000000E+02  0.51100000000E-03 0. -1.
         23    2    1    2    0    0  0.17763568394E-14 -0.88817841970E-15  0.00000000000E+00  0.91188000000E+02  0.91188000000E+02 0.  0.
    9900012    2    3    3    0    0  0.14832989550E+02  0.54143136720E+01  0.33263309555E+02  0.54367080212E+02  0.39999990959E+02 0.  0.
         12    1    3    3    0    0 -0.14832989550E+02 -0.54143136720E+01 -0.33263309555E+02  0.36820919788E+02  0.00000000000E+00 0. -1.
         11    1    4    4    0    0  0.90120087754E+01  0.87127699095E+01 -0.57923226673E+00  0.12548472893E+02  0.51100000000E-03 0. -1.
        -11    1    4    4    0    0  0.74958258839E+01  0.78025804858E+01  0.74473662002E+01  0.13135103026E+02  0.51100000000E-03 0.  1.
        -12    1    4    4    0    0 -0.16748451097E+01 -0.11101036723E+02  0.26395175621E+02  0.28683504293E+02  0.00000000000E+00 0.  1.
</event>
<event>
 8    1  0.2482403E-006  0.9118800E+02  0.7816164E-02  0.1184000E+00
        -11   -1    0    0    0    0  0.00000000000E+00  0.00000000000E+00  0.45593999997E+02  0.45594000000E+02  0.51100000000E-03 0.  1.
         11   -1    0    0    0    0 -0.00000000000E+00 -0.00000000000E+00 -0.45593999997E+02  0.45594000000E+02  0.51100000000E-03 0. -1.
         23    2    1    2    0    0  0.00000000000E+00  0.00000000000E+00  0.00000000000E+00  0.91188000000E+02  0.91188000000E+02 0.  0.
    9900012    2    3    3    0    0 -0.13283165770E+02  0.10661688772E+02  0.32644531183E+02  0.54367088598E+02  0.40000010076E+02 0.  0.
         12    1    3    3    0    0  0.13283165770E+02 -0.10661688772E+02 -0.32644531183E+02  0.36820911402E+02  0.00000000000E+00 0. -1.
         11    1    4    4    0    0 -0.16637856462E+02  0.12417404656E+02 -0.41391726147E+00  0.20764911120E+02  0.51100000000E-03 0. -1.
        -11    1    4    4    0    0 -0.23633225368E+00 -0.61651986915E+00  0.20006327140E+02  0.20017219476E+02  0.51100000000E-03 0.  1.
         12    1    4    4    0    0  0.35910229458E+01 -0.11391960151E+01  0.13052121305E+02  0.13584958002E+02  0.00000000000E+00 0. -1.
</event>
<event>
 8    1  0.2482403E-006  0.9118800E+02  0.7816164E-02  0.1184000E+00
        -11   -1    0    0    0    0  0.00000000000E+00  0.00000000000E+00  0.45593999997E+02  0.45594000000E+02  0.51100000000E-03 0. -1.
         11   -1    0    0    0    0 -0.00000000000E+00 -0.00000000000E+00 -0.45593999997E+02  0.45594000000E+02  0.51100000000E-03 0.  1.
         23    2    1    2    0    0 -0.35527136788E-14  0.44408920985E-15  0.00000000000E+00  0.91188000000E+02  0.91188000000E+02 0.  0.
    9900012    2    3    3    0    0  0.21311918694E+02 -0.29944684644E+01  0.29876626772E+02  0.54367115341E+02  0.40000071043E+02 0.  0.
        -12    1    3    3    0    0 -0.21311918694E+02  0.29944684644E+01 -0.29876626772E+02  0.36820884659E+02  0.00000000000E+00 0.  1.
         11    1    4    4    0    0  0.18931653150E+01 -0.79431200378E+01  0.88722136907E+01  0.12057918845E+02  0.51100000000E-03 0.  1.
        -11    1    4    4    0    0 -0.72089031966E+01 -0.12320357077E+00  0.11522360721E+02  0.13592213259E+02  0.51100000000E-03 0. -1.
        -12    1    4    4    0    0  0.26627656575E+02  0.50718551442E+01  0.94820523598E+01  0.28716983237E+02  0.00000000000E+00 0.  1.
</event>
<event>
 8    1  0.2482403E-006  0.9118800E+02  0.7816164E-02  0.1184000E+00
        -11   -1    0    0    0    0  0.00000000000E+00  0.00000000000E+00  0.45593999997E+02  0.45594000000E+02  0.51100000000E-03 0.  1.
         11   -1    0    0    0    0 -0.00000000000E+00 -0.00000000000E+00 -0.45593999997E+02  0.45594000000E+02  0.51100000000E-03 0. -1.
         23    2    1    2    0    0  0.00000000000E+00  0.00000000000E+00  0.00000000000E+00  0.91188000000E+02  0.91188000000E+02 0.  0.
    9900012    2    3    3    0    0  0.17117784193E+02 -0.18664824602E+02 -0.26727997425E+02  0.54367081225E+02  0.39999993269E+02 0.  0.
        -12    1    3    3    0    0 -0.17117784193E+02  0.18664824602E+02  0.26727997425E+02  0.36820918775E+02  0.00000000000E+00 0.  1.
         11    1    4    4    0    0  0.77256231986E+01 -0.81460906369E+01 -0.86966102046E+01  0.14201235009E+02  0.51100000000E-03 0. -1.
        -11    1    4    4    0    0  0.13873189238E+02 -0.38181392204E+01 -0.25433675786E+02  0.29221831410E+02  0.51100000000E-03 0.  1.
         12    1    4    4    0    0 -0.44810282440E+01 -0.67005947449E+01  0.74022885657E+01  0.10944014806E+02  0.00000000000E+00 0. -1.
</event>
<event>
 8    1  0.2482403E-006  0.9118800E+02  0.7816164E-02  0.1184000E+00
        -11   -1    0    0    0    0  0.00000000000E+00  0.00000000000E+00  0.45593999997E+02  0.45594000000E+02  0.51100000000E-03 0. -1.
         11   -1    0    0    0    0 -0.00000000000E+00 -0.00000000000E+00 -0.45593999997E+02  0.45594000000E+02  0.51100000000E-03 0.  1.
         23    2    1    2    0    0 -0.13322676296E-14  0.00000000000E+00  0.00000000000E+00  0.91188000000E+02  0.91188000000E+02 0.  0.
    9900012    2    3    3    0    0  0.34887296899E+01 -0.87247178587E+01  0.35601798170E+02  0.54367082447E+02  0.39999996053E+02 0.  0.
        -12    1    3    3    0    0 -0.34887296899E+01  0.87247178587E+01 -0.35601798170E+02  0.36820917553E+02  0.00000000000E+00 0.  1.
         11    1    4    4    0    0 -0.10558018778E+02 -0.36065073120E+01  0.30662081735E+02  0.32628850916E+02  0.51100000000E-03 0. -1.
        -11    1    4    4    0    0  0.85248437839E+01  0.47529976899E+01  0.12452605454E+01  0.98394421928E+01  0.51100000000E-03 0.  1.
        -12    1    4    4    0    0  0.55219046835E+01 -0.98712082366E+01  0.36944558889E+01  0.11898789338E+02  0.00000000000E+00 0.  1.
</event>
<event>
 8    1  0.2482403E-006  0.9118800E+02  0.7816164E-02  0.1184000E+00
        -11   -1    0    0    0    0  0.00000000000E+00  0.00000000000E+00  0.45593999997E+02  0.45594000000E+02  0.51100000000E-03 0.  1.
         11   -1    0    0    0    0 -0.00000000000E+00 -0.00000000000E+00 -0.45593999997E+02  0.45594000000E+02  0.51100000000E-03 0. -1.
         23    2    1    2    0    0 -0.35527136788E-14 -0.88817841970E-15 -0.35527136788E-14  0.91188000000E+02  0.91188000000E+02 0.  0.
    9900012    2    3    3    0    0 -0.29550612587E+02 -0.57503715005E+01 -0.21200808671E+02  0.54367085224E+02  0.40000002386E+02 0.  0.
        -12    1    3    3    0    0  0.29550612587E+02  0.57503715005E+01  0.21200808671E+02  0.36820914776E+02  0.00000000000E+00 0.  1.
         11    1    4    4    0    0 -0.14400179294E+02 -0.15757758910E+02 -0.26441018697E+01  0.21509611910E+02  0.51100000000E-03 0. -1.
        -11    1    4    4    0    0  0.36119059753E+01 -0.57573688436E+00  0.96907118905E+00  0.37837067758E+01  0.51100000000E-03 0.  1.
         12    1    4    4    0    0 -0.18762339268E+02  0.10583124294E+02 -0.19525777990E+02  0.29073766539E+02  0.00000000000E+00 0. -1.
</event>
<event>
 8    1  0.2482403E-006  0.9118800E+02  0.7816164E-02  0.1184000E+00
        -11   -1    0    0    0    0  0.00000000000E+00  0.00000000000E+00  0.45593999997E+02  0.45594000000E+02  0.51100000000E-03 0.  1.
         11   -1    0    0    0    0 -0.00000000000E+00 -0.00000000000E+00 -0.45593999997E+02  0.45594000000E+02  0.51100000000E-03 0. -1.
         23    2    1    2    0    0 -0.71054273576E-14 -0.88817841970E-15 -0.88817841970E-15  0.91188000000E+02  0.91188000000E+02 0.  0.
    9900012    2    3    3    0    0 -0.36172601493E+02  0.21536475879E+01  0.65333006733E+01  0.54367091342E+02  0.40000016333E+02 0.  0.
         12    1    3    3    0    0  0.36172601493E+02 -0.21536475879E+01 -0.65333006733E+01  0.36820908658E+02  0.00000000000E+00 0. -1.
         11    1    4    4    0    0  0.31950334382E+01 -0.14538119408E+01 -0.24473399970E+01  0.42791682781E+01  0.51100000000E-03 0. -1.
        -11    1    4    4    0    0 -0.21892384680E+02 -0.85814188854E+01 -0.57230553704E+01  0.24200632638E+02  0.51100000000E-03 0.  1.
        -12    1    4    4    0    0 -0.17475250251E+02  0.12188878414E+02  0.14703696041E+02  0.25887290426E+02  0.00000000000E+00 0.  1.
</event>
<event>
 8    1  0.2482403E-006  0.9118800E+02  0.7816164E-02  0.1184000E+00
        -11   -1    0    0    0    0  0.00000000000E+00  0.00000000000E+00  0.45593999997E+02  0.45594000000E+02  0.51100000000E-03 0.  1.
         11   -1    0    0    0    0 -0.00000000000E+00 -0.00000000000E+00 -0.45593999997E+02  0.45594000000E+02  0.51100000000E-03 0. -1.
         23    2    1    2    0    0  0.00000000000E+00 -0.44408920985E-15  0.71054273576E-14  0.91188000000E+02  0.91188000000E+02 0.  0.
    9900012    2    3    3    0    0  0.27020563212E+02  0.14959866883E+01  0.24968582620E+02  0.54367096555E+02  0.40000028216E+02 0.  0.
         12    1    3    3    0    0 -0.27020563212E+02 -0.14959866883E+01 -0.24968582620E+02  0.36820903445E+02  0.00000000000E+00 0. -1.
         11    1    4    4    0    0  0.51858462131E+01  0.32667614009E+01  0.56171204833E+01  0.83136498471E+01  0.51100000000E-03 0. -1.
        -11    1    4    4    0    0  0.20925093308E+02  0.10880680928E+02  0.22909245019E+02  0.32879815313E+02  0.51100000000E-03 0.  1.
         12    1    4    4    0    0  0.90962369086E+00 -0.12651455640E+02 -0.35577828829E+01  0.13173631394E+02  0.00000000000E+00 0. -1.
</event>
<event>
 8    1  0.2482403E-006  0.9118800E+02  0.7816164E-02  0.1184000E+00
        -11   -1    0    0    0    0  0.00000000000E+00  0.00000000000E+00  0.45593999997E+02  0.45594000000E+02  0.51100000000E-03 0.  1.
         11   -1    0    0    0    0 -0.00000000000E+00 -0.00000000000E+00 -0.45593999997E+02  0.45594000000E+02  0.51100000000E-03 0. -1.
         23    2    1    2    0    0  0.00000000000E+00  0.35527136788E-14  0.35527136788E-14  0.91188000000E+02  0.91188000000E+02 0.  0.
    9900012    2    3    3    0    0  0.18464058373E+02 -0.23810555594E+02 -0.21164036719E+02  0.54367075792E+02  0.39999980883E+02 0.  0.
        -12    1    3    3    0    0 -0.18464058373E+02  0.23810555594E+02  0.21164036719E+02  0.36820924208E+02  0.00000000000E+00 0.  1.
         11    1    4    4    0    0 -0.59457056103E+01 -0.75106029545E+01  0.25686908798E+01  0.99175977455E+01  0.51100000000E-03 0. -1.
        -11    1    4    4    0    0  0.86407558255E+01  0.58185033063E+01 -0.67921592702E+01  0.12435878327E+02  0.51100000000E-03 0.  1.
         12    1    4    4    0    0  0.15769008158E+02 -0.22118455945E+02 -0.16940568329E+02  0.32013599719E+02  0.00000000000E+00 0. -1.
</event>
<event>
 8    1  0.2482403E-006  0.9118800E+02  0.7816164E-02  0.1184000E+00
        -11   -1    0    0    0    0  0.00000000000E+00  0.00000000000E+00  0.45593999997E+02  0.45594000000E+02  0.51100000000E-03 0.  1.
         11   -1    0    0    0    0 -0.00000000000E+00 -0.00000000000E+00 -0.45593999997E+02  0.45594000000E+02  0.51100000000E-03 0. -1.
         23    2    1    2    0    0 -0.35527136788E-14  0.00000000000E+00  0.35527136788E-14  0.91188000000E+02  0.91188000000E+02 0.  0.
    9900012    2    3    3    0    0  0.26617912210E+02 -0.43205966239E+01  0.25071851932E+02  0.54367101520E+02  0.40000039535E+02 0.  0.
         12    1    3    3    0    0 -0.26617912210E+02  0.43205966239E+01 -0.25071851932E+02  0.36820898480E+02  0.00000000000E+00 0. -1.
         11    1    4    4    0    0  0.45601787231E+01 -0.38002667602E+01 -0.10585539643E+02  0.12136346536E+02  0.51100000000E-03 0. -1.
        -11    1    4    4    0    0  0.14069088907E+02  0.18407631501E+01  0.24412164225E+02  0.28236172440E+02  0.51100000000E-03 0.  1.
         12    1    4    4    0    0  0.79886445803E+01 -0.23610930138E+01  0.11245227349E+02  0.13994582544E+02  0.00000000000E+00 0. -1.
</event>
<event>
 8    1  0.2482403E-006  0.9118800E+02  0.7816164E-02  0.1184000E+00
        -11   -1    0    0    0    0  0.00000000000E+00  0.00000000000E+00  0.45593999997E+02  0.45594000000E+02  0.51100000000E-03 0. -1.
         11   -1    0    0    0    0 -0.00000000000E+00 -0.00000000000E+00 -0.45593999997E+02  0.45594000000E+02  0.51100000000E-03 0.  1.
         23    2    1    2    0    0 -0.17763568394E-14  0.00000000000E+00  0.00000000000E+00  0.91188000000E+02  0.91188000000E+02 0.  0.
    9900012    2    3    3    0    0 -0.61779851252E+01 -0.32562197366E+02 -0.16041057748E+02  0.54367085683E+02  0.40000003432E+02 0.  0.
         12    1    3    3    0    0  0.61779851252E+01  0.32562197366E+02  0.16041057748E+02  0.36820914317E+02  0.00000000000E+00 0. -1.
         11    1    4    4    0    0 -0.51822638139E+01 -0.61742352934E+01  0.58746049485E+01  0.99743683137E+01  0.51100000000E-03 0. -1.
        -11    1    4    4    0    0  0.79586249698E+01 -0.12787025023E+02 -0.23626785249E+02  0.28019148842E+02  0.51100000000E-03 0.  1.
        -12    1    4    4    0    0 -0.89543462811E+01 -0.13600937049E+02  0.17111225532E+01  0.16373568527E+02  0.00000000000E+00 0.  1.
</event>
<event>
 8    1  0.2482403E-006  0.9118800E+02  0.7816164E-02  0.1184000E+00
        -11   -1    0    0    0    0  0.00000000000E+00  0.00000000000E+00  0.45593999997E+02  0.45594000000E+02  0.51100000000E-03 0.  1.
         11   -1    0    0    0    0 -0.00000000000E+00 -0.00000000000E+00 -0.45593999997E+02  0.45594000000E+02  0.51100000000E-03 0. -1.
         23    2    1    2    0    0 -0.17763568394E-14  0.00000000000E+00  0.17763568394E-14  0.91188000000E+02  0.91188000000E+02 0.  0.
    9900012    2    3    3    0    0  0.10494671731E+02  0.33467017963E+02  0.11207107642E+02  0.54367099851E+02  0.40000035730E+02 0.  0.
         12    1    3    3    0    0 -0.10494671731E+02 -0.33467017963E+02 -0.11207107642E+02  0.36820900149E+02  0.00000000000E+00 0. -1.
         11    1    4    4    0    0 -0.43030450613E+01  0.70797839557E+01 -0.46160205323E+01  0.94840488967E+01  0.51100000000E-03 0. -1.
        -11    1    4    4    0    0  0.17625502333E+02  0.11803433127E+02  0.20306820951E+02  0.29365734173E+02  0.51100000000E-03 0.  1.
        -12    1    4    4    0    0 -0.28277855413E+01  0.14583800880E+02 -0.44836927771E+01  0.15517316782E+02  0.00000000000E+00 0.  1.
</event>
<event>
 8    1  0.2482403E-006  0.9118800E+02  0.7816164E-02  0.1184000E+00
        -11   -1    0    0    0    0  0.00000000000E+00  0.00000000000E+00  0.45593999997E+02  0.45594000000E+02  0.51100000000E-03 0.  1.
         11   -1    0    0    0    0 -0.00000000000E+00 -0.00000000000E+00 -0.45593999997E+02  0.45594000000E+02  0.51100000000E-03 0. -1.
         23    2    1    2    0    0  0.00000000000E+00 -0.71054273576E-14  0.00000000000E+00  0.91188000000E+02  0.91188000000E+02 0.  0.
    9900012    2    3    3    0    0  0.77419151067E+01  0.35717675762E+02  0.44820780477E+01  0.54367100568E+02  0.40000037365E+02 0.  0.
         12    1    3    3    0    0 -0.77419151067E+01 -0.35717675762E+02 -0.44820780477E+01  0.36820899432E+02  0.00000000000E+00 0. -1.
         11    1    4    4    0    0  0.44063219710E+00 -0.14512075019E+01  0.66143121612E+00  0.16545849816E+01  0.51100000000E-03 0. -1.
        -11    1    4    4    0    0  0.19500210351E+01 -0.74099573810E+01  0.14792323305E+00  0.76636761394E+01  0.51100000000E-03 0.  1.
        -12    1    4    4    0    0  0.53512618745E+01  0.44578840645E+02  0.36727235986E+01  0.45048839447E+02  0.00000000000E+00 0.  1.
</event>
<event>
 8    1  0.2482403E-006  0.9118800E+02  0.7816164E-02  0.1184000E+00
        -11   -1    0    0    0    0  0.00000000000E+00  0.00000000000E+00  0.45593999997E+02  0.45594000000E+02  0.51100000000E-03 0.  1.
         11   -1    0    0    0    0 -0.00000000000E+00 -0.00000000000E+00 -0.45593999997E+02  0.45594000000E+02  0.51100000000E-03 0. -1.
         23    2    1    2    0    0 -0.71054273576E-14  0.00000000000E+00  0.35527136788E-14  0.91188000000E+02  0.91188000000E+02 0.  0.
    9900012    2    3    3    0    0 -0.31775816045E+02  0.75817166544E+01  0.16988090867E+02  0.54367080076E+02  0.39999990650E+02 0.  0.
         12    1    3    3    0    0  0.31775816045E+02 -0.75817166544E+01 -0.16988090867E+02  0.36820919924E+02  0.00000000000E+00 0. -1.
         11    1    4    4    0    0 -0.57360570345E+01 -0.33104967269E+01  0.23506352617E+02  0.24421514132E+02  0.51100000000E-03 0.  1.
        -11    1    4    4    0    0 -0.66044373974E+01  0.65542515740E+01 -0.24288541696E+01  0.96164515218E+01  0.51100000000E-03 0. -1.
        -12    1    4    4    0    0 -0.19435321613E+02  0.43379618073E+01 -0.40894075807E+01  0.20329114422E+02  0.00000000000E+00 0.  1.
</event>
<event>
 8    1  0.2482403E-006  0.9118800E+02  0.7816164E-02  0.1184000E+00
        -11   -1    0    0    0    0  0.00000000000E+00  0.00000000000E+00  0.45593999997E+02  0.45594000000E+02  0.51100000000E-03 0. -1.
         11   -1    0    0    0    0 -0.00000000000E+00 -0.00000000000E+00 -0.45593999997E+02  0.45594000000E+02  0.51100000000E-03 0.  1.
         23    2    1    2    0    0  0.88817841970E-15  0.00000000000E+00  0.00000000000E+00  0.91188000000E+02  0.91188000000E+02 0.  0.
    9900012    2    3    3    0    0 -0.18091520647E+01  0.15491904886E+02  0.33354303084E+02  0.54367059186E+02  0.39999943027E+02 0.  0.
        -12    1    3    3    0    0  0.18091520647E+01 -0.15491904886E+02 -0.33354303084E+02  0.36820940814E+02  0.00000000000E+00 0.  1.
         11    1    4    4    0    0 -0.16819847874E+02 -0.45889399919E+01  0.14693743719E+02  0.22800696426E+02  0.51100000000E-03 0. -1.
        -11    1    4    4    0    0  0.90678414667E+01  0.14660759337E+02  0.10937124076E+02  0.20415295651E+02  0.51100000000E-03 0.  1.
         12    1    4    4    0    0  0.59428543431E+01  0.54200855406E+01  0.77234352892E+01  0.11151067109E+02  0.00000000000E+00 0. -1.
</event>
<event>
 8    1  0.2482403E-006  0.9118800E+02  0.7816164E-02  0.1184000E+00
        -11   -1    0    0    0    0  0.00000000000E+00  0.00000000000E+00  0.45593999997E+02  0.45594000000E+02  0.51100000000E-03 0.  1.
         11   -1    0    0    0    0 -0.00000000000E+00 -0.00000000000E+00 -0.45593999997E+02  0.45594000000E+02  0.51100000000E-03 0. -1.
         23    2    1    2    0    0  0.00000000000E+00 -0.17763568394E-14  0.00000000000E+00  0.91188000000E+02  0.91188000000E+02 0.  0.
    9900012    2    3    3    0    0 -0.31483755887E+02  0.14393980765E+02  0.12544534898E+02  0.54367096659E+02  0.40000028454E+02 0.  0.
         12    1    3    3    0    0  0.31483755887E+02 -0.14393980765E+02 -0.12544534898E+02  0.36820903341E+02  0.00000000000E+00 0. -1.
         11    1    4    4    0    0 -0.47644775393E+01  0.12447487078E+02  0.61089271380E+01  0.14661486003E+02  0.51100000000E-03 0. -1.
        -11    1    4    4    0    0 -0.15397198048E+02  0.91657756901E+01  0.15344560724E+02  0.23591114764E+02  0.51100000000E-03 0.  1.
         12    1    4    4    0    0 -0.11322080300E+02 -0.72192820032E+01 -0.89089529638E+01  0.16114495892E+02  0.00000000000E+00 0. -1.
</event>
<event>
 8    1  0.2482403E-006  0.9118800E+02  0.7816164E-02  0.1184000E+00
        -11   -1    0    0    0    0  0.00000000000E+00  0.00000000000E+00  0.45593999997E+02  0.45594000000E+02  0.51100000000E-03 0. -1.
         11   -1    0    0    0    0 -0.00000000000E+00 -0.00000000000E+00 -0.45593999997E+02  0.45594000000E+02  0.51100000000E-03 0.  1.
         23    2    1    2    0    0  0.35527136788E-14 -0.66613381478E-15  0.00000000000E+00  0.91188000000E+02  0.91188000000E+02 0.  0.
    9900012    2    3    3    0    0 -0.27604344578E+02 -0.19037137640E+01  0.24293043900E+02  0.54367137061E+02  0.40000120557E+02 0.  0.
         12    1    3    3    0    0  0.27604344578E+02  0.19037137640E+01 -0.24293043900E+02  0.36820862939E+02  0.00000000000E+00 0. -1.
         11    1    4    4    0    0  0.47992254410E+00 -0.33557316842E+01  0.77331611136E+01  0.84435207025E+01  0.51100000000E-03 0. -1.
        -11    1    4    4    0    0 -0.25128371202E+02 -0.82635660239E+01  0.21997964944E+02  0.34403953619E+02  0.51100000000E-03 0.  1.
        -12    1    4    4    0    0 -0.29558959200E+01  0.97155839441E+01 -0.54380821579E+01  0.11519662739E+02  0.00000000000E+00 0.  1.
</event>
<event>
 8    1  0.2482403E-006  0.9118800E+02  0.7816164E-02  0.1184000E+00
        -11   -1    0    0    0    0  0.00000000000E+00  0.00000000000E+00  0.45593999997E+02  0.45594000000E+02  0.51100000000E-03 0.  1.
         11   -1    0    0    0    0 -0.00000000000E+00 -0.00000000000E+00 -0.45593999997E+02  0.45594000000E+02  0.51100000000E-03 0. -1.
         23    2    1    2    0    0  0.35527136788E-14  0.00000000000E+00 -0.44408920985E-15  0.91188000000E+02  0.91188000000E+02 0.  0.
    9900012    2    3    3    0    0 -0.27164515563E+02  0.24833432529E+02  0.10832817710E+01  0.54367030753E+02  0.39999878207E+02 0.  0.
        -12    1    3    3    0    0  0.27164515563E+02 -0.24833432529E+02 -0.10832817710E+01  0.36820969247E+02  0.00000000000E+00 0.  1.
         11    1    4    4    0    0 -0.78676836537E+00 -0.47547484684E+01  0.36222605839E+01  0.60288812775E+01  0.51100000000E-03 0. -1.
        -11    1    4    4    0    0 -0.16532340277E+02  0.12102309686E+02  0.11828520975E+02  0.23657939122E+02  0.51100000000E-03 0.  1.
         12    1    4    4    0    0 -0.98454069200E+01  0.17485871311E+02 -0.14367499788E+02  0.24680210353E+02  0.00000000000E+00 0. -1.
</event>
<event>
 8    1  0.2482403E-006  0.9118800E+02  0.7816164E-02  0.1184000E+00
        -11   -1    0    0    0    0  0.00000000000E+00  0.00000000000E+00  0.45593999997E+02  0.45594000000E+02  0.51100000000E-03 0.  1.
         11   -1    0    0    0    0 -0.00000000000E+00 -0.00000000000E+00 -0.45593999997E+02  0.45594000000E+02  0.51100000000E-03 0. -1.
         23    2    1    2    0    0 -0.35527136788E-14  0.35527136788E-14  0.00000000000E+00  0.91188000000E+02  0.91188000000E+02 0.  0.
    9900012    2    3    3    0    0 -0.12671412566E+02 -0.26116435557E+02 -0.22652888904E+02  0.54366996778E+02  0.39999800754E+02 0.  0.
        -12    1    3    3    0    0  0.12671412566E+02  0.26116435557E+02  0.22652888904E+02  0.36821003222E+02  0.00000000000E+00 0.  1.
         11    1    4    4    0    0 -0.43598467668E+01 -0.12060340317E+02 -0.45013730379E+01  0.13591263071E+02  0.51100000000E-03 0. -1.
        -11    1    4    4    0    0  0.65787885017E+01  0.15588537116E+01 -0.17968494374E+02  0.19198366425E+02  0.51100000000E-03 0.  1.
        -12    1    4    4    0    0 -0.14890354300E+02 -0.15614948951E+02 -0.18302149250E+00  0.21577367282E+02  0.00000000000E+00 0.  1.
</event>
<event>
 8    1  0.2482403E-006  0.9118800E+02  0.7816164E-02  0.1184000E+00
        -11   -1    0    0    0    0  0.00000000000E+00  0.00000000000E+00  0.45593999997E+02  0.45594000000E+02  0.51100000000E-03 0.  1.
         11   -1    0    0    0    0 -0.00000000000E+00 -0.00000000000E+00 -0.45593999997E+02  0.45594000000E+02  0.51100000000E-03 0. -1.
         23    2    1    2    0    0  0.44408920985E-15  0.00000000000E+00  0.00000000000E+00  0.91188000000E+02  0.91188000000E+02 0.  0.
    9900012    2    3    3    0    0  0.28003206339E+01  0.10808226596E+02  0.35087322746E+02  0.54367085084E+02  0.40000002065E+02 0.  0.
         12    1    3    3    0    0 -0.28003206339E+01 -0.10808226596E+02 -0.35087322746E+02  0.36820914916E+02  0.00000000000E+00 0. -1.
         11    1    4    4    0    0 -0.78814639574E+01  0.96039352728E+00 -0.57683512524E+01  0.98139546703E+01  0.51100000000E-03 0. -1.
        -11    1    4    4    0    0  0.60855430626E+01  0.84898228878E+01  0.15134389311E+02  0.18389145361E+02  0.51100000000E-03 0.  1.
        -12    1    4    4    0    0  0.45962415287E+01  0.13580101809E+01  0.25721284687E+02  0.26163985052E+02  0.00000000000E+00 0.  1.
</event>
<event>
 8    1  0.2482403E-006  0.9118800E+02  0.7816164E-02  0.1184000E+00
        -11   -1    0    0    0    0  0.00000000000E+00  0.00000000000E+00  0.45593999997E+02  0.45594000000E+02  0.51100000000E-03 0.  1.
         11   -1    0    0    0    0 -0.00000000000E+00 -0.00000000000E+00 -0.45593999997E+02  0.45594000000E+02  0.51100000000E-03 0. -1.
         23    2    1    2    0    0  0.17763568394E-14 -0.35527136788E-14  0.00000000000E+00  0.91188000000E+02  0.91188000000E+02 0.  0.
    9900012    2    3    3    0    0  0.12630905192E+02  0.23744993152E+02  0.25147863707E+02  0.54367088621E+02  0.40000010128E+02 0.  0.
         12    1    3    3    0    0 -0.12630905192E+02 -0.23744993152E+02 -0.25147863707E+02  0.36820911379E+02  0.00000000000E+00 0. -1.
         11    1    4    4    0    0 -0.46828352374E+01  0.21179058648E+01 -0.26625196932E+01  0.57882192849E+01  0.51100000000E-03 0. -1.
        -11    1    4    4    0    0 -0.21685075620E+01 -0.26970086128E+01  0.14123639961E+02  0.14541440318E+02  0.51100000000E-03 0.  1.
         12    1    4    4    0    0  0.19482247992E+02  0.24324095900E+02  0.13686743439E+02  0.34037429018E+02  0.00000000000E+00 0. -1.
</event>
<event>
 8    1  0.2482403E-006  0.9118800E+02  0.7816164E-02  0.1184000E+00
        -11   -1    0    0    0    0  0.00000000000E+00  0.00000000000E+00  0.45593999997E+02  0.45594000000E+02  0.51100000000E-03 0. -1.
         11   -1    0    0    0    0 -0.00000000000E+00 -0.00000000000E+00 -0.45593999997E+02  0.45594000000E+02  0.51100000000E-03 0.  1.
         23    2    1    2    0    0  0.00000000000E+00 -0.17763568394E-14  0.00000000000E+00  0.91188000000E+02  0.91188000000E+02 0.  0.
    9900012    2    3    3    0    0 -0.32988292885E+02 -0.86660891253E+01  0.13872682385E+02  0.54367083597E+02  0.39999998677E+02 0.  0.
        -12    1    3    3    0    0  0.32988292885E+02  0.86660891253E+01 -0.13872682385E+02  0.36820916403E+02  0.00000000000E+00 0.  1.
         11    1    4    4    0    0 -0.27159460710E+02 -0.19706921437E+02  0.11283217480E+02  0.35402119366E+02  0.51100000000E-03 0. -1.
        -11    1    4    4    0    0 -0.52568889907E+01  0.11308631706E+02 -0.34129987019E+01  0.12929369409E+02  0.51100000000E-03 0.  1.
         12    1    4    4    0    0 -0.57194318374E+00 -0.26779939356E+00  0.60024636062E+01  0.60355948227E+01  0.00000000000E+00 0. -1.
</event>
<event>
 8    1  0.2482403E-006  0.9118800E+02  0.7816164E-02  0.1184000E+00
        -11   -1    0    0    0    0  0.00000000000E+00  0.00000000000E+00  0.45593999997E+02  0.45594000000E+02  0.51100000000E-03 0.  1.
         11   -1    0    0    0    0 -0.00000000000E+00 -0.00000000000E+00 -0.45593999997E+02  0.45594000000E+02  0.51100000000E-03 0. -1.
         23    2    1    2    0    0  0.00000000000E+00  0.00000000000E+00  0.00000000000E+00  0.91188000000E+02  0.91188000000E+02 0.  0.
    9900012    2    3    3    0    0 -0.23711947092E+02 -0.22457163109E+02 -0.17005863438E+02  0.54367082017E+02  0.39999995075E+02 0.  0.
        -12    1    3    3    0    0  0.23711947092E+02  0.22457163109E+02  0.17005863438E+02  0.36820917983E+02  0.00000000000E+00 0.  1.
         11    1    4    4    0    0 -0.13987134484E+02 -0.14895019136E+02 -0.11835467553E+02  0.23613128099E+02  0.51100000000E-03 0. -1.
        -11    1    4    4    0    0 -0.16820178373E+02 -0.65998088742E+01  0.45959199574E+01  0.18643989868E+02  0.51100000000E-03 0.  1.
        -12    1    4    4    0    0  0.70953657650E+01 -0.96233509877E+00 -0.97663158423E+01  0.12109964051E+02  0.00000000000E+00 0.  1.
</event>
<event>
 8    1  0.2482403E-006  0.9118800E+02  0.7816164E-02  0.1184000E+00
        -11   -1    0    0    0    0  0.00000000000E+00  0.00000000000E+00  0.45593999997E+02  0.45594000000E+02  0.51100000000E-03 0.  1.
         11   -1    0    0    0    0 -0.00000000000E+00 -0.00000000000E+00 -0.45593999997E+02  0.45594000000E+02  0.51100000000E-03 0. -1.
         23    2    1    2    0    0  0.00000000000E+00 -0.88817841970E-15 -0.17763568394E-14  0.91188000000E+02  0.91188000000E+02 0.  0.
    9900012    2    3    3    0    0  0.32979776747E+02 -0.47848675371E+01  0.15659618661E+02  0.54367023801E+02  0.39999862359E+02 0.  0.
         12    1    3    3    0    0 -0.32979776747E+02  0.47848675371E+01 -0.15659618661E+02  0.36820976199E+02  0.00000000000E+00 0. -1.
         11    1    4    4    0    0  0.21574034441E+02  0.10921891479E+02  0.90802013848E+01  0.25829764478E+02  0.51100000000E-03 0. -1.
        -11    1    4    4    0    0  0.13170918121E+02 -0.16555693227E+02  0.10896207709E+02  0.23796878053E+02  0.51100000000E-03 0.  1.
         12    1    4    4    0    0 -0.17651758137E+01  0.84893421074E+00 -0.43167904326E+01  0.47403812701E+01  0.00000000000E+00 0. -1.
</event>
<event>
 8    1  0.2482403E-006  0.9118800E+02  0.7816164E-02  0.1184000E+00
        -11   -1    0    0    0    0  0.00000000000E+00  0.00000000000E+00  0.45593999997E+02  0.45594000000E+02  0.51100000000E-03 0.  1.
         11   -1    0    0    0    0 -0.00000000000E+00 -0.00000000000E+00 -0.45593999997E+02  0.45594000000E+02  0.51100000000E-03 0. -1.
         23    2    1    2    0    0  0.00000000000E+00  0.00000000000E+00 -0.88817841970E-15  0.91188000000E+02  0.91188000000E+02 0.  0.
    9900012    2    3    3    0    0  0.29705486748E+02  0.20880662643E+02  0.61125167195E+01  0.54367070137E+02  0.39999967990E+02 0.  0.
         12    1    3    3    0    0 -0.29705486748E+02 -0.20880662643E+02 -0.61125167195E+01  0.36820929863E+02  0.00000000000E+00 0. -1.
         11    1    4    4    0    0  0.38855420760E+01  0.10431183996E+02 -0.16122194204E+01  0.11247501434E+02  0.51100000000E-03 0. -1.
        -11    1    4    4    0    0  0.59620283173E+01  0.16735873834E+02  0.12533834762E+02  0.21742407152E+02  0.51100000000E-03 0.  1.
        -12    1    4    4    0    0  0.19857916355E+02 -0.62863951872E+01 -0.48090986224E+01  0.21377161551E+02  0.00000000000E+00 0.  1.
</event>
<event>
 8    1  0.2482403E-006  0.9118800E+02  0.7816164E-02  0.1184000E+00
        -11   -1    0    0    0    0  0.00000000000E+00  0.00000000000E+00  0.45593999997E+02  0.45594000000E+02  0.51100000000E-03 0.  1.
         11   -1    0    0    0    0 -0.00000000000E+00 -0.00000000000E+00 -0.45593999997E+02  0.45594000000E+02  0.51100000000E-03 0. -1.
         23    2    1    2    0    0  0.00000000000E+00 -0.35527136788E-14 -0.88817841970E-15  0.91188000000E+02  0.91188000000E+02 0.  0.
    9900012    2    3    3    0    0  0.31686064125E+02  0.17873471491E+02 -0.56844297567E+01  0.54367076810E+02  0.39999983203E+02 0.  0.
        -12    1    3    3    0    0 -0.31686064125E+02 -0.17873471491E+02  0.56844297567E+01  0.36820923190E+02  0.00000000000E+00 0.  1.
         11    1    4    4    0    0  0.75092005077E+01 -0.15526100453E+01  0.68006506077E+01  0.10249270177E+02  0.51100000000E-03 0. -1.
        -11    1    4    4    0    0  0.17251777685E+02 -0.24932023855E+01  0.10132186798E+01  0.17460426793E+02  0.51100000000E-03 0.  1.
         12    1    4    4    0    0  0.69250859326E+01  0.21919283922E+02 -0.13498299044E+02  0.26657379840E+02  0.00000000000E+00 0. -1.
</event>
<event>
 8    1  0.2482403E-006  0.9118800E+02  0.7816164E-02  0.1184000E+00
        -11   -1    0    0    0    0  0.00000000000E+00  0.00000000000E+00  0.45593999997E+02  0.45594000000E+02  0.51100000000E-03 0. -1.
         11   -1    0    0    0    0 -0.00000000000E+00 -0.00000000000E+00 -0.45593999997E+02  0.45594000000E+02  0.51100000000E-03 0.  1.
         23    2    1    2    0    0 -0.35527136788E-14  0.17763568394E-14  0.00000000000E+00  0.91188000000E+02  0.91188000000E+02 0.  0.
    9900012    2    3    3    0    0  0.26958340192E+02 -0.15217688122E+02 -0.19936146105E+02  0.54367081229E+02  0.39999993277E+02 0.  0.
         12    1    3    3    0    0 -0.26958340192E+02  0.15217688122E+02  0.19936146105E+02  0.36820918771E+02  0.00000000000E+00 0. -1.
         11    1    4    4    0    0 -0.40957705143E+01 -0.19720011882E+01 -0.19139669817E+02  0.19672089004E+02  0.51100000000E-03 0. -1.
        -11    1    4    4    0    0  0.21455232319E+02 -0.59494195702E+01 -0.29094934145E+01  0.22454125217E+02  0.51100000000E-03 0.  1.
         12    1    4    4    0    0  0.95988783871E+01 -0.72962673632E+01  0.21130171271E+01  0.12240867008E+02  0.00000000000E+00 0. -1.
</event>
<event>
 8    1  0.2482403E-006  0.9118800E+02  0.7816164E-02  0.1184000E+00
        -11   -1    0    0    0    0  0.00000000000E+00  0.00000000000E+00  0.45593999997E+02  0.45594000000E+02  0.51100000000E-03 0. -1.
         11   -1    0    0    0    0 -0.00000000000E+00 -0.00000000000E+00 -0.45593999997E+02  0.45594000000E+02  0.51100000000E-03 0.  1.
         23    2    1    2    0    0  0.00000000000E+00  0.00000000000E+00  0.00000000000E+00  0.91188000000E+02  0.91188000000E+02 0.  0.
    9900012    2    3    3    0    0  0.17496890472E+02  0.22451573543E+02 -0.23357326500E+02  0.54367095177E+02  0.40000025075E+02 0.  0.
         12    1    3    3    0    0 -0.17496890472E+02 -0.22451573543E+02  0.23357326500E+02  0.36820904823E+02  0.00000000000E+00 0. -1.
         11    1    4    4    0    0 -0.19011977253E+01  0.10221793837E+02 -0.80647022465E+00  0.10428327599E+02  0.51100000000E-03 0. -1.
        -11    1    4    4    0    0  0.19764502639E+02  0.76886147320E+01 -0.29071156622E+02  0.35984475939E+02  0.51100000000E-03 0.  1.
        -12    1    4    4    0    0 -0.36641444177E+00  0.45411649742E+01  0.65203003459E+01  0.79542916383E+01  0.00000000000E+00 0.  1.
</event>
<event>
 8    1  0.2482403E-006  0.9118800E+02  0.7816164E-02  0.1184000E+00
        -11   -1    0    0    0    0  0.00000000000E+00  0.00000000000E+00  0.45593999997E+02  0.45594000000E+02  0.51100000000E-03 0.  1.
         11   -1    0    0    0    0 -0.00000000000E+00 -0.00000000000E+00 -0.45593999997E+02  0.45594000000E+02  0.51100000000E-03 0. -1.
         23    2    1    2    0    0  0.00000000000E+00 -0.26645352591E-14  0.00000000000E+00  0.91188000000E+02  0.91188000000E+02 0.  0.
    9900012    2    3    3    0    0  0.21480973630E+02 -0.71849587083E+01 -0.29029697164E+02  0.54367093205E+02  0.40000020581E+02 0.  0.
        -12    1    3    3    0    0 -0.21480973630E+02  0.71849587083E+01  0.29029697164E+02  0.36820906795E+02  0.00000000000E+00 0.  1.
         11    1    4    4    0    0  0.69413939893E+01  0.60202438576E+01 -0.27599288494E+02  0.29088606227E+02  0.51100000000E-03 0. -1.
        -11    1    4    4    0    0  0.81878328241E+01 -0.16169797219E+02 -0.20570183618E+01  0.18241005270E+02  0.51100000000E-03 0.  1.
         12    1    4    4    0    0  0.63517468168E+01  0.29645946532E+01  0.62660969187E+00  0.70374817079E+01  0.00000000000E+00 0. -1.
</event>
<event>
 8    1  0.2482403E-006  0.9118800E+02  0.7816164E-02  0.1184000E+00
        -11   -1    0    0    0    0  0.00000000000E+00  0.00000000000E+00  0.45593999997E+02  0.45594000000E+02  0.51100000000E-03 0.  1.
         11   -1    0    0    0    0 -0.00000000000E+00 -0.00000000000E+00 -0.45593999997E+02  0.45594000000E+02  0.51100000000E-03 0. -1.
         23    2    1    2    0    0  0.00000000000E+00  0.00000000000E+00  0.35527136788E-14  0.91188000000E+02  0.91188000000E+02 0.  0.
    9900012    2    3    3    0    0  0.17166330449E+02 -0.23970976845E+02 -0.22056517735E+02  0.54367073795E+02  0.39999976331E+02 0.  0.
        -12    1    3    3    0    0 -0.17166330449E+02  0.23970976845E+02  0.22056517735E+02  0.36820926205E+02  0.00000000000E+00 0.  1.
         11    1    4    4    0    0  0.28025760790E+01 -0.30155647815E+01 -0.61345847100E+01  0.73879085982E+01  0.51100000000E-03 0.  1.
        -11    1    4    4    0    0 -0.78918081588E+01 -0.83548864749E+01 -0.17960647435E+02  0.21322983388E+02  0.51100000000E-03 0. -1.
        -12    1    4    4    0    0  0.22255562529E+02 -0.12600525588E+02  0.20387144099E+01  0.25656181809E+02  0.00000000000E+00 0.  1.
</event>
<event>
 8    1  0.2482403E-006  0.9118800E+02  0.7816164E-02  0.1184000E+00
        -11   -1    0    0    0    0  0.00000000000E+00  0.00000000000E+00  0.45593999997E+02  0.45594000000E+02  0.51100000000E-03 0. -1.
         11   -1    0    0    0    0 -0.00000000000E+00 -0.00000000000E+00 -0.45593999997E+02  0.45594000000E+02  0.51100000000E-03 0.  1.
         23    2    1    2    0    0 -0.35527136788E-14  0.00000000000E+00 -0.17763568394E-14  0.91188000000E+02  0.91188000000E+02 0.  0.
    9900012    2    3    3    0    0  0.31729331890E+02  0.14206364879E+02 -0.12132929424E+02  0.54367091787E+02  0.40000017346E+02 0.  0.
         12    1    3    3    0    0 -0.31729331890E+02 -0.14206364879E+02  0.12132929424E+02  0.36820908213E+02  0.00000000000E+00 0. -1.
         11    1    4    4    0    0  0.88122994459E+01  0.53908303337E+01  0.37765699376E+01  0.10999097871E+02  0.51100000000E-03 0. -1.
        -11    1    4    4    0    0  0.54176324022E+01 -0.88882987953E+01  0.43413073914E+01  0.11278277637E+02  0.51100000000E-03 0.  1.
        -12    1    4    4    0    0  0.17499400042E+02  0.17703833341E+02 -0.20250806753E+02  0.32089716279E+02  0.00000000000E+00 0.  1.
</event>
<event>
 8    1  0.2482403E-006  0.9118800E+02  0.7816164E-02  0.1184000E+00
        -11   -1    0    0    0    0  0.00000000000E+00  0.00000000000E+00  0.45593999997E+02  0.45594000000E+02  0.51100000000E-03 0.  1.
         11   -1    0    0    0    0 -0.00000000000E+00 -0.00000000000E+00 -0.45593999997E+02  0.45594000000E+02  0.51100000000E-03 0. -1.
         23    2    1    2    0    0  0.00000000000E+00  0.00000000000E+00 -0.17763568394E-14  0.91188000000E+02  0.91188000000E+02 0.  0.
    9900012    2    3    3    0    0  0.22027837000E+02  0.25015225266E+02 -0.15645849313E+02  0.54367086123E+02  0.40000004435E+02 0.  0.
         12    1    3    3    0    0 -0.22027837000E+02 -0.25015225266E+02  0.15645849313E+02  0.36820913877E+02  0.00000000000E+00 0. -1.
         11    1    4    4    0    0  0.14999712933E+02  0.51775736367E+01  0.10755071216E+02  0.19169512617E+02  0.51100000000E-03 0. -1.
        -11    1    4    4    0    0  0.90433457769E+01  0.13916209467E+02 -0.15953334608E+02  0.23020683616E+02  0.51100000000E-03 0.  1.
         12    1    4    4    0    0 -0.20152217104E+01  0.59214421625E+01 -0.10447585922E+02  0.12176889891E+02  0.00000000000E+00 0. -1.
</event>
<event>
 8    1  0.2482403E-006  0.9118800E+02  0.7816164E-02  0.1184000E+00
        -11   -1    0    0    0    0  0.00000000000E+00  0.00000000000E+00  0.45593999997E+02  0.45594000000E+02  0.51100000000E-03 0.  1.
         11   -1    0    0    0    0 -0.00000000000E+00 -0.00000000000E+00 -0.45593999997E+02  0.45594000000E+02  0.51100000000E-03 0. -1.
         23    2    1    2    0    0 -0.35527136788E-14 -0.35527136788E-14 -0.35527136788E-14  0.91188000000E+02  0.91188000000E+02 0.  0.
    9900012    2    3    3    0    0 -0.16416551673E+02  0.16685934151E+02 -0.28422785014E+02  0.54367105453E+02  0.40000048501E+02 0.  0.
        -12    1    3    3    0    0  0.16416551673E+02 -0.16685934151E+02  0.28422785014E+02  0.36820894547E+02  0.00000000000E+00 0.  1.
         11    1    4    4    0    0  0.14416816241E+01  0.15999468552E+02 -0.41554867459E+01  0.16593056084E+02  0.51100000000E-03 0. -1.
        -11    1    4    4    0    0 -0.21381320966E+02 -0.51382855165E+01 -0.20101761527E+02  0.29793349611E+02  0.51100000000E-03 0.  1.
        -12    1    4    4    0    0  0.35230876694E+01  0.58247511158E+01 -0.41655367409E+01  0.79806997580E+01  0.00000000000E+00 0.  1.
</event>
<event>
 8    1  0.2482403E-006  0.9118800E+02  0.7816164E-02  0.1184000E+00
        -11   -1    0    0    0    0  0.00000000000E+00  0.00000000000E+00  0.45593999997E+02  0.45594000000E+02  0.51100000000E-03 0.  1.
         11   -1    0    0    0    0 -0.00000000000E+00 -0.00000000000E+00 -0.45593999997E+02  0.45594000000E+02  0.51100000000E-03 0. -1.
         23    2    1    2    0    0  0.00000000000E+00  0.00000000000E+00  0.00000000000E+00  0.91188000000E+02  0.91188000000E+02 0.  0.
    9900012    2    3    3    0    0  0.28334103909E+02 -0.80273549158E+01 -0.22102480858E+02  0.54367088396E+02  0.40000009617E+02 0.  0.
        -12    1    3    3    0    0 -0.28334103909E+02  0.80273549158E+01  0.22102480858E+02  0.36820911604E+02  0.00000000000E+00 0.  1.
         11    1    4    4    0    0 -0.52614244094E+00 -0.93045725175E+01 -0.13645617375E+01  0.94188069626E+01  0.51100000000E-03 0. -1.
        -11    1    4    4    0    0  0.14232306353E+01 -0.89438698626E+01 -0.10650251357E+02  0.13980209146E+02  0.51100000000E-03 0.  1.
         12    1    4    4    0    0  0.27437015714E+02  0.10221087464E+02 -0.10087667764E+02  0.30968072287E+02  0.00000000000E+00 0. -1.
</event>
<event>
 8    1  0.2482403E-006  0.9118800E+02  0.7816164E-02  0.1184000E+00
        -11   -1    0    0    0    0  0.00000000000E+00  0.00000000000E+00  0.45593999997E+02  0.45594000000E+02  0.51100000000E-03 0.  1.
         11   -1    0    0    0    0 -0.00000000000E+00 -0.00000000000E+00 -0.45593999997E+02  0.45594000000E+02  0.51100000000E-03 0. -1.
         23    2    1    2    0    0 -0.35527136788E-14  0.00000000000E+00  0.00000000000E+00  0.91188000000E+02  0.91188000000E+02 0.  0.
    9900012    2    3    3    0    0 -0.23260058404E+02 -0.27757608765E+02 -0.66532300075E+01  0.54367073466E+02  0.39999975580E+02 0.  0.
        -12    1    3    3    0    0  0.23260058404E+02  0.27757608765E+02  0.66532300075E+01  0.36820926534E+02  0.00000000000E+00 0.  1.
         11    1    4    4    0    0 -0.12962602129E+02 -0.29394635386E+02 -0.14036114983E+02  0.35058325224E+02  0.51100000000E-03 0. -1.
        -11    1    4    4    0    0 -0.75198173387E+01  0.32326532916E+01 -0.27867002538E+01  0.86465830637E+01  0.51100000000E-03 0.  1.
        -12    1    4    4    0    0 -0.27776389360E+01 -0.15956266707E+01  0.10169585230E+02  0.10662165178E+02  0.00000000000E+00 0.  1.
</event>
<event>
 8    1  0.2482403E-006  0.9118800E+02  0.7816164E-02  0.1184000E+00
        -11   -1    0    0    0    0  0.00000000000E+00  0.00000000000E+00  0.45593999997E+02  0.45594000000E+02  0.51100000000E-03 0. -1.
         11   -1    0    0    0    0 -0.00000000000E+00 -0.00000000000E+00 -0.45593999997E+02  0.45594000000E+02  0.51100000000E-03 0.  1.
         23    2    1    2    0    0  0.00000000000E+00  0.17763568394E-14  0.35527136788E-14  0.91188000000E+02  0.91188000000E+02 0.  0.
    9900012    2    3    3    0    0  0.16978344917E+02  0.15170343959E+02  0.28937474029E+02  0.54367069334E+02  0.39999966160E+02 0.  0.
        -12    1    3    3    0    0 -0.16978344917E+02 -0.15170343959E+02 -0.28937474029E+02  0.36820930666E+02  0.00000000000E+00 0.  1.
         11    1    4    4    0    0  0.62873193494E+01  0.19196865382E+01  0.10675455449E+02  0.12537181913E+02  0.51100000000E-03 0. -1.
        -11    1    4    4    0    0  0.21213402496E+02  0.79500897284E+01  0.34689969364E+01  0.22918252816E+02  0.51100000000E-03 0.  1.
         12    1    4    4    0    0 -0.10522376928E+02  0.53005676923E+01  0.14793021644E+02  0.18911634605E+02  0.00000000000E+00 0. -1.
</event>
<event>
 8    1  0.2482403E-006  0.9118800E+02  0.7816164E-02  0.1184000E+00
        -11   -1    0    0    0    0  0.00000000000E+00  0.00000000000E+00  0.45593999997E+02  0.45594000000E+02  0.51100000000E-03 0.  1.
         11   -1    0    0    0    0 -0.00000000000E+00 -0.00000000000E+00 -0.45593999997E+02  0.45594000000E+02  0.51100000000E-03 0. -1.
         23    2    1    2    0    0  0.00000000000E+00 -0.22204460493E-14  0.00000000000E+00  0.91188000000E+02  0.91188000000E+02 0.  0.
    9900012    2    3    3    0    0  0.16389284620E+02  0.30497922826E+01 -0.32830881763E+02  0.54367127106E+02  0.40000097864E+02 0.  0.
        -12    1    3    3    0    0 -0.16389284620E+02 -0.30497922826E+01  0.32830881763E+02  0.36820872894E+02  0.00000000000E+00 0.  1.
         11    1    4    4    0    0  0.24147210357E+01 -0.42666696516E+00 -0.10557502098E+02  0.10838531874E+02  0.51100000000E-03 0. -1.
        -11    1    4    4    0    0  0.16018785964E+02  0.16200941448E+02 -0.76419241660E+01  0.24030626558E+02  0.51100000000E-03 0.  1.
        -12    1    4    4    0    0 -0.20442223791E+01 -0.12724482200E+02 -0.14631455499E+02  0.19497968674E+02  0.00000000000E+00 0.  1.
</event>
<event>
 8    1  0.2482403E-006  0.9118800E+02  0.7816164E-02  0.1184000E+00
        -11   -1    0    0    0    0  0.00000000000E+00  0.00000000000E+00  0.45593999997E+02  0.45594000000E+02  0.51100000000E-03 0. -1.
         11   -1    0    0    0    0 -0.00000000000E+00 -0.00000000000E+00 -0.45593999997E+02  0.45594000000E+02  0.51100000000E-03 0.  1.
         23    2    1    2    0    0  0.00000000000E+00  0.00000000000E+00 -0.35527136788E-14  0.91188000000E+02  0.91188000000E+02 0.  0.
    9900012    2    3    3    0    0 -0.78486765856E+01  0.16664402849E+02  0.31882208319E+02  0.54367092166E+02  0.40000018211E+02 0.  0.
        -12    1    3    3    0    0  0.78486765856E+01 -0.16664402849E+02 -0.31882208319E+02  0.36820907834E+02  0.00000000000E+00 0.  1.
         11    1    4    4    0    0 -0.10192874380E+02  0.90826608798E+00 -0.17510006714E+01  0.10381986275E+02  0.51100000000E-03 0. -1.
        -11    1    4    4    0    0  0.76352243275E+01  0.13155930970E+02  0.70668357053E+01  0.16772457702E+02  0.51100000000E-03 0.  1.
         12    1    4    4    0    0 -0.52910265332E+01  0.26002057911E+01  0.26566373285E+02  0.27212648189E+02  0.00000000000E+00 0. -1.
</event>
<event>
 8    1  0.2482403E-006  0.9118800E+02  0.7816164E-02  0.1184000E+00
        -11   -1    0    0    0    0  0.00000000000E+00  0.00000000000E+00  0.45593999997E+02  0.45594000000E+02  0.51100000000E-03 0. -1.
         11   -1    0    0    0    0 -0.00000000000E+00 -0.00000000000E+00 -0.45593999997E+02  0.45594000000E+02  0.51100000000E-03 0.  1.
         23    2    1    2    0    0  0.00000000000E+00  0.35527136788E-14 -0.35527136788E-14  0.91188000000E+02  0.91188000000E+02 0.  0.
    9900012    2    3    3    0    0  0.11817878150E+02  0.25957069220E+02  0.23288179570E+02  0.54367204325E+02  0.40000273899E+02 0.  0.
        -12    1    3    3    0    0 -0.11817878150E+02 -0.25957069220E+02 -0.23288179570E+02  0.36820795675E+02  0.00000000000E+00 0.  1.
         11    1    4    4    0    0  0.32560555026E+01 -0.15611131248E+01  0.20806626922E+02  0.21117639446E+02  0.51100000000E-03 0. -1.
        -11    1    4    4    0    0  0.64910278498E+01  0.10269596018E+02 -0.64073765191E+01  0.13735083511E+02  0.51100000000E-03 0.  1.
         12    1    4    4    0    0  0.20707947978E+01  0.17248586326E+02  0.88889291674E+01  0.19514481369E+02  0.00000000000E+00 0. -1.
</event>
<event>
 8    1  0.2482403E-006  0.9118800E+02  0.7816164E-02  0.1184000E+00
        -11   -1    0    0    0    0  0.00000000000E+00  0.00000000000E+00  0.45593999997E+02  0.45594000000E+02  0.51100000000E-03 0. -1.
         11   -1    0    0    0    0 -0.00000000000E+00 -0.00000000000E+00 -0.45593999997E+02  0.45594000000E+02  0.51100000000E-03 0.  1.
         23    2    1    2    0    0  0.00000000000E+00  0.00000000000E+00  0.35527136788E-14  0.91188000000E+02  0.91188000000E+02 0.  0.
    9900012    2    3    3    0    0  0.21128975393E+02 -0.15423947231E+02  0.25912305031E+02  0.54367091519E+02  0.40000016735E+02 0.  0.
        -12    1    3    3    0    0 -0.21128975393E+02  0.15423947231E+02 -0.25912305031E+02  0.36820908481E+02  0.00000000000E+00 0.  1.
         11    1    4    4    0    0  0.14993547670E+02  0.44399717845E+01 -0.56879006403E+00  0.15647470836E+02  0.51100000000E-03 0. -1.
        -11    1    4    4    0    0 -0.45963076683E+01  0.11676660934E+00  0.89202259288E+01  0.10035442666E+02  0.51100000000E-03 0.  1.
        -12    1    4    4    0    0  0.10731735392E+02 -0.19980685625E+02  0.17560869166E+02  0.28684178016E+02  0.00000000000E+00 0.  1.
</event>
<event>
 8    1  0.2482403E-006  0.9118800E+02  0.7816164E-02  0.1184000E+00
        -11   -1    0    0    0    0  0.00000000000E+00  0.00000000000E+00  0.45593999997E+02  0.45594000000E+02  0.51100000000E-03 0.  1.
         11   -1    0    0    0    0 -0.00000000000E+00 -0.00000000000E+00 -0.45593999997E+02  0.45594000000E+02  0.51100000000E-03 0. -1.
         23    2    1    2    0    0 -0.71054273576E-14  0.35527136788E-14  0.00000000000E+00  0.91188000000E+02  0.91188000000E+02 0.  0.
    9900012    2    3    3    0    0 -0.24799335309E+02  0.27104647741E+02 -0.24714177688E+01  0.54367124580E+02  0.40000092104E+02 0.  0.
         12    1    3    3    0    0  0.24799335309E+02 -0.27104647741E+02  0.24714177688E+01  0.36820875420E+02  0.00000000000E+00 0. -1.
         11    1    4    4    0    0 -0.42990303233E+01  0.79792436316E+01  0.18582357275E+01  0.92521906019E+01  0.51100000000E-03 0. -1.
        -11    1    4    4    0    0 -0.28497101312E+02  0.12143645955E+02 -0.10654606199E+02  0.32757801418E+02  0.51100000000E-03 0.  1.
         12    1    4    4    0    0  0.79967963262E+01  0.69817581546E+01  0.63249527024E+01  0.12357132560E+02  0.00000000000E+00 0. -1.
</event>
<event>
 8    1  0.2482403E-006  0.9118800E+02  0.7816164E-02  0.1184000E+00
        -11   -1    0    0    0    0  0.00000000000E+00  0.00000000000E+00  0.45593999997E+02  0.45594000000E+02  0.51100000000E-03 0. -1.
         11   -1    0    0    0    0 -0.00000000000E+00 -0.00000000000E+00 -0.45593999997E+02  0.45594000000E+02  0.51100000000E-03 0.  1.
         23    2    1    2    0    0 -0.88817841970E-15 -0.88817841970E-15  0.00000000000E+00  0.91188000000E+02  0.91188000000E+02 0.  0.
    9900012    2    3    3    0    0  0.18025666002E+01 -0.66028193256E+01  0.36179186726E+02  0.54367081740E+02  0.39999994442E+02 0.  0.
        -12    1    3    3    0    0 -0.18025666002E+01  0.66028193256E+01 -0.36179186726E+02  0.36820918260E+02  0.00000000000E+00 0.  1.
         11    1    4    4    0    0  0.18642812181E+02 -0.32790711728E+01  0.24877566626E+02  0.31260199540E+02  0.51100000000E-03 0. -1.
        -11    1    4    4    0    0 -0.93411493269E+01  0.93917607398E+00  0.11019123446E+02  0.14476194397E+02  0.51100000000E-03 0.  1.
         12    1    4    4    0    0 -0.74990962539E+01 -0.42629242267E+01  0.28249665413E+00  0.86306878027E+01  0.00000000000E+00 0. -1.
</event>
<event>
 8    1  0.2482403E-006  0.9118800E+02  0.7816164E-02  0.1184000E+00
        -11   -1    0    0    0    0  0.00000000000E+00  0.00000000000E+00  0.45593999997E+02  0.45594000000E+02  0.51100000000E-03 0. -1.
         11   -1    0    0    0    0 -0.00000000000E+00 -0.00000000000E+00 -0.45593999997E+02  0.45594000000E+02  0.51100000000E-03 0.  1.
         23    2    1    2    0    0  0.17763568394E-14  0.00000000000E+00 -0.71054273576E-14  0.91188000000E+02  0.91188000000E+02 0.  0.
    9900012    2    3    3    0    0 -0.36344622290E+01 -0.17087404186E+02 -0.32412839998E+02  0.54367069889E+02  0.39999967425E+02 0.  0.
         12    1    3    3    0    0  0.36344622290E+01  0.17087404186E+02  0.32412839998E+02  0.36820930111E+02  0.00000000000E+00 0. -1.
         11    1    4    4    0    0 -0.47566636600E+01 -0.23915565885E+02 -0.20178434230E+02  0.31650424152E+02  0.51100000000E-03 0.  1.
        -11    1    4    4    0    0  0.93890295058E+01  0.22676108121E+01 -0.54496150487E+01  0.11090276746E+02  0.51100000000E-03 0. -1.
         12    1    4    4    0    0 -0.82668280748E+01  0.45605508867E+01 -0.67847907197E+01  0.11626368991E+02  0.00000000000E+00 0. -1.
</event>
<event>
 8    1  0.2482403E-006  0.9118800E+02  0.7816164E-02  0.1184000E+00
        -11   -1    0    0    0    0  0.00000000000E+00  0.00000000000E+00  0.45593999997E+02  0.45594000000E+02  0.51100000000E-03 0.  1.
         11   -1    0    0    0    0 -0.00000000000E+00 -0.00000000000E+00 -0.45593999997E+02  0.45594000000E+02  0.51100000000E-03 0. -1.
         23    2    1    2    0    0  0.00000000000E+00 -0.35527136788E-14 -0.88817841970E-15  0.91188000000E+02  0.91188000000E+02 0.  0.
    9900012    2    3    3    0    0 -0.19750891661E+02 -0.30734152783E+02 -0.45927556457E+01  0.54367091903E+02  0.40000017611E+02 0.  0.
        -12    1    3    3    0    0  0.19750891661E+02  0.30734152783E+02  0.45927556457E+01  0.36820908097E+02  0.00000000000E+00 0.  1.
         11    1    4    4    0    0 -0.79547882041E+01 -0.23240338611E+02 -0.12267674665E+02  0.27457017975E+02  0.51100000000E-03 0. -1.
        -11    1    4    4    0    0 -0.14938155541E+02 -0.12697728546E+02  0.68881405748E+01  0.20780454327E+02  0.51100000000E-03 0.  1.
        -12    1    4    4    0    0  0.31420520842E+01  0.52039143748E+01  0.78677844496E+00  0.61296196001E+01  0.00000000000E+00 0.  1.
</event>
<event>
 8    1  0.2482403E-006  0.9118800E+02  0.7816164E-02  0.1184000E+00
        -11   -1    0    0    0    0  0.00000000000E+00  0.00000000000E+00  0.45593999997E+02  0.45594000000E+02  0.51100000000E-03 0.  1.
         11   -1    0    0    0    0 -0.00000000000E+00 -0.00000000000E+00 -0.45593999997E+02  0.45594000000E+02  0.51100000000E-03 0. -1.
         23    2    1    2    0    0  0.00000000000E+00  0.35527136788E-14 -0.35527136788E-14  0.91188000000E+02  0.91188000000E+02 0.  0.
    9900012    2    3    3    0    0  0.26034300732E+02  0.10715143003E+02 -0.23731447682E+02  0.54367072347E+02  0.39999973029E+02 0.  0.
        -12    1    3    3    0    0 -0.26034300732E+02 -0.10715143003E+02  0.23731447682E+02  0.36820927653E+02  0.00000000000E+00 0.  1.
         11    1    4    4    0    0  0.21213935786E+02  0.23257733640E+02 -0.16972585870E+02  0.35763415901E+02  0.51100000000E-03 0. -1.
        -11    1    4    4    0    0  0.65478249525E+01 -0.13390233635E+02 -0.43632598663E+01  0.15530949917E+02  0.51100000000E-03 0.  1.
        -12    1    4    4    0    0 -0.17274600065E+01  0.84764299840E+00 -0.23956019457E+01  0.30727065282E+01  0.00000000000E+00 0.  1.
</event>
<event>
 8    1  0.2482403E-006  0.9118800E+02  0.7816164E-02  0.1184000E+00
        -11   -1    0    0    0    0  0.00000000000E+00  0.00000000000E+00  0.45593999997E+02  0.45594000000E+02  0.51100000000E-03 0.  1.
         11   -1    0    0    0    0 -0.00000000000E+00 -0.00000000000E+00 -0.45593999997E+02  0.45594000000E+02  0.51100000000E-03 0. -1.
         23    2    1    2    0    0  0.17763568394E-14  0.00000000000E+00 -0.35527136788E-14  0.91188000000E+02  0.91188000000E+02 0.  0.
    9900012    2    3    3    0    0 -0.61744123702E+01  0.24898462871E+02 -0.26414466552E+02  0.54367070290E+02  0.39999968341E+02 0.  0.
        -12    1    3    3    0    0  0.61744123702E+01 -0.24898462871E+02  0.26414466552E+02  0.36820929710E+02  0.00000000000E+00 0.  1.
         11    1    4    4    0    0  0.11913450428E+01  0.51055432221E+01 -0.12446454809E+02  0.13505558566E+02  0.51100000000E-03 0. -1.
        -11    1    4    4    0    0  0.86247899269E+01  0.11992945676E+02 -0.17312597213E+02  0.22758378013E+02  0.51100000000E-03 0.  1.
        -12    1    4    4    0    0 -0.15990547340E+02  0.77999739723E+01  0.33445854699E+01  0.18103133711E+02  0.00000000000E+00 0.  1.
</event>
<event>
 8    1  0.2482403E-006  0.9118800E+02  0.7816164E-02  0.1184000E+00
        -11   -1    0    0    0    0  0.00000000000E+00  0.00000000000E+00  0.45593999997E+02  0.45594000000E+02  0.51100000000E-03 0. -1.
         11   -1    0    0    0    0 -0.00000000000E+00 -0.00000000000E+00 -0.45593999997E+02  0.45594000000E+02  0.51100000000E-03 0.  1.
         23    2    1    2    0    0  0.00000000000E+00 -0.35527136788E-14  0.00000000000E+00  0.91188000000E+02  0.91188000000E+02 0.  0.
    9900012    2    3    3    0    0  0.96002981277E+01 -0.23700453819E+02  0.26493443560E+02  0.54367084924E+02  0.40000001701E+02 0.  0.
        -12    1    3    3    0    0 -0.96002981277E+01  0.23700453819E+02 -0.26493443560E+02  0.36820915076E+02  0.00000000000E+00 0.  1.
         11    1    4    4    0    0 -0.80618517072E+01 -0.22808974159E+02  0.89173171441E+01  0.25782965315E+02  0.51100000000E-03 0. -1.
        -11    1    4    4    0    0  0.14353260096E+02 -0.52692039170E+01  0.73190562849E+01  0.16951376654E+02  0.51100000000E-03 0.  1.
         12    1    4    4    0    0  0.33088897393E+01  0.43777242570E+01  0.10257070132E+02  0.11632742955E+02  0.00000000000E+00 0. -1.
</event>
<event>
 8    1  0.2482403E-006  0.9118800E+02  0.7816164E-02  0.1184000E+00
        -11   -1    0    0    0    0  0.00000000000E+00  0.00000000000E+00  0.45593999997E+02  0.45594000000E+02  0.51100000000E-03 0.  1.
         11   -1    0    0    0    0 -0.00000000000E+00 -0.00000000000E+00 -0.45593999997E+02  0.45594000000E+02  0.51100000000E-03 0. -1.
         23    2    1    2    0    0  0.00000000000E+00 -0.17763568394E-14  0.00000000000E+00  0.91188000000E+02  0.91188000000E+02 0.  0.
    9900012    2    3    3    0    0 -0.13936631528E+02  0.11569148486E+02  0.32057838045E+02  0.54367083728E+02  0.39999998974E+02 0.  0.
         12    1    3    3    0    0  0.13936631528E+02 -0.11569148486E+02 -0.32057838045E+02  0.36820916272E+02  0.00000000000E+00 0. -1.
         11    1    4    4    0    0 -0.36008112211E+01 -0.65978976150E+01  0.56445600350E+01  0.93999549275E+01  0.51100000000E-03 0. -1.
        -11    1    4    4    0    0 -0.11330037387E+02 -0.11642709440E+01  0.22500157793E+02  0.25218690985E+02  0.51100000000E-03 0.  1.
         12    1    4    4    0    0  0.99421707970E+00  0.19331317045E+02  0.39131202165E+01  0.19748437815E+02  0.00000000000E+00 0. -1.
</event>
<event>
 8    1  0.2482403E-006  0.9118800E+02  0.7816164E-02  0.1184000E+00
        -11   -1    0    0    0    0  0.00000000000E+00  0.00000000000E+00  0.45593999997E+02  0.45594000000E+02  0.51100000000E-03 0.  1.
         11   -1    0    0    0    0 -0.00000000000E+00 -0.00000000000E+00 -0.45593999997E+02  0.45594000000E+02  0.51100000000E-03 0. -1.
         23    2    1    2    0    0  0.00000000000E+00  0.88817841970E-15  0.00000000000E+00  0.91188000000E+02  0.91188000000E+02 0.  0.
    9900012    2    3    3    0    0  0.10114948731E+02  0.70365014570E+01  0.34698058664E+02  0.54367084536E+02  0.40000000816E+02 0.  0.
         12    1    3    3    0    0 -0.10114948731E+02 -0.70365014570E+01 -0.34698058664E+02  0.36820915464E+02  0.00000000000E+00 0. -1.
         11    1    4    4    0    0 -0.12448644182E+01 -0.18126795453E+00 -0.33070129847E+01  0.35382030232E+01  0.51100000000E-03 0. -1.
        -11    1    4    4    0    0 -0.82272837563E+01  0.60801889713E+01  0.29338436582E+01  0.10642571813E+02  0.51100000000E-03 0.  1.
        -12    1    4    4    0    0  0.19587096906E+02  0.11375804401E+01  0.35071227991E+02  0.40186309699E+02  0.00000000000E+00 0.  1.
</event>
<event>
 8    1  0.2482403E-006  0.9118800E+02  0.7816164E-02  0.1184000E+00
        -11   -1    0    0    0    0  0.00000000000E+00  0.00000000000E+00  0.45593999997E+02  0.45594000000E+02  0.51100000000E-03 0. -1.
         11   -1    0    0    0    0 -0.00000000000E+00 -0.00000000000E+00 -0.45593999997E+02  0.45594000000E+02  0.51100000000E-03 0.  1.
         23    2    1    2    0    0  0.17763568394E-14  0.71054273576E-14 -0.88817841970E-15  0.91188000000E+02  0.91188000000E+02 0.  0.
    9900012    2    3    3    0    0 -0.13956336556E+02  0.33171532932E+02  0.77876859420E+01  0.54367109470E+02  0.40000057659E+02 0.  0.
        -12    1    3    3    0    0  0.13956336556E+02 -0.33171532932E+02 -0.77876859420E+01  0.36820890530E+02  0.00000000000E+00 0.  1.
         11    1    4    4    0    0  0.18603428846E+01  0.37489116162E+01  0.34949764326E+01  0.54525291820E+01  0.51100000000E-03 0. -1.
        -11    1    4    4    0    0 -0.97893829628E+01  0.30756575021E+02 -0.96315148982E+01  0.33683304548E+02  0.51100000000E-03 0.  1.
        -12    1    4    4    0    0 -0.60272964774E+01 -0.13339537051E+01  0.13924224408E+02  0.15231275740E+02  0.00000000000E+00 0.  1.
</event>
<event>
 8    1  0.2482403E-006  0.9118800E+02  0.7816164E-02  0.1184000E+00
        -11   -1    0    0    0    0  0.00000000000E+00  0.00000000000E+00  0.45593999997E+02  0.45594000000E+02  0.51100000000E-03 0. -1.
         11   -1    0    0    0    0 -0.00000000000E+00 -0.00000000000E+00 -0.45593999997E+02  0.45594000000E+02  0.51100000000E-03 0.  1.
         23    2    1    2    0    0  0.17763568394E-14  0.00000000000E+00  0.00000000000E+00  0.91188000000E+02  0.91188000000E+02 0.  0.
    9900012    2    3    3    0    0 -0.15358645031E+02 -0.73055300230E+01 -0.32657661653E+02  0.54367060160E+02  0.39999945246E+02 0.  0.
         12    1    3    3    0    0  0.15358645031E+02  0.73055300230E+01  0.32657661653E+02  0.36820939840E+02  0.00000000000E+00 0. -1.
         11    1    4    4    0    0  0.27784358870E+01 -0.17890978091E+02 -0.18565078574E+02  0.25932006203E+02  0.51100000000E-03 0. -1.
        -11    1    4    4    0    0 -0.15685577071E+02  0.32814954226E+01 -0.13037611901E+02  0.20658772098E+02  0.51100000000E-03 0.  1.
         12    1    4    4    0    0 -0.24515038470E+01  0.73039526450E+01 -0.10549711785E+01  0.77762818583E+01  0.00000000000E+00 0. -1.
</event>
<event>
 8    1  0.2482403E-006  0.9118800E+02  0.7816164E-02  0.1184000E+00
        -11   -1    0    0    0    0  0.00000000000E+00  0.00000000000E+00  0.45593999997E+02  0.45594000000E+02  0.51100000000E-03 0.  1.
         11   -1    0    0    0    0 -0.00000000000E+00 -0.00000000000E+00 -0.45593999997E+02  0.45594000000E+02  0.51100000000E-03 0. -1.
         23    2    1    2    0    0  0.00000000000E+00 -0.17763568394E-14  0.00000000000E+00  0.91188000000E+02  0.91188000000E+02 0.  0.
    9900012    2    3    3    0    0 -0.32241037456E+02 -0.12511999752E+02 -0.12639030799E+02  0.54367085650E+02  0.40000003356E+02 0.  0.
         12    1    3    3    0    0  0.32241037456E+02  0.12511999752E+02  0.12639030799E+02  0.36820914350E+02  0.00000000000E+00 0. -1.
         11    1    4    4    0    0 -0.24894406201E+02 -0.18183868181E+02 -0.84656250036E+01  0.31969537518E+02  0.51100000000E-03 0. -1.
        -11    1    4    4    0    0  0.51957924299E+01 -0.60530258862E+00  0.36113213255E+01  0.63564370661E+01  0.51100000000E-03 0.  1.
         12    1    4    4    0    0 -0.12542423685E+02  0.62771710177E+01 -0.77847271206E+01  0.16041111065E+02  0.00000000000E+00 0. -1.
</event>
<event>
 8    1  0.2482403E-006  0.9118800E+02  0.7816164E-02  0.1184000E+00
        -11   -1    0    0    0    0  0.00000000000E+00  0.00000000000E+00  0.45593999997E+02  0.45594000000E+02  0.51100000000E-03 0.  1.
         11   -1    0    0    0    0 -0.00000000000E+00 -0.00000000000E+00 -0.45593999997E+02  0.45594000000E+02  0.51100000000E-03 0. -1.
         23    2    1    2    0    0  0.35527136788E-14 -0.35527136788E-14  0.00000000000E+00  0.91188000000E+02  0.91188000000E+02 0.  0.
    9900012    2    3    3    0    0  0.26329314271E+02 -0.25203677311E+02  0.52280611611E+01  0.54366935872E+02  0.39999661907E+02 0.  0.
         12    1    3    3    0    0 -0.26329314271E+02  0.25203677311E+02 -0.52280611611E+01  0.36821064128E+02  0.00000000000E+00 0. -1.
         11    1    4    4    0    0 -0.36457552844E+01 -0.35900658145E+01 -0.33870831231E+00  0.51278482552E+01  0.51100000000E-03 0. -1.
        -11    1    4    4    0    0  0.28020444308E+02 -0.18109368011E+01 -0.15094441779E+01  0.28119445466E+02  0.51100000000E-03 0.  1.
        -12    1    4    4    0    0  0.19546252474E+01 -0.19802674695E+02  0.70762136513E+01  0.21119642151E+02  0.00000000000E+00 0.  1.
</event>
<event>
 8    1  0.2482403E-006  0.9118800E+02  0.7816164E-02  0.1184000E+00
        -11   -1    0    0    0    0  0.00000000000E+00  0.00000000000E+00  0.45593999997E+02  0.45594000000E+02  0.51100000000E-03 0.  1.
         11   -1    0    0    0    0 -0.00000000000E+00 -0.00000000000E+00 -0.45593999997E+02  0.45594000000E+02  0.51100000000E-03 0. -1.
         23    2    1    2    0    0  0.00000000000E+00  0.00000000000E+00 -0.35527136788E-14  0.91188000000E+02  0.91188000000E+02 0.  0.
    9900012    2    3    3    0    0 -0.16958137915E+02 -0.14584456114E+02 -0.29248577579E+02  0.54367298050E+02  0.40000487562E+02 0.  0.
        -12    1    3    3    0    0  0.16958137915E+02  0.14584456114E+02  0.29248577579E+02  0.36820701950E+02  0.00000000000E+00 0.  1.
         11    1    4    4    0    0  0.99529863911E+01 -0.99491715085E+01 -0.93695208531E+01  0.16906681315E+02  0.51100000000E-03 0. -1.
        -11    1    4    4    0    0 -0.74419539836E+01  0.63933056272E+00 -0.14925622167E+02  0.16690285198E+02  0.51100000000E-03 0.  1.
        -12    1    4    4    0    0 -0.19469170323E+02 -0.52746151683E+01 -0.49534345585E+01  0.20770331537E+02  0.00000000000E+00 0.  1.
</event>
<event>
 8    1  0.2482403E-006  0.9118800E+02  0.7816164E-02  0.1184000E+00
        -11   -1    0    0    0    0  0.00000000000E+00  0.00000000000E+00  0.45593999997E+02  0.45594000000E+02  0.51100000000E-03 0. -1.
         11   -1    0    0    0    0 -0.00000000000E+00 -0.00000000000E+00 -0.45593999997E+02  0.45594000000E+02  0.51100000000E-03 0.  1.
         23    2    1    2    0    0  0.00000000000E+00  0.00000000000E+00  0.00000000000E+00  0.91188000000E+02  0.91188000000E+02 0.  0.
    9900012    2    3    3    0    0 -0.29346756936E+02  0.15002050349E+02 -0.16416066143E+02  0.54367070015E+02  0.39999967712E+02 0.  0.
         12    1    3    3    0    0  0.29346756936E+02 -0.15002050349E+02  0.16416066143E+02  0.36820929985E+02  0.00000000000E+00 0. -1.
         11    1    4    4    0    0 -0.21336901860E+02  0.16384849396E+02 -0.11429699068E+02  0.29229517474E+02  0.51100000000E-03 0. -1.
        -11    1    4    4    0    0 -0.15943449926E+02  0.17006492689E+01 -0.42871347015E+01  0.16597148179E+02  0.51100000000E-03 0.  1.
         12    1    4    4    0    0  0.79335948491E+01 -0.30834483161E+01 -0.69923237383E+00  0.85404043617E+01  0.00000000000E+00 0. -1.
</event>
<event>
 8    1  0.2482403E-006  0.9118800E+02  0.7816164E-02  0.1184000E+00
        -11   -1    0    0    0    0  0.00000000000E+00  0.00000000000E+00  0.45593999997E+02  0.45594000000E+02  0.51100000000E-03 0. -1.
         11   -1    0    0    0    0 -0.00000000000E+00 -0.00000000000E+00 -0.45593999997E+02  0.45594000000E+02  0.51100000000E-03 0.  1.
         23    2    1    2    0    0  0.00000000000E+00  0.35527136788E-14  0.35527136788E-14  0.91188000000E+02  0.91188000000E+02 0.  0.
    9900012    2    3    3    0    0 -0.79730529473E+01  0.28133649677E+02  0.22376499850E+02  0.54367087966E+02  0.40000008637E+02 0.  0.
        -12    1    3    3    0    0  0.79730529473E+01 -0.28133649677E+02 -0.22376499850E+02  0.36820912034E+02  0.00000000000E+00 0.  1.
         11    1    4    4    0    0 -0.78482138814E+01  0.15044906393E+01  0.20096983167E+02  0.21627452136E+02  0.51100000000E-03 0. -1.
        -11    1    4    4    0    0 -0.65888122945E+01  0.96744472163E+01  0.74468360258E+01  0.13873094228E+02  0.51100000000E-03 0.  1.
        -12    1    4    4    0    0  0.64639732286E+01  0.16954711822E+02 -0.51673193431E+01  0.18866541603E+02  0.00000000000E+00 0.  1.
</event>
<event>
 8    1  0.2482403E-006  0.9118800E+02  0.7816164E-02  0.1184000E+00
        -11   -1    0    0    0    0  0.00000000000E+00  0.00000000000E+00  0.45593999997E+02  0.45594000000E+02  0.51100000000E-03 0.  1.
         11   -1    0    0    0    0 -0.00000000000E+00 -0.00000000000E+00 -0.45593999997E+02  0.45594000000E+02  0.51100000000E-03 0. -1.
         23    2    1    2    0    0 -0.17763568394E-14 -0.17763568394E-14  0.71054273576E-14  0.91188000000E+02  0.91188000000E+02 0.  0.
    9900012    2    3    3    0    0 -0.80065521036E+01 -0.10530148258E+02  0.34362663470E+02  0.54367061124E+02  0.39999947444E+02 0.  0.
         12    1    3    3    0    0  0.80065521036E+01  0.10530148258E+02 -0.34362663470E+02  0.36820938876E+02  0.00000000000E+00 0. -1.
         11    1    4    4    0    0  0.20774826044E+00  0.89030623690E+00  0.69289043901E+01  0.69889570640E+01  0.51100000000E-03 0. -1.
        -11    1    4    4    0    0  0.63803964467E+01 -0.17763273696E+02  0.24929950698E+02  0.31268926960E+02  0.51100000000E-03 0.  1.
         12    1    4    4    0    0 -0.14594696811E+02  0.63428192004E+01  0.25038083827E+01  0.16109177100E+02  0.00000000000E+00 0. -1.
</event>
<event>
 8    1  0.2482403E-006  0.9118800E+02  0.7816164E-02  0.1184000E+00
        -11   -1    0    0    0    0  0.00000000000E+00  0.00000000000E+00  0.45593999997E+02  0.45594000000E+02  0.51100000000E-03 0.  1.
         11   -1    0    0    0    0 -0.00000000000E+00 -0.00000000000E+00 -0.45593999997E+02  0.45594000000E+02  0.51100000000E-03 0. -1.
         23    2    1    2    0    0 -0.17763568394E-14  0.00000000000E+00 -0.71054273576E-14  0.91188000000E+02  0.91188000000E+02 0.  0.
    9900012    2    3    3    0    0 -0.11195995597E+02  0.94754337744E+01 -0.33773444490E+02  0.54367085898E+02  0.40000003921E+02 0.  0.
        -12    1    3    3    0    0  0.11195995597E+02 -0.94754337744E+01  0.33773444490E+02  0.36820914102E+02  0.00000000000E+00 0.  1.
         11    1    4    4    0    0  0.91374223768E+01  0.78854967026E+01 -0.21336094717E+02  0.24513312383E+02  0.51100000000E-03 0. -1.
        -11    1    4    4    0    0 -0.65776861439E+01  0.22054146195E+00  0.45138265614E+01  0.79805528651E+01  0.51100000000E-03 0.  1.
         12    1    4    4    0    0 -0.13755731829E+02  0.13693956099E+01 -0.16951176334E+02  0.21873220650E+02  0.00000000000E+00 0. -1.
</event>
<event>
 8    1  0.2482403E-006  0.9118800E+02  0.7816164E-02  0.1184000E+00
        -11   -1    0    0    0    0  0.00000000000E+00  0.00000000000E+00  0.45593999997E+02  0.45594000000E+02  0.51100000000E-03 0. -1.
         11   -1    0    0    0    0 -0.00000000000E+00 -0.00000000000E+00 -0.45593999997E+02  0.45594000000E+02  0.51100000000E-03 0.  1.
         23    2    1    2    0    0  0.00000000000E+00  0.00000000000E+00  0.00000000000E+00  0.91188000000E+02  0.91188000000E+02 0.  0.
    9900012    2    3    3    0    0  0.27297598101E+02 -0.12410776714E+02 -0.21368048207E+02  0.54367085767E+02  0.40000003624E+02 0.  0.
        -12    1    3    3    0    0 -0.27297598101E+02  0.12410776714E+02  0.21368048207E+02  0.36820914233E+02  0.00000000000E+00 0.  1.
         11    1    4    4    0    0 -0.49765016280E+01 -0.11186330959E+02 -0.42188016671E+01  0.12949820715E+02  0.51100000000E-03 0. -1.
        -11    1    4    4    0    0  0.12429640383E+01  0.95759684362E+00 -0.91688921804E+01  0.93021790669E+01  0.51100000000E-03 0.  1.
        -12    1    4    4    0    0  0.31031135691E+02 -0.21820425985E+01 -0.79803543600E+01  0.32115085986E+02  0.00000000000E+00 0.  1.
</event>
<event>
 8    1  0.2482403E-006  0.9118800E+02  0.7816164E-02  0.1184000E+00
        -11   -1    0    0    0    0  0.00000000000E+00  0.00000000000E+00  0.45593999997E+02  0.45594000000E+02  0.51100000000E-03 0. -1.
         11   -1    0    0    0    0 -0.00000000000E+00 -0.00000000000E+00 -0.45593999997E+02  0.45594000000E+02  0.51100000000E-03 0.  1.
         23    2    1    2    0    0  0.44408920985E-15  0.71054273576E-14  0.17763568394E-14  0.91188000000E+02  0.91188000000E+02 0.  0.
    9900012    2    3    3    0    0  0.13984629160E+01  0.34276732841E+02  0.13376470803E+02  0.54367080893E+02  0.39999992511E+02 0.  0.
         12    1    3    3    0    0 -0.13984629160E+01 -0.34276732841E+02 -0.13376470803E+02  0.36820919107E+02  0.00000000000E+00 0. -1.
         11    1    4    4    0    0 -0.15409676587E+01  0.69715652257E+01 -0.12408199793E+01  0.72468570776E+01  0.51100000000E-03 0. -1.
        -11    1    4    4    0    0  0.12985278375E+02  0.25282250786E+02 -0.10017039345E+01  0.28439639068E+02  0.51100000000E-03 0.  1.
         12    1    4    4    0    0 -0.10045847800E+02  0.20229168286E+01  0.15618994717E+02  0.18680584747E+02  0.00000000000E+00 0. -1.
</event>
<event>
 8    1  0.2482403E-006  0.9118800E+02  0.7816164E-02  0.1184000E+00
        -11   -1    0    0    0    0  0.00000000000E+00  0.00000000000E+00  0.45593999997E+02  0.45594000000E+02  0.51100000000E-03 0. -1.
         11   -1    0    0    0    0 -0.00000000000E+00 -0.00000000000E+00 -0.45593999997E+02  0.45594000000E+02  0.51100000000E-03 0.  1.
         23    2    1    2    0    0  0.35527136788E-14  0.00000000000E+00  0.35527136788E-14  0.91188000000E+02  0.91188000000E+02 0.  0.
    9900012    2    3    3    0    0  0.17906327404E+02 -0.58459280553E+01  0.31638073212E+02  0.54367094084E+02  0.40000022583E+02 0.  0.
        -12    1    3    3    0    0 -0.17906327404E+02  0.58459280553E+01 -0.31638073212E+02  0.36820905916E+02  0.00000000000E+00 0.  1.
         11    1    4    4    0    0  0.51528859800E+01 -0.14152155529E+02  0.11743088315E+02  0.19098059155E+02  0.51100000000E-03 0. -1.
        -11    1    4    4    0    0 -0.35435939516E+01  0.31486926773E+00 -0.39408038880E+01  0.53090617150E+01  0.51100000000E-03 0.  1.
        -12    1    4    4    0    0  0.16297035376E+02  0.79913582062E+01  0.23835788784E+02  0.29959973214E+02  0.00000000000E+00 0.  1.
</event>
<event>
 8    1  0.2482403E-006  0.9118800E+02  0.7816164E-02  0.1184000E+00
        -11   -1    0    0    0    0  0.00000000000E+00  0.00000000000E+00  0.45593999997E+02  0.45594000000E+02  0.51100000000E-03 0. -1.
         11   -1    0    0    0    0 -0.00000000000E+00 -0.00000000000E+00 -0.45593999997E+02  0.45594000000E+02  0.51100000000E-03 0.  1.
         23    2    1    2    0    0  0.00000000000E+00  0.00000000000E+00  0.88817841970E-15  0.91188000000E+02  0.91188000000E+02 0.  0.
    9900012    2    3    3    0    0 -0.15275058630E+02 -0.32759991398E+02 -0.70169248961E+01  0.54367059116E+02  0.39999942867E+02 0.  0.
         12    1    3    3    0    0  0.15275058630E+02  0.32759991398E+02  0.70169248961E+01  0.36820940884E+02  0.00000000000E+00 0. -1.
         11    1    4    4    0    0  0.91405386476E+01 -0.29307433451E+01  0.36191013949E+01  0.10258489094E+02  0.51100000000E-03 0. -1.
        -11    1    4    4    0    0  0.25591119815E+01 -0.28032440401E+01 -0.36976142626E+01  0.52990171521E+01  0.51100000000E-03 0.  1.
        -12    1    4    4    0    0 -0.26974709259E+02 -0.27026004013E+02 -0.69384120284E+01  0.38809552870E+02  0.00000000000E+00 0.  1.
</event>
<event>
 8    1  0.2482403E-006  0.9118800E+02  0.7816164E-02  0.1184000E+00
        -11   -1    0    0    0    0  0.00000000000E+00  0.00000000000E+00  0.45593999997E+02  0.45594000000E+02  0.51100000000E-03 0.  1.
         11   -1    0    0    0    0 -0.00000000000E+00 -0.00000000000E+00 -0.45593999997E+02  0.45594000000E+02  0.51100000000E-03 0. -1.
         23    2    1    2    0    0  0.35527136788E-14  0.00000000000E+00  0.88817841970E-15  0.91188000000E+02  0.91188000000E+02 0.  0.
    9900012    2    3    3    0    0 -0.16465000184E+02  0.32665451201E+02 -0.42014234756E+01  0.54367083493E+02  0.39999998438E+02 0.  0.
        -12    1    3    3    0    0  0.16465000184E+02 -0.32665451201E+02  0.42014234756E+01  0.36820916507E+02  0.00000000000E+00 0.  1.
         11    1    4    4    0    0 -0.15550121083E+01  0.76735581502E+01 -0.73941595849E+01  0.10769176086E+02  0.51100000000E-03 0. -1.
        -11    1    4    4    0    0  0.47280717968E+01  0.67390614598E+01  0.12714162258E+02  0.15146601416E+02  0.51100000000E-03 0.  1.
        -12    1    4    4    0    0 -0.19638059873E+02  0.18252831591E+02 -0.95214261492E+01  0.28451305990E+02  0.00000000000E+00 0.  1.
</event>
<event>
 8    1  0.2482403E-006  0.9118800E+02  0.7816164E-02  0.1184000E+00
        -11   -1    0    0    0    0  0.00000000000E+00  0.00000000000E+00  0.45593999997E+02  0.45594000000E+02  0.51100000000E-03 0. -1.
         11   -1    0    0    0    0 -0.00000000000E+00 -0.00000000000E+00 -0.45593999997E+02  0.45594000000E+02  0.51100000000E-03 0.  1.
         23    2    1    2    0    0  0.00000000000E+00  0.00000000000E+00  0.00000000000E+00  0.91188000000E+02  0.91188000000E+02 0.  0.
    9900012    2    3    3    0    0  0.15517095070E+02  0.26891587377E+02  0.19795019650E+02  0.54367075053E+02  0.39999979197E+02 0.  0.
        -12    1    3    3    0    0 -0.15517095070E+02 -0.26891587377E+02 -0.19795019650E+02  0.36820924947E+02  0.00000000000E+00 0.  1.
         11    1    4    4    0    0  0.10736753131E+02 -0.41889117665E+01  0.14986538726E+02  0.18905586286E+02  0.51100000000E-03 0.  1.
        -11    1    4    4    0    0 -0.53434865221E+01  0.66252545883E+01  0.26084269462E+01  0.89022883557E+01  0.51100000000E-03 0. -1.
         12    1    4    4    0    0  0.10123828461E+02  0.24455244555E+02  0.22000539774E+01  0.26559200411E+02  0.00000000000E+00 0. -1.
</event>
<event>
 8    1  0.2482403E-006  0.9118800E+02  0.7816164E-02  0.1184000E+00
        -11   -1    0    0    0    0  0.00000000000E+00  0.00000000000E+00  0.45593999997E+02  0.45594000000E+02  0.51100000000E-03 0.  1.
         11   -1    0    0    0    0 -0.00000000000E+00 -0.00000000000E+00 -0.45593999997E+02  0.45594000000E+02  0.51100000000E-03 0. -1.
         23    2    1    2    0    0  0.00000000000E+00  0.00000000000E+00  0.00000000000E+00  0.91188000000E+02  0.91188000000E+02 0.  0.
    9900012    2    3    3    0    0 -0.28833195923E+02 -0.93071520565E+01  0.20923741036E+02  0.54367092821E+02  0.40000019705E+02 0.  0.
         12    1    3    3    0    0  0.28833195923E+02  0.93071520565E+01 -0.20923741036E+02  0.36820907179E+02  0.00000000000E+00 0. -1.
         11    1    4    4    0    0  0.32602109841E+01  0.28486982315E+01  0.10250391280E+02  0.11127199959E+02  0.51100000000E-03 0. -1.
        -11    1    4    4    0    0 -0.21152929444E+02 -0.15779868270E+02 -0.15552470870E+01  0.26436139288E+02  0.51100000000E-03 0.  1.
        -12    1    4    4    0    0 -0.10940477463E+02  0.36240179818E+01  0.12228596843E+02  0.16803753575E+02  0.00000000000E+00 0.  1.
</event>
<event>
 8    1  0.2482403E-006  0.9118800E+02  0.7816164E-02  0.1184000E+00
        -11   -1    0    0    0    0  0.00000000000E+00  0.00000000000E+00  0.45593999997E+02  0.45594000000E+02  0.51100000000E-03 0. -1.
         11   -1    0    0    0    0 -0.00000000000E+00 -0.00000000000E+00 -0.45593999997E+02  0.45594000000E+02  0.51100000000E-03 0.  1.
         23    2    1    2    0    0  0.88817841970E-15  0.16653345369E-14  0.00000000000E+00  0.91188000000E+02  0.91188000000E+02 0.  0.
    9900012    2    3    3    0    0 -0.78283214790E+01  0.79029162227E+00  0.35970491838E+02  0.54367035033E+02  0.39999887965E+02 0.  0.
        -12    1    3    3    0    0  0.78283214790E+01 -0.79029162227E+00 -0.35970491838E+02  0.36820964967E+02  0.00000000000E+00 0.  1.
         11    1    4    4    0    0  0.62596061249E+01  0.32279868363E+01  0.22273043740E+02  0.23360030941E+02  0.51100000000E-03 0. -1.
        -11    1    4    4    0    0 -0.12826465605E+02 -0.10636573167E+02  0.21679708807E+01  0.16803422468E+02  0.51100000000E-03 0.  1.
        -12    1    4    4    0    0 -0.12614619994E+01  0.81988779528E+01  0.11529477217E+02  0.14203581624E+02  0.00000000000E+00 0.  1.
</event>
<event>
 8    1  0.2482403E-006  0.9118800E+02  0.7816164E-02  0.1184000E+00
        -11   -1    0    0    0    0  0.00000000000E+00  0.00000000000E+00  0.45593999997E+02  0.45594000000E+02  0.51100000000E-03 0. -1.
         11   -1    0    0    0    0 -0.00000000000E+00 -0.00000000000E+00 -0.45593999997E+02  0.45594000000E+02  0.51100000000E-03 0.  1.
         23    2    1    2    0    0  0.00000000000E+00  0.00000000000E+00  0.35527136788E-14  0.91188000000E+02  0.91188000000E+02 0.  0.
    9900012    2    3    3    0    0  0.17683401385E+02 -0.78420067591E+01  0.31330163653E+02  0.54367096847E+02  0.40000028881E+02 0.  0.
        -12    1    3    3    0    0 -0.17683401385E+02  0.78420067591E+01 -0.31330163653E+02  0.36820903153E+02  0.00000000000E+00 0.  1.
         11    1    4    4    0    0  0.19059773323E+02 -0.39772989480E+01  0.35355550183E+02  0.40362219897E+02  0.51100000000E-03 0. -1.
        -11    1    4    4    0    0 -0.67690936841E+01 -0.20863057364E-01 -0.16306502229E+01  0.69627641769E+01  0.51100000000E-03 0.  1.
         12    1    4    4    0    0  0.53927217457E+01 -0.38438447538E+01 -0.23947363072E+01  0.70421127723E+01  0.00000000000E+00 0. -1.
</event>
<event>
 8    1  0.2482403E-006  0.9118800E+02  0.7816164E-02  0.1184000E+00
        -11   -1    0    0    0    0  0.00000000000E+00  0.00000000000E+00  0.45593999997E+02  0.45594000000E+02  0.51100000000E-03 0. -1.
         11   -1    0    0    0    0 -0.00000000000E+00 -0.00000000000E+00 -0.45593999997E+02  0.45594000000E+02  0.51100000000E-03 0.  1.
         23    2    1    2    0    0 -0.35527136788E-14  0.00000000000E+00  0.35527136788E-14  0.91188000000E+02  0.91188000000E+02 0.  0.
    9900012    2    3    3    0    0 -0.14161765745E+02 -0.25546191237E+02  0.22419115653E+02  0.54367078740E+02  0.39999987604E+02 0.  0.
         12    1    3    3    0    0  0.14161765745E+02  0.25546191237E+02 -0.22419115653E+02  0.36820921260E+02  0.00000000000E+00 0. -1.
         11    1    4    4    0    0  0.74399406527E+01 -0.85991657877E+01  0.38529640013E+01  0.12005986049E+02  0.51100000000E-03 0. -1.
        -11    1    4    4    0    0  0.83752408908E+00  0.57076275961E+01  0.52696796313E+01  0.78133208723E+01  0.51100000000E-03 0.  1.
        -12    1    4    4    0    0 -0.22439230487E+02 -0.22654653045E+02  0.13296472021E+02  0.34547771819E+02  0.00000000000E+00 0.  1.
</event>
<event>
 8    1  0.2482403E-006  0.9118800E+02  0.7816164E-02  0.1184000E+00
        -11   -1    0    0    0    0  0.00000000000E+00  0.00000000000E+00  0.45593999997E+02  0.45594000000E+02  0.51100000000E-03 0. -1.
         11   -1    0    0    0    0 -0.00000000000E+00 -0.00000000000E+00 -0.45593999997E+02  0.45594000000E+02  0.51100000000E-03 0.  1.
         23    2    1    2    0    0 -0.44408920985E-15  0.00000000000E+00 -0.71054273576E-14  0.91188000000E+02  0.91188000000E+02 0.  0.
    9900012    2    3    3    0    0 -0.24883338122E+01 -0.58892526448E+01  0.36261549106E+02  0.54367149311E+02  0.40000148484E+02 0.  0.
        -12    1    3    3    0    0  0.24883338122E+01  0.58892526448E+01 -0.36261549106E+02  0.36820850689E+02  0.00000000000E+00 0.  1.
         11    1    4    4    0    0  0.10497501217E+02  0.32355553747E+01  0.84537097828E+01  0.13861152901E+02  0.51100000000E-03 0. -1.
        -11    1    4    4    0    0 -0.18035018938E+02 -0.93160148840E+01  0.11279014656E+02  0.23222106134E+02  0.51100000000E-03 0.  1.
         12    1    4    4    0    0  0.50491839085E+01  0.19120686447E+00  0.16528824667E+02  0.17283890276E+02  0.00000000000E+00 0. -1.
</event>
<event>
 8    1  0.2482403E-006  0.9118800E+02  0.7816164E-02  0.1184000E+00
        -11   -1    0    0    0    0  0.00000000000E+00  0.00000000000E+00  0.45593999997E+02  0.45594000000E+02  0.51100000000E-03 0.  1.
         11   -1    0    0    0    0 -0.00000000000E+00 -0.00000000000E+00 -0.45593999997E+02  0.45594000000E+02  0.51100000000E-03 0. -1.
         23    2    1    2    0    0  0.17763568394E-14 -0.71054273576E-14  0.00000000000E+00  0.91188000000E+02  0.91188000000E+02 0.  0.
    9900012    2    3    3    0    0  0.27151453096E+01  0.34764807286E+02  0.11824327956E+02  0.54367101433E+02  0.40000039337E+02 0.  0.
        -12    1    3    3    0    0 -0.27151453096E+01 -0.34764807286E+02 -0.11824327956E+02  0.36820898567E+02  0.00000000000E+00 0.  1.
         11    1    4    4    0    0  0.11490689272E+02  0.67526704531E+01 -0.58980787333E+01  0.14574698322E+02  0.51100000000E-03 0. -1.
        -11    1    4    4    0    0 -0.67053605425E+01  0.17342708286E+02 -0.47108673594E+00  0.18599820260E+02  0.51100000000E-03 0.  1.
        -12    1    4    4    0    0 -0.20701834195E+01  0.10669428546E+02  0.18193493425E+02  0.21192582851E+02  0.00000000000E+00 0.  1.
</event>
<event>
 8    1  0.2482403E-006  0.9118800E+02  0.7816164E-02  0.1184000E+00
        -11   -1    0    0    0    0  0.00000000000E+00  0.00000000000E+00  0.45593999997E+02  0.45594000000E+02  0.51100000000E-03 0.  1.
         11   -1    0    0    0    0 -0.00000000000E+00 -0.00000000000E+00 -0.45593999997E+02  0.45594000000E+02  0.51100000000E-03 0. -1.
         23    2    1    2    0    0  0.00000000000E+00  0.00000000000E+00  0.00000000000E+00  0.91188000000E+02  0.91188000000E+02 0.  0.
    9900012    2    3    3    0    0 -0.29808351402E+02  0.18508671383E+02 -0.11165644314E+02  0.54367077380E+02  0.39999984502E+02 0.  0.
        -12    1    3    3    0    0  0.29808351402E+02 -0.18508671383E+02  0.11165644314E+02  0.36820922620E+02  0.00000000000E+00 0.  1.
         11    1    4    4    0    0 -0.36301091052E+02  0.95100164647E+01 -0.49132398456E+01  0.37846394158E+02  0.51100000000E-03 0. -1.
        -11    1    4    4    0    0  0.34964477103E+01  0.72807591694E+01  0.13329296672E+01  0.81860431487E+01  0.51100000000E-03 0.  1.
         12    1    4    4    0    0  0.29962919399E+01  0.17178957486E+01 -0.75853341354E+01  0.83346400725E+01  0.00000000000E+00 0. -1.
</event>
<event>
 8    1  0.2482403E-006  0.9118800E+02  0.7816164E-02  0.1184000E+00
        -11   -1    0    0    0    0  0.00000000000E+00  0.00000000000E+00  0.45593999997E+02  0.45594000000E+02  0.51100000000E-03 0.  1.
         11   -1    0    0    0    0 -0.00000000000E+00 -0.00000000000E+00 -0.45593999997E+02  0.45594000000E+02  0.51100000000E-03 0. -1.
         23    2    1    2    0    0  0.00000000000E+00  0.44408920985E-15  0.00000000000E+00  0.91188000000E+02  0.91188000000E+02 0.  0.
    9900012    2    3    3    0    0 -0.24080729359E+02  0.78389106391E+00  0.27843873906E+02  0.54367118347E+02  0.40000077895E+02 0.  0.
         12    1    3    3    0    0  0.24080729359E+02 -0.78389106391E+00 -0.27843873906E+02  0.36820881653E+02  0.00000000000E+00 0. -1.
         11    1    4    4    0    0  0.18431231456E+01 -0.66288896041E+01 -0.47966642184E+01  0.83873278342E+01  0.51100000000E-03 0. -1.
        -11    1    4    4    0    0 -0.13035763877E+02  0.10390904789E+02  0.91383414723E+01  0.19010821322E+02  0.51100000000E-03 0.  1.
        -12    1    4    4    0    0 -0.12888088627E+02 -0.29781241209E+01  0.23502196652E+02  0.26968969191E+02  0.00000000000E+00 0.  1.
</event>
<event>
 8    1  0.2482403E-006  0.9118800E+02  0.7816164E-02  0.1184000E+00
        -11   -1    0    0    0    0  0.00000000000E+00  0.00000000000E+00  0.45593999997E+02  0.45594000000E+02  0.51100000000E-03 0.  1.
         11   -1    0    0    0    0 -0.00000000000E+00 -0.00000000000E+00 -0.45593999997E+02  0.45594000000E+02  0.51100000000E-03 0. -1.
         23    2    1    2    0    0  0.00000000000E+00  0.00000000000E+00 -0.35527136788E-14  0.91188000000E+02  0.91188000000E+02 0.  0.
    9900012    2    3    3    0    0 -0.19125090145E+02  0.91240183011E+01  0.30112523139E+02  0.54367070723E+02  0.39999969326E+02 0.  0.
         12    1    3    3    0    0  0.19125090145E+02 -0.91240183011E+01 -0.30112523139E+02  0.36820929277E+02  0.00000000000E+00 0. -1.
         11    1    4    4    0    0  0.33549947748E+01 -0.26375121454E+01  0.94661918258E+01  0.10383701084E+02  0.51100000000E-03 0. -1.
        -11    1    4    4    0    0  0.58073427522E+01  0.17521849127E+01 -0.20037122848E+01  0.63882896766E+01  0.51100000000E-03 0.  1.
        -12    1    4    4    0    0 -0.28287427673E+02  0.10009345534E+02  0.22650043598E+02  0.37595079962E+02  0.00000000000E+00 0.  1.
</event>
<event>
 8    1  0.2482403E-006  0.9118800E+02  0.7816164E-02  0.1184000E+00
        -11   -1    0    0    0    0  0.00000000000E+00  0.00000000000E+00  0.45593999997E+02  0.45594000000E+02  0.51100000000E-03 0.  1.
         11   -1    0    0    0    0 -0.00000000000E+00 -0.00000000000E+00 -0.45593999997E+02  0.45594000000E+02  0.51100000000E-03 0. -1.
         23    2    1    2    0    0 -0.71054273576E-14 -0.35527136788E-14  0.00000000000E+00  0.91188000000E+02  0.91188000000E+02 0.  0.
    9900012    2    3    3    0    0 -0.26054880458E+02 -0.19051440937E+02  0.17719109881E+02  0.54367067740E+02  0.39999962528E+02 0.  0.
         12    1    3    3    0    0  0.26054880458E+02  0.19051440937E+02 -0.17719109881E+02  0.36820932260E+02  0.00000000000E+00 0. -1.
         11    1    4    4    0    0 -0.59066263799E+01 -0.27164780803E+01  0.19234394411E+02  0.20303433625E+02  0.51100000000E-03 0. -1.
        -11    1    4    4    0    0  0.17030840012E+01 -0.10054988685E+02  0.34983507842E+01  0.10781546784E+02  0.51100000000E-03 0.  1.
         12    1    4    4    0    0 -0.21851338080E+02 -0.62799741717E+01 -0.50136353139E+01  0.23282087332E+02  0.00000000000E+00 0. -1.
</event>
<event>
 8    1  0.2482403E-006  0.9118800E+02  0.7816164E-02  0.1184000E+00
        -11   -1    0    0    0    0  0.00000000000E+00  0.00000000000E+00  0.45593999997E+02  0.45594000000E+02  0.51100000000E-03 0.  1.
         11   -1    0    0    0    0 -0.00000000000E+00 -0.00000000000E+00 -0.45593999997E+02  0.45594000000E+02  0.51100000000E-03 0. -1.
         23    2    1    2    0    0  0.44408920985E-15 -0.35527136788E-14 -0.35527136788E-14  0.91188000000E+02  0.91188000000E+02 0.  0.
    9900012    2    3    3    0    0 -0.31717926694E+01 -0.25834579055E+02 -0.26044042940E+02  0.54367110326E+02  0.40000059611E+02 0.  0.
        -12    1    3    3    0    0  0.31717926694E+01  0.25834579055E+02  0.26044042940E+02  0.36820889674E+02  0.00000000000E+00 0.  1.
         11    1    4    4    0    0  0.84981221518E+01 -0.18924024305E+02 -0.27965604049E+02  0.34819703992E+02  0.51100000000E-03 0. -1.
        -11    1    4    4    0    0 -0.72210184773E+01 -0.10489053524E+02 -0.16073248110E+01  0.12835374750E+02  0.51100000000E-03 0.  1.
        -12    1    4    4    0    0 -0.44488963439E+01  0.35784987735E+01  0.35288859200E+01  0.67120315842E+01  0.00000000000E+00 0.  1.
</event>
<event>
 8    1  0.2482403E-006  0.9118800E+02  0.7816164E-02  0.1184000E+00
        -11   -1    0    0    0    0  0.00000000000E+00  0.00000000000E+00  0.45593999997E+02  0.45594000000E+02  0.51100000000E-03 0.  1.
         11   -1    0    0    0    0 -0.00000000000E+00 -0.00000000000E+00 -0.45593999997E+02  0.45594000000E+02  0.51100000000E-03 0. -1.
         23    2    1    2    0    0 -0.88817841970E-15  0.35527136788E-14  0.35527136788E-14  0.91188000000E+02  0.91188000000E+02 0.  0.
    9900012    2    3    3    0    0 -0.73789093839E+01 -0.26012622436E+02 -0.24993471308E+02  0.54367103247E+02  0.40000043471E+02 0.  0.
        -12    1    3    3    0    0  0.73789093839E+01  0.26012622436E+02  0.24993471308E+02  0.36820896753E+02  0.00000000000E+00 0.  1.
         11    1    4    4    0    0  0.89754962544E+01 -0.12916529649E+02 -0.52570676865E+01  0.16584119878E+02  0.51100000000E-03 0. -1.
        -11    1    4    4    0    0 -0.15236147738E+01 -0.14547086554E+02 -0.22341181576E+01  0.14796297287E+02  0.51100000000E-03 0.  1.
         12    1    4    4    0    0 -0.14830790864E+02  0.14509937675E+01 -0.17502285464E+02  0.22986686082E+02  0.00000000000E+00 0. -1.
</event>
<event>
 8    1  0.2482403E-006  0.9118800E+02  0.7816164E-02  0.1184000E+00
        -11   -1    0    0    0    0  0.00000000000E+00  0.00000000000E+00  0.45593999997E+02  0.45594000000E+02  0.51100000000E-03 0. -1.
         11   -1    0    0    0    0 -0.00000000000E+00 -0.00000000000E+00 -0.45593999997E+02  0.45594000000E+02  0.51100000000E-03 0.  1.
         23    2    1    2    0    0 -0.44408920985E-15  0.35527136788E-14 -0.35527136788E-14  0.91188000000E+02  0.91188000000E+02 0.  0.
    9900012    2    3    3    0    0  0.33801965878E+01 -0.23951953751E+02  0.27760686973E+02  0.54367115183E+02  0.40000070683E+02 0.  0.
        -12    1    3    3    0    0 -0.33801965878E+01  0.23951953751E+02 -0.27760686973E+02  0.36820884817E+02  0.00000000000E+00 0.  1.
         11    1    4    4    0    0  0.29146873261E+01 -0.10631725284E+02 -0.46676569520E+01  0.11971466344E+02  0.51100000000E-03 0.  1.
        -11    1    4    4    0    0 -0.98656502999E+01 -0.28476593883E+00  0.17271459938E+02  0.19892598526E+02  0.51100000000E-03 0. -1.
         12    1    4    4    0    0  0.10331159562E+02 -0.13035462528E+02  0.15156883987E+02  0.22503050313E+02  0.00000000000E+00 0. -1.
</event>
<event>
 8    1  0.2482403E-006  0.9118800E+02  0.7816164E-02  0.1184000E+00
        -11   -1    0    0    0    0  0.00000000000E+00  0.00000000000E+00  0.45593999997E+02  0.45594000000E+02  0.51100000000E-03 0. -1.
         11   -1    0    0    0    0 -0.00000000000E+00 -0.00000000000E+00 -0.45593999997E+02  0.45594000000E+02  0.51100000000E-03 0.  1.
         23    2    1    2    0    0  0.00000000000E+00 -0.17763568394E-14  0.17763568394E-14  0.91188000000E+02  0.91188000000E+02 0.  0.
    9900012    2    3    3    0    0  0.34084589661E+02  0.11980812914E+02  0.71056884381E+01  0.54366947074E+02  0.39999687443E+02 0.  0.
         12    1    3    3    0    0 -0.34084589661E+02 -0.11980812914E+02 -0.71056884381E+01  0.36821052926E+02  0.00000000000E+00 0. -1.
         11    1    4    4    0    0  0.11302687419E+02  0.12574803595E+02  0.12707434982E+02  0.21150776166E+02  0.51100000000E-03 0. -1.
        -11    1    4    4    0    0  0.77763244408E+01 -0.10891722982E+02  0.19275720627E+01  0.13520960974E+02  0.51100000000E-03 0.  1.
        -12    1    4    4    0    0  0.15005577800E+02  0.10297732302E+02 -0.75293186065E+01  0.19695209934E+02  0.00000000000E+00 0.  1.
</event>
<event>
 8    1  0.2482403E-006  0.9118800E+02  0.7816164E-02  0.1184000E+00
        -11   -1    0    0    0    0  0.00000000000E+00  0.00000000000E+00  0.45593999997E+02  0.45594000000E+02  0.51100000000E-03 0. -1.
         11   -1    0    0    0    0 -0.00000000000E+00 -0.00000000000E+00 -0.45593999997E+02  0.45594000000E+02  0.51100000000E-03 0.  1.
         23    2    1    2    0    0 -0.35527136788E-14  0.35527136788E-14  0.88817841970E-15  0.91188000000E+02  0.91188000000E+02 0.  0.
    9900012    2    3    3    0    0 -0.27519915644E+02  0.23583103406E+02 -0.65016654865E+01  0.54367079623E+02  0.39999989618E+02 0.  0.
         12    1    3    3    0    0  0.27519915644E+02 -0.23583103406E+02  0.65016654865E+01  0.36820920377E+02  0.00000000000E+00 0. -1.
         11    1    4    4    0    0 -0.79887826689E+01  0.90840007916E+01  0.67903655896E+01  0.13872591107E+02  0.51100000000E-03 0. -1.
        -11    1    4    4    0    0 -0.19203983848E+02  0.99447600143E+00 -0.17850200664E+02  0.26237599779E+02  0.51100000000E-03 0.  1.
        -12    1    4    4    0    0 -0.32714912668E+00  0.13504626613E+02  0.45581695876E+01  0.14256888738E+02  0.00000000000E+00 0.  1.
</event>
<event>
 8    1  0.2482403E-006  0.9118800E+02  0.7816164E-02  0.1184000E+00
        -11   -1    0    0    0    0  0.00000000000E+00  0.00000000000E+00  0.45593999997E+02  0.45594000000E+02  0.51100000000E-03 0. -1.
         11   -1    0    0    0    0 -0.00000000000E+00 -0.00000000000E+00 -0.45593999997E+02  0.45594000000E+02  0.51100000000E-03 0.  1.
         23    2    1    2    0    0  0.00000000000E+00  0.00000000000E+00  0.17763568394E-14  0.91188000000E+02  0.91188000000E+02 0.  0.
    9900012    2    3    3    0    0  0.17018841359E+02 -0.30530890199E+02  0.11575920904E+02  0.54367106986E+02  0.40000051996E+02 0.  0.
        -12    1    3    3    0    0 -0.17018841359E+02  0.30530890199E+02 -0.11575920904E+02  0.36820893014E+02  0.00000000000E+00 0.  1.
         11    1    4    4    0    0  0.21427498385E+02 -0.20783115319E+02  0.53931594259E+01  0.30334167836E+02  0.51100000000E-03 0. -1.
        -11    1    4    4    0    0  0.70291051612E+01 -0.20787142831E+01 -0.25100900670E+01  0.77478980920E+01  0.51100000000E-03 0.  1.
        -12    1    4    4    0    0 -0.11437762188E+02 -0.76690605968E+01  0.86928515451E+01  0.16285041059E+02  0.00000000000E+00 0.  1.
</event>
<event>
 8    1  0.2482403E-006  0.9118800E+02  0.7816164E-02  0.1184000E+00
        -11   -1    0    0    0    0  0.00000000000E+00  0.00000000000E+00  0.45593999997E+02  0.45594000000E+02  0.51100000000E-03 0.  1.
         11   -1    0    0    0    0 -0.00000000000E+00 -0.00000000000E+00 -0.45593999997E+02  0.45594000000E+02  0.51100000000E-03 0. -1.
         23    2    1    2    0    0  0.00000000000E+00 -0.35527136788E-14  0.00000000000E+00  0.91188000000E+02  0.91188000000E+02 0.  0.
    9900012    2    3    3    0    0 -0.17422975472E+02  0.25205584107E+02 -0.20418093266E+02  0.54367080985E+02  0.39999992721E+02 0.  0.
        -12    1    3    3    0    0  0.17422975472E+02 -0.25205584107E+02  0.20418093266E+02  0.36820919015E+02  0.00000000000E+00 0.  1.
         11    1    4    4    0    0  0.63955957600E+01  0.32128239960E+01  0.13661733791E+01  0.72864472219E+01  0.51100000000E-03 0. -1.
        -11    1    4    4    0    0 -0.24569906941E+01 -0.42373820478E+01  0.24412016857E+01  0.54728124233E+01  0.51100000000E-03 0.  1.
         12    1    4    4    0    0 -0.21361580538E+02  0.26230142159E+02 -0.24225468331E+02  0.41607821340E+02  0.00000000000E+00 0. -1.
</event>
<event>
 8    1  0.2482403E-006  0.9118800E+02  0.7816164E-02  0.1184000E+00
        -11   -1    0    0    0    0  0.00000000000E+00  0.00000000000E+00  0.45593999997E+02  0.45594000000E+02  0.51100000000E-03 0.  1.
         11   -1    0    0    0    0 -0.00000000000E+00 -0.00000000000E+00 -0.45593999997E+02  0.45594000000E+02  0.51100000000E-03 0. -1.
         23    2    1    2    0    0  0.00000000000E+00 -0.35527136788E-14 -0.17763568394E-14  0.91188000000E+02  0.91188000000E+02 0.  0.
    9900012    2    3    3    0    0  0.29174293273E+02  0.16851800708E+02 -0.14854486193E+02  0.54367104639E+02  0.40000046646E+02 0.  0.
        -12    1    3    3    0    0 -0.29174293273E+02 -0.16851800708E+02  0.14854486193E+02  0.36820895361E+02  0.00000000000E+00 0.  1.
         11    1    4    4    0    0  0.36194493998E+01 -0.51565454557E+01  0.60129342883E+01  0.87089467796E+01  0.51100000000E-03 0.  1.
        -11    1    4    4    0    0  0.28989977335E+02  0.17892698065E+02 -0.21462772150E+02  0.40264351709E+02  0.51100000000E-03 0. -1.
         12    1    4    4    0    0 -0.34351334622E+01  0.41156480990E+01  0.59535166850E+00  0.53938061503E+01  0.00000000000E+00 0. -1.
</event>
<event>
 8    1  0.2482403E-006  0.9118800E+02  0.7816164E-02  0.1184000E+00
        -11   -1    0    0    0    0  0.00000000000E+00  0.00000000000E+00  0.45593999997E+02  0.45594000000E+02  0.51100000000E-03 0. -1.
         11   -1    0    0    0    0 -0.00000000000E+00 -0.00000000000E+00 -0.45593999997E+02  0.45594000000E+02  0.51100000000E-03 0.  1.
         23    2    1    2    0    0 -0.35527136788E-14 -0.88817841970E-15  0.00000000000E+00  0.91188000000E+02  0.91188000000E+02 0.  0.
    9900012    2    3    3    0    0 -0.30638676909E+02 -0.77949513764E+01  0.18875709423E+02  0.54367052214E+02  0.39999927131E+02 0.  0.
        -12    1    3    3    0    0  0.30638676909E+02  0.77949513764E+01 -0.18875709423E+02  0.36820947786E+02  0.00000000000E+00 0.  1.
         11    1    4    4    0    0 -0.10352943869E+02 -0.11765035678E+02  0.42604302897E+01  0.16240405715E+02  0.51100000000E-03 0. -1.
        -11    1    4    4    0    0 -0.26994359580E+02  0.61529137423E+01  0.90091976300E+01  0.29115621904E+02  0.51100000000E-03 0.  1.
        -12    1    4    4    0    0  0.67086265408E+01 -0.21828294407E+01  0.56060815029E+01  0.90110245948E+01  0.00000000000E+00 0.  1.
</event>
<event>
 8    1  0.2482403E-006  0.9118800E+02  0.7816164E-02  0.1184000E+00
        -11   -1    0    0    0    0  0.00000000000E+00  0.00000000000E+00  0.45593999997E+02  0.45594000000E+02  0.51100000000E-03 0.  1.
         11   -1    0    0    0    0 -0.00000000000E+00 -0.00000000000E+00 -0.45593999997E+02  0.45594000000E+02  0.51100000000E-03 0. -1.
         23    2    1    2    0    0  0.17763568394E-14  0.00000000000E+00  0.00000000000E+00  0.91188000000E+02  0.91188000000E+02 0.  0.
    9900012    2    3    3    0    0 -0.96510517930E+01 -0.34342633052E+02 -0.91225549641E+01  0.54367078573E+02  0.39999987223E+02 0.  0.
         12    1    3    3    0    0  0.96510517930E+01  0.34342633052E+02  0.91225549641E+01  0.36820921427E+02  0.00000000000E+00 0. -1.
         11    1    4    4    0    0  0.25125588697E+01  0.53417063403E+01 -0.17929110737E+01  0.61693848218E+01  0.51100000000E-03 0. -1.
        -11    1    4    4    0    0  0.41804911251E+00 -0.59810018941E+01  0.72259776872E+01  0.93894569872E+01  0.51100000000E-03 0.  1.
         12    1    4    4    0    0 -0.12581659775E+02 -0.33703337498E+02 -0.14555621578E+02  0.38808236764E+02  0.00000000000E+00 0. -1.
</event>
<event>
 8    1  0.2482403E-006  0.9118800E+02  0.7816164E-02  0.1184000E+00
        -11   -1    0    0    0    0  0.00000000000E+00  0.00000000000E+00  0.45593999997E+02  0.45594000000E+02  0.51100000000E-03 0.  1.
         11   -1    0    0    0    0 -0.00000000000E+00 -0.00000000000E+00 -0.45593999997E+02  0.45594000000E+02  0.51100000000E-03 0. -1.
         23    2    1    2    0    0  0.00000000000E+00  0.00000000000E+00  0.00000000000E+00  0.91188000000E+02  0.91188000000E+02 0.  0.
    9900012    2    3    3    0    0 -0.33831149394E+01  0.36623456872E+02  0.17484770489E+01  0.54367078882E+02  0.39999987928E+02 0.  0.
        -12    1    3    3    0    0  0.33831149394E+01 -0.36623456872E+02 -0.17484770489E+01  0.36820921118E+02  0.00000000000E+00 0.  1.
         11    1    4    4    0    0 -0.13111232118E+02  0.39439476293E+02  0.10238669055E+01  0.41574331042E+02  0.51100000000E-03 0. -1.
        -11    1    4    4    0    0  0.84902048259E+00  0.13464111912E+01 -0.20556776687E+01  0.25998980392E+01  0.51100000000E-03 0.  1.
         12    1    4    4    0    0  0.88790966961E+01 -0.41624306120E+01  0.27802878121E+01  0.10192849801E+02  0.00000000000E+00 0. -1.
</event>
<event>
 8    1  0.2482403E-006  0.9118800E+02  0.7816164E-02  0.1184000E+00
        -11   -1    0    0    0    0  0.00000000000E+00  0.00000000000E+00  0.45593999997E+02  0.45594000000E+02  0.51100000000E-03 0.  1.
         11   -1    0    0    0    0 -0.00000000000E+00 -0.00000000000E+00 -0.45593999997E+02  0.45594000000E+02  0.51100000000E-03 0. -1.
         23    2    1    2    0    0 -0.17763568394E-14  0.00000000000E+00  0.00000000000E+00  0.91188000000E+02  0.91188000000E+02 0.  0.
    9900012    2    3    3    0    0 -0.12990804738E+02  0.27047558285E+02  0.21341261803E+02  0.54367070187E+02  0.39999968105E+02 0.  0.
         12    1    3    3    0    0  0.12990804738E+02 -0.27047558285E+02 -0.21341261803E+02  0.36820929813E+02  0.00000000000E+00 0. -1.
         11    1    4    4    0    0 -0.63730498868E+01  0.10413574874E+02  0.16229205705E+02  0.20308752414E+02  0.51100000000E-03 0.  1.
        -11    1    4    4    0    0 -0.15777054487E+02  0.16585886240E+01  0.34307617118E+00  0.15867705128E+02  0.51100000000E-03 0. -1.
         12    1    4    4    0    0  0.91592996359E+01  0.14975394787E+02  0.47689799270E+01  0.18190612645E+02  0.00000000000E+00 0. -1.
</event>
<event>
 8    1  0.2482403E-006  0.9118800E+02  0.7816164E-02  0.1184000E+00
        -11   -1    0    0    0    0  0.00000000000E+00  0.00000000000E+00  0.45593999997E+02  0.45594000000E+02  0.51100000000E-03 0.  1.
         11   -1    0    0    0    0 -0.00000000000E+00 -0.00000000000E+00 -0.45593999997E+02  0.45594000000E+02  0.51100000000E-03 0. -1.
         23    2    1    2    0    0  0.17763568394E-14  0.44408920985E-15  0.71054273576E-14  0.91188000000E+02  0.91188000000E+02 0.  0.
    9900012    2    3    3    0    0 -0.97074856180E+01  0.27326805029E+01 -0.35412985290E+02  0.54367050163E+02  0.39999922456E+02 0.  0.
        -12    1    3    3    0    0  0.97074856180E+01 -0.27326805029E+01  0.35412985290E+02  0.36820949837E+02  0.00000000000E+00 0.  1.
         11    1    4    4    0    0 -0.13014122321E+02 -0.65192403344E+01 -0.11296758837E+02  0.18425108814E+02  0.51100000000E-03 0.  1.
        -11    1    4    4    0    0  0.11081039009E+02  0.12052440340E+02 -0.89205666437E+01  0.18644764766E+02  0.51100000000E-03 0. -1.
         12    1    4    4    0    0 -0.77744023065E+01 -0.28005195026E+01 -0.15195659810E+02  0.17297176583E+02  0.00000000000E+00 0. -1.
</event>
<event>
 8    1  0.2482403E-006  0.9118800E+02  0.7816164E-02  0.1184000E+00
        -11   -1    0    0    0    0  0.00000000000E+00  0.00000000000E+00  0.45593999997E+02  0.45594000000E+02  0.51100000000E-03 0.  1.
         11   -1    0    0    0    0 -0.00000000000E+00 -0.00000000000E+00 -0.45593999997E+02  0.45594000000E+02  0.51100000000E-03 0. -1.
         23    2    1    2    0    0  0.00000000000E+00  0.00000000000E+00 -0.17763568394E-14  0.91188000000E+02  0.91188000000E+02 0.  0.
    9900012    2    3    3    0    0 -0.17729075096E+02  0.30284246525E+02 -0.11150113767E+02  0.54367072142E+02  0.39999972562E+02 0.  0.
        -12    1    3    3    0    0  0.17729075096E+02 -0.30284246525E+02  0.11150113767E+02  0.36820927858E+02  0.00000000000E+00 0.  1.
         11    1    4    4    0    0  0.22796491624E+01  0.16196926622E+02  0.52042465234E+01  0.17164539447E+02  0.51100000000E-03 0. -1.
        -11    1    4    4    0    0 -0.66932347376E+01 -0.11465861837E+01  0.44997231910E+01  0.81462605032E+01  0.51100000000E-03 0.  1.
        -12    1    4    4    0    0 -0.13315489521E+02  0.15233906087E+02 -0.20854083481E+02  0.29056272192E+02  0.00000000000E+00 0.  1.
</event>
<event>
 8    1  0.2482403E-006  0.9118800E+02  0.7816164E-02  0.1184000E+00
        -11   -1    0    0    0    0  0.00000000000E+00  0.00000000000E+00  0.45593999997E+02  0.45594000000E+02  0.51100000000E-03 0. -1.
         11   -1    0    0    0    0 -0.00000000000E+00 -0.00000000000E+00 -0.45593999997E+02  0.45594000000E+02  0.51100000000E-03 0.  1.
         23    2    1    2    0    0  0.35527136788E-14  0.00000000000E+00  0.00000000000E+00  0.91188000000E+02  0.91188000000E+02 0.  0.
    9900012    2    3    3    0    0  0.25685186971E+02  0.20910472512E+02  0.16087391792E+02  0.54367070285E+02  0.39999968329E+02 0.  0.
        -12    1    3    3    0    0 -0.25685186971E+02 -0.20910472512E+02 -0.16087391792E+02  0.36820929715E+02  0.00000000000E+00 0.  1.
         11    1    4    4    0    0  0.15947975851E+02  0.59430943627E+01  0.10975260131E+02  0.20251287355E+02  0.51100000000E-03 0. -1.
        -11    1    4    4    0    0 -0.89814716659E+01  0.11447386504E+02  0.37197353121E+01  0.15018186379E+02  0.51100000000E-03 0.  1.
        -12    1    4    4    0    0  0.18718682787E+02  0.35199916453E+01  0.13923963488E+01  0.19097596551E+02  0.00000000000E+00 0.  1.
</event>
<event>
 8    1  0.2482403E-006  0.9118800E+02  0.7816164E-02  0.1184000E+00
        -11   -1    0    0    0    0  0.00000000000E+00  0.00000000000E+00  0.45593999997E+02  0.45594000000E+02  0.51100000000E-03 0.  1.
         11   -1    0    0    0    0 -0.00000000000E+00 -0.00000000000E+00 -0.45593999997E+02  0.45594000000E+02  0.51100000000E-03 0. -1.
         23    2    1    2    0    0 -0.35527136788E-14  0.00000000000E+00  0.00000000000E+00  0.91188000000E+02  0.91188000000E+02 0.  0.
    9900012    2    3    3    0    0  0.24763189099E+02 -0.19625592718E+02  0.18904998824E+02  0.54367103699E+02  0.40000044502E+02 0.  0.
        -12    1    3    3    0    0 -0.24763189099E+02  0.19625592718E+02 -0.18904998824E+02  0.36820896301E+02  0.00000000000E+00 0.  1.
         11    1    4    4    0    0  0.12876903325E+02  0.77318958063E+01 -0.16901649729E+01  0.15114678624E+02  0.51100000000E-03 0. -1.
        -11    1    4    4    0    0  0.12733275875E+02 -0.11045803159E+02  0.12731871333E+02  0.21124550405E+02  0.51100000000E-03 0.  1.
        -12    1    4    4    0    0 -0.84699010083E+00 -0.16311685365E+02  0.78632924649E+01  0.18127874670E+02  0.00000000000E+00 0.  1.
</event>
<event>
 8    1  0.2482403E-006  0.9118800E+02  0.7816164E-02  0.1184000E+00
        -11   -1    0    0    0    0  0.00000000000E+00  0.00000000000E+00  0.45593999997E+02  0.45594000000E+02  0.51100000000E-03 0.  1.
         11   -1    0    0    0    0 -0.00000000000E+00 -0.00000000000E+00 -0.45593999997E+02  0.45594000000E+02  0.51100000000E-03 0. -1.
         23    2    1    2    0    0  0.00000000000E+00 -0.35527136788E-14  0.00000000000E+00  0.91188000000E+02  0.91188000000E+02 0.  0.
    9900012    2    3    3    0    0  0.12823997211E+02  0.26763150886E+02 -0.21795879098E+02  0.54367061725E+02  0.39999948814E+02 0.  0.
         12    1    3    3    0    0 -0.12823997211E+02 -0.26763150886E+02  0.21795879098E+02  0.36820938275E+02  0.00000000000E+00 0. -1.
         11    1    4    4    0    0 -0.55049526781E+01  0.21197916931E+02 -0.45773782956E+01  0.22374283866E+02  0.51100000000E-03 0. -1.
        -11    1    4    4    0    0 -0.30342903302E+01  0.10501821954E+01 -0.73705476252E+01  0.80395754246E+01  0.51100000000E-03 0.  1.
        -12    1    4    4    0    0  0.21363240219E+02  0.45150517594E+01 -0.98479531773E+01  0.23953202434E+02  0.00000000000E+00 0.  1.
</event>
<event>
 8    1  0.2482403E-006  0.9118800E+02  0.7816164E-02  0.1184000E+00
        -11   -1    0    0    0    0  0.00000000000E+00  0.00000000000E+00  0.45593999997E+02  0.45594000000E+02  0.51100000000E-03 0. -1.
         11   -1    0    0    0    0 -0.00000000000E+00 -0.00000000000E+00 -0.45593999997E+02  0.45594000000E+02  0.51100000000E-03 0.  1.
         23    2    1    2    0    0 -0.71054273576E-14 -0.17763568394E-14  0.00000000000E+00  0.91188000000E+02  0.91188000000E+02 0.  0.
    9900012    2    3    3    0    0  0.33057602188E+02 -0.10142827172E+02  0.12652977639E+02  0.54367084088E+02  0.39999999796E+02 0.  0.
        -12    1    3    3    0    0 -0.33057602188E+02  0.10142827172E+02 -0.12652977639E+02  0.36820915912E+02  0.00000000000E+00 0.  1.
         11    1    4    4    0    0 -0.38903440255E+01 -0.14223612732E+02  0.51003146128E+01  0.15603177407E+02  0.51100000000E-03 0. -1.
        -11    1    4    4    0    0  0.60234250647E+01  0.23847637404E+01  0.39413636423E+01  0.75830795347E+01  0.51100000000E-03 0.  1.
        -12    1    4    4    0    0  0.30924521149E+02  0.16960218199E+01  0.36112993836E+01  0.31180827146E+02  0.00000000000E+00 0.  1.
</event>
<event>
 8    1  0.2482403E-006  0.9118800E+02  0.7816164E-02  0.1184000E+00
        -11   -1    0    0    0    0  0.00000000000E+00  0.00000000000E+00  0.45593999997E+02  0.45594000000E+02  0.51100000000E-03 0. -1.
         11   -1    0    0    0    0 -0.00000000000E+00 -0.00000000000E+00 -0.45593999997E+02  0.45594000000E+02  0.51100000000E-03 0.  1.
         23    2    1    2    0    0  0.00000000000E+00  0.35527136788E-14  0.00000000000E+00  0.91188000000E+02  0.91188000000E+02 0.  0.
    9900012    2    3    3    0    0 -0.20929039852E+02  0.28958273630E+02  0.88978195758E+01  0.54367115791E+02  0.40000072068E+02 0.  0.
        -12    1    3    3    0    0  0.20929039852E+02 -0.28958273630E+02 -0.88978195758E+01  0.36820884209E+02  0.00000000000E+00 0.  1.
         11    1    4    4    0    0  0.62151036571E+01  0.39521110821E+01 -0.36012800373E+01  0.81985311881E+01  0.51100000000E-03 0. -1.
        -11    1    4    4    0    0 -0.56588982397E+01  0.22040194520E+02  0.63020998436E+01  0.23611644722E+02  0.51100000000E-03 0.  1.
        -12    1    4    4    0    0 -0.21485245269E+02  0.29659680277E+01  0.61969997695E+01  0.22556939881E+02  0.00000000000E+00 0.  1.
</event>
<event>
 8    1  0.2482403E-006  0.9118800E+02  0.7816164E-02  0.1184000E+00
        -11   -1    0    0    0    0  0.00000000000E+00  0.00000000000E+00  0.45593999997E+02  0.45594000000E+02  0.51100000000E-03 0. -1.
         11   -1    0    0    0    0 -0.00000000000E+00 -0.00000000000E+00 -0.45593999997E+02  0.45594000000E+02  0.51100000000E-03 0.  1.
         23    2    1    2    0    0  0.35527136788E-14 -0.35527136788E-14  0.00000000000E+00  0.91188000000E+02  0.91188000000E+02 0.  0.
    9900012    2    3    3    0    0  0.24791694006E+02  0.26039154250E+02 -0.79444496164E+01  0.54367083044E+02  0.39999997416E+02 0.  0.
         12    1    3    3    0    0 -0.24791694006E+02 -0.26039154250E+02  0.79444496164E+01  0.36820916956E+02  0.00000000000E+00 0. -1.
         11    1    4    4    0    0  0.77714379432E+01  0.24987747462E+02  0.75516963771E+01  0.27236205487E+02  0.51100000000E-03 0. -1.
        -11    1    4    4    0    0  0.20058644093E+01 -0.44609641156E+01 -0.82068382404E+01  0.95538414805E+01  0.51100000000E-03 0.  1.
        -12    1    4    4    0    0  0.15014391653E+02  0.55123709043E+01 -0.72893077531E+01  0.17577036076E+02  0.00000000000E+00 0.  1.
</event>
<event>
 8    1  0.2482403E-006  0.9118800E+02  0.7816164E-02  0.1184000E+00
        -11   -1    0    0    0    0  0.00000000000E+00  0.00000000000E+00  0.45593999997E+02  0.45594000000E+02  0.51100000000E-03 0. -1.
         11   -1    0    0    0    0 -0.00000000000E+00 -0.00000000000E+00 -0.45593999997E+02  0.45594000000E+02  0.51100000000E-03 0.  1.
         23    2    1    2    0    0 -0.35527136788E-14  0.00000000000E+00  0.00000000000E+00  0.91188000000E+02  0.91188000000E+02 0.  0.
    9900012    2    3    3    0    0 -0.15706431845E+02 -0.29295381991E+02  0.15838794153E+02  0.54367098225E+02  0.40000032024E+02 0.  0.
         12    1    3    3    0    0  0.15706431845E+02  0.29295381991E+02 -0.15838794153E+02  0.36820901775E+02  0.00000000000E+00 0. -1.
         11    1    4    4    0    0  0.75413438797E+01 -0.83087191888E+01  0.85449456142E+01  0.14103998649E+02  0.51100000000E-03 0. -1.
        -11    1    4    4    0    0 -0.24992062973E+02 -0.14184343495E+02  0.12683046268E+02  0.31411120243E+02  0.51100000000E-03 0.  1.
        -12    1    4    4    0    0  0.17442872482E+01 -0.68023193069E+01 -0.53891977295E+01  0.88519793337E+01  0.00000000000E+00 0.  1.
</event>
<event>
 8    1  0.2482403E-006  0.9118800E+02  0.7816164E-02  0.1184000E+00
        -11   -1    0    0    0    0  0.00000000000E+00  0.00000000000E+00  0.45593999997E+02  0.45594000000E+02  0.51100000000E-03 0.  1.
         11   -1    0    0    0    0 -0.00000000000E+00 -0.00000000000E+00 -0.45593999997E+02  0.45594000000E+02  0.51100000000E-03 0. -1.
         23    2    1    2    0    0  0.35527136788E-14  0.35527136788E-14  0.00000000000E+00  0.91188000000E+02  0.91188000000E+02 0.  0.
    9900012    2    3    3    0    0  0.23150768785E+02  0.25126360446E+02  0.13729127478E+02  0.54367068101E+02  0.39999963350E+02 0.  0.
        -12    1    3    3    0    0 -0.23150768785E+02 -0.25126360446E+02 -0.13729127478E+02  0.36820931899E+02  0.00000000000E+00 0.  1.
         11    1    4    4    0    0  0.27170132045E+02  0.26219891715E+02  0.79573628336E+01  0.38587801446E+02  0.51100000000E-03 0. -1.
        -11    1    4    4    0    0 -0.67778544808E+01  0.12318665485E+01  0.87250444085E+01  0.11116798404E+02  0.51100000000E-03 0.  1.
        -12    1    4    4    0    0  0.27584912206E+01 -0.23253978184E+01 -0.29532797637E+01  0.46624682509E+01  0.00000000000E+00 0.  1.
</event>
<event>
 8    1  0.2482403E-006  0.9118800E+02  0.7816164E-02  0.1184000E+00
        -11   -1    0    0    0    0  0.00000000000E+00  0.00000000000E+00  0.45593999997E+02  0.45594000000E+02  0.51100000000E-03 0.  1.
         11   -1    0    0    0    0 -0.00000000000E+00 -0.00000000000E+00 -0.45593999997E+02  0.45594000000E+02  0.51100000000E-03 0. -1.
         23    2    1    2    0    0  0.00000000000E+00 -0.11102230246E-14  0.00000000000E+00  0.91188000000E+02  0.91188000000E+02 0.  0.
    9900012    2    3    3    0    0 -0.32575819778E+02 -0.18219890161E+01  0.17066862736E+02  0.54367061910E+02  0.39999949236E+02 0.  0.
         12    1    3    3    0    0  0.32575819778E+02  0.18219890161E+01 -0.17066862736E+02  0.36820938090E+02  0.00000000000E+00 0. -1.
         11    1    4    4    0    0  0.17072028017E+01 -0.82464014379E+01 -0.27262592514E+01  0.88515630172E+01  0.51100000000E-03 0. -1.
        -11    1    4    4    0    0 -0.24530065503E+02 -0.19904110449E+01  0.36767717115E+01  0.24883820049E+02  0.51100000000E-03 0.  1.
        -12    1    4    4    0    0 -0.97529570759E+01  0.84148234667E+01  0.16116350276E+02  0.20631678844E+02  0.00000000000E+00 0.  1.
</event>
<event>
 8    1  0.2482403E-006  0.9118800E+02  0.7816164E-02  0.1184000E+00
        -11   -1    0    0    0    0  0.00000000000E+00  0.00000000000E+00  0.45593999997E+02  0.45594000000E+02  0.51100000000E-03 0.  1.
         11   -1    0    0    0    0 -0.00000000000E+00 -0.00000000000E+00 -0.45593999997E+02  0.45594000000E+02  0.51100000000E-03 0. -1.
         23    2    1    2    0    0  0.00000000000E+00  0.00000000000E+00  0.11102230246E-15  0.91188000000E+02  0.91188000000E+02 0.  0.
    9900012    2    3    3    0    0  0.28421295490E+02  0.23408975626E+02  0.17422121305E+00  0.54367074832E+02  0.39999978695E+02 0.  0.
        -12    1    3    3    0    0 -0.28421295490E+02 -0.23408975626E+02 -0.17422121305E+00  0.36820925168E+02  0.00000000000E+00 0.  1.
         11    1    4    4    0    0  0.34957053117E+02  0.19467698423E+02  0.24783741689E+01  0.40089015744E+02  0.51100000000E-03 0. -1.
        -11    1    4    4    0    0 -0.79186419207E+01  0.45954546598E+01 -0.55383514128E+01  0.10700300465E+02  0.51100000000E-03 0.  1.
         12    1    4    4    0    0  0.13828842929E+01 -0.65417745649E+00  0.32341984570E+01  0.35777586240E+01  0.00000000000E+00 0. -1.
</event>
<event>
 8    1  0.2482403E-006  0.9118800E+02  0.7816164E-02  0.1184000E+00
        -11   -1    0    0    0    0  0.00000000000E+00  0.00000000000E+00  0.45593999997E+02  0.45594000000E+02  0.51100000000E-03 0. -1.
         11   -1    0    0    0    0 -0.00000000000E+00 -0.00000000000E+00 -0.45593999997E+02  0.45594000000E+02  0.51100000000E-03 0.  1.
         23    2    1    2    0    0  0.17763568394E-14  0.71054273576E-14  0.17763568394E-14  0.91188000000E+02  0.91188000000E+02 0.  0.
    9900012    2    3    3    0    0  0.67591158920E+01 -0.34637261212E+02 -0.10504981584E+02  0.54367079995E+02  0.39999990465E+02 0.  0.
        -12    1    3    3    0    0 -0.67591158920E+01  0.34637261212E+02  0.10504981584E+02  0.36820920005E+02  0.00000000000E+00 0.  1.
         11    1    4    4    0    0  0.13785608934E+02 -0.62981962332E+00 -0.36602303571E+01  0.14277148629E+02  0.51100000000E-03 0. -1.
        -11    1    4    4    0    0 -0.84656129993E+01 -0.11301971148E+02 -0.97416628287E+01  0.17155207670E+02  0.51100000000E-03 0.  1.
         12    1    4    4    0    0  0.14391199571E+01 -0.22705470441E+02  0.28969116016E+01  0.22934723696E+02  0.00000000000E+00 0. -1.
</event>
<event>
 8    1  0.2482403E-006  0.9118800E+02  0.7816164E-02  0.1184000E+00
        -11   -1    0    0    0    0  0.00000000000E+00  0.00000000000E+00  0.45593999997E+02  0.45594000000E+02  0.51100000000E-03 0. -1.
         11   -1    0    0    0    0 -0.00000000000E+00 -0.00000000000E+00 -0.45593999997E+02  0.45594000000E+02  0.51100000000E-03 0.  1.
         23    2    1    2    0    0  0.00000000000E+00  0.00000000000E+00  0.00000000000E+00  0.91188000000E+02  0.91188000000E+02 0.  0.
    9900012    2    3    3    0    0 -0.20072786468E+02  0.22867084886E+02 -0.20735485710E+02  0.54367072589E+02  0.39999973582E+02 0.  0.
         12    1    3    3    0    0  0.20072786468E+02 -0.22867084886E+02  0.20735485710E+02  0.36820927411E+02  0.00000000000E+00 0. -1.
         11    1    4    4    0    0 -0.73894931862E+00  0.26865245198E+02 -0.10064211166E+02  0.28698010250E+02  0.51100000000E-03 0. -1.
        -11    1    4    4    0    0  0.12883847951E+01  0.17079170123E+00 -0.30092850708E+01  0.32779417450E+01  0.51100000000E-03 0.  1.
        -12    1    4    4    0    0 -0.20622221944E+02 -0.41689520127E+01 -0.76619894728E+01  0.22391120595E+02  0.00000000000E+00 0.  1.
</event>
<event>
 8    1  0.2482403E-006  0.9118800E+02  0.7816164E-02  0.1184000E+00
        -11   -1    0    0    0    0  0.00000000000E+00  0.00000000000E+00  0.45593999997E+02  0.45594000000E+02  0.51100000000E-03 0.  1.
         11   -1    0    0    0    0 -0.00000000000E+00 -0.00000000000E+00 -0.45593999997E+02  0.45594000000E+02  0.51100000000E-03 0. -1.
         23    2    1    2    0    0  0.00000000000E+00  0.35527136788E-14  0.35527136788E-14  0.91188000000E+02  0.91188000000E+02 0.  0.
    9900012    2    3    3    0    0 -0.17509106350E+02 -0.16938488599E+02 -0.27609760509E+02  0.54367080992E+02  0.39999992737E+02 0.  0.
        -12    1    3    3    0    0  0.17509106350E+02  0.16938488599E+02  0.27609760509E+02  0.36820919008E+02  0.00000000000E+00 0.  1.
         11    1    4    4    0    0 -0.12145040699E+02 -0.13968445622E+02 -0.10171734384E+01  0.18537910582E+02  0.51100000000E-03 0.  1.
        -11    1    4    4    0    0 -0.37989133129E+01 -0.12611390375E+02 -0.98546913628E+01  0.16449737131E+02  0.51100000000E-03 0. -1.
         12    1    4    4    0    0 -0.15651523386E+01  0.96413473979E+01 -0.16737895708E+02  0.19379433279E+02  0.00000000000E+00 0. -1.
</event>
<event>
 8    1  0.2482403E-006  0.9118800E+02  0.7816164E-02  0.1184000E+00
        -11   -1    0    0    0    0  0.00000000000E+00  0.00000000000E+00  0.45593999997E+02  0.45594000000E+02  0.51100000000E-03 0.  1.
         11   -1    0    0    0    0 -0.00000000000E+00 -0.00000000000E+00 -0.45593999997E+02  0.45594000000E+02  0.51100000000E-03 0. -1.
         23    2    1    2    0    0  0.00000000000E+00  0.35527136788E-14  0.13322676296E-14  0.91188000000E+02  0.91188000000E+02 0.  0.
    9900012    2    3    3    0    0  0.34633505737E+02  0.12439045359E+02 -0.12529510557E+01  0.54367089427E+02  0.40000011968E+02 0.  0.
         12    1    3    3    0    0 -0.34633505737E+02 -0.12439045359E+02  0.12529510557E+01  0.36820910573E+02  0.00000000000E+00 0. -1.
         11    1    4    4    0    0 -0.13764970802E+01  0.56755025499E+01  0.14122312663E+01  0.60083667345E+01  0.51100000000E-03 0. -1.
        -11    1    4    4    0    0  0.17385362550E+02 -0.39031314139E+01 -0.15271835422E+02  0.23467301150E+02  0.51100000000E-03 0.  1.
        -12    1    4    4    0    0  0.18624640266E+02  0.10666674223E+02  0.12606653100E+02  0.24891421543E+02  0.00000000000E+00 0.  1.
</event>
<event>
 8    1  0.2482403E-006  0.9118800E+02  0.7816164E-02  0.1184000E+00
        -11   -1    0    0    0    0  0.00000000000E+00  0.00000000000E+00  0.45593999997E+02  0.45594000000E+02  0.51100000000E-03 0.  1.
         11   -1    0    0    0    0 -0.00000000000E+00 -0.00000000000E+00 -0.45593999997E+02  0.45594000000E+02  0.51100000000E-03 0. -1.
         23    2    1    2    0    0  0.88817841970E-15 -0.88817841970E-15  0.00000000000E+00  0.91188000000E+02  0.91188000000E+02 0.  0.
    9900012    2    3    3    0    0 -0.58372322312E+01 -0.33531168678E+01 -0.36200460009E+02  0.54366946543E+02  0.39999686232E+02 0.  0.
        -12    1    3    3    0    0  0.58372322312E+01  0.33531168678E+01  0.36200460009E+02  0.36821053457E+02  0.00000000000E+00 0.  1.
         11    1    4    4    0    0  0.46686176610E+01  0.60197272906E+01 -0.11940632012E+02  0.14163749526E+02  0.51100000000E-03 0. -1.
        -11    1    4    4    0    0  0.93005708372E+01  0.59866235641E-01 -0.33191113497E+01  0.98752570740E+01  0.51100000000E-03 0.  1.
        -12    1    4    4    0    0 -0.19806420729E+02 -0.94327103941E+01 -0.20940716647E+02  0.30327939943E+02  0.00000000000E+00 0.  1.
</event>
<event>
 8    1  0.2482403E-006  0.9118800E+02  0.7816164E-02  0.1184000E+00
        -11   -1    0    0    0    0  0.00000000000E+00  0.00000000000E+00  0.45593999997E+02  0.45594000000E+02  0.51100000000E-03 0. -1.
         11   -1    0    0    0    0 -0.00000000000E+00 -0.00000000000E+00 -0.45593999997E+02  0.45594000000E+02  0.51100000000E-03 0.  1.
         23    2    1    2    0    0  0.00000000000E+00  0.00000000000E+00 -0.17763568394E-14  0.91188000000E+02  0.91188000000E+02 0.  0.
    9900012    2    3    3    0    0 -0.17412852319E+02  0.32419051047E+02 -0.12556468350E+01  0.54367096350E+02  0.40000027748E+02 0.  0.
         12    1    3    3    0    0  0.17412852319E+02 -0.32419051047E+02  0.12556468350E+01  0.36820903650E+02  0.00000000000E+00 0. -1.
         11    1    4    4    0    0 -0.90315146757E+01  0.43043410497E+01 -0.13139244539E+02  0.16514701224E+02  0.51100000000E-03 0. -1.
        -11    1    4    4    0    0 -0.16479586206E+01 -0.46540023268E+00 -0.40843519487E+01  0.44288030092E+01  0.51100000000E-03 0.  1.
         12    1    4    4    0    0 -0.67333790226E+01  0.28580110230E+02  0.15967949653E+02  0.33423592116E+02  0.00000000000E+00 0. -1.
</event>
<event>
 8    1  0.2482403E-006  0.9118800E+02  0.7816164E-02  0.1184000E+00
        -11   -1    0    0    0    0  0.00000000000E+00  0.00000000000E+00  0.45593999997E+02  0.45594000000E+02  0.51100000000E-03 0. -1.
         11   -1    0    0    0    0 -0.00000000000E+00 -0.00000000000E+00 -0.45593999997E+02  0.45594000000E+02  0.51100000000E-03 0.  1.
         23    2    1    2    0    0  0.79103390505E-15  0.00000000000E+00  0.00000000000E+00  0.91188000000E+02  0.91188000000E+02 0.  0.
    9900012    2    3    3    0    0 -0.12281501654E+00 -0.24372924595E+02 -0.27599342387E+02  0.54367105972E+02  0.40000049684E+02 0.  0.
         12    1    3    3    0    0  0.12281501654E+00  0.24372924595E+02  0.27599342387E+02  0.36820894028E+02  0.00000000000E+00 0. -1.
         11    1    4    4    0    0 -0.10491516420E+02 -0.11510919168E+01 -0.16846241492E+02  0.19879456282E+02  0.51100000000E-03 0. -1.
        -11    1    4    4    0    0  0.14923816179E+02 -0.23693630608E+02 -0.79112338478E+01  0.29098041892E+02  0.51100000000E-03 0.  1.
        -12    1    4    4    0    0 -0.45551147755E+01  0.47179792931E+00 -0.28418670471E+01  0.53896077981E+01  0.00000000000E+00 0.  1.
</event>
<event>
 8    1  0.2482403E-006  0.9118800E+02  0.7816164E-02  0.1184000E+00
        -11   -1    0    0    0    0  0.00000000000E+00  0.00000000000E+00  0.45593999997E+02  0.45594000000E+02  0.51100000000E-03 0. -1.
         11   -1    0    0    0    0 -0.00000000000E+00 -0.00000000000E+00 -0.45593999997E+02  0.45594000000E+02  0.51100000000E-03 0.  1.
         23    2    1    2    0    0  0.44408920985E-15  0.00000000000E+00  0.35527136788E-14  0.91188000000E+02  0.91188000000E+02 0.  0.
    9900012    2    3    3    0    0 -0.36565167646E+01 -0.19113849625E+02  0.31258117152E+02  0.54367092214E+02  0.40000018320E+02 0.  0.
        -12    1    3    3    0    0  0.36565167646E+01  0.19113849625E+02 -0.31258117152E+02  0.36820907786E+02  0.00000000000E+00 0.  1.
         11    1    4    4    0    0 -0.62196313466E+01 -0.13950192074E+02  0.36035410846E+02  0.39138759665E+02  0.51100000000E-03 0. -1.
        -11    1    4    4    0    0 -0.26692734342E+01 -0.49881757168E+01  0.25641126379E+01  0.62114081760E+01  0.51100000000E-03 0.  1.
         12    1    4    4    0    0  0.52323880162E+01 -0.17548183345E+00 -0.73414063319E+01  0.90169243734E+01  0.00000000000E+00 0. -1.
</event>
<event>
 8    1  0.2482403E-006  0.9118800E+02  0.7816164E-02  0.1184000E+00
        -11   -1    0    0    0    0  0.00000000000E+00  0.00000000000E+00  0.45593999997E+02  0.45594000000E+02  0.51100000000E-03 0. -1.
         11   -1    0    0    0    0 -0.00000000000E+00 -0.00000000000E+00 -0.45593999997E+02  0.45594000000E+02  0.51100000000E-03 0.  1.
         23    2    1    2    0    0  0.17763568394E-14  0.00000000000E+00  0.35527136788E-14  0.91188000000E+02  0.91188000000E+02 0.  0.
    9900012    2    3    3    0    0  0.15993704914E+02  0.29501196802E+02 -0.15154595120E+02  0.54367068957E+02  0.39999965301E+02 0.  0.
        -12    1    3    3    0    0 -0.15993704914E+02 -0.29501196802E+02  0.15154595120E+02  0.36820931043E+02  0.00000000000E+00 0.  1.
         11    1    4    4    0    0  0.12547020097E+02  0.18266868830E+02 -0.11613846131E+02  0.25019744850E+02  0.51100000000E-03 0. -1.
        -11    1    4    4    0    0  0.11448000010E+02  0.54635228484E+01 -0.11149765276E+02  0.16888577563E+02  0.51100000000E-03 0.  1.
        -12    1    4    4    0    0 -0.80013151926E+01  0.57708051240E+01  0.76090162863E+01  0.12458746544E+02  0.00000000000E+00 0.  1.
</event>
<event>
 8    1  0.2482403E-006  0.9118800E+02  0.7816164E-02  0.1184000E+00
        -11   -1    0    0    0    0  0.00000000000E+00  0.00000000000E+00  0.45593999997E+02  0.45594000000E+02  0.51100000000E-03 0. -1.
         11   -1    0    0    0    0 -0.00000000000E+00 -0.00000000000E+00 -0.45593999997E+02  0.45594000000E+02  0.51100000000E-03 0.  1.
         23    2    1    2    0    0  0.71054273576E-14  0.35527136788E-14  0.17763568394E-14  0.91188000000E+02  0.91188000000E+02 0.  0.
    9900012    2    3    3    0    0 -0.24895012202E+02 -0.23565392488E+02 -0.13442120994E+02  0.54367082406E+02  0.39999995961E+02 0.  0.
         12    1    3    3    0    0  0.24895012202E+02  0.23565392488E+02  0.13442120994E+02  0.36820917594E+02  0.00000000000E+00 0. -1.
         11    1    4    4    0    0 -0.48329762151E+01 -0.94168407542E+01  0.12359249502E+02  0.16272233940E+02  0.51100000000E-03 0. -1.
        -11    1    4    4    0    0 -0.19819662259E+02 -0.12271360192E+02 -0.16393056570E+02  0.28498027949E+02  0.51100000000E-03 0.  1.
         12    1    4    4    0    0 -0.24237372758E+00 -0.18771915414E+01 -0.94083139261E+01  0.95968205172E+01  0.00000000000E+00 0. -1.
</event>
<event>
 8    1  0.2482403E-006  0.9118800E+02  0.7816164E-02  0.1184000E+00
        -11   -1    0    0    0    0  0.00000000000E+00  0.00000000000E+00  0.45593999997E+02  0.45594000000E+02  0.51100000000E-03 0.  1.
         11   -1    0    0    0    0 -0.00000000000E+00 -0.00000000000E+00 -0.45593999997E+02  0.45594000000E+02  0.51100000000E-03 0. -1.
         23    2    1    2    0    0  0.00000000000E+00  0.00000000000E+00 -0.71054273576E-14  0.91188000000E+02  0.91188000000E+02 0.  0.
    9900012    2    3    3    0    0  0.75161290879E+01 -0.86684719790E+01  0.34987778762E+02  0.54367092004E+02  0.40000017842E+02 0.  0.
         12    1    3    3    0    0 -0.75161290879E+01  0.86684719790E+01 -0.34987778762E+02  0.36820907996E+02  0.00000000000E+00 0. -1.
         11    1    4    4    0    0 -0.73722895268E+01 -0.32088553211E+00 -0.22796213964E+01  0.77233603026E+01  0.51100000000E-03 0. -1.
        -11    1    4    4    0    0  0.17484019265E+02 -0.53156530659E+01  0.38373045595E+02  0.42502208480E+02  0.51100000000E-03 0.  1.
        -12    1    4    4    0    0 -0.25956006504E+01 -0.30319333810E+01 -0.11056454364E+01  0.41415232215E+01  0.00000000000E+00 0.  1.
</event>
<event>
 8    1  0.2482403E-006  0.9118800E+02  0.7816164E-02  0.1184000E+00
        -11   -1    0    0    0    0  0.00000000000E+00  0.00000000000E+00  0.45593999997E+02  0.45594000000E+02  0.51100000000E-03 0.  1.
         11   -1    0    0    0    0 -0.00000000000E+00 -0.00000000000E+00 -0.45593999997E+02  0.45594000000E+02  0.51100000000E-03 0. -1.
         23    2    1    2    0    0  0.00000000000E+00 -0.35527136788E-14 -0.11102230246E-15  0.91188000000E+02  0.91188000000E+02 0.  0.
    9900012    2    3    3    0    0  0.22423097031E+02  0.29196423640E+02  0.74340666349E+00  0.54367094426E+02  0.40000023362E+02 0.  0.
        -12    1    3    3    0    0 -0.22423097031E+02 -0.29196423640E+02 -0.74340666349E+00  0.36820905574E+02  0.00000000000E+00 0.  1.
         11    1    4    4    0    0 -0.60903442871E+01  0.27709357638E+01 -0.76568558855E+01  0.10168471904E+02  0.51100000000E-03 0. -1.
        -11    1    4    4    0    0  0.13420369107E+02  0.13061258875E+02  0.13877281946E+02  0.23308405025E+02  0.51100000000E-03 0.  1.
        -12    1    4    4    0    0  0.15093072211E+02  0.13364229002E+02 -0.54770193971E+01  0.20890217497E+02  0.00000000000E+00 0.  1.
</event>
<event>
 8    1  0.2482403E-006  0.9118800E+02  0.7816164E-02  0.1184000E+00
        -11   -1    0    0    0    0  0.00000000000E+00  0.00000000000E+00  0.45593999997E+02  0.45594000000E+02  0.51100000000E-03 0.  1.
         11   -1    0    0    0    0 -0.00000000000E+00 -0.00000000000E+00 -0.45593999997E+02  0.45594000000E+02  0.51100000000E-03 0. -1.
         23    2    1    2    0    0 -0.44408920985E-15  0.00000000000E+00  0.00000000000E+00  0.91188000000E+02  0.91188000000E+02 0.  0.
    9900012    2    3    3    0    0  0.98237334263E+00  0.16689903094E+02 -0.32806449923E+02  0.54367067377E+02  0.39999961700E+02 0.  0.
        -12    1    3    3    0    0 -0.98237334263E+00 -0.16689903094E+02  0.32806449923E+02  0.36820932623E+02  0.00000000000E+00 0.  1.
         11    1    4    4    0    0  0.59461946875E+01 -0.38897372087E+01 -0.11079207869E+01  0.71912985994E+01  0.51100000000E-03 0. -1.
        -11    1    4    4    0    0  0.19474316240E+01 -0.62909772518E+01 -0.29297217697E+01  0.72077843074E+01  0.51100000000E-03 0.  1.
         12    1    4    4    0    0 -0.69112529688E+01  0.26870617554E+02 -0.28768807366E+02  0.39967984470E+02  0.00000000000E+00 0. -1.
</event>
<event>
 8    1  0.2482403E-006  0.9118800E+02  0.7816164E-02  0.1184000E+00
        -11   -1    0    0    0    0  0.00000000000E+00  0.00000000000E+00  0.45593999997E+02  0.45594000000E+02  0.51100000000E-03 0. -1.
         11   -1    0    0    0    0 -0.00000000000E+00 -0.00000000000E+00 -0.45593999997E+02  0.45594000000E+02  0.51100000000E-03 0.  1.
         23    2    1    2    0    0 -0.35527136788E-14  0.35527136788E-14  0.22204460493E-15  0.91188000000E+02  0.91188000000E+02 0.  0.
    9900012    2    3    3    0    0 -0.26896057593E+02  0.25130275190E+02 -0.92182903829E+00  0.54367103569E+02  0.40000044206E+02 0.  0.
        -12    1    3    3    0    0  0.26896057593E+02 -0.25130275190E+02  0.92182903829E+00  0.36820896431E+02  0.00000000000E+00 0.  1.
         11    1    4    4    0    0 -0.32764109033E+02  0.18909625107E+02  0.43710806970E+01  0.38081059716E+02  0.51100000000E-03 0. -1.
        -11    1    4    4    0    0 -0.31308024475E+01  0.22127340619E+01 -0.51673011581E+01  0.64342145995E+01  0.51100000000E-03 0.  1.
         12    1    4    4    0    0  0.89988538870E+01  0.40079160217E+01 -0.12560857726E+00  0.98518292531E+01  0.00000000000E+00 0. -1.
</event>
<event>
 8    1  0.2482403E-006  0.9118800E+02  0.7816164E-02  0.1184000E+00
        -11   -1    0    0    0    0  0.00000000000E+00  0.00000000000E+00  0.45593999997E+02  0.45594000000E+02  0.51100000000E-03 0.  1.
         11   -1    0    0    0    0 -0.00000000000E+00 -0.00000000000E+00 -0.45593999997E+02  0.45594000000E+02  0.51100000000E-03 0. -1.
         23    2    1    2    0    0 -0.35527136788E-14  0.35527136788E-14  0.00000000000E+00  0.91188000000E+02  0.91188000000E+02 0.  0.
    9900012    2    3    3    0    0  0.17273045275E+02 -0.19763359592E+02  0.25823093236E+02  0.54367073617E+02  0.39999975926E+02 0.  0.
         12    1    3    3    0    0 -0.17273045275E+02  0.19763359592E+02 -0.25823093236E+02  0.36820926383E+02  0.00000000000E+00 0. -1.
         11    1    4    4    0    0 -0.35171123607E+01 -0.83371404051E+00 -0.66512301311E+01  0.75699419402E+01  0.51100000000E-03 0. -1.
        -11    1    4    4    0    0  0.14950629301E+02 -0.17896010483E+01  0.18909962554E+02  0.24172518951E+02  0.51100000000E-03 0.  1.
        -12    1    4    4    0    0  0.58395283345E+01 -0.17140044503E+02  0.13564360813E+02  0.22624612726E+02  0.00000000000E+00 0.  1.
</event>
<event>
 8    1  0.2482403E-006  0.9118800E+02  0.7816164E-02  0.1184000E+00
        -11   -1    0    0    0    0  0.00000000000E+00  0.00000000000E+00  0.45593999997E+02  0.45594000000E+02  0.51100000000E-03 0.  1.
         11   -1    0    0    0    0 -0.00000000000E+00 -0.00000000000E+00 -0.45593999997E+02  0.45594000000E+02  0.51100000000E-03 0. -1.
         23    2    1    2    0    0  0.35527136788E-14  0.35527136788E-14  0.00000000000E+00  0.91188000000E+02  0.91188000000E+02 0.  0.
    9900012    2    3    3    0    0  0.19082878866E+02  0.28610468243E+02 -0.13155529271E+02  0.54367039810E+02  0.39999898854E+02 0.  0.
        -12    1    3    3    0    0 -0.19082878866E+02 -0.28610468243E+02  0.13155529271E+02  0.36820960190E+02  0.00000000000E+00 0.  1.
         11    1    4    4    0    0  0.73862222534E+01  0.19466551793E+02  0.26193430450E+01  0.20984848728E+02  0.51100000000E-03 0. -1.
        -11    1    4    4    0    0  0.55334127965E+01  0.13737870084E+01  0.67112459704E+01  0.88060644250E+01  0.51100000000E-03 0.  1.
         12    1    4    4    0    0  0.61632438165E+01  0.77701294423E+01 -0.22486118286E+02  0.24576126657E+02  0.00000000000E+00 0. -1.
</event>
<event>
 8    1  0.2482403E-006  0.9118800E+02  0.7816164E-02  0.1184000E+00
        -11   -1    0    0    0    0  0.00000000000E+00  0.00000000000E+00  0.45593999997E+02  0.45594000000E+02  0.51100000000E-03 0. -1.
         11   -1    0    0    0    0 -0.00000000000E+00 -0.00000000000E+00 -0.45593999997E+02  0.45594000000E+02  0.51100000000E-03 0.  1.
         23    2    1    2    0    0  0.00000000000E+00  0.17763568394E-14  0.00000000000E+00  0.91188000000E+02  0.91188000000E+02 0.  0.
    9900012    2    3    3    0    0 -0.34565882458E+02  0.11672156334E+02 -0.49740232453E+01  0.54367076997E+02  0.39999983630E+02 0.  0.
         12    1    3    3    0    0  0.34565882458E+02 -0.11672156334E+02  0.49740232453E+01  0.36820923003E+02  0.00000000000E+00 0. -1.
         11    1    4    4    0    0 -0.13444321176E+01  0.27952944952E+01 -0.95594787200E+01  0.10050114561E+02  0.51100000000E-03 0. -1.
        -11    1    4    4    0    0 -0.14111214833E+02  0.16562232651E+02  0.84830679610E+01  0.23353722974E+02  0.51100000000E-03 0.  1.
         12    1    4    4    0    0 -0.19110235507E+02 -0.76853708122E+01 -0.38976124863E+01  0.20963239462E+02  0.00000000000E+00 0. -1.
</event>
<event>
 8    1  0.2482403E-006  0.9118800E+02  0.7816164E-02  0.1184000E+00
        -11   -1    0    0    0    0  0.00000000000E+00  0.00000000000E+00  0.45593999997E+02  0.45594000000E+02  0.51100000000E-03 0. -1.
         11   -1    0    0    0    0 -0.00000000000E+00 -0.00000000000E+00 -0.45593999997E+02  0.45594000000E+02  0.51100000000E-03 0.  1.
         23    2    1    2    0    0  0.17763568394E-14  0.00000000000E+00 -0.88817841970E-15  0.91188000000E+02  0.91188000000E+02 0.  0.
    9900012    2    3    3    0    0 -0.34248406642E+01  0.36082533986E+02  0.64885259283E+01  0.54367085276E+02  0.40000002503E+02 0.  0.
         12    1    3    3    0    0  0.34248406642E+01 -0.36082533986E+02 -0.64885259283E+01  0.36820914724E+02  0.00000000000E+00 0. -1.
         11    1    4    4    0    0  0.10198573954E+02  0.19617326510E+01  0.57187409679E+01  0.11855939617E+02  0.51100000000E-03 0. -1.
        -11    1    4    4    0    0  0.54380664752E+01  0.97863590070E+01  0.27762149790E+01  0.11534849781E+02  0.51100000000E-03 0.  1.
        -12    1    4    4    0    0 -0.19061481093E+02  0.24334442328E+02 -0.20064300187E+01  0.30976295878E+02  0.00000000000E+00 0.  1.
</event>
<event>
 8    1  0.2482403E-006  0.9118800E+02  0.7816164E-02  0.1184000E+00
        -11   -1    0    0    0    0  0.00000000000E+00  0.00000000000E+00  0.45593999997E+02  0.45594000000E+02  0.51100000000E-03 0.  1.
         11   -1    0    0    0    0 -0.00000000000E+00 -0.00000000000E+00 -0.45593999997E+02  0.45594000000E+02  0.51100000000E-03 0. -1.
         23    2    1    2    0    0  0.00000000000E+00 -0.44408920985E-15  0.35527136788E-14  0.91188000000E+02  0.91188000000E+02 0.  0.
    9900012    2    3    3    0    0 -0.22243457455E+02  0.15263838043E+01 -0.29303192761E+02  0.54367104396E+02  0.40000046093E+02 0.  0.
        -12    1    3    3    0    0  0.22243457455E+02 -0.15263838043E+01  0.29303192761E+02  0.36820895604E+02  0.00000000000E+00 0.  1.
         11    1    4    4    0    0 -0.43444335464E+01  0.92744715052E+01 -0.17883498778E+02  0.20608480132E+02  0.51100000000E-03 0. -1.
        -11    1    4    4    0    0  0.10859757028E+01  0.32665875058E+01  0.51939016128E+01  0.62310955204E+01  0.51100000000E-03 0.  1.
         12    1    4    4    0    0 -0.18984999611E+02 -0.11014675207E+02 -0.16613595596E+02  0.27527528744E+02  0.00000000000E+00 0. -1.
</event>
<event>
 8    1  0.2482403E-006  0.9118800E+02  0.7816164E-02  0.1184000E+00
        -11   -1    0    0    0    0  0.00000000000E+00  0.00000000000E+00  0.45593999997E+02  0.45594000000E+02  0.51100000000E-03 0. -1.
         11   -1    0    0    0    0 -0.00000000000E+00 -0.00000000000E+00 -0.45593999997E+02  0.45594000000E+02  0.51100000000E-03 0.  1.
         23    2    1    2    0    0 -0.35527136788E-14  0.71054273576E-14 -0.71054273576E-14  0.91188000000E+02  0.91188000000E+02 0.  0.
    9900012    2    3    3    0    0 -0.15229200904E+02  0.17473770611E+02 -0.28609778111E+02  0.54367073571E+02  0.39999975820E+02 0.  0.
         12    1    3    3    0    0  0.15229200904E+02 -0.17473770611E+02  0.28609778111E+02  0.36820926429E+02  0.00000000000E+00 0. -1.
         11    1    4    4    0    0 -0.11045719882E+01 -0.56101840960E+01 -0.13383262603E+02  0.14553554997E+02  0.51100000000E-03 0. -1.
        -11    1    4    4    0    0  0.44059331435E+01 -0.14397836564E+01  0.14329229906E+01  0.48516484209E+01  0.51100000000E-03 0.  1.
        -12    1    4    4    0    0 -0.18530562060E+02  0.24523738363E+02 -0.16659438498E+02  0.34961870153E+02  0.00000000000E+00 0.  1.
</event>
<event>
 8    1  0.2482403E-006  0.9118800E+02  0.7816164E-02  0.1184000E+00
        -11   -1    0    0    0    0  0.00000000000E+00  0.00000000000E+00  0.45593999997E+02  0.45594000000E+02  0.51100000000E-03 0.  1.
         11   -1    0    0    0    0 -0.00000000000E+00 -0.00000000000E+00 -0.45593999997E+02  0.45594000000E+02  0.51100000000E-03 0. -1.
         23    2    1    2    0    0  0.35527136788E-14  0.00000000000E+00 -0.88817841970E-15  0.91188000000E+02  0.91188000000E+02 0.  0.
    9900012    2    3    3    0    0  0.30420077306E+02  0.20433484970E+02 -0.35876076530E+01  0.54367090994E+02  0.40000015540E+02 0.  0.
        -12    1    3    3    0    0 -0.30420077306E+02 -0.20433484970E+02  0.35876076530E+01  0.36820909006E+02  0.00000000000E+00 0.  1.
         11    1    4    4    0    0  0.20166577506E+02  0.21508112583E+02  0.24570691454E+01  0.29585924765E+02  0.51100000000E-03 0. -1.
        -11    1    4    4    0    0 -0.33413927292E+01  0.35582879798E+00 -0.10000831555E+02  0.10550267843E+02  0.51100000000E-03 0.  1.
        -12    1    4    4    0    0  0.13594892529E+02 -0.14304564104E+01  0.39561547564E+01  0.14230898387E+02  0.00000000000E+00 0.  1.
</event>
<event>
 8    1  0.2482403E-006  0.9118800E+02  0.7816164E-02  0.1184000E+00
        -11   -1    0    0    0    0  0.00000000000E+00  0.00000000000E+00  0.45593999997E+02  0.45594000000E+02  0.51100000000E-03 0. -1.
         11   -1    0    0    0    0 -0.00000000000E+00 -0.00000000000E+00 -0.45593999997E+02  0.45594000000E+02  0.51100000000E-03 0.  1.
         23    2    1    2    0    0 -0.17763568394E-14  0.00000000000E+00  0.88817841970E-15  0.91188000000E+02  0.91188000000E+02 0.  0.
    9900012    2    3    3    0    0 -0.14187417584E+02  0.33831794732E+02  0.31476092511E+01  0.54367073932E+02  0.39999976643E+02 0.  0.
         12    1    3    3    0    0  0.14187417584E+02 -0.33831794732E+02 -0.31476092511E+01  0.36820926068E+02  0.00000000000E+00 0. -1.
         11    1    4    4    0    0  0.69185299774E+01  0.62729502234E-01  0.44187001875E+00  0.69329100249E+01  0.51100000000E-03 0. -1.
        -11    1    4    4    0    0  0.19090177532E+01  0.11176831929E+02 -0.75147865551E+01  0.13602865065E+02  0.51100000000E-03 0.  1.
         12    1    4    4    0    0 -0.23014965315E+02  0.22592233301E+02  0.10220525787E+02  0.33831298842E+02  0.00000000000E+00 0. -1.
</event>
<event>
 8    1  0.2482403E-006  0.9118800E+02  0.7816164E-02  0.1184000E+00
        -11   -1    0    0    0    0  0.00000000000E+00  0.00000000000E+00  0.45593999997E+02  0.45594000000E+02  0.51100000000E-03 0. -1.
         11   -1    0    0    0    0 -0.00000000000E+00 -0.00000000000E+00 -0.45593999997E+02  0.45594000000E+02  0.51100000000E-03 0.  1.
         23    2    1    2    0    0  0.00000000000E+00  0.00000000000E+00  0.00000000000E+00  0.91188000000E+02  0.91188000000E+02 0.  0.
    9900012    2    3    3    0    0  0.10417468207E+02 -0.33812726806E+02  0.10195901898E+02  0.54367074517E+02  0.39999977976E+02 0.  0.
        -12    1    3    3    0    0 -0.10417468207E+02  0.33812726806E+02 -0.10195901898E+02  0.36820925483E+02  0.00000000000E+00 0.  1.
         11    1    4    4    0    0  0.36080176834E+01 -0.28519009050E+02 -0.66371451604E+00  0.28753994262E+02  0.51100000000E-03 0. -1.
        -11    1    4    4    0    0  0.50128913745E+01 -0.73800175804E+01 -0.45114770237E+01  0.99973578818E+01  0.51100000000E-03 0.  1.
        -12    1    4    4    0    0  0.17965591495E+01  0.20862998245E+01  0.15371093438E+02  0.15615722373E+02  0.00000000000E+00 0.  1.
</event>
<event>
 8    1  0.2482403E-006  0.9118800E+02  0.7816164E-02  0.1184000E+00
        -11   -1    0    0    0    0  0.00000000000E+00  0.00000000000E+00  0.45593999997E+02  0.45594000000E+02  0.51100000000E-03 0. -1.
         11   -1    0    0    0    0 -0.00000000000E+00 -0.00000000000E+00 -0.45593999997E+02  0.45594000000E+02  0.51100000000E-03 0.  1.
         23    2    1    2    0    0  0.00000000000E+00  0.00000000000E+00  0.00000000000E+00  0.91188000000E+02  0.91188000000E+02 0.  0.
    9900012    2    3    3    0    0 -0.36403563604E+02  0.32412665771E+01 -0.44782684465E+01  0.54367080126E+02  0.39999990762E+02 0.  0.
        -12    1    3    3    0    0  0.36403563604E+02 -0.32412665771E+01  0.44782684465E+01  0.36820919874E+02  0.00000000000E+00 0.  1.
         11    1    4    4    0    0 -0.96701110754E+01 -0.54792218123E+01  0.73898539947E+00  0.11139076244E+02  0.51100000000E-03 0. -1.
        -11    1    4    4    0    0 -0.50077265221E+01  0.18442252349E+02 -0.22454865588E+01  0.19241522985E+02  0.51100000000E-03 0.  1.
        -12    1    4    4    0    0 -0.21725726007E+02 -0.97217639597E+01 -0.29717672871E+01  0.23986480897E+02  0.00000000000E+00 0.  1.
</event>
<event>
 8    1  0.2482403E-006  0.9118800E+02  0.7816164E-02  0.1184000E+00
        -11   -1    0    0    0    0  0.00000000000E+00  0.00000000000E+00  0.45593999997E+02  0.45594000000E+02  0.51100000000E-03 0.  1.
         11   -1    0    0    0    0 -0.00000000000E+00 -0.00000000000E+00 -0.45593999997E+02  0.45594000000E+02  0.51100000000E-03 0. -1.
         23    2    1    2    0    0  0.00000000000E+00  0.17763568394E-14 -0.35527136788E-14  0.91188000000E+02  0.91188000000E+02 0.  0.
    9900012    2    3    3    0    0 -0.23194414771E+02  0.13355776762E+02 -0.25286792425E+02  0.54367088541E+02  0.40000009947E+02 0.  0.
        -12    1    3    3    0    0  0.23194414771E+02 -0.13355776762E+02  0.25286792425E+02  0.36820911459E+02  0.00000000000E+00 0.  1.
         11    1    4    4    0    0 -0.14424122957E+02  0.22479879417E+02 -0.29538309125E+02  0.39823510743E+02  0.51100000000E-03 0. -1.
        -11    1    4    4    0    0 -0.95807901425E+01 -0.88318744208E+01  0.38134713872E+01  0.13577043486E+02  0.51100000000E-03 0.  1.
         12    1    4    4    0    0  0.81049832803E+00 -0.29222823355E+00  0.43804531306E+00  0.96653431213E+00  0.00000000000E+00 0. -1.
</event>
<event>
 8    1  0.2482403E-006  0.9118800E+02  0.7816164E-02  0.1184000E+00
        -11   -1    0    0    0    0  0.00000000000E+00  0.00000000000E+00  0.45593999997E+02  0.45594000000E+02  0.51100000000E-03 0.  1.
         11   -1    0    0    0    0 -0.00000000000E+00 -0.00000000000E+00 -0.45593999997E+02  0.45594000000E+02  0.51100000000E-03 0. -1.
         23    2    1    2    0    0  0.71054273576E-14  0.00000000000E+00  0.10658141036E-13  0.91188000000E+02  0.91188000000E+02 0.  0.
    9900012    2    3    3    0    0 -0.18271674182E+02  0.52921888692E+01 -0.31526357771E+02  0.54367182861E+02  0.40000224969E+02 0.  0.
        -12    1    3    3    0    0  0.18271674182E+02 -0.52921888692E+01  0.31526357771E+02  0.36820817139E+02  0.00000000000E+00 0.  1.
         11    1    4    4    0    0 -0.32090508958E+01  0.69409371630E+01 -0.60875470971E+01  0.97740905599E+01  0.51100000000E-03 0. -1.
        -11    1    4    4    0    0  0.73511580254E+01  0.90137243281E+01 -0.61394168573E+01  0.13152155344E+02  0.51100000000E-03 0.  1.
         12    1    4    4    0    0 -0.22413781312E+02 -0.10662472622E+02 -0.19299393817E+02  0.31440936958E+02  0.00000000000E+00 0. -1.
</event>
<event>
 8    1  0.2482403E-006  0.9118800E+02  0.7816164E-02  0.1184000E+00
        -11   -1    0    0    0    0  0.00000000000E+00  0.00000000000E+00  0.45593999997E+02  0.45594000000E+02  0.51100000000E-03 0.  1.
         11   -1    0    0    0    0 -0.00000000000E+00 -0.00000000000E+00 -0.45593999997E+02  0.45594000000E+02  0.51100000000E-03 0. -1.
         23    2    1    2    0    0  0.17763568394E-14  0.66613381478E-15  0.71054273576E-14  0.91188000000E+02  0.91188000000E+02 0.  0.
    9900012    2    3    3    0    0  0.12305699567E+02 -0.99915565918E+00  0.34689352725E+02  0.54367085477E+02  0.40000002961E+02 0.  0.
         12    1    3    3    0    0 -0.12305699567E+02  0.99915565918E+00 -0.34689352725E+02  0.36820914523E+02  0.00000000000E+00 0. -1.
         11    1    4    4    0    0 -0.64314596214E+01  0.46367038199E+01 -0.50400071741E+01  0.93949118012E+01  0.51100000000E-03 0. -1.
        -11    1    4    4    0    0  0.14429294428E+02 -0.84589804783E+00  0.24665069278E+02  0.28588209527E+02  0.51100000000E-03 0.  1.
         12    1    4    4    0    0  0.43078647607E+01 -0.47899614313E+01  0.15064290621E+02  0.16383964148E+02  0.00000000000E+00 0. -1.
</event>
<event>
 8    1  0.2482403E-006  0.9118800E+02  0.7816164E-02  0.1184000E+00
        -11   -1    0    0    0    0  0.00000000000E+00  0.00000000000E+00  0.45593999997E+02  0.45594000000E+02  0.51100000000E-03 0. -1.
         11   -1    0    0    0    0 -0.00000000000E+00 -0.00000000000E+00 -0.45593999997E+02  0.45594000000E+02  0.51100000000E-03 0.  1.
         23    2    1    2    0    0  0.00000000000E+00  0.00000000000E+00  0.00000000000E+00  0.91188000000E+02  0.91188000000E+02 0.  0.
    9900012    2    3    3    0    0  0.28253442277E+02 -0.18256036936E+02  0.14974653976E+02  0.54367080038E+02  0.39999990564E+02 0.  0.
        -12    1    3    3    0    0 -0.28253442277E+02  0.18256036936E+02 -0.14974653976E+02  0.36820919962E+02  0.00000000000E+00 0.  1.
         11    1    4    4    0    0  0.14872695610E+02 -0.73533275803E+01  0.15640460455E+02  0.22801151390E+02  0.51100000000E-03 0. -1.
        -11    1    4    4    0    0  0.11700599018E+02  0.68999004869E+01 -0.14913424912E+01  0.13665165451E+02  0.51100000000E-03 0.  1.
         12    1    4    4    0    0  0.16801476488E+01 -0.17802609843E+02  0.82553601193E+00  0.17900763197E+02  0.00000000000E+00 0. -1.
</event>
<event>
 8    1  0.2482403E-006  0.9118800E+02  0.7816164E-02  0.1184000E+00
        -11   -1    0    0    0    0  0.00000000000E+00  0.00000000000E+00  0.45593999997E+02  0.45594000000E+02  0.51100000000E-03 0.  1.
         11   -1    0    0    0    0 -0.00000000000E+00 -0.00000000000E+00 -0.45593999997E+02  0.45594000000E+02  0.51100000000E-03 0. -1.
         23    2    1    2    0    0  0.88817841970E-15  0.00000000000E+00  0.71054273576E-14  0.91188000000E+02  0.91188000000E+02 0.  0.
    9900012    2    3    3    0    0 -0.49642337462E+01  0.17277961316E+02  0.32134236324E+02  0.54367072418E+02  0.39999973190E+02 0.  0.
         12    1    3    3    0    0  0.49642337462E+01 -0.17277961316E+02 -0.32134236324E+02  0.36820927582E+02  0.00000000000E+00 0. -1.
         11    1    4    4    0    0 -0.11886254229E+02  0.12118248163E+02  0.26809211278E+02  0.31731195813E+02  0.51100000000E-03 0. -1.
        -11    1    4    4    0    0 -0.71005041165E+01  0.32393935698E+01  0.12210679626E+01  0.78994833146E+01  0.51100000000E-03 0.  1.
         12    1    4    4    0    0  0.14022524600E+02  0.19203195831E+01  0.41039570834E+01  0.14736393290E+02  0.00000000000E+00 0. -1.
</event>
<event>
 8    1  0.2482403E-006  0.9118800E+02  0.7816164E-02  0.1184000E+00
        -11   -1    0    0    0    0  0.00000000000E+00  0.00000000000E+00  0.45593999997E+02  0.45594000000E+02  0.51100000000E-03 0.  1.
         11   -1    0    0    0    0 -0.00000000000E+00 -0.00000000000E+00 -0.45593999997E+02  0.45594000000E+02  0.51100000000E-03 0. -1.
         23    2    1    2    0    0  0.00000000000E+00  0.00000000000E+00  0.00000000000E+00  0.91188000000E+02  0.91188000000E+02 0.  0.
    9900012    2    3    3    0    0  0.14531342519E+02  0.18188883336E+02  0.28526883342E+02  0.54367102868E+02  0.40000042608E+02 0.  0.
         12    1    3    3    0    0 -0.14531342519E+02 -0.18188883336E+02 -0.28526883342E+02  0.36820897132E+02  0.00000000000E+00 0. -1.
         11    1    4    4    0    0  0.12085963302E+02  0.71214601169E+01  0.80736391460E+01  0.16185467323E+02  0.51100000000E-03 0. -1.
        -11    1    4    4    0    0  0.88743871598E+01 -0.52702958775E+01  0.17587114429E+02  0.20392090631E+02  0.51100000000E-03 0.  1.
         12    1    4    4    0    0 -0.64290079432E+01  0.16337719096E+02  0.28661297670E+01  0.17789544914E+02  0.00000000000E+00 0. -1.
</event>
<event>
 8    1  0.2482403E-006  0.9118800E+02  0.7816164E-02  0.1184000E+00
        -11   -1    0    0    0    0  0.00000000000E+00  0.00000000000E+00  0.45593999997E+02  0.45594000000E+02  0.51100000000E-03 0. -1.
         11   -1    0    0    0    0 -0.00000000000E+00 -0.00000000000E+00 -0.45593999997E+02  0.45594000000E+02  0.51100000000E-03 0.  1.
         23    2    1    2    0    0  0.17763568394E-14 -0.35527136788E-14  0.35527136788E-14  0.91188000000E+02  0.91188000000E+02 0.  0.
    9900012    2    3    3    0    0 -0.15292282810E+02 -0.28482524555E+02 -0.17625850769E+02  0.54367099225E+02  0.40000034303E+02 0.  0.
         12    1    3    3    0    0  0.15292282810E+02  0.28482524555E+02  0.17625850769E+02  0.36820900775E+02  0.00000000000E+00 0. -1.
         11    1    4    4    0    0  0.27654562796E+01  0.75490326530E+01 -0.43271372165E+00  0.80512659785E+01  0.51100000000E-03 0. -1.
        -11    1    4    4    0    0 -0.22194752872E+01 -0.16575534257E+02 -0.12289582997E+02  0.20753511918E+02  0.51100000000E-03 0.  1.
         12    1    4    4    0    0 -0.15838263802E+02 -0.19456022951E+02 -0.49035540507E+01  0.25562321328E+02  0.00000000000E+00 0. -1.
</event>
<event>
 8    1  0.2482403E-006  0.9118800E+02  0.7816164E-02  0.1184000E+00
        -11   -1    0    0    0    0  0.00000000000E+00  0.00000000000E+00  0.45593999997E+02  0.45594000000E+02  0.51100000000E-03 0. -1.
         11   -1    0    0    0    0 -0.00000000000E+00 -0.00000000000E+00 -0.45593999997E+02  0.45594000000E+02  0.51100000000E-03 0.  1.
         23    2    1    2    0    0  0.00000000000E+00 -0.17763568394E-14  0.71054273576E-14  0.91188000000E+02  0.91188000000E+02 0.  0.
    9900012    2    3    3    0    0  0.26238123690E+02  0.87459021016E+01 -0.24307378554E+02  0.54367101172E+02  0.40000038742E+02 0.  0.
         12    1    3    3    0    0 -0.26238123690E+02 -0.87459021016E+01  0.24307378554E+02  0.36820898828E+02  0.00000000000E+00 0. -1.
         11    1    4    4    0    0 -0.78312002253E+01  0.86829633942E+01 -0.85954356046E+01  0.14512169506E+02  0.51100000000E-03 0. -1.
        -11    1    4    4    0    0  0.14058360270E+01  0.27714202795E+01 -0.39653190069E+01  0.50379460486E+01  0.51100000000E-03 0.  1.
        -12    1    4    4    0    0  0.32663487888E+02 -0.27084815721E+01 -0.11746623942E+02  0.34816985618E+02  0.00000000000E+00 0.  1.
</event>
<event>
 8    1  0.2482403E-006  0.9118800E+02  0.7816164E-02  0.1184000E+00
        -11   -1    0    0    0    0  0.00000000000E+00  0.00000000000E+00  0.45593999997E+02  0.45594000000E+02  0.51100000000E-03 0. -1.
         11   -1    0    0    0    0 -0.00000000000E+00 -0.00000000000E+00 -0.45593999997E+02  0.45594000000E+02  0.51100000000E-03 0.  1.
         23    2    1    2    0    0  0.17763568394E-14  0.17763568394E-14  0.00000000000E+00  0.91188000000E+02  0.91188000000E+02 0.  0.
    9900012    2    3    3    0    0  0.52356431716E+01 -0.12868302772E+02  0.34099489117E+02  0.54367077501E+02  0.39999984778E+02 0.  0.
        -12    1    3    3    0    0 -0.52356431716E+01  0.12868302772E+02 -0.34099489117E+02  0.36820922499E+02  0.00000000000E+00 0.  1.
         11    1    4    4    0    0  0.16396155689E+02 -0.11353511265E+02  0.14203381752E+02  0.24484121240E+02  0.51100000000E-03 0. -1.
        -11    1    4    4    0    0 -0.16612300028E+01 -0.58314421159E+01 -0.13509703457E+01  0.62121271244E+01  0.51100000000E-03 0.  1.
         12    1    4    4    0    0 -0.94992825148E+01  0.43166506084E+01  0.21247077711E+02  0.23670829137E+02  0.00000000000E+00 0. -1.
</event>
<event>
 8    1  0.2482403E-006  0.9118800E+02  0.7816164E-02  0.1184000E+00
        -11   -1    0    0    0    0  0.00000000000E+00  0.00000000000E+00  0.45593999997E+02  0.45594000000E+02  0.51100000000E-03 0. -1.
         11   -1    0    0    0    0 -0.00000000000E+00 -0.00000000000E+00 -0.45593999997E+02  0.45594000000E+02  0.51100000000E-03 0.  1.
         23    2    1    2    0    0 -0.71054273576E-14  0.35527136788E-14 -0.88817841970E-15  0.91188000000E+02  0.91188000000E+02 0.  0.
    9900012    2    3    3    0    0 -0.34822700333E+02  0.11239304561E+02 -0.41033467617E+01  0.54367083659E+02  0.39999998818E+02 0.  0.
         12    1    3    3    0    0  0.34822700333E+02 -0.11239304561E+02  0.41033467617E+01  0.36820916341E+02  0.00000000000E+00 0. -1.
         11    1    4    4    0    0  0.39827253215E+01  0.19432162736E+00 -0.34888457949E+01  0.52982928499E+01  0.51100000000E-03 0. -1.
        -11    1    4    4    0    0 -0.20576782550E+02 -0.58586981260E+01  0.78770082673E+01  0.22798587311E+02  0.51100000000E-03 0.  1.
        -12    1    4    4    0    0 -0.18228643105E+02  0.16903681060E+02 -0.84915092341E+01  0.26270203499E+02  0.00000000000E+00 0.  1.
</event>
<event>
 8    1  0.2482403E-006  0.9118800E+02  0.7816164E-02  0.1184000E+00
        -11   -1    0    0    0    0  0.00000000000E+00  0.00000000000E+00  0.45593999997E+02  0.45594000000E+02  0.51100000000E-03 0.  1.
         11   -1    0    0    0    0 -0.00000000000E+00 -0.00000000000E+00 -0.45593999997E+02  0.45594000000E+02  0.51100000000E-03 0. -1.
         23    2    1    2    0    0  0.00000000000E+00 -0.35527136788E-14  0.00000000000E+00  0.91188000000E+02  0.91188000000E+02 0.  0.
    9900012    2    3    3    0    0 -0.19126758427E+02  0.17096039166E+02  0.26413483614E+02  0.54367088011E+02  0.40000008739E+02 0.  0.
         12    1    3    3    0    0  0.19126758427E+02 -0.17096039166E+02 -0.26413483614E+02  0.36820911989E+02  0.00000000000E+00 0. -1.
         11    1    4    4    0    0  0.31858356682E+01 -0.43210347384E+01 -0.15311877103E+01  0.55826003064E+01  0.51100000000E-03 0. -1.
        -11    1    4    4    0    0 -0.10984543125E+00  0.13862198151E+02  0.19356626143E+02  0.23808645058E+02  0.51100000000E-03 0.  1.
         12    1    4    4    0    0 -0.22202748664E+02  0.75548757527E+01  0.85880451815E+01  0.24975842646E+02  0.00000000000E+00 0. -1.
</event>
<event>
 8    1  0.2482403E-006  0.9118800E+02  0.7816164E-02  0.1184000E+00
        -11   -1    0    0    0    0  0.00000000000E+00  0.00000000000E+00  0.45593999997E+02  0.45594000000E+02  0.51100000000E-03 0. -1.
         11   -1    0    0    0    0 -0.00000000000E+00 -0.00000000000E+00 -0.45593999997E+02  0.45594000000E+02  0.51100000000E-03 0.  1.
         23    2    1    2    0    0  0.00000000000E+00  0.35527136788E-14  0.17763568394E-14  0.91188000000E+02  0.91188000000E+02 0.  0.
    9900012    2    3    3    0    0 -0.21845244230E+02  0.28241816461E+02  0.89980560126E+01  0.54367083329E+02  0.39999998065E+02 0.  0.
         12    1    3    3    0    0  0.21845244230E+02 -0.28241816461E+02 -0.89980560126E+01  0.36820916671E+02  0.00000000000E+00 0. -1.
         11    1    4    4    0    0 -0.67387707783E+01  0.86483703530E+00 -0.71556799161E+01  0.98672554453E+01  0.51100000000E-03 0. -1.
        -11    1    4    4    0    0 -0.19392421697E+02  0.72073315016E+01  0.61625002392E+01  0.21586756498E+02  0.51100000000E-03 0.  1.
         12    1    4    4    0    0  0.42859482448E+01  0.20169647924E+02  0.99912356894E+01  0.22913071386E+02  0.00000000000E+00 0. -1.
</event>
<event>
 8    1  0.2482403E-006  0.9118800E+02  0.7816164E-02  0.1184000E+00
        -11   -1    0    0    0    0  0.00000000000E+00  0.00000000000E+00  0.45593999997E+02  0.45594000000E+02  0.51100000000E-03 0. -1.
         11   -1    0    0    0    0 -0.00000000000E+00 -0.00000000000E+00 -0.45593999997E+02  0.45594000000E+02  0.51100000000E-03 0.  1.
         23    2    1    2    0    0  0.00000000000E+00  0.00000000000E+00 -0.15543122345E-14  0.91188000000E+02  0.91188000000E+02 0.  0.
    9900012    2    3    3    0    0 -0.16961460149E+02  0.32656722091E+02  0.12752726986E+01  0.54367096310E+02  0.40000027657E+02 0.  0.
         12    1    3    3    0    0  0.16961460149E+02 -0.32656722091E+02 -0.12752726986E+01  0.36820903690E+02  0.00000000000E+00 0. -1.
         11    1    4    4    0    0  0.39012563058E+01  0.26575293782E+01  0.12307778287E+02  0.13181944841E+02  0.51100000000E-03 0. -1.
        -11    1    4    4    0    0 -0.11743213034E+02  0.17812709624E+02  0.16136369361E+01  0.21396249693E+02  0.51100000000E-03 0.  1.
         12    1    4    4    0    0 -0.91195034210E+01  0.12186483089E+02 -0.12646142525E+02  0.19788901775E+02  0.00000000000E+00 0. -1.
</event>
<event>
 8    1  0.2482403E-006  0.9118800E+02  0.7816164E-02  0.1184000E+00
        -11   -1    0    0    0    0  0.00000000000E+00  0.00000000000E+00  0.45593999997E+02  0.45594000000E+02  0.51100000000E-03 0.  1.
         11   -1    0    0    0    0 -0.00000000000E+00 -0.00000000000E+00 -0.45593999997E+02  0.45594000000E+02  0.51100000000E-03 0. -1.
         23    2    1    2    0    0  0.00000000000E+00  0.00000000000E+00  0.44408920985E-15  0.91188000000E+02  0.91188000000E+02 0.  0.
    9900012    2    3    3    0    0  0.35441897770E+02  0.98841660205E+01  0.13981215163E+01  0.54367087474E+02  0.40000007516E+02 0.  0.
         12    1    3    3    0    0 -0.35441897770E+02 -0.98841660205E+01 -0.13981215163E+01  0.36820912526E+02  0.00000000000E+00 0. -1.
         11    1    4    4    0    0  0.15312794280E+02  0.17544726410E+01  0.73239471003E+00  0.15430367630E+02  0.51100000000E-03 0.  1.
        -11    1    4    4    0    0  0.91912235733E+01 -0.10109646098E+02 -0.81556748880E+01  0.15912214432E+02  0.51100000000E-03 0. -1.
         12    1    4    4    0    0  0.10937879916E+02  0.18239339477E+02  0.88214016942E+01  0.23024505412E+02  0.00000000000E+00 0. -1.
</event>
<event>
 8    1  0.2482403E-006  0.9118800E+02  0.7816164E-02  0.1184000E+00
        -11   -1    0    0    0    0  0.00000000000E+00  0.00000000000E+00  0.45593999997E+02  0.45594000000E+02  0.51100000000E-03 0.  1.
         11   -1    0    0    0    0 -0.00000000000E+00 -0.00000000000E+00 -0.45593999997E+02  0.45594000000E+02  0.51100000000E-03 0. -1.
         23    2    1    2    0    0  0.00000000000E+00 -0.35527136788E-14 -0.17763568394E-14  0.91188000000E+02  0.91188000000E+02 0.  0.
    9900012    2    3    3    0    0 -0.27334485864E+02 -0.19871800940E+02 -0.14618832452E+02  0.54367179092E+02  0.40000216377E+02 0.  0.
        -12    1    3    3    0    0  0.27334485864E+02  0.19871800940E+02  0.14618832452E+02  0.36820820908E+02  0.00000000000E+00 0.  1.
         11    1    4    4    0    0 -0.96345827037E+01 -0.23885953257E+02 -0.13241318038E+02  0.28960256396E+02  0.51100000000E-03 0. -1.
        -11    1    4    4    0    0 -0.16073068817E+02 -0.38482805709E+01  0.20942442380E+01  0.16659491701E+02  0.51100000000E-03 0.  1.
         12    1    4    4    0    0 -0.16268343438E+01  0.78624328877E+01 -0.34717586515E+01  0.87474309961E+01  0.00000000000E+00 0. -1.
</event>
<event>
 8    1  0.2482403E-006  0.9118800E+02  0.7816164E-02  0.1184000E+00
        -11   -1    0    0    0    0  0.00000000000E+00  0.00000000000E+00  0.45593999997E+02  0.45594000000E+02  0.51100000000E-03 0.  1.
         11   -1    0    0    0    0 -0.00000000000E+00 -0.00000000000E+00 -0.45593999997E+02  0.45594000000E+02  0.51100000000E-03 0. -1.
         23    2    1    2    0    0 -0.71054273576E-14  0.17763568394E-14 -0.17763568394E-14  0.91188000000E+02  0.91188000000E+02 0.  0.
    9900012    2    3    3    0    0 -0.34860768606E+02  0.68561590305E+01 -0.96694720182E+01  0.54367098415E+02  0.40000032456E+02 0.  0.
        -12    1    3    3    0    0  0.34860768606E+02 -0.68561590305E+01  0.96694720182E+01  0.36820901585E+02  0.00000000000E+00 0.  1.
         11    1    4    4    0    0 -0.16212194584E+02 -0.51727670938E+01 -0.84879592239E+01  0.19016787970E+02  0.51100000000E-03 0. -1.
        -11    1    4    4    0    0  0.60995322240E+01 -0.17088441919E+00 -0.44689765589E+01  0.75634150079E+01  0.51100000000E-03 0.  1.
         12    1    4    4    0    0 -0.24748106245E+02  0.12199810544E+02  0.32874637647E+01  0.27786895437E+02  0.00000000000E+00 0. -1.
</event>
<event>
 8    1  0.2482403E-006  0.9118800E+02  0.7816164E-02  0.1184000E+00
        -11   -1    0    0    0    0  0.00000000000E+00  0.00000000000E+00  0.45593999997E+02  0.45594000000E+02  0.51100000000E-03 0.  1.
         11   -1    0    0    0    0 -0.00000000000E+00 -0.00000000000E+00 -0.45593999997E+02  0.45594000000E+02  0.51100000000E-03 0. -1.
         23    2    1    2    0    0 -0.35527136788E-14  0.00000000000E+00  0.97144514655E-15  0.91188000000E+02  0.91188000000E+02 0.  0.
    9900012    2    3    3    0    0 -0.31117394134E+02 -0.19683709456E+02  0.20274507476E+00  0.54367058388E+02  0.39999941207E+02 0.  0.
        -12    1    3    3    0    0  0.31117394134E+02  0.19683709456E+02 -0.20274507476E+00  0.36820941612E+02  0.00000000000E+00 0.  1.
         11    1    4    4    0    0 -0.13454560403E+01 -0.94477257167E+01  0.42095066701E+00  0.95523281403E+01  0.51100000000E-03 0. -1.
        -11    1    4    4    0    0 -0.90928585123E+01 -0.34860903617E+01 -0.15447399970E+02  0.18260752121E+02  0.51100000000E-03 0.  1.
        -12    1    4    4    0    0 -0.20679079582E+02 -0.67498933774E+01  0.15229194378E+02  0.26553978126E+02  0.00000000000E+00 0.  1.
</event>
<event>
 8    1  0.2482403E-006  0.9118800E+02  0.7816164E-02  0.1184000E+00
        -11   -1    0    0    0    0  0.00000000000E+00  0.00000000000E+00  0.45593999997E+02  0.45594000000E+02  0.51100000000E-03 0. -1.
         11   -1    0    0    0    0 -0.00000000000E+00 -0.00000000000E+00 -0.45593999997E+02  0.45594000000E+02  0.51100000000E-03 0.  1.
         23    2    1    2    0    0  0.00000000000E+00  0.00000000000E+00  0.00000000000E+00  0.91188000000E+02  0.91188000000E+02 0.  0.
    9900012    2    3    3    0    0 -0.30036450385E+02  0.11717451826E+02  0.17784933484E+02  0.54366934181E+02  0.39999658051E+02 0.  0.
        -12    1    3    3    0    0  0.30036450385E+02 -0.11717451826E+02 -0.17784933484E+02  0.36821065819E+02  0.00000000000E+00 0.  1.
         11    1    4    4    0    0 -0.12488791671E+02  0.18895114238E+02  0.15214472475E+02  0.27285077102E+02  0.51100000000E-03 0. -1.
        -11    1    4    4    0    0 -0.36110379736E+01 -0.41089003759E+01 -0.77389389668E+01  0.94770160989E+01  0.51100000000E-03 0.  1.
         12    1    4    4    0    0 -0.13936620740E+02 -0.30687620366E+01  0.10309399975E+02  0.17604840980E+02  0.00000000000E+00 0. -1.
</event>
<event>
 8    1  0.2482403E-006  0.9118800E+02  0.7816164E-02  0.1184000E+00
        -11   -1    0    0    0    0  0.00000000000E+00  0.00000000000E+00  0.45593999997E+02  0.45594000000E+02  0.51100000000E-03 0.  1.
         11   -1    0    0    0    0 -0.00000000000E+00 -0.00000000000E+00 -0.45593999997E+02  0.45594000000E+02  0.51100000000E-03 0. -1.
         23    2    1    2    0    0  0.17763568394E-14 -0.22204460493E-15  0.00000000000E+00  0.91188000000E+02  0.91188000000E+02 0.  0.
    9900012    2    3    3    0    0 -0.11147535170E+02  0.15812460952E+01 -0.35057274543E+02  0.54367076900E+02  0.39999983409E+02 0.  0.
        -12    1    3    3    0    0  0.11147535170E+02 -0.15812460952E+01  0.35057274543E+02  0.36820923100E+02  0.00000000000E+00 0.  1.
         11    1    4    4    0    0  0.27129655723E+01  0.47190307389E+01 -0.21408610661E+02  0.22089772385E+02  0.51100000000E-03 0. -1.
        -11    1    4    4    0    0 -0.81142497648E+01  0.80526724962E+00 -0.20770040390E+02  0.22313316263E+02  0.51100000000E-03 0.  1.
        -12    1    4    4    0    0 -0.57462509773E+01 -0.39430518933E+01  0.71213765082E+01  0.99639882526E+01  0.00000000000E+00 0.  1.
</event>
<event>
 8    1  0.2482403E-006  0.9118800E+02  0.7816164E-02  0.1184000E+00
        -11   -1    0    0    0    0  0.00000000000E+00  0.00000000000E+00  0.45593999997E+02  0.45594000000E+02  0.51100000000E-03 0.  1.
         11   -1    0    0    0    0 -0.00000000000E+00 -0.00000000000E+00 -0.45593999997E+02  0.45594000000E+02  0.51100000000E-03 0. -1.
         23    2    1    2    0    0 -0.88817841970E-15  0.00000000000E+00  0.00000000000E+00  0.91188000000E+02  0.91188000000E+02 0.  0.
    9900012    2    3    3    0    0 -0.70548954899E+01  0.24832372685E+02  0.26255691606E+02  0.54367087121E+02  0.40000006710E+02 0.  0.
         12    1    3    3    0    0  0.70548954899E+01 -0.24832372685E+02 -0.26255691606E+02  0.36820912879E+02  0.00000000000E+00 0. -1.
         11    1    4    4    0    0 -0.86297602856E+00  0.79496419143E+01  0.24456313614E+02  0.25730386900E+02  0.51100000000E-03 0.  1.
        -11    1    4    4    0    0 -0.61483316776E+01  0.20665450064E+02  0.65781277847E+01  0.22541840524E+02  0.51100000000E-03 0. -1.
         12    1    4    4    0    0 -0.43587783694E-01 -0.37827192933E+01 -0.47787497929E+01  0.60948596973E+01  0.00000000000E+00 0. -1.
</event>
<event>
 8    1  0.2482403E-006  0.9118800E+02  0.7816164E-02  0.1184000E+00
        -11   -1    0    0    0    0  0.00000000000E+00  0.00000000000E+00  0.45593999997E+02  0.45594000000E+02  0.51100000000E-03 0. -1.
         11   -1    0    0    0    0 -0.00000000000E+00 -0.00000000000E+00 -0.45593999997E+02  0.45594000000E+02  0.51100000000E-03 0.  1.
         23    2    1    2    0    0  0.00000000000E+00  0.00000000000E+00  0.17763568394E-14  0.91188000000E+02  0.91188000000E+02 0.  0.
    9900012    2    3    3    0    0 -0.26413490093E+02 -0.20655101939E+02 -0.15214368678E+02  0.54367045242E+02  0.39999911239E+02 0.  0.
        -12    1    3    3    0    0  0.26413490093E+02  0.20655101939E+02  0.15214368678E+02  0.36820954758E+02  0.00000000000E+00 0.  1.
         11    1    4    4    0    0 -0.17977397885E+02  0.31624506436E+01 -0.13120969296E+02  0.22479941377E+02  0.51100000000E-03 0.  1.
        -11    1    4    4    0    0 -0.88939706268E+01 -0.10365346816E+01  0.41532256250E+00  0.89637944392E+01  0.51100000000E-03 0. -1.
         12    1    4    4    0    0  0.45787841873E+00 -0.22781017901E+02 -0.25087219445E+01  0.22923309426E+02  0.00000000000E+00 0. -1.
</event>
<event>
 8    1  0.2482403E-006  0.9118800E+02  0.7816164E-02  0.1184000E+00
        -11   -1    0    0    0    0  0.00000000000E+00  0.00000000000E+00  0.45593999997E+02  0.45594000000E+02  0.51100000000E-03 0.  1.
         11   -1    0    0    0    0 -0.00000000000E+00 -0.00000000000E+00 -0.45593999997E+02  0.45594000000E+02  0.51100000000E-03 0. -1.
         23    2    1    2    0    0  0.00000000000E+00  0.00000000000E+00  0.00000000000E+00  0.91188000000E+02  0.91188000000E+02 0.  0.
    9900012    2    3    3    0    0  0.35429728310E+02 -0.81075309662E+01  0.58976805238E+01  0.54367077387E+02  0.39999984519E+02 0.  0.
         12    1    3    3    0    0 -0.35429728310E+02  0.81075309662E+01 -0.58976805238E+01  0.36820922613E+02  0.00000000000E+00 0. -1.
         11    1    4    4    0    0  0.16579783842E+02 -0.16552566443E+02  0.30884028524E+01  0.23630804483E+02  0.51100000000E-03 0. -1.
        -11    1    4    4    0    0  0.14158264080E+02 -0.35705117019E+01 -0.52612975770E+01  0.15520510559E+02  0.51100000000E-03 0.  1.
         12    1    4    4    0    0  0.46916803888E+01  0.12015547179E+02  0.80705752484E+01  0.15215762344E+02  0.00000000000E+00 0. -1.
</event>
<event>
 8    1  0.2482403E-006  0.9118800E+02  0.7816164E-02  0.1184000E+00
        -11   -1    0    0    0    0  0.00000000000E+00  0.00000000000E+00  0.45593999997E+02  0.45594000000E+02  0.51100000000E-03 0.  1.
         11   -1    0    0    0    0 -0.00000000000E+00 -0.00000000000E+00 -0.45593999997E+02  0.45594000000E+02  0.51100000000E-03 0. -1.
         23    2    1    2    0    0 -0.13322676296E-14  0.00000000000E+00  0.71054273576E-14  0.91188000000E+02  0.91188000000E+02 0.  0.
    9900012    2    3    3    0    0  0.28970467969E+01 -0.94761473249E+01  0.35462512162E+02  0.54367081800E+02  0.39999994579E+02 0.  0.
         12    1    3    3    0    0 -0.28970467969E+01  0.94761473249E+01 -0.35462512162E+02  0.36820918200E+02  0.00000000000E+00 0. -1.
         11    1    4    4    0    0  0.13677205204E+02  0.84243420892E+01  0.12965851631E+02  0.20643371590E+02  0.51100000000E-03 0.  1.
        -11    1    4    4    0    0 -0.91284632505E+01 -0.54528128907E+01  0.39853451758E+01  0.11355394584E+02  0.51100000000E-03 0. -1.
        -12    1    4    4    0    0 -0.16516951566E+01 -0.12447676523E+02  0.18511315355E+02  0.22368315625E+02  0.00000000000E+00 0.  1.
</event>
<event>
 8    1  0.2482403E-006  0.9118800E+02  0.7816164E-02  0.1184000E+00
        -11   -1    0    0    0    0  0.00000000000E+00  0.00000000000E+00  0.45593999997E+02  0.45594000000E+02  0.51100000000E-03 0. -1.
         11   -1    0    0    0    0 -0.00000000000E+00 -0.00000000000E+00 -0.45593999997E+02  0.45594000000E+02  0.51100000000E-03 0.  1.
         23    2    1    2    0    0  0.00000000000E+00  0.17763568394E-14  0.00000000000E+00  0.91188000000E+02  0.91188000000E+02 0.  0.
    9900012    2    3    3    0    0  0.26654475785E+02  0.12777406703E+02  0.21955786348E+02  0.54367085352E+02  0.40000002676E+02 0.  0.
        -12    1    3    3    0    0 -0.26654475785E+02 -0.12777406703E+02 -0.21955786348E+02  0.36820914648E+02  0.00000000000E+00 0.  1.
         11    1    4    4    0    0  0.68288642475E+01 -0.11803859493E+02  0.17449957444E+02  0.22146455718E+02  0.51100000000E-03 0. -1.
        -11    1    4    4    0    0  0.12398442747E+02  0.17753353206E+02  0.45723809189E+01  0.22131642509E+02  0.51100000000E-03 0.  1.
         12    1    4    4    0    0  0.74271687900E+01  0.68279129894E+01 -0.66552014726E-01  0.10088987124E+02  0.00000000000E+00 0. -1.
</event>
<event>
 8    1  0.2482403E-006  0.9118800E+02  0.7816164E-02  0.1184000E+00
        -11   -1    0    0    0    0  0.00000000000E+00  0.00000000000E+00  0.45593999997E+02  0.45594000000E+02  0.51100000000E-03 0.  1.
         11   -1    0    0    0    0 -0.00000000000E+00 -0.00000000000E+00 -0.45593999997E+02  0.45594000000E+02  0.51100000000E-03 0. -1.
         23    2    1    2    0    0 -0.35527136788E-14  0.35527136788E-14  0.17763568394E-14  0.91188000000E+02  0.91188000000E+02 0.  0.
    9900012    2    3    3    0    0 -0.29702285557E+02  0.19086230748E+02  0.10453206943E+02  0.54367088729E+02  0.40000010375E+02 0.  0.
         12    1    3    3    0    0  0.29702285557E+02 -0.19086230748E+02 -0.10453206943E+02  0.36820911271E+02  0.00000000000E+00 0. -1.
         11    1    4    4    0    0 -0.80789128775E+01  0.15717248652E+02  0.66073847708E+01  0.18866856448E+02  0.51100000000E-03 0. -1.
        -11    1    4    4    0    0 -0.12655324327E+02  0.43150972434E+01  0.15689622279E+02  0.20614110351E+02  0.51100000000E-03 0.  1.
         12    1    4    4    0    0 -0.89680483520E+01 -0.94611514754E+00 -0.11843800107E+02  0.14886121929E+02  0.00000000000E+00 0. -1.
</event>
<event>
 8    1  0.2482403E-006  0.9118800E+02  0.7816164E-02  0.1184000E+00
        -11   -1    0    0    0    0  0.00000000000E+00  0.00000000000E+00  0.45593999997E+02  0.45594000000E+02  0.51100000000E-03 0.  1.
         11   -1    0    0    0    0 -0.00000000000E+00 -0.00000000000E+00 -0.45593999997E+02  0.45594000000E+02  0.51100000000E-03 0. -1.
         23    2    1    2    0    0  0.00000000000E+00  0.88817841970E-15  0.00000000000E+00  0.91188000000E+02  0.91188000000E+02 0.  0.
    9900012    2    3    3    0    0 -0.35413449136E+02  0.66193542597E+01 -0.76060464239E+01  0.54367079686E+02  0.39999989761E+02 0.  0.
         12    1    3    3    0    0  0.35413449136E+02 -0.66193542597E+01  0.76060464239E+01  0.36820920314E+02  0.00000000000E+00 0. -1.
         11    1    4    4    0    0 -0.12922273232E+02  0.18875088222E+02 -0.34601057726E+01  0.23134961272E+02  0.51100000000E-03 0. -1.
        -11    1    4    4    0    0  0.18615686367E+01 -0.44843865404E+01 -0.28643470409E+01  0.56373437596E+01  0.51100000000E-03 0.  1.
        -12    1    4    4    0    0 -0.24352744541E+02 -0.77713474217E+01 -0.12815936104E+01  0.25594774655E+02  0.00000000000E+00 0.  1.
</event>
<event>
 8    1  0.2482403E-006  0.9118800E+02  0.7816164E-02  0.1184000E+00
        -11   -1    0    0    0    0  0.00000000000E+00  0.00000000000E+00  0.45593999997E+02  0.45594000000E+02  0.51100000000E-03 0. -1.
         11   -1    0    0    0    0 -0.00000000000E+00 -0.00000000000E+00 -0.45593999997E+02  0.45594000000E+02  0.51100000000E-03 0.  1.
         23    2    1    2    0    0  0.26645352591E-14  0.88817841970E-15  0.00000000000E+00  0.91188000000E+02  0.91188000000E+02 0.  0.
    9900012    2    3    3    0    0 -0.75938705647E+01  0.51087822305E+01 -0.35665285174E+02  0.54367094354E+02  0.40000023200E+02 0.  0.
         12    1    3    3    0    0  0.75938705647E+01 -0.51087822305E+01  0.35665285174E+02  0.36820905646E+02  0.00000000000E+00 0. -1.
         11    1    4    4    0    0  0.10511264177E+01  0.19121696864E+02 -0.10969851615E+02  0.22069929824E+02  0.51100000000E-03 0. -1.
        -11    1    4    4    0    0 -0.42959101743E+01 -0.43491182897E+01 -0.19613950139E+02  0.20544505700E+02  0.51100000000E-03 0.  1.
         12    1    4    4    0    0 -0.43490868081E+01 -0.96637963441E+01 -0.50814834197E+01  0.11752658831E+02  0.00000000000E+00 0. -1.
</event>
<event>
 8    1  0.2482403E-006  0.9118800E+02  0.7816164E-02  0.1184000E+00
        -11   -1    0    0    0    0  0.00000000000E+00  0.00000000000E+00  0.45593999997E+02  0.45594000000E+02  0.51100000000E-03 0. -1.
         11   -1    0    0    0    0 -0.00000000000E+00 -0.00000000000E+00 -0.45593999997E+02  0.45594000000E+02  0.51100000000E-03 0.  1.
         23    2    1    2    0    0  0.71054273576E-14  0.17763568394E-14  0.00000000000E+00  0.91188000000E+02  0.91188000000E+02 0.  0.
    9900012    2    3    3    0    0  0.33411067525E+02  0.13479085077E+02 -0.76023286287E+01  0.54367074316E+02  0.39999977518E+02 0.  0.
         12    1    3    3    0    0 -0.33411067525E+02 -0.13479085077E+02  0.76023286287E+01  0.36820925684E+02  0.00000000000E+00 0. -1.
         11    1    4    4    0    0  0.15749206701E+02 -0.27140710770E+01  0.34103535823E+01  0.16341181271E+02  0.51100000000E-03 0. -1.
        -11    1    4    4    0    0  0.94283629313E+01 -0.60592317894E+01 -0.86975254514E+01  0.14186446584E+02  0.51100000000E-03 0.  1.
         12    1    4    4    0    0  0.82334978929E+01  0.22252387943E+02 -0.23151567596E+01  0.23839446461E+02  0.00000000000E+00 0. -1.
</event>
<event>
 8    1  0.2482403E-006  0.9118800E+02  0.7816164E-02  0.1184000E+00
        -11   -1    0    0    0    0  0.00000000000E+00  0.00000000000E+00  0.45593999997E+02  0.45594000000E+02  0.51100000000E-03 0.  1.
         11   -1    0    0    0    0 -0.00000000000E+00 -0.00000000000E+00 -0.45593999997E+02  0.45594000000E+02  0.51100000000E-03 0. -1.
         23    2    1    2    0    0  0.00000000000E+00 -0.35527136788E-14  0.88817841970E-15  0.91188000000E+02  0.91188000000E+02 0.  0.
    9900012    2    3    3    0    0  0.21759895474E+02  0.29665314689E+02  0.15021431271E+01  0.54367076863E+02  0.39999983326E+02 0.  0.
         12    1    3    3    0    0 -0.21759895474E+02 -0.29665314689E+02 -0.15021431271E+01  0.36820923137E+02  0.00000000000E+00 0. -1.
         11    1    4    4    0    0  0.18838862876E+02  0.19869947519E+02  0.41203477973E+01  0.27689254867E+02  0.51100000000E-03 0. -1.
        -11    1    4    4    0    0 -0.22262326393E+01  0.39782257868E+01  0.10491860792E+02  0.11439472685E+02  0.51100000000E-03 0.  1.
         12    1    4    4    0    0  0.51472652375E+01  0.58171413830E+01 -0.13110065462E+02  0.15238349311E+02  0.00000000000E+00 0. -1.
</event>
<event>
 8    1  0.2482403E-006  0.9118800E+02  0.7816164E-02  0.1184000E+00
        -11   -1    0    0    0    0  0.00000000000E+00  0.00000000000E+00  0.45593999997E+02  0.45594000000E+02  0.51100000000E-03 0. -1.
         11   -1    0    0    0    0 -0.00000000000E+00 -0.00000000000E+00 -0.45593999997E+02  0.45594000000E+02  0.51100000000E-03 0.  1.
         23    2    1    2    0    0 -0.22204460493E-14 -0.35527136788E-14 -0.35527136788E-14  0.91188000000E+02  0.91188000000E+02 0.  0.
    9900012    2    3    3    0    0 -0.23196576915E+01  0.28640948454E+02  0.23023789533E+02  0.54367087130E+02  0.40000006729E+02 0.  0.
         12    1    3    3    0    0  0.23196576915E+01 -0.28640948454E+02 -0.23023789533E+02  0.36820912870E+02  0.00000000000E+00 0. -1.
         11    1    4    4    0    0  0.59687087366E+01  0.20239912886E+01  0.18803550772E+01  0.65770631893E+01  0.51100000000E-03 0. -1.
        -11    1    4    4    0    0  0.10148721644E+02  0.20775103759E+02  0.14725786876E+02  0.27412593576E+02  0.51100000000E-03 0.  1.
         12    1    4    4    0    0 -0.18437088072E+02  0.58418534068E+01  0.64176475797E+01  0.20377430364E+02  0.00000000000E+00 0. -1.
</event>
<event>
 8    1  0.2482403E-006  0.9118800E+02  0.7816164E-02  0.1184000E+00
        -11   -1    0    0    0    0  0.00000000000E+00  0.00000000000E+00  0.45593999997E+02  0.45594000000E+02  0.51100000000E-03 0.  1.
         11   -1    0    0    0    0 -0.00000000000E+00 -0.00000000000E+00 -0.45593999997E+02  0.45594000000E+02  0.51100000000E-03 0. -1.
         23    2    1    2    0    0 -0.71054273576E-14  0.35527136788E-14 -0.35527136788E-14  0.91188000000E+02  0.91188000000E+02 0.  0.
    9900012    2    3    3    0    0  0.23763314602E+02  0.18828503240E+02  0.20894115399E+02  0.54367194558E+02  0.40000251632E+02 0.  0.
         12    1    3    3    0    0 -0.23763314602E+02 -0.18828503240E+02 -0.20894115399E+02  0.36820805442E+02  0.00000000000E+00 0. -1.
         11    1    4    4    0    0  0.30174312443E+02  0.56361220369E+01  0.44613113987E+01  0.31018676675E+02  0.51100000000E-03 0. -1.
        -11    1    4    4    0    0  0.69392709150E+00  0.71134609204E+01  0.83266764188E+01  0.10973440733E+02  0.51100000000E-03 0.  1.
         12    1    4    4    0    0 -0.71049249323E+01  0.60789202823E+01  0.81061275813E+01  0.12375077150E+02  0.00000000000E+00 0. -1.
</event>
<event>
 8    1  0.2482403E-006  0.9118800E+02  0.7816164E-02  0.1184000E+00
        -11   -1    0    0    0    0  0.00000000000E+00  0.00000000000E+00  0.45593999997E+02  0.45594000000E+02  0.51100000000E-03 0.  1.
         11   -1    0    0    0    0 -0.00000000000E+00 -0.00000000000E+00 -0.45593999997E+02  0.45594000000E+02  0.51100000000E-03 0. -1.
         23    2    1    2    0    0  0.00000000000E+00  0.00000000000E+00  0.00000000000E+00  0.91188000000E+02  0.91188000000E+02 0.  0.
    9900012    2    3    3    0    0 -0.22772205599E+02  0.87627624040E+01 -0.27575737406E+02  0.54367073256E+02  0.39999975102E+02 0.  0.
        -12    1    3    3    0    0  0.22772205599E+02 -0.87627624040E+01  0.27575737406E+02  0.36820926744E+02  0.00000000000E+00 0.  1.
         11    1    4    4    0    0  0.32721222367E+01  0.32765799818E+01 -0.53346454763E+01  0.70640783496E+01  0.51100000000E-03 0. -1.
        -11    1    4    4    0    0 -0.28230009800E+02  0.53856464178E+01 -0.28620086650E+02  0.40559191323E+02  0.51100000000E-03 0.  1.
        -12    1    4    4    0    0  0.21856819638E+01  0.10053600432E+00  0.63789947207E+01  0.67438035841E+01  0.00000000000E+00 0.  1.
</event>
<event>
 8    1  0.2482403E-006  0.9118800E+02  0.7816164E-02  0.1184000E+00
        -11   -1    0    0    0    0  0.00000000000E+00  0.00000000000E+00  0.45593999997E+02  0.45594000000E+02  0.51100000000E-03 0.  1.
         11   -1    0    0    0    0 -0.00000000000E+00 -0.00000000000E+00 -0.45593999997E+02  0.45594000000E+02  0.51100000000E-03 0. -1.
         23    2    1    2    0    0  0.44408920985E-15  0.35527136788E-14  0.00000000000E+00  0.91188000000E+02  0.91188000000E+02 0.  0.
    9900012    2    3    3    0    0  0.29776162210E+01  0.27414402142E+02 -0.24400087847E+02  0.54367082981E+02  0.39999997272E+02 0.  0.
        -12    1    3    3    0    0 -0.29776162210E+01 -0.27414402142E+02  0.24400087847E+02  0.36820917019E+02  0.00000000000E+00 0.  1.
         11    1    4    4    0    0  0.58126353177E+01  0.31794415293E+02 -0.26286353090E+02  0.41661060143E+02  0.51100000000E-03 0. -1.
        -11    1    4    4    0    0  0.21034831081E+01  0.47871123001E-01 -0.35522349865E+01  0.41285961889E+01  0.51100000000E-03 0.  1.
        -12    1    4    4    0    0 -0.49385022047E+01 -0.44278842741E+01  0.54385002300E+01  0.85774266492E+01  0.00000000000E+00 0.  1.
</event>
<event>
 8    1  0.2482403E-006  0.9118800E+02  0.7816164E-02  0.1184000E+00
        -11   -1    0    0    0    0  0.00000000000E+00  0.00000000000E+00  0.45593999997E+02  0.45594000000E+02  0.51100000000E-03 0.  1.
         11   -1    0    0    0    0 -0.00000000000E+00 -0.00000000000E+00 -0.45593999997E+02  0.45594000000E+02  0.51100000000E-03 0. -1.
         23    2    1    2    0    0 -0.44408920985E-15  0.00000000000E+00  0.00000000000E+00  0.91188000000E+02  0.91188000000E+02 0.  0.
    9900012    2    3    3    0    0 -0.38360885981E+01  0.31265111134E+02 -0.19067235364E+02  0.54367051963E+02  0.39999926560E+02 0.  0.
        -12    1    3    3    0    0  0.38360885981E+01 -0.31265111134E+02  0.19067235364E+02  0.36820948037E+02  0.00000000000E+00 0.  1.
         11    1    4    4    0    0  0.71690701230E+01  0.16752925504E+02 -0.14457930393E+01  0.18279671692E+02  0.51100000000E-03 0. -1.
        -11    1    4    4    0    0 -0.45729080503E+01 -0.22712556544E+00 -0.19376592403E+02  0.19910183512E+02  0.51100000000E-03 0.  1.
         12    1    4    4    0    0 -0.64322506708E+01  0.14739311195E+02  0.17551500788E+01  0.16177196759E+02  0.00000000000E+00 0. -1.
</event>
<event>
 8    1  0.2482403E-006  0.9118800E+02  0.7816164E-02  0.1184000E+00
        -11   -1    0    0    0    0  0.00000000000E+00  0.00000000000E+00  0.45593999997E+02  0.45594000000E+02  0.51100000000E-03 0.  1.
         11   -1    0    0    0    0 -0.00000000000E+00 -0.00000000000E+00 -0.45593999997E+02  0.45594000000E+02  0.51100000000E-03 0. -1.
         23    2    1    2    0    0  0.35527136788E-14  0.10658141036E-13 -0.88817841970E-15  0.91188000000E+02  0.91188000000E+02 0.  0.
    9900012    2    3    3    0    0  0.26802972385E+02 -0.24848871912E+02 -0.44625738012E+01  0.54367077565E+02  0.39999984926E+02 0.  0.
         12    1    3    3    0    0 -0.26802972385E+02  0.24848871912E+02  0.44625738012E+01  0.36820922435E+02  0.00000000000E+00 0. -1.
         11    1    4    4    0    0  0.26844361894E+00  0.19417291001E-01 -0.19726190973E+01  0.19908956205E+01  0.51100000000E-03 0. -1.
        -11    1    4    4    0    0  0.81414635431E+01  0.93944384890E+01 -0.50194425780E+01  0.13406480045E+02  0.51100000000E-03 0.  1.
        -12    1    4    4    0    0  0.18393065223E+02 -0.34262727692E+02  0.25294878740E+01  0.38969701900E+02  0.00000000000E+00 0.  1.
</event>
<event>
 8    1  0.2482403E-006  0.9118800E+02  0.7816164E-02  0.1184000E+00
        -11   -1    0    0    0    0  0.00000000000E+00  0.00000000000E+00  0.45593999997E+02  0.45594000000E+02  0.51100000000E-03 0. -1.
         11   -1    0    0    0    0 -0.00000000000E+00 -0.00000000000E+00 -0.45593999997E+02  0.45594000000E+02  0.51100000000E-03 0.  1.
         23    2    1    2    0    0  0.88817841970E-15  0.88817841970E-15  0.00000000000E+00  0.91188000000E+02  0.91188000000E+02 0.  0.
    9900012    2    3    3    0    0  0.65078102254E+01 -0.40238213456E+01  0.36017156722E+02  0.54367104974E+02  0.40000047410E+02 0.  0.
        -12    1    3    3    0    0 -0.65078102254E+01  0.40238213456E+01 -0.36017156722E+02  0.36820895026E+02  0.00000000000E+00 0.  1.
         11    1    4    4    0    0 -0.47674673048E+01 -0.38679679696E+01  0.57938674227E+01  0.84414939845E+01  0.51100000000E-03 0. -1.
        -11    1    4    4    0    0 -0.23526259435E+01  0.10871521091E+02  0.15989874722E+00  0.11124315149E+02  0.51100000000E-03 0.  1.
         12    1    4    4    0    0  0.13627903474E+02 -0.11027374467E+02  0.30063390552E+02  0.34801295841E+02  0.00000000000E+00 0. -1.
</event>
<event>
 8    1  0.2482403E-006  0.9118800E+02  0.7816164E-02  0.1184000E+00
        -11   -1    0    0    0    0  0.00000000000E+00  0.00000000000E+00  0.45593999997E+02  0.45594000000E+02  0.51100000000E-03 0.  1.
         11   -1    0    0    0    0 -0.00000000000E+00 -0.00000000000E+00 -0.45593999997E+02  0.45594000000E+02  0.51100000000E-03 0. -1.
         23    2    1    2    0    0  0.35527136788E-14  0.00000000000E+00  0.00000000000E+00  0.91188000000E+02  0.91188000000E+02 0.  0.
    9900012    2    3    3    0    0 -0.28071063113E+02 -0.17441631655E+02 -0.16235411044E+02  0.54367032184E+02  0.39999881471E+02 0.  0.
        -12    1    3    3    0    0  0.28071063113E+02  0.17441631655E+02  0.16235411044E+02  0.36820967816E+02  0.00000000000E+00 0.  1.
         11    1    4    4    0    0 -0.24902741448E+02 -0.13618571481E+02 -0.96163536457E+01  0.29968087669E+02  0.51100000000E-03 0. -1.
        -11    1    4    4    0    0 -0.87023868801E+01 -0.33236894454E+01  0.56746626496E+01  0.10907806626E+02  0.51100000000E-03 0.  1.
        -12    1    4    4    0    0  0.55340652153E+01 -0.49937072856E+00 -0.12293720048E+02  0.13491137890E+02  0.00000000000E+00 0.  1.
</event>
<event>
 8    1  0.2482403E-006  0.9118800E+02  0.7816164E-02  0.1184000E+00
        -11   -1    0    0    0    0  0.00000000000E+00  0.00000000000E+00  0.45593999997E+02  0.45594000000E+02  0.51100000000E-03 0. -1.
         11   -1    0    0    0    0 -0.00000000000E+00 -0.00000000000E+00 -0.45593999997E+02  0.45594000000E+02  0.51100000000E-03 0.  1.
         23    2    1    2    0    0  0.00000000000E+00  0.00000000000E+00 -0.17763568394E-14  0.91188000000E+02  0.91188000000E+02 0.  0.
    9900012    2    3    3    0    0 -0.30159088234E+01  0.33822774534E+02 -0.14237394929E+02  0.54367092928E+02  0.40000019949E+02 0.  0.
         12    1    3    3    0    0  0.30159088234E+01 -0.33822774534E+02  0.14237394929E+02  0.36820907072E+02  0.00000000000E+00 0. -1.
         11    1    4    4    0    0  0.66395289508E+01  0.94314418562E+01 -0.41584980122E+01  0.12260854218E+02  0.51100000000E-03 0. -1.
        -11    1    4    4    0    0 -0.92926378162E+00  0.11664793167E+02 -0.20416839902E+02  0.23532494187E+02  0.51100000000E-03 0.  1.
         12    1    4    4    0    0 -0.87261739926E+01  0.12726539510E+02  0.10337942985E+02  0.18573744524E+02  0.00000000000E+00 0. -1.
</event>
<event>
 8    1  0.2482403E-006  0.9118800E+02  0.7816164E-02  0.1184000E+00
        -11   -1    0    0    0    0  0.00000000000E+00  0.00000000000E+00  0.45593999997E+02  0.45594000000E+02  0.51100000000E-03 0. -1.
         11   -1    0    0    0    0 -0.00000000000E+00 -0.00000000000E+00 -0.45593999997E+02  0.45594000000E+02  0.51100000000E-03 0.  1.
         23    2    1    2    0    0  0.88817841970E-15  0.00000000000E+00  0.00000000000E+00  0.91188000000E+02  0.91188000000E+02 0.  0.
    9900012    2    3    3    0    0  0.64070616510E+01 -0.19990424979E+02 -0.30250829261E+02  0.54367079305E+02  0.39999988892E+02 0.  0.
         12    1    3    3    0    0 -0.64070616510E+01  0.19990424979E+02  0.30250829261E+02  0.36820920695E+02  0.00000000000E+00 0. -1.
         11    1    4    4    0    0  0.56137711692E+01 -0.32908240714E+01 -0.33624434820E+01  0.73246144089E+01  0.51100000000E-03 0. -1.
        -11    1    4    4    0    0 -0.32913187546E+01 -0.10018747453E+02 -0.34528032664E+02  0.36102536193E+02  0.51100000000E-03 0.  1.
         12    1    4    4    0    0  0.40846092364E+01 -0.66808534546E+01  0.76396468850E+01  0.10939928703E+02  0.00000000000E+00 0. -1.
</event>
<event>
 8    1  0.2482403E-006  0.9118800E+02  0.7816164E-02  0.1184000E+00
        -11   -1    0    0    0    0  0.00000000000E+00  0.00000000000E+00  0.45593999997E+02  0.45594000000E+02  0.51100000000E-03 0. -1.
         11   -1    0    0    0    0 -0.00000000000E+00 -0.00000000000E+00 -0.45593999997E+02  0.45594000000E+02  0.51100000000E-03 0.  1.
         23    2    1    2    0    0  0.00000000000E+00  0.00000000000E+00  0.00000000000E+00  0.91188000000E+02  0.91188000000E+02 0.  0.
    9900012    2    3    3    0    0 -0.28782129486E+02 -0.10501422558E+02 -0.20422761092E+02  0.54367081704E+02  0.39999994362E+02 0.  0.
         12    1    3    3    0    0  0.28782129486E+02  0.10501422558E+02  0.20422761092E+02  0.36820918296E+02  0.00000000000E+00 0. -1.
         11    1    4    4    0    0  0.11426836505E+01  0.46847914769E+01  0.50253050008E+01  0.69646742723E+01  0.51100000000E-03 0. -1.
        -11    1    4    4    0    0 -0.28410929856E+02 -0.40038150847E+01 -0.17652254159E+02  0.33686993746E+02  0.51100000000E-03 0.  1.
        -12    1    4    4    0    0 -0.15138832811E+01 -0.11182398950E+02 -0.77958119336E+01  0.13715413686E+02  0.00000000000E+00 0.  1.
</event>
<event>
 8    1  0.2482403E-006  0.9118800E+02  0.7816164E-02  0.1184000E+00
        -11   -1    0    0    0    0  0.00000000000E+00  0.00000000000E+00  0.45593999997E+02  0.45594000000E+02  0.51100000000E-03 0.  1.
         11   -1    0    0    0    0 -0.00000000000E+00 -0.00000000000E+00 -0.45593999997E+02  0.45594000000E+02  0.51100000000E-03 0. -1.
         23    2    1    2    0    0  0.35527136788E-14 -0.17763568394E-14  0.00000000000E+00  0.91188000000E+02  0.91188000000E+02 0.  0.
    9900012    2    3    3    0    0  0.21988821314E+02 -0.14901710764E+02 -0.25499222833E+02  0.54367087307E+02  0.40000007133E+02 0.  0.
        -12    1    3    3    0    0 -0.21988821314E+02  0.14901710764E+02  0.25499222833E+02  0.36820912693E+02  0.00000000000E+00 0.  1.
         11    1    4    4    0    0  0.18024314444E+02 -0.18689167224E+02 -0.29235791148E+02  0.39101053272E+02  0.51100000000E-03 0. -1.
        -11    1    4    4    0    0 -0.49602062849E+01  0.26393958108E+01  0.27669560259E+00  0.56255326284E+01  0.51100000000E-03 0.  1.
         12    1    4    4    0    0  0.89247131559E+01  0.11480606490E+01  0.34598727130E+01  0.96405014060E+01  0.00000000000E+00 0. -1.
</event>
<event>
 8    1  0.2482403E-006  0.9118800E+02  0.7816164E-02  0.1184000E+00
        -11   -1    0    0    0    0  0.00000000000E+00  0.00000000000E+00  0.45593999997E+02  0.45594000000E+02  0.51100000000E-03 0. -1.
         11   -1    0    0    0    0 -0.00000000000E+00 -0.00000000000E+00 -0.45593999997E+02  0.45594000000E+02  0.51100000000E-03 0.  1.
         23    2    1    2    0    0  0.00000000000E+00  0.35527136788E-14  0.17763568394E-14  0.91188000000E+02  0.91188000000E+02 0.  0.
    9900012    2    3    3    0    0 -0.18936331693E+02  0.29855604845E+02  0.10287733851E+02  0.54367091993E+02  0.40000017816E+02 0.  0.
        -12    1    3    3    0    0  0.18936331693E+02 -0.29855604845E+02 -0.10287733851E+02  0.36820908007E+02  0.00000000000E+00 0.  1.
         11    1    4    4    0    0 -0.94804550812E+01  0.24818901818E+02  0.12676844833E+02  0.29437379489E+02  0.51100000000E-03 0. -1.
        -11    1    4    4    0    0 -0.15396401422E+02  0.10111284705E+01 -0.64053113212E+01  0.16706273400E+02  0.51100000000E-03 0.  1.
        -12    1    4    4    0    0  0.59405248099E+01  0.40255745567E+01  0.40162003397E+01  0.82234391040E+01  0.00000000000E+00 0.  1.
</event>
<event>
 8    1  0.2482403E-006  0.9118800E+02  0.7816164E-02  0.1184000E+00
        -11   -1    0    0    0    0  0.00000000000E+00  0.00000000000E+00  0.45593999997E+02  0.45594000000E+02  0.51100000000E-03 0.  1.
         11   -1    0    0    0    0 -0.00000000000E+00 -0.00000000000E+00 -0.45593999997E+02  0.45594000000E+02  0.51100000000E-03 0. -1.
         23    2    1    2    0    0  0.35527136788E-14  0.00000000000E+00  0.00000000000E+00  0.91188000000E+02  0.91188000000E+02 0.  0.
    9900012    2    3    3    0    0 -0.30110386446E+02  0.37498159254E+01 -0.20858645180E+02  0.54367087869E+02  0.40000008416E+02 0.  0.
        -12    1    3    3    0    0  0.30110386446E+02 -0.37498159254E+01  0.20858645180E+02  0.36820912131E+02  0.00000000000E+00 0.  1.
         11    1    4    4    0    0 -0.67023302372E+01  0.62684581459E+01 -0.45034466390E+01  0.10222320188E+02  0.51100000000E-03 0. -1.
        -11    1    4    4    0    0 -0.28804743414E+02  0.11616694223E+01 -0.21390375450E+02  0.35897226649E+02  0.51100000000E-03 0.  1.
        -12    1    4    4    0    0  0.53966872051E+01 -0.36803116428E+01  0.50351769082E+01  0.82475410321E+01  0.00000000000E+00 0.  1.
</event>
<event>
 8    1  0.2482403E-006  0.9118800E+02  0.7816164E-02  0.1184000E+00
        -11   -1    0    0    0    0  0.00000000000E+00  0.00000000000E+00  0.45593999997E+02  0.45594000000E+02  0.51100000000E-03 0. -1.
         11   -1    0    0    0    0 -0.00000000000E+00 -0.00000000000E+00 -0.45593999997E+02  0.45594000000E+02  0.51100000000E-03 0.  1.
         23    2    1    2    0    0 -0.26645352591E-14 -0.17763568394E-14  0.71054273576E-14  0.91188000000E+02  0.91188000000E+02 0.  0.
    9900012    2    3    3    0    0 -0.76375411569E+01  0.57428715177E+01  0.35559160035E+02  0.54367265751E+02  0.40000413931E+02 0.  0.
        -12    1    3    3    0    0  0.76375411569E+01 -0.57428715177E+01 -0.35559160035E+02  0.36820734249E+02  0.00000000000E+00 0.  1.
         11    1    4    4    0    0  0.51456715086E+01  0.17580468849E+02  0.19554857903E+02  0.26794463758E+02  0.51100000000E-03 0. -1.
        -11    1    4    4    0    0 -0.15056414056E+02 -0.94919486020E+01  0.92242348683E+01  0.20046924993E+02  0.51100000000E-03 0.  1.
         12    1    4    4    0    0  0.22732013906E+01 -0.23456487289E+01  0.67800672643E+01  0.75258770007E+01  0.00000000000E+00 0. -1.
</event>
<event>
 8    1  0.2482403E-006  0.9118800E+02  0.7816164E-02  0.1184000E+00
        -11   -1    0    0    0    0  0.00000000000E+00  0.00000000000E+00  0.45593999997E+02  0.45594000000E+02  0.51100000000E-03 0. -1.
         11   -1    0    0    0    0 -0.00000000000E+00 -0.00000000000E+00 -0.45593999997E+02  0.45594000000E+02  0.51100000000E-03 0.  1.
         23    2    1    2    0    0  0.00000000000E+00 -0.17763568394E-14 -0.17763568394E-14  0.91188000000E+02  0.91188000000E+02 0.  0.
    9900012    2    3    3    0    0  0.33577303395E+02  0.12199561958E+02 -0.89171316301E+01  0.54367084045E+02  0.39999999698E+02 0.  0.
         12    1    3    3    0    0 -0.33577303395E+02 -0.12199561958E+02  0.89171316301E+01  0.36820915955E+02  0.00000000000E+00 0. -1.
         11    1    4    4    0    0  0.20880042749E+02 -0.80213512866E+01  0.88687227192E+00  0.22385370320E+02  0.51100000000E-03 0. -1.
        -11    1    4    4    0    0  0.15902334950E+02  0.95427929192E+01 -0.94798017251E+01  0.20828245115E+02  0.51100000000E-03 0.  1.
         12    1    4    4    0    0 -0.32050743047E+01  0.10678120326E+02 -0.32420217685E+00  0.11153468610E+02  0.00000000000E+00 0. -1.
</event>
<event>
 8    1  0.2482403E-006  0.9118800E+02  0.7816164E-02  0.1184000E+00
        -11   -1    0    0    0    0  0.00000000000E+00  0.00000000000E+00  0.45593999997E+02  0.45594000000E+02  0.51100000000E-03 0.  1.
         11   -1    0    0    0    0 -0.00000000000E+00 -0.00000000000E+00 -0.45593999997E+02  0.45594000000E+02  0.51100000000E-03 0. -1.
         23    2    1    2    0    0  0.00000000000E+00  0.00000000000E+00 -0.35527136788E-14  0.91188000000E+02  0.91188000000E+02 0.  0.
    9900012    2    3    3    0    0 -0.20602721933E+02  0.85401773948E+01 -0.29298044251E+02  0.54367052458E+02  0.39999927687E+02 0.  0.
        -12    1    3    3    0    0  0.20602721933E+02 -0.85401773948E+01  0.29298044251E+02  0.36820947542E+02  0.00000000000E+00 0.  1.
         11    1    4    4    0    0 -0.53036719231E+01 -0.49124685681E+01 -0.15419631504E+02  0.17030159109E+02  0.51100000000E-03 0. -1.
        -11    1    4    4    0    0 -0.58572370640E+01  0.12976670324E+00  0.80749343785E+01  0.99764037057E+01  0.51100000000E-03 0.  1.
         12    1    4    4    0    0 -0.94418129459E+01  0.13322879260E+02 -0.21953347125E+02  0.27360489643E+02  0.00000000000E+00 0. -1.
</event>
<event>
 8    1  0.2482403E-006  0.9118800E+02  0.7816164E-02  0.1184000E+00
        -11   -1    0    0    0    0  0.00000000000E+00  0.00000000000E+00  0.45593999997E+02  0.45594000000E+02  0.51100000000E-03 0.  1.
         11   -1    0    0    0    0 -0.00000000000E+00 -0.00000000000E+00 -0.45593999997E+02  0.45594000000E+02  0.51100000000E-03 0. -1.
         23    2    1    2    0    0  0.00000000000E+00 -0.35527136788E-14  0.00000000000E+00  0.91188000000E+02  0.91188000000E+02 0.  0.
    9900012    2    3    3    0    0 -0.20939834034E+02  0.26448202991E+02 -0.14757889450E+02  0.54367090290E+02  0.40000013934E+02 0.  0.
        -12    1    3    3    0    0  0.20939834034E+02 -0.26448202991E+02  0.14757889450E+02  0.36820909710E+02  0.00000000000E+00 0.  1.
         11    1    4    4    0    0 -0.14621683733E+02  0.17558292508E+02 -0.76150963785E+01  0.24084786984E+02  0.51100000000E-03 0. -1.
        -11    1    4    4    0    0 -0.15650308094E+02  0.81237828174E+01  0.12912306535E+01  0.17680363898E+02  0.51100000000E-03 0.  1.
        -12    1    4    4    0    0  0.93321577921E+01  0.76612766623E+00 -0.84340237247E+01  0.12601939408E+02  0.00000000000E+00 0.  1.
</event>
<event>
 8    1  0.2482403E-006  0.9118800E+02  0.7816164E-02  0.1184000E+00
        -11   -1    0    0    0    0  0.00000000000E+00  0.00000000000E+00  0.45593999997E+02  0.45594000000E+02  0.51100000000E-03 0. -1.
         11   -1    0    0    0    0 -0.00000000000E+00 -0.00000000000E+00 -0.45593999997E+02  0.45594000000E+02  0.51100000000E-03 0.  1.
         23    2    1    2    0    0  0.00000000000E+00 -0.71054273576E-14  0.88817841970E-15  0.91188000000E+02  0.91188000000E+02 0.  0.
    9900012    2    3    3    0    0 -0.15672994967E+02 -0.33124394133E+02 -0.35932804047E+01  0.54367083091E+02  0.39999997524E+02 0.  0.
         12    1    3    3    0    0  0.15672994967E+02  0.33124394133E+02  0.35932804047E+01  0.36820916909E+02  0.00000000000E+00 0. -1.
         11    1    4    4    0    0 -0.97899943873E+01  0.77123682264E+00 -0.47057565794E+01  0.10889579495E+02  0.51100000000E-03 0. -1.
        -11    1    4    4    0    0  0.73683913988E+01 -0.25074474778E+02 -0.46549406288E+01  0.26546015703E+02  0.51100000000E-03 0.  1.
        -12    1    4    4    0    0 -0.13251391978E+02 -0.88211561775E+01  0.57674168036E+01  0.16931487893E+02  0.00000000000E+00 0.  1.
</event>
<event>
 8    1  0.2482403E-006  0.9118800E+02  0.7816164E-02  0.1184000E+00
        -11   -1    0    0    0    0  0.00000000000E+00  0.00000000000E+00  0.45593999997E+02  0.45594000000E+02  0.51100000000E-03 0.  1.
         11   -1    0    0    0    0 -0.00000000000E+00 -0.00000000000E+00 -0.45593999997E+02  0.45594000000E+02  0.51100000000E-03 0. -1.
         23    2    1    2    0    0  0.00000000000E+00  0.35527136788E-14  0.00000000000E+00  0.91188000000E+02  0.91188000000E+02 0.  0.
    9900012    2    3    3    0    0 -0.19943075717E+02 -0.25948492920E+02  0.16873904297E+02  0.54367092895E+02  0.40000019872E+02 0.  0.
         12    1    3    3    0    0  0.19943075717E+02  0.25948492920E+02 -0.16873904297E+02  0.36820907105E+02  0.00000000000E+00 0. -1.
         11    1    4    4    0    0  0.36694047346E+01  0.41889810562E+01  0.87330169464E+00  0.56369095705E+01  0.51100000000E-03 0. -1.
        -11    1    4    4    0    0 -0.27572478436E+02 -0.31470167653E+02  0.14255821005E+02  0.44202278810E+02  0.51100000000E-03 0.  1.
        -12    1    4    4    0    0  0.39599979841E+01  0.13326936769E+01  0.17447815969E+01  0.45279045144E+01  0.00000000000E+00 0.  1.
</event>
<event>
 8    1  0.2482403E-006  0.9118800E+02  0.7816164E-02  0.1184000E+00
        -11   -1    0    0    0    0  0.00000000000E+00  0.00000000000E+00  0.45593999997E+02  0.45594000000E+02  0.51100000000E-03 0.  1.
         11   -1    0    0    0    0 -0.00000000000E+00 -0.00000000000E+00 -0.45593999997E+02  0.45594000000E+02  0.51100000000E-03 0. -1.
         23    2    1    2    0    0  0.00000000000E+00  0.00000000000E+00 -0.35527136788E-14  0.91188000000E+02  0.91188000000E+02 0.  0.
    9900012    2    3    3    0    0 -0.10738345518E+02  0.22613676294E+02  0.27001701115E+02  0.54367051029E+02  0.39999924432E+02 0.  0.
         12    1    3    3    0    0  0.10738345518E+02 -0.22613676294E+02 -0.27001701115E+02  0.36820948971E+02  0.00000000000E+00 0. -1.
         11    1    4    4    0    0  0.10615961751E+02  0.30760077074E+01 -0.21332777375E+01  0.11256613233E+02  0.51100000000E-03 0. -1.
        -11    1    4    4    0    0 -0.96421807172E+01  0.74798749245E+01  0.21336746603E+02  0.24580010857E+02  0.51100000000E-03 0.  1.
         12    1    4    4    0    0 -0.11712126551E+02  0.12057793662E+02  0.77982322495E+01  0.18530426940E+02  0.00000000000E+00 0. -1.
</event>
<event>
 8    1  0.2482403E-006  0.9118800E+02  0.7816164E-02  0.1184000E+00
        -11   -1    0    0    0    0  0.00000000000E+00  0.00000000000E+00  0.45593999997E+02  0.45594000000E+02  0.51100000000E-03 0.  1.
         11   -1    0    0    0    0 -0.00000000000E+00 -0.00000000000E+00 -0.45593999997E+02  0.45594000000E+02  0.51100000000E-03 0. -1.
         23    2    1    2    0    0  0.00000000000E+00  0.88817841970E-15  0.00000000000E+00  0.91188000000E+02  0.91188000000E+02 0.  0.
    9900012    2    3    3    0    0 -0.32679856989E+02 -0.41825248067E+01 -0.16441203169E+02  0.54367085723E+02  0.40000003522E+02 0.  0.
         12    1    3    3    0    0  0.32679856989E+02  0.41825248067E+01  0.16441203169E+02  0.36820914277E+02  0.00000000000E+00 0. -1.
         11    1    4    4    0    0 -0.11964719523E+02  0.72178541224E+01  0.34048454476E+01  0.14382103607E+02  0.51100000000E-03 0. -1.
        -11    1    4    4    0    0 -0.93494088182E+01 -0.64249509936E+01  0.48577821280E+01  0.12340562709E+02  0.51100000000E-03 0.  1.
         12    1    4    4    0    0 -0.11365728648E+02 -0.49754279356E+01 -0.24703830745E+02  0.27644419406E+02  0.00000000000E+00 0. -1.
</event>
<event>
 8    1  0.2482403E-006  0.9118800E+02  0.7816164E-02  0.1184000E+00
        -11   -1    0    0    0    0  0.00000000000E+00  0.00000000000E+00  0.45593999997E+02  0.45594000000E+02  0.51100000000E-03 0.  1.
         11   -1    0    0    0    0 -0.00000000000E+00 -0.00000000000E+00 -0.45593999997E+02  0.45594000000E+02  0.51100000000E-03 0. -1.
         23    2    1    2    0    0  0.17763568394E-14  0.71054273576E-14  0.13322676296E-14  0.91188000000E+02  0.91188000000E+02 0.  0.
    9900012    2    3    3    0    0 -0.15665052301E+02 -0.33222358547E+02 -0.25809722082E+01  0.54367076756E+02  0.39999983080E+02 0.  0.
         12    1    3    3    0    0  0.15665052301E+02  0.33222358547E+02  0.25809722082E+01  0.36820923244E+02  0.00000000000E+00 0. -1.
         11    1    4    4    0    0 -0.24585135100E+02 -0.15874220467E+02 -0.95781632092E+01  0.30792222298E+02  0.51100000000E-03 0. -1.
        -11    1    4    4    0    0  0.36512019320E+01 -0.89126815910E+01  0.92752787355E+01  0.13371535610E+02  0.51100000000E-03 0.  1.
         12    1    4    4    0    0  0.52688808675E+01 -0.84354564893E+01 -0.22780877344E+01  0.10203318848E+02  0.00000000000E+00 0. -1.
</event>
<event>
 8    1  0.2482403E-006  0.9118800E+02  0.7816164E-02  0.1184000E+00
        -11   -1    0    0    0    0  0.00000000000E+00  0.00000000000E+00  0.45593999997E+02  0.45594000000E+02  0.51100000000E-03 0.  1.
         11   -1    0    0    0    0 -0.00000000000E+00 -0.00000000000E+00 -0.45593999997E+02  0.45594000000E+02  0.51100000000E-03 0. -1.
         23    2    1    2    0    0  0.13322676296E-14  0.00000000000E+00  0.00000000000E+00  0.91188000000E+02  0.91188000000E+02 0.  0.
    9900012    2    3    3    0    0  0.18476174841E+01  0.34847043420E+02 -0.11749438677E+02  0.54367089708E+02  0.40000012607E+02 0.  0.
        -12    1    3    3    0    0 -0.18476174841E+01 -0.34847043420E+02  0.11749438677E+02  0.36820910292E+02  0.00000000000E+00 0.  1.
         11    1    4    4    0    0  0.10358349456E+02  0.16061454531E+02 -0.48479991445E+01  0.19717221434E+02  0.51100000000E-03 0. -1.
        -11    1    4    4    0    0  0.90789709585E-01  0.23786227027E+02 -0.30509017432E+01  0.23981260197E+02  0.51100000000E-03 0.  1.
        -12    1    4    4    0    0 -0.86015216819E+01 -0.50006381374E+01 -0.38505377897E+01  0.10668608077E+02  0.00000000000E+00 0.  1.
</event>
<event>
 8    1  0.2482403E-006  0.9118800E+02  0.7816164E-02  0.1184000E+00
        -11   -1    0    0    0    0  0.00000000000E+00  0.00000000000E+00  0.45593999997E+02  0.45594000000E+02  0.51100000000E-03 0.  1.
         11   -1    0    0    0    0 -0.00000000000E+00 -0.00000000000E+00 -0.45593999997E+02  0.45594000000E+02  0.51100000000E-03 0. -1.
         23    2    1    2    0    0  0.17763568394E-14 -0.17763568394E-14  0.00000000000E+00  0.91188000000E+02  0.91188000000E+02 0.  0.
    9900012    2    3    3    0    0 -0.10541885376E+02 -0.14573733815E+02  0.32128724447E+02  0.54367082043E+02  0.39999995133E+02 0.  0.
         12    1    3    3    0    0  0.10541885376E+02  0.14573733815E+02 -0.32128724447E+02  0.36820917957E+02  0.00000000000E+00 0. -1.
         11    1    4    4    0    0  0.62128003865E+01 -0.27869145746E+01  0.63819921455E+01  0.93325026383E+01  0.51100000000E-03 0. -1.
        -11    1    4    4    0    0 -0.85363991187E+01 -0.10246600347E+02  0.31951075716E+02  0.34622740623E+02  0.51100000000E-03 0.  1.
         12    1    4    4    0    0 -0.82182866440E+01 -0.15402188938E+01 -0.62043434145E+01  0.10411838781E+02  0.00000000000E+00 0. -1.
</event>
<event>
 8    1  0.2482403E-006  0.9118800E+02  0.7816164E-02  0.1184000E+00
        -11   -1    0    0    0    0  0.00000000000E+00  0.00000000000E+00  0.45593999997E+02  0.45594000000E+02  0.51100000000E-03 0. -1.
         11   -1    0    0    0    0 -0.00000000000E+00 -0.00000000000E+00 -0.45593999997E+02  0.45594000000E+02  0.51100000000E-03 0.  1.
         23    2    1    2    0    0  0.00000000000E+00 -0.17763568394E-14  0.00000000000E+00  0.91188000000E+02  0.91188000000E+02 0.  0.
    9900012    2    3    3    0    0  0.22763432623E+02 -0.11902853220E+02 -0.26380447477E+02  0.54367084902E+02  0.40000001651E+02 0.  0.
         12    1    3    3    0    0 -0.22763432623E+02  0.11902853220E+02  0.26380447477E+02  0.36820915098E+02  0.00000000000E+00 0. -1.
         11    1    4    4    0    0 -0.54538977822E+01 -0.49410584403E+01  0.84727809200E+00  0.74078971345E+01  0.51100000000E-03 0. -1.
        -11    1    4    4    0    0 -0.29764473685E+01 -0.37529196049E+01 -0.10216967864E+02  0.11284062969E+02  0.51100000000E-03 0.  1.
         12    1    4    4    0    0  0.31193777774E+02 -0.32088751747E+01 -0.17010757705E+02  0.35675124798E+02  0.00000000000E+00 0. -1.
</event>
<event>
 8    1  0.2482403E-006  0.9118800E+02  0.7816164E-02  0.1184000E+00
        -11   -1    0    0    0    0  0.00000000000E+00  0.00000000000E+00  0.45593999997E+02  0.45594000000E+02  0.51100000000E-03 0.  1.
         11   -1    0    0    0    0 -0.00000000000E+00 -0.00000000000E+00 -0.45593999997E+02  0.45594000000E+02  0.51100000000E-03 0. -1.
         23    2    1    2    0    0 -0.17763568394E-14  0.00000000000E+00  0.00000000000E+00  0.91188000000E+02  0.91188000000E+02 0.  0.
    9900012    2    3    3    0    0  0.83613655468E+01  0.14486160472E+02 -0.32802667908E+02  0.54367132262E+02  0.40000109619E+02 0.  0.
        -12    1    3    3    0    0 -0.83613655468E+01 -0.14486160472E+02  0.32802667908E+02  0.36820867738E+02  0.00000000000E+00 0.  1.
         11    1    4    4    0    0  0.93540945263E+01  0.28309555913E+01  0.48743273913E+01  0.10921193238E+02  0.51100000000E-03 0. -1.
        -11    1    4    4    0    0  0.81532623804E+00  0.49023787464E+01  0.15633477582E+00  0.49721740789E+01  0.51100000000E-03 0.  1.
         12    1    4    4    0    0 -0.18080552175E+01  0.67528261343E+01 -0.37833330076E+02  0.38473764945E+02  0.00000000000E+00 0. -1.
</event>
<event>
 8    1  0.2482403E-006  0.9118800E+02  0.7816164E-02  0.1184000E+00
        -11   -1    0    0    0    0  0.00000000000E+00  0.00000000000E+00  0.45593999997E+02  0.45594000000E+02  0.51100000000E-03 0.  1.
         11   -1    0    0    0    0 -0.00000000000E+00 -0.00000000000E+00 -0.45593999997E+02  0.45594000000E+02  0.51100000000E-03 0. -1.
         23    2    1    2    0    0  0.44408920985E-15  0.00000000000E+00 -0.35527136788E-14  0.91188000000E+02  0.91188000000E+02 0.  0.
    9900012    2    3    3    0    0 -0.54466953521E+00 -0.30450354789E+02  0.20694429536E+02  0.54367079513E+02  0.39999989366E+02 0.  0.
         12    1    3    3    0    0  0.54466953521E+00  0.30450354789E+02 -0.20694429536E+02  0.36820920487E+02  0.00000000000E+00 0. -1.
         11    1    4    4    0    0 -0.68192025887E+01 -0.48876166242E+00 -0.13987283544E+01  0.69783130612E+01  0.51100000000E-03 0. -1.
        -11    1    4    4    0    0 -0.16049723722E+01  0.30745481127E+01  0.11195489082E+02  0.11720399245E+02  0.51100000000E-03 0.  1.
        -12    1    4    4    0    0  0.78795054258E+01 -0.33036141239E+02  0.10897668808E+02  0.35668367207E+02  0.00000000000E+00 0.  1.
</event>
<event>
 8    1  0.2482403E-006  0.9118800E+02  0.7816164E-02  0.1184000E+00
        -11   -1    0    0    0    0  0.00000000000E+00  0.00000000000E+00  0.45593999997E+02  0.45594000000E+02  0.51100000000E-03 0. -1.
         11   -1    0    0    0    0 -0.00000000000E+00 -0.00000000000E+00 -0.45593999997E+02  0.45594000000E+02  0.51100000000E-03 0.  1.
         23    2    1    2    0    0  0.88817841970E-15  0.35527136788E-14  0.00000000000E+00  0.91188000000E+02  0.91188000000E+02 0.  0.
    9900012    2    3    3    0    0 -0.28388977300E+01  0.17795397892E+02 -0.32109873221E+02  0.54367089029E+02  0.40000011060E+02 0.  0.
         12    1    3    3    0    0  0.28388977300E+01 -0.17795397892E+02  0.32109873221E+02  0.36820910971E+02  0.00000000000E+00 0. -1.
         11    1    4    4    0    0 -0.17539063496E+01  0.33759817395E+01 -0.12128262654E+02  0.12710947858E+02  0.51100000000E-03 0. -1.
        -11    1    4    4    0    0  0.88059226332E+01  0.61240551163E+01 -0.25464248024E+02  0.27631074033E+02  0.51100000000E-03 0.  1.
         12    1    4    4    0    0 -0.98909140136E+01  0.82953610363E+01  0.54826374575E+01  0.14025067138E+02  0.00000000000E+00 0. -1.
</event>
<event>
 8    1  0.2482403E-006  0.9118800E+02  0.7816164E-02  0.1184000E+00
        -11   -1    0    0    0    0  0.00000000000E+00  0.00000000000E+00  0.45593999997E+02  0.45594000000E+02  0.51100000000E-03 0. -1.
         11   -1    0    0    0    0 -0.00000000000E+00 -0.00000000000E+00 -0.45593999997E+02  0.45594000000E+02  0.51100000000E-03 0.  1.
         23    2    1    2    0    0  0.26645352591E-14  0.00000000000E+00 -0.35527136788E-14  0.91188000000E+02  0.91188000000E+02 0.  0.
    9900012    2    3    3    0    0 -0.32603383119E+01  0.19196772177E+02 -0.31251140309E+02  0.54367086941E+02  0.40000006299E+02 0.  0.
         12    1    3    3    0    0  0.32603383119E+01 -0.19196772177E+02  0.31251140309E+02  0.36820913059E+02  0.00000000000E+00 0. -1.
         11    1    4    4    0    0 -0.18598644287E+02  0.14253618117E+02 -0.19533639258E+02  0.30506364281E+02  0.51100000000E-03 0. -1.
        -11    1    4    4    0    0  0.74658373197E+01  0.79008784811E+01 -0.20757267046E+01  0.11066672909E+02  0.51100000000E-03 0.  1.
         12    1    4    4    0    0  0.78724686550E+01 -0.29577244216E+01 -0.96417743467E+01  0.12794049751E+02  0.00000000000E+00 0. -1.
</event>
<event>
 8    1  0.2482403E-006  0.9118800E+02  0.7816164E-02  0.1184000E+00
        -11   -1    0    0    0    0  0.00000000000E+00  0.00000000000E+00  0.45593999997E+02  0.45594000000E+02  0.51100000000E-03 0. -1.
         11   -1    0    0    0    0 -0.00000000000E+00 -0.00000000000E+00 -0.45593999997E+02  0.45594000000E+02  0.51100000000E-03 0.  1.
         23    2    1    2    0    0  0.00000000000E+00  0.88817841970E-15 -0.88817841970E-15  0.91188000000E+02  0.91188000000E+02 0.  0.
    9900012    2    3    3    0    0 -0.36266339076E+02  0.57812289098E+01 -0.26664088559E+01  0.54367086189E+02  0.40000004585E+02 0.  0.
        -12    1    3    3    0    0  0.36266339076E+02 -0.57812289098E+01  0.26664088559E+01  0.36820913811E+02  0.00000000000E+00 0.  1.
         11    1    4    4    0    0 -0.51192698265E+01  0.24517841895E+01 -0.35109576184E+01  0.66742035425E+01  0.51100000000E-03 0. -1.
        -11    1    4    4    0    0 -0.33263108658E+02  0.55621691330E+01  0.12249267083E+02  0.35880589006E+02  0.51100000000E-03 0.  1.
        -12    1    4    4    0    0  0.21160394088E+01 -0.22327244127E+01 -0.11404718320E+02  0.11812293640E+02  0.00000000000E+00 0.  1.
</event>
<event>
 8    1  0.2482403E-006  0.9118800E+02  0.7816164E-02  0.1184000E+00
        -11   -1    0    0    0    0  0.00000000000E+00  0.00000000000E+00  0.45593999997E+02  0.45594000000E+02  0.51100000000E-03 0.  1.
         11   -1    0    0    0    0 -0.00000000000E+00 -0.00000000000E+00 -0.45593999997E+02  0.45594000000E+02  0.51100000000E-03 0. -1.
         23    2    1    2    0    0  0.00000000000E+00  0.00000000000E+00 -0.17763568394E-14  0.91188000000E+02  0.91188000000E+02 0.  0.
    9900012    2    3    3    0    0 -0.12431929489E+02  0.33395404824E+02 -0.92722552111E+01  0.54367073194E+02  0.39999974960E+02 0.  0.
        -12    1    3    3    0    0  0.12431929489E+02 -0.33395404824E+02  0.92722552111E+01  0.36820926806E+02  0.00000000000E+00 0.  1.
         11    1    4    4    0    0 -0.32233600743E+00  0.25281273494E+02 -0.19166987829E+02  0.31727277108E+02  0.51100000000E-03 0. -1.
        -11    1    4    4    0    0  0.13876315599E+00  0.52678565161E+01  0.84823861393E+01  0.99860123355E+01  0.51100000000E-03 0.  1.
        -12    1    4    4    0    0 -0.12248356637E+02  0.28462748135E+01  0.14123464786E+01  0.12653783750E+02  0.00000000000E+00 0.  1.
</event>
<event>
 8    1  0.2482403E-006  0.9118800E+02  0.7816164E-02  0.1184000E+00
        -11   -1    0    0    0    0  0.00000000000E+00  0.00000000000E+00  0.45593999997E+02  0.45594000000E+02  0.51100000000E-03 0.  1.
         11   -1    0    0    0    0 -0.00000000000E+00 -0.00000000000E+00 -0.45593999997E+02  0.45594000000E+02  0.51100000000E-03 0. -1.
         23    2    1    2    0    0 -0.71054273576E-14  0.00000000000E+00  0.13322676296E-14  0.91188000000E+02  0.91188000000E+02 0.  0.
    9900012    2    3    3    0    0 -0.32037284721E+02  0.17981322451E+02 -0.24642850679E+01  0.54366969728E+02  0.39999739089E+02 0.  0.
         12    1    3    3    0    0  0.32037284721E+02 -0.17981322451E+02  0.24642850679E+01  0.36821030272E+02  0.00000000000E+00 0. -1.
         11    1    4    4    0    0  0.38351049452E+01  0.76434695102E+01  0.11357260850E+01  0.86267334545E+01  0.51100000000E-03 0. -1.
        -11    1    4    4    0    0 -0.18472844260E+01 -0.24413201948E+01 -0.85289644312E+01  0.90617734784E+01  0.51100000000E-03 0.  1.
        -12    1    4    4    0    0 -0.34025105240E+02  0.12779173136E+02  0.49289532783E+01  0.36678462795E+02  0.00000000000E+00 0.  1.
</event>
<event>
 8    1  0.2482403E-006  0.9118800E+02  0.7816164E-02  0.1184000E+00
        -11   -1    0    0    0    0  0.00000000000E+00  0.00000000000E+00  0.45593999997E+02  0.45594000000E+02  0.51100000000E-03 0.  1.
         11   -1    0    0    0    0 -0.00000000000E+00 -0.00000000000E+00 -0.45593999997E+02  0.45594000000E+02  0.51100000000E-03 0. -1.
         23    2    1    2    0    0  0.00000000000E+00  0.00000000000E+00  0.00000000000E+00  0.91188000000E+02  0.91188000000E+02 0.  0.
    9900012    2    3    3    0    0  0.16565699755E+01 -0.36491632527E+02 -0.46249166909E+01  0.54367172701E+02  0.40000201806E+02 0.  0.
        -12    1    3    3    0    0 -0.16565699755E+01  0.36491632527E+02  0.46249166909E+01  0.36820827299E+02  0.00000000000E+00 0.  1.
         11    1    4    4    0    0  0.11890066346E+01 -0.77781527063E+00  0.24322435512E+01  0.28168319662E+01  0.51100000000E-03 0.  1.
        -11    1    4    4    0    0  0.15694014140E+02 -0.27945251147E+02 -0.11218758606E+02  0.33957321543E+02  0.51100000000E-03 0. -1.
         12    1    4    4    0    0 -0.15226450799E+02 -0.77685661100E+01  0.41615983638E+01  0.17593019191E+02  0.00000000000E+00 0. -1.
</event>
<event>
 8    1  0.2482403E-006  0.9118800E+02  0.7816164E-02  0.1184000E+00
        -11   -1    0    0    0    0  0.00000000000E+00  0.00000000000E+00  0.45593999997E+02  0.45594000000E+02  0.51100000000E-03 0.  1.
         11   -1    0    0    0    0 -0.00000000000E+00 -0.00000000000E+00 -0.45593999997E+02  0.45594000000E+02  0.51100000000E-03 0. -1.
         23    2    1    2    0    0  0.00000000000E+00  0.35527136788E-14 -0.17763568394E-14  0.91188000000E+02  0.91188000000E+02 0.  0.
    9900012    2    3    3    0    0 -0.23871547952E+02 -0.26511004376E+02  0.91156795665E+01  0.54367085174E+02  0.40000002272E+02 0.  0.
        -12    1    3    3    0    0  0.23871547952E+02  0.26511004376E+02 -0.91156795665E+01  0.36820914826E+02  0.00000000000E+00 0.  1.
         11    1    4    4    0    0 -0.10414559750E+02 -0.77145441168E+01 -0.91802819393E+01  0.15882531992E+02  0.51100000000E-03 0. -1.
        -11    1    4    4    0    0  0.20865697331E+01  0.42116355059E+01  0.71672858508E+01  0.85709762346E+01  0.51100000000E-03 0.  1.
         12    1    4    4    0    0 -0.15543557935E+02 -0.23008095765E+02  0.11128675655E+02  0.29913576948E+02  0.00000000000E+00 0. -1.
</event>
<event>
 8    1  0.2482403E-006  0.9118800E+02  0.7816164E-02  0.1184000E+00
        -11   -1    0    0    0    0  0.00000000000E+00  0.00000000000E+00  0.45593999997E+02  0.45594000000E+02  0.51100000000E-03 0.  1.
         11   -1    0    0    0    0 -0.00000000000E+00 -0.00000000000E+00 -0.45593999997E+02  0.45594000000E+02  0.51100000000E-03 0. -1.
         23    2    1    2    0    0  0.35527136788E-14  0.00000000000E+00  0.00000000000E+00  0.91188000000E+02  0.91188000000E+02 0.  0.
    9900012    2    3    3    0    0  0.17536150596E+02  0.26084080963E+02  0.19180303990E+02  0.54367083139E+02  0.39999997631E+02 0.  0.
         12    1    3    3    0    0 -0.17536150596E+02 -0.26084080963E+02 -0.19180303990E+02  0.36820916861E+02  0.00000000000E+00 0. -1.
         11    1    4    4    0    0 -0.68294013040E+01  0.93729685383E+00 -0.14879531879E+01  0.70521806921E+01  0.51100000000E-03 0. -1.
        -11    1    4    4    0    0  0.66171788829E+01  0.15339581762E+02 -0.20867317051E+01  0.16835803351E+02  0.51100000000E-03 0.  1.
        -12    1    4    4    0    0  0.17748373017E+02  0.98072023466E+01  0.22754988883E+02  0.30479099095E+02  0.00000000000E+00 0.  1.
</event>
<event>
 8    1  0.2482403E-006  0.9118800E+02  0.7816164E-02  0.1184000E+00
        -11   -1    0    0    0    0  0.00000000000E+00  0.00000000000E+00  0.45593999997E+02  0.45594000000E+02  0.51100000000E-03 0. -1.
         11   -1    0    0    0    0 -0.00000000000E+00 -0.00000000000E+00 -0.45593999997E+02  0.45594000000E+02  0.51100000000E-03 0.  1.
         23    2    1    2    0    0  0.00000000000E+00 -0.35527136788E-14  0.00000000000E+00  0.91188000000E+02  0.91188000000E+02 0.  0.
    9900012    2    3    3    0    0  0.69231942834E+01  0.21985758880E+02  0.28713655538E+02  0.54367106109E+02  0.40000049996E+02 0.  0.
        -12    1    3    3    0    0 -0.69231942834E+01 -0.21985758880E+02 -0.28713655538E+02  0.36820893891E+02  0.00000000000E+00 0.  1.
         11    1    4    4    0    0  0.58568409046E+01 -0.52499990669E+01  0.54904641215E+00  0.78845753094E+01  0.51100000000E-03 0. -1.
        -11    1    4    4    0    0 -0.77668266780E+01  0.69747953825E+01 -0.30109261637E+00  0.10443276512E+02  0.51100000000E-03 0.  1.
         12    1    4    4    0    0  0.88331800567E+01  0.20260962565E+02  0.28465701742E+02  0.36039254288E+02  0.00000000000E+00 0. -1.
</event>
<event>
 8    1  0.2482403E-006  0.9118800E+02  0.7816164E-02  0.1184000E+00
        -11   -1    0    0    0    0  0.00000000000E+00  0.00000000000E+00  0.45593999997E+02  0.45594000000E+02  0.51100000000E-03 0.  1.
         11   -1    0    0    0    0 -0.00000000000E+00 -0.00000000000E+00 -0.45593999997E+02  0.45594000000E+02  0.51100000000E-03 0. -1.
         23    2    1    2    0    0  0.00000000000E+00  0.00000000000E+00  0.00000000000E+00  0.91188000000E+02  0.91188000000E+02 0.  0.
    9900012    2    3    3    0    0  0.16789284682E+02 -0.10682188907E+02  0.30980491177E+02  0.54367081034E+02  0.39999992833E+02 0.  0.
         12    1    3    3    0    0 -0.16789284682E+02  0.10682188907E+02 -0.30980491177E+02  0.36820918966E+02  0.00000000000E+00 0. -1.
         11    1    4    4    0    0  0.16097709190E+02 -0.20939015952E+01 -0.19164641332E+00  0.16234450827E+02  0.51100000000E-03 0. -1.
        -11    1    4    4    0    0  0.10315395001E+02 -0.29580888494E+01  0.16941749809E+02  0.20054439671E+02  0.51100000000E-03 0.  1.
         12    1    4    4    0    0 -0.96238195091E+01 -0.56301984620E+01  0.14230387780E+02  0.18078190536E+02  0.00000000000E+00 0. -1.
</event>
<event>
 8    1  0.2482403E-006  0.9118800E+02  0.7816164E-02  0.1184000E+00
        -11   -1    0    0    0    0  0.00000000000E+00  0.00000000000E+00  0.45593999997E+02  0.45594000000E+02  0.51100000000E-03 0.  1.
         11   -1    0    0    0    0 -0.00000000000E+00 -0.00000000000E+00 -0.45593999997E+02  0.45594000000E+02  0.51100000000E-03 0. -1.
         23    2    1    2    0    0 -0.71054273576E-14  0.00000000000E+00  0.00000000000E+00  0.91188000000E+02  0.91188000000E+02 0.  0.
    9900012    2    3    3    0    0  0.23148947509E+02  0.23106167023E+02 -0.16911868597E+02  0.54367081697E+02  0.39999994344E+02 0.  0.
        -12    1    3    3    0    0 -0.23148947509E+02 -0.23106167023E+02  0.16911868597E+02  0.36820918303E+02  0.00000000000E+00 0.  1.
         11    1    4    4    0    0 -0.65660133252E+01  0.67693030775E+01  0.13834209197E+01  0.95315187060E+01  0.51100000000E-03 0. -1.
        -11    1    4    4    0    0 -0.38647957840E+01  0.25588932088E+01 -0.19549439019E+01  0.50305453807E+01  0.51100000000E-03 0.  1.
        -12    1    4    4    0    0  0.33579756618E+02  0.13777970736E+02 -0.16340345614E+02  0.39805017610E+02  0.00000000000E+00 0.  1.
</event>
<event>
 8    1  0.2482403E-006  0.9118800E+02  0.7816164E-02  0.1184000E+00
        -11   -1    0    0    0    0  0.00000000000E+00  0.00000000000E+00  0.45593999997E+02  0.45594000000E+02  0.51100000000E-03 0. -1.
         11   -1    0    0    0    0 -0.00000000000E+00 -0.00000000000E+00 -0.45593999997E+02  0.45594000000E+02  0.51100000000E-03 0.  1.
         23    2    1    2    0    0  0.00000000000E+00  0.00000000000E+00  0.00000000000E+00  0.91188000000E+02  0.91188000000E+02 0.  0.
    9900012    2    3    3    0    0  0.24529381937E+02  0.14703258111E+02  0.23192619099E+02  0.54367164078E+02  0.40000182148E+02 0.  0.
        -12    1    3    3    0    0 -0.24529381937E+02 -0.14703258111E+02 -0.23192619099E+02  0.36820835922E+02  0.00000000000E+00 0.  1.
         11    1    4    4    0    0 -0.26889346775E+01  0.34965333876E+01  0.17212650136E+02  0.17768833400E+02  0.51100000000E-03 0.  1.
        -11    1    4    4    0    0  0.17918506483E+02 -0.31763719257E+01  0.68601442418E+01  0.19447976565E+02  0.51100000000E-03 0. -1.
        -12    1    4    4    0    0  0.92998101323E+01  0.14383096649E+02 -0.88017527818E+00  0.17150354114E+02  0.00000000000E+00 0.  1.
</event>
<event>
 8    1  0.2482403E-006  0.9118800E+02  0.7816164E-02  0.1184000E+00
        -11   -1    0    0    0    0  0.00000000000E+00  0.00000000000E+00  0.45593999997E+02  0.45594000000E+02  0.51100000000E-03 0. -1.
         11   -1    0    0    0    0 -0.00000000000E+00 -0.00000000000E+00 -0.45593999997E+02  0.45594000000E+02  0.51100000000E-03 0.  1.
         23    2    1    2    0    0  0.00000000000E+00  0.13322676296E-14  0.00000000000E+00  0.91188000000E+02  0.91188000000E+02 0.  0.
    9900012    2    3    3    0    0  0.34022806080E+02 -0.91110721015E+00 -0.14049874405E+02  0.54367076319E+02  0.39999982085E+02 0.  0.
         12    1    3    3    0    0 -0.34022806080E+02  0.91110721015E+00  0.14049874405E+02  0.36820923681E+02  0.00000000000E+00 0. -1.
         11    1    4    4    0    0  0.43710633341E+01 -0.20631688806E+01  0.78260481940E+01  0.91983635010E+01  0.51100000000E-03 0. -1.
        -11    1    4    4    0    0  0.13569427123E+02 -0.11090294140E+02 -0.35395788471E+01  0.17878830924E+02  0.51100000000E-03 0.  1.
        -12    1    4    4    0    0  0.16082315623E+02  0.12242355810E+02 -0.18336343752E+02  0.27289881894E+02  0.00000000000E+00 0.  1.
</event>
<event>
 8    1  0.2482403E-006  0.9118800E+02  0.7816164E-02  0.1184000E+00
        -11   -1    0    0    0    0  0.00000000000E+00  0.00000000000E+00  0.45593999997E+02  0.45594000000E+02  0.51100000000E-03 0. -1.
         11   -1    0    0    0    0 -0.00000000000E+00 -0.00000000000E+00 -0.45593999997E+02  0.45594000000E+02  0.51100000000E-03 0.  1.
         23    2    1    2    0    0  0.71054273576E-14  0.66613381478E-15  0.00000000000E+00  0.91188000000E+02  0.91188000000E+02 0.  0.
    9900012    2    3    3    0    0 -0.36448585500E+02 -0.89529404802E+00 -0.51456872891E+01  0.54367095148E+02  0.40000025010E+02 0.  0.
         12    1    3    3    0    0  0.36448585500E+02  0.89529404802E+00  0.51456872891E+01  0.36820904852E+02  0.00000000000E+00 0. -1.
         11    1    4    4    0    0 -0.13790786596E+02 -0.12807021933E+02  0.51023700423E+01  0.19499738102E+02  0.51100000000E-03 0. -1.
        -11    1    4    4    0    0 -0.14765655026E+02 -0.37994226043E+01 -0.77675584035E+01  0.17111257823E+02  0.51100000000E-03 0.  1.
         12    1    4    4    0    0 -0.78921438782E+01  0.15711150489E+02 -0.24804989279E+01  0.17756099223E+02  0.00000000000E+00 0. -1.
</event>
<event>
 8    1  0.2482403E-006  0.9118800E+02  0.7816164E-02  0.1184000E+00
        -11   -1    0    0    0    0  0.00000000000E+00  0.00000000000E+00  0.45593999997E+02  0.45594000000E+02  0.51100000000E-03 0. -1.
         11   -1    0    0    0    0 -0.00000000000E+00 -0.00000000000E+00 -0.45593999997E+02  0.45594000000E+02  0.51100000000E-03 0.  1.
         23    2    1    2    0    0 -0.22204460493E-15  0.00000000000E+00  0.00000000000E+00  0.91188000000E+02  0.91188000000E+02 0.  0.
    9900012    2    3    3    0    0 -0.13773540603E+01  0.24377841603E+02  0.27560902771E+02  0.54367087097E+02  0.40000006656E+02 0.  0.
        -12    1    3    3    0    0  0.13773540603E+01 -0.24377841603E+02 -0.27560902771E+02  0.36820912903E+02  0.00000000000E+00 0.  1.
         11    1    4    4    0    0 -0.67940839537E+01  0.20541214570E+02  0.19397719447E+02  0.29058089971E+02  0.51100000000E-03 0. -1.
        -11    1    4    4    0    0 -0.49561565784E+01 -0.14006555002E+01  0.12010823136E+02  0.13068481034E+02  0.51100000000E-03 0.  1.
         12    1    4    4    0    0  0.10372886472E+02  0.52372825335E+01 -0.38476398120E+01  0.12240516093E+02  0.00000000000E+00 0. -1.
</event>
<event>
 8    1  0.2482403E-006  0.9118800E+02  0.7816164E-02  0.1184000E+00
        -11   -1    0    0    0    0  0.00000000000E+00  0.00000000000E+00  0.45593999997E+02  0.45594000000E+02  0.51100000000E-03 0.  1.
         11   -1    0    0    0    0 -0.00000000000E+00 -0.00000000000E+00 -0.45593999997E+02  0.45594000000E+02  0.51100000000E-03 0. -1.
         23    2    1    2    0    0  0.71054273576E-14 -0.13322676296E-14  0.35527136788E-14  0.91188000000E+02  0.91188000000E+02 0.  0.
    9900012    2    3    3    0    0  0.29819907562E+02 -0.39711738938E+01  0.21231644323E+02  0.54367084344E+02  0.40000000378E+02 0.  0.
         12    1    3    3    0    0 -0.29819907562E+02  0.39711738938E+01 -0.21231644323E+02  0.36820915656E+02  0.00000000000E+00 0. -1.
         11    1    4    4    0    0  0.46989856846E+01  0.17307270524E+01 -0.14275694177E+01  0.52070949000E+01  0.51100000000E-03 0. -1.
        -11    1    4    4    0    0  0.22131207450E+02  0.12338500394E+02  0.12948316603E+02  0.28455014291E+02  0.51100000000E-03 0.  1.
         12    1    4    4    0    0  0.29897144275E+01 -0.18040401340E+02  0.97108971374E+01  0.20704975153E+02  0.00000000000E+00 0. -1.
</event>
<event>
 8    1  0.2482403E-006  0.9118800E+02  0.7816164E-02  0.1184000E+00
        -11   -1    0    0    0    0  0.00000000000E+00  0.00000000000E+00  0.45593999997E+02  0.45594000000E+02  0.51100000000E-03 0. -1.
         11   -1    0    0    0    0 -0.00000000000E+00 -0.00000000000E+00 -0.45593999997E+02  0.45594000000E+02  0.51100000000E-03 0.  1.
         23    2    1    2    0    0 -0.88817841970E-15  0.00000000000E+00 -0.35527136788E-14  0.91188000000E+02  0.91188000000E+02 0.  0.
    9900012    2    3    3    0    0 -0.72311944006E+01  0.18652379807E+02 -0.30912426910E+02  0.54367087703E+02  0.40000008037E+02 0.  0.
         12    1    3    3    0    0  0.72311944006E+01 -0.18652379807E+02  0.30912426910E+02  0.36820912297E+02  0.00000000000E+00 0. -1.
         11    1    4    4    0    0 -0.36422632429E+01  0.12670624806E+02  0.36517118401E+01  0.13680124785E+02  0.51100000000E-03 0. -1.
        -11    1    4    4    0    0 -0.52308407741E+01  0.10275870104E+02 -0.34181267928E+02  0.36073733922E+02  0.51100000000E-03 0.  1.
         12    1    4    4    0    0  0.16419096164E+01 -0.42941151033E+01 -0.38287082180E+00  0.46132289966E+01  0.00000000000E+00 0. -1.
</event>
<event>
 8    1  0.2482403E-006  0.9118800E+02  0.7816164E-02  0.1184000E+00
        -11   -1    0    0    0    0  0.00000000000E+00  0.00000000000E+00  0.45593999997E+02  0.45594000000E+02  0.51100000000E-03 0. -1.
         11   -1    0    0    0    0 -0.00000000000E+00 -0.00000000000E+00 -0.45593999997E+02  0.45594000000E+02  0.51100000000E-03 0.  1.
         23    2    1    2    0    0 -0.88817841970E-15  0.00000000000E+00  0.00000000000E+00  0.91188000000E+02  0.91188000000E+02 0.  0.
    9900012    2    3    3    0    0 -0.37664417020E+01  0.28642835156E+02  0.22829389493E+02  0.54367094071E+02  0.40000022553E+02 0.  0.
        -12    1    3    3    0    0  0.37664417020E+01 -0.28642835156E+02 -0.22829389493E+02  0.36820905929E+02  0.00000000000E+00 0.  1.
         11    1    4    4    0    0 -0.86960756197E+01  0.20158345271E+02  0.27517228268E+02  0.35201966807E+02  0.51100000000E-03 0. -1.
        -11    1    4    4    0    0  0.60271409902E+01  0.20084582666E+01 -0.92114329089E+01  0.11189764502E+02  0.51100000000E-03 0.  1.
        -12    1    4    4    0    0 -0.10975070726E+01  0.64760316184E+01  0.45235941333E+01  0.79753627616E+01  0.00000000000E+00 0.  1.
</event>
<event>
 8    1  0.2482403E-006  0.9118800E+02  0.7816164E-02  0.1184000E+00
        -11   -1    0    0    0    0  0.00000000000E+00  0.00000000000E+00  0.45593999997E+02  0.45594000000E+02  0.51100000000E-03 0.  1.
         11   -1    0    0    0    0 -0.00000000000E+00 -0.00000000000E+00 -0.45593999997E+02  0.45594000000E+02  0.51100000000E-03 0. -1.
         23    2    1    2    0    0 -0.17763568394E-14  0.35527136788E-14 -0.71054273576E-14  0.91188000000E+02  0.91188000000E+02 0.  0.
    9900012    2    3    3    0    0  0.11411019791E+02 -0.19260663339E+02  0.29233468387E+02  0.54367079332E+02  0.39999988953E+02 0.  0.
         12    1    3    3    0    0 -0.11411019791E+02  0.19260663339E+02 -0.29233468387E+02  0.36820920668E+02  0.00000000000E+00 0. -1.
         11    1    4    4    0    0  0.77179412695E+01 -0.10827934682E+02  0.16170796023E+02  0.20935745299E+02  0.51100000000E-03 0. -1.
        -11    1    4    4    0    0  0.30947728953E+01 -0.19161540115E+02  0.11532527911E+02  0.22577454222E+02  0.51100000000E-03 0.  1.
         12    1    4    4    0    0  0.59830562576E+00  0.10728811458E+02  0.15301444525E+01  0.10853879812E+02  0.00000000000E+00 0. -1.
</event>
<event>
 8    1  0.2482403E-006  0.9118800E+02  0.7816164E-02  0.1184000E+00
        -11   -1    0    0    0    0  0.00000000000E+00  0.00000000000E+00  0.45593999997E+02  0.45594000000E+02  0.51100000000E-03 0.  1.
         11   -1    0    0    0    0 -0.00000000000E+00 -0.00000000000E+00 -0.45593999997E+02  0.45594000000E+02  0.51100000000E-03 0. -1.
         23    2    1    2    0    0  0.00000000000E+00  0.00000000000E+00  0.00000000000E+00  0.91188000000E+02  0.91188000000E+02 0.  0.
    9900012    2    3    3    0    0 -0.11848702322E+02  0.33197301320E+02 -0.10645537872E+02  0.54367081512E+02  0.39999993924E+02 0.  0.
        -12    1    3    3    0    0  0.11848702322E+02 -0.33197301320E+02  0.10645537872E+02  0.36820918488E+02  0.00000000000E+00 0.  1.
         11    1    4    4    0    0 -0.14956432692E+02  0.15301468382E+02 -0.20494381749E+02  0.29628525057E+02  0.51100000000E-03 0. -1.
        -11    1    4    4    0    0  0.11463237835E+01 -0.21404857331E+01  0.19428794707E+01  0.31097456952E+01  0.51100000000E-03 0.  1.
         12    1    4    4    0    0  0.19614065866E+01  0.20036318672E+02  0.79059644060E+01  0.21628810760E+02  0.00000000000E+00 0. -1.
</event>
<event>
 8    1  0.2482403E-006  0.9118800E+02  0.7816164E-02  0.1184000E+00
        -11   -1    0    0    0    0  0.00000000000E+00  0.00000000000E+00  0.45593999997E+02  0.45594000000E+02  0.51100000000E-03 0. -1.
         11   -1    0    0    0    0 -0.00000000000E+00 -0.00000000000E+00 -0.45593999997E+02  0.45594000000E+02  0.51100000000E-03 0.  1.
         23    2    1    2    0    0  0.35527136788E-14  0.00000000000E+00  0.35527136788E-14  0.91188000000E+02  0.91188000000E+02 0.  0.
    9900012    2    3    3    0    0  0.26557576139E+02  0.15027302406E+02 -0.20607242219E+02  0.54367039938E+02  0.39999899147E+02 0.  0.
        -12    1    3    3    0    0 -0.26557576139E+02 -0.15027302406E+02  0.20607242219E+02  0.36820960062E+02  0.00000000000E+00 0.  1.
         11    1    4    4    0    0  0.16762077201E+02  0.10128423093E+02 -0.56145291488E+01  0.20373392556E+02  0.51100000000E-03 0. -1.
        -11    1    4    4    0    0  0.49307813803E+01  0.83705051629E+01 -0.22435404790E+02  0.24448422240E+02  0.51100000000E-03 0.  1.
        -12    1    4    4    0    0  0.48647175585E+01 -0.34716258501E+01  0.74426917195E+01  0.95452251413E+01  0.00000000000E+00 0.  1.
</event>
<event>
 8    1  0.2482403E-006  0.9118800E+02  0.7816164E-02  0.1184000E+00
        -11   -1    0    0    0    0  0.00000000000E+00  0.00000000000E+00  0.45593999997E+02  0.45594000000E+02  0.51100000000E-03 0. -1.
         11   -1    0    0    0    0 -0.00000000000E+00 -0.00000000000E+00 -0.45593999997E+02  0.45594000000E+02  0.51100000000E-03 0.  1.
         23    2    1    2    0    0  0.88817841970E-15  0.00000000000E+00  0.35527136788E-14  0.91188000000E+02  0.91188000000E+02 0.  0.
    9900012    2    3    3    0    0  0.49204844417E+01  0.20311599589E+02  0.30315169174E+02  0.54367058580E+02  0.39999941644E+02 0.  0.
        -12    1    3    3    0    0 -0.49204844417E+01 -0.20311599589E+02 -0.30315169174E+02  0.36820941420E+02  0.00000000000E+00 0.  1.
         11    1    4    4    0    0  0.22970675117E+01  0.15120851846E+02  0.22467431657E+02  0.27179075871E+02  0.51100000000E-03 0. -1.
        -11    1    4    4    0    0  0.35168708976E+01  0.12003524546E+02  0.13417136756E+02  0.18343187875E+02  0.51100000000E-03 0.  1.
        -12    1    4    4    0    0 -0.89345396760E+00 -0.68127768033E+01 -0.55693992385E+01  0.88447948332E+01  0.00000000000E+00 0.  1.
</event>
<event>
 8    1  0.2482403E-006  0.9118800E+02  0.7816164E-02  0.1184000E+00
        -11   -1    0    0    0    0  0.00000000000E+00  0.00000000000E+00  0.45593999997E+02  0.45594000000E+02  0.51100000000E-03 0. -1.
         11   -1    0    0    0    0 -0.00000000000E+00 -0.00000000000E+00 -0.45593999997E+02  0.45594000000E+02  0.51100000000E-03 0.  1.
         23    2    1    2    0    0 -0.17763568394E-14  0.71054273576E-14 -0.35527136788E-14  0.91188000000E+02  0.91188000000E+02 0.  0.
    9900012    2    3    3    0    0  0.10019535108E+02  0.31258673502E+02 -0.16681870742E+02  0.54367074369E+02  0.39999977638E+02 0.  0.
         12    1    3    3    0    0 -0.10019535108E+02 -0.31258673502E+02  0.16681870742E+02  0.36820925631E+02  0.00000000000E+00 0. -1.
         11    1    4    4    0    0  0.11719544244E+02 -0.21581291504E+01 -0.12929746738E+01  0.11986535049E+02  0.51100000000E-03 0. -1.
        -11    1    4    4    0    0  0.74508753520E+01  0.27567821261E+02 -0.12267703548E+02  0.31080490073E+02  0.51100000000E-03 0.  1.
         12    1    4    4    0    0 -0.91508844878E+01  0.58489813919E+01 -0.31211925195E+01  0.11300049247E+02  0.00000000000E+00 0. -1.
</event>
<event>
 8    1  0.2482403E-006  0.9118800E+02  0.7816164E-02  0.1184000E+00
        -11   -1    0    0    0    0  0.00000000000E+00  0.00000000000E+00  0.45593999997E+02  0.45594000000E+02  0.51100000000E-03 0.  1.
         11   -1    0    0    0    0 -0.00000000000E+00 -0.00000000000E+00 -0.45593999997E+02  0.45594000000E+02  0.51100000000E-03 0. -1.
         23    2    1    2    0    0  0.00000000000E+00  0.00000000000E+00  0.00000000000E+00  0.91188000000E+02  0.91188000000E+02 0.  0.
    9900012    2    3    3    0    0  0.25317046797E+02  0.10604492662E+02 -0.24543280870E+02  0.54367071726E+02  0.39999971613E+02 0.  0.
        -12    1    3    3    0    0 -0.25317046797E+02 -0.10604492662E+02  0.24543280870E+02  0.36820928274E+02  0.00000000000E+00 0.  1.
         11    1    4    4    0    0 -0.21063936554E+01 -0.23534405713E+00 -0.47103906761E+00  0.21712114409E+01  0.51100000000E-03 0.  1.
        -11    1    4    4    0    0  0.15824526527E+02 -0.12477059362E+02 -0.86531938788E+01  0.21931037702E+02  0.51100000000E-03 0. -1.
         12    1    4    4    0    0  0.11598913925E+02  0.23316896081E+02 -0.15419047924E+02  0.30264822583E+02  0.00000000000E+00 0. -1.
</event>
<event>
 8    1  0.2482403E-006  0.9118800E+02  0.7816164E-02  0.1184000E+00
        -11   -1    0    0    0    0  0.00000000000E+00  0.00000000000E+00  0.45593999997E+02  0.45594000000E+02  0.51100000000E-03 0.  1.
         11   -1    0    0    0    0 -0.00000000000E+00 -0.00000000000E+00 -0.45593999997E+02  0.45594000000E+02  0.51100000000E-03 0. -1.
         23    2    1    2    0    0  0.35527136788E-14  0.35527136788E-14 -0.17763568394E-14  0.91188000000E+02  0.91188000000E+02 0.  0.
    9900012    2    3    3    0    0 -0.23315297288E+02 -0.25048103571E+02  0.13592948965E+02  0.54367097761E+02  0.40000030966E+02 0.  0.
        -12    1    3    3    0    0  0.23315297288E+02  0.25048103571E+02 -0.13592948965E+02  0.36820902239E+02  0.00000000000E+00 0.  1.
         11    1    4    4    0    0 -0.13164368078E+02 -0.20256929591E+02 -0.65546015731E+01  0.25032111086E+02  0.51100000000E-03 0. -1.
        -11    1    4    4    0    0  0.72172528323E+00 -0.90833016060E+01  0.56879107114E+01  0.10741488909E+02  0.51100000000E-03 0.  1.
        -12    1    4    4    0    0 -0.10872654493E+02  0.42921276265E+01  0.14459639827E+02  0.18593497767E+02  0.00000000000E+00 0.  1.
</event>
<event>
 8    1  0.2482403E-006  0.9118800E+02  0.7816164E-02  0.1184000E+00
        -11   -1    0    0    0    0  0.00000000000E+00  0.00000000000E+00  0.45593999997E+02  0.45594000000E+02  0.51100000000E-03 0.  1.
         11   -1    0    0    0    0 -0.00000000000E+00 -0.00000000000E+00 -0.45593999997E+02  0.45594000000E+02  0.51100000000E-03 0. -1.
         23    2    1    2    0    0  0.00000000000E+00 -0.88817841970E-15  0.00000000000E+00  0.91188000000E+02  0.91188000000E+02 0.  0.
    9900012    2    3    3    0    0 -0.47044915215E+01 -0.32234834120E+01 -0.36376604729E+02  0.54367075821E+02  0.39999980949E+02 0.  0.
        -12    1    3    3    0    0  0.47044915215E+01  0.32234834120E+01  0.36376604729E+02  0.36820924179E+02  0.00000000000E+00 0.  1.
         11    1    4    4    0    0 -0.16570802590E+02  0.85626721881E+01 -0.21268517699E+02  0.28288879420E+02  0.51100000000E-03 0. -1.
        -11    1    4    4    0    0  0.15675088318E+01 -0.99381226690E+01 -0.40248143980E+01  0.10836166173E+02  0.51100000000E-03 0.  1.
        -12    1    4    4    0    0  0.10298802237E+02 -0.18480329312E+01 -0.11083272633E+02  0.15242030228E+02  0.00000000000E+00 0.  1.
</event>
<event>
 8    1  0.2482403E-006  0.9118800E+02  0.7816164E-02  0.1184000E+00
        -11   -1    0    0    0    0  0.00000000000E+00  0.00000000000E+00  0.45593999997E+02  0.45594000000E+02  0.51100000000E-03 0. -1.
         11   -1    0    0    0    0 -0.00000000000E+00 -0.00000000000E+00 -0.45593999997E+02  0.45594000000E+02  0.51100000000E-03 0.  1.
         23    2    1    2    0    0  0.00000000000E+00  0.00000000000E+00 -0.66613381478E-15  0.91188000000E+02  0.91188000000E+02 0.  0.
    9900012    2    3    3    0    0 -0.29679242236E+02  0.21709761281E+02  0.19002027803E+01  0.54367055890E+02  0.39999935512E+02 0.  0.
        -12    1    3    3    0    0  0.29679242236E+02 -0.21709761281E+02 -0.19002027803E+01  0.36820944110E+02  0.00000000000E+00 0.  1.
         11    1    4    4    0    0  0.69893253502E+01  0.71661777243E+01  0.48111953328E+01  0.11106411338E+02  0.51100000000E-03 0. -1.
        -11    1    4    4    0    0 -0.10919053312E+02 -0.30034244620E+01 -0.41892545380E+01  0.12074607140E+02  0.51100000000E-03 0.  1.
         12    1    4    4    0    0 -0.25749514274E+02  0.17547008018E+02  0.12782619855E+01  0.31186037412E+02  0.00000000000E+00 0. -1.
</event>
<event>
 8    1  0.2482403E-006  0.9118800E+02  0.7816164E-02  0.1184000E+00
        -11   -1    0    0    0    0  0.00000000000E+00  0.00000000000E+00  0.45593999997E+02  0.45594000000E+02  0.51100000000E-03 0.  1.
         11   -1    0    0    0    0 -0.00000000000E+00 -0.00000000000E+00 -0.45593999997E+02  0.45594000000E+02  0.51100000000E-03 0. -1.
         23    2    1    2    0    0  0.00000000000E+00  0.00000000000E+00  0.00000000000E+00  0.91188000000E+02  0.91188000000E+02 0.  0.
    9900012    2    3    3    0    0  0.34662879809E+02  0.58135658792E+01  0.10975659715E+02  0.54367110670E+02  0.40000060395E+02 0.  0.
        -12    1    3    3    0    0 -0.34662879809E+02 -0.58135658792E+01 -0.10975659715E+02  0.36820889330E+02  0.00000000000E+00 0.  1.
         11    1    4    4    0    0  0.31478030942E+02  0.12469005820E+02  0.37890821668E+01  0.34069042870E+02  0.51100000000E-03 0. -1.
        -11    1    4    4    0    0  0.52166978786E+01 -0.30281243431E+01  0.12304961625E+02  0.13703851818E+02  0.51100000000E-03 0.  1.
         12    1    4    4    0    0 -0.20318490122E+01 -0.36273155981E+01 -0.51183840772E+01  0.65942159820E+01  0.00000000000E+00 0. -1.
</event>
<event>
 8    1  0.2482403E-006  0.9118800E+02  0.7816164E-02  0.1184000E+00
        -11   -1    0    0    0    0  0.00000000000E+00  0.00000000000E+00  0.45593999997E+02  0.45594000000E+02  0.51100000000E-03 0.  1.
         11   -1    0    0    0    0 -0.00000000000E+00 -0.00000000000E+00 -0.45593999997E+02  0.45594000000E+02  0.51100000000E-03 0. -1.
         23    2    1    2    0    0  0.35527136788E-14 -0.88817841970E-15  0.00000000000E+00  0.91188000000E+02  0.91188000000E+02 0.  0.
    9900012    2    3    3    0    0  0.28993679593E+02 -0.73610590858E+01  0.21469998575E+02  0.54367089012E+02  0.40000011021E+02 0.  0.
         12    1    3    3    0    0 -0.28993679593E+02  0.73610590858E+01 -0.21469998575E+02  0.36820910988E+02  0.00000000000E+00 0. -1.
         11    1    4    4    0    0  0.23465925596E+02 -0.14930864826E+01 -0.21800624652E+01  0.23614225457E+02  0.51100000000E-03 0. -1.
        -11    1    4    4    0    0  0.86181219678E+01 -0.78354481653E+01  0.67538721402E+01  0.13464065632E+02  0.51100000000E-03 0.  1.
         12    1    4    4    0    0 -0.30903679709E+01  0.19674755621E+01  0.16896188900E+02  0.17288797923E+02  0.00000000000E+00 0. -1.
</event>
<event>
 8    1  0.2482403E-006  0.9118800E+02  0.7816164E-02  0.1184000E+00
        -11   -1    0    0    0    0  0.00000000000E+00  0.00000000000E+00  0.45593999997E+02  0.45594000000E+02  0.51100000000E-03 0.  1.
         11   -1    0    0    0    0 -0.00000000000E+00 -0.00000000000E+00 -0.45593999997E+02  0.45594000000E+02  0.51100000000E-03 0. -1.
         23    2    1    2    0    0  0.35527136788E-14  0.00000000000E+00 -0.44408920985E-15  0.91188000000E+02  0.91188000000E+02 0.  0.
    9900012    2    3    3    0    0  0.98778126939E+01 -0.35332978374E+02 -0.31283243465E+01  0.54367123346E+02  0.40000089291E+02 0.  0.
         12    1    3    3    0    0 -0.98778126939E+01  0.35332978374E+02  0.31283243465E+01  0.36820876654E+02  0.00000000000E+00 0. -1.
         11    1    4    4    0    0 -0.67823337623E+00 -0.25429736345E+01 -0.56477326249E+01  0.62308586472E+01  0.51100000000E-03 0. -1.
        -11    1    4    4    0    0 -0.76461436177E+01 -0.25862285707E+02  0.75794092661E+01  0.28013724838E+02  0.51100000000E-03 0.  1.
        -12    1    4    4    0    0  0.18202189688E+02 -0.69277190321E+01 -0.50600009877E+01  0.20122539860E+02  0.00000000000E+00 0.  1.
</event>
<event>
 8    1  0.2482403E-006  0.9118800E+02  0.7816164E-02  0.1184000E+00
        -11   -1    0    0    0    0  0.00000000000E+00  0.00000000000E+00  0.45593999997E+02  0.45594000000E+02  0.51100000000E-03 0. -1.
         11   -1    0    0    0    0 -0.00000000000E+00 -0.00000000000E+00 -0.45593999997E+02  0.45594000000E+02  0.51100000000E-03 0.  1.
         23    2    1    2    0    0  0.00000000000E+00  0.00000000000E+00 -0.35527136788E-14  0.91188000000E+02  0.91188000000E+02 0.  0.
    9900012    2    3    3    0    0  0.10444854389E+02 -0.16425213322E+02  0.31255355657E+02  0.54367083755E+02  0.39999999037E+02 0.  0.
        -12    1    3    3    0    0 -0.10444854389E+02  0.16425213322E+02 -0.31255355657E+02  0.36820916245E+02  0.00000000000E+00 0.  1.
         11    1    4    4    0    0 -0.35252928433E+01  0.62328453703E+01  0.31321141282E+01  0.78157654912E+01  0.51100000000E-03 0. -1.
        -11    1    4    4    0    0 -0.50181842296E+01 -0.14155643790E+01  0.13612539214E+02  0.14576941366E+02  0.51100000000E-03 0.  1.
         12    1    4    4    0    0  0.18988331462E+02 -0.21242494313E+02  0.14510702315E+02  0.31974376898E+02  0.00000000000E+00 0. -1.
</event>
<event>
 8    1  0.2482403E-006  0.9118800E+02  0.7816164E-02  0.1184000E+00
        -11   -1    0    0    0    0  0.00000000000E+00  0.00000000000E+00  0.45593999997E+02  0.45594000000E+02  0.51100000000E-03 0. -1.
         11   -1    0    0    0    0 -0.00000000000E+00 -0.00000000000E+00 -0.45593999997E+02  0.45594000000E+02  0.51100000000E-03 0.  1.
         23    2    1    2    0    0  0.00000000000E+00  0.35527136788E-14 -0.35527136788E-14  0.91188000000E+02  0.91188000000E+02 0.  0.
    9900012    2    3    3    0    0  0.48591451642E+00 -0.20328406287E+02  0.30696847740E+02  0.54367127166E+02  0.40000098000E+02 0.  0.
        -12    1    3    3    0    0 -0.48591451642E+00  0.20328406287E+02 -0.30696847740E+02  0.36820872834E+02  0.00000000000E+00 0.  1.
         11    1    4    4    0    0  0.30963824376E+01 -0.75123127976E+01 -0.21891044815E+01  0.84151414997E+01  0.51100000000E-03 0. -1.
        -11    1    4    4    0    0  0.84671859909E+00  0.93743243819E+01  0.73272939389E+01  0.11928291023E+02  0.51100000000E-03 0.  1.
         12    1    4    4    0    0 -0.34571865202E+01 -0.22190417872E+02  0.25558658283E+02  0.34023694643E+02  0.00000000000E+00 0. -1.
</event>
<event>
 8    1  0.2482403E-006  0.9118800E+02  0.7816164E-02  0.1184000E+00
        -11   -1    0    0    0    0  0.00000000000E+00  0.00000000000E+00  0.45593999997E+02  0.45594000000E+02  0.51100000000E-03 0.  1.
         11   -1    0    0    0    0 -0.00000000000E+00 -0.00000000000E+00 -0.45593999997E+02  0.45594000000E+02  0.51100000000E-03 0. -1.
         23    2    1    2    0    0  0.00000000000E+00  0.00000000000E+00  0.00000000000E+00  0.91188000000E+02  0.91188000000E+02 0.  0.
    9900012    2    3    3    0    0 -0.30011973479E+02  0.14456353020E+01 -0.21283142831E+02  0.54367074125E+02  0.39999977082E+02 0.  0.
        -12    1    3    3    0    0  0.30011973479E+02 -0.14456353020E+01  0.21283142831E+02  0.36820925875E+02  0.00000000000E+00 0.  1.
         11    1    4    4    0    0 -0.12890390839E+02  0.12002941366E+02 -0.67406172259E+01  0.18859180742E+02  0.51100000000E-03 0. -1.
        -11    1    4    4    0    0  0.51941645905E+01  0.14289189210E+01  0.14145934324E+01  0.55697603104E+01  0.51100000000E-03 0.  1.
        -12    1    4    4    0    0 -0.22315747231E+02 -0.11986224985E+02 -0.15957119038E+02  0.29938133072E+02  0.00000000000E+00 0.  1.
</event>
<event>
 8    1  0.2482403E-006  0.9118800E+02  0.7816164E-02  0.1184000E+00
        -11   -1    0    0    0    0  0.00000000000E+00  0.00000000000E+00  0.45593999997E+02  0.45594000000E+02  0.51100000000E-03 0. -1.
         11   -1    0    0    0    0 -0.00000000000E+00 -0.00000000000E+00 -0.45593999997E+02  0.45594000000E+02  0.51100000000E-03 0.  1.
         23    2    1    2    0    0  0.00000000000E+00 -0.35527136788E-14  0.17763568394E-14  0.91188000000E+02  0.91188000000E+02 0.  0.
    9900012    2    3    3    0    0 -0.14177825390E+02 -0.31641324007E+02  0.12393304037E+02  0.54367107797E+02  0.40000053844E+02 0.  0.
        -12    1    3    3    0    0  0.14177825390E+02  0.31641324007E+02 -0.12393304037E+02  0.36820892203E+02  0.00000000000E+00 0.  1.
         11    1    4    4    0    0 -0.22051194217E+02 -0.34425136990E+02  0.15087841824E+02  0.43577381683E+02  0.51100000000E-03 0. -1.
        -11    1    4    4    0    0  0.48601823445E+01 -0.15630056514E+01 -0.77867422420E+00  0.51643676183E+01  0.51100000000E-03 0.  1.
        -12    1    4    4    0    0  0.30131864815E+01  0.43468186347E+01 -0.19158635626E+01  0.56253584958E+01  0.00000000000E+00 0.  1.
</event>
<event>
 8    1  0.2482403E-006  0.9118800E+02  0.7816164E-02  0.1184000E+00
        -11   -1    0    0    0    0  0.00000000000E+00  0.00000000000E+00  0.45593999997E+02  0.45594000000E+02  0.51100000000E-03 0. -1.
         11   -1    0    0    0    0 -0.00000000000E+00 -0.00000000000E+00 -0.45593999997E+02  0.45594000000E+02  0.51100000000E-03 0.  1.
         23    2    1    2    0    0 -0.53290705182E-14  0.00000000000E+00 -0.17763568394E-14  0.91188000000E+02  0.91188000000E+02 0.  0.
    9900012    2    3    3    0    0 -0.28450008710E+01  0.33706249553E+02  0.14545609294E+02  0.54367081507E+02  0.39999993912E+02 0.  0.
        -12    1    3    3    0    0  0.28450008710E+01 -0.33706249553E+02 -0.14545609294E+02  0.36820918493E+02  0.00000000000E+00 0.  1.
         11    1    4    4    0    0  0.13748306999E+02  0.17976078655E+02  0.67423344647E+01  0.23613860833E+02  0.51100000000E-03 0. -1.
        -11    1    4    4    0    0 -0.19916304637E+02  0.84453175146E+01  0.45247102015E+01  0.22101031220E+02  0.51100000000E-03 0.  1.
        -12    1    4    4    0    0  0.33229967673E+01  0.72848533833E+01  0.32785646276E+01  0.86521894541E+01  0.00000000000E+00 0.  1.
</event>
<event>
 8    1  0.2482403E-006  0.9118800E+02  0.7816164E-02  0.1184000E+00
        -11   -1    0    0    0    0  0.00000000000E+00  0.00000000000E+00  0.45593999997E+02  0.45594000000E+02  0.51100000000E-03 0.  1.
         11   -1    0    0    0    0 -0.00000000000E+00 -0.00000000000E+00 -0.45593999997E+02  0.45594000000E+02  0.51100000000E-03 0. -1.
         23    2    1    2    0    0  0.35527136788E-14 -0.35527136788E-14  0.00000000000E+00  0.91188000000E+02  0.91188000000E+02 0.  0.
    9900012    2    3    3    0    0  0.23183090479E+02 -0.20349560984E+02  0.20105211670E+02  0.54367084033E+02  0.39999999669E+02 0.  0.
        -12    1    3    3    0    0 -0.23183090479E+02  0.20349560984E+02 -0.20105211670E+02  0.36820915967E+02  0.00000000000E+00 0.  1.
         11    1    4    4    0    0  0.97310655978E+01 -0.64219005455E+01  0.18160476644E+01  0.11799681083E+02  0.51100000000E-03 0. -1.
        -11    1    4    4    0    0  0.20247804984E+02 -0.48824869810E+01  0.22346774372E+02  0.30548168699E+02  0.51100000000E-03 0.  1.
         12    1    4    4    0    0 -0.67957801027E+01 -0.90451734571E+01 -0.40576103663E+01  0.12019234250E+02  0.00000000000E+00 0. -1.
</event>
<event>
 8    1  0.2482403E-006  0.9118800E+02  0.7816164E-02  0.1184000E+00
        -11   -1    0    0    0    0  0.00000000000E+00  0.00000000000E+00  0.45593999997E+02  0.45594000000E+02  0.51100000000E-03 0. -1.
         11   -1    0    0    0    0 -0.00000000000E+00 -0.00000000000E+00 -0.45593999997E+02  0.45594000000E+02  0.51100000000E-03 0.  1.
         23    2    1    2    0    0  0.00000000000E+00  0.17763568394E-14 -0.35527136788E-14  0.91188000000E+02  0.91188000000E+02 0.  0.
    9900012    2    3    3    0    0 -0.25264238498E+02  0.10428674266E+02  0.24672708708E+02  0.54367061000E+02  0.39999947162E+02 0.  0.
        -12    1    3    3    0    0  0.25264238498E+02 -0.10428674266E+02 -0.24672708708E+02  0.36820939000E+02  0.00000000000E+00 0.  1.
         11    1    4    4    0    0  0.25208743896E+01 -0.27104808321E+01 -0.87823402018E-01  0.37025973641E+01  0.51100000000E-03 0. -1.
        -11    1    4    4    0    0 -0.48383804546E+01 -0.97420930104E+01  0.19876281318E+01  0.11057529900E+02  0.51100000000E-03 0.  1.
        -12    1    4    4    0    0 -0.22946732433E+02  0.22881248109E+02  0.22772903978E+02  0.39606933736E+02  0.00000000000E+00 0.  1.
</event>
<event>
 8    1  0.2482403E-006  0.9118800E+02  0.7816164E-02  0.1184000E+00
        -11   -1    0    0    0    0  0.00000000000E+00  0.00000000000E+00  0.45593999997E+02  0.45594000000E+02  0.51100000000E-03 0. -1.
         11   -1    0    0    0    0 -0.00000000000E+00 -0.00000000000E+00 -0.45593999997E+02  0.45594000000E+02  0.51100000000E-03 0.  1.
         23    2    1    2    0    0  0.00000000000E+00  0.00000000000E+00  0.00000000000E+00  0.91188000000E+02  0.91188000000E+02 0.  0.
    9900012    2    3    3    0    0 -0.10524560908E+02  0.19877388368E+02 -0.29153095897E+02  0.54367082697E+02  0.39999996624E+02 0.  0.
         12    1    3    3    0    0  0.10524560908E+02 -0.19877388368E+02  0.29153095897E+02  0.36820917303E+02  0.00000000000E+00 0. -1.
         11    1    4    4    0    0 -0.19777260188E+01  0.16926002458E+02 -0.22334067335E+02  0.28092908775E+02  0.51100000000E-03 0. -1.
        -11    1    4    4    0    0 -0.12107253543E+02  0.52286413830E+01 -0.13174877358E+02  0.18641396748E+02  0.51100000000E-03 0.  1.
         12    1    4    4    0    0  0.35604186532E+01 -0.22772554727E+01  0.63558487958E+01  0.76327771741E+01  0.00000000000E+00 0. -1.
</event>
<event>
 8    1  0.2482403E-006  0.9118800E+02  0.7816164E-02  0.1184000E+00
        -11   -1    0    0    0    0  0.00000000000E+00  0.00000000000E+00  0.45593999997E+02  0.45594000000E+02  0.51100000000E-03 0.  1.
         11   -1    0    0    0    0 -0.00000000000E+00 -0.00000000000E+00 -0.45593999997E+02  0.45594000000E+02  0.51100000000E-03 0. -1.
         23    2    1    2    0    0  0.17763568394E-14  0.00000000000E+00  0.00000000000E+00  0.91188000000E+02  0.91188000000E+02 0.  0.
    9900012    2    3    3    0    0 -0.13231656524E+02 -0.33013778420E+02  0.95285254075E+01  0.54367094302E+02  0.40000023081E+02 0.  0.
         12    1    3    3    0    0  0.13231656524E+02  0.33013778420E+02 -0.95285254075E+01  0.36820905698E+02  0.00000000000E+00 0. -1.
         11    1    4    4    0    0  0.90865591801E+01  0.17509907938E+00  0.35022098550E+01  0.97396966868E+01  0.51100000000E-03 0. -1.
        -11    1    4    4    0    0 -0.55639932018E+01 -0.21299443172E+02  0.91632654587E+01  0.23845119709E+02  0.51100000000E-03 0.  1.
         12    1    4    4    0    0 -0.16754222502E+02 -0.11889434328E+02 -0.31369499062E+01  0.20782277907E+02  0.00000000000E+00 0. -1.
</event>
<event>
 8    1  0.2482403E-006  0.9118800E+02  0.7816164E-02  0.1184000E+00
        -11   -1    0    0    0    0  0.00000000000E+00  0.00000000000E+00  0.45593999997E+02  0.45594000000E+02  0.51100000000E-03 0.  1.
         11   -1    0    0    0    0 -0.00000000000E+00 -0.00000000000E+00 -0.45593999997E+02  0.45594000000E+02  0.51100000000E-03 0. -1.
         23    2    1    2    0    0  0.17763568394E-14  0.35527136788E-14 -0.35527136788E-14  0.91188000000E+02  0.91188000000E+02 0.  0.
    9900012    2    3    3    0    0 -0.92246331242E+01 -0.28246488233E+02  0.21744445112E+02  0.54367097689E+02  0.40000030801E+02 0.  0.
         12    1    3    3    0    0  0.92246331242E+01  0.28246488233E+02 -0.21744445112E+02  0.36820902311E+02  0.00000000000E+00 0. -1.
         11    1    4    4    0    0 -0.86460286953E+01  0.20502193735E+00  0.18814224601E+02  0.20706783763E+02  0.51100000000E-03 0. -1.
        -11    1    4    4    0    0 -0.78036836822E+01 -0.11920579203E+02 -0.32068406823E+01  0.14604160878E+02  0.51100000000E-03 0.  1.
         12    1    4    4    0    0  0.72250792533E+01 -0.16530930968E+02  0.61370611924E+01  0.19056153047E+02  0.00000000000E+00 0. -1.
</event>
<event>
 8    1  0.2482403E-006  0.9118800E+02  0.7816164E-02  0.1184000E+00
        -11   -1    0    0    0    0  0.00000000000E+00  0.00000000000E+00  0.45593999997E+02  0.45594000000E+02  0.51100000000E-03 0.  1.
         11   -1    0    0    0    0 -0.00000000000E+00 -0.00000000000E+00 -0.45593999997E+02  0.45594000000E+02  0.51100000000E-03 0. -1.
         23    2    1    2    0    0  0.00000000000E+00 -0.35527136788E-14  0.00000000000E+00  0.91188000000E+02  0.91188000000E+02 0.  0.
    9900012    2    3    3    0    0  0.10680506902E+02  0.20570454047E+02 -0.28610757842E+02  0.54366915393E+02  0.39999615219E+02 0.  0.
        -12    1    3    3    0    0 -0.10680506902E+02 -0.20570454047E+02  0.28610757842E+02  0.36821084607E+02  0.00000000000E+00 0.  1.
         11    1    4    4    0    0  0.11802426074E+02  0.52295238662E+01 -0.22950111902E+01  0.13111531479E+02  0.51100000000E-03 0. -1.
        -11    1    4    4    0    0  0.29966816960E+01  0.71402978675E+01  0.45996742404E+01  0.90067173933E+01  0.51100000000E-03 0.  1.
         12    1    4    4    0    0 -0.41186008675E+01  0.82006323129E+01 -0.30915420892E+02  0.32248666521E+02  0.00000000000E+00 0. -1.
</event>
<event>
 8    1  0.2482403E-006  0.9118800E+02  0.7816164E-02  0.1184000E+00
        -11   -1    0    0    0    0  0.00000000000E+00  0.00000000000E+00  0.45593999997E+02  0.45594000000E+02  0.51100000000E-03 0.  1.
         11   -1    0    0    0    0 -0.00000000000E+00 -0.00000000000E+00 -0.45593999997E+02  0.45594000000E+02  0.51100000000E-03 0. -1.
         23    2    1    2    0    0 -0.44408920985E-15  0.00000000000E+00 -0.71054273576E-14  0.91188000000E+02  0.91188000000E+02 0.  0.
    9900012    2    3    3    0    0 -0.19825973397E+01 -0.67254989047E+01 -0.36147144035E+02  0.54367094937E+02  0.40000024529E+02 0.  0.
        -12    1    3    3    0    0  0.19825973397E+01  0.67254989047E+01  0.36147144035E+02  0.36820905063E+02  0.00000000000E+00 0.  1.
         11    1    4    4    0    0 -0.10880523247E+01  0.42019577930E+01  0.67635108507E+01  0.80365033717E+01  0.51100000000E-03 0. -1.
        -11    1    4    4    0    0 -0.56612748445E+01 -0.30311048997E+00 -0.17084026196E+02  0.18000162782E+02  0.51100000000E-03 0.  1.
         12    1    4    4    0    0  0.47667298295E+01 -0.10624346208E+02 -0.25826628690E+02  0.28330428784E+02  0.00000000000E+00 0. -1.
</event>
<event>
 8    1  0.2482403E-006  0.9118800E+02  0.7816164E-02  0.1184000E+00
        -11   -1    0    0    0    0  0.00000000000E+00  0.00000000000E+00  0.45593999997E+02  0.45594000000E+02  0.51100000000E-03 0.  1.
         11   -1    0    0    0    0 -0.00000000000E+00 -0.00000000000E+00 -0.45593999997E+02  0.45594000000E+02  0.51100000000E-03 0. -1.
         23    2    1    2    0    0 -0.35527136788E-14  0.00000000000E+00  0.88817841970E-15  0.91188000000E+02  0.91188000000E+02 0.  0.
    9900012    2    3    3    0    0  0.17112544336E+02 -0.31994426118E+02 -0.62694319570E+01  0.54366969959E+02  0.39999739614E+02 0.  0.
        -12    1    3    3    0    0 -0.17112544336E+02  0.31994426118E+02  0.62694319570E+01  0.36821030041E+02  0.00000000000E+00 0.  1.
         11    1    4    4    0    0  0.14613004428E+02 -0.12852089207E+02 -0.75092337142E+01  0.20859163133E+02  0.51100000000E-03 0. -1.
        -11    1    4    4    0    0  0.26076584356E+01  0.67096743057E+01  0.25119961064E+01  0.76242859669E+01  0.51100000000E-03 0.  1.
         12    1    4    4    0    0 -0.10811852760E+00 -0.25852011217E+02 -0.12721943491E+01  0.25883520858E+02  0.00000000000E+00 0. -1.
</event>
<event>
 8    1  0.2482403E-006  0.9118800E+02  0.7816164E-02  0.1184000E+00
        -11   -1    0    0    0    0  0.00000000000E+00  0.00000000000E+00  0.45593999997E+02  0.45594000000E+02  0.51100000000E-03 0.  1.
         11   -1    0    0    0    0 -0.00000000000E+00 -0.00000000000E+00 -0.45593999997E+02  0.45594000000E+02  0.51100000000E-03 0. -1.
         23    2    1    2    0    0  0.00000000000E+00 -0.10658141036E-13 -0.71054273576E-14  0.91188000000E+02  0.91188000000E+02 0.  0.
    9900012    2    3    3    0    0 -0.10653117773E+02  0.29182347068E+02  0.19765684895E+02  0.54367073911E+02  0.39999976595E+02 0.  0.
         12    1    3    3    0    0  0.10653117773E+02 -0.29182347068E+02 -0.19765684895E+02  0.36820926089E+02  0.00000000000E+00 0. -1.
         11    1    4    4    0    0  0.23261915431E+01  0.30738631971E+02  0.18428703040E+02  0.35915063115E+02  0.51100000000E-03 0.  1.
        -11    1    4    4    0    0 -0.62441884284E+01 -0.71702148181E+01 -0.38809426109E+00  0.95159070552E+01  0.51100000000E-03 0. -1.
        -12    1    4    4    0    0 -0.67351208877E+01  0.56139299151E+01  0.17250761162E+01  0.89361037410E+01  0.00000000000E+00 0.  1.
</event>
<event>
 8    1  0.2482403E-006  0.9118800E+02  0.7816164E-02  0.1184000E+00
        -11   -1    0    0    0    0  0.00000000000E+00  0.00000000000E+00  0.45593999997E+02  0.45594000000E+02  0.51100000000E-03 0. -1.
         11   -1    0    0    0    0 -0.00000000000E+00 -0.00000000000E+00 -0.45593999997E+02  0.45594000000E+02  0.51100000000E-03 0.  1.
         23    2    1    2    0    0  0.71054273576E-14  0.00000000000E+00  0.13322676296E-14  0.91188000000E+02  0.91188000000E+02 0.  0.
    9900012    2    3    3    0    0  0.35895248750E+02 -0.80900064631E+01  0.13650330799E+01  0.54367076564E+02  0.39999982643E+02 0.  0.
        -12    1    3    3    0    0 -0.35895248750E+02  0.80900064631E+01 -0.13650330799E+01  0.36820923436E+02  0.00000000000E+00 0.  1.
         11    1    4    4    0    0  0.13810532551E+02  0.17721129984E+00 -0.36052075835E+01  0.14274443428E+02  0.51100000000E-03 0. -1.
        -11    1    4    4    0    0 -0.57150541352E+01 -0.70512374049E+01 -0.52065121822E+01  0.10463726013E+02  0.51100000000E-03 0.  1.
        -12    1    4    4    0    0  0.27799770334E+02 -0.12159803580E+01  0.10176752846E+02  0.29628907123E+02  0.00000000000E+00 0.  1.
</event>
<event>
 8    1  0.2482403E-006  0.9118800E+02  0.7816164E-02  0.1184000E+00
        -11   -1    0    0    0    0  0.00000000000E+00  0.00000000000E+00  0.45593999997E+02  0.45594000000E+02  0.51100000000E-03 0.  1.
         11   -1    0    0    0    0 -0.00000000000E+00 -0.00000000000E+00 -0.45593999997E+02  0.45594000000E+02  0.51100000000E-03 0. -1.
         23    2    1    2    0    0 -0.71054273576E-14  0.00000000000E+00  0.88817841970E-15  0.91188000000E+02  0.91188000000E+02 0.  0.
    9900012    2    3    3    0    0  0.33463092185E+02 -0.15252573622E+02  0.18330427761E+01  0.54367087647E+02  0.40000007909E+02 0.  0.
         12    1    3    3    0    0 -0.33463092185E+02  0.15252573622E+02 -0.18330427761E+01  0.36820912353E+02  0.00000000000E+00 0. -1.
         11    1    4    4    0    0  0.13378316475E+02  0.47557513106E+01 -0.12635620545E+02  0.19006720629E+02  0.51100000000E-03 0. -1.
        -11    1    4    4    0    0  0.19208097165E+01 -0.94755857720E+01  0.99679570594E+01  0.13886554788E+02  0.51100000000E-03 0.  1.
         12    1    4    4    0    0  0.18163965993E+02 -0.10532739161E+02  0.45007062620E+01  0.21473812230E+02  0.00000000000E+00 0. -1.
</event>
<event>
 8    1  0.2482403E-006  0.9118800E+02  0.7816164E-02  0.1184000E+00
        -11   -1    0    0    0    0  0.00000000000E+00  0.00000000000E+00  0.45593999997E+02  0.45594000000E+02  0.51100000000E-03 0. -1.
         11   -1    0    0    0    0 -0.00000000000E+00 -0.00000000000E+00 -0.45593999997E+02  0.45594000000E+02  0.51100000000E-03 0.  1.
         23    2    1    2    0    0  0.00000000000E+00  0.00000000000E+00  0.00000000000E+00  0.91188000000E+02  0.91188000000E+02 0.  0.
    9900012    2    3    3    0    0 -0.53324059779E+01 -0.30522789328E+02 -0.19892301372E+02  0.54367097299E+02  0.40000029912E+02 0.  0.
         12    1    3    3    0    0  0.53324059779E+01  0.30522789328E+02  0.19892301372E+02  0.36820902701E+02  0.00000000000E+00 0. -1.
         11    1    4    4    0    0  0.28209120934E+01 -0.16932906745E+02  0.21682121668E+01  0.17302659337E+02  0.51100000000E-03 0. -1.
        -11    1    4    4    0    0 -0.83418510584E+01 -0.13503344735E+02 -0.89447838309E+00  0.15897386261E+02  0.51100000000E-03 0.  1.
         12    1    4    4    0    0  0.18853298719E+00 -0.86537848359E-01 -0.21166035156E+02  0.21167051701E+02  0.00000000000E+00 0. -1.
</event>
<event>
 8    1  0.2482403E-006  0.9118800E+02  0.7816164E-02  0.1184000E+00
        -11   -1    0    0    0    0  0.00000000000E+00  0.00000000000E+00  0.45593999997E+02  0.45594000000E+02  0.51100000000E-03 0.  1.
         11   -1    0    0    0    0 -0.00000000000E+00 -0.00000000000E+00 -0.45593999997E+02  0.45594000000E+02  0.51100000000E-03 0. -1.
         23    2    1    2    0    0  0.71054273576E-14  0.00000000000E+00  0.17763568394E-14  0.91188000000E+02  0.91188000000E+02 0.  0.
    9900012    2    3    3    0    0 -0.19511392460E+02  0.29673199507E+02 -0.97255413815E+01  0.54367090725E+02  0.40000014926E+02 0.  0.
        -12    1    3    3    0    0  0.19511392460E+02 -0.29673199507E+02  0.97255413815E+01  0.36820909275E+02  0.00000000000E+00 0.  1.
         11    1    4    4    0    0 -0.87663693718E+00  0.15567015016E+02 -0.80113726498E+01  0.17529476342E+02  0.51100000000E-03 0. -1.
        -11    1    4    4    0    0  0.18629644742E+01 -0.10311968444E+01 -0.98589496505E+01  0.10086272455E+02  0.51100000000E-03 0.  1.
        -12    1    4    4    0    0 -0.20497719997E+02  0.15137381335E+02  0.81447809187E+01  0.26751341928E+02  0.00000000000E+00 0.  1.
</event>
<event>
 8    1  0.2482403E-006  0.9118800E+02  0.7816164E-02  0.1184000E+00
        -11   -1    0    0    0    0  0.00000000000E+00  0.00000000000E+00  0.45593999997E+02  0.45594000000E+02  0.51100000000E-03 0. -1.
         11   -1    0    0    0    0 -0.00000000000E+00 -0.00000000000E+00 -0.45593999997E+02  0.45594000000E+02  0.51100000000E-03 0.  1.
         23    2    1    2    0    0 -0.35527136788E-14  0.35527136788E-14 -0.44408920985E-15  0.91188000000E+02  0.91188000000E+02 0.  0.
    9900012    2    3    3    0    0  0.21763249378E+02 -0.29512442943E+02 -0.33401750193E+01  0.54367080930E+02  0.39999992597E+02 0.  0.
         12    1    3    3    0    0 -0.21763249378E+02  0.29512442943E+02  0.33401750193E+01  0.36820919070E+02  0.00000000000E+00 0. -1.
         11    1    4    4    0    0  0.84187749724E+01 -0.97068409342E+01 -0.13652143079E+02  0.18747787706E+02  0.51100000000E-03 0.  1.
        -11    1    4    4    0    0  0.16664749678E+02 -0.70519588740E+01  0.12855892939E+02  0.22197251842E+02  0.51100000000E-03 0. -1.
        -12    1    4    4    0    0 -0.33202752725E+01 -0.12753643135E+02 -0.25439248797E+01  0.13422041383E+02  0.00000000000E+00 0.  1.
</event>
<event>
 8    1  0.2482403E-006  0.9118800E+02  0.7816164E-02  0.1184000E+00
        -11   -1    0    0    0    0  0.00000000000E+00  0.00000000000E+00  0.45593999997E+02  0.45594000000E+02  0.51100000000E-03 0.  1.
         11   -1    0    0    0    0 -0.00000000000E+00 -0.00000000000E+00 -0.45593999997E+02  0.45594000000E+02  0.51100000000E-03 0. -1.
         23    2    1    2    0    0  0.00000000000E+00  0.00000000000E+00  0.00000000000E+00  0.91188000000E+02  0.91188000000E+02 0.  0.
    9900012    2    3    3    0    0 -0.10765781735E+02 -0.33375045061E+02 -0.11224306446E+02  0.54367071924E+02  0.39999972065E+02 0.  0.
        -12    1    3    3    0    0  0.10765781735E+02  0.33375045061E+02  0.11224306446E+02  0.36820928076E+02  0.00000000000E+00 0.  1.
         11    1    4    4    0    0  0.38370553847E+01 -0.17747987028E+02 -0.47284627747E+01  0.18763592355E+02  0.51100000000E-03 0. -1.
        -11    1    4    4    0    0 -0.73834235561E+01  0.76613517911E+00  0.91762844718E+01  0.11802800663E+02  0.51100000000E-03 0.  1.
         12    1    4    4    0    0 -0.72194135632E+01 -0.16393193212E+02 -0.15672128143E+02  0.23800678906E+02  0.00000000000E+00 0. -1.
</event>
<event>
 8    1  0.2482403E-006  0.9118800E+02  0.7816164E-02  0.1184000E+00
        -11   -1    0    0    0    0  0.00000000000E+00  0.00000000000E+00  0.45593999997E+02  0.45594000000E+02  0.51100000000E-03 0. -1.
         11   -1    0    0    0    0 -0.00000000000E+00 -0.00000000000E+00 -0.45593999997E+02  0.45594000000E+02  0.51100000000E-03 0.  1.
         23    2    1    2    0    0  0.35527136788E-14  0.00000000000E+00 -0.35527136788E-14  0.91188000000E+02  0.91188000000E+02 0.  0.
    9900012    2    3    3    0    0 -0.18303927903E+02  0.21484586032E+02  0.23646554801E+02  0.54367071608E+02  0.39999971346E+02 0.  0.
        -12    1    3    3    0    0  0.18303927903E+02 -0.21484586032E+02 -0.23646554801E+02  0.36820928392E+02  0.00000000000E+00 0.  1.
         11    1    4    4    0    0 -0.47106601118E+01 -0.10433097539E+01  0.16845295363E+02  0.17522636505E+02  0.51100000000E-03 0. -1.
        -11    1    4    4    0    0  0.22535682753E+01 -0.44124516662E+01  0.82930169714E+00  0.50235486704E+01  0.51100000000E-03 0.  1.
         12    1    4    4    0    0 -0.15846836066E+02  0.26940347452E+02  0.59719577407E+01  0.31820886433E+02  0.00000000000E+00 0. -1.
</event>
<event>
 8    1  0.2482403E-006  0.9118800E+02  0.7816164E-02  0.1184000E+00
        -11   -1    0    0    0    0  0.00000000000E+00  0.00000000000E+00  0.45593999997E+02  0.45594000000E+02  0.51100000000E-03 0. -1.
         11   -1    0    0    0    0 -0.00000000000E+00 -0.00000000000E+00 -0.45593999997E+02  0.45594000000E+02  0.51100000000E-03 0.  1.
         23    2    1    2    0    0  0.15543122345E-14  0.00000000000E+00 -0.88817841970E-15  0.91188000000E+02  0.91188000000E+02 0.  0.
    9900012    2    3    3    0    0 -0.12109389187E+01  0.36230241139E+02  0.64561312432E+01  0.54367104076E+02  0.40000045361E+02 0.  0.
        -12    1    3    3    0    0  0.12109389187E+01 -0.36230241139E+02 -0.64561312432E+01  0.36820895924E+02  0.00000000000E+00 0.  1.
         11    1    4    4    0    0 -0.12477000852E+02  0.22207916038E+02 -0.26673270798E+01  0.25612140071E+02  0.51100000000E-03 0. -1.
        -11    1    4    4    0    0  0.21569259422E+01  0.17133616780E+02  0.35431591718E+01  0.17628588448E+02  0.51100000000E-03 0.  1.
        -12    1    4    4    0    0  0.91091359910E+01 -0.31112916790E+01  0.55802991513E+01  0.11126375557E+02  0.00000000000E+00 0.  1.
</event>
<event>
 8    1  0.2482403E-006  0.9118800E+02  0.7816164E-02  0.1184000E+00
        -11   -1    0    0    0    0  0.00000000000E+00  0.00000000000E+00  0.45593999997E+02  0.45594000000E+02  0.51100000000E-03 0.  1.
         11   -1    0    0    0    0 -0.00000000000E+00 -0.00000000000E+00 -0.45593999997E+02  0.45594000000E+02  0.51100000000E-03 0. -1.
         23    2    1    2    0    0  0.00000000000E+00 -0.19984014443E-14  0.35527136788E-14  0.91188000000E+02  0.91188000000E+02 0.  0.
    9900012    2    3    3    0    0 -0.25118922138E+02 -0.37598372967E+00 -0.26919841709E+02  0.54367088947E+02  0.40000010872E+02 0.  0.
        -12    1    3    3    0    0  0.25118922138E+02  0.37598372967E+00  0.26919841709E+02  0.36820911053E+02  0.00000000000E+00 0.  1.
         11    1    4    4    0    0 -0.18755994233E+02  0.12260909077E+02 -0.16657314392E+02  0.27921019574E+02  0.51100000000E-03 0. -1.
        -11    1    4    4    0    0 -0.12122054718E+02 -0.27569763572E+01 -0.80149722374E+01  0.14791379565E+02  0.51100000000E-03 0.  1.
        -12    1    4    4    0    0  0.57591268121E+01 -0.98799164491E+01 -0.22475550793E+01  0.11654689808E+02  0.00000000000E+00 0.  1.
</event>
<event>
 8    1  0.2482403E-006  0.9118800E+02  0.7816164E-02  0.1184000E+00
        -11   -1    0    0    0    0  0.00000000000E+00  0.00000000000E+00  0.45593999997E+02  0.45594000000E+02  0.51100000000E-03 0. -1.
         11   -1    0    0    0    0 -0.00000000000E+00 -0.00000000000E+00 -0.45593999997E+02  0.45594000000E+02  0.51100000000E-03 0.  1.
         23    2    1    2    0    0  0.00000000000E+00  0.00000000000E+00  0.00000000000E+00  0.91188000000E+02  0.91188000000E+02 0.  0.
    9900012    2    3    3    0    0  0.66604410884E+01 -0.31413071841E+02  0.18017701184E+02  0.54367080485E+02  0.39999991581E+02 0.  0.
        -12    1    3    3    0    0 -0.66604410884E+01  0.31413071841E+02 -0.18017701184E+02  0.36820919515E+02  0.00000000000E+00 0.  1.
         11    1    4    4    0    0  0.15774780430E+02 -0.16781514200E+02  0.24955897758E+02  0.33959678291E+02  0.51100000000E-03 0. -1.
        -11    1    4    4    0    0 -0.19183392027E+01 -0.10165976965E+02 -0.17977370043E+01  0.10500427208E+02  0.51100000000E-03 0.  1.
         12    1    4    4    0    0 -0.71960001393E+01 -0.44655806754E+01 -0.51404595695E+01  0.99069749853E+01  0.00000000000E+00 0. -1.
</event>
<event>
 8    1  0.2482403E-006  0.9118800E+02  0.7816164E-02  0.1184000E+00
        -11   -1    0    0    0    0  0.00000000000E+00  0.00000000000E+00  0.45593999997E+02  0.45594000000E+02  0.51100000000E-03 0.  1.
         11   -1    0    0    0    0 -0.00000000000E+00 -0.00000000000E+00 -0.45593999997E+02  0.45594000000E+02  0.51100000000E-03 0. -1.
         23    2    1    2    0    0  0.66613381478E-15 -0.71054273576E-14  0.00000000000E+00  0.91188000000E+02  0.91188000000E+02 0.  0.
    9900012    2    3    3    0    0  0.17364571728E+01  0.30675220415E+02  0.20292646447E+02  0.54367137288E+02  0.40000121076E+02 0.  0.
         12    1    3    3    0    0 -0.17364571728E+01 -0.30675220415E+02 -0.20292646447E+02  0.36820862712E+02  0.00000000000E+00 0. -1.
         11    1    4    4    0    0 -0.62045256621E+01  0.23220678615E+02 -0.42621744538E+01  0.24410288515E+02  0.51100000000E-03 0. -1.
        -11    1    4    4    0    0  0.34724996064E+01 -0.37067513758E+01  0.61968020855E+01  0.80124038606E+01  0.51100000000E-03 0.  1.
        -12    1    4    4    0    0  0.44684832286E+01  0.11161293175E+02  0.18358018815E+02  0.21944444913E+02  0.00000000000E+00 0.  1.
</event>
<event>
 8    1  0.2482403E-006  0.9118800E+02  0.7816164E-02  0.1184000E+00
        -11   -1    0    0    0    0  0.00000000000E+00  0.00000000000E+00  0.45593999997E+02  0.45594000000E+02  0.51100000000E-03 0.  1.
         11   -1    0    0    0    0 -0.00000000000E+00 -0.00000000000E+00 -0.45593999997E+02  0.45594000000E+02  0.51100000000E-03 0. -1.
         23    2    1    2    0    0  0.00000000000E+00  0.00000000000E+00  0.00000000000E+00  0.91188000000E+02  0.91188000000E+02 0.  0.
    9900012    2    3    3    0    0 -0.12251136904E+02  0.33527595517E+02  0.90327576844E+01  0.54367072147E+02  0.39999972573E+02 0.  0.
         12    1    3    3    0    0  0.12251136904E+02 -0.33527595517E+02 -0.90327576844E+01  0.36820927853E+02  0.00000000000E+00 0. -1.
         11    1    4    4    0    0 -0.80464168077E+01  0.10804588792E+02  0.70617626118E+01  0.15210274614E+02  0.51100000000E-03 0. -1.
        -11    1    4    4    0    0  0.67239415180E+00  0.30181059126E+02  0.18422321259E+01  0.30244706369E+02  0.51100000000E-03 0.  1.
        -12    1    4    4    0    0 -0.48771142484E+01 -0.74580524012E+01  0.12876294669E+00  0.89120911635E+01  0.00000000000E+00 0.  1.
</event>
<event>
 8    1  0.2482403E-006  0.9118800E+02  0.7816164E-02  0.1184000E+00
        -11   -1    0    0    0    0  0.00000000000E+00  0.00000000000E+00  0.45593999997E+02  0.45594000000E+02  0.51100000000E-03 0. -1.
         11   -1    0    0    0    0 -0.00000000000E+00 -0.00000000000E+00 -0.45593999997E+02  0.45594000000E+02  0.51100000000E-03 0.  1.
         23    2    1    2    0    0  0.00000000000E+00  0.00000000000E+00  0.00000000000E+00  0.91188000000E+02  0.91188000000E+02 0.  0.
    9900012    2    3    3    0    0  0.18096791847E+02  0.91995466886E+01 -0.30718955801E+02  0.54367085021E+02  0.40000001921E+02 0.  0.
         12    1    3    3    0    0 -0.18096791847E+02 -0.91995466886E+01  0.30718955801E+02  0.36820914979E+02  0.00000000000E+00 0. -1.
         11    1    4    4    0    0  0.13881225914E+01  0.29126246147E+01  0.46781352193E+01  0.56828879864E+01  0.51100000000E-03 0. -1.
        -11    1    4    4    0    0 -0.31541621093E+01  0.14236603759E+00  0.34168396785E+01  0.46522897965E+01  0.51100000000E-03 0.  1.
        -12    1    4    4    0    0  0.19862831365E+02  0.61445560363E+01 -0.38813930699E+02  0.44031907238E+02  0.00000000000E+00 0.  1.
</event>
<event>
 8    1  0.2482403E-006  0.9118800E+02  0.7816164E-02  0.1184000E+00
        -11   -1    0    0    0    0  0.00000000000E+00  0.00000000000E+00  0.45593999997E+02  0.45594000000E+02  0.51100000000E-03 0. -1.
         11   -1    0    0    0    0 -0.00000000000E+00 -0.00000000000E+00 -0.45593999997E+02  0.45594000000E+02  0.51100000000E-03 0.  1.
         23    2    1    2    0    0  0.35527136788E-14 -0.88817841970E-15  0.35527136788E-14  0.91188000000E+02  0.91188000000E+02 0.  0.
    9900012    2    3    3    0    0  0.22084888491E+02  0.51571783800E+01  0.29007692538E+02  0.54367013934E+02  0.39999839864E+02 0.  0.
        -12    1    3    3    0    0 -0.22084888491E+02 -0.51571783800E+01 -0.29007692538E+02  0.36820986066E+02  0.00000000000E+00 0.  1.
         11    1    4    4    0    0  0.42763432139E+01 -0.29541136960E+01  0.18119365305E+02  0.18850074226E+02  0.51100000000E-03 0. -1.
        -11    1    4    4    0    0 -0.60373442089E+01  0.45452235997E+01 -0.24728218389E+01  0.79513162920E+01  0.51100000000E-03 0.  1.
         12    1    4    4    0    0  0.23845889486E+02  0.35660684764E+01  0.13361149072E+02  0.27565623416E+02  0.00000000000E+00 0. -1.
</event>
<event>
 8    1  0.2482403E-006  0.9118800E+02  0.7816164E-02  0.1184000E+00
        -11   -1    0    0    0    0  0.00000000000E+00  0.00000000000E+00  0.45593999997E+02  0.45594000000E+02  0.51100000000E-03 0.  1.
         11   -1    0    0    0    0 -0.00000000000E+00 -0.00000000000E+00 -0.45593999997E+02  0.45594000000E+02  0.51100000000E-03 0. -1.
         23    2    1    2    0    0  0.00000000000E+00  0.00000000000E+00  0.00000000000E+00  0.91188000000E+02  0.91188000000E+02 0.  0.
    9900012    2    3    3    0    0  0.18694380652E+02  0.30753337090E+02  0.77802367278E+01  0.54367086192E+02  0.40000004591E+02 0.  0.
        -12    1    3    3    0    0 -0.18694380652E+02 -0.30753337090E+02 -0.77802367278E+01  0.36820913808E+02  0.00000000000E+00 0.  1.
         11    1    4    4    0    0  0.12319435817E+02  0.87123320355E+01  0.60524510369E+01  0.16257471887E+02  0.51100000000E-03 0. -1.
        -11    1    4    4    0    0  0.64115673701E+01 -0.48209183014E+01  0.71036613521E+01  0.10715010699E+02  0.51100000000E-03 0.  1.
         12    1    4    4    0    0 -0.36622534552E-01  0.26861923356E+02 -0.53758756612E+01  0.27394603606E+02  0.00000000000E+00 0. -1.
</event>
<event>
 8    1  0.2482403E-006  0.9118800E+02  0.7816164E-02  0.1184000E+00
        -11   -1    0    0    0    0  0.00000000000E+00  0.00000000000E+00  0.45593999997E+02  0.45594000000E+02  0.51100000000E-03 0. -1.
         11   -1    0    0    0    0 -0.00000000000E+00 -0.00000000000E+00 -0.45593999997E+02  0.45594000000E+02  0.51100000000E-03 0.  1.
         23    2    1    2    0    0  0.00000000000E+00  0.00000000000E+00  0.00000000000E+00  0.91188000000E+02  0.91188000000E+02 0.  0.
    9900012    2    3    3    0    0  0.35259056981E+02 -0.10255571702E+02 -0.27206616556E+01  0.54367084069E+02  0.39999999752E+02 0.  0.
         12    1    3    3    0    0 -0.35259056981E+02  0.10255571702E+02  0.27206616556E+01  0.36820915931E+02  0.00000000000E+00 0. -1.
         11    1    4    4    0    0  0.11075597403E+02 -0.84427383443E+01 -0.95988811049E+00  0.13959587172E+02  0.51100000000E-03 0. -1.
        -11    1    4    4    0    0  0.16219414605E+02 -0.97555230943E+01 -0.14181593278E+02  0.23650734219E+02  0.51100000000E-03 0.  1.
         12    1    4    4    0    0  0.79640449738E+01  0.79426897362E+01  0.12420819733E+02  0.16756762677E+02  0.00000000000E+00 0. -1.
</event>
<event>
 8    1  0.2482403E-006  0.9118800E+02  0.7816164E-02  0.1184000E+00
        -11   -1    0    0    0    0  0.00000000000E+00  0.00000000000E+00  0.45593999997E+02  0.45594000000E+02  0.51100000000E-03 0.  1.
         11   -1    0    0    0    0 -0.00000000000E+00 -0.00000000000E+00 -0.45593999997E+02  0.45594000000E+02  0.51100000000E-03 0. -1.
         23    2    1    2    0    0  0.00000000000E+00  0.00000000000E+00  0.00000000000E+00  0.91188000000E+02  0.91188000000E+02 0.  0.
    9900012    2    3    3    0    0  0.19085323627E+02 -0.19543025927E+02  0.24690409419E+02  0.54366868056E+02  0.39999507305E+02 0.  0.
         12    1    3    3    0    0 -0.19085323627E+02  0.19543025927E+02 -0.24690409419E+02  0.36821131944E+02  0.00000000000E+00 0. -1.
         11    1    4    4    0    0  0.28339318750E+02 -0.48654660422E+01  0.18470384102E+02  0.34175207917E+02  0.51100000000E-03 0. -1.
        -11    1    4    4    0    0 -0.94962120500E+01 -0.13546923607E+02  0.77539283841E+01  0.18270757734E+02  0.51100000000E-03 0.  1.
        -12    1    4    4    0    0  0.24221692660E+00 -0.11306362784E+01 -0.15339030670E+01  0.19209024058E+01  0.00000000000E+00 0.  1.
</event>
<event>
 8    1  0.2482403E-006  0.9118800E+02  0.7816164E-02  0.1184000E+00
        -11   -1    0    0    0    0  0.00000000000E+00  0.00000000000E+00  0.45593999997E+02  0.45594000000E+02  0.51100000000E-03 0. -1.
         11   -1    0    0    0    0 -0.00000000000E+00 -0.00000000000E+00 -0.45593999997E+02  0.45594000000E+02  0.51100000000E-03 0.  1.
         23    2    1    2    0    0  0.00000000000E+00  0.00000000000E+00  0.00000000000E+00  0.91188000000E+02  0.91188000000E+02 0.  0.
    9900012    2    3    3    0    0  0.36403938214E+02  0.43498834485E+01 -0.34075569878E+01  0.54367086810E+02  0.40000006002E+02 0.  0.
        -12    1    3    3    0    0 -0.36403938214E+02 -0.43498834485E+01  0.34075569878E+01  0.36820913190E+02  0.00000000000E+00 0.  1.
         11    1    4    4    0    0  0.64002517769E+01  0.92040718999E+01 -0.58085561463E+01  0.12626063801E+02  0.51100000000E-03 0. -1.
        -11    1    4    4    0    0  0.27277118815E+02 -0.12651261953E+02 -0.52016164882E+01  0.30514790745E+02  0.51100000000E-03 0.  1.
         12    1    4    4    0    0  0.27265676223E+01  0.77970735016E+01  0.76026156467E+01  0.11226232265E+02  0.00000000000E+00 0. -1.
</event>
<event>
 8    1  0.2482403E-006  0.9118800E+02  0.7816164E-02  0.1184000E+00
        -11   -1    0    0    0    0  0.00000000000E+00  0.00000000000E+00  0.45593999997E+02  0.45594000000E+02  0.51100000000E-03 0.  1.
         11   -1    0    0    0    0 -0.00000000000E+00 -0.00000000000E+00 -0.45593999997E+02  0.45594000000E+02  0.51100000000E-03 0. -1.
         23    2    1    2    0    0  0.35527136788E-14  0.00000000000E+00 -0.17763568394E-14  0.91188000000E+02  0.91188000000E+02 0.  0.
    9900012    2    3    3    0    0 -0.29161491707E+02 -0.17809842218E+02 -0.13718467334E+02  0.54367089848E+02  0.40000012927E+02 0.  0.
         12    1    3    3    0    0  0.29161491707E+02  0.17809842218E+02  0.13718467334E+02  0.36820910152E+02  0.00000000000E+00 0. -1.
         11    1    4    4    0    0 -0.13636178580E+02 -0.33940484132E+00 -0.14787381566E+02  0.20117833277E+02  0.51100000000E-03 0. -1.
        -11    1    4    4    0    0  0.47264459760E+01 -0.12469374846E+02  0.11974642011E+01  0.13388746072E+02  0.51100000000E-03 0.  1.
        -12    1    4    4    0    0 -0.20251759103E+02 -0.50010625315E+01 -0.12854996857E+00  0.20860510499E+02  0.00000000000E+00 0.  1.
</event>
<event>
 8    1  0.2482403E-006  0.9118800E+02  0.7816164E-02  0.1184000E+00
        -11   -1    0    0    0    0  0.00000000000E+00  0.00000000000E+00  0.45593999997E+02  0.45594000000E+02  0.51100000000E-03 0. -1.
         11   -1    0    0    0    0 -0.00000000000E+00 -0.00000000000E+00 -0.45593999997E+02  0.45594000000E+02  0.51100000000E-03 0.  1.
         23    2    1    2    0    0 -0.17763568394E-14  0.22204460493E-15  0.71054273576E-14  0.91188000000E+02  0.91188000000E+02 0.  0.
    9900012    2    3    3    0    0 -0.81814402883E+01 -0.17219253122E+01 -0.35859151677E+02  0.54367085414E+02  0.40000002817E+02 0.  0.
         12    1    3    3    0    0  0.81814402883E+01  0.17219253122E+01  0.35859151677E+02  0.36820914586E+02  0.00000000000E+00 0. -1.
         11    1    4    4    0    0  0.16564798162E+01  0.89180073789E+00  0.30079496087E+01  0.35478155317E+01  0.51100000000E-03 0. -1.
        -11    1    4    4    0    0 -0.93002122634E+01  0.43866748179E+01 -0.41920348700E+02  0.43163091866E+02  0.51100000000E-03 0.  1.
        -12    1    4    4    0    0 -0.53770784110E+00 -0.70004008680E+01  0.30532474138E+01  0.76561780155E+01  0.00000000000E+00 0.  1.
</event>
<event>
 8    1  0.2482403E-006  0.9118800E+02  0.7816164E-02  0.1184000E+00
        -11   -1    0    0    0    0  0.00000000000E+00  0.00000000000E+00  0.45593999997E+02  0.45594000000E+02  0.51100000000E-03 0.  1.
         11   -1    0    0    0    0 -0.00000000000E+00 -0.00000000000E+00 -0.45593999997E+02  0.45594000000E+02  0.51100000000E-03 0. -1.
         23    2    1    2    0    0  0.00000000000E+00 -0.35527136788E-14  0.00000000000E+00  0.91188000000E+02  0.91188000000E+02 0.  0.
    9900012    2    3    3    0    0  0.12754678752E+01  0.18319831773E+02  0.31914530483E+02  0.54367077816E+02  0.39999985497E+02 0.  0.
         12    1    3    3    0    0 -0.12754678752E+01 -0.18319831773E+02 -0.31914530483E+02  0.36820922184E+02  0.00000000000E+00 0. -1.
         11    1    4    4    0    0  0.30822047258E+01  0.96677759039E+01  0.20938298736E+02  0.23267535992E+02  0.51100000000E-03 0. -1.
        -11    1    4    4    0    0  0.18171819679E+01  0.17172392571E+02  0.13008959323E+02  0.21620042549E+02  0.51100000000E-03 0.  1.
         12    1    4    4    0    0 -0.36239188185E+01 -0.85203367015E+01 -0.20327275755E+01  0.94794992751E+01  0.00000000000E+00 0. -1.
</event>
<event>
 8    1  0.2482403E-006  0.9118800E+02  0.7816164E-02  0.1184000E+00
        -11   -1    0    0    0    0  0.00000000000E+00  0.00000000000E+00  0.45593999997E+02  0.45594000000E+02  0.51100000000E-03 0. -1.
         11   -1    0    0    0    0 -0.00000000000E+00 -0.00000000000E+00 -0.45593999997E+02  0.45594000000E+02  0.51100000000E-03 0.  1.
         23    2    1    2    0    0  0.00000000000E+00 -0.11657341759E-14  0.88817841970E-15  0.91188000000E+02  0.91188000000E+02 0.  0.
    9900012    2    3    3    0    0  0.36355200866E+02 -0.39792393051E+00  0.58241374622E+01  0.54367088134E+02  0.40000009020E+02 0.  0.
        -12    1    3    3    0    0 -0.36355200866E+02  0.39792393051E+00 -0.58241374622E+01  0.36820911866E+02  0.00000000000E+00 0.  1.
         11    1    4    4    0    0  0.13526605734E+02  0.68246869305E+01  0.49663411687E+01  0.15943963097E+02  0.51100000000E-03 0. -1.
        -11    1    4    4    0    0  0.24466737228E+02  0.40513011363E+01  0.66033761833E+01  0.25663960115E+02  0.51100000000E-03 0.  1.
        -12    1    4    4    0    0 -0.16381420962E+01 -0.11273911997E+02 -0.57455798897E+01  0.12759164922E+02  0.00000000000E+00 0.  1.
</event>
<event>
 8    1  0.2482403E-006  0.9118800E+02  0.7816164E-02  0.1184000E+00
        -11   -1    0    0    0    0  0.00000000000E+00  0.00000000000E+00  0.45593999997E+02  0.45594000000E+02  0.51100000000E-03 0.  1.
         11   -1    0    0    0    0 -0.00000000000E+00 -0.00000000000E+00 -0.45593999997E+02  0.45594000000E+02  0.51100000000E-03 0. -1.
         23    2    1    2    0    0  0.53290705182E-14  0.00000000000E+00  0.00000000000E+00  0.91188000000E+02  0.91188000000E+02 0.  0.
    9900012    2    3    3    0    0  0.10915276212E+02 -0.27471062438E+02  0.21953963973E+02  0.54367094791E+02  0.40000024196E+02 0.  0.
         12    1    3    3    0    0 -0.10915276212E+02  0.27471062438E+02 -0.21953963973E+02  0.36820905209E+02  0.00000000000E+00 0. -1.
         11    1    4    4    0    0 -0.10899253591E+02 -0.12595504648E+02  0.32361764227E+01  0.16968008259E+02  0.51100000000E-03 0. -1.
        -11    1    4    4    0    0  0.21339571073E+00 -0.60673575476E+01 -0.17994983266E+01  0.63321844437E+01  0.51100000000E-03 0.  1.
         12    1    4    4    0    0  0.21601134093E+02 -0.88082002425E+01  0.20517285877E+02  0.31066902088E+02  0.00000000000E+00 0. -1.
</event>
<event>
 8    1  0.2482403E-006  0.9118800E+02  0.7816164E-02  0.1184000E+00
        -11   -1    0    0    0    0  0.00000000000E+00  0.00000000000E+00  0.45593999997E+02  0.45594000000E+02  0.51100000000E-03 0. -1.
         11   -1    0    0    0    0 -0.00000000000E+00 -0.00000000000E+00 -0.45593999997E+02  0.45594000000E+02  0.51100000000E-03 0.  1.
         23    2    1    2    0    0 -0.35527136788E-14  0.35527136788E-14 -0.55511151231E-15  0.91188000000E+02  0.91188000000E+02 0.  0.
    9900012    2    3    3    0    0 -0.25010236476E+02  0.27013801587E+02  0.72338515656E+00  0.54367072651E+02  0.39999973721E+02 0.  0.
         12    1    3    3    0    0  0.25010236476E+02 -0.27013801587E+02 -0.72338515656E+00  0.36820927349E+02  0.00000000000E+00 0. -1.
         11    1    4    4    0    0 -0.26058700261E+02  0.55701756794E+01  0.57805407254E+01  0.27267148141E+02  0.51100000000E-03 0. -1.
        -11    1    4    4    0    0 -0.13248637545E+01  0.18031726167E+02 -0.99843249324E+01  0.20653938054E+02  0.51100000000E-03 0.  1.
         12    1    4    4    0    0  0.23733275392E+01  0.34118997411E+01  0.49271693635E+01  0.64459864558E+01  0.00000000000E+00 0. -1.
</event>
<event>
 8    1  0.2482403E-006  0.9118800E+02  0.7816164E-02  0.1184000E+00
        -11   -1    0    0    0    0  0.00000000000E+00  0.00000000000E+00  0.45593999997E+02  0.45594000000E+02  0.51100000000E-03 0. -1.
         11   -1    0    0    0    0 -0.00000000000E+00 -0.00000000000E+00 -0.45593999997E+02  0.45594000000E+02  0.51100000000E-03 0.  1.
         23    2    1    2    0    0  0.00000000000E+00  0.00000000000E+00  0.80491169285E-15  0.91188000000E+02  0.91188000000E+02 0.  0.
    9900012    2    3    3    0    0  0.10820014388E+01  0.36804464046E+02 -0.20010289125E+00  0.54367090967E+02  0.40000015477E+02 0.  0.
        -12    1    3    3    0    0 -0.10820014388E+01 -0.36804464046E+02  0.20010289125E+00  0.36820909033E+02  0.00000000000E+00 0.  1.
         11    1    4    4    0    0  0.64442396415E+01  0.32176970834E+02  0.13760447999E+02  0.35584204445E+02  0.51100000000E-03 0. -1.
        -11    1    4    4    0    0  0.26672863840E+01 -0.86409723112E+00 -0.25664561462E+01  0.38010232952E+01  0.51100000000E-03 0.  1.
         12    1    4    4    0    0 -0.80295245867E+01  0.54915904437E+01 -0.11394094744E+02  0.14981863226E+02  0.00000000000E+00 0. -1.
</event>
<event>
 8    1  0.2482403E-006  0.9118800E+02  0.7816164E-02  0.1184000E+00
        -11   -1    0    0    0    0  0.00000000000E+00  0.00000000000E+00  0.45593999997E+02  0.45594000000E+02  0.51100000000E-03 0. -1.
         11   -1    0    0    0    0 -0.00000000000E+00 -0.00000000000E+00 -0.45593999997E+02  0.45594000000E+02  0.51100000000E-03 0.  1.
         23    2    1    2    0    0  0.00000000000E+00 -0.30531133177E-15  0.00000000000E+00  0.91188000000E+02  0.91188000000E+02 0.  0.
    9900012    2    3    3    0    0  0.35170817360E+02 -0.22447351745E+00  0.10896934732E+02  0.54367082457E+02  0.39999996078E+02 0.  0.
         12    1    3    3    0    0 -0.35170817360E+02  0.22447351745E+00 -0.10896934732E+02  0.36820917543E+02  0.00000000000E+00 0. -1.
         11    1    4    4    0    0  0.18336578422E+02  0.13613703489E+01  0.17901936741E+01  0.18473987959E+02  0.51100000000E-03 0.  1.
        -11    1    4    4    0    0 -0.10256005429E+01 -0.86936932117E+01  0.13580192354E+02  0.16157158871E+02  0.51100000000E-03 0. -1.
         12    1    4    4    0    0  0.17859839481E+02  0.71078493453E+01 -0.44734512960E+01  0.19735935627E+02  0.00000000000E+00 0. -1.
</event>
<event>
 8    1  0.2482403E-006  0.9118800E+02  0.7816164E-02  0.1184000E+00
        -11   -1    0    0    0    0  0.00000000000E+00  0.00000000000E+00  0.45593999997E+02  0.45594000000E+02  0.51100000000E-03 0.  1.
         11   -1    0    0    0    0 -0.00000000000E+00 -0.00000000000E+00 -0.45593999997E+02  0.45594000000E+02  0.51100000000E-03 0. -1.
         23    2    1    2    0    0  0.00000000000E+00  0.00000000000E+00 -0.35527136788E-14  0.91188000000E+02  0.91188000000E+02 0.  0.
    9900012    2    3    3    0    0 -0.31443945706E+02 -0.10062471750E+02  0.16303530263E+02  0.54367079883E+02  0.39999990209E+02 0.  0.
         12    1    3    3    0    0  0.31443945706E+02  0.10062471750E+02 -0.16303530263E+02  0.36820920117E+02  0.00000000000E+00 0. -1.
         11    1    4    4    0    0 -0.18412907578E+02  0.36126665538E+01 -0.81620034471E+01  0.20462278114E+02  0.51100000000E-03 0. -1.
        -11    1    4    4    0    0 -0.95923425841E+01 -0.99396370487E+01  0.25236237252E+02  0.28769377675E+02  0.51100000000E-03 0.  1.
        -12    1    4    4    0    0 -0.34386955437E+01 -0.37355012546E+01 -0.77070354228E+00  0.51354240931E+01  0.00000000000E+00 0.  1.
</event>
<event>
 8    1  0.2482403E-006  0.9118800E+02  0.7816164E-02  0.1184000E+00
        -11   -1    0    0    0    0  0.00000000000E+00  0.00000000000E+00  0.45593999997E+02  0.45594000000E+02  0.51100000000E-03 0.  1.
         11   -1    0    0    0    0 -0.00000000000E+00 -0.00000000000E+00 -0.45593999997E+02  0.45594000000E+02  0.51100000000E-03 0. -1.
         23    2    1    2    0    0  0.00000000000E+00  0.17763568394E-14  0.00000000000E+00  0.91188000000E+02  0.91188000000E+02 0.  0.
    9900012    2    3    3    0    0  0.24429193506E+02  0.10054639698E+02  0.25649523314E+02  0.54367091252E+02  0.40000016127E+02 0.  0.
         12    1    3    3    0    0 -0.24429193506E+02 -0.10054639698E+02 -0.25649523314E+02  0.36820908748E+02  0.00000000000E+00 0. -1.
         11    1    4    4    0    0  0.16529315232E+02 -0.38296847636E+01  0.15469973937E+02  0.22960941647E+02  0.51100000000E-03 0. -1.
        -11    1    4    4    0    0  0.10346425853E+02  0.97437826661E+01  0.17563863143E+02  0.22593784928E+02  0.51100000000E-03 0.  1.
        -12    1    4    4    0    0 -0.24465475782E+01  0.41405417951E+01 -0.73843137666E+01  0.88123646777E+01  0.00000000000E+00 0.  1.
</event>
<event>
 8    1  0.2482403E-006  0.9118800E+02  0.7816164E-02  0.1184000E+00
        -11   -1    0    0    0    0  0.00000000000E+00  0.00000000000E+00  0.45593999997E+02  0.45594000000E+02  0.51100000000E-03 0. -1.
         11   -1    0    0    0    0 -0.00000000000E+00 -0.00000000000E+00 -0.45593999997E+02  0.45594000000E+02  0.51100000000E-03 0.  1.
         23    2    1    2    0    0  0.00000000000E+00  0.00000000000E+00 -0.88817841970E-15  0.91188000000E+02  0.91188000000E+02 0.  0.
    9900012    2    3    3    0    0  0.33822660673E+02 -0.13443926105E+02 -0.55739093165E+01  0.54367082179E+02  0.39999995444E+02 0.  0.
        -12    1    3    3    0    0 -0.33822660673E+02  0.13443926105E+02  0.55739093165E+01  0.36820917821E+02  0.00000000000E+00 0.  1.
         11    1    4    4    0    0  0.23449179174E+02 -0.12562579834E+02  0.76013954173E+01  0.27667013366E+02  0.51100000000E-03 0. -1.
        -11    1    4    4    0    0 -0.53051989350E+01 -0.20934486529E+01  0.67723848023E+00  0.57433714161E+01  0.51100000000E-03 0.  1.
        -12    1    4    4    0    0  0.15678680434E+02  0.12121023821E+01 -0.13852543214E+02  0.20956697398E+02  0.00000000000E+00 0.  1.
</event>
<event>
 8    1  0.2482403E-006  0.9118800E+02  0.7816164E-02  0.1184000E+00
        -11   -1    0    0    0    0  0.00000000000E+00  0.00000000000E+00  0.45593999997E+02  0.45594000000E+02  0.51100000000E-03 0.  1.
         11   -1    0    0    0    0 -0.00000000000E+00 -0.00000000000E+00 -0.45593999997E+02  0.45594000000E+02  0.51100000000E-03 0. -1.
         23    2    1    2    0    0  0.00000000000E+00  0.00000000000E+00 -0.11102230246E-15  0.91188000000E+02  0.91188000000E+02 0.  0.
    9900012    2    3    3    0    0  0.10715766237E+02  0.35215032420E+02  0.92392105988E+00  0.54367084959E+02  0.40000001780E+02 0.  0.
        -12    1    3    3    0    0 -0.10715766237E+02 -0.35215032420E+02 -0.92392105988E+00  0.36820915041E+02  0.00000000000E+00 0.  1.
         11    1    4    4    0    0 -0.17123031208E+01  0.34607783962E+01 -0.24821126452E+01  0.45901909034E+01  0.51100000000E-03 0. -1.
        -11    1    4    4    0    0  0.24967096179E+02  0.23607285167E+02  0.50644052409E+01  0.34731945025E+02  0.51100000000E-03 0.  1.
        -12    1    4    4    0    0 -0.12539026821E+02  0.81469688566E+01 -0.16583715358E+01  0.15044949030E+02  0.00000000000E+00 0.  1.
</event>
<event>
 8    1  0.2482403E-006  0.9118800E+02  0.7816164E-02  0.1184000E+00
        -11   -1    0    0    0    0  0.00000000000E+00  0.00000000000E+00  0.45593999997E+02  0.45594000000E+02  0.51100000000E-03 0.  1.
         11   -1    0    0    0    0 -0.00000000000E+00 -0.00000000000E+00 -0.45593999997E+02  0.45594000000E+02  0.51100000000E-03 0. -1.
         23    2    1    2    0    0  0.00000000000E+00  0.00000000000E+00  0.00000000000E+00  0.91188000000E+02  0.91188000000E+02 0.  0.
    9900012    2    3    3    0    0  0.34946895913E+02 -0.10308760814E+02 -0.53126894171E+01  0.54367071816E+02  0.39999971818E+02 0.  0.
         12    1    3    3    0    0 -0.34946895913E+02  0.10308760814E+02  0.53126894171E+01  0.36820928184E+02  0.00000000000E+00 0. -1.
         11    1    4    4    0    0  0.16363406841E+02 -0.13104448761E+02 -0.10807863048E+02  0.23585961178E+02  0.51100000000E-03 0. -1.
        -11    1    4    4    0    0 -0.28877288839E+01 -0.73279113802E+00  0.83218437674E+01  0.88390635765E+01  0.51100000000E-03 0.  1.
        -12    1    4    4    0    0  0.21471217956E+02  0.35284790846E+01 -0.28266701365E+01  0.21942047061E+02  0.00000000000E+00 0.  1.
</event>
<event>
 8    1  0.2482403E-006  0.9118800E+02  0.7816164E-02  0.1184000E+00
        -11   -1    0    0    0    0  0.00000000000E+00  0.00000000000E+00  0.45593999997E+02  0.45594000000E+02  0.51100000000E-03 0.  1.
         11   -1    0    0    0    0 -0.00000000000E+00 -0.00000000000E+00 -0.45593999997E+02  0.45594000000E+02  0.51100000000E-03 0. -1.
         23    2    1    2    0    0  0.00000000000E+00  0.00000000000E+00  0.17763568394E-14  0.91188000000E+02  0.91188000000E+02 0.  0.
    9900012    2    3    3    0    0  0.32214334419E+02  0.15937634951E+02  0.80004736516E+01  0.54367093866E+02  0.40000022086E+02 0.  0.
        -12    1    3    3    0    0 -0.32214334419E+02 -0.15937634951E+02 -0.80004736516E+01  0.36820906134E+02  0.00000000000E+00 0.  1.
         11    1    4    4    0    0 -0.71735117789E+00  0.30885141768E+01 -0.23473478650E+01  0.39450671468E+01  0.51100000000E-03 0. -1.
        -11    1    4    4    0    0  0.80216224883E+01  0.45678733898E+01 -0.12556038034E+02  0.15584158175E+02  0.51100000000E-03 0.  1.
        -12    1    4    4    0    0  0.24910063109E+02  0.82812473847E+01  0.22903859551E+02  0.34837868544E+02  0.00000000000E+00 0.  1.
</event>
<event>
 8    1  0.2482403E-006  0.9118800E+02  0.7816164E-02  0.1184000E+00
        -11   -1    0    0    0    0  0.00000000000E+00  0.00000000000E+00  0.45593999997E+02  0.45594000000E+02  0.51100000000E-03 0.  1.
         11   -1    0    0    0    0 -0.00000000000E+00 -0.00000000000E+00 -0.45593999997E+02  0.45594000000E+02  0.51100000000E-03 0. -1.
         23    2    1    2    0    0  0.00000000000E+00  0.00000000000E+00  0.00000000000E+00  0.91188000000E+02  0.91188000000E+02 0.  0.
    9900012    2    3    3    0    0 -0.13611288495E+02 -0.17142408698E+02 -0.29608151589E+02  0.54367190789E+02  0.40000243040E+02 0.  0.
        -12    1    3    3    0    0  0.13611288495E+02  0.17142408698E+02  0.29608151589E+02  0.36820809211E+02  0.00000000000E+00 0.  1.
         11    1    4    4    0    0 -0.13765408828E+02  0.34721901170E+01 -0.13888690570E+02  0.19860471052E+02  0.51100000000E-03 0. -1.
        -11    1    4    4    0    0  0.56939066689E+01  0.11703951137E+01  0.17138732779E+01  0.60603432039E+01  0.51100000000E-03 0.  1.
         12    1    4    4    0    0 -0.55397863357E+01 -0.21784993929E+02 -0.17433334297E+02  0.28446376533E+02  0.00000000000E+00 0. -1.
</event>
<event>
 8    1  0.2482403E-006  0.9118800E+02  0.7816164E-02  0.1184000E+00
        -11   -1    0    0    0    0  0.00000000000E+00  0.00000000000E+00  0.45593999997E+02  0.45594000000E+02  0.51100000000E-03 0. -1.
         11   -1    0    0    0    0 -0.00000000000E+00 -0.00000000000E+00 -0.45593999997E+02  0.45594000000E+02  0.51100000000E-03 0.  1.
         23    2    1    2    0    0 -0.17763568394E-14  0.00000000000E+00  0.00000000000E+00  0.91188000000E+02  0.91188000000E+02 0.  0.
    9900012    2    3    3    0    0 -0.71940677004E+01  0.19310580915E+02 -0.30514372682E+02  0.54367080870E+02  0.39999992460E+02 0.  0.
         12    1    3    3    0    0  0.71940677004E+01 -0.19310580915E+02  0.30514372682E+02  0.36820919130E+02  0.00000000000E+00 0. -1.
         11    1    4    4    0    0  0.52323384006E+01 -0.31671280351E+01 -0.30203117604E+01  0.68213157470E+01  0.51100000000E-03 0. -1.
        -11    1    4    4    0    0 -0.20194564438E+02  0.16030585109E+02 -0.10625642577E+02  0.27887351473E+02  0.51100000000E-03 0.  1.
        -12    1    4    4    0    0  0.77681583365E+01  0.64471238409E+01 -0.16868418345E+02  0.19658413650E+02  0.00000000000E+00 0.  1.
</event>
<event>
 8    1  0.2482403E-006  0.9118800E+02  0.7816164E-02  0.1184000E+00
        -11   -1    0    0    0    0  0.00000000000E+00  0.00000000000E+00  0.45593999997E+02  0.45594000000E+02  0.51100000000E-03 0.  1.
         11   -1    0    0    0    0 -0.00000000000E+00 -0.00000000000E+00 -0.45593999997E+02  0.45594000000E+02  0.51100000000E-03 0. -1.
         23    2    1    2    0    0  0.00000000000E+00 -0.44408920985E-15  0.35527136788E-14  0.91188000000E+02  0.91188000000E+02 0.  0.
    9900012    2    3    3    0    0  0.19478893617E+02  0.20067371841E+01  0.31182115556E+02  0.54367100755E+02  0.40000037791E+02 0.  0.
         12    1    3    3    0    0 -0.19478893617E+02 -0.20067371841E+01 -0.31182115556E+02  0.36820899245E+02  0.00000000000E+00 0. -1.
         11    1    4    4    0    0 -0.48843651840E+01  0.31366989061E+01  0.36449864685E+01  0.68543292812E+01  0.51100000000E-03 0. -1.
        -11    1    4    4    0    0  0.21842701950E+01 -0.13877705928E+01  0.25061273826E+02  0.25194530945E+02  0.51100000000E-03 0.  1.
        -12    1    4    4    0    0  0.22178988606E+02  0.25780887083E+00  0.24758552614E+01  0.22318240528E+02  0.00000000000E+00 0.  1.
</event>
<event>
 8    1  0.2482403E-006  0.9118800E+02  0.7816164E-02  0.1184000E+00
        -11   -1    0    0    0    0  0.00000000000E+00  0.00000000000E+00  0.45593999997E+02  0.45594000000E+02  0.51100000000E-03 0.  1.
         11   -1    0    0    0    0 -0.00000000000E+00 -0.00000000000E+00 -0.45593999997E+02  0.45594000000E+02  0.51100000000E-03 0. -1.
         23    2    1    2    0    0  0.00000000000E+00  0.00000000000E+00 -0.22204460493E-15  0.91188000000E+02  0.91188000000E+02 0.  0.
    9900012    2    3    3    0    0 -0.34530670056E+02  0.12727295162E+02  0.11954889709E+01  0.54367076457E+02  0.39999982399E+02 0.  0.
         12    1    3    3    0    0  0.34530670056E+02 -0.12727295162E+02 -0.11954889709E+01  0.36820923543E+02  0.00000000000E+00 0. -1.
         11    1    4    4    0    0 -0.94132082074E+00  0.30462846045E+01 -0.13796468066E+02  0.14160101205E+02  0.51100000000E-03 0. -1.
        -11    1    4    4    0    0 -0.23061135746E+02  0.12222586927E+02  0.79326133229E+01  0.27278819026E+02  0.51100000000E-03 0.  1.
         12    1    4    4    0    0 -0.10528213490E+02 -0.25415763696E+01  0.70593437140E+01  0.12928156226E+02  0.00000000000E+00 0. -1.
</event>
<event>
 8    1  0.2482403E-006  0.9118800E+02  0.7816164E-02  0.1184000E+00
        -11   -1    0    0    0    0  0.00000000000E+00  0.00000000000E+00  0.45593999997E+02  0.45594000000E+02  0.51100000000E-03 0. -1.
         11   -1    0    0    0    0 -0.00000000000E+00 -0.00000000000E+00 -0.45593999997E+02  0.45594000000E+02  0.51100000000E-03 0.  1.
         23    2    1    2    0    0  0.66613381478E-15  0.00000000000E+00  0.00000000000E+00  0.91188000000E+02  0.91188000000E+02 0.  0.
    9900012    2    3    3    0    0  0.71700218795E+00 -0.22570192386E+02  0.29083624309E+02  0.54367015773E+02  0.39999844058E+02 0.  0.
         12    1    3    3    0    0 -0.71700218795E+00  0.22570192386E+02 -0.29083624309E+02  0.36820984227E+02  0.00000000000E+00 0. -1.
         11    1    4    4    0    0  0.77285821688E+01 -0.42556936323E+01  0.64100150234E+01  0.10905512528E+02  0.51100000000E-03 0. -1.
        -11    1    4    4    0    0 -0.62720940858E+01  0.48900770941E+01  0.18139692221E+02  0.19806575987E+02  0.51100000000E-03 0.  1.
        -12    1    4    4    0    0 -0.73948589500E+00 -0.23204575847E+02  0.45339170645E+01  0.23654927258E+02  0.00000000000E+00 0.  1.
</event>
<event>
 8    1  0.2482403E-006  0.9118800E+02  0.7816164E-02  0.1184000E+00
        -11   -1    0    0    0    0  0.00000000000E+00  0.00000000000E+00  0.45593999997E+02  0.45594000000E+02  0.51100000000E-03 0. -1.
         11   -1    0    0    0    0 -0.00000000000E+00 -0.00000000000E+00 -0.45593999997E+02  0.45594000000E+02  0.51100000000E-03 0.  1.
         23    2    1    2    0    0  0.00000000000E+00 -0.17763568394E-14  0.13322676296E-14  0.91188000000E+02  0.91188000000E+02 0.  0.
    9900012    2    3    3    0    0  0.34813541539E+02 -0.11696669806E+02  0.26415856325E+01  0.54367180703E+02  0.40000220049E+02 0.  0.
         12    1    3    3    0    0 -0.34813541539E+02  0.11696669806E+02 -0.26415856325E+01  0.36820819297E+02  0.00000000000E+00 0. -1.
         11    1    4    4    0    0  0.13154480902E+01  0.19411952994E+01 -0.31062075557E+01  0.38919363444E+01  0.51100000000E-03 0.  1.
        -11    1    4    4    0    0  0.20198980892E+02 -0.22483291885E+02 -0.57874328568E+01  0.30773228989E+02  0.51100000000E-03 0. -1.
         12    1    4    4    0    0  0.13299112557E+02  0.88454267803E+01  0.11535226045E+02  0.19702015370E+02  0.00000000000E+00 0. -1.
</event>
<event>
 8    1  0.2482403E-006  0.9118800E+02  0.7816164E-02  0.1184000E+00
        -11   -1    0    0    0    0  0.00000000000E+00  0.00000000000E+00  0.45593999997E+02  0.45594000000E+02  0.51100000000E-03 0. -1.
         11   -1    0    0    0    0 -0.00000000000E+00 -0.00000000000E+00 -0.45593999997E+02  0.45594000000E+02  0.51100000000E-03 0.  1.
         23    2    1    2    0    0  0.00000000000E+00  0.00000000000E+00  0.35527136788E-14  0.91188000000E+02  0.91188000000E+02 0.  0.
    9900012    2    3    3    0    0 -0.19950998251E+02  0.26038090661E+01  0.30837640251E+02  0.54367052034E+02  0.39999926722E+02 0.  0.
        -12    1    3    3    0    0  0.19950998251E+02 -0.26038090661E+01 -0.30837640251E+02  0.36820947966E+02  0.00000000000E+00 0.  1.
         11    1    4    4    0    0  0.98472696698E+00  0.14638461314E+02  0.31934990466E+01  0.15015081527E+02  0.51100000000E-03 0. -1.
        -11    1    4    4    0    0 -0.80243279667E+01  0.40622516698E+00  0.23944339546E+01  0.83838041740E+01  0.51100000000E-03 0.  1.
         12    1    4    4    0    0 -0.12911397251E+02 -0.12440877415E+02  0.25249707250E+02  0.30968166333E+02  0.00000000000E+00 0. -1.
</event>
<event>
 8    1  0.2482403E-006  0.9118800E+02  0.7816164E-02  0.1184000E+00
        -11   -1    0    0    0    0  0.00000000000E+00  0.00000000000E+00  0.45593999997E+02  0.45594000000E+02  0.51100000000E-03 0.  1.
         11   -1    0    0    0    0 -0.00000000000E+00 -0.00000000000E+00 -0.45593999997E+02  0.45594000000E+02  0.51100000000E-03 0. -1.
         23    2    1    2    0    0 -0.17763568394E-14  0.35527136788E-14 -0.35527136788E-14  0.91188000000E+02  0.91188000000E+02 0.  0.
    9900012    2    3    3    0    0  0.15909146058E+02 -0.23318302261E+02  0.23641785549E+02  0.54367106847E+02  0.40000051679E+02 0.  0.
         12    1    3    3    0    0 -0.15909146058E+02  0.23318302261E+02 -0.23641785549E+02  0.36820893153E+02  0.00000000000E+00 0. -1.
         11    1    4    4    0    0  0.11648397707E+02  0.36292669776E+01  0.59244730330E+01  0.13563042760E+02  0.51100000000E-03 0. -1.
        -11    1    4    4    0    0  0.16052534727E+00 -0.41055586466E+01  0.17102197043E+02  0.17588818157E+02  0.51100000000E-03 0.  1.
         12    1    4    4    0    0  0.41002230029E+01 -0.22842010592E+02  0.61511547349E+00  0.23215245930E+02  0.00000000000E+00 0. -1.
</event>
<event>
 8    1  0.2482403E-006  0.9118800E+02  0.7816164E-02  0.1184000E+00
        -11   -1    0    0    0    0  0.00000000000E+00  0.00000000000E+00  0.45593999997E+02  0.45594000000E+02  0.51100000000E-03 0.  1.
         11   -1    0    0    0    0 -0.00000000000E+00 -0.00000000000E+00 -0.45593999997E+02  0.45594000000E+02  0.51100000000E-03 0. -1.
         23    2    1    2    0    0 -0.13322676296E-14 -0.71054273576E-14  0.71054273576E-14  0.91188000000E+02  0.91188000000E+02 0.  0.
    9900012    2    3    3    0    0 -0.84682600665E+00  0.31546611323E+02 -0.18970341140E+02  0.54367086877E+02  0.40000006154E+02 0.  0.
        -12    1    3    3    0    0  0.84682600665E+00 -0.31546611323E+02  0.18970341140E+02  0.36820913123E+02  0.00000000000E+00 0.  1.
         11    1    4    4    0    0  0.15516591177E+00  0.28370310778E+01 -0.41207666791E+00  0.28709979516E+01  0.51100000000E-03 0. -1.
        -11    1    4    4    0    0  0.15341794341E+02  0.58177726703E+01  0.21771934493E+01  0.16551655627E+02  0.51100000000E-03 0.  1.
         12    1    4    4    0    0 -0.16343786259E+02  0.22891807575E+02 -0.20735457921E+02  0.34944433298E+02  0.00000000000E+00 0. -1.
</event>
<event>
 8    1  0.2482403E-006  0.9118800E+02  0.7816164E-02  0.1184000E+00
        -11   -1    0    0    0    0  0.00000000000E+00  0.00000000000E+00  0.45593999997E+02  0.45594000000E+02  0.51100000000E-03 0. -1.
         11   -1    0    0    0    0 -0.00000000000E+00 -0.00000000000E+00 -0.45593999997E+02  0.45594000000E+02  0.51100000000E-03 0.  1.
         23    2    1    2    0    0  0.00000000000E+00  0.00000000000E+00  0.00000000000E+00  0.91188000000E+02  0.91188000000E+02 0.  0.
    9900012    2    3    3    0    0 -0.17945043348E+02  0.13557581749E+02 -0.29153786744E+02  0.54367137908E+02  0.40000122488E+02 0.  0.
         12    1    3    3    0    0  0.17945043348E+02 -0.13557581749E+02  0.29153786744E+02  0.36820862092E+02  0.00000000000E+00 0. -1.
         11    1    4    4    0    0 -0.15791033114E+02  0.32063370587E+01 -0.26980887083E+02  0.31426192773E+02  0.51100000000E-03 0. -1.
        -11    1    4    4    0    0  0.17007660559E+00 -0.26687874266E+01 -0.80393331264E+01  0.84724394219E+01  0.51100000000E-03 0.  1.
         12    1    4    4    0    0 -0.23240868404E+01  0.13020032117E+02  0.58664334651E+01  0.14468505713E+02  0.00000000000E+00 0. -1.
</event>
<event>
 8    1  0.2482403E-006  0.9118800E+02  0.7816164E-02  0.1184000E+00
        -11   -1    0    0    0    0  0.00000000000E+00  0.00000000000E+00  0.45593999997E+02  0.45594000000E+02  0.51100000000E-03 0.  1.
         11   -1    0    0    0    0 -0.00000000000E+00 -0.00000000000E+00 -0.45593999997E+02  0.45594000000E+02  0.51100000000E-03 0. -1.
         23    2    1    2    0    0  0.00000000000E+00  0.35527136788E-14 -0.35527136788E-14  0.91188000000E+02  0.91188000000E+02 0.  0.
    9900012    2    3    3    0    0  0.15795522426E+02 -0.25042750257E+02  0.21889323968E+02  0.54367076969E+02  0.39999983565E+02 0.  0.
         12    1    3    3    0    0 -0.15795522426E+02  0.25042750257E+02 -0.21889323968E+02  0.36820923031E+02  0.00000000000E+00 0. -1.
         11    1    4    4    0    0  0.61799625305E+01  0.61125801894E+01  0.17407571855E+02  0.19457110053E+02  0.51100000000E-03 0.  1.
        -11    1    4    4    0    0  0.11890115370E+01 -0.15524467421E+02 -0.26128068068E+01  0.15787640634E+02  0.51100000000E-03 0. -1.
        -12    1    4    4    0    0  0.84265483581E+01 -0.15630863026E+02  0.70945589190E+01  0.19122326282E+02  0.00000000000E+00 0.  1.
</event>
<event>
 8    1  0.2482403E-006  0.9118800E+02  0.7816164E-02  0.1184000E+00
        -11   -1    0    0    0    0  0.00000000000E+00  0.00000000000E+00  0.45593999997E+02  0.45594000000E+02  0.51100000000E-03 0.  1.
         11   -1    0    0    0    0 -0.00000000000E+00 -0.00000000000E+00 -0.45593999997E+02  0.45594000000E+02  0.51100000000E-03 0. -1.
         23    2    1    2    0    0  0.00000000000E+00 -0.35527136788E-14  0.35527136788E-14  0.91188000000E+02  0.91188000000E+02 0.  0.
    9900012    2    3    3    0    0  0.23261353122E+02  0.19205717127E+02 -0.21114688307E+02  0.54367079565E+02  0.39999989483E+02 0.  0.
        -12    1    3    3    0    0 -0.23261353122E+02 -0.19205717127E+02  0.21114688307E+02  0.36820920435E+02  0.00000000000E+00 0.  1.
         11    1    4    4    0    0  0.17797261349E+02 -0.78672930473E+00  0.21455747709E+01  0.17943381674E+02  0.51100000000E-03 0.  1.
        -11    1    4    4    0    0  0.12000447635E+02  0.16442727329E+02 -0.19034431064E+02  0.27869043609E+02  0.51100000000E-03 0. -1.
        -12    1    4    4    0    0 -0.65363558631E+01  0.35497191024E+01 -0.42258320142E+01  0.85546542821E+01  0.00000000000E+00 0.  1.
</event>
<event>
 8    1  0.2482403E-006  0.9118800E+02  0.7816164E-02  0.1184000E+00
        -11   -1    0    0    0    0  0.00000000000E+00  0.00000000000E+00  0.45593999997E+02  0.45594000000E+02  0.51100000000E-03 0. -1.
         11   -1    0    0    0    0 -0.00000000000E+00 -0.00000000000E+00 -0.45593999997E+02  0.45594000000E+02  0.51100000000E-03 0.  1.
         23    2    1    2    0    0 -0.17763568394E-14  0.00000000000E+00 -0.17763568394E-14  0.91188000000E+02  0.91188000000E+02 0.  0.
    9900012    2    3    3    0    0 -0.10595535737E+02 -0.34701987974E+02 -0.62679566640E+01  0.54367073509E+02  0.39999975678E+02 0.  0.
         12    1    3    3    0    0  0.10595535737E+02  0.34701987974E+02  0.62679566640E+01  0.36820926491E+02  0.00000000000E+00 0. -1.
         11    1    4    4    0    0 -0.58127341029E+01 -0.14361429849E+02 -0.22816166698E+02  0.27579267723E+02  0.51100000000E-03 0. -1.
        -11    1    4    4    0    0 -0.38398342174E+01 -0.15669346168E+02  0.11287487167E+02  0.19689593774E+02  0.51100000000E-03 0.  1.
         12    1    4    4    0    0 -0.94296741702E+00 -0.46712119567E+01  0.52607228668E+01  0.70982120126E+01  0.00000000000E+00 0. -1.
</event>
<event>
 8    1  0.2482403E-006  0.9118800E+02  0.7816164E-02  0.1184000E+00
        -11   -1    0    0    0    0  0.00000000000E+00  0.00000000000E+00  0.45593999997E+02  0.45594000000E+02  0.51100000000E-03 0.  1.
         11   -1    0    0    0    0 -0.00000000000E+00 -0.00000000000E+00 -0.45593999997E+02  0.45594000000E+02  0.51100000000E-03 0. -1.
         23    2    1    2    0    0 -0.88817841970E-15  0.00000000000E+00 -0.44408920985E-15  0.91188000000E+02  0.91188000000E+02 0.  0.
    9900012    2    3    3    0    0  0.46484559167E+01 -0.36446063525E+02 -0.24208057318E+01  0.54367027861E+02  0.39999871615E+02 0.  0.
        -12    1    3    3    0    0 -0.46484559167E+01  0.36446063525E+02  0.24208057318E+01  0.36820972139E+02  0.00000000000E+00 0.  1.
         11    1    4    4    0    0  0.12269143161E+02 -0.70427114793E+01  0.77995595304E+01  0.16154404601E+02  0.51100000000E-03 0. -1.
        -11    1    4    4    0    0  0.53822842352E+01 -0.67718859662E+01  0.27362221846E+01  0.90727247965E+01  0.51100000000E-03 0.  1.
        -12    1    4    4    0    0 -0.13002971480E+02 -0.22631466079E+02 -0.12956587447E+02  0.29139898463E+02  0.00000000000E+00 0.  1.
</event>
<event>
 8    1  0.2482403E-006  0.9118800E+02  0.7816164E-02  0.1184000E+00
        -11   -1    0    0    0    0  0.00000000000E+00  0.00000000000E+00  0.45593999997E+02  0.45594000000E+02  0.51100000000E-03 0.  1.
         11   -1    0    0    0    0 -0.00000000000E+00 -0.00000000000E+00 -0.45593999997E+02  0.45594000000E+02  0.51100000000E-03 0. -1.
         23    2    1    2    0    0  0.71054273576E-14  0.22204460493E-15 -0.88817841970E-15  0.91188000000E+02  0.91188000000E+02 0.  0.
    9900012    2    3    3    0    0  0.36053120278E+02  0.11859371903E+01 -0.73854210799E+01  0.54367104121E+02  0.40000045464E+02 0.  0.
        -12    1    3    3    0    0 -0.36053120278E+02 -0.11859371903E+01  0.73854210799E+01  0.36820895879E+02  0.00000000000E+00 0.  1.
         11    1    4    4    0    0  0.18124551807E+02 -0.99622341634E+01 -0.17260266066E+02  0.26938119323E+02  0.51100000000E-03 0. -1.
        -11    1    4    4    0    0  0.76662305382E+01  0.13054959543E+02  0.62627674980E+01  0.16383690559E+02  0.51100000000E-03 0.  1.
        -12    1    4    4    0    0  0.10262337933E+02 -0.19067881893E+01  0.36120774877E+01  0.11045294239E+02  0.00000000000E+00 0.  1.
</event>
<event>
 8    1  0.2482403E-006  0.9118800E+02  0.7816164E-02  0.1184000E+00
        -11   -1    0    0    0    0  0.00000000000E+00  0.00000000000E+00  0.45593999997E+02  0.45594000000E+02  0.51100000000E-03 0. -1.
         11   -1    0    0    0    0 -0.00000000000E+00 -0.00000000000E+00 -0.45593999997E+02  0.45594000000E+02  0.51100000000E-03 0.  1.
         23    2    1    2    0    0 -0.71054273576E-14  0.88817841970E-15  0.17763568394E-14  0.91188000000E+02  0.91188000000E+02 0.  0.
    9900012    2    3    3    0    0 -0.32906053445E+02  0.48878201472E+01  0.15782261325E+02  0.54367096811E+02  0.40000028800E+02 0.  0.
        -12    1    3    3    0    0  0.32906053445E+02 -0.48878201472E+01 -0.15782261325E+02  0.36820903189E+02  0.00000000000E+00 0.  1.
         11    1    4    4    0    0 -0.18505047588E+02  0.89955420872E+01 -0.25062324036E+01  0.20727705247E+02  0.51100000000E-03 0. -1.
        -11    1    4    4    0    0 -0.16147082609E+02 -0.47709988048E+01  0.16739522852E+01  0.16920189801E+02  0.51100000000E-03 0.  1.
         12    1    4    4    0    0  0.17460767521E+01  0.66327686485E+00  0.16614541444E+02  0.16719201764E+02  0.00000000000E+00 0. -1.
</event>
<event>
 8    1  0.2482403E-006  0.9118800E+02  0.7816164E-02  0.1184000E+00
        -11   -1    0    0    0    0  0.00000000000E+00  0.00000000000E+00  0.45593999997E+02  0.45594000000E+02  0.51100000000E-03 0. -1.
         11   -1    0    0    0    0 -0.00000000000E+00 -0.00000000000E+00 -0.45593999997E+02  0.45594000000E+02  0.51100000000E-03 0.  1.
         23    2    1    2    0    0  0.00000000000E+00  0.17763568394E-14  0.35527136788E-14  0.91188000000E+02  0.91188000000E+02 0.  0.
    9900012    2    3    3    0    0 -0.34910503169E+02  0.39410681220E+01  0.11022919466E+02  0.54367081991E+02  0.39999995015E+02 0.  0.
        -12    1    3    3    0    0  0.34910503169E+02 -0.39410681220E+01 -0.11022919466E+02  0.36820918009E+02  0.00000000000E+00 0.  1.
         11    1    4    4    0    0 -0.29496802505E+02 -0.86592139968E+01  0.69354074303E+01  0.31514174930E+02  0.51100000000E-03 0. -1.
        -11    1    4    4    0    0 -0.98711782427E+01  0.12195935084E+02 -0.14220483553E+01  0.15754466486E+02  0.51100000000E-03 0.  1.
        -12    1    4    4    0    0  0.44574775786E+01  0.40434703457E+00  0.55095603914E+01  0.70984405748E+01  0.00000000000E+00 0.  1.
</event>
<event>
 8    1  0.2482403E-006  0.9118800E+02  0.7816164E-02  0.1184000E+00
        -11   -1    0    0    0    0  0.00000000000E+00  0.00000000000E+00  0.45593999997E+02  0.45594000000E+02  0.51100000000E-03 0.  1.
         11   -1    0    0    0    0 -0.00000000000E+00 -0.00000000000E+00 -0.45593999997E+02  0.45594000000E+02  0.51100000000E-03 0. -1.
         23    2    1    2    0    0 -0.44408920985E-15  0.00000000000E+00 -0.35527136788E-14  0.91188000000E+02  0.91188000000E+02 0.  0.
    9900012    2    3    3    0    0 -0.23533371768E+01  0.27506464281E+02 -0.24364640337E+02  0.54367089204E+02  0.40000011458E+02 0.  0.
        -12    1    3    3    0    0  0.23533371768E+01 -0.27506464281E+02  0.24364640337E+02  0.36820910796E+02  0.00000000000E+00 0.  1.
         11    1    4    4    0    0  0.87216185983E+01  0.15505627771E+02 -0.14919871062E+02  0.23218390907E+02  0.51100000000E-03 0. -1.
        -11    1    4    4    0    0 -0.99139994686E+01 -0.38247791295E+01 -0.10889351989E+02  0.15214936998E+02  0.51100000000E-03 0.  1.
        -12    1    4    4    0    0 -0.11609563065E+01  0.15825615639E+02  0.14445827140E+01  0.15933761299E+02  0.00000000000E+00 0.  1.
</event>
<event>
 8    1  0.2482403E-006  0.9118800E+02  0.7816164E-02  0.1184000E+00
        -11   -1    0    0    0    0  0.00000000000E+00  0.00000000000E+00  0.45593999997E+02  0.45594000000E+02  0.51100000000E-03 0. -1.
         11   -1    0    0    0    0 -0.00000000000E+00 -0.00000000000E+00 -0.45593999997E+02  0.45594000000E+02  0.51100000000E-03 0.  1.
         23    2    1    2    0    0 -0.35527136788E-14 -0.35527136788E-14  0.00000000000E+00  0.91188000000E+02  0.91188000000E+02 0.  0.
    9900012    2    3    3    0    0  0.20599713000E+02  0.26152099580E+02  0.15732225535E+02  0.54367035748E+02  0.39999889595E+02 0.  0.
        -12    1    3    3    0    0 -0.20599713000E+02 -0.26152099580E+02 -0.15732225535E+02  0.36820964252E+02  0.00000000000E+00 0.  1.
         11    1    4    4    0    0 -0.93067998571E+01  0.14316662068E+02  0.54078314539E+01  0.17911671548E+02  0.51100000000E-03 0. -1.
        -11    1    4    4    0    0  0.24910303561E+02  0.10787445310E+02  0.26999272727E+01  0.27279695881E+02  0.51100000000E-03 0.  1.
        -12    1    4    4    0    0  0.49962092963E+01  0.10479922019E+01  0.76244668081E+01  0.91756683187E+01  0.00000000000E+00 0.  1.
</event>
<event>
 8    1  0.2482403E-006  0.9118800E+02  0.7816164E-02  0.1184000E+00
        -11   -1    0    0    0    0  0.00000000000E+00  0.00000000000E+00  0.45593999997E+02  0.45594000000E+02  0.51100000000E-03 0.  1.
         11   -1    0    0    0    0 -0.00000000000E+00 -0.00000000000E+00 -0.45593999997E+02  0.45594000000E+02  0.51100000000E-03 0. -1.
         23    2    1    2    0    0  0.49960036108E-15 -0.71054273576E-14  0.35527136788E-14  0.91188000000E+02  0.91188000000E+02 0.  0.
    9900012    2    3    3    0    0 -0.44000957219E+00  0.33523349544E+02  0.15223982189E+02  0.54367106383E+02  0.40000050622E+02 0.  0.
         12    1    3    3    0    0  0.44000957219E+00 -0.33523349544E+02 -0.15223982189E+02  0.36820893617E+02  0.00000000000E+00 0. -1.
         11    1    4    4    0    0  0.33170413902E+01  0.33084482419E+02 -0.34219790160E+01  0.33425973153E+02  0.51100000000E-03 0. -1.
        -11    1    4    4    0    0 -0.65760834303E+01  0.82828166290E-01  0.14417814960E+02  0.15846927849E+02  0.51100000000E-03 0.  1.
         12    1    4    4    0    0  0.28190324679E+01  0.35603895780E+00  0.42281462454E+01  0.50942053813E+01  0.00000000000E+00 0. -1.
</event>
<event>
 8    1  0.2482403E-006  0.9118800E+02  0.7816164E-02  0.1184000E+00
        -11   -1    0    0    0    0  0.00000000000E+00  0.00000000000E+00  0.45593999997E+02  0.45594000000E+02  0.51100000000E-03 0.  1.
         11   -1    0    0    0    0 -0.00000000000E+00 -0.00000000000E+00 -0.45593999997E+02  0.45594000000E+02  0.51100000000E-03 0. -1.
         23    2    1    2    0    0 -0.17763568394E-14 -0.88817841970E-15 -0.71054273576E-14  0.91188000000E+02  0.91188000000E+02 0.  0.
    9900012    2    3    3    0    0 -0.94617804316E+01  0.74086574544E+01 -0.34804678698E+02  0.54367093527E+02  0.40000021314E+02 0.  0.
        -12    1    3    3    0    0  0.94617804316E+01 -0.74086574544E+01  0.34804678698E+02  0.36820906473E+02  0.00000000000E+00 0.  1.
         11    1    4    4    0    0 -0.84708244440E+01  0.51500312337E+01 -0.21767031325E+02  0.23918221954E+02  0.51100000000E-03 0. -1.
        -11    1    4    4    0    0 -0.56932787733E+01  0.12251380445E+02 -0.19539252509E+00  0.13511029735E+02  0.51100000000E-03 0.  1.
        -12    1    4    4    0    0  0.47023227857E+01 -0.99927542244E+01 -0.12842254848E+02  0.16937841839E+02  0.00000000000E+00 0.  1.
</event>
<event>
 8    1  0.2482403E-006  0.9118800E+02  0.7816164E-02  0.1184000E+00
        -11   -1    0    0    0    0  0.00000000000E+00  0.00000000000E+00  0.45593999997E+02  0.45594000000E+02  0.51100000000E-03 0. -1.
         11   -1    0    0    0    0 -0.00000000000E+00 -0.00000000000E+00 -0.45593999997E+02  0.45594000000E+02  0.51100000000E-03 0.  1.
         23    2    1    2    0    0  0.88817841970E-15  0.00000000000E+00  0.00000000000E+00  0.91188000000E+02  0.91188000000E+02 0.  0.
    9900012    2    3    3    0    0 -0.39364701850E+01  0.20226847376E+02  0.30514904244E+02  0.54367074790E+02  0.39999978598E+02 0.  0.
        -12    1    3    3    0    0  0.39364701850E+01 -0.20226847376E+02 -0.30514904244E+02  0.36820925210E+02  0.00000000000E+00 0.  1.
         11    1    4    4    0    0 -0.62845043741E+01  0.18394972551E+01 -0.27397962427E+01  0.70982553555E+01  0.51100000000E-03 0. -1.
        -11    1    4    4    0    0 -0.30667535398E+01  0.14495055562E+01 -0.44416610150E+01  0.55887741469E+01  0.51100000000E-03 0.  1.
         12    1    4    4    0    0  0.54147877289E+01  0.16937844565E+02  0.37696361502E+02  0.41680045287E+02  0.00000000000E+00 0. -1.
</event>
<event>
 8    1  0.2482403E-006  0.9118800E+02  0.7816164E-02  0.1184000E+00
        -11   -1    0    0    0    0  0.00000000000E+00  0.00000000000E+00  0.45593999997E+02  0.45594000000E+02  0.51100000000E-03 0.  1.
         11   -1    0    0    0    0 -0.00000000000E+00 -0.00000000000E+00 -0.45593999997E+02  0.45594000000E+02  0.51100000000E-03 0. -1.
         23    2    1    2    0    0 -0.71054273576E-14 -0.88817841970E-15  0.17763568394E-14  0.91188000000E+02  0.91188000000E+02 0.  0.
    9900012    2    3    3    0    0 -0.35068021822E+02  0.50745568805E+01  0.10013157079E+02  0.54367073929E+02  0.39999976635E+02 0.  0.
        -12    1    3    3    0    0  0.35068021822E+02 -0.50745568805E+01 -0.10013157079E+02  0.36820926071E+02  0.00000000000E+00 0.  1.
         11    1    4    4    0    0  0.43909143881E+00 -0.17673125067E+01 -0.31350571912E+01  0.36255728708E+01  0.51100000000E-03 0. -1.
        -11    1    4    4    0    0  0.26738979993E+01  0.64759698563E+01 -0.48582856430E+01  0.85258932518E+01  0.51100000000E-03 0.  1.
         12    1    4    4    0    0 -0.38181011260E+02  0.36589953094E+00  0.18006499913E+02  0.42215607806E+02  0.00000000000E+00 0. -1.
</event>
<event>
 8    1  0.2482403E-006  0.9118800E+02  0.7816164E-02  0.1184000E+00
        -11   -1    0    0    0    0  0.00000000000E+00  0.00000000000E+00  0.45593999997E+02  0.45594000000E+02  0.51100000000E-03 0.  1.
         11   -1    0    0    0    0 -0.00000000000E+00 -0.00000000000E+00 -0.45593999997E+02  0.45594000000E+02  0.51100000000E-03 0. -1.
         23    2    1    2    0    0 -0.17763568394E-14 -0.71054273576E-14  0.44408920985E-15  0.91188000000E+02  0.91188000000E+02 0.  0.
    9900012    2    3    3    0    0  0.87708792442E+01  0.35563369971E+02 -0.37553231371E+01  0.54367026923E+02  0.39999869477E+02 0.  0.
         12    1    3    3    0    0 -0.87708792442E+01 -0.35563369971E+02  0.37553231371E+01  0.36820973077E+02  0.00000000000E+00 0. -1.
         11    1    4    4    0    0  0.86619132946E+00  0.66014004930E+00  0.77370620635E+01  0.78133348795E+01  0.51100000000E-03 0. -1.
        -11    1    4    4    0    0 -0.45008166954E+01 -0.97167634089E+00 -0.69313926827E+01  0.83214007606E+01  0.51100000000E-03 0.  1.
        -12    1    4    4    0    0  0.12405504610E+02  0.35874906263E+02 -0.45609925179E+01  0.38232291283E+02  0.00000000000E+00 0.  1.
</event>
<event>
 8    1  0.2482403E-006  0.9118800E+02  0.7816164E-02  0.1184000E+00
        -11   -1    0    0    0    0  0.00000000000E+00  0.00000000000E+00  0.45593999997E+02  0.45594000000E+02  0.51100000000E-03 0. -1.
         11   -1    0    0    0    0 -0.00000000000E+00 -0.00000000000E+00 -0.45593999997E+02  0.45594000000E+02  0.51100000000E-03 0.  1.
         23    2    1    2    0    0  0.00000000000E+00 -0.35527136788E-14  0.00000000000E+00  0.91188000000E+02  0.91188000000E+02 0.  0.
    9900012    2    3    3    0    0  0.32903746705E+02 -0.15741792496E+02  0.50317822998E+01  0.54367090025E+02  0.40000013331E+02 0.  0.
         12    1    3    3    0    0 -0.32903746705E+02  0.15741792496E+02 -0.50317822998E+01  0.36820909975E+02  0.00000000000E+00 0. -1.
         11    1    4    4    0    0  0.31481349338E+01  0.49620266902E+01 -0.81785590181E+01  0.10070813786E+02  0.51100000000E-03 0. -1.
        -11    1    4    4    0    0  0.15029804160E+02 -0.66788755301E+01 -0.47984082268E+01  0.17132632991E+02  0.51100000000E-03 0.  1.
         12    1    4    4    0    0  0.14725807612E+02 -0.14024943656E+02  0.18008749545E+02  0.27163643249E+02  0.00000000000E+00 0. -1.
</event>
<event>
 8    1  0.2482403E-006  0.9118800E+02  0.7816164E-02  0.1184000E+00
        -11   -1    0    0    0    0  0.00000000000E+00  0.00000000000E+00  0.45593999997E+02  0.45594000000E+02  0.51100000000E-03 0.  1.
         11   -1    0    0    0    0 -0.00000000000E+00 -0.00000000000E+00 -0.45593999997E+02  0.45594000000E+02  0.51100000000E-03 0. -1.
         23    2    1    2    0    0  0.00000000000E+00  0.88817841970E-15  0.00000000000E+00  0.91188000000E+02  0.91188000000E+02 0.  0.
    9900012    2    3    3    0    0  0.28960452463E+02 -0.64909934961E+01 -0.21793083662E+02  0.54367091553E+02  0.40000016812E+02 0.  0.
        -12    1    3    3    0    0 -0.28960452463E+02  0.64909934961E+01  0.21793083662E+02  0.36820908447E+02  0.00000000000E+00 0.  1.
         11    1    4    4    0    0  0.17875450858E+02 -0.83467105905E+01 -0.45644320985E+01  0.20249280523E+02  0.51100000000E-03 0.  1.
        -11    1    4    4    0    0  0.10561541819E+02 -0.11167195073E+02 -0.47853189452E+01  0.16098189000E+02  0.51100000000E-03 0. -1.
         12    1    4    4    0    0  0.52345978618E+00  0.13022912168E+02 -0.12443332618E+02  0.18019622030E+02  0.00000000000E+00 0. -1.
</event>
<event>
 8    1  0.2482403E-006  0.9118800E+02  0.7816164E-02  0.1184000E+00
        -11   -1    0    0    0    0  0.00000000000E+00  0.00000000000E+00  0.45593999997E+02  0.45594000000E+02  0.51100000000E-03 0. -1.
         11   -1    0    0    0    0 -0.00000000000E+00 -0.00000000000E+00 -0.45593999997E+02  0.45594000000E+02  0.51100000000E-03 0.  1.
         23    2    1    2    0    0  0.35527136788E-14  0.00000000000E+00  0.88817841970E-15  0.91188000000E+02  0.91188000000E+02 0.  0.
    9900012    2    3    3    0    0  0.93293463932E+01 -0.35074491489E+02  0.62066471562E+01  0.54367093897E+02  0.40000022157E+02 0.  0.
         12    1    3    3    0    0 -0.93293463932E+01  0.35074491489E+02 -0.62066471562E+01  0.36820906103E+02  0.00000000000E+00 0. -1.
         11    1    4    4    0    0 -0.30032656258E+01 -0.49893026415E+01  0.67441726522E+01  0.89104775569E+01  0.51100000000E-03 0. -1.
        -11    1    4    4    0    0 -0.28440757068E+01 -0.30136200032E+02  0.61873301533E-02  0.30270106665E+02  0.51100000000E-03 0.  1.
        -12    1    4    4    0    0  0.15176687726E+02  0.51011184198E-01 -0.54371282620E+00  0.15186509675E+02  0.00000000000E+00 0.  1.
</event>
<event>
 8    1  0.2482403E-006  0.9118800E+02  0.7816164E-02  0.1184000E+00
        -11   -1    0    0    0    0  0.00000000000E+00  0.00000000000E+00  0.45593999997E+02  0.45594000000E+02  0.51100000000E-03 0. -1.
         11   -1    0    0    0    0 -0.00000000000E+00 -0.00000000000E+00 -0.45593999997E+02  0.45594000000E+02  0.51100000000E-03 0.  1.
         23    2    1    2    0    0  0.00000000000E+00 -0.17763568394E-14  0.35527136788E-14  0.91188000000E+02  0.91188000000E+02 0.  0.
    9900012    2    3    3    0    0  0.26087517950E+02 -0.52191471984E+01  0.25455482628E+02  0.54367086295E+02  0.40000004827E+02 0.  0.
        -12    1    3    3    0    0 -0.26087517950E+02  0.52191471984E+01 -0.25455482628E+02  0.36820913705E+02  0.00000000000E+00 0.  1.
         11    1    4    4    0    0 -0.54467996388E+01  0.73352943153E+00  0.89105999286E+00  0.55677356173E+01  0.51100000000E-03 0. -1.
        -11    1    4    4    0    0  0.21505800672E+02  0.87530335947E+01  0.82113949670E+01  0.24628074777E+02  0.51100000000E-03 0.  1.
         12    1    4    4    0    0  0.10028516916E+02 -0.14705710225E+02  0.16353027668E+02  0.24171275901E+02  0.00000000000E+00 0. -1.
</event>
<event>
 8    1  0.2482403E-006  0.9118800E+02  0.7816164E-02  0.1184000E+00
        -11   -1    0    0    0    0  0.00000000000E+00  0.00000000000E+00  0.45593999997E+02  0.45594000000E+02  0.51100000000E-03 0. -1.
         11   -1    0    0    0    0 -0.00000000000E+00 -0.00000000000E+00 -0.45593999997E+02  0.45594000000E+02  0.51100000000E-03 0.  1.
         23    2    1    2    0    0  0.35527136788E-14 -0.88817841970E-15 -0.35527136788E-14  0.91188000000E+02  0.91188000000E+02 0.  0.
    9900012    2    3    3    0    0 -0.22160252031E+02  0.79859616797E+01  0.28300465495E+02  0.54367235461E+02  0.40000344879E+02 0.  0.
        -12    1    3    3    0    0  0.22160252031E+02 -0.79859616797E+01 -0.28300465495E+02  0.36820764539E+02  0.00000000000E+00 0.  1.
         11    1    4    4    0    0 -0.16189933247E+02  0.89455472793E+01  0.14011831170E+02  0.23204916886E+02  0.51100000000E-03 0. -1.
        -11    1    4    4    0    0 -0.38284380946E+01 -0.13906895447E+02  0.58826965156E+01  0.15577701942E+02  0.51100000000E-03 0.  1.
        -12    1    4    4    0    0 -0.21418806889E+01  0.12947309848E+02  0.84059378087E+01  0.15584616634E+02  0.00000000000E+00 0.  1.
</event>
<event>
 8    1  0.2482403E-006  0.9118800E+02  0.7816164E-02  0.1184000E+00
        -11   -1    0    0    0    0  0.00000000000E+00  0.00000000000E+00  0.45593999997E+02  0.45594000000E+02  0.51100000000E-03 0.  1.
         11   -1    0    0    0    0 -0.00000000000E+00 -0.00000000000E+00 -0.45593999997E+02  0.45594000000E+02  0.51100000000E-03 0. -1.
         23    2    1    2    0    0  0.00000000000E+00  0.00000000000E+00  0.22204460493E-15  0.91188000000E+02  0.91188000000E+02 0.  0.
    9900012    2    3    3    0    0  0.34600574056E+02 -0.12446995057E+02  0.19107497779E+01  0.54367104089E+02  0.40000045392E+02 0.  0.
         12    1    3    3    0    0 -0.34600574056E+02  0.12446995057E+02 -0.19107497779E+01  0.36820895911E+02  0.00000000000E+00 0. -1.
         11    1    4    4    0    0  0.37969848397E+01  0.24904412899E+01 -0.42090056930E+01  0.61915362291E+01  0.51100000000E-03 0. -1.
        -11    1    4    4    0    0  0.27123943377E+02  0.49175141547E+01  0.43188877983E+01  0.27902384161E+02  0.51100000000E-03 0.  1.
        -12    1    4    4    0    0  0.36796458391E+01 -0.19854950502E+02  0.18008676727E+01  0.20273183699E+02  0.00000000000E+00 0.  1.
</event>
<event>
 8    1  0.2482403E-006  0.9118800E+02  0.7816164E-02  0.1184000E+00
        -11   -1    0    0    0    0  0.00000000000E+00  0.00000000000E+00  0.45593999997E+02  0.45594000000E+02  0.51100000000E-03 0. -1.
         11   -1    0    0    0    0 -0.00000000000E+00 -0.00000000000E+00 -0.45593999997E+02  0.45594000000E+02  0.51100000000E-03 0.  1.
         23    2    1    2    0    0 -0.11102230246E-15  0.00000000000E+00  0.35527136788E-14  0.91188000000E+02  0.91188000000E+02 0.  0.
    9900012    2    3    3    0    0  0.47611667687E+00  0.27931608351E+02  0.23987064651E+02  0.54367072490E+02  0.39999973354E+02 0.  0.
        -12    1    3    3    0    0 -0.47611667687E+00 -0.27931608351E+02 -0.23987064651E+02  0.36820927510E+02  0.00000000000E+00 0.  1.
         11    1    4    4    0    0  0.48280586269E+01 -0.39631889516E+01  0.42466274533E+01  0.75532020865E+01  0.51100000000E-03 0. -1.
        -11    1    4    4    0    0 -0.54391571724E+00 -0.45176126443E+01 -0.11075401437E+01  0.46830880563E+01  0.51100000000E-03 0.  1.
         12    1    4    4    0    0 -0.38080262328E+01  0.36412409947E+02  0.20847977342E+02  0.42130782347E+02  0.00000000000E+00 0. -1.
</event>
<event>
 8    1  0.2482403E-006  0.9118800E+02  0.7816164E-02  0.1184000E+00
        -11   -1    0    0    0    0  0.00000000000E+00  0.00000000000E+00  0.45593999997E+02  0.45594000000E+02  0.51100000000E-03 0.  1.
         11   -1    0    0    0    0 -0.00000000000E+00 -0.00000000000E+00 -0.45593999997E+02  0.45594000000E+02  0.51100000000E-03 0. -1.
         23    2    1    2    0    0  0.00000000000E+00 -0.88817841970E-15 -0.13322676296E-14  0.91188000000E+02  0.91188000000E+02 0.  0.
    9900012    2    3    3    0    0  0.36585735036E+02  0.22511474940E+01  0.34922706970E+01  0.54367087087E+02  0.40000006632E+02 0.  0.
         12    1    3    3    0    0 -0.36585735036E+02 -0.22511474940E+01 -0.34922706970E+01  0.36820912913E+02  0.00000000000E+00 0. -1.
         11    1    4    4    0    0  0.17254636621E+02 -0.10679768439E+02 -0.12869289019E+02  0.24029118564E+02  0.51100000000E-03 0. -1.
        -11    1    4    4    0    0  0.16175224467E+02  0.50227523801E+01  0.96266397768E+01  0.19481738159E+02  0.51100000000E-03 0.  1.
         12    1    4    4    0    0  0.31558739474E+01  0.79081635527E+01  0.67349199389E+01  0.10856230365E+02  0.00000000000E+00 0. -1.
</event>
<event>
 8    1  0.2482403E-006  0.9118800E+02  0.7816164E-02  0.1184000E+00
        -11   -1    0    0    0    0  0.00000000000E+00  0.00000000000E+00  0.45593999997E+02  0.45594000000E+02  0.51100000000E-03 0.  1.
         11   -1    0    0    0    0 -0.00000000000E+00 -0.00000000000E+00 -0.45593999997E+02  0.45594000000E+02  0.51100000000E-03 0. -1.
         23    2    1    2    0    0 -0.17763568394E-14  0.00000000000E+00  0.00000000000E+00  0.91188000000E+02  0.91188000000E+02 0.  0.
    9900012    2    3    3    0    0 -0.87931526575E+01 -0.31569869807E+02  0.16786978489E+02  0.54367097511E+02  0.40000030397E+02 0.  0.
        -12    1    3    3    0    0  0.87931526575E+01  0.31569869807E+02 -0.16786978489E+02  0.36820902489E+02  0.00000000000E+00 0.  1.
         11    1    4    4    0    0  0.68760381926E+01 -0.15969439644E+02  0.34488324175E+01  0.17725612798E+02  0.51100000000E-03 0. -1.
        -11    1    4    4    0    0  0.25360629630E+01 -0.15534978465E+02  0.80725189294E+01  0.17689904844E+02  0.51100000000E-03 0.  1.
        -12    1    4    4    0    0 -0.18205253813E+02 -0.65451697208E-01  0.52656271425E+01  0.18951579869E+02  0.00000000000E+00 0.  1.
</event>
<event>
 8    1  0.2482403E-006  0.9118800E+02  0.7816164E-02  0.1184000E+00
        -11   -1    0    0    0    0  0.00000000000E+00  0.00000000000E+00  0.45593999997E+02  0.45594000000E+02  0.51100000000E-03 0.  1.
         11   -1    0    0    0    0 -0.00000000000E+00 -0.00000000000E+00 -0.45593999997E+02  0.45594000000E+02  0.51100000000E-03 0. -1.
         23    2    1    2    0    0  0.00000000000E+00  0.17763568394E-14 -0.88817841970E-15  0.91188000000E+02  0.91188000000E+02 0.  0.
    9900012    2    3    3    0    0 -0.33297800404E+02 -0.15140701876E+02  0.42182187543E+01  0.54367112796E+02  0.40000065241E+02 0.  0.
         12    1    3    3    0    0  0.33297800404E+02  0.15140701876E+02 -0.42182187543E+01  0.36820887204E+02  0.00000000000E+00 0. -1.
         11    1    4    4    0    0  0.79318033213E-01  0.36493782769E+01 -0.64107001334E+01  0.73770813754E+01  0.51100000000E-03 0. -1.
        -11    1    4    4    0    0 -0.40698068058E+01  0.58721953616E+01 -0.32230012050E+00  0.71519146688E+01  0.51100000000E-03 0.  1.
        -12    1    4    4    0    0 -0.29307311631E+02 -0.24662275514E+02  0.10951219008E+02  0.39838116752E+02  0.00000000000E+00 0.  1.
</event>
<event>
 8    1  0.2482403E-006  0.9118800E+02  0.7816164E-02  0.1184000E+00
        -11   -1    0    0    0    0  0.00000000000E+00  0.00000000000E+00  0.45593999997E+02  0.45594000000E+02  0.51100000000E-03 0. -1.
         11   -1    0    0    0    0 -0.00000000000E+00 -0.00000000000E+00 -0.45593999997E+02  0.45594000000E+02  0.51100000000E-03 0.  1.
         23    2    1    2    0    0  0.00000000000E+00  0.00000000000E+00  0.00000000000E+00  0.91188000000E+02  0.91188000000E+02 0.  0.
    9900012    2    3    3    0    0  0.82161140365E+01  0.32775779595E+02 -0.14629544395E+02  0.54367084379E+02  0.40000000459E+02 0.  0.
         12    1    3    3    0    0 -0.82161140365E+01 -0.32775779595E+02  0.14629544395E+02  0.36820915621E+02  0.00000000000E+00 0. -1.
         11    1    4    4    0    0  0.10496960230E+01  0.49384138747E+01  0.74045716939E+01  0.89620017613E+01  0.51100000000E-03 0. -1.
        -11    1    4    4    0    0  0.13517367007E+02  0.80601306239E+01 -0.88751671083E+00  0.15763013755E+02  0.51100000000E-03 0.  1.
         12    1    4    4    0    0 -0.63509489936E+01  0.19777235097E+02 -0.21146599378E+02  0.29642068863E+02  0.00000000000E+00 0. -1.
</event>
<event>
 8    1  0.2482403E-006  0.9118800E+02  0.7816164E-02  0.1184000E+00
        -11   -1    0    0    0    0  0.00000000000E+00  0.00000000000E+00  0.45593999997E+02  0.45594000000E+02  0.51100000000E-03 0. -1.
         11   -1    0    0    0    0 -0.00000000000E+00 -0.00000000000E+00 -0.45593999997E+02  0.45594000000E+02  0.51100000000E-03 0.  1.
         23    2    1    2    0    0 -0.11102230246E-14  0.00000000000E+00 -0.33306690739E-15  0.91188000000E+02  0.91188000000E+02 0.  0.
    9900012    2    3    3    0    0  0.11801513805E+01 -0.36796247128E+02  0.65145409146E+00  0.54367069099E+02  0.39999965625E+02 0.  0.
        -12    1    3    3    0    0 -0.11801513805E+01  0.36796247128E+02 -0.65145409146E+00  0.36820930901E+02  0.00000000000E+00 0.  1.
         11    1    4    4    0    0 -0.37687674352E+01 -0.23012235325E+02  0.69896180891E+01  0.24343815312E+02  0.51100000000E-03 0. -1.
        -11    1    4    4    0    0  0.85752141996E+01 -0.19440852112E+02 -0.86156984440E+01  0.22928394827E+02  0.51100000000E-03 0.  1.
        -12    1    4    4    0    0 -0.36262953838E+01  0.56568403096E+01  0.22775344463E+01  0.70948589594E+01  0.00000000000E+00 0.  1.
</event>
<event>
 8    1  0.2482403E-006  0.9118800E+02  0.7816164E-02  0.1184000E+00
        -11   -1    0    0    0    0  0.00000000000E+00  0.00000000000E+00  0.45593999997E+02  0.45594000000E+02  0.51100000000E-03 0.  1.
         11   -1    0    0    0    0 -0.00000000000E+00 -0.00000000000E+00 -0.45593999997E+02  0.45594000000E+02  0.51100000000E-03 0. -1.
         23    2    1    2    0    0  0.00000000000E+00 -0.35527136788E-14  0.35527136788E-14  0.91188000000E+02  0.91188000000E+02 0.  0.
    9900012    2    3    3    0    0 -0.16144804456E+02 -0.18842837600E+02  0.27204262989E+02  0.54367093377E+02  0.40000020971E+02 0.  0.
         12    1    3    3    0    0  0.16144804456E+02  0.18842837600E+02 -0.27204262989E+02  0.36820906623E+02  0.00000000000E+00 0. -1.
         11    1    4    4    0    0 -0.59596433588E+01  0.42144228363E+01  0.40554259153E+01  0.83501609819E+01  0.51100000000E-03 0. -1.
        -11    1    4    4    0    0 -0.14315951124E+01  0.48756198452E+01  0.14694287559E+02  0.15548093792E+02  0.51100000000E-03 0.  1.
         12    1    4    4    0    0 -0.87535659851E+01 -0.27932880282E+02  0.84545495145E+01  0.30468838603E+02  0.00000000000E+00 0. -1.
</event>
<event>
 8    1  0.2482403E-006  0.9118800E+02  0.7816164E-02  0.1184000E+00
        -11   -1    0    0    0    0  0.00000000000E+00  0.00000000000E+00  0.45593999997E+02  0.45594000000E+02  0.51100000000E-03 0. -1.
         11   -1    0    0    0    0 -0.00000000000E+00 -0.00000000000E+00 -0.45593999997E+02  0.45594000000E+02  0.51100000000E-03 0.  1.
         23    2    1    2    0    0  0.00000000000E+00  0.00000000000E+00  0.00000000000E+00  0.91188000000E+02  0.91188000000E+02 0.  0.
    9900012    2    3    3    0    0  0.78044029556E+00  0.25595951348E+02  0.26457854639E+02  0.54367083600E+02  0.39999998683E+02 0.  0.
        -12    1    3    3    0    0 -0.78044029556E+00 -0.25595951348E+02 -0.26457854639E+02  0.36820916400E+02  0.00000000000E+00 0.  1.
         11    1    4    4    0    0 -0.17024837652E+01  0.30180823117E+02  0.13370229030E+02  0.33053646691E+02  0.51100000000E-03 0. -1.
        -11    1    4    4    0    0 -0.33116218571E+01 -0.56784430986E-01 -0.24524021000E+01  0.41212061484E+01  0.51100000000E-03 0.  1.
         12    1    4    4    0    0  0.57945459179E+01 -0.45280873383E+01  0.15540027709E+02  0.17192230761E+02  0.00000000000E+00 0. -1.
</event>
<event>
 8    1  0.2482403E-006  0.9118800E+02  0.7816164E-02  0.1184000E+00
        -11   -1    0    0    0    0  0.00000000000E+00  0.00000000000E+00  0.45593999997E+02  0.45594000000E+02  0.51100000000E-03 0.  1.
         11   -1    0    0    0    0 -0.00000000000E+00 -0.00000000000E+00 -0.45593999997E+02  0.45594000000E+02  0.51100000000E-03 0. -1.
         23    2    1    2    0    0 -0.35527136788E-14  0.00000000000E+00  0.17763568394E-14  0.91188000000E+02  0.91188000000E+02 0.  0.
    9900012    2    3    3    0    0  0.25639708690E+02 -0.21555430442E+02 -0.15288831841E+02  0.54367087160E+02  0.40000006800E+02 0.  0.
        -12    1    3    3    0    0 -0.25639708690E+02  0.21555430442E+02  0.15288831841E+02  0.36820912840E+02  0.00000000000E+00 0.  1.
         11    1    4    4    0    0  0.50077084178E+01  0.41337554473E+01 -0.24553848907E+01  0.69421893462E+01  0.51100000000E-03 0. -1.
        -11    1    4    4    0    0  0.62593608027E+01  0.59339322513E+01  0.31574767241E+01  0.91848140507E+01  0.51100000000E-03 0.  1.
         12    1    4    4    0    0  0.14372639470E+02 -0.31623118141E+02 -0.15990923675E+02  0.38240083764E+02  0.00000000000E+00 0. -1.
</event>
<event>
 8    1  0.2482403E-006  0.9118800E+02  0.7816164E-02  0.1184000E+00
        -11   -1    0    0    0    0  0.00000000000E+00  0.00000000000E+00  0.45593999997E+02  0.45594000000E+02  0.51100000000E-03 0.  1.
         11   -1    0    0    0    0 -0.00000000000E+00 -0.00000000000E+00 -0.45593999997E+02  0.45594000000E+02  0.51100000000E-03 0. -1.
         23    2    1    2    0    0  0.00000000000E+00 -0.17763568394E-14  0.00000000000E+00  0.91188000000E+02  0.91188000000E+02 0.  0.
    9900012    2    3    3    0    0 -0.87684811046E+01 -0.14028436536E+02  0.32895239016E+02  0.54367081456E+02  0.39999993795E+02 0.  0.
         12    1    3    3    0    0  0.87684811046E+01  0.14028436536E+02 -0.32895239016E+02  0.36820918544E+02  0.00000000000E+00 0. -1.
         11    1    4    4    0    0  0.11147474719E+02 -0.10640744676E+02  0.73782479710E+00  0.15428416172E+02  0.51100000000E-03 0. -1.
        -11    1    4    4    0    0 -0.69551511687E+01 -0.13886358530E+01  0.19346976021E+02  0.20606016566E+02  0.51100000000E-03 0.  1.
        -12    1    4    4    0    0 -0.12960804654E+02 -0.19990560065E+01  0.12810438198E+02  0.18332648718E+02  0.00000000000E+00 0.  1.
</event>
<event>
 8    1  0.2482403E-006  0.9118800E+02  0.7816164E-02  0.1184000E+00
        -11   -1    0    0    0    0  0.00000000000E+00  0.00000000000E+00  0.45593999997E+02  0.45594000000E+02  0.51100000000E-03 0. -1.
         11   -1    0    0    0    0 -0.00000000000E+00 -0.00000000000E+00 -0.45593999997E+02  0.45594000000E+02  0.51100000000E-03 0.  1.
         23    2    1    2    0    0  0.00000000000E+00 -0.88817841970E-15 -0.35527136788E-14  0.91188000000E+02  0.91188000000E+02 0.  0.
    9900012    2    3    3    0    0 -0.27840409591E+02  0.13255228545E+01  0.24061088180E+02  0.54367063273E+02  0.39999952345E+02 0.  0.
        -12    1    3    3    0    0  0.27840409591E+02 -0.13255228545E+01 -0.24061088180E+02  0.36820936727E+02  0.00000000000E+00 0.  1.
         11    1    4    4    0    0 -0.83174022009E+01 -0.34026893713E+00  0.10038644675E+02  0.13041063971E+02  0.51100000000E-03 0. -1.
        -11    1    4    4    0    0 -0.23252794835E+02 -0.88514065774E+01  0.20581939488E+01  0.24965496763E+02  0.51100000000E-03 0.  1.
        -12    1    4    4    0    0  0.37297874448E+01  0.10517198369E+02  0.11964249556E+02  0.16360502540E+02  0.00000000000E+00 0.  1.
</event>
<event>
 8    1  0.2482403E-006  0.9118800E+02  0.7816164E-02  0.1184000E+00
        -11   -1    0    0    0    0  0.00000000000E+00  0.00000000000E+00  0.45593999997E+02  0.45594000000E+02  0.51100000000E-03 0. -1.
         11   -1    0    0    0    0 -0.00000000000E+00 -0.00000000000E+00 -0.45593999997E+02  0.45594000000E+02  0.51100000000E-03 0.  1.
         23    2    1    2    0    0 -0.17763568394E-14 -0.71054273576E-14  0.00000000000E+00  0.91188000000E+02  0.91188000000E+02 0.  0.
    9900012    2    3    3    0    0  0.13114483010E+02 -0.29273856186E+02 -0.18078479045E+02  0.54367085764E+02  0.40000003616E+02 0.  0.
         12    1    3    3    0    0 -0.13114483010E+02  0.29273856186E+02  0.18078479045E+02  0.36820914236E+02  0.00000000000E+00 0. -1.
         11    1    4    4    0    0 -0.92953912391E+01 -0.32603800430E+01  0.57294308524E+01  0.11395646294E+02  0.51100000000E-03 0. -1.
        -11    1    4    4    0    0  0.53785473696E+01 -0.59709519798E+01 -0.11250794701E+02  0.13826113735E+02  0.51100000000E-03 0.  1.
         12    1    4    4    0    0  0.17031326880E+02 -0.20042524163E+02 -0.12557115197E+02  0.29145325734E+02  0.00000000000E+00 0. -1.
</event>
<event>
 8    1  0.2482403E-006  0.9118800E+02  0.7816164E-02  0.1184000E+00
        -11   -1    0    0    0    0  0.00000000000E+00  0.00000000000E+00  0.45593999997E+02  0.45594000000E+02  0.51100000000E-03 0.  1.
         11   -1    0    0    0    0 -0.00000000000E+00 -0.00000000000E+00 -0.45593999997E+02  0.45594000000E+02  0.51100000000E-03 0. -1.
         23    2    1    2    0    0  0.00000000000E+00  0.00000000000E+00  0.00000000000E+00  0.91188000000E+02  0.91188000000E+02 0.  0.
    9900012    2    3    3    0    0 -0.87094567540E+01  0.85428492734E+01  0.34741114908E+02  0.54367082362E+02  0.39999995860E+02 0.  0.
         12    1    3    3    0    0  0.87094567540E+01 -0.85428492734E+01 -0.34741114908E+02  0.36820917638E+02  0.00000000000E+00 0. -1.
         11    1    4    4    0    0  0.11429949349E+02  0.87164318976E+01  0.26764732909E+02  0.30380435400E+02  0.51100000000E-03 0. -1.
        -11    1    4    4    0    0 -0.28120082323E+00 -0.24077998791E+01  0.19591995154E+01  0.31168954366E+01  0.51100000000E-03 0.  1.
         12    1    4    4    0    0 -0.19858205280E+02  0.22342172549E+01  0.60171824842E+01  0.20869751525E+02  0.00000000000E+00 0. -1.
</event>
<event>
 8    1  0.2482403E-006  0.9118800E+02  0.7816164E-02  0.1184000E+00
        -11   -1    0    0    0    0  0.00000000000E+00  0.00000000000E+00  0.45593999997E+02  0.45594000000E+02  0.51100000000E-03 0.  1.
         11   -1    0    0    0    0 -0.00000000000E+00 -0.00000000000E+00 -0.45593999997E+02  0.45594000000E+02  0.51100000000E-03 0. -1.
         23    2    1    2    0    0 -0.15543122345E-14  0.88817841970E-15  0.00000000000E+00  0.91188000000E+02  0.91188000000E+02 0.  0.
    9900012    2    3    3    0    0 -0.14191497543E+01 -0.64806029777E+01  0.36218335027E+02  0.54367082126E+02  0.39999995322E+02 0.  0.
         12    1    3    3    0    0  0.14191497543E+01  0.64806029777E+01 -0.36218335027E+02  0.36820917874E+02  0.00000000000E+00 0. -1.
         11    1    4    4    0    0  0.20192652150E+01  0.41639616677E+01  0.10961990859E+01  0.47558029265E+01  0.51100000000E-03 0. -1.
        -11    1    4    4    0    0 -0.17307467727E+02 -0.10791625632E+02  0.15670003445E+02  0.25720743208E+02  0.51100000000E-03 0.  1.
        -12    1    4    4    0    0  0.13869052758E+02  0.14706098673E+00  0.19452132496E+02  0.23890535992E+02  0.00000000000E+00 0.  1.
</event>
<event>
 8    1  0.2482403E-006  0.9118800E+02  0.7816164E-02  0.1184000E+00
        -11   -1    0    0    0    0  0.00000000000E+00  0.00000000000E+00  0.45593999997E+02  0.45594000000E+02  0.51100000000E-03 0.  1.
         11   -1    0    0    0    0 -0.00000000000E+00 -0.00000000000E+00 -0.45593999997E+02  0.45594000000E+02  0.51100000000E-03 0. -1.
         23    2    1    2    0    0  0.35527136788E-14  0.88817841970E-15  0.35527136788E-14  0.91188000000E+02  0.91188000000E+02 0.  0.
    9900012    2    3    3    0    0  0.18562648996E+02  0.54128275789E+01  0.31335430943E+02  0.54367083763E+02  0.39999999055E+02 0.  0.
         12    1    3    3    0    0 -0.18562648996E+02 -0.54128275789E+01 -0.31335430943E+02  0.36820916237E+02  0.00000000000E+00 0. -1.
         11    1    4    4    0    0  0.31873909533E+01 -0.12127060470E+02  0.11165822565E+02  0.16789897276E+02  0.51100000000E-03 0. -1.
        -11    1    4    4    0    0  0.18265947366E+02  0.52778723710E+01  0.13535643323E+02  0.23339117601E+02  0.51100000000E-03 0.  1.
        -12    1    4    4    0    0 -0.28906893234E+01  0.12262015678E+02  0.66339650554E+01  0.14238068886E+02  0.00000000000E+00 0.  1.
</event>
<event>
 8    1  0.2482403E-006  0.9118800E+02  0.7816164E-02  0.1184000E+00
        -11   -1    0    0    0    0  0.00000000000E+00  0.00000000000E+00  0.45593999997E+02  0.45594000000E+02  0.51100000000E-03 0.  1.
         11   -1    0    0    0    0 -0.00000000000E+00 -0.00000000000E+00 -0.45593999997E+02  0.45594000000E+02  0.51100000000E-03 0. -1.
         23    2    1    2    0    0  0.00000000000E+00  0.00000000000E+00 -0.17763568394E-14  0.91188000000E+02  0.91188000000E+02 0.  0.
    9900012    2    3    3    0    0  0.24773173038E+02 -0.24790074399E+02 -0.11292556929E+02  0.54367085657E+02  0.40000003371E+02 0.  0.
        -12    1    3    3    0    0 -0.24773173038E+02  0.24790074399E+02  0.11292556929E+02  0.36820914343E+02  0.00000000000E+00 0.  1.
         11    1    4    4    0    0  0.13926262087E+02 -0.12582140963E+02 -0.22849445860E+02  0.29569379826E+02  0.51100000000E-03 0. -1.
        -11    1    4    4    0    0  0.83568570910E-01  0.27819751718E+01  0.39623261918E+01  0.48421481466E+01  0.51100000000E-03 0.  1.
         12    1    4    4    0    0  0.10763342380E+02 -0.14989908608E+02  0.75945627396E+01  0.19955557684E+02  0.00000000000E+00 0. -1.
</event>
<event>
 8    1  0.2482403E-006  0.9118800E+02  0.7816164E-02  0.1184000E+00
        -11   -1    0    0    0    0  0.00000000000E+00  0.00000000000E+00  0.45593999997E+02  0.45594000000E+02  0.51100000000E-03 0. -1.
         11   -1    0    0    0    0 -0.00000000000E+00 -0.00000000000E+00 -0.45593999997E+02  0.45594000000E+02  0.51100000000E-03 0.  1.
         23    2    1    2    0    0  0.00000000000E+00  0.35527136788E-14  0.00000000000E+00  0.91188000000E+02  0.91188000000E+02 0.  0.
    9900012    2    3    3    0    0 -0.59658137886E+01 -0.29520806341E+02 -0.21182802164E+02  0.54367081370E+02  0.39999993600E+02 0.  0.
        -12    1    3    3    0    0  0.59658137886E+01  0.29520806341E+02  0.21182802164E+02  0.36820918630E+02  0.00000000000E+00 0.  1.
         11    1    4    4    0    0  0.18395576686E+01 -0.80799828583E+01  0.22356593293E+01  0.85830220962E+01  0.51100000000E-03 0. -1.
        -11    1    4    4    0    0 -0.46236829220E+01 -0.12701789395E+02  0.61039142246E+01  0.14831441828E+02  0.51100000000E-03 0.  1.
        -12    1    4    4    0    0 -0.31816885352E+01 -0.87390340886E+01 -0.29522375718E+02  0.30952617446E+02  0.00000000000E+00 0.  1.
</event>
<event>
 8    1  0.2482403E-006  0.9118800E+02  0.7816164E-02  0.1184000E+00
        -11   -1    0    0    0    0  0.00000000000E+00  0.00000000000E+00  0.45593999997E+02  0.45594000000E+02  0.51100000000E-03 0. -1.
         11   -1    0    0    0    0 -0.00000000000E+00 -0.00000000000E+00 -0.45593999997E+02  0.45594000000E+02  0.51100000000E-03 0.  1.
         23    2    1    2    0    0  0.00000000000E+00  0.00000000000E+00  0.00000000000E+00  0.91188000000E+02  0.91188000000E+02 0.  0.
    9900012    2    3    3    0    0  0.31213811130E+02 -0.16826214378E+02  0.99174753200E+01  0.54367084581E+02  0.40000000920E+02 0.  0.
        -12    1    3    3    0    0 -0.31213811130E+02  0.16826214378E+02 -0.99174753200E+01  0.36820915419E+02  0.00000000000E+00 0.  1.
         11    1    4    4    0    0  0.12195211902E+01 -0.77868887886E+01  0.14194646464E+02  0.16236097358E+02  0.51100000000E-03 0. -1.
        -11    1    4    4    0    0  0.13435915937E+02 -0.13076662668E+02 -0.84791885957E+01  0.20577161687E+02  0.51100000000E-03 0.  1.
         12    1    4    4    0    0  0.16558374002E+02  0.40373370782E+01  0.42020174522E+01  0.17553825536E+02  0.00000000000E+00 0. -1.
</event>
<event>
 8    1  0.2482403E-006  0.9118800E+02  0.7816164E-02  0.1184000E+00
        -11   -1    0    0    0    0  0.00000000000E+00  0.00000000000E+00  0.45593999997E+02  0.45594000000E+02  0.51100000000E-03 0.  1.
         11   -1    0    0    0    0 -0.00000000000E+00 -0.00000000000E+00 -0.45593999997E+02  0.45594000000E+02  0.51100000000E-03 0. -1.
         23    2    1    2    0    0  0.44408920985E-15  0.00000000000E+00  0.00000000000E+00  0.91188000000E+02  0.91188000000E+02 0.  0.
    9900012    2    3    3    0    0  0.80773573048E+00  0.98685990324E+01  0.35464635117E+02  0.54367054495E+02  0.39999932333E+02 0.  0.
         12    1    3    3    0    0 -0.80773573048E+00 -0.98685990324E+01 -0.35464635117E+02  0.36820945505E+02  0.00000000000E+00 0. -1.
         11    1    4    4    0    0  0.53940723589E+00  0.45153090864E+01  0.11564555905E+02  0.12426501110E+02  0.51100000000E-03 0. -1.
        -11    1    4    4    0    0  0.13195083574E+02  0.13741476866E+02  0.12908802305E+02  0.23012509515E+02  0.51100000000E-03 0.  1.
         12    1    4    4    0    0 -0.12926755079E+02 -0.83881869197E+01  0.10991276907E+02  0.18928043870E+02  0.00000000000E+00 0. -1.
</event>
<event>
 8    1  0.2482403E-006  0.9118800E+02  0.7816164E-02  0.1184000E+00
        -11   -1    0    0    0    0  0.00000000000E+00  0.00000000000E+00  0.45593999997E+02  0.45594000000E+02  0.51100000000E-03 0.  1.
         11   -1    0    0    0    0 -0.00000000000E+00 -0.00000000000E+00 -0.45593999997E+02  0.45594000000E+02  0.51100000000E-03 0. -1.
         23    2    1    2    0    0  0.00000000000E+00  0.71054273576E-14  0.00000000000E+00  0.91188000000E+02  0.91188000000E+02 0.  0.
    9900012    2    3    3    0    0 -0.21033564123E+02 -0.24719591611E+02 -0.17387073594E+02  0.54367090759E+02  0.40000015004E+02 0.  0.
        -12    1    3    3    0    0  0.21033564123E+02  0.24719591611E+02  0.17387073594E+02  0.36820909241E+02  0.00000000000E+00 0.  1.
         11    1    4    4    0    0 -0.65648328683E+01  0.61622898673E+01 -0.15444872768E+02  0.17877777884E+02  0.51100000000E-03 0. -1.
        -11    1    4    4    0    0 -0.49131547522E+01 -0.55816817479E+01  0.44952133855E+01  0.86891429035E+01  0.51100000000E-03 0.  1.
         12    1    4    4    0    0 -0.95555765027E+01 -0.25300199731E+02 -0.64374142112E+01  0.27800169972E+02  0.00000000000E+00 0. -1.
</event>
<event>
 8    1  0.2482403E-006  0.9118800E+02  0.7816164E-02  0.1184000E+00
        -11   -1    0    0    0    0  0.00000000000E+00  0.00000000000E+00  0.45593999997E+02  0.45594000000E+02  0.51100000000E-03 0.  1.
         11   -1    0    0    0    0 -0.00000000000E+00 -0.00000000000E+00 -0.45593999997E+02  0.45594000000E+02  0.51100000000E-03 0. -1.
         23    2    1    2    0    0 -0.17763568394E-14 -0.71054273576E-14  0.35527136788E-14  0.91188000000E+02  0.91188000000E+02 0.  0.
    9900012    2    3    3    0    0  0.44855779273E+01 -0.32528073780E+02  0.16660875408E+02  0.54367071678E+02  0.39999971504E+02 0.  0.
         12    1    3    3    0    0 -0.44855779273E+01  0.32528073780E+02 -0.16660875408E+02  0.36820928322E+02  0.00000000000E+00 0. -1.
         11    1    4    4    0    0  0.93417747332E+01 -0.36959036231E+01 -0.40770006268E+01  0.10842065907E+02  0.51100000000E-03 0. -1.
        -11    1    4    4    0    0  0.37381846357E+01  0.16127079110E+01  0.88299913946E+01  0.97233533036E+01  0.51100000000E-03 0.  1.
         12    1    4    4    0    0 -0.85943814416E+01 -0.30444878068E+02  0.11907884640E+02  0.33801652467E+02  0.00000000000E+00 0. -1.
</event>
<event>
 8    1  0.2482403E-006  0.9118800E+02  0.7816164E-02  0.1184000E+00
        -11   -1    0    0    0    0  0.00000000000E+00  0.00000000000E+00  0.45593999997E+02  0.45594000000E+02  0.51100000000E-03 0.  1.
         11   -1    0    0    0    0 -0.00000000000E+00 -0.00000000000E+00 -0.45593999997E+02  0.45594000000E+02  0.51100000000E-03 0. -1.
         23    2    1    2    0    0  0.71054273576E-14 -0.35527136788E-14  0.00000000000E+00  0.91188000000E+02  0.91188000000E+02 0.  0.
    9900012    2    3    3    0    0 -0.32414983296E+02  0.17201317578E+02 -0.30270809595E+01  0.54367086274E+02  0.40000004779E+02 0.  0.
         12    1    3    3    0    0  0.32414983296E+02 -0.17201317578E+02  0.30270809595E+01  0.36820913726E+02  0.00000000000E+00 0. -1.
         11    1    4    4    0    0 -0.37087489337E+02  0.93896933733E+01 -0.15352994333E+01  0.38288449323E+02  0.51100000000E-03 0. -1.
        -11    1    4    4    0    0  0.54512296259E+01 -0.20550694477E+01 -0.20230704203E+01  0.61670113553E+01  0.51100000000E-03 0.  1.
         12    1    4    4    0    0 -0.77872358491E+00  0.98666936530E+01  0.53128889408E+00  0.99116255958E+01  0.00000000000E+00 0. -1.
</event>
<event>
 8    1  0.2482403E-006  0.9118800E+02  0.7816164E-02  0.1184000E+00
        -11   -1    0    0    0    0  0.00000000000E+00  0.00000000000E+00  0.45593999997E+02  0.45594000000E+02  0.51100000000E-03 0. -1.
         11   -1    0    0    0    0 -0.00000000000E+00 -0.00000000000E+00 -0.45593999997E+02  0.45594000000E+02  0.51100000000E-03 0.  1.
         23    2    1    2    0    0 -0.17763568394E-14  0.00000000000E+00 -0.71054273576E-14  0.91188000000E+02  0.91188000000E+02 0.  0.
    9900012    2    3    3    0    0 -0.45252891050E+01  0.17389168025E+02 -0.32139040326E+02  0.54367091277E+02  0.40000016185E+02 0.  0.
         12    1    3    3    0    0  0.45252891050E+01 -0.17389168025E+02  0.32139040326E+02  0.36820908723E+02  0.00000000000E+00 0. -1.
         11    1    4    4    0    0  0.77349187265E+01  0.38195935220E+01 -0.37339343987E+01  0.94000281241E+01  0.51100000000E-03 0. -1.
        -11    1    4    4    0    0  0.31126947403E+01 -0.42888976090E+01 -0.18779874813E+02  0.19513257275E+02  0.51100000000E-03 0.  1.
         12    1    4    4    0    0 -0.15372902572E+02  0.17858472112E+02 -0.96252311146E+01  0.25453805878E+02  0.00000000000E+00 0. -1.
</event>
<event>
 8    1  0.2482403E-006  0.9118800E+02  0.7816164E-02  0.1184000E+00
        -11   -1    0    0    0    0  0.00000000000E+00  0.00000000000E+00  0.45593999997E+02  0.45594000000E+02  0.51100000000E-03 0. -1.
         11   -1    0    0    0    0 -0.00000000000E+00 -0.00000000000E+00 -0.45593999997E+02  0.45594000000E+02  0.51100000000E-03 0.  1.
         23    2    1    2    0    0  0.00000000000E+00  0.00000000000E+00  0.22204460493E-15  0.91188000000E+02  0.91188000000E+02 0.  0.
    9900012    2    3    3    0    0  0.18742633336E+02  0.31671972287E+02  0.11756462844E+01  0.54367051111E+02  0.39999924617E+02 0.  0.
        -12    1    3    3    0    0 -0.18742633336E+02 -0.31671972287E+02 -0.11756462844E+01  0.36820948889E+02  0.00000000000E+00 0.  1.
         11    1    4    4    0    0  0.13069970820E+02  0.23263674590E+02  0.97325711648E+01  0.28403268023E+02  0.51100000000E-03 0. -1.
        -11    1    4    4    0    0  0.10133051315E+02 -0.39898351634E+01 -0.14299957473E+01  0.10983733503E+02  0.51100000000E-03 0.  1.
         12    1    4    4    0    0 -0.44603887985E+01  0.12398132861E+02 -0.71269291331E+01  0.14980049584E+02  0.00000000000E+00 0. -1.
</event>
<event>
 8    1  0.2482403E-006  0.9118800E+02  0.7816164E-02  0.1184000E+00
        -11   -1    0    0    0    0  0.00000000000E+00  0.00000000000E+00  0.45593999997E+02  0.45594000000E+02  0.51100000000E-03 0. -1.
         11   -1    0    0    0    0 -0.00000000000E+00 -0.00000000000E+00 -0.45593999997E+02  0.45594000000E+02  0.51100000000E-03 0.  1.
         23    2    1    2    0    0  0.00000000000E+00 -0.17763568394E-14  0.00000000000E+00  0.91188000000E+02  0.91188000000E+02 0.  0.
    9900012    2    3    3    0    0 -0.32544568409E+02 -0.88984485860E+01 -0.14746131677E+02  0.54367085839E+02  0.40000003788E+02 0.  0.
         12    1    3    3    0    0  0.32544568409E+02  0.88984485860E+01  0.14746131677E+02  0.36820914161E+02  0.00000000000E+00 0. -1.
         11    1    4    4    0    0 -0.40902780931E+01 -0.11982831602E+02 -0.12188889054E+02  0.17575199706E+02  0.51100000000E-03 0.  1.
        -11    1    4    4    0    0 -0.34547392608E+01  0.38502381869E+01  0.80950040851E+01  0.96066981245E+01  0.51100000000E-03 0. -1.
         12    1    4    4    0    0 -0.24999551055E+02 -0.76585517054E+00 -0.10652246708E+02  0.27185188008E+02  0.00000000000E+00 0. -1.
</event>
<event>
 8    1  0.2482403E-006  0.9118800E+02  0.7816164E-02  0.1184000E+00
        -11   -1    0    0    0    0  0.00000000000E+00  0.00000000000E+00  0.45593999997E+02  0.45594000000E+02  0.51100000000E-03 0.  1.
         11   -1    0    0    0    0 -0.00000000000E+00 -0.00000000000E+00 -0.45593999997E+02  0.45594000000E+02  0.51100000000E-03 0. -1.
         23    2    1    2    0    0 -0.71054273576E-14  0.00000000000E+00 -0.44408920985E-15  0.91188000000E+02  0.91188000000E+02 0.  0.
    9900012    2    3    3    0    0 -0.36435878166E+02  0.48451455418E+01  0.21750162788E+01  0.54367090874E+02  0.40000015266E+02 0.  0.
         12    1    3    3    0    0  0.36435878166E+02 -0.48451455418E+01 -0.21750162788E+01  0.36820909126E+02  0.00000000000E+00 0. -1.
         11    1    4    4    0    0  0.82818758572E-01  0.20741384602E+01 -0.10270239128E+02  0.10477915885E+02  0.51100000000E-03 0. -1.
        -11    1    4    4    0    0 -0.13844257235E+02 -0.90114151999E+01  0.42971748945E+01  0.17068531707E+02  0.51100000000E-03 0.  1.
        -12    1    4    4    0    0 -0.22674439690E+02  0.11782422281E+02  0.81480805121E+01  0.26820643282E+02  0.00000000000E+00 0.  1.
</event>
<event>
 8    1  0.2482403E-006  0.9118800E+02  0.7816164E-02  0.1184000E+00
        -11   -1    0    0    0    0  0.00000000000E+00  0.00000000000E+00  0.45593999997E+02  0.45594000000E+02  0.51100000000E-03 0.  1.
         11   -1    0    0    0    0 -0.00000000000E+00 -0.00000000000E+00 -0.45593999997E+02  0.45594000000E+02  0.51100000000E-03 0. -1.
         23    2    1    2    0    0  0.35527136788E-14 -0.17763568394E-14  0.35527136788E-14  0.91188000000E+02  0.91188000000E+02 0.  0.
    9900012    2    3    3    0    0  0.18214854964E+02  0.10627074146E+02 -0.30183831426E+02  0.54367091187E+02  0.40000015978E+02 0.  0.
        -12    1    3    3    0    0 -0.18214854964E+02 -0.10627074146E+02  0.30183831426E+02  0.36820908813E+02  0.00000000000E+00 0.  1.
         11    1    4    4    0    0  0.13709407976E+02  0.15225504216E+02 -0.15794286053E+02  0.25869350937E+02  0.51100000000E-03 0. -1.
        -11    1    4    4    0    0 -0.95633946559E+01 -0.43816975767E+01 -0.57946248037E+01  0.12009807154E+02  0.51100000000E-03 0.  1.
        -12    1    4    4    0    0  0.14068841644E+02 -0.21673249327E+00 -0.85949205693E+01  0.16487933096E+02  0.00000000000E+00 0.  1.
</event>
<event>
 8    1  0.2482403E-006  0.9118800E+02  0.7816164E-02  0.1184000E+00
        -11   -1    0    0    0    0  0.00000000000E+00  0.00000000000E+00  0.45593999997E+02  0.45594000000E+02  0.51100000000E-03 0.  1.
         11   -1    0    0    0    0 -0.00000000000E+00 -0.00000000000E+00 -0.45593999997E+02  0.45594000000E+02  0.51100000000E-03 0. -1.
         23    2    1    2    0    0 -0.17763568394E-14 -0.35527136788E-14  0.35527136788E-14  0.91188000000E+02  0.91188000000E+02 0.  0.
    9900012    2    3    3    0    0 -0.15062267839E+02 -0.27597649598E+02  0.19164432525E+02  0.54367113946E+02  0.40000067863E+02 0.  0.
         12    1    3    3    0    0  0.15062267839E+02  0.27597649598E+02 -0.19164432525E+02  0.36820886054E+02  0.00000000000E+00 0. -1.
         11    1    4    4    0    0  0.27884493824E+01 -0.85877581261E+01 -0.58493396576E+01  0.10758244015E+02  0.51100000000E-03 0. -1.
        -11    1    4    4    0    0 -0.13506368703E+02 -0.22935478164E+02  0.26509004485E+02  0.37565748671E+02  0.51100000000E-03 0.  1.
         12    1    4    4    0    0 -0.43443485187E+01  0.39255866924E+01 -0.14952323019E+01  0.60431212604E+01  0.00000000000E+00 0. -1.
</event>
<event>
 8    1  0.2482403E-006  0.9118800E+02  0.7816164E-02  0.1184000E+00
        -11   -1    0    0    0    0  0.00000000000E+00  0.00000000000E+00  0.45593999997E+02  0.45594000000E+02  0.51100000000E-03 0.  1.
         11   -1    0    0    0    0 -0.00000000000E+00 -0.00000000000E+00 -0.45593999997E+02  0.45594000000E+02  0.51100000000E-03 0. -1.
         23    2    1    2    0    0  0.35527136788E-14  0.35527136788E-14 -0.35527136788E-14  0.91188000000E+02  0.91188000000E+02 0.  0.
    9900012    2    3    3    0    0  0.26403502488E+02  0.21275044413E+02 -0.14352971842E+02  0.54367078514E+02  0.39999987088E+02 0.  0.
        -12    1    3    3    0    0 -0.26403502488E+02 -0.21275044413E+02  0.14352971842E+02  0.36820921486E+02  0.00000000000E+00 0.  1.
         11    1    4    4    0    0  0.17774158153E+02  0.35057336874E+01  0.10680161378E+02  0.21030375985E+02  0.51100000000E-03 0.  1.
        -11    1    4    4    0    0  0.93822972609E+01  0.12877897151E+02 -0.23014787975E+02  0.27991931029E+02  0.51100000000E-03 0. -1.
         12    1    4    4    0    0 -0.75295292538E+00  0.48914135741E+01 -0.20183452449E+01  0.53447715001E+01  0.00000000000E+00 0. -1.
</event>
<event>
 8    1  0.2482403E-006  0.9118800E+02  0.7816164E-02  0.1184000E+00
        -11   -1    0    0    0    0  0.00000000000E+00  0.00000000000E+00  0.45593999997E+02  0.45594000000E+02  0.51100000000E-03 0.  1.
         11   -1    0    0    0    0 -0.00000000000E+00 -0.00000000000E+00 -0.45593999997E+02  0.45594000000E+02  0.51100000000E-03 0. -1.
         23    2    1    2    0    0  0.35527136788E-14  0.35527136788E-14  0.00000000000E+00  0.91188000000E+02  0.91188000000E+02 0.  0.
    9900012    2    3    3    0    0  0.16757157311E+02  0.98560412300E+01  0.31270348077E+02  0.54367101875E+02  0.40000040345E+02 0.  0.
         12    1    3    3    0    0 -0.16757157311E+02 -0.98560412300E+01 -0.31270348077E+02  0.36820898125E+02  0.00000000000E+00 0. -1.
         11    1    4    4    0    0 -0.27852910400E+01 -0.12773986610E+02  0.66988637580E+01  0.14690383113E+02  0.51100000000E-03 0. -1.
        -11    1    4    4    0    0  0.15001603950E+02  0.11471187992E+02  0.17261454883E+02  0.25585036642E+02  0.51100000000E-03 0.  1.
         12    1    4    4    0    0  0.45408444004E+01  0.11158839848E+02  0.73100294360E+01  0.14091682121E+02  0.00000000000E+00 0. -1.
</event>
<event>
 8    1  0.2482403E-006  0.9118800E+02  0.7816164E-02  0.1184000E+00
        -11   -1    0    0    0    0  0.00000000000E+00  0.00000000000E+00  0.45593999997E+02  0.45594000000E+02  0.51100000000E-03 0. -1.
         11   -1    0    0    0    0 -0.00000000000E+00 -0.00000000000E+00 -0.45593999997E+02  0.45594000000E+02  0.51100000000E-03 0.  1.
         23    2    1    2    0    0  0.00000000000E+00  0.00000000000E+00  0.26645352591E-14  0.91188000000E+02  0.91188000000E+02 0.  0.
    9900012    2    3    3    0    0 -0.32761299102E+02  0.16302300645E+02  0.40880587810E+01  0.54367082714E+02  0.39999996664E+02 0.  0.
         12    1    3    3    0    0  0.32761299102E+02 -0.16302300645E+02 -0.40880587810E+01  0.36820917286E+02  0.00000000000E+00 0. -1.
         11    1    4    4    0    0 -0.52122921586E+01  0.93245124330E+01  0.15361944403E+02  0.18711062444E+02  0.51100000000E-03 0. -1.
        -11    1    4    4    0    0 -0.19588917889E+02  0.12931251978E+02 -0.53144200216E+01  0.24066284345E+02  0.51100000000E-03 0.  1.
        -12    1    4    4    0    0 -0.79600890545E+01 -0.59534637658E+01 -0.59594656009E+01  0.11589735925E+02  0.00000000000E+00 0.  1.
</event>
<event>
 8    1  0.2482403E-006  0.9118800E+02  0.7816164E-02  0.1184000E+00
        -11   -1    0    0    0    0  0.00000000000E+00  0.00000000000E+00  0.45593999997E+02  0.45594000000E+02  0.51100000000E-03 0. -1.
         11   -1    0    0    0    0 -0.00000000000E+00 -0.00000000000E+00 -0.45593999997E+02  0.45594000000E+02  0.51100000000E-03 0.  1.
         23    2    1    2    0    0  0.00000000000E+00  0.35527136788E-14 -0.35527136788E-14  0.91188000000E+02  0.91188000000E+02 0.  0.
    9900012    2    3    3    0    0 -0.11535130047E+02  0.27754229546E+02 -0.21270255296E+02  0.54367078729E+02  0.39999987578E+02 0.  0.
         12    1    3    3    0    0  0.11535130047E+02 -0.27754229546E+02  0.21270255296E+02  0.36820921271E+02  0.00000000000E+00 0. -1.
         11    1    4    4    0    0  0.83506085220E+00 -0.29565166423E+01  0.89103308619E+01  0.94250895811E+01  0.51100000000E-03 0. -1.
        -11    1    4    4    0    0 -0.58798961355E+00  0.35723439563E+01 -0.44151454974E+01  0.57097183076E+01  0.51100000000E-03 0.  1.
         12    1    4    4    0    0 -0.11782201286E+02  0.27138402232E+02 -0.25765440661E+02  0.39232270840E+02  0.00000000000E+00 0. -1.
</event>
<event>
 8    1  0.2482403E-006  0.9118800E+02  0.7816164E-02  0.1184000E+00
        -11   -1    0    0    0    0  0.00000000000E+00  0.00000000000E+00  0.45593999997E+02  0.45594000000E+02  0.51100000000E-03 0.  1.
         11   -1    0    0    0    0 -0.00000000000E+00 -0.00000000000E+00 -0.45593999997E+02  0.45594000000E+02  0.51100000000E-03 0. -1.
         23    2    1    2    0    0  0.71054273576E-14 -0.17763568394E-14  0.00000000000E+00  0.91188000000E+02  0.91188000000E+02 0.  0.
    9900012    2    3    3    0    0 -0.36133818491E+02  0.51400833921E+01  0.48689082056E+01  0.54367087965E+02  0.40000008633E+02 0.  0.
        -12    1    3    3    0    0  0.36133818491E+02 -0.51400833921E+01 -0.48689082056E+01  0.36820912035E+02  0.00000000000E+00 0.  1.
         11    1    4    4    0    0 -0.34464499110E+02 -0.18063937107E+01  0.38166176029E+01  0.34722202225E+02  0.51100000000E-03 0. -1.
        -11    1    4    4    0    0  0.45502785354E+01  0.62976667733E+01 -0.62929080911E+01  0.99983165604E+01  0.51100000000E-03 0.  1.
         12    1    4    4    0    0 -0.62195979160E+01  0.64881032948E+00  0.73451986938E+01  0.96465691794E+01  0.00000000000E+00 0. -1.
</event>
<event>
 8    1  0.2482403E-006  0.9118800E+02  0.7816164E-02  0.1184000E+00
        -11   -1    0    0    0    0  0.00000000000E+00  0.00000000000E+00  0.45593999997E+02  0.45594000000E+02  0.51100000000E-03 0.  1.
         11   -1    0    0    0    0 -0.00000000000E+00 -0.00000000000E+00 -0.45593999997E+02  0.45594000000E+02  0.51100000000E-03 0. -1.
         23    2    1    2    0    0 -0.71054273576E-14  0.17763568394E-14  0.00000000000E+00  0.91188000000E+02  0.91188000000E+02 0.  0.
    9900012    2    3    3    0    0  0.28794120914E+02  0.30557624766E+01 -0.22745139182E+02  0.54367076058E+02  0.39999981490E+02 0.  0.
        -12    1    3    3    0    0 -0.28794120914E+02 -0.30557624766E+01  0.22745139182E+02  0.36820923942E+02  0.00000000000E+00 0.  1.
         11    1    4    4    0    0  0.91066471520E+01 -0.12880993434E+02 -0.30720346659E+01  0.16071353753E+02  0.51100000000E-03 0. -1.
        -11    1    4    4    0    0 -0.24068634944E+01  0.50063993428E+01 -0.10713066837E+02  0.12067594109E+02  0.51100000000E-03 0.  1.
         12    1    4    4    0    0  0.22094337256E+02  0.10930356568E+02 -0.89600376792E+01  0.26228128197E+02  0.00000000000E+00 0. -1.
</event>
<event>
 8    1  0.2482403E-006  0.9118800E+02  0.7816164E-02  0.1184000E+00
        -11   -1    0    0    0    0  0.00000000000E+00  0.00000000000E+00  0.45593999997E+02  0.45594000000E+02  0.51100000000E-03 0. -1.
         11   -1    0    0    0    0 -0.00000000000E+00 -0.00000000000E+00 -0.45593999997E+02  0.45594000000E+02  0.51100000000E-03 0.  1.
         23    2    1    2    0    0 -0.13322676296E-14 -0.17763568394E-14  0.00000000000E+00  0.91188000000E+02  0.91188000000E+02 0.  0.
    9900012    2    3    3    0    0 -0.34661442606E+01  0.12395523237E+02 -0.34498085183E+02  0.54367067996E+02  0.39999963111E+02 0.  0.
         12    1    3    3    0    0  0.34661442606E+01 -0.12395523237E+02  0.34498085183E+02  0.36820932004E+02  0.00000000000E+00 0. -1.
         11    1    4    4    0    0 -0.42749690022E+01  0.25692956343E+01 -0.66698996350E+01  0.83285173607E+01  0.51100000000E-03 0. -1.
        -11    1    4    4    0    0 -0.75158280274E+01 -0.90500856464E+01 -0.21416435962E+02  0.24434718143E+02  0.51100000000E-03 0.  1.
        -12    1    4    4    0    0  0.83246527689E+01  0.18876313250E+02 -0.64117495855E+01  0.21603832493E+02  0.00000000000E+00 0.  1.
</event>
<event>
 8    1  0.2482403E-006  0.9118800E+02  0.7816164E-02  0.1184000E+00
        -11   -1    0    0    0    0  0.00000000000E+00  0.00000000000E+00  0.45593999997E+02  0.45594000000E+02  0.51100000000E-03 0. -1.
         11   -1    0    0    0    0 -0.00000000000E+00 -0.00000000000E+00 -0.45593999997E+02  0.45594000000E+02  0.51100000000E-03 0.  1.
         23    2    1    2    0    0 -0.17763568394E-14  0.00000000000E+00  0.00000000000E+00  0.91188000000E+02  0.91188000000E+02 0.  0.
    9900012    2    3    3    0    0 -0.12584777763E+02  0.30804907947E+02  0.15762647841E+02  0.54367081327E+02  0.39999993502E+02 0.  0.
         12    1    3    3    0    0  0.12584777763E+02 -0.30804907947E+02 -0.15762647841E+02  0.36820918673E+02  0.00000000000E+00 0. -1.
         11    1    4    4    0    0 -0.18162126676E+02  0.21669940159E+02  0.43982288577E+01  0.28614569178E+02  0.51100000000E-03 0. -1.
        -11    1    4    4    0    0 -0.21458790594E+01  0.13856343296E+02  0.62028030492E+01  0.15332247467E+02  0.51100000000E-03 0.  1.
         12    1    4    4    0    0  0.77232279723E+01 -0.47213755079E+01  0.51616159344E+01  0.10420264682E+02  0.00000000000E+00 0. -1.
</event>
<event>
 8    1  0.2482403E-006  0.9118800E+02  0.7816164E-02  0.1184000E+00
        -11   -1    0    0    0    0  0.00000000000E+00  0.00000000000E+00  0.45593999997E+02  0.45594000000E+02  0.51100000000E-03 0.  1.
         11   -1    0    0    0    0 -0.00000000000E+00 -0.00000000000E+00 -0.45593999997E+02  0.45594000000E+02  0.51100000000E-03 0. -1.
         23    2    1    2    0    0  0.35527136788E-14  0.17763568394E-14  0.00000000000E+00  0.91188000000E+02  0.91188000000E+02 0.  0.
    9900012    2    3    3    0    0  0.29970148673E+02  0.94598133820E+01  0.19185602182E+02  0.54367011260E+02  0.39999833769E+02 0.  0.
         12    1    3    3    0    0 -0.29970148673E+02 -0.94598133820E+01 -0.19185602182E+02  0.36820988740E+02  0.00000000000E+00 0. -1.
         11    1    4    4    0    0  0.78654635548E+01  0.64391840867E+01 -0.16369305722E+01  0.10296025961E+02  0.51100000000E-03 0. -1.
        -11    1    4    4    0    0  0.23679307179E+02  0.17543666332E+01  0.27943348417E+02  0.36669034781E+02  0.51100000000E-03 0.  1.
        -12    1    4    4    0    0 -0.15746220606E+01  0.12662626621E+01 -0.71208156628E+01  0.74019505177E+01  0.00000000000E+00 0.  1.
</event>
<event>
 8    1  0.2482403E-006  0.9118800E+02  0.7816164E-02  0.1184000E+00
        -11   -1    0    0    0    0  0.00000000000E+00  0.00000000000E+00  0.45593999997E+02  0.45594000000E+02  0.51100000000E-03 0. -1.
         11   -1    0    0    0    0 -0.00000000000E+00 -0.00000000000E+00 -0.45593999997E+02  0.45594000000E+02  0.51100000000E-03 0.  1.
         23    2    1    2    0    0 -0.17763568394E-14  0.35527136788E-14  0.00000000000E+00  0.91188000000E+02  0.91188000000E+02 0.  0.
    9900012    2    3    3    0    0  0.12177958943E+02 -0.24727985743E+02  0.24413257060E+02  0.54367040164E+02  0.39999899663E+02 0.  0.
        -12    1    3    3    0    0 -0.12177958943E+02  0.24727985743E+02 -0.24413257060E+02  0.36820959836E+02  0.00000000000E+00 0.  1.
         11    1    4    4    0    0 -0.59475042421E+01 -0.18165324710E+02  0.68963777372E+01  0.20320232643E+02  0.51100000000E-03 0. -1.
        -11    1    4    4    0    0  0.12027727182E+02 -0.30816743501E+01 -0.26471428511E+01  0.12695286665E+02  0.51100000000E-03 0.  1.
         12    1    4    4    0    0  0.60977360033E+01 -0.34809866835E+01  0.20164022174E+02  0.21351520856E+02  0.00000000000E+00 0. -1.
</event>
<event>
 8    1  0.2482403E-006  0.9118800E+02  0.7816164E-02  0.1184000E+00
        -11   -1    0    0    0    0  0.00000000000E+00  0.00000000000E+00  0.45593999997E+02  0.45594000000E+02  0.51100000000E-03 0. -1.
         11   -1    0    0    0    0 -0.00000000000E+00 -0.00000000000E+00 -0.45593999997E+02  0.45594000000E+02  0.51100000000E-03 0.  1.
         23    2    1    2    0    0 -0.71054273576E-14  0.00000000000E+00 -0.88817841970E-15  0.91188000000E+02  0.91188000000E+02 0.  0.
    9900012    2    3    3    0    0  0.16920076797E+02  0.31961545994E+02  0.69246224259E+01  0.54367084519E+02  0.40000000777E+02 0.  0.
        -12    1    3    3    0    0 -0.16920076797E+02 -0.31961545994E+02 -0.69246224259E+01  0.36820915481E+02  0.00000000000E+00 0.  1.
         11    1    4    4    0    0  0.18996624811E+02  0.71169837524E+01 -0.31497899087E+01  0.20529110762E+02  0.51100000000E-03 0. -1.
        -11    1    4    4    0    0  0.60000374093E+01  0.31249280937E+01  0.81407036347E+01  0.10584738090E+02  0.51100000000E-03 0.  1.
        -12    1    4    4    0    0 -0.80765854240E+01  0.21719634148E+02  0.19337086999E+01  0.23253235667E+02  0.00000000000E+00 0.  1.
</event>
<event>
 8    1  0.2482403E-006  0.9118800E+02  0.7816164E-02  0.1184000E+00
        -11   -1    0    0    0    0  0.00000000000E+00  0.00000000000E+00  0.45593999997E+02  0.45594000000E+02  0.51100000000E-03 0.  1.
         11   -1    0    0    0    0 -0.00000000000E+00 -0.00000000000E+00 -0.45593999997E+02  0.45594000000E+02  0.51100000000E-03 0. -1.
         23    2    1    2    0    0  0.00000000000E+00  0.00000000000E+00  0.35527136788E-14  0.91188000000E+02  0.91188000000E+02 0.  0.
    9900012    2    3    3    0    0 -0.20264063716E+02 -0.30687478874E+02 -0.18507574967E+01  0.54367096409E+02  0.40000027883E+02 0.  0.
        -12    1    3    3    0    0  0.20264063716E+02  0.30687478874E+02  0.18507574967E+01  0.36820903591E+02  0.00000000000E+00 0.  1.
         11    1    4    4    0    0 -0.14967600612E+02 -0.20447025378E+02 -0.17933310353E+02  0.31043735848E+02  0.51100000000E-03 0. -1.
        -11    1    4    4    0    0 -0.40130164484E+01 -0.12426121863E+02  0.16173746135E+02  0.20787084208E+02  0.51100000000E-03 0.  1.
         12    1    4    4    0    0 -0.12834466556E+01  0.21856683667E+01 -0.91193279260E-01  0.25362763535E+01  0.00000000000E+00 0. -1.
</event>
<event>
 8    1  0.2482403E-006  0.9118800E+02  0.7816164E-02  0.1184000E+00
        -11   -1    0    0    0    0  0.00000000000E+00  0.00000000000E+00  0.45593999997E+02  0.45594000000E+02  0.51100000000E-03 0. -1.
         11   -1    0    0    0    0 -0.00000000000E+00 -0.00000000000E+00 -0.45593999997E+02  0.45594000000E+02  0.51100000000E-03 0.  1.
         23    2    1    2    0    0 -0.35527136788E-14  0.35527136788E-14  0.00000000000E+00  0.91188000000E+02  0.91188000000E+02 0.  0.
    9900012    2    3    3    0    0 -0.15735282389E+02  0.25683227216E+02 -0.21179073057E+02  0.54367076497E+02  0.39999982489E+02 0.  0.
         12    1    3    3    0    0  0.15735282389E+02 -0.25683227216E+02  0.21179073057E+02  0.36820923503E+02  0.00000000000E+00 0. -1.
         11    1    4    4    0    0 -0.64006308002E+01  0.15476140990E+02 -0.14875311526E+02  0.22399864014E+02  0.51100000000E-03 0. -1.
        -11    1    4    4    0    0  0.56225772568E+00  0.18437429107E+02 -0.31288192029E+01  0.18709474490E+02  0.51100000000E-03 0.  1.
        -12    1    4    4    0    0 -0.98969093142E+01 -0.82303428806E+01 -0.31749423282E+01  0.13257737993E+02  0.00000000000E+00 0.  1.
</event>
<event>
 8    1  0.2482403E-006  0.9118800E+02  0.7816164E-02  0.1184000E+00
        -11   -1    0    0    0    0  0.00000000000E+00  0.00000000000E+00  0.45593999997E+02  0.45594000000E+02  0.51100000000E-03 0. -1.
         11   -1    0    0    0    0 -0.00000000000E+00 -0.00000000000E+00 -0.45593999997E+02  0.45594000000E+02  0.51100000000E-03 0.  1.
         23    2    1    2    0    0  0.00000000000E+00  0.00000000000E+00  0.00000000000E+00  0.91188000000E+02  0.91188000000E+02 0.  0.
    9900012    2    3    3    0    0  0.21339128607E+02 -0.20538228600E+02 -0.21876998082E+02  0.54367078110E+02  0.39999986168E+02 0.  0.
         12    1    3    3    0    0 -0.21339128607E+02  0.20538228600E+02  0.21876998082E+02  0.36820921890E+02  0.00000000000E+00 0. -1.
         11    1    4    4    0    0  0.53251919075E+01 -0.14370286734E+02  0.67082237117E+01  0.16729108622E+02  0.51100000000E-03 0. -1.
        -11    1    4    4    0    0  0.42427926831E+01 -0.10885398003E+02 -0.15575538571E+02  0.19470248624E+02  0.51100000000E-03 0.  1.
         12    1    4    4    0    0  0.11771144016E+02  0.47174561363E+01 -0.13009683223E+02  0.18167720864E+02  0.00000000000E+00 0. -1.
</event>
<event>
 8    1  0.2482403E-006  0.9118800E+02  0.7816164E-02  0.1184000E+00
        -11   -1    0    0    0    0  0.00000000000E+00  0.00000000000E+00  0.45593999997E+02  0.45594000000E+02  0.51100000000E-03 0. -1.
         11   -1    0    0    0    0 -0.00000000000E+00 -0.00000000000E+00 -0.45593999997E+02  0.45594000000E+02  0.51100000000E-03 0.  1.
         23    2    1    2    0    0  0.00000000000E+00  0.00000000000E+00  0.17763568394E-14  0.91188000000E+02  0.91188000000E+02 0.  0.
    9900012    2    3    3    0    0 -0.11127317910E+02  0.32213936967E+02 -0.13936452306E+02  0.54367086897E+02  0.40000006200E+02 0.  0.
         12    1    3    3    0    0  0.11127317910E+02 -0.32213936967E+02  0.13936452306E+02  0.36820913103E+02  0.00000000000E+00 0. -1.
         11    1    4    4    0    0 -0.12636558121E+02  0.53210777717E+01  0.17296437598E+01  0.13819845788E+02  0.51100000000E-03 0. -1.
        -11    1    4    4    0    0  0.31029196497E+01  0.98699234366E+01 -0.20342059591E+02  0.22821982553E+02  0.51100000000E-03 0.  1.
        -12    1    4    4    0    0 -0.15936794389E+01  0.17022935759E+02  0.46759635244E+01  0.17725258557E+02  0.00000000000E+00 0.  1.
</event>
<event>
 8    1  0.2482403E-006  0.9118800E+02  0.7816164E-02  0.1184000E+00
        -11   -1    0    0    0    0  0.00000000000E+00  0.00000000000E+00  0.45593999997E+02  0.45594000000E+02  0.51100000000E-03 0. -1.
         11   -1    0    0    0    0 -0.00000000000E+00 -0.00000000000E+00 -0.45593999997E+02  0.45594000000E+02  0.51100000000E-03 0.  1.
         23    2    1    2    0    0  0.00000000000E+00  0.00000000000E+00  0.35527136788E-14  0.91188000000E+02  0.91188000000E+02 0.  0.
    9900012    2    3    3    0    0  0.63464152769E+01  0.21877747517E+02 -0.28928633508E+02  0.54367100229E+02  0.40000036592E+02 0.  0.
         12    1    3    3    0    0 -0.63464152769E+01 -0.21877747517E+02  0.28928633508E+02  0.36820899771E+02  0.00000000000E+00 0. -1.
         11    1    4    4    0    0  0.55296070814E+01 -0.12062985833E+01 -0.31895222226E+01  0.64965193000E+01  0.51100000000E-03 0. -1.
        -11    1    4    4    0    0 -0.40492877089E+00  0.31349329607E+02 -0.16553995658E+02  0.35453902559E+02  0.51100000000E-03 0.  1.
        -12    1    4    4    0    0  0.12217369664E+01 -0.82652835069E+01 -0.91851156274E+01  0.12416678370E+02  0.00000000000E+00 0.  1.
</event>
<event>
 8    1  0.2482403E-006  0.9118800E+02  0.7816164E-02  0.1184000E+00
        -11   -1    0    0    0    0  0.00000000000E+00  0.00000000000E+00  0.45593999997E+02  0.45594000000E+02  0.51100000000E-03 0.  1.
         11   -1    0    0    0    0 -0.00000000000E+00 -0.00000000000E+00 -0.45593999997E+02  0.45594000000E+02  0.51100000000E-03 0. -1.
         23    2    1    2    0    0  0.00000000000E+00 -0.35527136788E-14  0.35527136788E-14  0.91188000000E+02  0.91188000000E+02 0.  0.
    9900012    2    3    3    0    0 -0.43838206323E+01  0.30637024866E+02 -0.19948280944E+02  0.54367094409E+02  0.40000023324E+02 0.  0.
        -12    1    3    3    0    0  0.43838206323E+01 -0.30637024866E+02  0.19948280944E+02  0.36820905591E+02  0.00000000000E+00 0.  1.
         11    1    4    4    0    0 -0.19210696057E+01  0.17706540599E+02 -0.83572965040E+00  0.17830045786E+02  0.51100000000E-03 0. -1.
        -11    1    4    4    0    0 -0.13988907767E+01  0.10303820636E+02  0.54990186488E+01  0.11762857708E+02  0.51100000000E-03 0.  1.
        -12    1    4    4    0    0 -0.10638602499E+01  0.26266636306E+01 -0.24611569942E+02  0.24774190915E+02  0.00000000000E+00 0.  1.
</event>
<event>
 8    1  0.2482403E-006  0.9118800E+02  0.7816164E-02  0.1184000E+00
        -11   -1    0    0    0    0  0.00000000000E+00  0.00000000000E+00  0.45593999997E+02  0.45594000000E+02  0.51100000000E-03 0. -1.
         11   -1    0    0    0    0 -0.00000000000E+00 -0.00000000000E+00 -0.45593999997E+02  0.45594000000E+02  0.51100000000E-03 0.  1.
         23    2    1    2    0    0  0.17763568394E-14  0.11102230246E-14 -0.71054273576E-14  0.91188000000E+02  0.91188000000E+02 0.  0.
    9900012    2    3    3    0    0  0.99104363103E+01  0.15245263303E+01 -0.35429355912E+02  0.54367079470E+02  0.39999989267E+02 0.  0.
         12    1    3    3    0    0 -0.99104363103E+01 -0.15245263303E+01  0.35429355912E+02  0.36820920530E+02  0.00000000000E+00 0. -1.
         11    1    4    4    0    0  0.86519295407E+01 -0.13114824484E+02 -0.15369011919E+02  0.21978649495E+02  0.51100000000E-03 0. -1.
        -11    1    4    4    0    0 -0.72674908438E+01 -0.11460660528E+01 -0.43892519237E+01  0.85671128902E+01  0.51100000000E-03 0.  1.
         12    1    4    4    0    0  0.85259976134E+01  0.15785416867E+02 -0.15671092069E+02  0.23821317084E+02  0.00000000000E+00 0. -1.
</event>
<event>
 8    1  0.2482403E-006  0.9118800E+02  0.7816164E-02  0.1184000E+00
        -11   -1    0    0    0    0  0.00000000000E+00  0.00000000000E+00  0.45593999997E+02  0.45594000000E+02  0.51100000000E-03 0.  1.
         11   -1    0    0    0    0 -0.00000000000E+00 -0.00000000000E+00 -0.45593999997E+02  0.45594000000E+02  0.51100000000E-03 0. -1.
         23    2    1    2    0    0  0.00000000000E+00 -0.35527136788E-14  0.00000000000E+00  0.91188000000E+02  0.91188000000E+02 0.  0.
    9900012    2    3    3    0    0  0.75256545390E+01 -0.22437948076E+02  0.28207840728E+02  0.54367091964E+02  0.40000017750E+02 0.  0.
         12    1    3    3    0    0 -0.75256545390E+01  0.22437948076E+02 -0.28207840728E+02  0.36820908036E+02  0.00000000000E+00 0. -1.
         11    1    4    4    0    0  0.99718169940E+01 -0.25272495431E+02  0.22227909203E+02  0.35102935878E+02  0.51100000000E-03 0.  1.
        -11    1    4    4    0    0  0.18722935505E+01 -0.61164460852E+01 -0.17975754746E+01  0.66443715805E+01  0.51100000000E-03 0. -1.
        -12    1    4    4    0    0 -0.43184560054E+01  0.89509934400E+01  0.77775069990E+01  0.12619784505E+02  0.00000000000E+00 0.  1.
</event>
<event>
 8    1  0.2482403E-006  0.9118800E+02  0.7816164E-02  0.1184000E+00
        -11   -1    0    0    0    0  0.00000000000E+00  0.00000000000E+00  0.45593999997E+02  0.45594000000E+02  0.51100000000E-03 0.  1.
         11   -1    0    0    0    0 -0.00000000000E+00 -0.00000000000E+00 -0.45593999997E+02  0.45594000000E+02  0.51100000000E-03 0. -1.
         23    2    1    2    0    0  0.35527136788E-14  0.35527136788E-14  0.00000000000E+00  0.91188000000E+02  0.91188000000E+02 0.  0.
    9900012    2    3    3    0    0 -0.22425227522E+02 -0.22407370122E+02 -0.18729675848E+02  0.54367057284E+02  0.39999938689E+02 0.  0.
         12    1    3    3    0    0  0.22425227522E+02  0.22407370122E+02  0.18729675848E+02  0.36820942716E+02  0.00000000000E+00 0. -1.
         11    1    4    4    0    0  0.95348623216E+01 -0.28627679278E+01 -0.95842474540E+00  0.10001380802E+02  0.51100000000E-03 0. -1.
        -11    1    4    4    0    0 -0.11706302251E+02 -0.76929982804E+01  0.13808679368E+01  0.14075742661E+02  0.51100000000E-03 0.  1.
         12    1    4    4    0    0 -0.20253787592E+02 -0.11851603913E+02 -0.19152119039E+02  0.30289933820E+02  0.00000000000E+00 0. -1.
</event>
<event>
 8    1  0.2482403E-006  0.9118800E+02  0.7816164E-02  0.1184000E+00
        -11   -1    0    0    0    0  0.00000000000E+00  0.00000000000E+00  0.45593999997E+02  0.45594000000E+02  0.51100000000E-03 0. -1.
         11   -1    0    0    0    0 -0.00000000000E+00 -0.00000000000E+00 -0.45593999997E+02  0.45594000000E+02  0.51100000000E-03 0.  1.
         23    2    1    2    0    0  0.71054273576E-14  0.00000000000E+00  0.00000000000E+00  0.91188000000E+02  0.91188000000E+02 0.  0.
    9900012    2    3    3    0    0 -0.34262496832E+02  0.23648729650E+01 -0.13276666560E+02  0.54367065896E+02  0.39999958324E+02 0.  0.
         12    1    3    3    0    0  0.34262496832E+02 -0.23648729650E+01  0.13276666560E+02  0.36820934104E+02  0.00000000000E+00 0. -1.
         11    1    4    4    0    0 -0.34260708309E+01  0.12980645317E+02  0.10074286579E+01  0.13462913018E+02  0.51100000000E-03 0. -1.
        -11    1    4    4    0    0 -0.53084259042E+01 -0.70733590059E+01 -0.12171402784E+02  0.15045093526E+02  0.51100000000E-03 0.  1.
        -12    1    4    4    0    0 -0.25528000097E+02 -0.35424133456E+01 -0.21126924337E+01  0.25859059352E+02  0.00000000000E+00 0.  1.
</event>
<event>
 8    1  0.2482403E-006  0.9118800E+02  0.7816164E-02  0.1184000E+00
        -11   -1    0    0    0    0  0.00000000000E+00  0.00000000000E+00  0.45593999997E+02  0.45594000000E+02  0.51100000000E-03 0.  1.
         11   -1    0    0    0    0 -0.00000000000E+00 -0.00000000000E+00 -0.45593999997E+02  0.45594000000E+02  0.51100000000E-03 0. -1.
         23    2    1    2    0    0  0.00000000000E+00  0.00000000000E+00  0.00000000000E+00  0.91188000000E+02  0.91188000000E+02 0.  0.
    9900012    2    3    3    0    0  0.67646836807E+01  0.18096238139E+02  0.31345563024E+02  0.54367094235E+02  0.40000022928E+02 0.  0.
         12    1    3    3    0    0 -0.67646836807E+01 -0.18096238139E+02 -0.31345563024E+02  0.36820905765E+02  0.00000000000E+00 0. -1.
         11    1    4    4    0    0 -0.50145742546E+01  0.16897736778E+02  0.44885481413E+01  0.18188637328E+02  0.51100000000E-03 0. -1.
        -11    1    4    4    0    0  0.20399858707E+01 -0.83110084267E+01  0.18022110851E+02  0.19950711346E+02  0.51100000000E-03 0.  1.
         12    1    4    4    0    0  0.97392720647E+01  0.95095097872E+01  0.88349040309E+01  0.16227745561E+02  0.00000000000E+00 0. -1.
</event>
<event>
 8    1  0.2482403E-006  0.9118800E+02  0.7816164E-02  0.1184000E+00
        -11   -1    0    0    0    0  0.00000000000E+00  0.00000000000E+00  0.45593999997E+02  0.45594000000E+02  0.51100000000E-03 0.  1.
         11   -1    0    0    0    0 -0.00000000000E+00 -0.00000000000E+00 -0.45593999997E+02  0.45594000000E+02  0.51100000000E-03 0. -1.
         23    2    1    2    0    0  0.00000000000E+00  0.00000000000E+00  0.00000000000E+00  0.91188000000E+02  0.91188000000E+02 0.  0.
    9900012    2    3    3    0    0  0.72032855066E+01 -0.30830362921E+02  0.18798390999E+02  0.54367107777E+02  0.40000053800E+02 0.  0.
         12    1    3    3    0    0 -0.72032855066E+01  0.30830362921E+02 -0.18798390999E+02  0.36820892223E+02  0.00000000000E+00 0. -1.
         11    1    4    4    0    0 -0.22227199734E+01  0.65475644802E+01 -0.19564329813E+01  0.71860082782E+01  0.51100000000E-03 0. -1.
        -11    1    4    4    0    0 -0.43863952512E+01 -0.93912411537E+01  0.93310568664E+01  0.13946486877E+02  0.51100000000E-03 0.  1.
        -12    1    4    4    0    0  0.13812400731E+02 -0.27986686248E+02  0.11423767114E+02  0.33234612622E+02  0.00000000000E+00 0.  1.
</event>
<event>
 8    1  0.2482403E-006  0.9118800E+02  0.7816164E-02  0.1184000E+00
        -11   -1    0    0    0    0  0.00000000000E+00  0.00000000000E+00  0.45593999997E+02  0.45594000000E+02  0.51100000000E-03 0.  1.
         11   -1    0    0    0    0 -0.00000000000E+00 -0.00000000000E+00 -0.45593999997E+02  0.45594000000E+02  0.51100000000E-03 0. -1.
         23    2    1    2    0    0  0.00000000000E+00  0.00000000000E+00  0.00000000000E+00  0.91188000000E+02  0.91188000000E+02 0.  0.
    9900012    2    3    3    0    0  0.11678484453E+02 -0.65975856363E+01 -0.34290895481E+02  0.54367073229E+02  0.39999975040E+02 0.  0.
        -12    1    3    3    0    0 -0.11678484453E+02  0.65975856363E+01  0.34290895481E+02  0.36820926771E+02  0.00000000000E+00 0.  1.
         11    1    4    4    0    0  0.74373031139E+00  0.41236539075E+01 -0.11677138091E+02  0.12406176308E+02  0.51100000000E-03 0. -1.
        -11    1    4    4    0    0 -0.58092084543E+01 -0.13888424023E+02 -0.19504643965E+02  0.24638716711E+02  0.51100000000E-03 0.  1.
        -12    1    4    4    0    0  0.16743962596E+02  0.31671844790E+01 -0.31091134257E+01  0.17322180210E+02  0.00000000000E+00 0.  1.
</event>
<event>
 8    1  0.2482403E-006  0.9118800E+02  0.7816164E-02  0.1184000E+00
        -11   -1    0    0    0    0  0.00000000000E+00  0.00000000000E+00  0.45593999997E+02  0.45594000000E+02  0.51100000000E-03 0.  1.
         11   -1    0    0    0    0 -0.00000000000E+00 -0.00000000000E+00 -0.45593999997E+02  0.45594000000E+02  0.51100000000E-03 0. -1.
         23    2    1    2    0    0  0.00000000000E+00  0.35527136788E-14  0.88817841970E-15  0.91188000000E+02  0.91188000000E+02 0.  0.
    9900012    2    3    3    0    0  0.19105610267E+02  0.30980739878E+02  0.55632035502E+01  0.54367084466E+02  0.40000000656E+02 0.  0.
         12    1    3    3    0    0 -0.19105610267E+02 -0.30980739878E+02 -0.55632035502E+01  0.36820915534E+02  0.00000000000E+00 0. -1.
         11    1    4    4    0    0  0.28243982161E+02  0.25511631637E+02 -0.29616925162E+01  0.38175090045E+02  0.51100000000E-03 0. -1.
        -11    1    4    4    0    0  0.62708910626E+00  0.34049260689E+01  0.38262011417E+01  0.51600947395E+01  0.51100000000E-03 0.  1.
        -12    1    4    4    0    0 -0.97654610004E+01  0.20641821720E+01  0.46986949247E+01  0.11031899682E+02  0.00000000000E+00 0.  1.
</event>
<event>
 8    1  0.2482403E-006  0.9118800E+02  0.7816164E-02  0.1184000E+00
        -11   -1    0    0    0    0  0.00000000000E+00  0.00000000000E+00  0.45593999997E+02  0.45594000000E+02  0.51100000000E-03 0.  1.
         11   -1    0    0    0    0 -0.00000000000E+00 -0.00000000000E+00 -0.45593999997E+02  0.45594000000E+02  0.51100000000E-03 0. -1.
         23    2    1    2    0    0 -0.17763568394E-14 -0.35527136788E-14  0.00000000000E+00  0.91188000000E+02  0.91188000000E+02 0.  0.
    9900012    2    3    3    0    0 -0.92294154319E+01 -0.24502835050E+02 -0.25888404219E+02  0.54367075138E+02  0.39999979392E+02 0.  0.
        -12    1    3    3    0    0  0.92294154319E+01  0.24502835050E+02  0.25888404219E+02  0.36820924862E+02  0.00000000000E+00 0.  1.
         11    1    4    4    0    0 -0.13370615980E+02 -0.14162284391E+02 -0.32532700224E+00  0.19479463770E+02  0.51100000000E-03 0. -1.
        -11    1    4    4    0    0 -0.20638190455E+01 -0.30625318377E+01  0.30049714100E+01  0.47611242103E+01  0.51100000000E-03 0.  1.
         12    1    4    4    0    0  0.62050195934E+01 -0.72780188215E+01 -0.28568048627E+02  0.30126487158E+02  0.00000000000E+00 0. -1.
</event>
<event>
 8    1  0.2482403E-006  0.9118800E+02  0.7816164E-02  0.1184000E+00
        -11   -1    0    0    0    0  0.00000000000E+00  0.00000000000E+00  0.45593999997E+02  0.45594000000E+02  0.51100000000E-03 0.  1.
         11   -1    0    0    0    0 -0.00000000000E+00 -0.00000000000E+00 -0.45593999997E+02  0.45594000000E+02  0.51100000000E-03 0. -1.
         23    2    1    2    0    0  0.00000000000E+00  0.00000000000E+00 -0.35527136788E-14  0.91188000000E+02  0.91188000000E+02 0.  0.
    9900012    2    3    3    0    0 -0.65199458250E+01 -0.24974812055E+02  0.26258869095E+02  0.54367093753E+02  0.40000021828E+02 0.  0.
         12    1    3    3    0    0  0.65199458250E+01  0.24974812055E+02 -0.26258869095E+02  0.36820906247E+02  0.00000000000E+00 0. -1.
         11    1    4    4    0    0  0.13201565227E+01 -0.73650194132E+01 -0.60469754088E+01  0.96204072708E+01  0.51100000000E-03 0. -1.
        -11    1    4    4    0    0 -0.29576534157E+01 -0.17278442891E+02  0.35011542505E+02  0.39154826156E+02  0.51100000000E-03 0.  1.
        -12    1    4    4    0    0 -0.48824489320E+01 -0.33134975008E+00 -0.27056980008E+01  0.55918603257E+01  0.00000000000E+00 0.  1.
</event>
<event>
 8    1  0.2482403E-006  0.9118800E+02  0.7816164E-02  0.1184000E+00
        -11   -1    0    0    0    0  0.00000000000E+00  0.00000000000E+00  0.45593999997E+02  0.45594000000E+02  0.51100000000E-03 0.  1.
         11   -1    0    0    0    0 -0.00000000000E+00 -0.00000000000E+00 -0.45593999997E+02  0.45594000000E+02  0.51100000000E-03 0. -1.
         23    2    1    2    0    0 -0.35527136788E-14  0.00000000000E+00  0.17763568394E-14  0.91188000000E+02  0.91188000000E+02 0.  0.
    9900012    2    3    3    0    0 -0.27407788231E+02  0.22729891410E+02  0.93777786064E+01  0.54367115290E+02  0.40000070927E+02 0.  0.
         12    1    3    3    0    0  0.27407788231E+02 -0.22729891410E+02 -0.93777786064E+01  0.36820884710E+02  0.00000000000E+00 0. -1.
         11    1    4    4    0    0 -0.63352601174E+01 -0.46865910905E+01 -0.18437102175E+01  0.80931405791E+01  0.51100000000E-03 0. -1.
        -11    1    4    4    0    0 -0.10499708774E+02 -0.29963143589E+00  0.12811578914E+02  0.16567142719E+02  0.51100000000E-03 0.  1.
        -12    1    4    4    0    0 -0.10572819339E+02  0.27716113937E+02 -0.15900900901E+01  0.29706831992E+02  0.00000000000E+00 0.  1.
</event>
<event>
 8    1  0.2482403E-006  0.9118800E+02  0.7816164E-02  0.1184000E+00
        -11   -1    0    0    0    0  0.00000000000E+00  0.00000000000E+00  0.45593999997E+02  0.45594000000E+02  0.51100000000E-03 0. -1.
         11   -1    0    0    0    0 -0.00000000000E+00 -0.00000000000E+00 -0.45593999997E+02  0.45594000000E+02  0.51100000000E-03 0.  1.
         23    2    1    2    0    0  0.00000000000E+00  0.00000000000E+00  0.00000000000E+00  0.91188000000E+02  0.91188000000E+02 0.  0.
    9900012    2    3    3    0    0 -0.17851873612E+02  0.21638122240E+02 -0.23851239020E+02  0.54367091153E+02  0.40000015901E+02 0.  0.
         12    1    3    3    0    0  0.17851873612E+02 -0.21638122240E+02  0.23851239020E+02  0.36820908847E+02  0.00000000000E+00 0. -1.
         11    1    4    4    0    0 -0.62540410768E+01 -0.92642687934E+00  0.35723403444E+01  0.72617430656E+01  0.51100000000E-03 0. -1.
        -11    1    4    4    0    0 -0.87451518348E+01  0.13090444081E+02 -0.32405868274E+02  0.36027457663E+02  0.51100000000E-03 0.  1.
        -12    1    4    4    0    0 -0.28526807002E+01  0.94741050388E+01  0.49822889094E+01  0.11077890424E+02  0.00000000000E+00 0.  1.
</event>
<event>
 8    1  0.2482403E-006  0.9118800E+02  0.7816164E-02  0.1184000E+00
        -11   -1    0    0    0    0  0.00000000000E+00  0.00000000000E+00  0.45593999997E+02  0.45594000000E+02  0.51100000000E-03 0.  1.
         11   -1    0    0    0    0 -0.00000000000E+00 -0.00000000000E+00 -0.45593999997E+02  0.45594000000E+02  0.51100000000E-03 0. -1.
         23    2    1    2    0    0  0.00000000000E+00  0.00000000000E+00  0.00000000000E+00  0.91188000000E+02  0.91188000000E+02 0.  0.
    9900012    2    3    3    0    0  0.27581133089E+02  0.17454411487E+02 -0.17041208081E+02  0.54367107076E+02  0.40000052201E+02 0.  0.
        -12    1    3    3    0    0 -0.27581133089E+02 -0.17454411487E+02  0.17041208081E+02  0.36820892924E+02  0.00000000000E+00 0.  1.
         11    1    4    4    0    0  0.38285629386E+01  0.49133745328E+01  0.49783935075E+01  0.79739291226E+01  0.51100000000E-03 0. -1.
        -11    1    4    4    0    0  0.48985138218E+01  0.14453546283E+02  0.24361073628E+01  0.15454289281E+02  0.51100000000E-03 0.  1.
         12    1    4    4    0    0  0.18854056329E+02 -0.19125093290E+01 -0.24455708951E+02  0.30938888673E+02  0.00000000000E+00 0. -1.
</event>
<event>
 8    1  0.2482403E-006  0.9118800E+02  0.7816164E-02  0.1184000E+00
        -11   -1    0    0    0    0  0.00000000000E+00  0.00000000000E+00  0.45593999997E+02  0.45594000000E+02  0.51100000000E-03 0. -1.
         11   -1    0    0    0    0 -0.00000000000E+00 -0.00000000000E+00 -0.45593999997E+02  0.45594000000E+02  0.51100000000E-03 0.  1.
         23    2    1    2    0    0 -0.71054273576E-14  0.00000000000E+00 -0.35527136788E-14  0.91188000000E+02  0.91188000000E+02 0.  0.
    9900012    2    3    3    0    0  0.32895861101E+02 -0.45027058631E+01  0.15917525157E+02  0.54367086856E+02  0.40000006105E+02 0.  0.
        -12    1    3    3    0    0 -0.32895861101E+02  0.45027058631E+01 -0.15917525157E+02  0.36820913144E+02  0.00000000000E+00 0.  1.
         11    1    4    4    0    0 -0.37776249999E+01  0.36465763870E+01  0.42507491027E+01  0.67555042877E+01  0.51100000000E-03 0. -1.
        -11    1    4    4    0    0 -0.22421704359E+01  0.13969889749E+01 -0.38275829163E+01  0.46507308783E+01  0.51100000000E-03 0.  1.
         12    1    4    4    0    0  0.38915656537E+02 -0.95462712251E+01  0.15494358971E+02  0.42960851690E+02  0.00000000000E+00 0. -1.
</event>
<event>
 8    1  0.2482403E-006  0.9118800E+02  0.7816164E-02  0.1184000E+00
        -11   -1    0    0    0    0  0.00000000000E+00  0.00000000000E+00  0.45593999997E+02  0.45594000000E+02  0.51100000000E-03 0.  1.
         11   -1    0    0    0    0 -0.00000000000E+00 -0.00000000000E+00 -0.45593999997E+02  0.45594000000E+02  0.51100000000E-03 0. -1.
         23    2    1    2    0    0  0.00000000000E+00  0.00000000000E+00  0.88817841970E-15  0.91188000000E+02  0.91188000000E+02 0.  0.
    9900012    2    3    3    0    0  0.35333270060E+02  0.91940059088E+01  0.47757056943E+01  0.54367121647E+02  0.40000085419E+02 0.  0.
        -12    1    3    3    0    0 -0.35333270060E+02 -0.91940059088E+01 -0.47757056943E+01  0.36820878353E+02  0.00000000000E+00 0.  1.
         11    1    4    4    0    0  0.15720357798E+02  0.13712206036E+02  0.42864144959E+01  0.21296187291E+02  0.51100000000E-03 0. -1.
        -11    1    4    4    0    0 -0.11231334479E+01 -0.58810797055E+00 -0.95963337825E+01  0.96797170441E+01  0.51100000000E-03 0.  1.
        -12    1    4    4    0    0  0.20736045710E+02 -0.39300921565E+01  0.10085624981E+02  0.23391217312E+02  0.00000000000E+00 0.  1.
</event>
<event>
 8    1  0.2482403E-006  0.9118800E+02  0.7816164E-02  0.1184000E+00
        -11   -1    0    0    0    0  0.00000000000E+00  0.00000000000E+00  0.45593999997E+02  0.45594000000E+02  0.51100000000E-03 0. -1.
         11   -1    0    0    0    0 -0.00000000000E+00 -0.00000000000E+00 -0.45593999997E+02  0.45594000000E+02  0.51100000000E-03 0.  1.
         23    2    1    2    0    0  0.00000000000E+00  0.00000000000E+00  0.00000000000E+00  0.91188000000E+02  0.91188000000E+02 0.  0.
    9900012    2    3    3    0    0  0.29502625281E+02  0.64814813274E+01  0.21056268168E+02  0.54367069433E+02  0.39999966386E+02 0.  0.
        -12    1    3    3    0    0 -0.29502625281E+02 -0.64814813274E+01 -0.21056268168E+02  0.36820930567E+02  0.00000000000E+00 0.  1.
         11    1    4    4    0    0  0.32306813155E+02 -0.20326445951E+01  0.24007552027E+02  0.40301667148E+02  0.51100000000E-03 0. -1.
        -11    1    4    4    0    0 -0.42929985795E+01  0.89594887892E+01  0.83766796011E+00  0.99701536618E+01  0.51100000000E-03 0.  1.
        -12    1    4    4    0    0  0.14888107052E+01 -0.44536286665E+00 -0.37889518189E+01  0.40952486231E+01  0.00000000000E+00 0.  1.
</event>
<event>
 8    1  0.2482403E-006  0.9118800E+02  0.7816164E-02  0.1184000E+00
        -11   -1    0    0    0    0  0.00000000000E+00  0.00000000000E+00  0.45593999997E+02  0.45594000000E+02  0.51100000000E-03 0.  1.
         11   -1    0    0    0    0 -0.00000000000E+00 -0.00000000000E+00 -0.45593999997E+02  0.45594000000E+02  0.51100000000E-03 0. -1.
         23    2    1    2    0    0 -0.35527136788E-14  0.00000000000E+00  0.00000000000E+00  0.91188000000E+02  0.91188000000E+02 0.  0.
    9900012    2    3    3    0    0 -0.29070544119E+02  0.11630541580E+02  0.19375563457E+02  0.54367102508E+02  0.40000041788E+02 0.  0.
         12    1    3    3    0    0  0.29070544119E+02 -0.11630541580E+02 -0.19375563457E+02  0.36820897492E+02  0.00000000000E+00 0. -1.
         11    1    4    4    0    0 -0.26313277553E+02  0.85249871674E+01  0.48382848220E+01  0.28079761076E+02  0.51100000000E-03 0. -1.
        -11    1    4    4    0    0 -0.12007691199E+02  0.38376353141E+01  0.88758190195E+01  0.15417271362E+02  0.51100000000E-03 0.  1.
         12    1    4    4    0    0  0.92504246332E+01 -0.73208090115E+00  0.56614596159E+01  0.10870070070E+02  0.00000000000E+00 0. -1.
</event>
<event>
 8    1  0.2482403E-006  0.9118800E+02  0.7816164E-02  0.1184000E+00
        -11   -1    0    0    0    0  0.00000000000E+00  0.00000000000E+00  0.45593999997E+02  0.45594000000E+02  0.51100000000E-03 0.  1.
         11   -1    0    0    0    0 -0.00000000000E+00 -0.00000000000E+00 -0.45593999997E+02  0.45594000000E+02  0.51100000000E-03 0. -1.
         23    2    1    2    0    0  0.00000000000E+00  0.44408920985E-15 -0.35527136788E-14  0.91188000000E+02  0.91188000000E+02 0.  0.
    9900012    2    3    3    0    0 -0.25752048385E+02  0.29272844645E+01 -0.26154213142E+02  0.54367083995E+02  0.39999999584E+02 0.  0.
        -12    1    3    3    0    0  0.25752048385E+02 -0.29272844645E+01  0.26154213142E+02  0.36820916005E+02  0.00000000000E+00 0.  1.
         11    1    4    4    0    0  0.18424333231E+00  0.24851149620E+01  0.63196425614E+01  0.67932042767E+01  0.51100000000E-03 0. -1.
        -11    1    4    4    0    0 -0.16417863217E+02  0.64064893392E+01 -0.56726993913E+01  0.18514017849E+02  0.51100000000E-03 0.  1.
         12    1    4    4    0    0 -0.95184285002E+01 -0.59643198366E+01 -0.26801156312E+02  0.29059861870E+02  0.00000000000E+00 0. -1.
</event>
<event>
 8    1  0.2482403E-006  0.9118800E+02  0.7816164E-02  0.1184000E+00
        -11   -1    0    0    0    0  0.00000000000E+00  0.00000000000E+00  0.45593999997E+02  0.45594000000E+02  0.51100000000E-03 0.  1.
         11   -1    0    0    0    0 -0.00000000000E+00 -0.00000000000E+00 -0.45593999997E+02  0.45594000000E+02  0.51100000000E-03 0. -1.
         23    2    1    2    0    0  0.00000000000E+00  0.00000000000E+00  0.00000000000E+00  0.91188000000E+02  0.91188000000E+02 0.  0.
    9900012    2    3    3    0    0 -0.17231307023E+02  0.14284512939E+02 -0.29237206012E+02  0.54367089270E+02  0.40000011608E+02 0.  0.
        -12    1    3    3    0    0  0.17231307023E+02 -0.14284512939E+02  0.29237206012E+02  0.36820910730E+02  0.00000000000E+00 0.  1.
         11    1    4    4    0    0  0.12916592966E+01  0.10993932614E+02  0.12105652903E+01  0.11135546985E+02  0.51100000000E-03 0. -1.
        -11    1    4    4    0    0 -0.10635500163E+01 -0.91709554377E+01 -0.96038310840E+01  0.13321829230E+02  0.51100000000E-03 0.  1.
         12    1    4    4    0    0 -0.17459416304E+02  0.12461535762E+02 -0.20843940218E+02  0.29909713055E+02  0.00000000000E+00 0. -1.
</event>
<event>
 8    1  0.2482403E-006  0.9118800E+02  0.7816164E-02  0.1184000E+00
        -11   -1    0    0    0    0  0.00000000000E+00  0.00000000000E+00  0.45593999997E+02  0.45594000000E+02  0.51100000000E-03 0. -1.
         11   -1    0    0    0    0 -0.00000000000E+00 -0.00000000000E+00 -0.45593999997E+02  0.45594000000E+02  0.51100000000E-03 0.  1.
         23    2    1    2    0    0  0.00000000000E+00  0.00000000000E+00 -0.17763568394E-14  0.91188000000E+02  0.91188000000E+02 0.  0.
    9900012    2    3    3    0    0  0.20215900796E+02  0.29840864118E+02  0.75245877228E+01  0.54367092397E+02  0.40000018737E+02 0.  0.
         12    1    3    3    0    0 -0.20215900796E+02 -0.29840864118E+02 -0.75245877228E+01  0.36820907603E+02  0.00000000000E+00 0. -1.
         11    1    4    4    0    0  0.11374504776E+02  0.15876185167E+02 -0.21158638060E+01  0.19644579259E+02  0.51100000000E-03 0. -1.
        -11    1    4    4    0    0  0.26444597458E+01  0.21781989098E+02  0.11184628512E+02  0.24628116689E+02  0.51100000000E-03 0.  1.
         12    1    4    4    0    0  0.61969362741E+01 -0.78173101466E+01 -0.15441769835E+01  0.10094396449E+02  0.00000000000E+00 0. -1.
</event>
<event>
 8    1  0.2482403E-006  0.9118800E+02  0.7816164E-02  0.1184000E+00
        -11   -1    0    0    0    0  0.00000000000E+00  0.00000000000E+00  0.45593999997E+02  0.45594000000E+02  0.51100000000E-03 0.  1.
         11   -1    0    0    0    0 -0.00000000000E+00 -0.00000000000E+00 -0.45593999997E+02  0.45594000000E+02  0.51100000000E-03 0. -1.
         23    2    1    2    0    0  0.49960036108E-15  0.00000000000E+00  0.00000000000E+00  0.91188000000E+02  0.91188000000E+02 0.  0.
    9900012    2    3    3    0    0 -0.43318244518E+00 -0.35163092123E+02 -0.10915329463E+02  0.54367148408E+02  0.40000146426E+02 0.  0.
         12    1    3    3    0    0  0.43318244518E+00  0.35163092123E+02  0.10915329463E+02  0.36820851592E+02  0.00000000000E+00 0. -1.
         11    1    4    4    0    0 -0.11774885224E+02 -0.24687116135E+01 -0.51659111754E+01  0.13093093507E+02  0.51100000000E-03 0. -1.
        -11    1    4    4    0    0  0.23625478159E+01 -0.21219747103E+02 -0.13002325389E+02  0.24998395250E+02  0.51100000000E-03 0.  1.
         12    1    4    4    0    0  0.89791549624E+01 -0.11474633406E+02  0.72529071012E+01  0.16275659651E+02  0.00000000000E+00 0. -1.
</event>
<event>
 8    1  0.2482403E-006  0.9118800E+02  0.7816164E-02  0.1184000E+00
        -11   -1    0    0    0    0  0.00000000000E+00  0.00000000000E+00  0.45593999997E+02  0.45594000000E+02  0.51100000000E-03 0.  1.
         11   -1    0    0    0    0 -0.00000000000E+00 -0.00000000000E+00 -0.45593999997E+02  0.45594000000E+02  0.51100000000E-03 0. -1.
         23    2    1    2    0    0  0.88817841970E-15 -0.35527136788E-14  0.00000000000E+00  0.91188000000E+02  0.91188000000E+02 0.  0.
    9900012    2    3    3    0    0 -0.77552142635E+01  0.26217054590E+02 -0.24663677542E+02  0.54367159576E+02  0.40000171884E+02 0.  0.
        -12    1    3    3    0    0  0.77552142635E+01 -0.26217054590E+02  0.24663677542E+02  0.36820840424E+02  0.00000000000E+00 0.  1.
         11    1    4    4    0    0 -0.12912488996E+02 -0.63516537754E+01 -0.43900326493E+01  0.15044875030E+02  0.51100000000E-03 0. -1.
        -11    1    4    4    0    0  0.12143757252E+01  0.46124605763E+01 -0.60643131666E+01  0.77152702748E+01  0.51100000000E-03 0.  1.
         12    1    4    4    0    0  0.39428990068E+01  0.27956247789E+02 -0.14209331726E+02  0.31607014271E+02  0.00000000000E+00 0. -1.
</event>
<event>
 8    1  0.2482403E-006  0.9118800E+02  0.7816164E-02  0.1184000E+00
        -11   -1    0    0    0    0  0.00000000000E+00  0.00000000000E+00  0.45593999997E+02  0.45594000000E+02  0.51100000000E-03 0.  1.
         11   -1    0    0    0    0 -0.00000000000E+00 -0.00000000000E+00 -0.45593999997E+02  0.45594000000E+02  0.51100000000E-03 0. -1.
         23    2    1    2    0    0  0.17763568394E-14 -0.35527136788E-14  0.00000000000E+00  0.91188000000E+02  0.91188000000E+02 0.  0.
    9900012    2    3    3    0    0  0.10386909894E+02 -0.16337585058E+02  0.31320521507E+02  0.54367086783E+02  0.40000005939E+02 0.  0.
         12    1    3    3    0    0 -0.10386909894E+02  0.16337585058E+02 -0.31320521507E+02  0.36820913217E+02  0.00000000000E+00 0. -1.
         11    1    4    4    0    0 -0.10267196218E+02 -0.66105476632E+01  0.11824509338E+02  0.16998049298E+02  0.51100000000E-03 0. -1.
        -11    1    4    4    0    0  0.20757131582E+02 -0.10941425355E+02  0.23484910296E+02  0.33198107057E+02  0.51100000000E-03 0.  1.
         12    1    4    4    0    0 -0.10302546961E+00  0.12143879598E+01 -0.39888981269E+01  0.41709304275E+01  0.00000000000E+00 0. -1.
</event>
<event>
 8    1  0.2482403E-006  0.9118800E+02  0.7816164E-02  0.1184000E+00
        -11   -1    0    0    0    0  0.00000000000E+00  0.00000000000E+00  0.45593999997E+02  0.45594000000E+02  0.51100000000E-03 0.  1.
         11   -1    0    0    0    0 -0.00000000000E+00 -0.00000000000E+00 -0.45593999997E+02  0.45594000000E+02  0.51100000000E-03 0. -1.
         23    2    1    2    0    0  0.00000000000E+00  0.00000000000E+00  0.17763568394E-14  0.91188000000E+02  0.91188000000E+02 0.  0.
    9900012    2    3    3    0    0 -0.53510969743E+01 -0.34101463047E+02  0.12815468951E+02  0.54367078430E+02  0.39999986898E+02 0.  0.
         12    1    3    3    0    0  0.53510969743E+01  0.34101463047E+02 -0.12815468951E+02  0.36820921570E+02  0.00000000000E+00 0. -1.
         11    1    4    4    0    0  0.26036198232E+01 -0.64334137842E+01 -0.24810117972E+01  0.73704185025E+01  0.51100000000E-03 0. -1.
        -11    1    4    4    0    0 -0.11855436226E+02  0.27806679282E+01  0.10187907834E+02  0.15876931332E+02  0.51100000000E-03 0.  1.
        -12    1    4    4    0    0  0.39007194280E+01 -0.30448717191E+02  0.51085729143E+01  0.31119728596E+02  0.00000000000E+00 0.  1.
</event>
<event>
 8    1  0.2482403E-006  0.9118800E+02  0.7816164E-02  0.1184000E+00
        -11   -1    0    0    0    0  0.00000000000E+00  0.00000000000E+00  0.45593999997E+02  0.45594000000E+02  0.51100000000E-03 0.  1.
         11   -1    0    0    0    0 -0.00000000000E+00 -0.00000000000E+00 -0.45593999997E+02  0.45594000000E+02  0.51100000000E-03 0. -1.
         23    2    1    2    0    0  0.00000000000E+00  0.00000000000E+00  0.00000000000E+00  0.91188000000E+02  0.91188000000E+02 0.  0.
    9900012    2    3    3    0    0  0.16288050000E+02  0.23014022721E+02  0.23681876845E+02  0.54367121337E+02  0.40000084712E+02 0.  0.
         12    1    3    3    0    0 -0.16288050000E+02 -0.23014022721E+02 -0.23681876845E+02  0.36820878663E+02  0.00000000000E+00 0. -1.
         11    1    4    4    0    0  0.17106942393E+02  0.10725432511E+02  0.34129266484E+01  0.20477559648E+02  0.51100000000E-03 0.  1.
        -11    1    4    4    0    0  0.57480260321E+01  0.49780683967E+01 -0.33489670769E+01  0.83088235612E+01  0.51100000000E-03 0. -1.
         12    1    4    4    0    0 -0.65669184254E+01  0.73105218133E+01  0.23617917274E+02  0.25580738127E+02  0.00000000000E+00 0. -1.
</event>
<event>
 8    1  0.2482403E-006  0.9118800E+02  0.7816164E-02  0.1184000E+00
        -11   -1    0    0    0    0  0.00000000000E+00  0.00000000000E+00  0.45593999997E+02  0.45594000000E+02  0.51100000000E-03 0. -1.
         11   -1    0    0    0    0 -0.00000000000E+00 -0.00000000000E+00 -0.45593999997E+02  0.45594000000E+02  0.51100000000E-03 0.  1.
         23    2    1    2    0    0  0.35527136788E-14  0.00000000000E+00  0.35527136788E-14  0.91188000000E+02  0.91188000000E+02 0.  0.
    9900012    2    3    3    0    0  0.29209804770E+02 -0.14422931557E+02 -0.17162354112E+02  0.54367081379E+02  0.39999993620E+02 0.  0.
         12    1    3    3    0    0 -0.29209804770E+02  0.14422931557E+02  0.17162354112E+02  0.36820918621E+02  0.00000000000E+00 0. -1.
         11    1    4    4    0    0  0.71744202788E+01 -0.18642269271E+02 -0.22268735449E+02  0.29914930865E+02  0.51100000000E-03 0. -1.
        -11    1    4    4    0    0  0.53375121258E+01 -0.20936049133E+01 -0.46313536710E+00  0.57521049934E+01  0.51100000000E-03 0.  1.
         12    1    4    4    0    0  0.16697872366E+02  0.63129426268E+01  0.55695167044E+01  0.18700045521E+02  0.00000000000E+00 0. -1.
</event>
<event>
 8    1  0.2482403E-006  0.9118800E+02  0.7816164E-02  0.1184000E+00
        -11   -1    0    0    0    0  0.00000000000E+00  0.00000000000E+00  0.45593999997E+02  0.45594000000E+02  0.51100000000E-03 0.  1.
         11   -1    0    0    0    0 -0.00000000000E+00 -0.00000000000E+00 -0.45593999997E+02  0.45594000000E+02  0.51100000000E-03 0. -1.
         23    2    1    2    0    0  0.00000000000E+00 -0.17763568394E-14  0.00000000000E+00  0.91188000000E+02  0.91188000000E+02 0.  0.
    9900012    2    3    3    0    0 -0.33043765201E+02  0.93633669578E+01 -0.13274689395E+02  0.54367076085E+02  0.39999981550E+02 0.  0.
        -12    1    3    3    0    0  0.33043765201E+02 -0.93633669578E+01  0.13274689395E+02  0.36820923915E+02  0.00000000000E+00 0.  1.
         11    1    4    4    0    0 -0.33632241167E+02  0.16104216260E+02 -0.11874611738E+02  0.39134126175E+02  0.51100000000E-03 0. -1.
        -11    1    4    4    0    0 -0.24895722836E+01 -0.33461635468E+01 -0.69071813331E+01  0.80687009405E+01  0.51100000000E-03 0.  1.
         12    1    4    4    0    0  0.30780482498E+01 -0.33946857555E+01  0.55071036754E+01  0.71642489696E+01  0.00000000000E+00 0. -1.
</event>
<event>
 8    1  0.2482403E-006  0.9118800E+02  0.7816164E-02  0.1184000E+00
        -11   -1    0    0    0    0  0.00000000000E+00  0.00000000000E+00  0.45593999997E+02  0.45594000000E+02  0.51100000000E-03 0.  1.
         11   -1    0    0    0    0 -0.00000000000E+00 -0.00000000000E+00 -0.45593999997E+02  0.45594000000E+02  0.51100000000E-03 0. -1.
         23    2    1    2    0    0  0.00000000000E+00  0.35527136788E-14  0.35527136788E-14  0.91188000000E+02  0.91188000000E+02 0.  0.
    9900012    2    3    3    0    0 -0.12655248533E+02 -0.22250207761E+02 -0.26467959512E+02  0.54367082825E+02  0.39999996917E+02 0.  0.
        -12    1    3    3    0    0  0.12655248533E+02  0.22250207761E+02  0.26467959512E+02  0.36820917175E+02  0.00000000000E+00 0.  1.
         11    1    4    4    0    0 -0.71072748653E+01 -0.25113548449E+02 -0.67296666824E+01  0.26953517129E+02  0.51100000000E-03 0. -1.
        -11    1    4    4    0    0 -0.11456936672E+02  0.42299974099E+01 -0.16530184034E+02  0.20552402790E+02  0.51100000000E-03 0.  1.
        -12    1    4    4    0    0  0.59089630043E+01 -0.13666567224E+01 -0.32081087956E+01  0.68611629063E+01  0.00000000000E+00 0.  1.
</event>
<event>
 8    1  0.2482403E-006  0.9118800E+02  0.7816164E-02  0.1184000E+00
        -11   -1    0    0    0    0  0.00000000000E+00  0.00000000000E+00  0.45593999997E+02  0.45594000000E+02  0.51100000000E-03 0. -1.
         11   -1    0    0    0    0 -0.00000000000E+00 -0.00000000000E+00 -0.45593999997E+02  0.45594000000E+02  0.51100000000E-03 0.  1.
         23    2    1    2    0    0  0.00000000000E+00 -0.17763568394E-14  0.00000000000E+00  0.91188000000E+02  0.91188000000E+02 0.  0.
    9900012    2    3    3    0    0  0.11149121961E+02  0.12956617398E+02  0.32612922089E+02  0.54367088250E+02  0.40000009284E+02 0.  0.
        -12    1    3    3    0    0 -0.11149121961E+02 -0.12956617398E+02 -0.32612922089E+02  0.36820911750E+02  0.00000000000E+00 0.  1.
         11    1    4    4    0    0  0.11731770245E+02 -0.27433378772E+01  0.65562993887E+01  0.13716610286E+02  0.51100000000E-03 0. -1.
        -11    1    4    4    0    0  0.69391661656E+01  0.19881034882E+02  0.12191852955E+02  0.24332054040E+02  0.51100000000E-03 0.  1.
        -12    1    4    4    0    0 -0.75218144501E+01 -0.41810796064E+01  0.13864769746E+02  0.16318423925E+02  0.00000000000E+00 0.  1.
</event>
<event>
 8    1  0.2482403E-006  0.9118800E+02  0.7816164E-02  0.1184000E+00
        -11   -1    0    0    0    0  0.00000000000E+00  0.00000000000E+00  0.45593999997E+02  0.45594000000E+02  0.51100000000E-03 0.  1.
         11   -1    0    0    0    0 -0.00000000000E+00 -0.00000000000E+00 -0.45593999997E+02  0.45594000000E+02  0.51100000000E-03 0. -1.
         23    2    1    2    0    0  0.00000000000E+00  0.22204460493E-15  0.00000000000E+00  0.91188000000E+02  0.91188000000E+02 0.  0.
    9900012    2    3    3    0    0 -0.17971148510E+02  0.16005947973E+01  0.32097556620E+02  0.54367119735E+02  0.40000081060E+02 0.  0.
         12    1    3    3    0    0  0.17971148510E+02 -0.16005947973E+01 -0.32097556620E+02  0.36820880265E+02  0.00000000000E+00 0. -1.
         11    1    4    4    0    0 -0.36162554425E+01  0.10383304727E+01  0.15551634427E+02  0.16000273973E+02  0.51100000000E-03 0. -1.
        -11    1    4    4    0    0  0.99286704867E+01 -0.74373227540E+00  0.73166188376E+01  0.12355749545E+02  0.51100000000E-03 0.  1.
        -12    1    4    4    0    0 -0.24283563554E+02  0.13059965999E+01  0.92293033559E+01  0.26011096218E+02  0.00000000000E+00 0.  1.
</event>
<event>
 8    1  0.2482403E-006  0.9118800E+02  0.7816164E-02  0.1184000E+00
        -11   -1    0    0    0    0  0.00000000000E+00  0.00000000000E+00  0.45593999997E+02  0.45594000000E+02  0.51100000000E-03 0.  1.
         11   -1    0    0    0    0 -0.00000000000E+00 -0.00000000000E+00 -0.45593999997E+02  0.45594000000E+02  0.51100000000E-03 0. -1.
         23    2    1    2    0    0  0.00000000000E+00  0.17763568394E-14  0.35527136788E-14  0.91188000000E+02  0.91188000000E+02 0.  0.
    9900012    2    3    3    0    0 -0.27827954185E+02  0.10306300295E+02  0.21798315130E+02  0.54367062988E+02  0.39999951695E+02 0.  0.
         12    1    3    3    0    0  0.27827954185E+02 -0.10306300295E+02 -0.21798315130E+02  0.36820937012E+02  0.00000000000E+00 0. -1.
         11    1    4    4    0    0  0.88511868562E+01  0.69519121779E+01  0.22092337036E+00  0.11257059966E+02  0.51100000000E-03 0. -1.
        -11    1    4    4    0    0 -0.15446617605E+02  0.20684199334E+01  0.58110851995E+01  0.16632650658E+02  0.51100000000E-03 0.  1.
        -12    1    4    4    0    0 -0.21232523436E+02  0.12859681839E+01  0.15766306560E+02  0.26477352364E+02  0.00000000000E+00 0.  1.
</event>
<event>
 8    1  0.2482403E-006  0.9118800E+02  0.7816164E-02  0.1184000E+00
        -11   -1    0    0    0    0  0.00000000000E+00  0.00000000000E+00  0.45593999997E+02  0.45594000000E+02  0.51100000000E-03 0. -1.
         11   -1    0    0    0    0 -0.00000000000E+00 -0.00000000000E+00 -0.45593999997E+02  0.45594000000E+02  0.51100000000E-03 0.  1.
         23    2    1    2    0    0 -0.26645352591E-14 -0.88817841970E-15  0.00000000000E+00  0.91188000000E+02  0.91188000000E+02 0.  0.
    9900012    2    3    3    0    0 -0.53333903579E+01 -0.50113837477E+01  0.36086288734E+02  0.54367092157E+02  0.40000018191E+02 0.  0.
        -12    1    3    3    0    0  0.53333903579E+01  0.50113837477E+01 -0.36086288734E+02  0.36820907843E+02  0.00000000000E+00 0.  1.
         11    1    4    4    0    0 -0.12317285795E+02 -0.62569514196E+01  0.21490982701E+02  0.25548528493E+02  0.51100000000E-03 0. -1.
        -11    1    4    4    0    0  0.13752968062E+02  0.67038574939E+01  0.12780597231E+02  0.19935633967E+02  0.51100000000E-03 0.  1.
        -12    1    4    4    0    0 -0.67690726247E+01 -0.54582898220E+01  0.18147088018E+01  0.88829296977E+01  0.00000000000E+00 0.  1.
</event>
<event>
 8    1  0.2482403E-006  0.9118800E+02  0.7816164E-02  0.1184000E+00
        -11   -1    0    0    0    0  0.00000000000E+00  0.00000000000E+00  0.45593999997E+02  0.45594000000E+02  0.51100000000E-03 0. -1.
         11   -1    0    0    0    0 -0.00000000000E+00 -0.00000000000E+00 -0.45593999997E+02  0.45594000000E+02  0.51100000000E-03 0.  1.
         23    2    1    2    0    0  0.35527136788E-14  0.00000000000E+00  0.00000000000E+00  0.91188000000E+02  0.91188000000E+02 0.  0.
    9900012    2    3    3    0    0  0.16568309861E+02  0.26483725042E+02  0.19490599766E+02  0.54367081177E+02  0.39999993159E+02 0.  0.
        -12    1    3    3    0    0 -0.16568309861E+02 -0.26483725042E+02 -0.19490599766E+02  0.36820918823E+02  0.00000000000E+00 0.  1.
         11    1    4    4    0    0  0.28670005894E+01 -0.27832074318E+01  0.12161823077E+02  0.12801401361E+02  0.51100000000E-03 0. -1.
        -11    1    4    4    0    0  0.28145121808E+01  0.15096575970E+02 -0.86229272278E+01  0.17612011784E+02  0.51100000000E-03 0.  1.
        -12    1    4    4    0    0  0.10886797091E+02  0.14170356503E+02  0.15951703918E+02  0.23953668032E+02  0.00000000000E+00 0.  1.
</event>
<event>
 8    1  0.2482403E-006  0.9118800E+02  0.7816164E-02  0.1184000E+00
        -11   -1    0    0    0    0  0.00000000000E+00  0.00000000000E+00  0.45593999997E+02  0.45594000000E+02  0.51100000000E-03 0. -1.
         11   -1    0    0    0    0 -0.00000000000E+00 -0.00000000000E+00 -0.45593999997E+02  0.45594000000E+02  0.51100000000E-03 0.  1.
         23    2    1    2    0    0  0.00000000000E+00  0.00000000000E+00  0.00000000000E+00  0.91188000000E+02  0.91188000000E+02 0.  0.
    9900012    2    3    3    0    0  0.27196684822E+02 -0.10625537084E+02  0.22432528438E+02  0.54367081547E+02  0.39999994003E+02 0.  0.
        -12    1    3    3    0    0 -0.27196684822E+02  0.10625537084E+02 -0.22432528438E+02  0.36820918453E+02  0.00000000000E+00 0.  1.
         11    1    4    4    0    0  0.22491611205E+01 -0.31097456366E+01  0.31465623989E+01  0.49628720376E+01  0.51100000000E-03 0. -1.
        -11    1    4    4    0    0  0.25068441544E+02 -0.20031462840E+02  0.93487811151E+01  0.33422836109E+02  0.51100000000E-03 0.  1.
         12    1    4    4    0    0 -0.12091784332E+00  0.12515671393E+02  0.99371849241E+01  0.15981373400E+02  0.00000000000E+00 0. -1.
</event>
<event>
 8    1  0.2482403E-006  0.9118800E+02  0.7816164E-02  0.1184000E+00
        -11   -1    0    0    0    0  0.00000000000E+00  0.00000000000E+00  0.45593999997E+02  0.45594000000E+02  0.51100000000E-03 0. -1.
         11   -1    0    0    0    0 -0.00000000000E+00 -0.00000000000E+00 -0.45593999997E+02  0.45594000000E+02  0.51100000000E-03 0.  1.
         23    2    1    2    0    0  0.00000000000E+00  0.00000000000E+00  0.35527136788E-14  0.91188000000E+02  0.91188000000E+02 0.  0.
    9900012    2    3    3    0    0 -0.41647761531E+01  0.28560308828E+02 -0.22863642715E+02  0.54367044568E+02  0.39999909701E+02 0.  0.
         12    1    3    3    0    0  0.41647761531E+01 -0.28560308828E+02  0.22863642715E+02  0.36820955432E+02  0.00000000000E+00 0. -1.
         11    1    4    4    0    0 -0.28771272136E+01 -0.18465654652E+01 -0.91963790750E+01  0.98112717511E+01  0.51100000000E-03 0.  1.
        -11    1    4    4    0    0 -0.14638185884E+02  0.99817557602E+01 -0.83278195562E+01  0.19577142612E+02  0.51100000000E-03 0. -1.
         12    1    4    4    0    0  0.13350536944E+02  0.20425118533E+02 -0.53394440834E+01  0.24978630205E+02  0.00000000000E+00 0. -1.
</event>
<event>
 8    1  0.2482403E-006  0.9118800E+02  0.7816164E-02  0.1184000E+00
        -11   -1    0    0    0    0  0.00000000000E+00  0.00000000000E+00  0.45593999997E+02  0.45594000000E+02  0.51100000000E-03 0. -1.
         11   -1    0    0    0    0 -0.00000000000E+00 -0.00000000000E+00 -0.45593999997E+02  0.45594000000E+02  0.51100000000E-03 0.  1.
         23    2    1    2    0    0  0.00000000000E+00  0.88817841970E-15  0.00000000000E+00  0.91188000000E+02  0.91188000000E+02 0.  0.
    9900012    2    3    3    0    0  0.27608442454E+02  0.78498103948E+01  0.23063720475E+02  0.54367070896E+02  0.39999969721E+02 0.  0.
        -12    1    3    3    0    0 -0.27608442454E+02 -0.78498103948E+01 -0.23063720475E+02  0.36820929104E+02  0.00000000000E+00 0.  1.
         11    1    4    4    0    0  0.54877952717E+01  0.56182461870E+01  0.18462552320E+02  0.20063559644E+02  0.51100000000E-03 0. -1.
        -11    1    4    4    0    0 -0.18922880044E+01  0.75740677673E+01  0.57198596211E+01  0.96780189492E+01  0.51100000000E-03 0.  1.
         12    1    4    4    0    0  0.24012935186E+02 -0.53425035595E+01 -0.11186914658E+01  0.24625492303E+02  0.00000000000E+00 0. -1.
</event>
<event>
 8    1  0.2482403E-006  0.9118800E+02  0.7816164E-02  0.1184000E+00
        -11   -1    0    0    0    0  0.00000000000E+00  0.00000000000E+00  0.45593999997E+02  0.45594000000E+02  0.51100000000E-03 0.  1.
         11   -1    0    0    0    0 -0.00000000000E+00 -0.00000000000E+00 -0.45593999997E+02  0.45594000000E+02  0.51100000000E-03 0. -1.
         23    2    1    2    0    0  0.00000000000E+00  0.00000000000E+00 -0.35527136788E-14  0.91188000000E+02  0.91188000000E+02 0.  0.
    9900012    2    3    3    0    0  0.28859854195E+02 -0.93714686983E+01  0.20858166830E+02  0.54367099234E+02  0.40000034324E+02 0.  0.
         12    1    3    3    0    0 -0.28859854195E+02  0.93714686983E+01 -0.20858166830E+02  0.36820900766E+02  0.00000000000E+00 0. -1.
         11    1    4    4    0    0  0.33098731408E+01 -0.60444362695E+01 -0.35443713612E+01  0.77493895651E+01  0.51100000000E-03 0. -1.
        -11    1    4    4    0    0  0.28701337415E+02 -0.36707106745E+01  0.29043678330E+02  0.40997269878E+02  0.51100000000E-03 0.  1.
        -12    1    4    4    0    0 -0.31513563605E+01  0.34367824567E+00 -0.46411401394E+01  0.56204397907E+01  0.00000000000E+00 0.  1.
</event>
<event>
 8    1  0.2482403E-006  0.9118800E+02  0.7816164E-02  0.1184000E+00
        -11   -1    0    0    0    0  0.00000000000E+00  0.00000000000E+00  0.45593999997E+02  0.45594000000E+02  0.51100000000E-03 0. -1.
         11   -1    0    0    0    0 -0.00000000000E+00 -0.00000000000E+00 -0.45593999997E+02  0.45594000000E+02  0.51100000000E-03 0.  1.
         23    2    1    2    0    0 -0.17763568394E-14  0.00000000000E+00  0.17763568394E-14  0.91188000000E+02  0.91188000000E+02 0.  0.
    9900012    2    3    3    0    0  0.57121708247E+01  0.35866248360E+02  0.60632834609E+01  0.54367081037E+02  0.39999992841E+02 0.  0.
         12    1    3    3    0    0 -0.57121708247E+01 -0.35866248360E+02 -0.60632834609E+01  0.36820918963E+02  0.00000000000E+00 0. -1.
         11    1    4    4    0    0  0.12719221482E+02  0.16790031805E+02 -0.55410558144E+00  0.21071089112E+02  0.51100000000E-03 0. -1.
        -11    1    4    4    0    0 -0.14008453234E+02  0.15110163649E+02  0.11781114531E+02  0.23734962973E+02  0.51100000000E-03 0.  1.
        -12    1    4    4    0    0  0.70014025772E+01  0.39660529061E+01 -0.51637254883E+01  0.95610289520E+01  0.00000000000E+00 0.  1.
</event>
<event>
 8    1  0.2482403E-006  0.9118800E+02  0.7816164E-02  0.1184000E+00
        -11   -1    0    0    0    0  0.00000000000E+00  0.00000000000E+00  0.45593999997E+02  0.45594000000E+02  0.51100000000E-03 0. -1.
         11   -1    0    0    0    0 -0.00000000000E+00 -0.00000000000E+00 -0.45593999997E+02  0.45594000000E+02  0.51100000000E-03 0.  1.
         23    2    1    2    0    0  0.00000000000E+00  0.00000000000E+00  0.00000000000E+00  0.91188000000E+02  0.91188000000E+02 0.  0.
    9900012    2    3    3    0    0 -0.11249796182E+02 -0.17222310719E+02 -0.30538707465E+02  0.54367101664E+02  0.40000039863E+02 0.  0.
         12    1    3    3    0    0  0.11249796182E+02  0.17222310719E+02  0.30538707465E+02  0.36820898336E+02  0.00000000000E+00 0. -1.
         11    1    4    4    0    0 -0.11983890151E+01  0.10372775288E+02 -0.26107915588E+01  0.10763216816E+02  0.51100000000E-03 0. -1.
        -11    1    4    4    0    0 -0.14003663747E+01  0.18499793035E+01 -0.42490209231E+01  0.48412424513E+01  0.51100000000E-03 0.  1.
        -12    1    4    4    0    0 -0.86510407927E+01 -0.29445065310E+02 -0.23678894984E+02  0.38762642396E+02  0.00000000000E+00 0.  1.
</event>
<event>
 8    1  0.2482403E-006  0.9118800E+02  0.7816164E-02  0.1184000E+00
        -11   -1    0    0    0    0  0.00000000000E+00  0.00000000000E+00  0.45593999997E+02  0.45594000000E+02  0.51100000000E-03 0. -1.
         11   -1    0    0    0    0 -0.00000000000E+00 -0.00000000000E+00 -0.45593999997E+02  0.45594000000E+02  0.51100000000E-03 0.  1.
         23    2    1    2    0    0  0.00000000000E+00  0.00000000000E+00  0.00000000000E+00  0.91188000000E+02  0.91188000000E+02 0.  0.
    9900012    2    3    3    0    0  0.22558589933E+02  0.78451043985E+01  0.28023997362E+02  0.54367081069E+02  0.39999992913E+02 0.  0.
        -12    1    3    3    0    0 -0.22558589933E+02 -0.78451043985E+01 -0.28023997362E+02  0.36820918931E+02  0.00000000000E+00 0.  1.
         11    1    4    4    0    0  0.21066032036E+02  0.82494035455E+00  0.13156820237E+02  0.24850757560E+02  0.51100000000E-03 0. -1.
        -11    1    4    4    0    0 -0.23483574574E+01 -0.88489923836E+01  0.58453002045E+01  0.10862181351E+02  0.51100000000E-03 0.  1.
        -12    1    4    4    0    0  0.38409153546E+01  0.15869156427E+02  0.90218769205E+01  0.18654142158E+02  0.00000000000E+00 0.  1.
</event>
<event>
 8    1  0.2482403E-006  0.9118800E+02  0.7816164E-02  0.1184000E+00
        -11   -1    0    0    0    0  0.00000000000E+00  0.00000000000E+00  0.45593999997E+02  0.45594000000E+02  0.51100000000E-03 0.  1.
         11   -1    0    0    0    0 -0.00000000000E+00 -0.00000000000E+00 -0.45593999997E+02  0.45594000000E+02  0.51100000000E-03 0. -1.
         23    2    1    2    0    0  0.00000000000E+00  0.00000000000E+00  0.00000000000E+00  0.91188000000E+02  0.91188000000E+02 0.  0.
    9900012    2    3    3    0    0  0.27990673883E+02 -0.13494459347E+02  0.19753515208E+02  0.54367087184E+02  0.40000006854E+02 0.  0.
         12    1    3    3    0    0 -0.27990673883E+02  0.13494459347E+02 -0.19753515208E+02  0.36820912816E+02  0.00000000000E+00 0. -1.
         11    1    4    4    0    0  0.34133765235E+02 -0.23853916027E+01  0.14319338691E+02  0.37092418134E+02  0.51100000000E-03 0. -1.
        -11    1    4    4    0    0 -0.30111036599E+00 -0.20891203701E+01  0.61521628200E+01  0.65041678176E+01  0.51100000000E-03 0.  1.
         12    1    4    4    0    0 -0.58419809858E+01 -0.90199473740E+01 -0.71798630347E+00  0.10770501233E+02  0.00000000000E+00 0. -1.
</event>
<event>
 8    1  0.2482403E-006  0.9118800E+02  0.7816164E-02  0.1184000E+00
        -11   -1    0    0    0    0  0.00000000000E+00  0.00000000000E+00  0.45593999997E+02  0.45594000000E+02  0.51100000000E-03 0.  1.
         11   -1    0    0    0    0 -0.00000000000E+00 -0.00000000000E+00 -0.45593999997E+02  0.45594000000E+02  0.51100000000E-03 0. -1.
         23    2    1    2    0    0  0.00000000000E+00  0.00000000000E+00  0.35527136788E-14  0.91188000000E+02  0.91188000000E+02 0.  0.
    9900012    2    3    3    0    0  0.18220143213E+02 -0.12035054056E+02  0.29647331977E+02  0.54367076082E+02  0.39999981544E+02 0.  0.
        -12    1    3    3    0    0 -0.18220143213E+02  0.12035054056E+02 -0.29647331977E+02  0.36820923918E+02  0.00000000000E+00 0.  1.
         11    1    4    4    0    0  0.20293990611E+02 -0.12050347354E+02  0.16458791789E+01  0.23659371184E+02  0.51100000000E-03 0. -1.
        -11    1    4    4    0    0  0.26104804463E+01 -0.30431409538E+01  0.27939255788E+01  0.48868533256E+01  0.51100000000E-03 0.  1.
        -12    1    4    4    0    0 -0.46843278446E+01  0.30584342517E+01  0.25207527219E+02  0.25820851572E+02  0.00000000000E+00 0.  1.
</event>
<event>
 8    1  0.2482403E-006  0.9118800E+02  0.7816164E-02  0.1184000E+00
        -11   -1    0    0    0    0  0.00000000000E+00  0.00000000000E+00  0.45593999997E+02  0.45594000000E+02  0.51100000000E-03 0.  1.
         11   -1    0    0    0    0 -0.00000000000E+00 -0.00000000000E+00 -0.45593999997E+02  0.45594000000E+02  0.51100000000E-03 0. -1.
         23    2    1    2    0    0 -0.71054273576E-14  0.00000000000E+00  0.35527136788E-14  0.91188000000E+02  0.91188000000E+02 0.  0.
    9900012    2    3    3    0    0 -0.30971760460E+02  0.10171511817E+02 -0.17119302959E+02  0.54367080233E+02  0.39999991008E+02 0.  0.
        -12    1    3    3    0    0  0.30971760460E+02 -0.10171511817E+02  0.17119302959E+02  0.36820919767E+02  0.00000000000E+00 0.  1.
         11    1    4    4    0    0 -0.96282772381E+01  0.69540088179E+01 -0.98007399785E+01  0.15398586481E+02  0.51100000000E-03 0. -1.
        -11    1    4    4    0    0  0.10821941446E+01  0.34127931117E+01  0.10007553672E+02  0.10628707906E+02  0.51100000000E-03 0.  1.
        -12    1    4    4    0    0 -0.22425677367E+02 -0.19529011268E+00 -0.17326116653E+02  0.28339785847E+02  0.00000000000E+00 0.  1.
</event>
<event>
 8    1  0.2482403E-006  0.9118800E+02  0.7816164E-02  0.1184000E+00
        -11   -1    0    0    0    0  0.00000000000E+00  0.00000000000E+00  0.45593999997E+02  0.45594000000E+02  0.51100000000E-03 0. -1.
         11   -1    0    0    0    0 -0.00000000000E+00 -0.00000000000E+00 -0.45593999997E+02  0.45594000000E+02  0.51100000000E-03 0.  1.
         23    2    1    2    0    0 -0.17763568394E-14  0.35527136788E-14  0.00000000000E+00  0.91188000000E+02  0.91188000000E+02 0.  0.
    9900012    2    3    3    0    0 -0.11942652781E+02 -0.23149664851E+02 -0.26023947248E+02  0.54367085176E+02  0.40000002275E+02 0.  0.
         12    1    3    3    0    0  0.11942652781E+02  0.23149664851E+02  0.26023947248E+02  0.36820914824E+02  0.00000000000E+00 0. -1.
         11    1    4    4    0    0 -0.11847904660E+02  0.13829765307E+01 -0.57638994539E+00  0.11942265050E+02  0.51100000000E-03 0. -1.
        -11    1    4    4    0    0  0.11192559870E+02 -0.17076017666E+02 -0.15235503269E+02  0.25475170969E+02  0.51100000000E-03 0.  1.
        -12    1    4    4    0    0 -0.11287307992E+02 -0.74566237156E+01 -0.10212054034E+02  0.16949649156E+02  0.00000000000E+00 0.  1.
</event>
<event>
 8    1  0.2482403E-006  0.9118800E+02  0.7816164E-02  0.1184000E+00
        -11   -1    0    0    0    0  0.00000000000E+00  0.00000000000E+00  0.45593999997E+02  0.45594000000E+02  0.51100000000E-03 0.  1.
         11   -1    0    0    0    0 -0.00000000000E+00 -0.00000000000E+00 -0.45593999997E+02  0.45594000000E+02  0.51100000000E-03 0. -1.
         23    2    1    2    0    0  0.00000000000E+00  0.00000000000E+00  0.00000000000E+00  0.91188000000E+02  0.91188000000E+02 0.  0.
    9900012    2    3    3    0    0  0.25027977046E+02 -0.22740223247E+02 -0.14569136137E+02  0.54367121193E+02  0.40000084384E+02 0.  0.
        -12    1    3    3    0    0 -0.25027977046E+02  0.22740223247E+02  0.14569136137E+02  0.36820878807E+02  0.00000000000E+00 0.  1.
         11    1    4    4    0    0  0.21385301455E+02 -0.32889968891E+01 -0.54568851706E+01  0.22314260348E+02  0.51100000000E-03 0.  1.
        -11    1    4    4    0    0 -0.42201833596E+01 -0.49584757900E+01 -0.13502166345E+02  0.14990160974E+02  0.51100000000E-03 0. -1.
        -12    1    4    4    0    0  0.78628589506E+01 -0.14492750568E+02  0.43899153785E+01  0.17062699872E+02  0.00000000000E+00 0.  1.
</event>
<event>
 8    1  0.2482403E-006  0.9118800E+02  0.7816164E-02  0.1184000E+00
        -11   -1    0    0    0    0  0.00000000000E+00  0.00000000000E+00  0.45593999997E+02  0.45594000000E+02  0.51100000000E-03 0.  1.
         11   -1    0    0    0    0 -0.00000000000E+00 -0.00000000000E+00 -0.45593999997E+02  0.45594000000E+02  0.51100000000E-03 0. -1.
         23    2    1    2    0    0 -0.35527136788E-14  0.00000000000E+00  0.00000000000E+00  0.91188000000E+02  0.91188000000E+02 0.  0.
    9900012    2    3    3    0    0  0.28264890176E+02 -0.22298821945E+02 -0.77226255070E+01  0.54367076308E+02  0.39999982059E+02 0.  0.
        -12    1    3    3    0    0 -0.28264890176E+02  0.22298821945E+02  0.77226255070E+01  0.36820923692E+02  0.00000000000E+00 0.  1.
         11    1    4    4    0    0  0.25354408319E+02 -0.49503252075E+01 -0.17331397310E+02  0.31108344119E+02  0.51100000000E-03 0. -1.
        -11    1    4    4    0    0  0.39251215932E+01 -0.97094980626E+01 -0.57418523874E+00  0.10488594810E+02  0.51100000000E-03 0.  1.
         12    1    4    4    0    0 -0.10146397361E+01 -0.76389986750E+01  0.10182957041E+02  0.12770137378E+02  0.00000000000E+00 0. -1.
</event>
<event>
 8    1  0.2482403E-006  0.9118800E+02  0.7816164E-02  0.1184000E+00
        -11   -1    0    0    0    0  0.00000000000E+00  0.00000000000E+00  0.45593999997E+02  0.45594000000E+02  0.51100000000E-03 0. -1.
         11   -1    0    0    0    0 -0.00000000000E+00 -0.00000000000E+00 -0.45593999997E+02  0.45594000000E+02  0.51100000000E-03 0.  1.
         23    2    1    2    0    0  0.00000000000E+00 -0.17763568394E-14  0.00000000000E+00  0.91188000000E+02  0.91188000000E+02 0.  0.
    9900012    2    3    3    0    0 -0.56514899966E+01  0.11592731136E+02 -0.34488388988E+02  0.54367085707E+02  0.40000003486E+02 0.  0.
         12    1    3    3    0    0  0.56514899966E+01 -0.11592731136E+02  0.34488388988E+02  0.36820914293E+02  0.00000000000E+00 0. -1.
         11    1    4    4    0    0 -0.14066896513E+02  0.60613772114E+01 -0.13679904930E+02  0.20536739526E+02  0.51100000000E-03 0. -1.
        -11    1    4    4    0    0 -0.51206599576E+01  0.10953832978E+02 -0.93270001846E+01  0.15270905278E+02  0.51100000000E-03 0.  1.
        -12    1    4    4    0    0  0.13536066474E+02 -0.54224790533E+01 -0.11481483874E+02  0.18559440903E+02  0.00000000000E+00 0.  1.
</event>
<event>
 8    1  0.2482403E-006  0.9118800E+02  0.7816164E-02  0.1184000E+00
        -11   -1    0    0    0    0  0.00000000000E+00  0.00000000000E+00  0.45593999997E+02  0.45594000000E+02  0.51100000000E-03 0.  1.
         11   -1    0    0    0    0 -0.00000000000E+00 -0.00000000000E+00 -0.45593999997E+02  0.45594000000E+02  0.51100000000E-03 0. -1.
         23    2    1    2    0    0  0.00000000000E+00  0.00000000000E+00  0.17763568394E-14  0.91188000000E+02  0.91188000000E+02 0.  0.
    9900012    2    3    3    0    0  0.31224290950E+02  0.13317214076E+02  0.14264471626E+02  0.54367086285E+02  0.40000004803E+02 0.  0.
        -12    1    3    3    0    0 -0.31224290950E+02 -0.13317214076E+02 -0.14264471626E+02  0.36820913715E+02  0.00000000000E+00 0.  1.
         11    1    4    4    0    0  0.12392921788E+02  0.52709274183E+01 -0.21729954835E+01  0.13641447721E+02  0.51100000000E-03 0. -1.
        -11    1    4    4    0    0  0.24440426764E+02  0.55749200308E+01  0.21305031891E+02  0.32898610577E+02  0.51100000000E-03 0.  1.
        -12    1    4    4    0    0 -0.56090576021E+01  0.24713666264E+01 -0.48675647822E+01  0.78270279860E+01  0.00000000000E+00 0.  1.
</event>
<event>
 8    1  0.2482403E-006  0.9118800E+02  0.7816164E-02  0.1184000E+00
        -11   -1    0    0    0    0  0.00000000000E+00  0.00000000000E+00  0.45593999997E+02  0.45594000000E+02  0.51100000000E-03 0.  1.
         11   -1    0    0    0    0 -0.00000000000E+00 -0.00000000000E+00 -0.45593999997E+02  0.45594000000E+02  0.51100000000E-03 0. -1.
         23    2    1    2    0    0  0.17763568394E-14  0.00000000000E+00  0.00000000000E+00  0.91188000000E+02  0.91188000000E+02 0.  0.
    9900012    2    3    3    0    0 -0.13739586300E+02  0.16331588445E+02  0.30004645351E+02  0.54367139669E+02  0.40000126504E+02 0.  0.
         12    1    3    3    0    0  0.13739586300E+02 -0.16331588445E+02 -0.30004645351E+02  0.36820860331E+02  0.00000000000E+00 0. -1.
         11    1    4    4    0    0  0.37732747866E+01  0.88662300519E+01  0.10291310199E+02  0.14098180869E+02  0.51100000000E-03 0. -1.
        -11    1    4    4    0    0 -0.19562811401E+02  0.10701338417E+02  0.25154234166E+02  0.33614843902E+02  0.51100000000E-03 0.  1.
        -12    1    4    4    0    0  0.20499503136E+01 -0.32359800239E+01 -0.54408990135E+01  0.66541148982E+01  0.00000000000E+00 0.  1.
</event>
<event>
 8    1  0.2482403E-006  0.9118800E+02  0.7816164E-02  0.1184000E+00
        -11   -1    0    0    0    0  0.00000000000E+00  0.00000000000E+00  0.45593999997E+02  0.45594000000E+02  0.51100000000E-03 0. -1.
         11   -1    0    0    0    0 -0.00000000000E+00 -0.00000000000E+00 -0.45593999997E+02  0.45594000000E+02  0.51100000000E-03 0.  1.
         23    2    1    2    0    0  0.88817841970E-15  0.00000000000E+00  0.00000000000E+00  0.91188000000E+02  0.91188000000E+02 0.  0.
    9900012    2    3    3    0    0 -0.31501749156E+01 -0.35174702857E+02 -0.10421020714E+02  0.54367068510E+02  0.39999964282E+02 0.  0.
         12    1    3    3    0    0  0.31501749156E+01  0.35174702857E+02  0.10421020714E+02  0.36820931490E+02  0.00000000000E+00 0. -1.
         11    1    4    4    0    0  0.72661404056E+01 -0.17280939021E+02  0.18025683383E+01  0.18832867618E+02  0.51100000000E-03 0. -1.
        -11    1    4    4    0    0 -0.39456590117E+01 -0.21322441981E+02 -0.16323484676E+02  0.27141682139E+02  0.51100000000E-03 0.  1.
         12    1    4    4    0    0 -0.64706563095E+01  0.34286781448E+01  0.40998956243E+01  0.83925187535E+01  0.00000000000E+00 0. -1.
</event>
<event>
 8    1  0.2482403E-006  0.9118800E+02  0.7816164E-02  0.1184000E+00
        -11   -1    0    0    0    0  0.00000000000E+00  0.00000000000E+00  0.45593999997E+02  0.45594000000E+02  0.51100000000E-03 0. -1.
         11   -1    0    0    0    0 -0.00000000000E+00 -0.00000000000E+00 -0.45593999997E+02  0.45594000000E+02  0.51100000000E-03 0.  1.
         23    2    1    2    0    0 -0.88817841970E-15  0.00000000000E+00  0.00000000000E+00  0.91188000000E+02  0.91188000000E+02 0.  0.
    9900012    2    3    3    0    0  0.75849315680E+01  0.26898540545E+02 -0.23973262877E+02  0.54367081987E+02  0.39999995007E+02 0.  0.
         12    1    3    3    0    0 -0.75849315680E+01 -0.26898540545E+02  0.23973262877E+02  0.36820918013E+02  0.00000000000E+00 0. -1.
         11    1    4    4    0    0 -0.67042722088E+01  0.10893033046E+02 -0.19143934172E+02  0.23023806172E+02  0.51100000000E-03 0.  1.
        -11    1    4    4    0    0  0.67227203497E+01 -0.16999219497E+01 -0.92766129427E+01  0.11581893260E+02  0.51100000000E-03 0. -1.
         12    1    4    4    0    0  0.75664834271E+01  0.17705429449E+02  0.44472842380E+01  0.19761382556E+02  0.00000000000E+00 0. -1.
</event>
<event>
 8    1  0.2482403E-006  0.9118800E+02  0.7816164E-02  0.1184000E+00
        -11   -1    0    0    0    0  0.00000000000E+00  0.00000000000E+00  0.45593999997E+02  0.45594000000E+02  0.51100000000E-03 0.  1.
         11   -1    0    0    0    0 -0.00000000000E+00 -0.00000000000E+00 -0.45593999997E+02  0.45594000000E+02  0.51100000000E-03 0. -1.
         23    2    1    2    0    0  0.00000000000E+00 -0.35527136788E-14  0.00000000000E+00  0.91188000000E+02  0.91188000000E+02 0.  0.
    9900012    2    3    3    0    0 -0.18933844691E+02 -0.20019393225E+02  0.24423621426E+02  0.54367083887E+02  0.39999999336E+02 0.  0.
         12    1    3    3    0    0  0.18933844691E+02  0.20019393225E+02 -0.24423621426E+02  0.36820916113E+02  0.00000000000E+00 0. -1.
         11    1    4    4    0    0 -0.21058521374E+00  0.29752241660E+01 -0.72569646711E+01  0.78460079957E+01  0.51100000000E-03 0. -1.
        -11    1    4    4    0    0 -0.14836470965E+01  0.26423359102E+01  0.41597370138E+01  0.51465095020E+01  0.51100000000E-03 0.  1.
        -12    1    4    4    0    0 -0.17239612381E+02 -0.25636953301E+02  0.27520849083E+02  0.41374566389E+02  0.00000000000E+00 0.  1.
</event>
<event>
 8    1  0.2482403E-006  0.9118800E+02  0.7816164E-02  0.1184000E+00
        -11   -1    0    0    0    0  0.00000000000E+00  0.00000000000E+00  0.45593999997E+02  0.45594000000E+02  0.51100000000E-03 0.  1.
         11   -1    0    0    0    0 -0.00000000000E+00 -0.00000000000E+00 -0.45593999997E+02  0.45594000000E+02  0.51100000000E-03 0. -1.
         23    2    1    2    0    0  0.00000000000E+00  0.35527136788E-14  0.00000000000E+00  0.91188000000E+02  0.91188000000E+02 0.  0.
    9900012    2    3    3    0    0  0.20753975233E+02 -0.23017311401E+02  0.19881285025E+02  0.54366951586E+02  0.39999697729E+02 0.  0.
         12    1    3    3    0    0 -0.20753975233E+02  0.23017311401E+02 -0.19881285025E+02  0.36821048414E+02  0.00000000000E+00 0. -1.
         11    1    4    4    0    0  0.57459107239E+01  0.36723560666E+01  0.16928279152E+00  0.68213155660E+01  0.51100000000E-03 0. -1.
        -11    1    4    4    0    0  0.16149686394E+02  0.34206060178E+00  0.61873765919E+01  0.17297774580E+02  0.51100000000E-03 0.  1.
        -12    1    4    4    0    0 -0.11416218850E+01 -0.27031728069E+02  0.13524625642E+02  0.30247861440E+02  0.00000000000E+00 0.  1.
</event>
<event>
 8    1  0.2482403E-006  0.9118800E+02  0.7816164E-02  0.1184000E+00
        -11   -1    0    0    0    0  0.00000000000E+00  0.00000000000E+00  0.45593999997E+02  0.45594000000E+02  0.51100000000E-03 0.  1.
         11   -1    0    0    0    0 -0.00000000000E+00 -0.00000000000E+00 -0.45593999997E+02  0.45594000000E+02  0.51100000000E-03 0. -1.
         23    2    1    2    0    0  0.00000000000E+00  0.00000000000E+00 -0.35527136788E-14  0.91188000000E+02  0.91188000000E+02 0.  0.
    9900012    2    3    3    0    0 -0.34986631114E+02  0.83767990087E+01  0.78450953243E+01  0.54367073355E+02  0.39999975328E+02 0.  0.
         12    1    3    3    0    0  0.34986631114E+02 -0.83767990087E+01 -0.78450953243E+01  0.36820926645E+02  0.00000000000E+00 0. -1.
         11    1    4    4    0    0 -0.28730091887E+01  0.68250321601E+01 -0.13189395174E+02  0.15125983972E+02  0.51100000000E-03 0. -1.
        -11    1    4    4    0    0 -0.26319425849E+02  0.11023559775E+01  0.13139167489E+02  0.29437477614E+02  0.51100000000E-03 0.  1.
         12    1    4    4    0    0 -0.57941960766E+01  0.44941087111E+00  0.78953230095E+01  0.98036117696E+01  0.00000000000E+00 0. -1.
</event>
<event>
 8    1  0.2482403E-006  0.9118800E+02  0.7816164E-02  0.1184000E+00
        -11   -1    0    0    0    0  0.00000000000E+00  0.00000000000E+00  0.45593999997E+02  0.45594000000E+02  0.51100000000E-03 0.  1.
         11   -1    0    0    0    0 -0.00000000000E+00 -0.00000000000E+00 -0.45593999997E+02  0.45594000000E+02  0.51100000000E-03 0. -1.
         23    2    1    2    0    0  0.35527136788E-14  0.00000000000E+00  0.00000000000E+00  0.91188000000E+02  0.91188000000E+02 0.  0.
    9900012    2    3    3    0    0  0.26406962760E+02 -0.10458292646E+02 -0.23432378064E+02  0.54367083267E+02  0.39999997924E+02 0.  0.
        -12    1    3    3    0    0 -0.26406962760E+02  0.10458292646E+02  0.23432378064E+02  0.36820916733E+02  0.00000000000E+00 0.  1.
         11    1    4    4    0    0 -0.46624226813E+01 -0.48474696053E+01  0.21091091474E+00  0.67290883862E+01  0.51100000000E-03 0. -1.
        -11    1    4    4    0    0 -0.44292100312E+01 -0.20873658965E+00  0.35678184335E+00  0.44484565873E+01  0.51100000000E-03 0.  1.
         12    1    4    4    0    0  0.35498595473E+02 -0.54020864510E+01 -0.24000070822E+02  0.43189538294E+02  0.00000000000E+00 0. -1.
</event>
<event>
 8    1  0.2482403E-006  0.9118800E+02  0.7816164E-02  0.1184000E+00
        -11   -1    0    0    0    0  0.00000000000E+00  0.00000000000E+00  0.45593999997E+02  0.45594000000E+02  0.51100000000E-03 0. -1.
         11   -1    0    0    0    0 -0.00000000000E+00 -0.00000000000E+00 -0.45593999997E+02  0.45594000000E+02  0.51100000000E-03 0.  1.
         23    2    1    2    0    0  0.17763568394E-14  0.71054273576E-14  0.44408920985E-15  0.91188000000E+02  0.91188000000E+02 0.  0.
    9900012    2    3    3    0    0  0.15284298282E+02 -0.33350736169E+02 -0.31461902303E+01  0.54367083527E+02  0.39999998516E+02 0.  0.
         12    1    3    3    0    0 -0.15284298282E+02  0.33350736169E+02  0.31461902303E+01  0.36820916473E+02  0.00000000000E+00 0. -1.
         11    1    4    4    0    0 -0.13219729691E+01  0.23325921430E+01 -0.39712623178E+01  0.47916096768E+01  0.51100000000E-03 0. -1.
        -11    1    4    4    0    0  0.23028135479E+02 -0.17186356863E+02 -0.49585364848E+01  0.29159097554E+02  0.51100000000E-03 0.  1.
         12    1    4    4    0    0 -0.64218642278E+01 -0.18496971449E+02  0.57836085723E+01  0.20416376296E+02  0.00000000000E+00 0. -1.
</event>
<event>
 8    1  0.2482403E-006  0.9118800E+02  0.7816164E-02  0.1184000E+00
        -11   -1    0    0    0    0  0.00000000000E+00  0.00000000000E+00  0.45593999997E+02  0.45594000000E+02  0.51100000000E-03 0. -1.
         11   -1    0    0    0    0 -0.00000000000E+00 -0.00000000000E+00 -0.45593999997E+02  0.45594000000E+02  0.51100000000E-03 0.  1.
         23    2    1    2    0    0 -0.71054273576E-14  0.88817841970E-15  0.00000000000E+00  0.91188000000E+02  0.91188000000E+02 0.  0.
    9900012    2    3    3    0    0 -0.19743774560E+02  0.66278195901E+01  0.30365033420E+02  0.54367083648E+02  0.39999998793E+02 0.  0.
        -12    1    3    3    0    0  0.19743774560E+02 -0.66278195901E+01 -0.30365033420E+02  0.36820916352E+02  0.00000000000E+00 0.  1.
         11    1    4    4    0    0 -0.21690053792E+02  0.12004545667E+02  0.26718443007E+02  0.36447808537E+02  0.51100000000E-03 0. -1.
        -11    1    4    4    0    0  0.31819282863E+01  0.39923597219E+01  0.62949904981E+01  0.81049681924E+01  0.51100000000E-03 0.  1.
        -12    1    4    4    0    0 -0.12356490545E+01 -0.93690857984E+01 -0.26484000855E+01  0.98143069188E+01  0.00000000000E+00 0.  1.
</event>
<event>
 8    1  0.2482403E-006  0.9118800E+02  0.7816164E-02  0.1184000E+00
        -11   -1    0    0    0    0  0.00000000000E+00  0.00000000000E+00  0.45593999997E+02  0.45594000000E+02  0.51100000000E-03 0. -1.
         11   -1    0    0    0    0 -0.00000000000E+00 -0.00000000000E+00 -0.45593999997E+02  0.45594000000E+02  0.51100000000E-03 0.  1.
         23    2    1    2    0    0  0.35527136788E-14  0.00000000000E+00  0.00000000000E+00  0.91188000000E+02  0.91188000000E+02 0.  0.
    9900012    2    3    3    0    0  0.30765200477E+02 -0.10488157261E+02 -0.17300088215E+02  0.54366918329E+02  0.39999621913E+02 0.  0.
         12    1    3    3    0    0 -0.30765200477E+02  0.10488157261E+02  0.17300088215E+02  0.36821081671E+02  0.00000000000E+00 0. -1.
         11    1    4    4    0    0  0.19229167993E+01 -0.19245396122E+01 -0.14091416555E+02  0.14351636928E+02  0.51100000000E-03 0. -1.
        -11    1    4    4    0    0  0.25887897746E+02 -0.15543859058E+02 -0.77560330761E+01  0.31176126338E+02  0.51100000000E-03 0.  1.
        -12    1    4    4    0    0  0.29543859324E+01  0.69802414096E+01  0.45473614159E+01  0.88391550626E+01  0.00000000000E+00 0.  1.
</event>
<event>
 8    1  0.2482403E-006  0.9118800E+02  0.7816164E-02  0.1184000E+00
        -11   -1    0    0    0    0  0.00000000000E+00  0.00000000000E+00  0.45593999997E+02  0.45594000000E+02  0.51100000000E-03 0.  1.
         11   -1    0    0    0    0 -0.00000000000E+00 -0.00000000000E+00 -0.45593999997E+02  0.45594000000E+02  0.51100000000E-03 0. -1.
         23    2    1    2    0    0 -0.35527136788E-14 -0.88817841970E-15  0.35527136788E-14  0.91188000000E+02  0.91188000000E+02 0.  0.
    9900012    2    3    3    0    0  0.31506708135E+02 -0.48904279792E+01  0.18417118278E+02  0.54367093045E+02  0.40000020214E+02 0.  0.
         12    1    3    3    0    0 -0.31506708135E+02  0.48904279792E+01 -0.18417118278E+02  0.36820906955E+02  0.00000000000E+00 0. -1.
         11    1    4    4    0    0  0.57444117944E+01  0.59761807357E+01  0.12282007565E+02  0.14817581218E+02  0.51100000000E-03 0. -1.
        -11    1    4    4    0    0 -0.51574447706E+01 -0.28812293435E+01  0.47581918392E+01  0.75855856024E+01  0.51100000000E-03 0.  1.
        -12    1    4    4    0    0  0.30919741112E+02 -0.79853793714E+01  0.13769188738E+01  0.31963926225E+02  0.00000000000E+00 0.  1.
</event>
<event>
 8    1  0.2482403E-006  0.9118800E+02  0.7816164E-02  0.1184000E+00
        -11   -1    0    0    0    0  0.00000000000E+00  0.00000000000E+00  0.45593999997E+02  0.45594000000E+02  0.51100000000E-03 0.  1.
         11   -1    0    0    0    0 -0.00000000000E+00 -0.00000000000E+00 -0.45593999997E+02  0.45594000000E+02  0.51100000000E-03 0. -1.
         23    2    1    2    0    0  0.00000000000E+00  0.35527136788E-14  0.00000000000E+00  0.91188000000E+02  0.91188000000E+02 0.  0.
    9900012    2    3    3    0    0 -0.29416673846E+02 -0.17254418336E+02  0.13882416377E+02  0.54367120912E+02  0.40000083744E+02 0.  0.
         12    1    3    3    0    0  0.29416673846E+02  0.17254418336E+02 -0.13882416377E+02  0.36820879088E+02  0.00000000000E+00 0. -1.
         11    1    4    4    0    0 -0.19254279416E+02 -0.26751943567E+02  0.85826397084E+01  0.34059586977E+02  0.51100000000E-03 0.  1.
        -11    1    4    4    0    0 -0.20040697041E+01 -0.10305050310E+01  0.65529832343E+01  0.69296338669E+01  0.51100000000E-03 0. -1.
         12    1    4    4    0    0 -0.81583247265E+01  0.10528030262E+02 -0.12532065656E+01  0.13377900068E+02  0.00000000000E+00 0. -1.
</event>
<event>
 8    1  0.2482403E-006  0.9118800E+02  0.7816164E-02  0.1184000E+00
        -11   -1    0    0    0    0  0.00000000000E+00  0.00000000000E+00  0.45593999997E+02  0.45594000000E+02  0.51100000000E-03 0. -1.
         11   -1    0    0    0    0 -0.00000000000E+00 -0.00000000000E+00 -0.45593999997E+02  0.45594000000E+02  0.51100000000E-03 0.  1.
         23    2    1    2    0    0  0.00000000000E+00  0.35527136788E-14  0.71054273576E-14  0.91188000000E+02  0.91188000000E+02 0.  0.
    9900012    2    3    3    0    0  0.20334884364E+02  0.15766583272E+02  0.26337941355E+02  0.54367084409E+02  0.40000000527E+02 0.  0.
        -12    1    3    3    0    0 -0.20334884364E+02 -0.15766583272E+02 -0.26337941355E+02  0.36820915591E+02  0.00000000000E+00 0.  1.
         11    1    4    4    0    0  0.57373119320E+01  0.45612499968E+01  0.17682511629E+02  0.19141394085E+02  0.51100000000E-03 0. -1.
        -11    1    4    4    0    0  0.95904693089E+01  0.19663869944E+02  0.11861570000E+02  0.24886577223E+02  0.51100000000E-03 0.  1.
         12    1    4    4    0    0  0.50071031227E+01 -0.84585366690E+01 -0.32061402747E+01  0.10339113101E+02  0.00000000000E+00 0. -1.
</event>
<event>
 8    1  0.2482403E-006  0.9118800E+02  0.7816164E-02  0.1184000E+00
        -11   -1    0    0    0    0  0.00000000000E+00  0.00000000000E+00  0.45593999997E+02  0.45594000000E+02  0.51100000000E-03 0.  1.
         11   -1    0    0    0    0 -0.00000000000E+00 -0.00000000000E+00 -0.45593999997E+02  0.45594000000E+02  0.51100000000E-03 0. -1.
         23    2    1    2    0    0  0.71054273576E-14 -0.35527136788E-14  0.35527136788E-14  0.91188000000E+02  0.91188000000E+02 0.  0.
    9900012    2    3    3    0    0  0.24071358946E+02 -0.17753890910E+02  0.21474377889E+02  0.54367083802E+02  0.39999999144E+02 0.  0.
         12    1    3    3    0    0 -0.24071358946E+02  0.17753890910E+02 -0.21474377889E+02  0.36820916198E+02  0.00000000000E+00 0. -1.
         11    1    4    4    0    0 -0.45518752938E+00 -0.72563356111E+01  0.65653450847E+01  0.97961910215E+01  0.51100000000E-03 0. -1.
        -11    1    4    4    0    0 -0.41241410653E-02 -0.15833116686E+02  0.10716817865E+02  0.19119042508E+02  0.51100000000E-03 0.  1.
         12    1    4    4    0    0  0.24530670616E+02  0.53355613878E+01  0.41922149396E+01  0.25451850273E+02  0.00000000000E+00 0. -1.
</event>
