<event>
 4    1  0.4017302E+000  0.2074433E+03  0.7546771E-02  0.1143607E+00
         21   -1    0    0  501  502  0.00000000000E+00  0.00000000000E+00  0.42237087254E+03  0.42237087254E+03  0.00000000000E+00 0. -1.
         21   -1    0    0  502  503 -0.00000000000E+00 -0.00000000000E+00 -0.10311164248E+03  0.10311164248E+03  0.00000000000E+00 0. -1.
          6    1    1    2  501    0 -0.65539337535E+02  0.93852657537E+02  0.13095777592E+03  0.24532155463E+03  0.17300000000E+03 0. -1.
         -6    1    1    2    0  503  0.65539337535E+02 -0.93852657537E+02  0.18830145414E+03  0.28016096038E+03  0.17300000000E+03 0. -1.
<mgrwt>
<rscale>  2 0.20744331E+03</rscale>
<asrwt>0</asrwt>
<pdfrwt beam="1">  1       21 0.64980133E-01 0.20744331E+03</pdfrwt>
<pdfrwt beam="2">  1       21 0.15863330E-01 0.20744331E+03</pdfrwt>
<totfact> 0.76747622E+04</totfact>
</mgrwt>
</event>
<event>
 4    1  0.4017302E+000  0.2579024E+03  0.7546771E-02  0.1108410E+00
         21   -1    0    0  503  502  0.00000000000E+00  0.00000000000E+00  0.22733055565E+03  0.22733055565E+03  0.00000000000E+00 0. -1.
         21   -1    0    0  501  503 -0.00000000000E+00 -0.00000000000E+00 -0.35991721758E+03  0.35991721758E+03  0.00000000000E+00 0.  1.
          6    1    1    2  501    0  0.16274601039E+03  0.10049066888E+03 -0.19329216028E+03  0.32229721943E+03  0.17300000000E+03 0.  1.
         -6    1    1    2    0  502 -0.16274601039E+03 -0.10049066888E+03  0.60705498353E+02  0.26495055380E+03  0.17300000000E+03 0. -1.
<mgrwt>
<rscale>  2 0.25790238E+03</rscale>
<asrwt>0</asrwt>
<pdfrwt beam="1">  1       21 0.34973932E-01 0.25790238E+03</pdfrwt>
<pdfrwt beam="2">  1       21 0.55371879E-01 0.25790238E+03</pdfrwt>
<totfact> 0.23426835E+04</totfact>
</mgrwt>
</event>
<event>
 4    1  0.4017302E+000  0.1876067E+03  0.7546771E-02  0.1160638E+00
         21   -1    0    0  503  502  0.00000000000E+00  0.00000000000E+00  0.68462576181E+03  0.68462576181E+03  0.00000000000E+00 0.  1.
         21   -1    0    0  501  503 -0.00000000000E+00 -0.00000000000E+00 -0.96304522939E+02  0.96304522939E+02  0.00000000000E+00 0.  1.
          6    1    1    2  501    0  0.43117199022E+02  0.58379753147E+02  0.56075923066E+03  0.59130973542E+03  0.17300000000E+03 0.  1.
         -6    1    1    2    0  502 -0.43117199022E+02 -0.58379753147E+02  0.27562008201E+02  0.18962054932E+03  0.17300000000E+03 0.  1.
<mgrwt>
<rscale>  2 0.18760674E+03</rscale>
<asrwt>0</asrwt>
<pdfrwt beam="1">  1       21 0.10532704E+00 0.18760674E+03</pdfrwt>
<pdfrwt beam="2">  1       21 0.14816081E-01 0.18760674E+03</pdfrwt>
<totfact> 0.29177224E+04</totfact>
</mgrwt>
</event>
<event>
 4    1  0.4017302E+000  0.2416802E+03  0.7546771E-02  0.1118679E+00
         21   -1    0    0  503  502  0.00000000000E+00  0.00000000000E+00  0.30292056507E+03  0.30292056507E+03  0.00000000000E+00 0.  1.
         21   -1    0    0  501  503 -0.00000000000E+00 -0.00000000000E+00 -0.28197442577E+03  0.28197442577E+03  0.00000000000E+00 0.  1.
          6    1    1    2  501    0 -0.16742643489E+03  0.21183146059E+02 -0.15396900382E+03  0.28655852965E+03  0.17300000000E+03 0.  1.
         -6    1    1    2    0  502  0.16742643489E+03 -0.21183146059E+02  0.17491514313E+03  0.29833646119E+03  0.17300000000E+03 0.  1.
<mgrwt>
<rscale>  2 0.24168024E+03</rscale>
<asrwt>0</asrwt>
<pdfrwt beam="1">  1       21 0.46603164E-01 0.24168024E+03</pdfrwt>
<pdfrwt beam="2">  1       21 0.43380680E-01 0.24168024E+03</pdfrwt>
<totfact> 0.21929026E+04</totfact>
</mgrwt>
</event>
<event>
 4    1  0.4017302E+000  0.1971070E+03  0.7546771E-02  0.1152203E+00
         21   -1    0    0  501  502  0.00000000000E+00  0.00000000000E+00  0.35329430606E+02  0.35329430606E+02  0.00000000000E+00 0. -1.
         21   -1    0    0  502  503 -0.00000000000E+00 -0.00000000000E+00 -0.12296914059E+04  0.12296914059E+04  0.00000000000E+00 0.  1.
          6    1    1    2  501    0  0.80971923691E+02  0.48638814887E+02 -0.39151866326E+03  0.43833554547E+03  0.17300000000E+03 0. -1.
         -6    1    1    2    0  503 -0.80971923691E+02 -0.48638814887E+02 -0.80284331201E+03  0.82668529101E+03  0.17300000000E+03 0.  1.
<mgrwt>
<rscale>  2 0.19710704E+03</rscale>
<asrwt>0</asrwt>
<pdfrwt beam="1">  1       21 0.54352961E-02 0.19710704E+03</pdfrwt>
<pdfrwt beam="2">  1       21 0.18918332E+00 0.19710704E+03</pdfrwt>
<totfact> 0.36751221E+04</totfact>
</mgrwt>
</event>
<event>
 4    1  0.4017302E+000  0.2113900E+03  0.7546771E-02  0.1140470E+00
         21   -1    0    0  503  502  0.00000000000E+00  0.00000000000E+00  0.87212086249E+02  0.87212086249E+02  0.00000000000E+00 0.  1.
         21   -1    0    0  501  503 -0.00000000000E+00 -0.00000000000E+00 -0.82210783445E+03  0.82210783445E+03  0.00000000000E+00 0. -1.
          6    1    1    2  501    0 -0.56262582881E+02 -0.10766261091E+03 -0.64651747843E+03  0.68019891645E+03  0.17300000000E+03 0. -1.
         -6    1    1    2    0  502  0.56262582881E+02  0.10766261091E+03 -0.88378269770E+02  0.22912100425E+03  0.17300000000E+03 0.  1.
<mgrwt>
<rscale>  2 0.21138996E+03</rscale>
<asrwt>0</asrwt>
<pdfrwt beam="1">  1       21 0.13417244E-01 0.21138996E+03</pdfrwt>
<pdfrwt beam="2">  1       21 0.12647812E+00 0.21138996E+03</pdfrwt>
<totfact> 0.21981430E+04</totfact>
</mgrwt>
</event>
<event>
 4    1  0.4017302E+000  0.2032287E+03  0.7546771E-02  0.1147043E+00
         21   -1    0    0  503  502  0.00000000000E+00  0.00000000000E+00  0.56782679321E+02  0.56782679321E+02  0.00000000000E+00 0. -1.
         21   -1    0    0  501  503 -0.00000000000E+00 -0.00000000000E+00 -0.10436094632E+04  0.10436094632E+04  0.00000000000E+00 0. -1.
          6    1    1    2  501    0 -0.62381621794E+01  0.10646129979E+03 -0.79628436628E+03  0.82180941525E+03  0.17300000000E+03 0. -1.
         -6    1    1    2    0  502  0.62381621794E+01 -0.10646129979E+03 -0.19054241757E+03  0.27858272723E+03  0.17300000000E+03 0. -1.
<mgrwt>
<rscale>  2 0.20322875E+03</rscale>
<asrwt>0</asrwt>
<pdfrwt beam="1">  1       21 0.87357967E-02 0.20322875E+03</pdfrwt>
<pdfrwt beam="2">  1       21 0.16055530E+00 0.20322875E+03</pdfrwt>
<totfact> 0.25484091E+04</totfact>
</mgrwt>
</event>
<event>
 4    1  0.4017302E+000  0.1942598E+03  0.7546771E-02  0.1154674E+00
         21   -1    0    0  503  502  0.00000000000E+00  0.00000000000E+00  0.27559933706E+03  0.27559933706E+03  0.00000000000E+00 0. -1.
         21   -1    0    0  501  503 -0.00000000000E+00 -0.00000000000E+00 -0.14263151366E+03  0.14263151366E+03  0.00000000000E+00 0. -1.
          6    1    1    2  501    0  0.81603762130E+02 -0.33892366879E+02  0.24661916427E+02  0.19581898950E+03  0.17300000000E+03 0. -1.
         -6    1    1    2    0  502 -0.81603762130E+02  0.33892366879E+02  0.10830590697E+03  0.22241186122E+03  0.17300000000E+03 0. -1.
<mgrwt>
<rscale>  2 0.19425979E+03</rscale>
<asrwt>0</asrwt>
<pdfrwt beam="1">  1       21 0.42399898E-01 0.19425979E+03</pdfrwt>
<pdfrwt beam="2">  1       21 0.21943310E-01 0.19425979E+03</pdfrwt>
<totfact> 0.10375383E+05</totfact>
</mgrwt>
</event>
<event>
 4    1  0.4017302E+000  0.1861171E+03  0.7546771E-02  0.1162011E+00
         21   -1    0    0  503  502  0.00000000000E+00  0.00000000000E+00  0.36011495844E+03  0.36011495844E+03  0.00000000000E+00 0.  1.
         21   -1    0    0  501  503 -0.00000000000E+00 -0.00000000000E+00 -0.10836103995E+03  0.10836103995E+03  0.00000000000E+00 0.  1.
          6    1    1    2  501    0 -0.26611132477E+02 -0.63264796155E+02  0.47375410916E+02  0.19205211887E+03  0.17300000000E+03 0.  1.
         -6    1    1    2    0  502  0.26611132477E+02  0.63264796155E+02  0.20437850758E+03  0.27642387951E+03  0.17300000000E+03 0.  1.
<mgrwt>
<rscale>  2 0.18611713E+03</rscale>
<asrwt>0</asrwt>
<pdfrwt beam="1">  1       21 0.55402301E-01 0.18611713E+03</pdfrwt>
<pdfrwt beam="2">  1       21 0.16670929E-01 0.18611713E+03</pdfrwt>
<totfact> 0.99571910E+04</totfact>
</mgrwt>
</event>
<event>
 4    1  0.4017302E+000  0.1949874E+03  0.7546771E-02  0.1154038E+00
         21   -1    0    0  501  502  0.00000000000E+00  0.00000000000E+00  0.12528303343E+03  0.12528303343E+03  0.00000000000E+00 0.  1.
         21   -1    0    0  502  503 -0.00000000000E+00 -0.00000000000E+00 -0.33206252181E+03  0.33206252181E+03  0.00000000000E+00 0.  1.
          6    1    1    2  501    0  0.86806758613E+02  0.23573105288E+02 -0.17048668656E+03  0.25900929506E+03  0.17300000000E+03 0.  1.
         -6    1    1    2    0  503 -0.86806758613E+02 -0.23573105288E+02 -0.36292801815E+02  0.19833626017E+03  0.17300000000E+03 0.  1.
<mgrwt>
<rscale>  2 0.19498745E+03</rscale>
<asrwt>0</asrwt>
<pdfrwt beam="1">  1       21 0.19274313E-01 0.19498745E+03</pdfrwt>
<pdfrwt beam="2">  1       21 0.51086541E-01 0.19498745E+03</pdfrwt>
<totfact> 0.90010984E+04</totfact>
</mgrwt>
</event>
<event>
 4    1  0.4017302E+000  0.2108623E+03  0.7546771E-02  0.1140885E+00
         21   -1    0    0  503  502  0.00000000000E+00  0.00000000000E+00  0.51839821101E+03  0.51839821101E+03  0.00000000000E+00 0.  1.
         21   -1    0    0  501  503 -0.00000000000E+00 -0.00000000000E+00 -0.11297730295E+03  0.11297730295E+03  0.00000000000E+00 0.  1.
          6    1    1    2  501    0 -0.54157500224E+02 -0.10770729717E+03  0.47790735665E+02  0.21621020121E+03  0.17300000000E+03 0.  1.
         -6    1    1    2    0  502  0.54157500224E+02  0.10770729717E+03  0.35763017240E+03  0.41516531274E+03  0.17300000000E+03 0.  1.
<mgrwt>
<rscale>  2 0.21086227E+03</rscale>
<asrwt>0</asrwt>
<pdfrwt beam="1">  1       21 0.79753569E-01 0.21086227E+03</pdfrwt>
<pdfrwt beam="2">  1       21 0.17381124E-01 0.21086227E+03</pdfrwt>
<totfact> 0.41090057E+04</totfact>
</mgrwt>
</event>
<event>
 4    1  0.4017302E+000  0.2471202E+03  0.7546771E-02  0.1115138E+00
         21   -1    0    0  501  502  0.00000000000E+00  0.00000000000E+00  0.39638670900E+03  0.39638670900E+03  0.00000000000E+00 0. -1.
         21   -1    0    0  502  503 -0.00000000000E+00 -0.00000000000E+00 -0.25662527868E+03  0.25662527868E+03  0.00000000000E+00 0.  1.
          6    1    1    2  501    0 -0.13890567570E+03  0.10883282797E+03  0.27629326385E+03  0.37068361015E+03  0.17300000000E+03 0. -1.
         -6    1    1    2    0  503  0.13890567570E+03 -0.10883282797E+03 -0.13653183353E+03  0.28232837752E+03  0.17300000000E+03 0.  1.
<mgrwt>
<rscale>  2 0.24712016E+03</rscale>
<asrwt>0</asrwt>
<pdfrwt beam="1">  1       21 0.60982571E-01 0.24712016E+03</pdfrwt>
<pdfrwt beam="2">  1       21 0.39480812E-01 0.24712016E+03</pdfrwt>
<totfact> 0.14992721E+04</totfact>
</mgrwt>
</event>
<event>
 4    1  0.4017302E+000  0.2171793E+03  0.7546771E-02  0.1136004E+00
         21   -1    0    0  503  502  0.00000000000E+00  0.00000000000E+00  0.64466140366E+02  0.64466140366E+02  0.00000000000E+00 0. -1.
         21   -1    0    0  501  503 -0.00000000000E+00 -0.00000000000E+00 -0.73792495979E+03  0.73792495979E+03  0.00000000000E+00 0. -1.
          6    1    1    2  501    0  0.69884400423E+02  0.11114869276E+03 -0.37371587856E+03  0.43223884510E+03  0.17300000000E+03 0. -1.
         -6    1    1    2    0  502 -0.69884400423E+02 -0.11114869276E+03 -0.29974294087E+03  0.37015225506E+03  0.17300000000E+03 0. -1.
<mgrwt>
<rscale>  2 0.21717933E+03</rscale>
<asrwt>0</asrwt>
<pdfrwt beam="1">  1       21 0.99178678E-02 0.21717933E+03</pdfrwt>
<pdfrwt beam="2">  1       21 0.11352692E+00 0.21717933E+03</pdfrwt>
<totfact> 0.49184809E+04</totfact>
</mgrwt>
</event>
<event>
 4    1  0.4017302E+000  0.1750458E+03  0.7546771E-02  0.1172686E+00
         21   -1    0    0  503  502  0.00000000000E+00  0.00000000000E+00  0.84557970342E+02  0.84557970342E+02  0.00000000000E+00 0.  1.
         21   -1    0    0  501  503 -0.00000000000E+00 -0.00000000000E+00 -0.37610384736E+03  0.37610384736E+03  0.00000000000E+00 0.  1.
          6    1    1    2  501    0  0.25562738784E+02 -0.76529996163E+01 -0.18979203515E+03  0.25818992743E+03  0.17300000000E+03 0.  1.
         -6    1    1    2    0  502 -0.25562738784E+02  0.76529996163E+01 -0.10175384186E+03  0.20247189027E+03  0.17300000000E+03 0.  1.
<mgrwt>
<rscale>  2 0.17504577E+03</rscale>
<asrwt>0</asrwt>
<pdfrwt beam="1">  1       21 0.13008919E-01 0.17504577E+03</pdfrwt>
<pdfrwt beam="2">  1       21 0.57862130E-01 0.17504577E+03</pdfrwt>
<totfact> 0.14302518E+05</totfact>
</mgrwt>
</event>
<event>
 4    1  0.4017302E+000  0.1775184E+03  0.7546771E-02  0.1170227E+00
         21   -1    0    0  503  502  0.00000000000E+00  0.00000000000E+00  0.54225213061E+03  0.54225213061E+03  0.00000000000E+00 0. -1.
         21   -1    0    0  501  503 -0.00000000000E+00 -0.00000000000E+00 -0.12345962536E+03  0.12345962536E+03  0.00000000000E+00 0. -1.
          6    1    1    2  501    0  0.39623730913E+02 -0.37068232970E+01 -0.32762364169E+02  0.18051635133E+03  0.17300000000E+03 0. -1.
         -6    1    1    2    0  502 -0.39623730913E+02  0.37068232970E+01  0.45155486942E+03  0.48519540464E+03  0.17300000000E+03 0. -1.
<mgrwt>
<rscale>  2 0.17751840E+03</rscale>
<asrwt>0</asrwt>
<pdfrwt beam="1">  1       21 0.83423403E-01 0.17751840E+03</pdfrwt>
<pdfrwt beam="2">  1       21 0.18993789E-01 0.17751840E+03</pdfrwt>
<totfact> 0.32046643E+04</totfact>
</mgrwt>
</event>
<event>
 4    1  0.4017302E+000  0.1863091E+03  0.7546771E-02  0.1161833E+00
         21   -1    0    0  501  502  0.00000000000E+00  0.00000000000E+00  0.35765658174E+02  0.35765658174E+02  0.00000000000E+00 0.  1.
         21   -1    0    0  502  503 -0.00000000000E+00 -0.00000000000E+00 -0.12954585403E+04  0.12954585403E+04  0.00000000000E+00 0.  1.
          6    1    1    2  501    0  0.66721893017E+02 -0.18173331757E+02 -0.29648612265E+03  0.35016439271E+03  0.17300000000E+03 0.  1.
         -6    1    1    2    0  503 -0.66721893017E+02  0.18173331757E+02 -0.96320675952E+03  0.98105980581E+03  0.17300000000E+03 0.  1.
<mgrwt>
<rscale>  2 0.18630910E+03</rscale>
<asrwt>0</asrwt>
<pdfrwt beam="1">  1       21 0.55024103E-02 0.18630910E+03</pdfrwt>
<pdfrwt beam="2">  1       21 0.19930126E+00 0.18630910E+03</pdfrwt>
<totfact> 0.31151570E+04</totfact>
</mgrwt>
</event>
<event>
 4    1  0.4017302E+000  0.2259434E+03  0.7546771E-02  0.1129528E+00
         21   -1    0    0  501  502  0.00000000000E+00  0.00000000000E+00  0.21513049079E+03  0.21513049079E+03  0.00000000000E+00 0. -1.
         21   -1    0    0  502  503 -0.00000000000E+00 -0.00000000000E+00 -0.36356069654E+03  0.36356069654E+03  0.00000000000E+00 0. -1.
          6    1    1    2  501    0  0.11918915067E+03  0.83158549897E+02  0.96300073633E+02  0.24560965421E+03  0.17300000000E+03 0. -1.
         -6    1    1    2    0  503 -0.11918915067E+03 -0.83158549897E+02 -0.24473027939E+03  0.33308153312E+03  0.17300000000E+03 0. -1.
<mgrwt>
<rscale>  2 0.22594335E+03</rscale>
<asrwt>0</asrwt>
<pdfrwt beam="1">  1       21 0.33096999E-01 0.22594335E+03</pdfrwt>
<pdfrwt beam="2">  1       21 0.55932415E-01 0.22594335E+03</pdfrwt>
<totfact> 0.25981238E+04</totfact>
</mgrwt>
</event>
<event>
 4    1  0.4017302E+000  0.1872987E+03  0.7546771E-02  0.1160921E+00
         21   -1    0    0  503  502  0.00000000000E+00  0.00000000000E+00  0.61464247677E+03  0.61464247677E+03  0.00000000000E+00 0.  1.
         21   -1    0    0  501  503 -0.00000000000E+00 -0.00000000000E+00 -0.10248850695E+03  0.10248850695E+03  0.00000000000E+00 0. -1.
          6    1    1    2  501    0  0.31954411073E+02  0.64270685042E+02  0.17393286204E+02  0.18810457663E+03  0.17300000000E+03 0. -1.
         -6    1    1    2    0  502 -0.31954411073E+02 -0.64270685042E+02  0.49476068361E+03  0.52902640709E+03  0.17300000000E+03 0.  1.
<mgrwt>
<rscale>  2 0.18729871E+03</rscale>
<asrwt>0</asrwt>
<pdfrwt beam="1">  1       21 0.94560379E-01 0.18729871E+03</pdfrwt>
<pdfrwt beam="2">  1       21 0.15767463E-01 0.18729871E+03</pdfrwt>
<totfact> 0.33636419E+04</totfact>
</mgrwt>
</event>
<event>
 4    1  0.4017302E+000  0.2399542E+03  0.7546771E-02  0.1119823E+00
         21   -1    0    0  501  502  0.00000000000E+00  0.00000000000E+00  0.26117855014E+03  0.26117855014E+03  0.00000000000E+00 0.  1.
         21   -1    0    0  502  503 -0.00000000000E+00 -0.00000000000E+00 -0.28649276474E+03  0.28649276474E+03  0.00000000000E+00 0. -1.
          6    1    1    2  501    0  0.16182660106E+03  0.38225074675E+02  0.11881413413E+03  0.26775885347E+03  0.17300000000E+03 0.  1.
         -6    1    1    2    0  503 -0.16182660106E+03 -0.38225074675E+02 -0.14412834873E+03  0.27991246141E+03  0.17300000000E+03 0. -1.
<mgrwt>
<rscale>  2 0.23995417E+03</rscale>
<asrwt>0</asrwt>
<pdfrwt beam="1">  1       21 0.40181315E-01 0.23995417E+03</pdfrwt>
<pdfrwt beam="2">  1       21 0.44075810E-01 0.23995417E+03</pdfrwt>
<totfact> 0.28802201E+04</totfact>
</mgrwt>
</event>
<event>
 4    1  0.4017302E+000  0.2001147E+03  0.7546771E-02  0.1149642E+00
         21   -1    0    0  501  502  0.00000000000E+00  0.00000000000E+00  0.39382892970E+03  0.39382892970E+03  0.00000000000E+00 0.  1.
         21   -1    0    0  502  503 -0.00000000000E+00 -0.00000000000E+00 -0.10755916395E+03  0.10755916395E+03  0.00000000000E+00 0.  1.
          6    1    1    2  501    0  0.24288109299E+02 -0.97606339187E+02  0.84541543654E+02  0.21723991877E+03  0.17300000000E+03 0.  1.
         -6    1    1    2    0  503 -0.24288109299E+02  0.97606339187E+02  0.20172822209E+03  0.28414817488E+03  0.17300000000E+03 0.  1.
<mgrwt>
<rscale>  2 0.20011474E+03</rscale>
<asrwt>0</asrwt>
<pdfrwt beam="1">  1       21 0.60589066E-01 0.20011474E+03</pdfrwt>
<pdfrwt beam="2">  1       21 0.16547564E-01 0.20011474E+03</pdfrwt>
<totfact> 0.82913827E+04</totfact>
</mgrwt>
</event>
<event>
 4    1  0.4017302E+000  0.2468737E+03  0.7546771E-02  0.1115297E+00
         21   -1    0    0  503  502  0.00000000000E+00  0.00000000000E+00  0.24473425700E+03  0.24473425700E+03  0.00000000000E+00 0. -1.
         21   -1    0    0  501  503 -0.00000000000E+00 -0.00000000000E+00 -0.40834057647E+03  0.40834057647E+03  0.00000000000E+00 0.  1.
          6    1    1    2  501    0 -0.17060964889E+03  0.43703372687E+02 -0.28576146673E+03  0.37763243100E+03  0.17300000000E+03 0.  1.
         -6    1    1    2    0  502  0.17060964889E+03 -0.43703372687E+02  0.12215514725E+03  0.27544240247E+03  0.17300000000E+03 0. -1.
<mgrwt>
<rscale>  2 0.24687373E+03</rscale>
<asrwt>0</asrwt>
<pdfrwt beam="1">  1       21 0.37651424E-01 0.24687373E+03</pdfrwt>
<pdfrwt beam="2">  1       21 0.62821627E-01 0.24687373E+03</pdfrwt>
<totfact> 0.15472397E+04</totfact>
</mgrwt>
</event>
<event>
 4    1  0.4017302E+000  0.2151849E+03  0.7546771E-02  0.1137525E+00
         21   -1    0    0  501  502  0.00000000000E+00  0.00000000000E+00  0.10119704733E+03  0.10119704733E+03  0.00000000000E+00 0.  1.
         21   -1    0    0  502  503 -0.00000000000E+00 -0.00000000000E+00 -0.46370417206E+03  0.46370417206E+03  0.00000000000E+00 0.  1.
          6    1    1    2  501    0 -0.12795195584E+03 -0.19537109444E+01 -0.21374541479E+03  0.30330120728E+03  0.17300000000E+03 0.  1.
         -6    1    1    2    0  503  0.12795195584E+03  0.19537109444E+01 -0.14876170994E+03  0.26160001211E+03  0.17300000000E+03 0.  1.
<mgrwt>
<rscale>  2 0.21518485E+03</rscale>
<asrwt>0</asrwt>
<pdfrwt beam="1">  1       21 0.15568776E-01 0.21518485E+03</pdfrwt>
<pdfrwt beam="2">  1       21 0.71339105E-01 0.21518485E+03</pdfrwt>
<totfact> 0.64466475E+04</totfact>
</mgrwt>
</event>
<event>
 4    1  0.4017302E+000  0.2106947E+03  0.7546771E-02  0.1141017E+00
         21   -1    0    0  501  502  0.00000000000E+00  0.00000000000E+00  0.14989746020E+03  0.14989746020E+03  0.00000000000E+00 0.  1.
         21   -1    0    0  502  503 -0.00000000000E+00 -0.00000000000E+00 -0.30399890397E+03  0.30399890397E+03  0.00000000000E+00 0.  1.
          6    1    1    2  501    0 -0.11785103933E+03 -0.23965991683E+02 -0.40585729759E+02  0.21456802579E+03  0.17300000000E+03 0.  1.
         -6    1    1    2    0  503  0.11785103933E+03  0.23965991683E+02 -0.11351571401E+03  0.23932833839E+03  0.17300000000E+03 0.  1.
<mgrwt>
<rscale>  2 0.21069465E+03</rscale>
<asrwt>0</asrwt>
<pdfrwt beam="1">  1       21 0.23061148E-01 0.21069465E+03</pdfrwt>
<pdfrwt beam="2">  1       21 0.46769062E-01 0.21069465E+03</pdfrwt>
<totfact> 0.76694210E+04</totfact>
</mgrwt>
</event>
<event>
 4    1  0.4017302E+000  0.1802909E+03  0.7546771E-02  0.1167522E+00
         21   -1    0    0  501  502  0.00000000000E+00  0.00000000000E+00  0.10012338053E+03  0.10012338053E+03  0.00000000000E+00 0. -1.
         21   -1    0    0  502  503 -0.00000000000E+00 -0.00000000000E+00 -0.45747750316E+03  0.45747750316E+03  0.00000000000E+00 0. -1.
          6    1    1    2  501    0  0.35567073887E+02 -0.36205006374E+02 -0.28447136922E+02  0.18252139280E+03  0.17300000000E+03 0. -1.
         -6    1    1    2    0  503 -0.35567073887E+02  0.36205006374E+02 -0.32890698571E+03  0.37507949088E+03  0.17300000000E+03 0. -1.
<mgrwt>
<rscale>  2 0.18029093E+03</rscale>
<asrwt>0</asrwt>
<pdfrwt beam="1">  1       21 0.15403597E-01 0.18029093E+03</pdfrwt>
<pdfrwt beam="2">  1       21 0.70381152E-01 0.18029093E+03</pdfrwt>
<totfact> 0.68798162E+04</totfact>
</mgrwt>
</event>
<event>
 4    1  0.4017302E+000  0.2657650E+03  0.7546771E-02  0.1103728E+00
         21   -1    0    0  501  502  0.00000000000E+00  0.00000000000E+00  0.79915289992E+03  0.79915289992E+03  0.00000000000E+00 0.  1.
         21   -1    0    0  502  503 -0.00000000000E+00 -0.00000000000E+00 -0.16203845451E+03  0.16203845451E+03  0.00000000000E+00 0.  1.
          6    1    1    2  501    0 -0.99936434489E+02 -0.17525624095E+03 -0.54652096920E+01  0.26582119827E+03  0.17300000000E+03 0.  1.
         -6    1    1    2    0  503  0.99936434489E+02  0.17525624095E+03  0.64257965510E+03  0.69537015616E+03  0.17300000000E+03 0.  1.
<mgrwt>
<rscale>  2 0.26576501E+03</rscale>
<asrwt>0</asrwt>
<pdfrwt beam="1">  1       21 0.12294660E+00 0.26576501E+03</pdfrwt>
<pdfrwt beam="2">  1       21 0.24928993E-01 0.26576501E+03</pdfrwt>
<totfact> 0.72112065E+03</totfact>
</mgrwt>
</event>
<event>
 4    1  0.4017302E+000  0.2028345E+03  0.7546771E-02  0.1147369E+00
         21   -1    0    0  503  502  0.00000000000E+00  0.00000000000E+00  0.21375540484E+03  0.21375540484E+03  0.00000000000E+00 0.  1.
         21   -1    0    0  501  503 -0.00000000000E+00 -0.00000000000E+00 -0.31873927390E+03  0.31873927390E+03  0.00000000000E+00 0.  1.
          6    1    1    2  501    0  0.87057662208E+02  0.60280942598E+02 -0.22006866287E+03  0.29928589169E+03  0.17300000000E+03 0.  1.
         -6    1    1    2    0  502 -0.87057662208E+02 -0.60280942598E+02  0.11508479380E+03  0.23320878704E+03  0.17300000000E+03 0.  1.
<mgrwt>
<rscale>  2 0.20283449E+03</rscale>
<asrwt>0</asrwt>
<pdfrwt beam="1">  1       21 0.32885447E-01 0.20283449E+03</pdfrwt>
<pdfrwt beam="2">  1       21 0.49036811E-01 0.20283449E+03</pdfrwt>
<totfact> 0.35129211E+04</totfact>
</mgrwt>
</event>
<event>
 4    1  0.4017302E+000  0.1793254E+03  0.7546771E-02  0.1168458E+00
         21   -1    0    0  503  502  0.00000000000E+00  0.00000000000E+00  0.60802362320E+02  0.60802362320E+02  0.00000000000E+00 0. -1.
         21   -1    0    0  501  503 -0.00000000000E+00 -0.00000000000E+00 -0.72961121129E+03  0.72961121129E+03  0.00000000000E+00 0. -1.
          6    1    1    2  501    0 -0.15683125316E+02  0.44526778752E+02 -0.54169437596E+03  0.57060528511E+03  0.17300000000E+03 0. -1.
         -6    1    1    2    0  502  0.15683125316E+02 -0.44526778752E+02 -0.12711447301E+03  0.21980828850E+03  0.17300000000E+03 0. -1.
<mgrwt>
<rscale>  2 0.17932539E+03</rscale>
<asrwt>0</asrwt>
<pdfrwt beam="1">  1       21 0.93542091E-02 0.17932539E+03</pdfrwt>
<pdfrwt beam="2">  1       21 0.11224788E+00 0.17932539E+03</pdfrwt>
<totfact> 0.57137318E+04</totfact>
</mgrwt>
</event>
<event>
 4    1  0.4017302E+000  0.2081371E+03  0.7546771E-02  0.1143050E+00
         21   -1    0    0  501  502  0.00000000000E+00  0.00000000000E+00  0.61405810505E+03  0.61405810505E+03  0.00000000000E+00 0.  1.
         21   -1    0    0  502  503 -0.00000000000E+00 -0.00000000000E+00 -0.82386167286E+02  0.82386167286E+02  0.00000000000E+00 0.  1.
          6    1    1    2  501    0 -0.11541433592E+03 -0.84610501377E+01  0.39783079576E+03  0.44898819624E+03  0.17300000000E+03 0.  1.
         -6    1    1    2    0  503  0.11541433592E+03  0.84610501377E+01  0.13384114200E+03  0.24745607610E+03  0.17300000000E+03 0.  1.
<mgrwt>
<rscale>  2 0.20813711E+03</rscale>
<asrwt>0</asrwt>
<pdfrwt beam="1">  1       21 0.94470475E-01 0.20813711E+03</pdfrwt>
<pdfrwt beam="2">  1       21 0.12674795E-01 0.20813711E+03</pdfrwt>
<totfact> 0.49540340E+04</totfact>
</mgrwt>
</event>
<event>
 4    1  0.4017302E+000  0.2168181E+03  0.7546771E-02  0.1136278E+00
         21   -1    0    0  501  502  0.00000000000E+00  0.00000000000E+00  0.55899597455E+03  0.55899597455E+03  0.00000000000E+00 0. -1.
         21   -1    0    0  502  503 -0.00000000000E+00 -0.00000000000E+00 -0.88164494316E+02  0.88164494316E+02  0.00000000000E+00 0. -1.
          6    1    1    2  501    0 -0.11789121480E+03 -0.56415883030E+02  0.30491480097E+03  0.37414318948E+03  0.17300000000E+03 0. -1.
         -6    1    1    2    0  503  0.11789121480E+03  0.56415883030E+02  0.16591667927E+03  0.27301727939E+03  0.17300000000E+03 0. -1.
<mgrwt>
<rscale>  2 0.21681810E+03</rscale>
<asrwt>0</asrwt>
<pdfrwt beam="1">  1       21 0.85999379E-01 0.21681810E+03</pdfrwt>
<pdfrwt beam="2">  1       21 0.13563769E-01 0.21681810E+03</pdfrwt>
<totfact> 0.54291836E+04</totfact>
</mgrwt>
</event>
<event>
 4    1  0.4017302E+000  0.1907377E+03  0.7546771E-02  0.1157798E+00
         21   -1    0    0  501  502  0.00000000000E+00  0.00000000000E+00  0.37543217567E+03  0.37543217567E+03  0.00000000000E+00 0. -1.
         21   -1    0    0  502  503 -0.00000000000E+00 -0.00000000000E+00 -0.98984477868E+02  0.98984477868E+02  0.00000000000E+00 0.  1.
          6    1    1    2  501    0 -0.44308745937E+02 -0.66997174762E+02  0.17261336224E+03  0.25724746688E+03  0.17300000000E+03 0. -1.
         -6    1    1    2    0  503  0.44308745937E+02  0.66997174762E+02  0.10383433557E+03  0.21716918666E+03  0.17300000000E+03 0.  1.
<mgrwt>
<rscale>  2 0.19073774E+03</rscale>
<asrwt>0</asrwt>
<pdfrwt beam="1">  1       21 0.57758796E-01 0.19073774E+03</pdfrwt>
<pdfrwt beam="2">  1       21 0.15228381E-01 0.19073774E+03</pdfrwt>
<totfact> 0.10736376E+05</totfact>
</mgrwt>
</event>
<event>
 4    1  0.4017302E+000  0.2182001E+03  0.7546771E-02  0.1135232E+00
         21   -1    0    0  503  502  0.00000000000E+00  0.00000000000E+00  0.78202966281E+03  0.78202966281E+03  0.00000000000E+00 0. -1.
         21   -1    0    0  501  503 -0.00000000000E+00 -0.00000000000E+00 -0.14882515237E+03  0.14882515237E+03  0.00000000000E+00 0. -1.
          6    1    1    2  501    0 -0.11970065633E+03 -0.57914076618E+02 -0.41177338333E+02  0.22205148184E+03  0.17300000000E+03 0. -1.
         -6    1    1    2    0  502  0.11970065633E+03  0.57914076618E+02  0.67438184877E+03  0.70880333334E+03  0.17300000000E+03 0. -1.
<mgrwt>
<rscale>  2 0.21820011E+03</rscale>
<asrwt>0</asrwt>
<pdfrwt beam="1">  1       21 0.12031225E+00 0.21820011E+03</pdfrwt>
<pdfrwt beam="2">  1       21 0.22896178E-01 0.21820011E+03</pdfrwt>
<totfact> 0.92239316E+03</totfact>
</mgrwt>
</event>
<event>
 4    1  0.4017302E+000  0.1875843E+03  0.7546771E-02  0.1160658E+00
         21   -1    0    0  501  502  0.00000000000E+00  0.00000000000E+00  0.65095648715E+03  0.65095648715E+03  0.00000000000E+00 0. -1.
         21   -1    0    0  502  503 -0.00000000000E+00 -0.00000000000E+00 -0.65185230445E+02  0.65185230445E+02  0.00000000000E+00 0. -1.
          6    1    1    2  501    0  0.46344541731E+02 -0.55776842462E+02  0.44084206781E+03  0.47909247693E+03  0.17300000000E+03 0.  1.
         -6    1    1    2    0  503 -0.46344541731E+02  0.55776842462E+02  0.14492918889E+03  0.23704924066E+03  0.17300000000E+03 0.  1.
<mgrwt>
<rscale>  2 0.18758431E+03</rscale>
<asrwt>0</asrwt>
<pdfrwt beam="1">  1       21 0.10014715E+00 0.18758431E+03</pdfrwt>
<pdfrwt beam="2">  1       21 0.10028497E-01 0.18758431E+03</pdfrwt>
<totfact> 0.66207027E+04</totfact>
</mgrwt>
</event>
<event>
 4    1  0.4017302E+000  0.1802154E+03  0.7546771E-02  0.1167595E+00
         21   -1    0    0  503  502  0.00000000000E+00  0.00000000000E+00  0.34902824394E+03  0.34902824394E+03  0.00000000000E+00 0. -1.
         21   -1    0    0  501  503 -0.00000000000E+00 -0.00000000000E+00 -0.17884617633E+03  0.17884617633E+03  0.00000000000E+00 0. -1.
          6    1    1    2  501    0 -0.31704386225E+02  0.39286518921E+02 -0.97715192541E+02  0.20500209152E+03  0.17300000000E+03 0. -1.
         -6    1    1    2    0  502  0.31704386225E+02 -0.39286518921E+02  0.26789726015E+03  0.32287232875E+03  0.17300000000E+03 0. -1.
<mgrwt>
<rscale>  2 0.18021542E+03</rscale>
<asrwt>0</asrwt>
<pdfrwt beam="1">  1       21 0.53696653E-01 0.18021542E+03</pdfrwt>
<pdfrwt beam="2">  1       21 0.27514796E-01 0.18021542E+03</pdfrwt>
<totfact> 0.41606134E+04</totfact>
</mgrwt>
</event>
<event>
 4    1  0.4017302E+000  0.1971784E+03  0.7546771E-02  0.1152142E+00
         21   -1    0    0  503  502  0.00000000000E+00  0.00000000000E+00  0.41654250860E+03  0.41654250860E+03  0.00000000000E+00 0. -1.
         21   -1    0    0  501  503 -0.00000000000E+00 -0.00000000000E+00 -0.11318349373E+03  0.11318349373E+03  0.00000000000E+00 0. -1.
          6    1    1    2  501    0  0.94404355519E+02 -0.61752514715E+01  0.26258647383E+03  0.32837626637E+03  0.17300000000E+03 0. -1.
         -6    1    1    2    0  502 -0.94404355519E+02  0.61752514715E+01  0.40772541036E+02  0.20134973597E+03  0.17300000000E+03 0. -1.
<mgrwt>
<rscale>  2 0.19717839E+03</rscale>
<asrwt>0</asrwt>
<pdfrwt beam="1">  1       21 0.64083462E-01 0.19717839E+03</pdfrwt>
<pdfrwt beam="2">  1       21 0.17412845E-01 0.19717839E+03</pdfrwt>
<totfact> 0.66956273E+04</totfact>
</mgrwt>
</event>
<event>
 4    1  0.4017302E+000  0.2441963E+03  0.7546771E-02  0.1117029E+00
         21   -1    0    0  503  502  0.00000000000E+00  0.00000000000E+00  0.17426632191E+04  0.17426632191E+04  0.00000000000E+00 0.  1.
         21   -1    0    0  501  503 -0.00000000000E+00 -0.00000000000E+00 -0.40861921002E+02  0.40861921002E+02  0.00000000000E+00 0.  1.
          6    1    1    2  501    0 -0.18637034405E+02  0.17133446012E+03  0.49133675158E+03  0.54867443874E+03  0.17300000000E+03 0.  1.
         -6    1    1    2    0  502  0.18637034405E+02 -0.17133446012E+03  0.12104645465E+04  0.12348507014E+04  0.17300000000E+03 0.  1.
<mgrwt>
<rscale>  2 0.24419631E+03</rscale>
<asrwt>0</asrwt>
<pdfrwt beam="1">  1       21 0.26810198E+00 0.24419631E+03</pdfrwt>
<pdfrwt beam="2">  1       21 0.62864507E-02 0.24419631E+03</pdfrwt>
<totfact> 0.90556155E+03</totfact>
</mgrwt>
</event>
<event>
 4    1  0.4017302E+000  0.2063734E+03  0.7546771E-02  0.1144471E+00
         21   -1    0    0  503  502  0.00000000000E+00  0.00000000000E+00  0.22394141003E+03  0.22394141003E+03  0.00000000000E+00 0. -1.
         21   -1    0    0  501  503 -0.00000000000E+00 -0.00000000000E+00 -0.25314472526E+03  0.25314472526E+03  0.00000000000E+00 0.  1.
          6    1    1    2  501    0  0.55047541478E+02  0.98136273276E+02 -0.13356659016E+03  0.24582512883E+03  0.17300000000E+03 0.  1.
         -6    1    1    2    0  502 -0.55047541478E+02 -0.98136273276E+02  0.10436327493E+03  0.23126100646E+03  0.17300000000E+03 0. -1.
<mgrwt>
<rscale>  2 0.20637335E+03</rscale>
<asrwt>0</asrwt>
<pdfrwt beam="1">  1       21 0.34452525E-01 0.20637335E+03</pdfrwt>
<pdfrwt beam="2">  1       21 0.38945342E-01 0.20637335E+03</pdfrwt>
<totfact> 0.51273485E+04</totfact>
</mgrwt>
</event>
<event>
 4    1  0.4017302E+000  0.2424515E+03  0.7546771E-02  0.1118170E+00
         21   -1    0    0  501  502  0.00000000000E+00  0.00000000000E+00  0.21847165433E+04  0.21847165433E+04  0.00000000000E+00 0. -1.
         21   -1    0    0  502  503 -0.00000000000E+00 -0.00000000000E+00 -0.27036633907E+02  0.27036633907E+02  0.00000000000E+00 0.  1.
          6    1    1    2  501    0 -0.16963347367E+03 -0.88441998882E+01  0.11556088749E+04  0.11807686509E+04  0.17300000000E+03 0.  1.
         -6    1    1    2    0  503  0.16963347367E+03  0.88441998882E+01  0.10020710345E+04  0.10309845263E+04  0.17300000000E+03 0. -1.
<mgrwt>
<rscale>  2 0.24245151E+03</rscale>
<asrwt>0</asrwt>
<pdfrwt beam="1">  1       21 0.33611010E+00 0.24245151E+03</pdfrwt>
<pdfrwt beam="2">  1       21 0.41594838E-02 0.24245151E+03</pdfrwt>
<totfact> 0.73387950E+03</totfact>
</mgrwt>
</event>
<event>
 4    1  0.4017302E+000  0.2512114E+03  0.7546771E-02  0.1112542E+00
         21   -1    0    0  503  502  0.00000000000E+00  0.00000000000E+00  0.16791012527E+03  0.16791012527E+03  0.00000000000E+00 0. -1.
         21   -1    0    0  501  503 -0.00000000000E+00 -0.00000000000E+00 -0.42968050592E+03  0.42968050592E+03  0.00000000000E+00 0. -1.
          6    1    1    2  501    0  0.17873914499E+03  0.35078067375E+02 -0.23665459456E+03  0.34512686057E+03  0.17300000000E+03 0. -1.
         -6    1    1    2    0  502 -0.17873914499E+03 -0.35078067375E+02 -0.25115786095E+02  0.25246377061E+03  0.17300000000E+03 0. -1.
<mgrwt>
<rscale>  2 0.25121137E+03</rscale>
<asrwt>0</asrwt>
<pdfrwt beam="1">  1       21 0.25832328E-01 0.25121137E+03</pdfrwt>
<pdfrwt beam="2">  1       21 0.66104692E-01 0.25121137E+03</pdfrwt>
<totfact> 0.29016756E+04</totfact>
</mgrwt>
</event>
<event>
 4    1  0.4017302E+000  0.2375150E+03  0.7546771E-02  0.1121459E+00
         21   -1    0    0  503  502  0.00000000000E+00  0.00000000000E+00  0.11807817102E+04  0.11807817102E+04  0.00000000000E+00 0. -1.
         21   -1    0    0  501  503 -0.00000000000E+00 -0.00000000000E+00 -0.63853565617E+02  0.63853565617E+02  0.00000000000E+00 0. -1.
          6    1    1    2  501    0 -0.15484327049E+03  0.50079415658E+02  0.24619744772E+03  0.34209146372E+03  0.17300000000E+03 0. -1.
         -6    1    1    2    0  502  0.15484327049E+03 -0.50079415658E+02  0.87073069687E+03  0.90254381210E+03  0.17300000000E+03 0. -1.
<mgrwt>
<rscale>  2 0.23751502E+03</rscale>
<asrwt>0</asrwt>
<pdfrwt beam="1">  1       21 0.18165871E+00 0.23751502E+03</pdfrwt>
<pdfrwt beam="2">  1       21 0.98236263E-02 0.23751502E+03</pdfrwt>
<totfact> 0.14380893E+04</totfact>
</mgrwt>
</event>
<event>
 4    1  0.4017302E+000  0.2071444E+03  0.7546771E-02  0.1143847E+00
         21   -1    0    0  501  502  0.00000000000E+00  0.00000000000E+00  0.14626971217E+03  0.14626971217E+03  0.00000000000E+00 0. -1.
         21   -1    0    0  502  503 -0.00000000000E+00 -0.00000000000E+00 -0.40601207601E+03  0.40601207601E+03  0.00000000000E+00 0. -1.
          6    1    1    2  501    0 -0.75046933949E+02 -0.85719008019E+02  0.15588491264E+02  0.20773009337E+03  0.17300000000E+03 0. -1.
         -6    1    1    2    0  503  0.75046933949E+02  0.85719008019E+02 -0.27533085510E+03  0.34455169482E+03  0.17300000000E+03 0. -1.
<mgrwt>
<rscale>  2 0.20714437E+03</rscale>
<asrwt>0</asrwt>
<pdfrwt beam="1">  1       21 0.22503033E-01 0.20714437E+03</pdfrwt>
<pdfrwt beam="2">  1       21 0.62463397E-01 0.20714437E+03</pdfrwt>
<totfact> 0.43628526E+04</totfact>
</mgrwt>
</event>
<event>
 4    1  0.4017302E+000  0.2235752E+03  0.7546771E-02  0.1131245E+00
         21   -1    0    0  501  502  0.00000000000E+00  0.00000000000E+00  0.13972140547E+03  0.13972140547E+03  0.00000000000E+00 0. -1.
         21   -1    0    0  502  503 -0.00000000000E+00 -0.00000000000E+00 -0.39427823360E+03  0.39427823360E+03  0.00000000000E+00 0.  1.
          6    1    1    2  501    0 -0.14161729857E+03 -0.11897637123E+01 -0.46013918908E+02  0.22826115641E+03  0.17300000000E+03 0.  1.
         -6    1    1    2    0  503  0.14161729857E+03  0.11897637123E+01 -0.20854290922E+03  0.30573848266E+03  0.17300000000E+03 0.  1.
<mgrwt>
<rscale>  2 0.22357521E+03</rscale>
<asrwt>0</asrwt>
<pdfrwt beam="1">  1       21 0.21495601E-01 0.22357521E+03</pdfrwt>
<pdfrwt beam="2">  1       21 0.60658190E-01 0.22357521E+03</pdfrwt>
<totfact> 0.50298927E+04</totfact>
</mgrwt>
</event>
<event>
 4    1  0.4017302E+000  0.1772060E+03  0.7546771E-02  0.1170535E+00
         21   -1    0    0  503  502  0.00000000000E+00  0.00000000000E+00  0.70508006741E+03  0.70508006741E+03  0.00000000000E+00 0.  1.
         21   -1    0    0  501  503 -0.00000000000E+00 -0.00000000000E+00 -0.10950297783E+03  0.10950297783E+03  0.00000000000E+00 0.  1.
          6    1    1    2  501    0  0.34871910295E+02 -0.16028250628E+02 -0.15927206748E+02  0.17792029356E+03  0.17300000000E+03 0.  1.
         -6    1    1    2    0  502 -0.34871910295E+02  0.16028250628E+02  0.61150429633E+03  0.63666275168E+03  0.17300000000E+03 0.  1.
<mgrwt>
<rscale>  2 0.17720597E+03</rscale>
<asrwt>0</asrwt>
<pdfrwt beam="1">  1       21 0.10847385E+00 0.17720597E+03</pdfrwt>
<pdfrwt beam="2">  1       21 0.16846612E-01 0.17720597E+03</pdfrwt>
<totfact> 0.21635284E+04</totfact>
</mgrwt>
</event>
<event>
 4    1  0.4017302E+000  0.1822594E+03  0.7546771E-02  0.1165634E+00
         21   -1    0    0  503  502  0.00000000000E+00  0.00000000000E+00  0.41439793203E+02  0.41439793203E+02  0.00000000000E+00 0. -1.
         21   -1    0    0  501  503 -0.00000000000E+00 -0.00000000000E+00 -0.84866967621E+03  0.84866967621E+03  0.00000000000E+00 0. -1.
          6    1    1    2  501    0  0.43857462750E+02  0.36959368167E+02 -0.50841886365E+03  0.54010018779E+03  0.17300000000E+03 0.  1.
         -6    1    1    2    0  502 -0.43857462750E+02 -0.36959368167E+02 -0.29881101936E+03  0.35000928162E+03  0.17300000000E+03 0.  1.
<mgrwt>
<rscale>  2 0.18225935E+03</rscale>
<asrwt>0</asrwt>
<pdfrwt beam="1">  1       21 0.63753524E-02 0.18225935E+03</pdfrwt>
<pdfrwt beam="2">  1       21 0.13056457E+00 0.18225935E+03</pdfrwt>
<totfact> 0.76351032E+04</totfact>
</mgrwt>
</event>
<event>
 4    1  0.4017302E+000  0.2294072E+03  0.7546771E-02  0.1127058E+00
         21   -1    0    0  501  502  0.00000000000E+00  0.00000000000E+00  0.51992578777E+03  0.51992578777E+03  0.00000000000E+00 0. -1.
         21   -1    0    0  502  503 -0.00000000000E+00 -0.00000000000E+00 -0.17163629443E+03  0.17163629443E+03  0.00000000000E+00 0. -1.
          6    1    1    2  501    0  0.14893159207E+02 -0.14992284089E+03  0.39562172650E+03  0.45732287816E+03  0.17300000000E+03 0. -1.
         -6    1    1    2    0  503 -0.14893159207E+02  0.14992284089E+03 -0.47332233152E+02  0.23423920404E+03  0.17300000000E+03 0. -1.
<mgrwt>
<rscale>  2 0.22940720E+03</rscale>
<asrwt>0</asrwt>
<pdfrwt beam="1">  1       21 0.79988582E-01 0.22940720E+03</pdfrwt>
<pdfrwt beam="2">  1       21 0.26405584E-01 0.22940720E+03</pdfrwt>
<totfact> 0.18365232E+04</totfact>
</mgrwt>
</event>
<event>
 4    1  0.4017302E+000  0.2064896E+03  0.7546771E-02  0.1144376E+00
         21   -1    0    0  501  502  0.00000000000E+00  0.00000000000E+00  0.33467578580E+02  0.33467578580E+02  0.00000000000E+00 0.  1.
         21   -1    0    0  502  503 -0.00000000000E+00 -0.00000000000E+00 -0.12740987152E+04  0.12740987152E+04  0.00000000000E+00 0. -1.
          6    1    1    2  501    0 -0.26113285833E+02  0.10966785275E+03 -0.62585142937E+03  0.65903562367E+03  0.17300000000E+03 0. -1.
         -6    1    1    2    0  503  0.26113285833E+02 -0.10966785275E+03 -0.61477970724E+03  0.64853067010E+03  0.17300000000E+03 0.  1.
<mgrwt>
<rscale>  2 0.20648957E+03</rscale>
<asrwt>0</asrwt>
<pdfrwt beam="1">  1       21 0.51488586E-02 0.20648957E+03</pdfrwt>
<pdfrwt beam="2">  1       21 0.19601517E+00 0.20648957E+03</pdfrwt>
<totfact> 0.36119060E+04</totfact>
</mgrwt>
</event>
<event>
 4    1  0.4017302E+000  0.1995507E+03  0.7546771E-02  0.1150119E+00
         21   -1    0    0  503  502  0.00000000000E+00  0.00000000000E+00  0.11971626031E+03  0.11971626031E+03  0.00000000000E+00 0.  1.
         21   -1    0    0  501  503 -0.00000000000E+00 -0.00000000000E+00 -0.42061767959E+03  0.42061767959E+03  0.00000000000E+00 0.  1.
          6    1    1    2  501    0  0.88282884586E+01 -0.99063287445E+02 -0.27402120917E+03  0.33898096800E+03  0.17300000000E+03 0.  1.
         -6    1    1    2    0  502 -0.88282884586E+01  0.99063287445E+02 -0.26880210109E+02  0.20135297190E+03  0.17300000000E+03 0.  1.
<mgrwt>
<rscale>  2 0.19955068E+03</rscale>
<asrwt>0</asrwt>
<pdfrwt beam="1">  1       21 0.18417886E-01 0.19955068E+03</pdfrwt>
<pdfrwt beam="2">  1       21 0.64710412E-01 0.19955068E+03</pdfrwt>
<totfact> 0.59025668E+04</totfact>
</mgrwt>
</event>
<event>
 4    1  0.4017302E+000  0.1822602E+03  0.7546771E-02  0.1165633E+00
         21   -1    0    0  501  502  0.00000000000E+00  0.00000000000E+00  0.41437059753E+02  0.41437059753E+02  0.00000000000E+00 0. -1.
         21   -1    0    0  502  503 -0.00000000000E+00 -0.00000000000E+00 -0.87676440582E+03  0.87676440582E+03  0.00000000000E+00 0. -1.
          6    1    1    2  501    0 -0.57124576764E+02 -0.51552137993E+01 -0.28330240149E+03  0.33686650797E+03  0.17300000000E+03 0. -1.
         -6    1    1    2    0  503  0.57124576764E+02  0.51552137993E+01 -0.55202494458E+03  0.58133495761E+03  0.17300000000E+03 0. -1.
<mgrwt>
<rscale>  2 0.18226024E+03</rscale>
<asrwt>0</asrwt>
<pdfrwt beam="1">  1       21 0.63749333E-02 0.18226024E+03</pdfrwt>
<pdfrwt beam="2">  1       21 0.13488681E+00 0.18226024E+03</pdfrwt>
<totfact> 0.70321516E+04</totfact>
</mgrwt>
</event>
<event>
 4    1  0.4017302E+000  0.2184905E+03  0.7546771E-02  0.1135013E+00
         21   -1    0    0  501  502  0.00000000000E+00  0.00000000000E+00  0.15195381209E+03  0.15195381209E+03  0.00000000000E+00 0. -1.
         21   -1    0    0  502  503 -0.00000000000E+00 -0.00000000000E+00 -0.59651333015E+03  0.59651333015E+03  0.00000000000E+00 0. -1.
          6    1    1    2  501    0  0.13345076839E+03  0.25677654762E-01  0.35190821937E+02  0.22130635371E+03  0.17300000000E+03 0. -1.
         -6    1    1    2    0  503 -0.13345076839E+03 -0.25677654762E-01 -0.47975033999E+03  0.52716078853E+03  0.17300000000E+03 0. -1.
<mgrwt>
<rscale>  2 0.21849052E+03</rscale>
<asrwt>0</asrwt>
<pdfrwt beam="1">  1       21 0.23377510E-01 0.21849052E+03</pdfrwt>
<pdfrwt beam="2">  1       21 0.91771281E-01 0.21849052E+03</pdfrwt>
<totfact> 0.17007322E+04</totfact>
</mgrwt>
</event>
<event>
 4    1  0.4017302E+000  0.1805132E+03  0.7546771E-02  0.1167307E+00
         21   -1    0    0  501  502  0.00000000000E+00  0.00000000000E+00  0.12951055787E+03  0.12951055787E+03  0.00000000000E+00 0.  1.
         21   -1    0    0  502  503 -0.00000000000E+00 -0.00000000000E+00 -0.27116503459E+03  0.27116503459E+03  0.00000000000E+00 0. -1.
          6    1    1    2  501    0  0.47930327957E+02  0.18938913260E+02 -0.12463862125E+03  0.21936222255E+03  0.17300000000E+03 0. -1.
         -6    1    1    2    0  503 -0.47930327957E+02 -0.18938913260E+02 -0.17015855475E+02  0.18131336992E+03  0.17300000000E+03 0.  1.
<mgrwt>
<rscale>  2 0.18051315E+03</rscale>
<asrwt>0</asrwt>
<pdfrwt beam="1">  1       21 0.19924701E-01 0.18051315E+03</pdfrwt>
<pdfrwt beam="2">  1       21 0.41717697E-01 0.18051315E+03</pdfrwt>
<totfact> 0.12912346E+05</totfact>
</mgrwt>
</event>
<event>
 4    1  0.4017302E+000  0.2211669E+03  0.7546771E-02  0.1133016E+00
         21   -1    0    0  501  502  0.00000000000E+00  0.00000000000E+00  0.85189046016E+02  0.85189046016E+02  0.00000000000E+00 0.  1.
         21   -1    0    0  502  503 -0.00000000000E+00 -0.00000000000E+00 -0.73501744850E+03  0.73501744850E+03  0.00000000000E+00 0. -1.
          6    1    1    2  501    0 -0.13778129145E+03  0.14577916076E+01 -0.13308147058E+03  0.25811913382E+03  0.17300000000E+03 0.  1.
         -6    1    1    2    0  503  0.13778129145E+03 -0.14577916076E+01 -0.51674693190E+03  0.56208736070E+03  0.17300000000E+03 0. -1.
<mgrwt>
<rscale>  2 0.22116693E+03</rscale>
<asrwt>0</asrwt>
<pdfrwt beam="1">  1       21 0.13106007E-01 0.22116693E+03</pdfrwt>
<pdfrwt beam="2">  1       21 0.11307961E+00 0.22116693E+03</pdfrwt>
<totfact> 0.30107499E+04</totfact>
</mgrwt>
</event>
<event>
 4    1  0.4017302E+000  0.1768940E+03  0.7546771E-02  0.1170843E+00
         21   -1    0    0  503  502  0.00000000000E+00  0.00000000000E+00  0.31026161076E+03  0.31026161076E+03  0.00000000000E+00 0. -1.
         21   -1    0    0  501  503 -0.00000000000E+00 -0.00000000000E+00 -0.16311333501E+03  0.16311333501E+03  0.00000000000E+00 0. -1.
          6    1    1    2  501    0  0.47800395769E+01  0.36601225158E+02 -0.72653200102E+02  0.19123280562E+03  0.17300000000E+03 0. -1.
         -6    1    1    2    0  502 -0.47800395769E+01 -0.36601225158E+02  0.21980147585E+03  0.28214214015E+03  0.17300000000E+03 0. -1.
<mgrwt>
<rscale>  2 0.17689403E+03</rscale>
<asrwt>0</asrwt>
<pdfrwt beam="1">  1       21 0.47732555E-01 0.17689403E+03</pdfrwt>
<pdfrwt beam="2">  1       21 0.25094359E-01 0.17689403E+03</pdfrwt>
<totfact> 0.63543717E+04</totfact>
</mgrwt>
</event>
<event>
 4    1  0.4017302E+000  0.2421760E+03  0.7546771E-02  0.1118352E+00
         21   -1    0    0  501  502  0.00000000000E+00  0.00000000000E+00  0.48085616189E+02  0.48085616189E+02  0.00000000000E+00 0.  1.
         21   -1    0    0  502  503 -0.00000000000E+00 -0.00000000000E+00 -0.12725975581E+04  0.12725975581E+04  0.00000000000E+00 0. -1.
          6    1    1    2  501    0  0.73357968121E+01  0.16931157607E+03 -0.47760502619E+03  0.53549583075E+03  0.17300000000E+03 0.  1.
         -6    1    1    2    0  503 -0.73357968121E+01 -0.16931157607E+03 -0.74690691569E+03  0.78518734351E+03  0.17300000000E+03 0. -1.
<mgrwt>
<rscale>  2 0.24217602E+03</rscale>
<asrwt>0</asrwt>
<pdfrwt beam="1">  1       21 0.73977873E-02 0.24217602E+03</pdfrwt>
<pdfrwt beam="2">  1       21 0.19578424E+00 0.24217602E+03</pdfrwt>
<totfact> 0.18985724E+04</totfact>
</mgrwt>
</event>
<event>
 4    1  0.4017302E+000  0.1890578E+03  0.7546771E-02  0.1159314E+00
         21   -1    0    0  503  502  0.00000000000E+00  0.00000000000E+00  0.69041273020E+03  0.69041273020E+03  0.00000000000E+00 0. -1.
         21   -1    0    0  501  503 -0.00000000000E+00 -0.00000000000E+00 -0.17014232154E+03  0.17014232154E+03  0.00000000000E+00 0. -1.
          6    1    1    2  501    0 -0.38384727517E+02  0.65882135170E+02 -0.98759541623E+02  0.21329859377E+03  0.17300000000E+03 0. -1.
         -6    1    1    2    0  502  0.38384727517E+02 -0.65882135170E+02  0.61902995029E+03  0.64725645798E+03  0.17300000000E+03 0. -1.
<mgrwt>
<rscale>  2 0.18905778E+03</rscale>
<asrwt>0</asrwt>
<pdfrwt beam="1">  1       21 0.10621734E+00 0.18905778E+03</pdfrwt>
<pdfrwt beam="2">  1       21 0.26175742E-01 0.18905778E+03</pdfrwt>
<totfact> 0.98831107E+03</totfact>
</mgrwt>
</event>
<event>
 4    1  0.4017302E+000  0.1833635E+03  0.7546771E-02  0.1164587E+00
         21   -1    0    0  503  502  0.00000000000E+00  0.00000000000E+00  0.15172471445E+04  0.15172471445E+04  0.00000000000E+00 0. -1.
         21   -1    0    0  501  503 -0.00000000000E+00 -0.00000000000E+00 -0.37850127054E+02  0.37850127054E+02  0.00000000000E+00 0. -1.
          6    1    1    2  501    0  0.48360977488E+02 -0.36802034050E+02  0.23907950490E+03  0.30129915950E+03  0.17300000000E+03 0. -1.
         -6    1    1    2    0  502 -0.48360977488E+02  0.36802034050E+02  0.12403175125E+04  0.12537981120E+04  0.17300000000E+03 0. -1.
<mgrwt>
<rscale>  2 0.18336350E+03</rscale>
<asrwt>0</asrwt>
<pdfrwt beam="1">  1       21 0.23342259E+00 0.18336350E+03</pdfrwt>
<pdfrwt beam="2">  1       21 0.58230976E-02 0.18336350E+03</pdfrwt>
<totfact> 0.17448074E+04</totfact>
</mgrwt>
</event>
<event>
 4    1  0.4017302E+000  0.2026907E+03  0.7546771E-02  0.1147489E+00
         21   -1    0    0  503  502  0.00000000000E+00  0.00000000000E+00  0.52935560439E+03  0.52935560439E+03  0.00000000000E+00 0.  1.
         21   -1    0    0  501  503 -0.00000000000E+00 -0.00000000000E+00 -0.80379211227E+02  0.80379211227E+02  0.00000000000E+00 0. -1.
          6    1    1    2  501    0 -0.56731456717E+02 -0.89084624733E+02  0.16790576563E+03  0.26320310537E+03  0.17300000000E+03 0.  1.
         -6    1    1    2    0  502  0.56731456717E+02  0.89084624733E+02  0.28107062754E+03  0.34653171025E+03  0.17300000000E+03 0. -1.
<mgrwt>
<rscale>  2 0.20269072E+03</rscale>
<asrwt>0</asrwt>
<pdfrwt beam="1">  1       21 0.81439322E-01 0.20269072E+03</pdfrwt>
<pdfrwt beam="2">  1       21 0.12366033E-01 0.20269072E+03</pdfrwt>
<totfact> 0.73118496E+04</totfact>
</mgrwt>
</event>
<event>
 4    1  0.4017302E+000  0.1875731E+03  0.7546771E-02  0.1160669E+00
         21   -1    0    0  503  502  0.00000000000E+00  0.00000000000E+00  0.16314278080E+03  0.16314278080E+03  0.00000000000E+00 0.  1.
         21   -1    0    0  501  503 -0.00000000000E+00 -0.00000000000E+00 -0.41837025059E+03  0.41837025059E+03  0.00000000000E+00 0.  1.
          6    1    1    2  501    0 -0.58002300012E+02 -0.43478580543E+02 -0.33000187716E+03  0.37958515869E+03  0.17300000000E+03 0.  1.
         -6    1    1    2    0  502  0.58002300012E+02  0.43478580543E+02  0.74774407371E+02  0.20192787269E+03  0.17300000000E+03 0.  1.
<mgrwt>
<rscale>  2 0.18757306E+03</rscale>
<asrwt>0</asrwt>
<pdfrwt beam="1">  1       21 0.25098890E-01 0.18757306E+03</pdfrwt>
<pdfrwt beam="2">  1       21 0.64364653E-01 0.18757306E+03</pdfrwt>
<totfact> 0.33561309E+04</totfact>
</mgrwt>
</event>
<event>
 4    1  0.4017302E+000  0.1781740E+03  0.7546771E-02  0.1169582E+00
         21   -1    0    0  503  502  0.00000000000E+00  0.00000000000E+00  0.24928636365E+04  0.24928636365E+04  0.00000000000E+00 0. -1.
         21   -1    0    0  501  503 -0.00000000000E+00 -0.00000000000E+00 -0.14020369155E+02  0.14020369155E+02  0.00000000000E+00 0. -1.
          6    1    1    2  501    0 -0.39404469054E+02 -0.16255961074E+02  0.85985983258E+03  0.87812578834E+03  0.17300000000E+03 0. -1.
         -6    1    1    2    0  502  0.39404469054E+02  0.16255961074E+02  0.16189834348E+04  0.16287582173E+04  0.17300000000E+03 0. -1.
<mgrwt>
<rscale>  2 0.17817398E+03</rscale>
<asrwt>0</asrwt>
<pdfrwt beam="1">  1       21 0.38351713E+00 0.17817398E+03</pdfrwt>
<pdfrwt beam="2">  1       21 0.21569818E-02 0.17817398E+03</pdfrwt>
<totfact> 0.12204842E+04</totfact>
</mgrwt>
</event>
<event>
 4    1  0.4017302E+000  0.1761415E+03  0.7546771E-02  0.1171590E+00
         21   -1    0    0  501  502  0.00000000000E+00  0.00000000000E+00  0.14997391788E+03  0.14997391788E+03  0.00000000000E+00 0. -1.
         21   -1    0    0  502  503 -0.00000000000E+00 -0.00000000000E+00 -0.44046843440E+03  0.44046843440E+03  0.00000000000E+00 0. -1.
          6    1    1    2  501    0  0.22160211472E+01 -0.33044376573E+02  0.69743853407E+02  0.18944668554E+03  0.17300000000E+03 0. -1.
         -6    1    1    2    0  503 -0.22160211472E+01  0.33044376573E+02 -0.36023836994E+03  0.40099566674E+03  0.17300000000E+03 0. -1.
<mgrwt>
<rscale>  2 0.17614154E+03</rscale>
<asrwt>0</asrwt>
<pdfrwt beam="1">  1       21 0.23072910E-01 0.17614154E+03</pdfrwt>
<pdfrwt beam="2">  1       21 0.67764375E-01 0.17614154E+03</pdfrwt>
<totfact> 0.35415068E+04</totfact>
</mgrwt>
</event>
<event>
 4    1  0.4017302E+000  0.2101694E+03  0.7546771E-02  0.1141432E+00
         21   -1    0    0  503  502  0.00000000000E+00  0.00000000000E+00  0.28061562508E+03  0.28061562508E+03  0.00000000000E+00 0. -1.
         21   -1    0    0  501  503 -0.00000000000E+00 -0.00000000000E+00 -0.23220462592E+03  0.23220462592E+03  0.00000000000E+00 0.  1.
          6    1    1    2  501    0  0.25498509396E+02 -0.11658468247E+03 -0.12132048842E+03  0.24267225444E+03  0.17300000000E+03 0. -1.
         -6    1    1    2    0  502 -0.25498509396E+02  0.11658468247E+03  0.16973148758E+03  0.27014799656E+03  0.17300000000E+03 0. -1.
<mgrwt>
<rscale>  2 0.21016937E+03</rscale>
<asrwt>0</asrwt>
<pdfrwt beam="1">  1       21 0.43171634E-01 0.21016937E+03</pdfrwt>
<pdfrwt beam="2">  1       21 0.35723789E-01 0.21016937E+03</pdfrwt>
<totfact> 0.38628478E+04</totfact>
</mgrwt>
</event>
<event>
 4    1  0.4017302E+000  0.2084678E+03  0.7546771E-02  0.1142785E+00
         21   -1    0    0  503  502  0.00000000000E+00  0.00000000000E+00  0.18830361244E+03  0.18830361244E+03  0.00000000000E+00 0. -1.
         21   -1    0    0  501  503 -0.00000000000E+00 -0.00000000000E+00 -0.26134302548E+03  0.26134302548E+03  0.00000000000E+00 0. -1.
          6    1    1    2  501    0 -0.66071485096E+02  0.95730688192E+02 -0.11338935415E+03  0.23730982162E+03  0.17300000000E+03 0. -1.
         -6    1    1    2    0  502  0.66071485096E+02 -0.95730688192E+02  0.40349941111E+02  0.21233681629E+03  0.17300000000E+03 0. -1.
<mgrwt>
<rscale>  2 0.20846776E+03</rscale>
<asrwt>0</asrwt>
<pdfrwt beam="1">  1       21 0.28969787E-01 0.20846776E+03</pdfrwt>
<pdfrwt beam="2">  1       21 0.40206619E-01 0.20846776E+03</pdfrwt>
<totfact> 0.67510963E+04</totfact>
</mgrwt>
</event>
<event>
 4    1  0.4017302E+000  0.1882726E+03  0.7546771E-02  0.1160029E+00
         21   -1    0    0  503  502  0.00000000000E+00  0.00000000000E+00  0.43537785734E+03  0.43537785734E+03  0.00000000000E+00 0.  1.
         21   -1    0    0  501  503 -0.00000000000E+00 -0.00000000000E+00 -0.82959627080E+02  0.82959627080E+02  0.00000000000E+00 0.  1.
          6    1    1    2  501    0  0.46731399656E+02 -0.57738718695E+02  0.14085290214E+03  0.23513001380E+03  0.17300000000E+03 0.  1.
         -6    1    1    2    0  502 -0.46731399656E+02  0.57738718695E+02  0.21156532812E+03  0.28320747062E+03  0.17300000000E+03 0.  1.
<mgrwt>
<rscale>  2 0.18827263E+03</rscale>
<asrwt>0</asrwt>
<pdfrwt beam="1">  1       21 0.66981208E-01 0.18827263E+03</pdfrwt>
<pdfrwt beam="2">  1       21 0.12763020E-01 0.18827263E+03</pdfrwt>
<totfact> 0.10742897E+05</totfact>
</mgrwt>
</event>
<event>
 4    1  0.4017302E+000  0.2159730E+03  0.7546771E-02  0.1136921E+00
         21   -1    0    0  501  502  0.00000000000E+00  0.00000000000E+00  0.45226589179E+03  0.45226589179E+03  0.00000000000E+00 0.  1.
         21   -1    0    0  502  503 -0.00000000000E+00 -0.00000000000E+00 -0.10776546209E+03  0.10776546209E+03  0.00000000000E+00 0.  1.
          6    1    1    2  501    0  0.99759307224E+01 -0.12890233786E+03  0.23029540110E+03  0.31572187708E+03  0.17300000000E+03 0.  1.
         -6    1    1    2    0  503 -0.99759307224E+01  0.12890233786E+03  0.11420502859E+03  0.24430947680E+03  0.17300000000E+03 0.  1.
<mgrwt>
<rscale>  2 0.21597299E+03</rscale>
<asrwt>0</asrwt>
<pdfrwt beam="1">  1       21 0.69579367E-01 0.21597299E+03</pdfrwt>
<pdfrwt beam="2">  1       21 0.16579302E-01 0.21597299E+03</pdfrwt>
<totfact> 0.60681441E+04</totfact>
</mgrwt>
</event>
<event>
 4    1  0.4017302E+000  0.1856910E+03  0.7546771E-02  0.1162406E+00
         21   -1    0    0  501  502  0.00000000000E+00  0.00000000000E+00  0.84787450400E+03  0.84787450400E+03  0.00000000000E+00 0.  1.
         21   -1    0    0  502  503 -0.00000000000E+00 -0.00000000000E+00 -0.52146841207E+02  0.52146841207E+02  0.00000000000E+00 0. -1.
          6    1    1    2  501    0 -0.64850394038E+02 -0.18616706970E+02  0.60899988862E+03  0.63668046909E+03  0.17300000000E+03 0.  1.
         -6    1    1    2    0  503  0.64850394038E+02  0.18616706970E+02  0.18672777417E+03  0.26334087611E+03  0.17300000000E+03 0. -1.
<mgrwt>
<rscale>  2 0.18569102E+03</rscale>
<asrwt>0</asrwt>
<pdfrwt beam="1">  1       21 0.13044222E+00 0.18569102E+03</pdfrwt>
<pdfrwt beam="2">  1       21 0.80225916E-02 0.18569102E+03</pdfrwt>
<totfact> 0.51364334E+04</totfact>
</mgrwt>
</event>
<event>
 4    1  0.4017302E+000  0.2066227E+03  0.7546771E-02  0.1144269E+00
         21   -1    0    0  503  502  0.00000000000E+00  0.00000000000E+00  0.23015112054E+03  0.23015112054E+03  0.00000000000E+00 0.  1.
         21   -1    0    0  501  503 -0.00000000000E+00 -0.00000000000E+00 -0.19262612685E+03  0.19262612685E+03  0.00000000000E+00 0. -1.
          6    1    1    2  501    0 -0.11105996654E+03 -0.20727325684E+02 -0.21897123812E+02  0.20777974451E+03  0.17300000000E+03 0. -1.
         -6    1    1    2    0  502  0.11105996654E+03  0.20727325684E+02  0.59422117496E+02  0.21499750288E+03  0.17300000000E+03 0.  1.
<mgrwt>
<rscale>  2 0.20662270E+03</rscale>
<asrwt>0</asrwt>
<pdfrwt beam="1">  1       21 0.35407865E-01 0.20662270E+03</pdfrwt>
<pdfrwt beam="2">  1       21 0.29634789E-01 0.20662270E+03</pdfrwt>
<totfact> 0.83433829E+04</totfact>
</mgrwt>
</event>
<event>
 4    1  0.4017302E+000  0.2765634E+03  0.7546771E-02  0.1097581E+00
         21   -1    0    0  501  502  0.00000000000E+00  0.00000000000E+00  0.73706138005E+02  0.73706138005E+02  0.00000000000E+00 0. -1.
         21   -1    0    0  502  503 -0.00000000000E+00 -0.00000000000E+00 -0.15672015750E+04  0.15672015750E+04  0.00000000000E+00 0.  1.
          6    1    1    2  501    0  0.10168601691E+03  0.19031094280E+03 -0.26986479208E+03  0.38641209477E+03  0.17300000000E+03 0. -1.
         -6    1    1    2    0  503 -0.10168601691E+03 -0.19031094280E+03 -0.12236306450E+04  0.12544956183E+04  0.17300000000E+03 0. -1.
<mgrwt>
<rscale>  2 0.27656338E+03</rscale>
<asrwt>0</asrwt>
<pdfrwt beam="1">  1       21 0.11339406E-01 0.27656338E+03</pdfrwt>
<pdfrwt beam="2">  1       21 0.24110794E+00 0.27656338E+03</pdfrwt>
<totfact> 0.45310295E+03</totfact>
</mgrwt>
</event>
<event>
 4    1  0.4017302E+000  0.1841222E+03  0.7546771E-02  0.1163872E+00
         21   -1    0    0  503  502  0.00000000000E+00  0.00000000000E+00  0.94232918341E+02  0.94232918341E+02  0.00000000000E+00 0.  1.
         21   -1    0    0  501  503 -0.00000000000E+00 -0.00000000000E+00 -0.77161783548E+03  0.77161783548E+03  0.00000000000E+00 0.  1.
          6    1    1    2  501    0 -0.60464294134E+02 -0.17778056245E+02 -0.65498354253E+03  0.68037080414E+03  0.17300000000E+03 0.  1.
         -6    1    1    2    0  502  0.60464294134E+02  0.17778056245E+02 -0.22401374614E+02  0.18547994968E+03  0.17300000000E+03 0.  1.
<mgrwt>
<rscale>  2 0.18412222E+03</rscale>
<asrwt>0</asrwt>
<pdfrwt beam="1">  1       21 0.14497372E-01 0.18412222E+03</pdfrwt>
<pdfrwt beam="2">  1       21 0.11871044E+00 0.18412222E+03</pdfrwt>
<totfact> 0.22758117E+04</totfact>
</mgrwt>
</event>
<event>
 4    1  0.4017302E+000  0.2145349E+03  0.7546771E-02  0.1138024E+00
         21   -1    0    0  501  502  0.00000000000E+00  0.00000000000E+00  0.23836278109E+04  0.23836278109E+04  0.00000000000E+00 0.  1.
         21   -1    0    0  502  503 -0.00000000000E+00 -0.00000000000E+00 -0.21583121876E+02  0.21583121876E+02  0.00000000000E+00 0.  1.
          6    1    1    2  501    0  0.47668363915E+02  0.11757522973E+03  0.15713986043E+04  0.15859756559E+04  0.17300000000E+03 0.  1.
         -6    1    1    2    0  503 -0.47668363915E+02 -0.11757522973E+03  0.79064608478E+03  0.81923527691E+03  0.17300000000E+03 0.  1.
<mgrwt>
<rscale>  2 0.21453486E+03</rscale>
<asrwt>0</asrwt>
<pdfrwt beam="1">  1       21 0.36671176E+00 0.21453486E+03</pdfrwt>
<pdfrwt beam="2">  1       21 0.33204822E-02 0.21453486E+03</pdfrwt>
<totfact> 0.72447207E+03</totfact>
</mgrwt>
</event>
<event>
 4    1  0.4017302E+000  0.2309699E+03  0.7546771E-02  0.1125959E+00
         21   -1    0    0  503  502  0.00000000000E+00  0.00000000000E+00  0.25228933271E+03  0.25228933271E+03  0.00000000000E+00 0.  1.
         21   -1    0    0  501  503 -0.00000000000E+00 -0.00000000000E+00 -0.40231678293E+03  0.40231678293E+03  0.00000000000E+00 0.  1.
          6    1    1    2  501    0  0.14825067208E+02  0.15230997937E+03 -0.30045257536E+03  0.37897079370E+03  0.17300000000E+03 0.  1.
         -6    1    1    2    0  502 -0.14825067208E+02 -0.15230997937E+03  0.15042512514E+03  0.27563532195E+03  0.17300000000E+03 0.  1.
<mgrwt>
<rscale>  2 0.23096994E+03</rscale>
<asrwt>0</asrwt>
<pdfrwt beam="1">  1       21 0.38813744E-01 0.23096994E+03</pdfrwt>
<pdfrwt beam="2">  1       21 0.61894889E-01 0.23096994E+03</pdfrwt>
<totfact> 0.15156736E+04</totfact>
</mgrwt>
</event>
<event>
 4    1  0.4017302E+000  0.2080790E+03  0.7546771E-02  0.1143096E+00
         21   -1    0    0  501  502  0.00000000000E+00  0.00000000000E+00  0.80248342094E+02  0.80248342094E+02  0.00000000000E+00 0. -1.
         21   -1    0    0  502  503 -0.00000000000E+00 -0.00000000000E+00 -0.65727080797E+03  0.65727080797E+03  0.00000000000E+00 0.  1.
          6    1    1    2  501    0  0.10455612477E+03  0.49354654032E+02 -0.13243970763E+03  0.24665186247E+03  0.17300000000E+03 0. -1.
         -6    1    1    2    0  503 -0.10455612477E+03 -0.49354654032E+02 -0.44458275824E+03  0.49086728759E+03  0.17300000000E+03 0.  1.
<mgrwt>
<rscale>  2 0.20807899E+03</rscale>
<asrwt>0</asrwt>
<pdfrwt beam="1">  1       21 0.12345899E-01 0.20807899E+03</pdfrwt>
<pdfrwt beam="2">  1       21 0.10111859E+00 0.20807899E+03</pdfrwt>
<totfact> 0.44229467E+04</totfact>
</mgrwt>
</event>
<event>
 4    1  0.4017302E+000  0.2084662E+03  0.7546771E-02  0.1142786E+00
         21   -1    0    0  503  502  0.00000000000E+00  0.00000000000E+00  0.84230998371E+02  0.84230998371E+02  0.00000000000E+00 0.  1.
         21   -1    0    0  501  503 -0.00000000000E+00 -0.00000000000E+00 -0.59832076312E+03  0.59832076312E+03  0.00000000000E+00 0. -1.
          6    1    1    2  501    0  0.11609505100E+03  0.71473037716E+01 -0.38367918245E+03  0.43665531013E+03  0.17300000000E+03 0. -1.
         -6    1    1    2    0  502 -0.11609505100E+03 -0.71473037716E+01 -0.13041058230E+03  0.24589645137E+03  0.17300000000E+03 0.  1.
<mgrwt>
<rscale>  2 0.20846617E+03</rscale>
<asrwt>0</asrwt>
<pdfrwt beam="1">  1       21 0.12958615E-01 0.20846617E+03</pdfrwt>
<pdfrwt beam="2">  1       21 0.92049347E-01 0.20846617E+03</pdfrwt>
<totfact> 0.50572912E+04</totfact>
</mgrwt>
</event>
<event>
 4    1  0.4017302E+000  0.2037634E+03  0.7546771E-02  0.1146602E+00
         21   -1    0    0  503  502  0.00000000000E+00  0.00000000000E+00  0.10568086849E+03  0.10568086849E+03  0.00000000000E+00 0.  1.
         21   -1    0    0  501  503 -0.00000000000E+00 -0.00000000000E+00 -0.39582070652E+03  0.39582070652E+03  0.00000000000E+00 0. -1.
          6    1    1    2  501    0  0.62271520679E+02 -0.87822486853E+02 -0.12344393081E+03  0.23823924013E+03  0.17300000000E+03 0. -1.
         -6    1    1    2    0  502 -0.62271520679E+02  0.87822486853E+02 -0.16669590722E+03  0.26326233488E+03  0.17300000000E+03 0.  1.
<mgrwt>
<rscale>  2 0.20376342E+03</rscale>
<asrwt>0</asrwt>
<pdfrwt beam="1">  1       21 0.16258596E-01 0.20376342E+03</pdfrwt>
<pdfrwt beam="2">  1       21 0.60895492E-01 0.20376342E+03</pdfrwt>
<totfact> 0.84581394E+04</totfact>
</mgrwt>
</event>
<event>
 4    1  0.4017302E+000  0.1780772E+03  0.7546771E-02  0.1169677E+00
         21   -1    0    0  501  502  0.00000000000E+00  0.00000000000E+00  0.91901418792E+02  0.91901418792E+02  0.00000000000E+00 0.  1.
         21   -1    0    0  502  503 -0.00000000000E+00 -0.00000000000E+00 -0.35281359226E+03  0.35281359226E+03  0.00000000000E+00 0.  1.
          6    1    1    2  501    0 -0.41969906492E+02  0.45853521352E+01 -0.16341949896E+03  0.24169698208E+03  0.17300000000E+03 0.  1.
         -6    1    1    2    0  503  0.41969906492E+02 -0.45853521352E+01 -0.97492674508E+02  0.20301802897E+03  0.17300000000E+03 0.  1.
<mgrwt>
<rscale>  2 0.17807723E+03</rscale>
<asrwt>0</asrwt>
<pdfrwt beam="1">  1       21 0.14138680E-01 0.17807723E+03</pdfrwt>
<pdfrwt beam="2">  1       21 0.54279015E-01 0.17807723E+03</pdfrwt>
<totfact> 0.14077897E+05</totfact>
</mgrwt>
</event>
<event>
 4    1  0.4017302E+000  0.1885169E+03  0.7546771E-02  0.1159806E+00
         21   -1    0    0  503  502  0.00000000000E+00  0.00000000000E+00  0.10645862750E+03  0.10645862750E+03  0.00000000000E+00 0.  1.
         21   -1    0    0  501  503 -0.00000000000E+00 -0.00000000000E+00 -0.58558324409E+03  0.58558324409E+03  0.00000000000E+00 0.  1.
          6    1    1    2  501    0  0.67953982505E+02 -0.31494366928E+02 -0.46644386676E+03  0.50309891644E+03  0.17300000000E+03 0.  1.
         -6    1    1    2    0  502 -0.67953982505E+02  0.31494366928E+02 -0.12680749831E+02  0.18894295515E+03  0.17300000000E+03 0.  1.
<mgrwt>
<rscale>  2 0.18851695E+03</rscale>
<asrwt>0</asrwt>
<pdfrwt beam="1">  1       21 0.16378251E-01 0.18851695E+03</pdfrwt>
<pdfrwt beam="2">  1       21 0.90089729E-01 0.18851695E+03</pdfrwt>
<totfact> 0.35093550E+04</totfact>
</mgrwt>
</event>
<event>
 4    1  0.4017302E+000  0.1941952E+03  0.7546771E-02  0.1154731E+00
         21   -1    0    0  501  502  0.00000000000E+00  0.00000000000E+00  0.15512319619E+03  0.15512319619E+03  0.00000000000E+00 0. -1.
         21   -1    0    0  502  503 -0.00000000000E+00 -0.00000000000E+00 -0.28893895468E+03  0.28893895468E+03  0.00000000000E+00 0. -1.
          6    1    1    2  501    0  0.22527205628E+02 -0.85295300106E+02  0.21519739272E+02  0.19538388468E+03  0.17300000000E+03 0.  1.
         -6    1    1    2    0  503 -0.22527205628E+02  0.85295300106E+02 -0.15533549776E+03  0.24867826619E+03  0.17300000000E+03 0.  1.
<mgrwt>
<rscale>  2 0.19419517E+03</rscale>
<asrwt>0</asrwt>
<pdfrwt beam="1">  1       21 0.23865107E-01 0.19419517E+03</pdfrwt>
<pdfrwt beam="2">  1       21 0.44452146E-01 0.19419517E+03</pdfrwt>
<totfact> 0.80363080E+04</totfact>
</mgrwt>
</event>
<event>
 4    1  0.4017302E+000  0.1996018E+03  0.7546771E-02  0.1150075E+00
         21   -1    0    0  501  502  0.00000000000E+00  0.00000000000E+00  0.12913550732E+03  0.12913550732E+03  0.00000000000E+00 0. -1.
         21   -1    0    0  502  503 -0.00000000000E+00 -0.00000000000E+00 -0.72544698141E+03  0.72544698141E+03  0.00000000000E+00 0. -1.
          6    1    1    2  501    0 -0.85632453166E+02 -0.50783421054E+02  0.25774292978E+02  0.20125900494E+03  0.17300000000E+03 0. -1.
         -6    1    1    2    0  503  0.85632453166E+02  0.50783421054E+02 -0.62208576707E+03  0.65332348380E+03  0.17300000000E+03 0. -1.
<mgrwt>
<rscale>  2 0.19960179E+03</rscale>
<asrwt>0</asrwt>
<pdfrwt beam="1">  1       21 0.19867001E-01 0.19960179E+03</pdfrwt>
<pdfrwt beam="2">  1       21 0.11160723E+00 0.19960179E+03</pdfrwt>
<totfact> 0.14669065E+04</totfact>
</mgrwt>
</event>
<event>
 4    1  0.4017302E+000  0.2482796E+03  0.7546771E-02  0.1114397E+00
         21   -1    0    0  503  502  0.00000000000E+00  0.00000000000E+00  0.48839909569E+03  0.48839909569E+03  0.00000000000E+00 0. -1.
         21   -1    0    0  501  503 -0.00000000000E+00 -0.00000000000E+00 -0.22431947561E+03  0.22431947561E+03  0.00000000000E+00 0. -1.
          6    1    1    2  501    0  0.14583718166E+03 -0.10220205493E+03 -0.10362866105E+03  0.26903836711E+03  0.17300000000E+03 0. -1.
         -6    1    1    2    0  502 -0.14583718166E+03  0.10220205493E+03  0.36770828112E+03  0.44368020419E+03  0.17300000000E+03 0. -1.
<mgrwt>
<rscale>  2 0.24827957E+03</rscale>
<asrwt>0</asrwt>
<pdfrwt beam="1">  1       21 0.75138322E-01 0.24827957E+03</pdfrwt>
<pdfrwt beam="2">  1       21 0.34510689E-01 0.24827957E+03</pdfrwt>
<totfact> 0.12389187E+04</totfact>
</mgrwt>
</event>
<event>
 4    1  0.4017302E+000  0.1748769E+03  0.7546771E-02  0.1172855E+00
         21   -1    0    0  503  502  0.00000000000E+00  0.00000000000E+00  0.10782284891E+03  0.10782284891E+03  0.00000000000E+00 0. -1.
         21   -1    0    0  501  503 -0.00000000000E+00 -0.00000000000E+00 -0.47944347602E+03  0.47944347602E+03  0.00000000000E+00 0. -1.
          6    1    1    2  501    0  0.19916025347E+02 -0.16008814301E+02 -0.37346364980E+03  0.41237971328E+03  0.17300000000E+03 0. -1.
         -6    1    1    2    0  502 -0.19916025347E+02  0.16008814301E+02  0.18430226915E+01  0.17488661165E+03  0.17300000000E+03 0. -1.
<mgrwt>
<rscale>  2 0.17487690E+03</rscale>
<asrwt>0</asrwt>
<pdfrwt beam="1">  1       21 0.16588131E-01 0.17487690E+03</pdfrwt>
<pdfrwt beam="2">  1       21 0.73760534E-01 0.17487690E+03</pdfrwt>
<totfact> 0.54307954E+04</totfact>
</mgrwt>
</event>
<event>
 4    1  0.4017302E+000  0.1776607E+03  0.7546771E-02  0.1170086E+00
         21   -1    0    0  501  502  0.00000000000E+00  0.00000000000E+00  0.39783138406E+03  0.39783138406E+03  0.00000000000E+00 0. -1.
         21   -1    0    0  502  503 -0.00000000000E+00 -0.00000000000E+00 -0.15126968041E+03  0.15126968041E+03  0.00000000000E+00 0. -1.
          6    1    1    2  501    0  0.29568740652E+02 -0.27568358066E+02  0.31260460015E+03  0.35956217936E+03  0.17300000000E+03 0. -1.
         -6    1    1    2    0  503 -0.29568740652E+02  0.27568358066E+02 -0.66042896503E+02  0.18953888511E+03  0.17300000000E+03 0. -1.
<mgrwt>
<rscale>  2 0.17766070E+03</rscale>
<asrwt>0</asrwt>
<pdfrwt beam="1">  1       21 0.61204828E-01 0.17766070E+03</pdfrwt>
<pdfrwt beam="2">  1       21 0.23272259E-01 0.17766070E+03</pdfrwt>
<totfact> 0.43414935E+04</totfact>
</mgrwt>
</event>
<event>
 4    1  0.4017302E+000  0.3364382E+03  0.7546771E-02  0.1068323E+00
         21   -1    0    0  501  502  0.00000000000E+00  0.00000000000E+00  0.68053000957E+03  0.68053000957E+03  0.00000000000E+00 0. -1.
         21   -1    0    0  502  503 -0.00000000000E+00 -0.00000000000E+00 -0.16738544487E+03  0.16738544487E+03  0.00000000000E+00 0.  1.
          6    1    1    2  501    0 -0.28663375739E+03 -0.33208145040E+02  0.29028117629E+03  0.44435779849E+03  0.17300000000E+03 0. -1.
         -6    1    1    2    0  503  0.28663375739E+03  0.33208145040E+02  0.22286338842E+03  0.40355765595E+03  0.17300000000E+03 0.  1.
<mgrwt>
<rscale>  2 0.33643824E+03</rscale>
<asrwt>0</asrwt>
<pdfrwt beam="1">  1       21 0.10469692E+00 0.33643824E+03</pdfrwt>
<pdfrwt beam="2">  1       21 0.25751607E-01 0.33643824E+03</pdfrwt>
<totfact> 0.97368124E+03</totfact>
</mgrwt>
</event>
<event>
 4    1  0.4017302E+000  0.2903910E+03  0.7546771E-02  0.1090145E+00
         21   -1    0    0  503  502  0.00000000000E+00  0.00000000000E+00  0.11348208491E+03  0.11348208491E+03  0.00000000000E+00 0. -1.
         21   -1    0    0  501  503 -0.00000000000E+00 -0.00000000000E+00 -0.91501396432E+03  0.91501396432E+03  0.00000000000E+00 0.  1.
          6    1    1    2  501    0 -0.23073816120E+03 -0.34027287381E+02 -0.62367717380E+03  0.68796814783E+03  0.17300000000E+03 0.  1.
         -6    1    1    2    0  502  0.23073816120E+03  0.34027287381E+02 -0.17785470561E+03  0.34052790139E+03  0.17300000000E+03 0. -1.
<mgrwt>
<rscale>  2 0.29039104E+03</rscale>
<asrwt>0</asrwt>
<pdfrwt beam="1">  1       21 0.17458782E-01 0.29039104E+03</pdfrwt>
<pdfrwt beam="2">  1       21 0.14077138E+00 0.29039104E+03</pdfrwt>
<totfact> 0.98622522E+03</totfact>
</mgrwt>
</event>
<event>
 4    1  0.4017302E+000  0.2675492E+03  0.7546771E-02  0.1102691E+00
         21   -1    0    0  503  502  0.00000000000E+00  0.00000000000E+00  0.32168601752E+03  0.32168601752E+03  0.00000000000E+00 0.  1.
         21   -1    0    0  501  503 -0.00000000000E+00 -0.00000000000E+00 -0.22271989282E+03  0.22271989282E+03  0.00000000000E+00 0.  1.
          6    1    1    2  501    0  0.44460844249E+01 -0.20404364109E+03  0.41392106977E+02  0.27073212158E+03  0.17300000000E+03 0.  1.
         -6    1    1    2    0  502 -0.44460844249E+01  0.20404364109E+03  0.57574017719E+02  0.27367378876E+03  0.17300000000E+03 0.  1.
<mgrwt>
<rscale>  2 0.26754920E+03</rscale>
<asrwt>0</asrwt>
<pdfrwt beam="1">  1       21 0.49490156E-01 0.26754920E+03</pdfrwt>
<pdfrwt beam="2">  1       21 0.34264599E-01 0.26754920E+03</pdfrwt>
<totfact> 0.30822624E+04</totfact>
</mgrwt>
</event>
<event>
 4    1  0.4017302E+000  0.2300937E+03  0.7546771E-02  0.1126574E+00
         21   -1    0    0  501  502  0.00000000000E+00  0.00000000000E+00  0.70003775283E+03  0.70003775283E+03  0.00000000000E+00 0.  1.
         21   -1    0    0  502  503 -0.00000000000E+00 -0.00000000000E+00 -0.16162506801E+03  0.16162506801E+03  0.00000000000E+00 0.  1.
          6    1    1    2  501    0 -0.84824757260E+02 -0.12577310459E+03  0.58346875976E+03  0.62719925614E+03  0.17300000000E+03 0.  1.
         -6    1    1    2    0  503  0.84824757260E+02  0.12577310459E+03 -0.45056074940E+02  0.23446356470E+03  0.17300000000E+03 0.  1.
<mgrwt>
<rscale>  2 0.23009371E+03</rscale>
<asrwt>0</asrwt>
<pdfrwt beam="1">  1       21 0.10769811E+00 0.23009371E+03</pdfrwt>
<pdfrwt beam="2">  1       21 0.24865396E-01 0.23009371E+03</pdfrwt>
<totfact> 0.10257862E+04</totfact>
</mgrwt>
</event>
<event>
 4    1  0.4017302E+000  0.1731062E+03  0.7546771E-02  0.1174647E+00
         21   -1    0    0  503  502  0.00000000000E+00  0.00000000000E+00  0.16255792344E+03  0.16255792344E+03  0.00000000000E+00 0.  1.
         21   -1    0    0  501  503 -0.00000000000E+00 -0.00000000000E+00 -0.18722276611E+03  0.18722276611E+03  0.00000000000E+00 0.  1.
          6    1    1    2  501    0  0.35559945439E+01  0.49094019040E+01  0.93733254357E+01  0.17335976048E+03  0.17300000000E+03 0.  1.
         -6    1    1    2    0  502 -0.35559945439E+01 -0.49094019040E+01 -0.34038168108E+02  0.17642092907E+03  0.17300000000E+03 0.  1.
<mgrwt>
<rscale>  2 0.17310617E+03</rscale>
<asrwt>0</asrwt>
<pdfrwt beam="1">  1       21 0.25008911E-01 0.17310617E+03</pdfrwt>
<pdfrwt beam="2">  1       21 0.28803502E-01 0.17310617E+03</pdfrwt>
<totfact> 0.17561917E+05</totfact>
</mgrwt>
</event>
<event>
 4    1  0.4017302E+000  0.1755953E+03  0.7546771E-02  0.1172135E+00
         21   -1    0    0  503  502  0.00000000000E+00  0.00000000000E+00  0.49836631127E+03  0.49836631127E+03  0.00000000000E+00 0. -1.
         21   -1    0    0  501  503 -0.00000000000E+00 -0.00000000000E+00 -0.72793811457E+02  0.72793811457E+02  0.00000000000E+00 0. -1.
          6    1    1    2  501    0  0.30065480402E+02 -0.87956091042E+00  0.10215536058E+03  0.20314877414E+03  0.17300000000E+03 0. -1.
         -6    1    1    2    0  502 -0.30065480402E+02  0.87956091042E+00  0.32341713924E+03  0.36801134859E+03  0.17300000000E+03 0. -1.
<mgrwt>
<rscale>  2 0.17559529E+03</rscale>
<asrwt>0</asrwt>
<pdfrwt beam="1">  1       21 0.76671738E-01 0.17559529E+03</pdfrwt>
<pdfrwt beam="2">  1       21 0.11199048E-01 0.17559529E+03</pdfrwt>
<totfact> 0.10113886E+05</totfact>
</mgrwt>
</event>
<event>
 4    1  0.4017302E+000  0.1869747E+03  0.7546771E-02  0.1161219E+00
         21   -1    0    0  503  502  0.00000000000E+00  0.00000000000E+00  0.94292676522E+02  0.94292676522E+02  0.00000000000E+00 0.  1.
         21   -1    0    0  501  503 -0.00000000000E+00 -0.00000000000E+00 -0.76435376353E+03  0.76435376353E+03  0.00000000000E+00 0.  1.
          6    1    1    2  501    0  0.31200657121E+02  0.63695144950E+02 -0.64311062461E+03  0.66973937317E+03  0.17300000000E+03 0.  1.
         -6    1    1    2    0  502 -0.31200657121E+02 -0.63695144950E+02 -0.26950462406E+02  0.18890706688E+03  0.17300000000E+03 0.  1.
<mgrwt>
<rscale>  2 0.18697474E+03</rscale>
<asrwt>0</asrwt>
<pdfrwt beam="1">  1       21 0.14506566E-01 0.18697474E+03</pdfrwt>
<pdfrwt beam="2">  1       21 0.11759289E+00 0.18697474E+03</pdfrwt>
<totfact> 0.23224968E+04</totfact>
</mgrwt>
</event>
<event>
 4    1  0.4017302E+000  0.2426042E+03  0.7546771E-02  0.1118070E+00
         21   -1    0    0  503  502  0.00000000000E+00  0.00000000000E+00  0.31680733121E+02  0.31680733121E+02  0.00000000000E+00 0. -1.
         21   -1    0    0  501  503 -0.00000000000E+00 -0.00000000000E+00 -0.18611590200E+04  0.18611590200E+04  0.00000000000E+00 0.  1.
          6    1    1    2  501    0 -0.14360683272E+03 -0.91131204234E+02 -0.87459914892E+03  0.90762353984E+03  0.17300000000E+03 0. -1.
         -6    1    1    2    0  502  0.14360683272E+03  0.91131204234E+02 -0.95487913796E+03  0.98521621327E+03  0.17300000000E+03 0.  1.
<mgrwt>
<rscale>  2 0.24260424E+03</rscale>
<asrwt>0</asrwt>
<pdfrwt beam="1">  1       21 0.48739586E-02 0.24260424E+03</pdfrwt>
<pdfrwt beam="2">  1       21 0.28633218E+00 0.24260424E+03</pdfrwt>
<totfact> 0.10968902E+04</totfact>
</mgrwt>
</event>
<event>
 4    1  0.4017302E+000  0.2968935E+03  0.7546771E-02  0.1086804E+00
         21   -1    0    0  501  502  0.00000000000E+00  0.00000000000E+00  0.42674412232E+03  0.42674412232E+03  0.00000000000E+00 0.  1.
         21   -1    0    0  502  503 -0.00000000000E+00 -0.00000000000E+00 -0.24068636833E+03  0.24068636833E+03  0.00000000000E+00 0. -1.
          6    1    1    2  501    0 -0.80045481545E+02  0.22761695913E+03  0.21869919402E+03  0.36874801242E+03  0.17300000000E+03 0.  1.
         -6    1    1    2    0  503  0.80045481545E+02 -0.22761695913E+03 -0.32641440021E+02  0.29868247823E+03  0.17300000000E+03 0. -1.
<mgrwt>
<rscale>  2 0.29689351E+03</rscale>
<asrwt>0</asrwt>
<pdfrwt beam="1">  1       21 0.65652942E-01 0.29689351E+03</pdfrwt>
<pdfrwt beam="2">  1       21 0.37028672E-01 0.29689351E+03</pdfrwt>
<totfact> 0.14191590E+04</totfact>
</mgrwt>
</event>
<event>
 4    1  0.4017302E+000  0.1754014E+03  0.7546771E-02  0.1172329E+00
         21   -1    0    0  503  502  0.00000000000E+00  0.00000000000E+00  0.12127788749E+03  0.12127788749E+03  0.00000000000E+00 0.  1.
         21   -1    0    0  501  503 -0.00000000000E+00 -0.00000000000E+00 -0.59878331825E+03  0.59878331825E+03  0.00000000000E+00 0.  1.
          6    1    1    2  501    0  0.27856339924E+02  0.77905698213E+01 -0.51207792390E+03  0.54128501623E+03  0.17300000000E+03 0.  1.
         -6    1    1    2    0  502 -0.27856339924E+02 -0.77905698213E+01  0.34572493137E+02  0.17877618950E+03  0.17300000000E+03 0.  1.
<mgrwt>
<rscale>  2 0.17540145E+03</rscale>
<asrwt>0</asrwt>
<pdfrwt beam="1">  1       21 0.18658137E-01 0.17540145E+03</pdfrwt>
<pdfrwt beam="2">  1       21 0.92120510E-01 0.17540145E+03</pdfrwt>
<totfact> 0.26410491E+04</totfact>
</mgrwt>
</event>
<event>
 4    1  0.4017302E+000  0.1978474E+03  0.7546771E-02  0.1151568E+00
         21   -1    0    0  501  502  0.00000000000E+00  0.00000000000E+00  0.20931283274E+03  0.20931283274E+03  0.00000000000E+00 0. -1.
         21   -1    0    0  502  503 -0.00000000000E+00 -0.00000000000E+00 -0.33858620855E+03  0.33858620855E+03  0.00000000000E+00 0.  1.
          6    1    1    2  501    0  0.39860087611E+02 -0.87325648214E+02  0.11865864835E+03  0.23070212450E+03  0.17300000000E+03 0. -1.
         -6    1    1    2    0  503 -0.39860087611E+02  0.87325648214E+02 -0.24793202416E+03  0.31719691679E+03  0.17300000000E+03 0.  1.
<mgrwt>
<rscale>  2 0.19784740E+03</rscale>
<asrwt>0</asrwt>
<pdfrwt beam="1">  1       21 0.32201975E-01 0.19784740E+03</pdfrwt>
<pdfrwt beam="2">  1       21 0.52090185E-01 0.19784740E+03</pdfrwt>
<totfact> 0.32356162E+04</totfact>
</mgrwt>
</event>
<event>
 4    1  0.4017302E+000  0.3228148E+03  0.7546771E-02  0.1074361E+00
         21   -1    0    0  503  502  0.00000000000E+00  0.00000000000E+00  0.31489555810E+03  0.31489555810E+03  0.00000000000E+00 0. -1.
         21   -1    0    0  501  503 -0.00000000000E+00 -0.00000000000E+00 -0.85158016144E+03  0.85158016144E+03  0.00000000000E+00 0.  1.
          6    1    1    2  501    0 -0.88879164444E+02  0.25764483131E+03 -0.72438409869E+03  0.79305843884E+03  0.17300000000E+03 0.  1.
         -6    1    1    2    0  502  0.88879164444E+02 -0.25764483131E+03  0.18769949534E+03  0.37341728070E+03  0.17300000000E+03 0. -1.
<mgrwt>
<rscale>  2 0.32281475E+03</rscale>
<asrwt>0</asrwt>
<pdfrwt beam="1">  1       21 0.48445472E-01 0.32281475E+03</pdfrwt>
<pdfrwt beam="2">  1       21 0.13101233E+00 0.32281475E+03</pdfrwt>
<totfact> 0.15653472E+03</totfact>
</mgrwt>
</event>
<event>
 4    1  0.4017302E+000  0.1965942E+03  0.7546771E-02  0.1152645E+00
         21   -1    0    0  503  502  0.00000000000E+00  0.00000000000E+00  0.33564174988E+03  0.33564174988E+03  0.00000000000E+00 0.  1.
         21   -1    0    0  501  503 -0.00000000000E+00 -0.00000000000E+00 -0.16012177063E+03  0.16012177063E+03  0.00000000000E+00 0.  1.
          6    1    1    2  501    0  0.38289186586E+02  0.85171703465E+02 -0.43607364906E+02  0.20137249851E+03  0.17300000000E+03 0.  1.
         -6    1    1    2    0  502 -0.38289186586E+02 -0.85171703465E+02  0.21912734416E+03  0.29439102201E+03  0.17300000000E+03 0.  1.
<mgrwt>
<rscale>  2 0.19659420E+03</rscale>
<asrwt>0</asrwt>
<pdfrwt beam="1">  1       21 0.51637192E-01 0.19659420E+03</pdfrwt>
<pdfrwt beam="2">  1       21 0.24634119E-01 0.19659420E+03</pdfrwt>
<totfact> 0.55393078E+04</totfact>
</mgrwt>
</event>
<event>
 4    1  0.4017302E+000  0.1897532E+03  0.7546771E-02  0.1158684E+00
         21   -1    0    0  503  502  0.00000000000E+00  0.00000000000E+00  0.33192816253E+03  0.33192816253E+03  0.00000000000E+00 0.  1.
         21   -1    0    0  501  503 -0.00000000000E+00 -0.00000000000E+00 -0.27848470410E+03  0.27848470410E+03  0.00000000000E+00 0.  1.
          6    1    1    2  501    0 -0.52060168766E+02  0.58025964381E+02 -0.21174536338E+03  0.28432793149E+03  0.17300000000E+03 0.  1.
         -6    1    1    2    0  502  0.52060168766E+02 -0.58025964381E+02  0.26518882181E+03  0.32608493514E+03  0.17300000000E+03 0.  1.
<mgrwt>
<rscale>  2 0.18975319E+03</rscale>
<asrwt>0</asrwt>
<pdfrwt beam="1">  1       21 0.51065871E-01 0.18975319E+03</pdfrwt>
<pdfrwt beam="2">  1       21 0.42843801E-01 0.18975319E+03</pdfrwt>
<totfact> 0.19138165E+04</totfact>
</mgrwt>
</event>
<event>
 4    1  0.4017302E+000  0.1917011E+03  0.7546771E-02  0.1156936E+00
         21   -1    0    0  503  502  0.00000000000E+00  0.00000000000E+00  0.11031193821E+04  0.11031193821E+04  0.00000000000E+00 0. -1.
         21   -1    0    0  501  503 -0.00000000000E+00 -0.00000000000E+00 -0.64036165808E+02  0.64036165808E+02  0.00000000000E+00 0. -1.
          6    1    1    2  501    0  0.69380343530E+02  0.44796157753E+02  0.11532705898E+03  0.22371780964E+03  0.17300000000E+03 0. -1.
         -6    1    1    2    0  502 -0.69380343530E+02 -0.44796157753E+02  0.92375615735E+03  0.94343773831E+03  0.17300000000E+03 0. -1.
<mgrwt>
<rscale>  2 0.19170114E+03</rscale>
<asrwt>0</asrwt>
<pdfrwt beam="1">  1       21 0.16971066E+00 0.19170114E+03</pdfrwt>
<pdfrwt beam="2">  1       21 0.98517186E-02 0.19170114E+03</pdfrwt>
<totfact> 0.17873728E+04</totfact>
</mgrwt>
</event>
<event>
 4    1  0.4017302E+000  0.2237443E+03  0.7546771E-02  0.1131122E+00
         21   -1    0    0  503  502  0.00000000000E+00  0.00000000000E+00  0.20351811671E+03  0.20351811671E+03  0.00000000000E+00 0. -1.
         21   -1    0    0  501  503 -0.00000000000E+00 -0.00000000000E+00 -0.46414511104E+03  0.46414511104E+03  0.00000000000E+00 0. -1.
          6    1    1    2  501    0 -0.12837105064E+03 -0.60443348432E+02 -0.35918543325E+03  0.42317336928E+03  0.17300000000E+03 0. -1.
         -6    1    1    2    0  502  0.12837105064E+03  0.60443348432E+02  0.98558438918E+02  0.24448985847E+03  0.17300000000E+03 0. -1.
<mgrwt>
<rscale>  2 0.22374433E+03</rscale>
<asrwt>0</asrwt>
<pdfrwt beam="1">  1       21 0.31310480E-01 0.22374433E+03</pdfrwt>
<pdfrwt beam="2">  1       21 0.71406939E-01 0.22374433E+03</pdfrwt>
<totfact> 0.17059842E+04</totfact>
</mgrwt>
</event>
<event>
 4    1  0.4017302E+000  0.1830029E+03  0.7546771E-02  0.1164928E+00
         21   -1    0    0  501  502  0.00000000000E+00  0.00000000000E+00  0.29790358586E+03  0.29790358586E+03  0.00000000000E+00 0. -1.
         21   -1    0    0  502  503 -0.00000000000E+00 -0.00000000000E+00 -0.24866648441E+03  0.24866648441E+03  0.00000000000E+00 0. -1.
          6    1    1    2  501    0  0.53154283802E+02 -0.27123753470E+02  0.22690704789E+03  0.29150794890E+03  0.17300000000E+03 0. -1.
         -6    1    1    2    0  503 -0.53154283802E+02  0.27123753470E+02 -0.17766994645E+03  0.25506212137E+03  0.17300000000E+03 0. -1.
<mgrwt>
<rscale>  2 0.18300294E+03</rscale>
<asrwt>0</asrwt>
<pdfrwt beam="1">  1       21 0.45831321E-01 0.18300294E+03</pdfrwt>
<pdfrwt beam="2">  1       21 0.38256383E-01 0.18300294E+03</pdfrwt>
<totfact> 0.30226013E+04</totfact>
</mgrwt>
</event>
<event>
 4    1  0.4017302E+000  0.1850301E+03  0.7546771E-02  0.1163022E+00
         21   -1    0    0  501  502  0.00000000000E+00  0.00000000000E+00  0.27636666669E+03  0.27636666669E+03  0.00000000000E+00 0. -1.
         21   -1    0    0  502  503 -0.00000000000E+00 -0.00000000000E+00 -0.40225526912E+03  0.40225526912E+03  0.00000000000E+00 0.  1.
          6    1    1    2  501    0 -0.62331623558E+02  0.20540581418E+02  0.21932444369E+03  0.28694835490E+03  0.17300000000E+03 0. -1.
         -6    1    1    2    0  503  0.62331623558E+02 -0.20540581418E+02 -0.34521304611E+03  0.39167358091E+03  0.17300000000E+03 0.  1.
<mgrwt>
<rscale>  2 0.18503012E+03</rscale>
<asrwt>0</asrwt>
<pdfrwt beam="1">  1       21 0.42517949E-01 0.18503012E+03</pdfrwt>
<pdfrwt beam="2">  1       21 0.61885426E-01 0.18503012E+03</pdfrwt>
<totfact> 0.12965527E+04</totfact>
</mgrwt>
</event>
<event>
 4    1  0.4017302E+000  0.2021283E+03  0.7546771E-02  0.1147956E+00
         21   -1    0    0  503  502  0.00000000000E+00  0.00000000000E+00  0.11248480698E+04  0.11248480698E+04  0.00000000000E+00 0. -1.
         21   -1    0    0  501  503 -0.00000000000E+00 -0.00000000000E+00 -0.20554484848E+03  0.20554484848E+03  0.00000000000E+00 0. -1.
          6    1    1    2  501    0  0.10313159236E+03  0.17050662224E+02 -0.14391768181E+03  0.24812930009E+03  0.17300000000E+03 0. -1.
         -6    1    1    2    0  502 -0.10313159236E+03 -0.17050662224E+02  0.10632209031E+04  0.10822636182E+04  0.17300000000E+03 0. -1.
<mgrwt>
<rscale>  2 0.20212830E+03</rscale>
<asrwt>0</asrwt>
<pdfrwt beam="1">  1       21 0.17305354E+00 0.20212830E+03</pdfrwt>
<pdfrwt beam="2">  1       21 0.31622285E-01 0.20212830E+03</pdfrwt>
<totfact> 0.19348203E+03</totfact>
</mgrwt>
</event>
<event>
 4    1  0.4017302E+000  0.1946244E+03  0.7546771E-02  0.1154355E+00
         21   -1    0    0  503  502  0.00000000000E+00  0.00000000000E+00  0.83270207702E+02  0.83270207702E+02  0.00000000000E+00 0.  1.
         21   -1    0    0  501  503 -0.00000000000E+00 -0.00000000000E+00 -0.50411403089E+03  0.50411403089E+03  0.00000000000E+00 0.  1.
          6    1    1    2  501    0  0.84535742126E+02  0.28343559466E+02 -0.30219676043E+03  0.35944614489E+03  0.17300000000E+03 0.  1.
         -6    1    1    2    0  502 -0.84535742126E+02 -0.28343559466E+02 -0.11864706276E+03  0.22793809370E+03  0.17300000000E+03 0.  1.
<mgrwt>
<rscale>  2 0.19462438E+03</rscale>
<asrwt>0</asrwt>
<pdfrwt beam="1">  1       21 0.12810801E-01 0.19462438E+03</pdfrwt>
<pdfrwt beam="2">  1       21 0.77556005E-01 0.19462438E+03</pdfrwt>
<totfact> 0.76913095E+04</totfact>
</mgrwt>
</event>
<event>
 4    1  0.4017302E+000  0.2233131E+03  0.7546771E-02  0.1131437E+00
         21   -1    0    0  501  502  0.00000000000E+00  0.00000000000E+00  0.21054332713E+04  0.21054332713E+04  0.00000000000E+00 0.  1.
         21   -1    0    0  502  503 -0.00000000000E+00 -0.00000000000E+00 -0.27112030148E+02  0.27112030148E+02  0.00000000000E+00 0. -1.
          6    1    1    2  501    0  0.13141595711E+03 -0.51668216713E+02  0.14182127296E+04  0.14356866318E+04  0.17300000000E+03 0.  1.
         -6    1    1    2    0  503 -0.13141595711E+03  0.51668216713E+02  0.66010851153E+03  0.69685866960E+03  0.17300000000E+03 0. -1.
<mgrwt>
<rscale>  2 0.22331314E+03</rscale>
<asrwt>0</asrwt>
<pdfrwt beam="1">  1       21 0.32391268E+00 0.22331314E+03</pdfrwt>
<pdfrwt beam="2">  1       21 0.41710832E-02 0.22331314E+03</pdfrwt>
<totfact> 0.87781838E+03</totfact>
</mgrwt>
</event>
<event>
 4    1  0.4017302E+000  0.1990764E+03  0.7546771E-02  0.1150521E+00
         21   -1    0    0  503  502  0.00000000000E+00  0.00000000000E+00  0.14756539635E+03  0.14756539635E+03  0.00000000000E+00 0. -1.
         21   -1    0    0  501  503 -0.00000000000E+00 -0.00000000000E+00 -0.26865246942E+03  0.26865246942E+03  0.00000000000E+00 0. -1.
          6    1    1    2  501    0  0.58767768783E+02 -0.79049230956E+02 -0.56866456039E+02  0.20703918804E+03  0.17300000000E+03 0. -1.
         -6    1    1    2    0  502 -0.58767768783E+02  0.79049230956E+02 -0.64220617028E+02  0.20917867772E+03  0.17300000000E+03 0. -1.
<mgrwt>
<rscale>  2 0.19907645E+03</rscale>
<asrwt>0</asrwt>
<pdfrwt beam="1">  1       21 0.22702369E-01 0.19907645E+03</pdfrwt>
<pdfrwt beam="2">  1       21 0.41331149E-01 0.19907645E+03</pdfrwt>
<totfact> 0.10228371E+05</totfact>
</mgrwt>
</event>
<event>
 4    1  0.4017302E+000  0.2088848E+03  0.7546771E-02  0.1142452E+00
         21   -1    0    0  501  502  0.00000000000E+00  0.00000000000E+00  0.15379804541E+04  0.15379804541E+04  0.00000000000E+00 0.  1.
         21   -1    0    0  502  503 -0.00000000000E+00 -0.00000000000E+00 -0.42098083279E+02  0.42098083279E+02  0.00000000000E+00 0.  1.
          6    1    1    2  501    0  0.80356339683E+02 -0.85127602267E+02  0.11990890709E+04  0.12171472590E+04  0.17300000000E+03 0.  1.
         -6    1    1    2    0  503 -0.80356339683E+02  0.85127602267E+02  0.29679329995E+03  0.36293127847E+03  0.17300000000E+03 0.  1.
<mgrwt>
<rscale>  2 0.20888478E+03</rscale>
<asrwt>0</asrwt>
<pdfrwt beam="1">  1       21 0.23661233E+00 0.20888478E+03</pdfrwt>
<pdfrwt beam="2">  1       21 0.64766294E-02 0.20888478E+03</pdfrwt>
<totfact> 0.13610308E+04</totfact>
</mgrwt>
</event>
<event>
 4    1  0.4017302E+000  0.1949279E+03  0.7546771E-02  0.1154090E+00
         21   -1    0    0  503  502  0.00000000000E+00  0.00000000000E+00  0.36457536156E+02  0.36457536156E+02  0.00000000000E+00 0.  1.
         21   -1    0    0  501  503 -0.00000000000E+00 -0.00000000000E+00 -0.10678051532E+04  0.10678051532E+04  0.00000000000E+00 0.  1.
          6    1    1    2  501    0 -0.84309067896E+02 -0.30981544347E+02 -0.60113456516E+03  0.63194908058E+03  0.17300000000E+03 0.  1.
         -6    1    1    2    0  502  0.84309067896E+02  0.30981544347E+02 -0.43021305187E+03  0.47231360876E+03  0.17300000000E+03 0.  1.
<mgrwt>
<rscale>  2 0.19492787E+03</rscale>
<asrwt>0</asrwt>
<pdfrwt beam="1">  1       21 0.56088521E-02 0.19492787E+03</pdfrwt>
<pdfrwt beam="2">  1       21 0.16427771E+00 0.19492787E+03</pdfrwt>
<totfact> 0.51777946E+04</totfact>
</mgrwt>
</event>
<event>
 4    1  0.4017302E+000  0.1853995E+03  0.7546771E-02  0.1162677E+00
         21   -1    0    0  501  502  0.00000000000E+00  0.00000000000E+00  0.18113722123E+03  0.18113722123E+03  0.00000000000E+00 0.  1.
         21   -1    0    0  502  503 -0.00000000000E+00 -0.00000000000E+00 -0.27765099563E+03  0.27765099563E+03  0.00000000000E+00 0.  1.
          6    1    1    2  501    0 -0.12605875265E+02  0.65460302466E+02  0.80805567615E+02  0.20224366257E+03  0.17300000000E+03 0.  1.
         -6    1    1    2    0  503  0.12605875265E+02 -0.65460302466E+02 -0.17731934201E+03  0.25654455430E+03  0.17300000000E+03 0.  1.
<mgrwt>
<rscale>  2 0.18539946E+03</rscale>
<asrwt>0</asrwt>
<pdfrwt beam="1">  1       21 0.27867265E-01 0.18539946E+03</pdfrwt>
<pdfrwt beam="2">  1       21 0.42715538E-01 0.18539946E+03</pdfrwt>
<totfact> 0.65024317E+04</totfact>
</mgrwt>
</event>
<event>
 4    1  0.4017302E+000  0.2957480E+03  0.7546771E-02  0.1087386E+00
         21   -1    0    0  501  502  0.00000000000E+00  0.00000000000E+00  0.62859714502E+03  0.62859714502E+03  0.00000000000E+00 0. -1.
         21   -1    0    0  502  503 -0.00000000000E+00 -0.00000000000E+00 -0.13988652201E+03  0.13988652201E+03  0.00000000000E+00 0.  1.
          6    1    1    2  501    0 -0.23746673947E+03  0.33873288549E+02  0.21640083804E+03  0.36646442492E+03  0.17300000000E+03 0.  1.
         -6    1    1    2    0  503  0.23746673947E+03 -0.33873288549E+02  0.27230978497E+03  0.40201924210E+03  0.17300000000E+03 0. -1.
<mgrwt>
<rscale>  2 0.29574795E+03</rscale>
<asrwt>0</asrwt>
<pdfrwt beam="1">  1       21 0.96707251E-01 0.29574795E+03</pdfrwt>
<pdfrwt beam="2">  1       21 0.21521004E-01 0.29574795E+03</pdfrwt>
<totfact> 0.16928205E+04</totfact>
</mgrwt>
</event>
<event>
 4    1  0.4017302E+000  0.1889718E+03  0.7546771E-02  0.1159392E+00
         21   -1    0    0  503  502  0.00000000000E+00  0.00000000000E+00  0.13804065406E+04  0.13804065406E+04  0.00000000000E+00 0.  1.
         21   -1    0    0  501  503 -0.00000000000E+00 -0.00000000000E+00 -0.52266669324E+02  0.52266669324E+02  0.00000000000E+00 0.  1.
          6    1    1    2  501    0  0.66725079239E+02 -0.36456778386E+02  0.15499235515E+03  0.24440327953E+03  0.17300000000E+03 0.  1.
         -6    1    1    2    0  502 -0.66725079239E+02  0.36456778386E+02  0.11731475161E+04  0.11882699304E+04  0.17300000000E+03 0.  1.
<mgrwt>
<rscale>  2 0.18897178E+03</rscale>
<asrwt>0</asrwt>
<pdfrwt beam="1">  1       21 0.21237021E+00 0.18897178E+03</pdfrwt>
<pdfrwt beam="2">  1       21 0.80410271E-02 0.18897178E+03</pdfrwt>
<totfact> 0.13379858E+04</totfact>
</mgrwt>
</event>
<event>
 4    1  0.4017302E+000  0.2230513E+03  0.7546771E-02  0.1131628E+00
         21   -1    0    0  503  502  0.00000000000E+00  0.00000000000E+00  0.86658203748E+02  0.86658203748E+02  0.00000000000E+00 0.  1.
         21   -1    0    0  501  503 -0.00000000000E+00 -0.00000000000E+00 -0.59048968646E+03  0.59048968646E+03  0.00000000000E+00 0.  1.
          6    1    1    2  501    0  0.12132090381E+03  0.71443076578E+02 -0.30829489227E+03  0.38052281862E+03  0.17300000000E+03 0.  1.
         -6    1    1    2    0  502 -0.12132090381E+03 -0.71443076578E+02 -0.19553659043E+03  0.29662507158E+03  0.17300000000E+03 0.  1.
<mgrwt>
<rscale>  2 0.22305128E+03</rscale>
<asrwt>0</asrwt>
<pdfrwt beam="1">  1       21 0.13332031E-01 0.22305128E+03</pdfrwt>
<pdfrwt beam="2">  1       21 0.90844567E-01 0.22305128E+03</pdfrwt>
<totfact> 0.49197362E+04</totfact>
</mgrwt>
</event>
<event>
 4    1  0.4017302E+000  0.2136777E+03  0.7546771E-02  0.1138686E+00
         21   -1    0    0  501  502  0.00000000000E+00  0.00000000000E+00  0.91053217289E+02  0.91053217289E+02  0.00000000000E+00 0. -1.
         21   -1    0    0  502  503 -0.00000000000E+00 -0.00000000000E+00 -0.54218497073E+03  0.54218497073E+03  0.00000000000E+00 0. -1.
          6    1    1    2  501    0  0.86008876427E+02 -0.91277778153E+02 -0.13877482598E+03  0.25478738574E+03  0.17300000000E+03 0. -1.
         -6    1    1    2    0  503 -0.86008876427E+02  0.91277778153E+02 -0.31235692746E+03  0.37845080227E+03  0.17300000000E+03 0. -1.
<mgrwt>
<rscale>  2 0.21367770E+03</rscale>
<asrwt>0</asrwt>
<pdfrwt beam="1">  1       21 0.14008187E-01 0.21367770E+03</pdfrwt>
<pdfrwt beam="2">  1       21 0.83413072E-01 0.21367770E+03</pdfrwt>
<totfact> 0.55002662E+04</totfact>
</mgrwt>
</event>
<event>
 4    1  0.4017302E+000  0.1821810E+03  0.7546771E-02  0.1165709E+00
         21   -1    0    0  503  502  0.00000000000E+00  0.00000000000E+00  0.26996971690E+03  0.26996971690E+03  0.00000000000E+00 0.  1.
         21   -1    0    0  501  503 -0.00000000000E+00 -0.00000000000E+00 -0.24098283429E+03  0.24098283429E+03  0.00000000000E+00 0.  1.
          6    1    1    2  501    0  0.55018754337E+02  0.15291882713E+02 -0.16431108503E+03  0.24533250431E+03  0.17300000000E+03 0.  1.
         -6    1    1    2    0  502 -0.55018754337E+02 -0.15291882713E+02  0.19329796765E+03  0.26562004687E+03  0.17300000000E+03 0.  1.
<mgrwt>
<rscale>  2 0.18218097E+03</rscale>
<asrwt>0</asrwt>
<pdfrwt beam="1">  1       21 0.41533802E-01 0.18218097E+03</pdfrwt>
<pdfrwt beam="2">  1       21 0.37074282E-01 0.18218097E+03</pdfrwt>
<totfact> 0.39368958E+04</totfact>
</mgrwt>
</event>
<event>
 4    1  0.4017302E+000  0.1899799E+03  0.7546771E-02  0.1158480E+00
         21   -1    0    0  503  502  0.00000000000E+00  0.00000000000E+00  0.43975560418E+03  0.43975560418E+03  0.00000000000E+00 0.  1.
         21   -1    0    0  501  503 -0.00000000000E+00 -0.00000000000E+00 -0.82937900432E+02  0.82937900432E+02  0.00000000000E+00 0.  1.
          6    1    1    2  501    0  0.70929235957E+02  0.33650985464E+02  0.15173033683E+03  0.24313461385E+03  0.17300000000E+03 0. -1.
         -6    1    1    2    0  502 -0.70929235957E+02 -0.33650985464E+02  0.20508736692E+03  0.27955889077E+03  0.17300000000E+03 0. -1.
<mgrwt>
<rscale>  2 0.18997986E+03</rscale>
<asrwt>0</asrwt>
<pdfrwt beam="1">  1       21 0.67654707E-01 0.18997986E+03</pdfrwt>
<pdfrwt beam="2">  1       21 0.12759677E-01 0.18997986E+03</pdfrwt>
<totfact> 0.10508563E+05</totfact>
</mgrwt>
</event>
<event>
 4    1  0.4017302E+000  0.2522918E+03  0.7546771E-02  0.1111865E+00
         21   -1    0    0  501  502  0.00000000000E+00  0.00000000000E+00  0.25333205875E+03  0.25333205875E+03  0.00000000000E+00 0. -1.
         21   -1    0    0  502  503 -0.00000000000E+00 -0.00000000000E+00 -0.26716331117E+03  0.26716331117E+03  0.00000000000E+00 0. -1.
          6    1    1    2  501    0 -0.18159273014E+03 -0.27317563127E+02  0.56587998851E+02  0.25856018740E+03  0.17300000000E+03 0. -1.
         -6    1    1    2    0  503  0.18159273014E+03  0.27317563127E+02 -0.70419251264E+02  0.26193518252E+03  0.17300000000E+03 0. -1.
<mgrwt>
<rscale>  2 0.25229183E+03</rscale>
<asrwt>0</asrwt>
<pdfrwt beam="1">  1       21 0.38974163E-01 0.25229183E+03</pdfrwt>
<pdfrwt beam="2">  1       21 0.41102048E-01 0.25229183E+03</pdfrwt>
<totfact> 0.35166743E+04</totfact>
</mgrwt>
</event>
<event>
 4    1  0.4017302E+000  0.2141981E+03  0.7546771E-02  0.1138284E+00
         21   -1    0    0  503  502  0.00000000000E+00  0.00000000000E+00  0.38989381206E+03  0.38989381206E+03  0.00000000000E+00 0. -1.
         21   -1    0    0  501  503 -0.00000000000E+00 -0.00000000000E+00 -0.29683302127E+03  0.29683302127E+03  0.00000000000E+00 0. -1.
          6    1    1    2  501    0  0.10854087433E+03  0.64580828603E+02 -0.22022664303E+03  0.30721422351E+03  0.17300000000E+03 0. -1.
         -6    1    1    2    0  502 -0.10854087433E+03 -0.64580828603E+02  0.31328743382E+03  0.37951260983E+03  0.17300000000E+03 0. -1.
<mgrwt>
<rscale>  2 0.21419805E+03</rscale>
<asrwt>0</asrwt>
<pdfrwt beam="1">  1       21 0.59983663E-01 0.21419805E+03</pdfrwt>
<pdfrwt beam="2">  1       21 0.45666619E-01 0.21419805E+03</pdfrwt>
<totfact> 0.11753120E+04</totfact>
</mgrwt>
</event>
<event>
 4    1  0.4017302E+000  0.2065044E+03  0.7546771E-02  0.1144364E+00
         21   -1    0    0  501  502  0.00000000000E+00  0.00000000000E+00  0.38698255481E+03  0.38698255481E+03  0.00000000000E+00 0.  1.
         21   -1    0    0  502  503 -0.00000000000E+00 -0.00000000000E+00 -0.11426885144E+03  0.11426885144E+03  0.00000000000E+00 0. -1.
          6    1    1    2  501    0  0.82436333398E+02 -0.76937033850E+02  0.18367127103E+03  0.27636785639E+03  0.17300000000E+03 0.  1.
         -6    1    1    2    0  503 -0.82436333398E+02  0.76937033850E+02  0.89042432338E+02  0.22488354986E+03  0.17300000000E+03 0. -1.
<mgrwt>
<rscale>  2 0.20650437E+03</rscale>
<asrwt>0</asrwt>
<pdfrwt beam="1">  1       21 0.59535777E-01 0.20650437E+03</pdfrwt>
<pdfrwt beam="2">  1       21 0.17579823E-01 0.20650437E+03</pdfrwt>
<totfact> 0.76803306E+04</totfact>
</mgrwt>
</event>
<event>
 4    1  0.4017302E+000  0.1886883E+03  0.7546771E-02  0.1159650E+00
         21   -1    0    0  503  502  0.00000000000E+00  0.00000000000E+00  0.10041796045E+04  0.10041796045E+04  0.00000000000E+00 0. -1.
         21   -1    0    0  501  503 -0.00000000000E+00 -0.00000000000E+00 -0.37912787218E+02  0.37912787218E+02  0.00000000000E+00 0. -1.
          6    1    1    2  501    0  0.58261328181E+01  0.75102122748E+02  0.61579587074E+03  0.64405576395E+03  0.17300000000E+03 0. -1.
         -6    1    1    2    0  502 -0.58261328181E+01 -0.75102122748E+02  0.35047094649E+03  0.39803662771E+03  0.17300000000E+03 0. -1.
<mgrwt>
<rscale>  2 0.18868829E+03</rscale>
<asrwt>0</asrwt>
<pdfrwt beam="1">  1       21 0.15448915E+00 0.18868829E+03</pdfrwt>
<pdfrwt beam="2">  1       21 0.58327373E-02 0.18868829E+03</pdfrwt>
<totfact> 0.57343579E+04</totfact>
</mgrwt>
</event>
<event>
 4    1  0.4017302E+000  0.2225344E+03  0.7546771E-02  0.1132008E+00
         21   -1    0    0  503  502  0.00000000000E+00  0.00000000000E+00  0.15909787619E+03  0.15909787619E+03  0.00000000000E+00 0.  1.
         21   -1    0    0  501  503 -0.00000000000E+00 -0.00000000000E+00 -0.31490992362E+03  0.31490992362E+03  0.00000000000E+00 0.  1.
          6    1    1    2  501    0 -0.51610944519E+02 -0.13011093699E+03 -0.10340525551E+03  0.24538580315E+03  0.17300000000E+03 0.  1.
         -6    1    1    2    0  502  0.51610944519E+02  0.13011093699E+03 -0.52406791923E+02  0.22862199666E+03  0.17300000000E+03 0.  1.
<mgrwt>
<rscale>  2 0.22253437E+03</rscale>
<asrwt>0</asrwt>
<pdfrwt beam="1">  1       21 0.24476596E-01 0.22253437E+03</pdfrwt>
<pdfrwt beam="2">  1       21 0.48447680E-01 0.22253437E+03</pdfrwt>
<totfact> 0.63320291E+04</totfact>
</mgrwt>
</event>
<event>
 4    1  0.4017302E+000  0.1766915E+03  0.7546771E-02  0.1171044E+00
         21   -1    0    0  503  502  0.00000000000E+00  0.00000000000E+00  0.78072192501E+02  0.78072192501E+02  0.00000000000E+00 0.  1.
         21   -1    0    0  501  503 -0.00000000000E+00 -0.00000000000E+00 -0.41139198252E+03  0.41139198252E+03  0.00000000000E+00 0. -1.
          6    1    1    2  501    0  0.33510383610E+02 -0.12958872195E+02 -0.20759054952E+03  0.27260541893E+03  0.17300000000E+03 0.  1.
         -6    1    1    2    0  502 -0.33510383610E+02  0.12958872195E+02 -0.12572924050E+03  0.21685875610E+03  0.17300000000E+03 0.  1.
<mgrwt>
<rscale>  2 0.17669148E+03</rscale>
<asrwt>0</asrwt>
<pdfrwt beam="1">  1       21 0.12011106E-01 0.17669148E+03</pdfrwt>
<pdfrwt beam="2">  1       21 0.63291075E-01 0.17669148E+03</pdfrwt>
<totfact> 0.13604079E+05</totfact>
</mgrwt>
</event>
<event>
 4    1  0.4017302E+000  0.4133928E+03  0.7546771E-02  0.1039238E+00
         21   -1    0    0  501  502  0.00000000000E+00  0.00000000000E+00  0.12959839759E+03  0.12959839759E+03  0.00000000000E+00 0.  1.
         21   -1    0    0  502  503 -0.00000000000E+00 -0.00000000000E+00 -0.13611287829E+04  0.13611287829E+04  0.00000000000E+00 0. -1.
          6    1    1    2  501    0  0.58868187956E+01 -0.37540641140E+03 -0.74745610756E+03  0.85415704709E+03  0.17300000000E+03 0. -1.
         -6    1    1    2    0  503 -0.58868187956E+01  0.37540641140E+03 -0.48407427770E+03  0.63657013336E+03  0.17300000000E+03 0. -1.
<mgrwt>
<rscale>  2 0.41339283E+03</rscale>
<asrwt>0</asrwt>
<pdfrwt beam="1">  1       21 0.19938217E-01 0.41339283E+03</pdfrwt>
<pdfrwt beam="2">  1       21 0.20940441E+00 0.41339283E+03</pdfrwt>
<totfact> 0.23348260E+03</totfact>
</mgrwt>
</event>
<event>
 4    1  0.4017302E+000  0.1852548E+03  0.7546771E-02  0.1162812E+00
         21   -1    0    0  501  502  0.00000000000E+00  0.00000000000E+00  0.19810882599E+03  0.19810882599E+03  0.00000000000E+00 0.  1.
         21   -1    0    0  502  503 -0.00000000000E+00 -0.00000000000E+00 -0.52802380335E+03  0.52802380335E+03  0.00000000000E+00 0. -1.
          6    1    1    2  501    0  0.10212023699E+01 -0.66251646089E+02  0.13265033330E+03  0.22784958720E+03  0.17300000000E+03 0.  1.
         -6    1    1    2    0  503 -0.10212023699E+01  0.66251646089E+02 -0.46256531065E+03  0.49828304214E+03  0.17300000000E+03 0. -1.
<mgrwt>
<rscale>  2 0.18525475E+03</rscale>
<asrwt>0</asrwt>
<pdfrwt beam="1">  1       21 0.30478281E-01 0.18525475E+03</pdfrwt>
<pdfrwt beam="2">  1       21 0.81234432E-01 0.18525475E+03</pdfrwt>
<totfact> 0.13792888E+04</totfact>
</mgrwt>
</event>
<event>
 4    1  0.4017302E+000  0.2168222E+03  0.7546771E-02  0.1136275E+00
         21   -1    0    0  501  502  0.00000000000E+00  0.00000000000E+00  0.24353207366E+03  0.24353207366E+03  0.00000000000E+00 0.  1.
         21   -1    0    0  502  503 -0.00000000000E+00 -0.00000000000E+00 -0.37282305813E+03  0.37282305813E+03  0.00000000000E+00 0.  1.
          6    1    1    2  501    0 -0.35629553930E+02 -0.12575139711E+03  0.14935846332E+03  0.26328659205E+03  0.17300000000E+03 0.  1.
         -6    1    1    2    0  503  0.35629553930E+02  0.12575139711E+03 -0.27864944779E+03  0.35306853973E+03  0.17300000000E+03 0.  1.
<mgrwt>
<rscale>  2 0.21682223E+03</rscale>
<asrwt>0</asrwt>
<pdfrwt beam="1">  1       21 0.37466473E-01 0.21682223E+03</pdfrwt>
<pdfrwt beam="2">  1       21 0.57357393E-01 0.21682223E+03</pdfrwt>
<totfact> 0.19325677E+04</totfact>
</mgrwt>
</event>
<event>
 4    1  0.4017302E+000  0.1906660E+03  0.7546771E-02  0.1157862E+00
         21   -1    0    0  501  502  0.00000000000E+00  0.00000000000E+00  0.41477716746E+02  0.41477716746E+02  0.00000000000E+00 0. -1.
         21   -1    0    0  502  503 -0.00000000000E+00 -0.00000000000E+00 -0.11429152209E+04  0.11429152209E+04  0.00000000000E+00 0. -1.
          6    1    1    2  501    0  0.63947050951E+02  0.48325002768E+02 -0.26478101206E+03  0.32628594142E+03  0.17300000000E+03 0. -1.
         -6    1    1    2    0  503 -0.63947050951E+02 -0.48325002768E+02 -0.83665649206E+03  0.85810699620E+03  0.17300000000E+03 0. -1.
<mgrwt>
<rscale>  2 0.19066602E+03</rscale>
<asrwt>0</asrwt>
<pdfrwt beam="1">  1       21 0.63811874E-02 0.19066602E+03</pdfrwt>
<pdfrwt beam="2">  1       21 0.17583310E+00 0.19066602E+03</pdfrwt>
<totfact> 0.34521346E+04</totfact>
</mgrwt>
</event>
<event>
 4    1  0.4017302E+000  0.1861095E+03  0.7546771E-02  0.1162018E+00
         21   -1    0    0  501  502  0.00000000000E+00  0.00000000000E+00  0.10994541557E+03  0.10994541557E+03  0.00000000000E+00 0.  1.
         21   -1    0    0  502  503 -0.00000000000E+00 -0.00000000000E+00 -0.32284258095E+03  0.32284258095E+03  0.00000000000E+00 0. -1.
          6    1    1    2  501    0 -0.64212272388E+02  0.24176712259E+02 -0.72798278609E+02  0.19984073336E+03  0.17300000000E+03 0.  1.
         -6    1    1    2    0  503  0.64212272388E+02 -0.24176712259E+02 -0.14009888678E+03  0.23294726317E+03  0.17300000000E+03 0. -1.
<mgrwt>
<rscale>  2 0.18610946E+03</rscale>
<asrwt>0</asrwt>
<pdfrwt beam="1">  1       21 0.16914679E-01 0.18610946E+03</pdfrwt>
<pdfrwt beam="2">  1       21 0.49668090E-01 0.18610946E+03</pdfrwt>
<totfact> 0.12193629E+05</totfact>
</mgrwt>
</event>
<event>
 4    1  0.4017302E+000  0.2184572E+03  0.7546771E-02  0.1135038E+00
         21   -1    0    0  501  502  0.00000000000E+00  0.00000000000E+00  0.65438328403E+02  0.65438328403E+02  0.00000000000E+00 0. -1.
         21   -1    0    0  502  503 -0.00000000000E+00 -0.00000000000E+00 -0.74370191636E+03  0.74370191636E+03  0.00000000000E+00 0. -1.
          6    1    1    2  501    0  0.97437389356E+02 -0.91107157852E+02 -0.28281396695E+03  0.35736158014E+03  0.17300000000E+03 0. -1.
         -6    1    1    2    0  503 -0.97437389356E+02  0.91107157852E+02 -0.39544962100E+03  0.45177866462E+03  0.17300000000E+03 0. -1.
<mgrwt>
<rscale>  2 0.21845722E+03</rscale>
<asrwt>0</asrwt>
<pdfrwt beam="1">  1       21 0.10067435E-01 0.21845722E+03</pdfrwt>
<pdfrwt beam="2">  1       21 0.11441568E+00 0.21845722E+03</pdfrwt>
<totfact> 0.46964036E+04</totfact>
</mgrwt>
</event>
<event>
 4    1  0.4017302E+000  0.2280901E+03  0.7546771E-02  0.1127991E+00
         21   -1    0    0  503  502  0.00000000000E+00  0.00000000000E+00  0.39794249818E+03  0.39794249818E+03  0.00000000000E+00 0.  1.
         21   -1    0    0  501  503 -0.00000000000E+00 -0.00000000000E+00 -0.25051154725E+03  0.25051154725E+03  0.00000000000E+00 0.  1.
          6    1    1    2  501    0 -0.21665263264E+02  0.14706015858E+03 -0.15047695692E+03  0.27325517093E+03  0.17300000000E+03 0.  1.
         -6    1    1    2    0  502  0.21665263264E+02 -0.14706015858E+03  0.29790790784E+03  0.37519887450E+03  0.17300000000E+03 0.  1.
<mgrwt>
<rscale>  2 0.22809006E+03</rscale>
<asrwt>0</asrwt>
<pdfrwt beam="1">  1       21 0.61221923E-01 0.22809006E+03</pdfrwt>
<pdfrwt beam="2">  1       21 0.38540238E-01 0.22809006E+03</pdfrwt>
<totfact> 0.15768404E+04</totfact>
</mgrwt>
</event>
<event>
 4    1  0.4017302E+000  0.1774953E+03  0.7546771E-02  0.1170249E+00
         21   -1    0    0  501  502  0.00000000000E+00  0.00000000000E+00  0.73463332056E+03  0.73463332056E+03  0.00000000000E+00 0.  1.
         21   -1    0    0  502  503 -0.00000000000E+00 -0.00000000000E+00 -0.12773677389E+03  0.12773677389E+03  0.00000000000E+00 0.  1.
          6    1    1    2  501    0  0.85066600215E+01  0.38771351996E+02  0.65487660570E+03  0.67850420021E+03  0.17300000000E+03 0.  1.
         -6    1    1    2    0  503 -0.85066600215E+01 -0.38771351996E+02 -0.47980059036E+02  0.18386589424E+03  0.17300000000E+03 0.  1.
<mgrwt>
<rscale>  2 0.17749530E+03</rscale>
<asrwt>0</asrwt>
<pdfrwt beam="1">  1       21 0.11302051E+00 0.17749530E+03</pdfrwt>
<pdfrwt beam="2">  1       21 0.19651812E-01 0.17749530E+03</pdfrwt>
<totfact> 0.14737389E+04</totfact>
</mgrwt>
</event>
<event>
 4    1  0.4017302E+000  0.2265114E+03  0.7546771E-02  0.1129120E+00
         21   -1    0    0  501  502  0.00000000000E+00  0.00000000000E+00  0.63948006936E+02  0.63948006936E+02  0.00000000000E+00 0.  1.
         21   -1    0    0  502  503 -0.00000000000E+00 -0.00000000000E+00 -0.10538804599E+04  0.10538804599E+04  0.00000000000E+00 0.  1.
          6    1    1    2  501    0  0.27250001931E+02 -0.14365188694E+03 -0.22190392696E+03  0.31709427625E+03  0.17300000000E+03 0.  1.
         -6    1    1    2    0  503 -0.27250001931E+02  0.14365188694E+03 -0.76802852604E+03  0.80073419062E+03  0.17300000000E+03 0.  1.
<mgrwt>
<rscale>  2 0.22651143E+03</rscale>
<asrwt>0</asrwt>
<pdfrwt beam="1">  1       21 0.98381550E-02 0.22651143E+03</pdfrwt>
<pdfrwt beam="2">  1       21 0.16213545E+00 0.22651143E+03</pdfrwt>
<totfact> 0.19830880E+04</totfact>
</mgrwt>
</event>
<event>
 4    1  0.4017302E+000  0.1843838E+03  0.7546771E-02  0.1163627E+00
         21   -1    0    0  503  502  0.00000000000E+00  0.00000000000E+00  0.13570663495E+03  0.13570663495E+03  0.00000000000E+00 0.  1.
         21   -1    0    0  501  503 -0.00000000000E+00 -0.00000000000E+00 -0.25829430910E+03  0.25829430910E+03  0.00000000000E+00 0.  1.
          6    1    1    2  501    0  0.46830452052E+02 -0.43304814803E+02 -0.27119087726E+02  0.18636749487E+03  0.17300000000E+03 0.  1.
         -6    1    1    2    0  502 -0.46830452052E+02  0.43304814803E+02 -0.95468586426E+02  0.20763344918E+03  0.17300000000E+03 0.  1.
<mgrwt>
<rscale>  2 0.18438383E+03</rscale>
<asrwt>0</asrwt>
<pdfrwt beam="1">  1       21 0.20877944E-01 0.18438383E+03</pdfrwt>
<pdfrwt beam="2">  1       21 0.39737585E-01 0.18438383E+03</pdfrwt>
<totfact> 0.13038138E+05</totfact>
</mgrwt>
</event>
<event>
 4    1  0.4017302E+000  0.2468057E+03  0.7546771E-02  0.1115340E+00
         21   -1    0    0  503  502  0.00000000000E+00  0.00000000000E+00  0.91811985567E+03  0.91811985567E+03  0.00000000000E+00 0.  1.
         21   -1    0    0  501  503 -0.00000000000E+00 -0.00000000000E+00 -0.84280852294E+02  0.84280852294E+02  0.00000000000E+00 0. -1.
          6    1    1    2  501    0  0.13594068809E+03 -0.11182205074E+03  0.18571147368E+03  0.30887180701E+03  0.17300000000E+03 0. -1.
         -6    1    1    2    0  502 -0.13594068809E+03  0.11182205074E+03  0.64812752970E+03  0.69352890096E+03  0.17300000000E+03 0.  1.
<mgrwt>
<rscale>  2 0.24680568E+03</rscale>
<asrwt>0</asrwt>
<pdfrwt beam="1">  1       21 0.14124920E+00 0.24680568E+03</pdfrwt>
<pdfrwt beam="2">  1       21 0.12966286E-01 0.24680568E+03</pdfrwt>
<totfact> 0.17268870E+04</totfact>
</mgrwt>
</event>
<event>
 4    1  0.4017302E+000  0.1775041E+03  0.7546771E-02  0.1170241E+00
         21   -1    0    0  501  502  0.00000000000E+00  0.00000000000E+00  0.25952011804E+03  0.25952011804E+03  0.00000000000E+00 0. -1.
         21   -1    0    0  502  503 -0.00000000000E+00 -0.00000000000E+00 -0.12367460171E+03  0.12367460171E+03  0.00000000000E+00 0.  1.
          6    1    1    2  501    0  0.23731989493E+02  0.31866754509E+02  0.93863451208E+02  0.20079353785E+03  0.17300000000E+03 0. -1.
         -6    1    1    2    0  503 -0.23731989493E+02 -0.31866754509E+02  0.41982065121E+02  0.18240118190E+03  0.17300000000E+03 0. -1.
<mgrwt>
<rscale>  2 0.17750408E+03</rscale>
<asrwt>0</asrwt>
<pdfrwt beam="1">  1       21 0.39926172E-01 0.17750408E+03</pdfrwt>
<pdfrwt beam="2">  1       21 0.19026862E-01 0.17750408E+03</pdfrwt>
<totfact> 0.15390106E+05</totfact>
</mgrwt>
</event>
<event>
 4    1  0.4017302E+000  0.3909253E+03  0.7546771E-02  0.1046968E+00
         21   -1    0    0  501  502  0.00000000000E+00  0.00000000000E+00  0.31214952600E+03  0.31214952600E+03  0.00000000000E+00 0. -1.
         21   -1    0    0  502  503 -0.00000000000E+00 -0.00000000000E+00 -0.50639075192E+03  0.50639075192E+03  0.00000000000E+00 0. -1.
          6    1    1    2  501    0 -0.46755072323E+00 -0.35056152664E+03 -0.17168692009E+03  0.42696487103E+03  0.17300000000E+03 0. -1.
         -6    1    1    2    0  503  0.46755072323E+00  0.35056152664E+03 -0.22554305823E+02  0.39157540689E+03  0.17300000000E+03 0. -1.
<mgrwt>
<rscale>  2 0.39092532E+03</rscale>
<asrwt>0</asrwt>
<pdfrwt beam="1">  1       21 0.48023005E-01 0.39092532E+03</pdfrwt>
<pdfrwt beam="2">  1       21 0.77906268E-01 0.39092532E+03</pdfrwt>
<totfact> 0.54410163E+03</totfact>
</mgrwt>
</event>
<event>
 4    1  0.4017302E+000  0.1848332E+03  0.7546771E-02  0.1163206E+00
         21   -1    0    0  503  502  0.00000000000E+00  0.00000000000E+00  0.17181833070E+04  0.17181833070E+04  0.00000000000E+00 0.  1.
         21   -1    0    0  501  503 -0.00000000000E+00 -0.00000000000E+00 -0.44932163485E+02  0.44932163485E+02  0.00000000000E+00 0.  1.
          6    1    1    2  501    0 -0.63047672681E+02 -0.16102511195E+02  0.17841421263E+03  0.25689478618E+03  0.17300000000E+03 0.  1.
         -6    1    1    2    0  502  0.63047672681E+02  0.16102511195E+02  0.14948369309E+04  0.15062206843E+04  0.17300000000E+03 0.  1.
<mgrwt>
<rscale>  2 0.18483317E+03</rscale>
<asrwt>0</asrwt>
<pdfrwt beam="1">  1       21 0.26433584E+00 0.18483317E+03</pdfrwt>
<pdfrwt beam="2">  1       21 0.69126419E-02 0.18483317E+03</pdfrwt>
<totfact> 0.85440901E+03</totfact>
</mgrwt>
</event>
<event>
 4    1  0.4017302E+000  0.2195100E+03  0.7546771E-02  0.1134249E+00
         21   -1    0    0  503  502  0.00000000000E+00  0.00000000000E+00  0.11003347311E+04  0.11003347311E+04  0.00000000000E+00 0.  1.
         21   -1    0    0  501  503 -0.00000000000E+00 -0.00000000000E+00 -0.11208936869E+03  0.11208936869E+03  0.00000000000E+00 0.  1.
          6    1    1    2  501    0 -0.41281479240E+02 -0.12865250523E+03  0.20919238260E+02  0.22050451732E+03  0.17300000000E+03 0.  1.
         -6    1    1    2    0  502  0.41281479240E+02  0.12865250523E+03  0.96732612418E+03  0.99191958250E+03  0.17300000000E+03 0.  1.
<mgrwt>
<rscale>  2 0.21950997E+03</rscale>
<asrwt>0</asrwt>
<pdfrwt beam="1">  1       21 0.16928226E+00 0.21950997E+03</pdfrwt>
<pdfrwt beam="2">  1       21 0.17244519E-01 0.21950997E+03</pdfrwt>
<totfact> 0.64189316E+03</totfact>
</mgrwt>
</event>
<event>
 4    1  0.4017302E+000  0.2492811E+03  0.7546771E-02  0.1113760E+00
         21   -1    0    0  503  502  0.00000000000E+00  0.00000000000E+00  0.92483648091E+03  0.92483648091E+03  0.00000000000E+00 0. -1.
         21   -1    0    0  501  503 -0.00000000000E+00 -0.00000000000E+00 -0.13931701103E+03  0.13931701103E+03  0.00000000000E+00 0. -1.
          6    1    1    2  501    0 -0.17576504769E+03  0.36314170340E+02  0.99200810623E+01  0.24947841383E+03  0.17300000000E+03 0. -1.
         -6    1    1    2    0  502  0.17576504769E+03 -0.36314170340E+02  0.77559938882E+03  0.81467507811E+03  0.17300000000E+03 0. -1.
<mgrwt>
<rscale>  2 0.24928111E+03</rscale>
<asrwt>0</asrwt>
<pdfrwt beam="1">  1       21 0.14228253E+00 0.24928111E+03</pdfrwt>
<pdfrwt beam="2">  1       21 0.21433387E-01 0.24928111E+03</pdfrwt>
<totfact> 0.66800238E+03</totfact>
</mgrwt>
</event>
<event>
 4    1  0.4017302E+000  0.1756008E+03  0.7546771E-02  0.1172130E+00
         21   -1    0    0  501  502  0.00000000000E+00  0.00000000000E+00  0.16811673289E+03  0.16811673289E+03  0.00000000000E+00 0. -1.
         21   -1    0    0  502  503 -0.00000000000E+00 -0.00000000000E+00 -0.19623430035E+03  0.19623430035E+03  0.00000000000E+00 0. -1.
          6    1    1    2  501    0 -0.14250275309E+02 -0.26524817513E+02 -0.60615650903E+02  0.18576838651E+03  0.17300000000E+03 0. -1.
         -6    1    1    2    0  503  0.14250275309E+02  0.26524817513E+02  0.32498083443E+02  0.17858264674E+03  0.17300000000E+03 0. -1.
<mgrwt>
<rscale>  2 0.17560079E+03</rscale>
<asrwt>0</asrwt>
<pdfrwt beam="1">  1       21 0.25864113E-01 0.17560079E+03</pdfrwt>
<pdfrwt beam="2">  1       21 0.30189893E-01 0.17560079E+03</pdfrwt>
<totfact> 0.15022664E+05</totfact>
</mgrwt>
</event>
<event>
 4    1  0.4017302E+000  0.1733881E+03  0.7546771E-02  0.1174360E+00
         21   -1    0    0  501  502  0.00000000000E+00  0.00000000000E+00  0.10008160725E+03  0.10008160725E+03  0.00000000000E+00 0.  1.
         21   -1    0    0  502  503 -0.00000000000E+00 -0.00000000000E+00 -0.45555035244E+03  0.45555035244E+03  0.00000000000E+00 0.  1.
          6    1    1    2  501    0 -0.11282690201E+02  0.26684076636E+01 -0.15597896681E+02  0.17408823590E+03  0.17300000000E+03 0.  1.
         -6    1    1    2    0  503  0.11282690201E+02 -0.26684076636E+01 -0.33987084851E+03  0.38154372379E+03  0.17300000000E+03 0.  1.
<mgrwt>
<rscale>  2 0.17338806E+03</rscale>
<asrwt>0</asrwt>
<pdfrwt beam="1">  1       21 0.15397170E-01 0.17338806E+03</pdfrwt>
<pdfrwt beam="2">  1       21 0.70084671E-01 0.17338806E+03</pdfrwt>
<totfact> 0.69710540E+04</totfact>
</mgrwt>
</event>
<event>
 4    1  0.4017302E+000  0.1876522E+03  0.7546771E-02  0.1160596E+00
         21   -1    0    0  501  502  0.00000000000E+00  0.00000000000E+00  0.34497214703E+02  0.34497214703E+02  0.00000000000E+00 0. -1.
         21   -1    0    0  502  503 -0.00000000000E+00 -0.00000000000E+00 -0.12695662540E+04  0.12695662540E+04  0.00000000000E+00 0. -1.
          6    1    1    2  501    0  0.17791445226E+02 -0.70482801395E+02 -0.32888416128E+03  0.37865307652E+03  0.17300000000E+03 0. -1.
         -6    1    1    2    0  503 -0.17791445226E+02  0.70482801395E+02 -0.90618487800E+03  0.92541039216E+03  0.17300000000E+03 0. -1.
<mgrwt>
<rscale>  2 0.18765223E+03</rscale>
<asrwt>0</asrwt>
<pdfrwt beam="1">  1       21 0.53072644E-02 0.18765223E+03</pdfrwt>
<pdfrwt beam="2">  1       21 0.19531786E+00 0.18765223E+03</pdfrwt>
<totfact> 0.35113046E+04</totfact>
</mgrwt>
</event>
<event>
 4    1  0.4017302E+000  0.1775882E+03  0.7546771E-02  0.1170158E+00
         21   -1    0    0  503  502  0.00000000000E+00  0.00000000000E+00  0.79355357584E+02  0.79355357584E+02  0.00000000000E+00 0.  1.
         21   -1    0    0  501  503 -0.00000000000E+00 -0.00000000000E+00 -0.64075216227E+03  0.64075216227E+03  0.00000000000E+00 0.  1.
          6    1    1    2  501    0 -0.39754688246E+02  0.53038271616E+01 -0.50257948332E+03  0.53303255330E+03  0.17300000000E+03 0.  1.
         -6    1    1    2    0  502  0.39754688246E+02 -0.53038271616E+01 -0.58817321369E+02  0.18707496656E+03  0.17300000000E+03 0.  1.
<mgrwt>
<rscale>  2 0.17758819E+03</rscale>
<asrwt>0</asrwt>
<pdfrwt beam="1">  1       21 0.12208516E-01 0.17758819E+03</pdfrwt>
<pdfrwt beam="2">  1       21 0.98577257E-01 0.17758819E+03</pdfrwt>
<totfact> 0.48691021E+04</totfact>
</mgrwt>
</event>
<event>
 4    1  0.4017302E+000  0.2063496E+03  0.7546771E-02  0.1144490E+00
         21   -1    0    0  501  502  0.00000000000E+00  0.00000000000E+00  0.18914356643E+03  0.18914356643E+03  0.00000000000E+00 0.  1.
         21   -1    0    0  502  503 -0.00000000000E+00 -0.00000000000E+00 -0.31271516796E+03  0.31271516796E+03  0.00000000000E+00 0. -1.
          6    1    1    2  501    0 -0.11176456456E+03 -0.12642810463E+02  0.71019377945E+02  0.21822903242E+03  0.17300000000E+03 0.  1.
         -6    1    1    2    0  503  0.11176456456E+03  0.12642810463E+02 -0.19459097948E+03  0.28362970197E+03  0.17300000000E+03 0. -1.
<mgrwt>
<rscale>  2 0.20634960E+03</rscale>
<asrwt>0</asrwt>
<pdfrwt beam="1">  1       21 0.29099010E-01 0.20634960E+03</pdfrwt>
<pdfrwt beam="2">  1       21 0.48110026E-01 0.20634960E+03</pdfrwt>
<totfact> 0.46364708E+04</totfact>
</mgrwt>
</event>
<event>
 4    1  0.4017302E+000  0.1816717E+03  0.7546771E-02  0.1166195E+00
         21   -1    0    0  501  502  0.00000000000E+00  0.00000000000E+00  0.38805329262E+03  0.38805329262E+03  0.00000000000E+00 0. -1.
         21   -1    0    0  502  503 -0.00000000000E+00 -0.00000000000E+00 -0.11470094610E+03  0.11470094610E+03  0.00000000000E+00 0. -1.
          6    1    1    2  501    0 -0.20733227973E+02  0.51436887916E+02  0.26448137935E+03  0.32086604714E+03  0.17300000000E+03 0. -1.
         -6    1    1    2    0  503  0.20733227973E+02 -0.51436887916E+02  0.88709671715E+01  0.18188819159E+03  0.17300000000E+03 0. -1.
<mgrwt>
<rscale>  2 0.18167174E+03</rscale>
<asrwt>0</asrwt>
<pdfrwt beam="1">  1       21 0.59700506E-01 0.18167174E+03</pdfrwt>
<pdfrwt beam="2">  1       21 0.17646300E-01 0.18167174E+03</pdfrwt>
<totfact> 0.76630889E+04</totfact>
</mgrwt>
</event>
<event>
 4    1  0.4017302E+000  0.2555425E+03  0.7546771E-02  0.1109851E+00
         21   -1    0    0  501  502  0.00000000000E+00  0.00000000000E+00  0.84476873264E+03  0.84476873264E+03  0.00000000000E+00 0. -1.
         21   -1    0    0  502  503 -0.00000000000E+00 -0.00000000000E+00 -0.12523153323E+03  0.12523153323E+03  0.00000000000E+00 0. -1.
          6    1    1    2  501    0 -0.13532345993E+03  0.13061596940E+03  0.65981501624E+03  0.70757178146E+03  0.17300000000E+03 0. -1.
         -6    1    1    2    0  503  0.13532345993E+03 -0.13061596940E+03  0.59722183170E+02  0.26242848441E+03  0.17300000000E+03 0. -1.
<mgrwt>
<rscale>  2 0.25554250E+03</rscale>
<asrwt>0</asrwt>
<pdfrwt beam="1">  1       21 0.12996442E+00 0.25554250E+03</pdfrwt>
<pdfrwt beam="2">  1       21 0.19266390E-01 0.25554250E+03</pdfrwt>
<totfact> 0.10275955E+04</totfact>
</mgrwt>
</event>
<event>
 4    1  0.4017302E+000  0.2082599E+03  0.7546771E-02  0.1142951E+00
         21   -1    0    0  503  502  0.00000000000E+00  0.00000000000E+00  0.30833830290E+03  0.30833830290E+03  0.00000000000E+00 0. -1.
         21   -1    0    0  501  503 -0.00000000000E+00 -0.00000000000E+00 -0.15962514318E+03  0.15962514318E+03  0.00000000000E+00 0. -1.
          6    1    1    2  501    0 -0.42911117538E+02 -0.10771178635E+03 -0.62851910810E+01  0.20835473730E+03  0.17300000000E+03 0. -1.
         -6    1    1    2    0  502  0.42911117538E+02  0.10771178635E+03  0.15499835079E+03  0.25960870878E+03  0.17300000000E+03 0. -1.
<mgrwt>
<rscale>  2 0.20825992E+03</rscale>
<asrwt>0</asrwt>
<pdfrwt beam="1">  1       21 0.47436662E-01 0.20825992E+03</pdfrwt>
<pdfrwt beam="2">  1       21 0.24557714E-01 0.20825992E+03</pdfrwt>
<totfact> 0.66144216E+04</totfact>
</mgrwt>
</event>
<event>
 4    1  0.4017302E+000  0.2345254E+03  0.7546771E-02  0.1123495E+00
         21   -1    0    0  501  502  0.00000000000E+00  0.00000000000E+00  0.32122420542E+03  0.32122420542E+03  0.00000000000E+00 0. -1.
         21   -1    0    0  502  503 -0.00000000000E+00 -0.00000000000E+00 -0.31675089733E+03  0.31675089733E+03  0.00000000000E+00 0. -1.
          6    1    1    2  501    0 -0.14814402661E+03 -0.55915043405E+02  0.21844999535E+03  0.32050358059E+03  0.17300000000E+03 0. -1.
         -6    1    1    2    0  503  0.14814402661E+03  0.55915043405E+02 -0.21397668726E+03  0.31747152217E+03  0.17300000000E+03 0. -1.
<mgrwt>
<rscale>  2 0.23452536E+03</rscale>
<asrwt>0</asrwt>
<pdfrwt beam="1">  1       21 0.49419109E-01 0.23452536E+03</pdfrwt>
<pdfrwt beam="2">  1       21 0.48730907E-01 0.23452536E+03</pdfrwt>
<totfact> 0.15308287E+04</totfact>
</mgrwt>
</event>
<event>
 4    1  0.4017302E+000  0.2229266E+03  0.7546771E-02  0.1131720E+00
         21   -1    0    0  503  502  0.00000000000E+00  0.00000000000E+00  0.12069991996E+04  0.12069991996E+04  0.00000000000E+00 0. -1.
         21   -1    0    0  501  503 -0.00000000000E+00 -0.00000000000E+00 -0.41224779517E+02  0.41224779517E+02  0.00000000000E+00 0. -1.
          6    1    1    2  501    0  0.10154249388E+03  0.97243913614E+02  0.60492116935E+03  0.64469052880E+03  0.17300000000E+03 0. -1.
         -6    1    1    2    0  502 -0.10154249388E+03 -0.97243913614E+02  0.56085325077E+03  0.60353345036E+03  0.17300000000E+03 0. -1.
<mgrwt>
<rscale>  2 0.22292657E+03</rscale>
<asrwt>0</asrwt>
<pdfrwt beam="1">  1       21 0.18569216E+00 0.22292657E+03</pdfrwt>
<pdfrwt beam="2">  1       21 0.63422747E-02 0.22292657E+03</pdfrwt>
<totfact> 0.29271617E+04</totfact>
</mgrwt>
</event>
<event>
 4    1  0.4017302E+000  0.1891863E+03  0.7546771E-02  0.1159197E+00
         21   -1    0    0  503  502  0.00000000000E+00  0.00000000000E+00  0.15020222195E+03  0.15020222195E+03  0.00000000000E+00 0. -1.
         21   -1    0    0  501  503 -0.00000000000E+00 -0.00000000000E+00 -0.24170770128E+03  0.24170770128E+03  0.00000000000E+00 0. -1.
          6    1    1    2  501    0 -0.10985022334E+01 -0.76558806996E+02 -0.22446335763E+02  0.19051324265E+03  0.17300000000E+03 0.  1.
         -6    1    1    2    0  502  0.10985022334E+01  0.76558806996E+02 -0.69059143569E+02  0.20139668057E+03  0.17300000000E+03 0.  1.
<mgrwt>
<rscale>  2 0.18918630E+03</rscale>
<asrwt>0</asrwt>
<pdfrwt beam="1">  1       21 0.23108034E-01 0.18918630E+03</pdfrwt>
<pdfrwt beam="2">  1       21 0.37185800E-01 0.18918630E+03</pdfrwt>
<totfact> 0.12284642E+05</totfact>
</mgrwt>
</event>
<event>
 4    1  0.4017302E+000  0.3896629E+03  0.7546771E-02  0.1047419E+00
         21   -1    0    0  501  502  0.00000000000E+00  0.00000000000E+00  0.21686773102E+03  0.21686773102E+03  0.00000000000E+00 0. -1.
         21   -1    0    0  502  503 -0.00000000000E+00 -0.00000000000E+00 -0.13475715498E+04  0.13475715498E+04  0.00000000000E+00 0.  1.
          6    1    1    2  501    0 -0.51204146139E+02  0.34537852113E+03 -0.23162993490E+02  0.39035075472E+03  0.17300000000E+03 0. -1.
         -6    1    1    2    0  503  0.51204146139E+02 -0.34537852113E+03 -0.11075408253E+04  0.11740885261E+04  0.17300000000E+03 0.  1.
<mgrwt>
<rscale>  2 0.38966292E+03</rscale>
<asrwt>0</asrwt>
<pdfrwt beam="1">  1       21 0.33364266E-01 0.38966292E+03</pdfrwt>
<pdfrwt beam="2">  1       21 0.20731870E+00 0.38966292E+03</pdfrwt>
<totfact> 0.89363633E+02</totfact>
</mgrwt>
</event>
<event>
 4    1  0.4017302E+000  0.2004262E+03  0.7546771E-02  0.1149380E+00
         21   -1    0    0  501  502  0.00000000000E+00  0.00000000000E+00  0.48270407529E+03  0.48270407529E+03  0.00000000000E+00 0.  1.
         21   -1    0    0  502  503 -0.00000000000E+00 -0.00000000000E+00 -0.84006395745E+02  0.84006395745E+02  0.00000000000E+00 0. -1.
          6    1    1    2  501    0  0.52010228468E+01 -0.10106726837E+03  0.22676393707E+03  0.30264257224E+03  0.17300000000E+03 0.  1.
         -6    1    1    2    0  503 -0.52010228468E+01  0.10106726837E+03  0.17193374248E+03  0.26406789880E+03  0.17300000000E+03 0. -1.
<mgrwt>
<rscale>  2 0.20042615E+03</rscale>
<asrwt>0</asrwt>
<pdfrwt beam="1">  1       21 0.74262164E-01 0.20042615E+03</pdfrwt>
<pdfrwt beam="2">  1       21 0.12924061E-01 0.20042615E+03</pdfrwt>
<totfact> 0.83212327E+04</totfact>
</mgrwt>
</event>
<event>
 4    1  0.4017302E+000  0.1950584E+03  0.7546771E-02  0.1153976E+00
         21   -1    0    0  501  502  0.00000000000E+00  0.00000000000E+00  0.22542036972E+03  0.22542036972E+03  0.00000000000E+00 0.  1.
         21   -1    0    0  502  503 -0.00000000000E+00 -0.00000000000E+00 -0.17034741173E+03  0.17034741173E+03  0.00000000000E+00 0. -1.
          6    1    1    2  501    0 -0.33275638314E+02  0.83734879535E+02  0.46481892345E+02  0.20052023457E+03  0.17300000000E+03 0.  1.
         -6    1    1    2    0  503  0.33275638314E+02 -0.83734879535E+02  0.85910656456E+01  0.19524754689E+03  0.17300000000E+03 0.  1.
<mgrwt>
<rscale>  2 0.19505845E+03</rscale>
<asrwt>0</asrwt>
<pdfrwt beam="1">  1       21 0.34680057E-01 0.19505845E+03</pdfrwt>
<pdfrwt beam="2">  1       21 0.26207294E-01 0.19505845E+03</pdfrwt>
<totfact> 0.11081220E+05</totfact>
</mgrwt>
</event>
<event>
 4    1  0.4017302E+000  0.3500240E+03  0.7546771E-02  0.1062605E+00
         21   -1    0    0  501  502  0.00000000000E+00  0.00000000000E+00  0.57296150569E+03  0.57296150569E+03  0.00000000000E+00 0.  1.
         21   -1    0    0  502  503 -0.00000000000E+00 -0.00000000000E+00 -0.21898352897E+03  0.21898352897E+03  0.00000000000E+00 0. -1.
          6    1    1    2  501    0  0.25820882547E+03  0.16098458280E+03  0.23772926547E+03  0.42312177575E+03  0.17300000000E+03 0. -1.
         -6    1    1    2    0  503 -0.25820882547E+03 -0.16098458280E+03  0.11624871124E+03  0.36882325891E+03  0.17300000000E+03 0.  1.
<mgrwt>
<rscale>  2 0.35002405E+03</rscale>
<asrwt>0</asrwt>
<pdfrwt beam="1">  1       21 0.88147924E-01 0.35002405E+03</pdfrwt>
<pdfrwt beam="2">  1       21 0.33689774E-01 0.35002405E+03</pdfrwt>
<totfact> 0.86000988E+03</totfact>
</mgrwt>
</event>
<event>
 4    1  0.4017302E+000  0.1786508E+03  0.7546771E-02  0.1169115E+00
         21   -1    0    0  501  502  0.00000000000E+00  0.00000000000E+00  0.74255794711E+02  0.74255794711E+02  0.00000000000E+00 0.  1.
         21   -1    0    0  502  503 -0.00000000000E+00 -0.00000000000E+00 -0.45027736568E+03  0.45027736568E+03  0.00000000000E+00 0.  1.
          6    1    1    2  501    0 -0.42059902555E+02  0.14767651479E+02 -0.13209941016E+03  0.22218544754E+03  0.17300000000E+03 0.  1.
         -6    1    1    2    0  503  0.42059902555E+02 -0.14767651479E+02 -0.24392216081E+03  0.30234771285E+03  0.17300000000E+03 0.  1.
<mgrwt>
<rscale>  2 0.17865083E+03</rscale>
<asrwt>0</asrwt>
<pdfrwt beam="1">  1       21 0.11423969E-01 0.17865083E+03</pdfrwt>
<pdfrwt beam="2">  1       21 0.69273439E-01 0.17865083E+03</pdfrwt>
<totfact> 0.12209564E+05</totfact>
</mgrwt>
</event>
<event>
 4    1  0.4017302E+000  0.2285452E+03  0.7546771E-02  0.1127668E+00
         21   -1    0    0  503  502  0.00000000000E+00  0.00000000000E+00  0.45623876264E+03  0.45623876264E+03  0.00000000000E+00 0.  1.
         21   -1    0    0  501  503 -0.00000000000E+00 -0.00000000000E+00 -0.11581564333E+03  0.11581564333E+03  0.00000000000E+00 0.  1.
          6    1    1    2  501    0 -0.30700715897E+01 -0.14931342257E+03  0.20085948946E+03  0.30426544004E+03  0.17300000000E+03 0.  1.
         -6    1    1    2    0  502  0.30700715897E+01  0.14931342257E+03  0.13956362985E+03  0.26778896593E+03  0.17300000000E+03 0.  1.
<mgrwt>
<rscale>  2 0.22854523E+03</rscale>
<asrwt>0</asrwt>
<pdfrwt beam="1">  1       21 0.70190578E-01 0.22854523E+03</pdfrwt>
<pdfrwt beam="2">  1       21 0.17817791E-01 0.22854523E+03</pdfrwt>
<totfact> 0.51813934E+04</totfact>
</mgrwt>
</event>
<event>
 4    1  0.4017302E+000  0.2609250E+03  0.7546771E-02  0.1106589E+00
         21   -1    0    0  503  502  0.00000000000E+00  0.00000000000E+00  0.99625681723E+03  0.99625681723E+03  0.00000000000E+00 0.  1.
         21   -1    0    0  501  503 -0.00000000000E+00 -0.00000000000E+00 -0.17493928978E+03  0.17493928978E+03  0.00000000000E+00 0. -1.
          6    1    1    2  501    0 -0.16385529594E+03 -0.10632158201E+03 -0.46469331410E+02  0.26503063138E+03  0.17300000000E+03 0. -1.
         -6    1    1    2    0  502  0.16385529594E+03  0.10632158201E+03  0.86778685886E+03  0.90616547563E+03  0.17300000000E+03 0.  1.
<mgrwt>
<rscale>  2 0.26092496E+03</rscale>
<asrwt>0</asrwt>
<pdfrwt beam="1">  1       21 0.15327028E+00 0.26092496E+03</pdfrwt>
<pdfrwt beam="2">  1       21 0.26913737E-01 0.26092496E+03</pdfrwt>
<totfact> 0.35205683E+03</totfact>
</mgrwt>
</event>
<event>
 4    1  0.4017302E+000  0.2074574E+03  0.7546771E-02  0.1143595E+00
         21   -1    0    0  503  502  0.00000000000E+00  0.00000000000E+00  0.36263615418E+03  0.36263615418E+03  0.00000000000E+00 0.  1.
         21   -1    0    0  501  503 -0.00000000000E+00 -0.00000000000E+00 -0.18115301595E+03  0.18115301595E+03  0.00000000000E+00 0.  1.
          6    1    1    2  501    0 -0.11306379577E+03  0.18059332621E+02  0.25040864008E+03  0.32518156226E+03  0.17300000000E+03 0.  1.
         -6    1    1    2    0  502  0.11306379577E+03 -0.18059332621E+02 -0.68925501850E+02  0.21860760786E+03  0.17300000000E+03 0.  1.
<mgrwt>
<rscale>  2 0.20745737E+03</rscale>
<asrwt>0</asrwt>
<pdfrwt beam="1">  1       21 0.55790178E-01 0.20745737E+03</pdfrwt>
<pdfrwt beam="2">  1       21 0.27869695E-01 0.20745737E+03</pdfrwt>
<totfact> 0.36918361E+04</totfact>
</mgrwt>
</event>
<event>
 4    1  0.4017302E+000  0.1949207E+03  0.7546771E-02  0.1154097E+00
         21   -1    0    0  501  502  0.00000000000E+00  0.00000000000E+00  0.48036770110E+02  0.48036770110E+02  0.00000000000E+00 0.  1.
         21   -1    0    0  502  503 -0.00000000000E+00 -0.00000000000E+00 -0.18240506437E+04  0.18240506437E+04  0.00000000000E+00 0.  1.
          6    1    1    2  501    0 -0.48634058000E+02 -0.75497112876E+02 -0.18355460179E+03  0.26774311847E+03  0.17300000000E+03 0.  1.
         -6    1    1    2    0  503  0.48634058000E+02  0.75497112876E+02 -0.15924592718E+04  0.16043442953E+04  0.17300000000E+03 0.  1.
<mgrwt>
<rscale>  2 0.19492072E+03</rscale>
<asrwt>0</asrwt>
<pdfrwt beam="1">  1       21 0.73902729E-02 0.19492072E+03</pdfrwt>
<pdfrwt beam="2">  1       21 0.28062315E+00 0.19492072E+03</pdfrwt>
<totfact> 0.60630037E+03</totfact>
</mgrwt>
</event>
<event>
 4    1  0.4017302E+000  0.1737710E+03  0.7546771E-02  0.1173971E+00
         21   -1    0    0  501  502  0.00000000000E+00  0.00000000000E+00  0.90189816373E+02  0.90189816373E+02  0.00000000000E+00 0. -1.
         21   -1    0    0  502  503 -0.00000000000E+00 -0.00000000000E+00 -0.38094912690E+03  0.38094912690E+03  0.00000000000E+00 0. -1.
          6    1    1    2  501    0  0.15774903090E+02 -0.43010335580E+01 -0.63396291769E+02  0.18497415027E+03  0.17300000000E+03 0. -1.
         -6    1    1    2    0  503 -0.15774903090E+02  0.43010335580E+01 -0.22736301876E+03  0.28616479301E+03  0.17300000000E+03 0. -1.
<mgrwt>
<rscale>  2 0.17377096E+03</rscale>
<asrwt>0</asrwt>
<pdfrwt beam="1">  1       21 0.13875356E-01 0.17377096E+03</pdfrwt>
<pdfrwt beam="2">  1       21 0.58607559E-01 0.17377096E+03</pdfrwt>
<totfact> 0.12397555E+05</totfact>
</mgrwt>
</event>
<event>
 4    1  0.4017302E+000  0.2426542E+03  0.7546771E-02  0.1118037E+00
         21   -1    0    0  501  502  0.00000000000E+00  0.00000000000E+00  0.31513207056E+03  0.31513207056E+03  0.00000000000E+00 0. -1.
         21   -1    0    0  502  503 -0.00000000000E+00 -0.00000000000E+00 -0.28245525201E+03  0.28245525201E+03  0.00000000000E+00 0. -1.
          6    1    1    2  501    0 -0.16364701305E+03  0.46601532991E+02 -0.15750065329E+03  0.28928792499E+03  0.17300000000E+03 0. -1.
         -6    1    1    2    0  503  0.16364701305E+03 -0.46601532991E+02  0.19017747184E+03  0.30829939759E+03  0.17300000000E+03 0. -1.
<mgrwt>
<rscale>  2 0.24265417E+03</rscale>
<asrwt>0</asrwt>
<pdfrwt beam="1">  1       21 0.48481857E-01 0.24265417E+03</pdfrwt>
<pdfrwt beam="2">  1       21 0.43454654E-01 0.24265417E+03</pdfrwt>
<totfact> 0.20117079E+04</totfact>
</mgrwt>
</event>
<event>
 4    1  0.4017302E+000  0.2630922E+03  0.7546771E-02  0.1105299E+00
         21   -1    0    0  503  502  0.00000000000E+00  0.00000000000E+00  0.12401635893E+03  0.12401635893E+03  0.00000000000E+00 0. -1.
         21   -1    0    0  501  503 -0.00000000000E+00 -0.00000000000E+00 -0.60255475921E+03  0.60255475921E+03  0.00000000000E+00 0. -1.
          6    1    1    2  501    0  0.19782215765E+03  0.12445524042E+02 -0.33790911554E+03  0.42825234090E+03  0.17300000000E+03 0. -1.
         -6    1    1    2    0  502 -0.19782215765E+03 -0.12445524042E+02 -0.14062928474E+03  0.29831877724E+03  0.17300000000E+03 0. -1.
<mgrwt>
<rscale>  2 0.26309218E+03</rscale>
<asrwt>0</asrwt>
<pdfrwt beam="1">  1       21 0.19079440E-01 0.26309218E+03</pdfrwt>
<pdfrwt beam="2">  1       21 0.92700733E-01 0.26309218E+03</pdfrwt>
<totfact> 0.23821333E+04</totfact>
</mgrwt>
</event>
<event>
 4    1  0.4017302E+000  0.2183832E+03  0.7546771E-02  0.1135094E+00
         21   -1    0    0  503  502  0.00000000000E+00  0.00000000000E+00  0.13976205350E+03  0.13976205350E+03  0.00000000000E+00 0.  1.
         21   -1    0    0  501  503 -0.00000000000E+00 -0.00000000000E+00 -0.36048739229E+03  0.36048739229E+03  0.00000000000E+00 0. -1.
          6    1    1    2  501    0 -0.90468396082E+02  0.97865643125E+02 -0.16817140013E+03  0.27563170103E+03  0.17300000000E+03 0.  1.
         -6    1    1    2    0  502  0.90468396082E+02 -0.97865643125E+02 -0.52553938662E+02  0.22461774476E+03  0.17300000000E+03 0.  1.
<mgrwt>
<rscale>  2 0.21838318E+03</rscale>
<asrwt>0</asrwt>
<pdfrwt beam="1">  1       21 0.21501854E-01 0.21838318E+03</pdfrwt>
<pdfrwt beam="2">  1       21 0.55459599E-01 0.21838318E+03</pdfrwt>
<totfact> 0.61047817E+04</totfact>
</mgrwt>
</event>
<event>
 4    1  0.4017302E+000  0.1748444E+03  0.7546771E-02  0.1172888E+00
         21   -1    0    0  501  502  0.00000000000E+00  0.00000000000E+00  0.92301424499E+02  0.92301424499E+02  0.00000000000E+00 0.  1.
         21   -1    0    0  502  503 -0.00000000000E+00 -0.00000000000E+00 -0.34728834037E+03  0.34728834037E+03  0.00000000000E+00 0.  1.
          6    1    1    2  501    0  0.24754127053E+02 -0.53667453760E+01 -0.80191532663E+02  0.19235709156E+03  0.17300000000E+03 0.  1.
         -6    1    1    2    0  503 -0.24754127053E+02  0.53667453760E+01 -0.17479538321E+03  0.24723267331E+03  0.17300000000E+03 0.  1.
<mgrwt>
<rscale>  2 0.17484441E+03</rscale>
<asrwt>0</asrwt>
<pdfrwt beam="1">  1       21 0.14200219E-01 0.17484441E+03</pdfrwt>
<pdfrwt beam="2">  1       21 0.53428975E-01 0.17484441E+03</pdfrwt>
<totfact> 0.14455528E+05</totfact>
</mgrwt>
</event>
<event>
 4    1  0.4017302E+000  0.4596791E+03  0.7546771E-02  0.1024874E+00
         21   -1    0    0  501  502  0.00000000000E+00  0.00000000000E+00  0.75334618999E+03  0.75334618999E+03  0.00000000000E+00 0.  1.
         21   -1    0    0  502  503 -0.00000000000E+00 -0.00000000000E+00 -0.47958424885E+03  0.47958424885E+03  0.00000000000E+00 0.  1.
          6    1    1    2  501    0  0.41023680226E+03  0.11437485659E+03  0.53407916286E+03  0.70465977177E+03  0.17300000000E+03 0.  1.
         -6    1    1    2    0  503 -0.41023680226E+03 -0.11437485659E+03 -0.26031722172E+03  0.52827066706E+03  0.17300000000E+03 0.  1.
<mgrwt>
<rscale>  2 0.45967906E+03</rscale>
<asrwt>0</asrwt>
<pdfrwt beam="1">  1       21 0.11589941E+00 0.45967906E+03</pdfrwt>
<pdfrwt beam="2">  1       21 0.73782192E-01 0.45967906E+03</pdfrwt>
<totfact> 0.79839134E+02</totfact>
</mgrwt>
</event>
<event>
 4    1  0.4017302E+000  0.1853488E+03  0.7546771E-02  0.1162725E+00
         21   -1    0    0  501  502  0.00000000000E+00  0.00000000000E+00  0.37315436209E+03  0.37315436209E+03  0.00000000000E+00 0. -1.
         21   -1    0    0  502  503 -0.00000000000E+00 -0.00000000000E+00 -0.12623221129E+03  0.12623221129E+03  0.00000000000E+00 0. -1.
          6    1    1    2  501    0  0.38989882197E+02 -0.53897610527E+02  0.25336776864E+03  0.31392577072E+03  0.17300000000E+03 0. -1.
         -6    1    1    2    0  503 -0.38989882197E+02  0.53897610527E+02 -0.64456178361E+01  0.18546080266E+03  0.17300000000E+03 0. -1.
<mgrwt>
<rscale>  2 0.18534876E+03</rscale>
<asrwt>0</asrwt>
<pdfrwt beam="1">  1       21 0.57408363E-01 0.18534876E+03</pdfrwt>
<pdfrwt beam="2">  1       21 0.19420340E-01 0.18534876E+03</pdfrwt>
<totfact> 0.69662939E+04</totfact>
</mgrwt>
</event>
<event>
 4    1  0.4017302E+000  0.2286778E+03  0.7546771E-02  0.1127574E+00
         21   -1    0    0  501  502  0.00000000000E+00  0.00000000000E+00  0.72420251372E+03  0.72420251372E+03  0.00000000000E+00 0.  1.
         21   -1    0    0  502  503 -0.00000000000E+00 -0.00000000000E+00 -0.73475497251E+02  0.73475497251E+02  0.00000000000E+00 0.  1.
          6    1    1    2  501    0 -0.13355819441E+03  0.67281133455E+02  0.27298869629E+03  0.35611286205E+03  0.17300000000E+03 0.  1.
         -6    1    1    2    0  503  0.13355819441E+03 -0.67281133455E+02  0.37773832018E+03  0.44156514892E+03  0.17300000000E+03 0.  1.
<mgrwt>
<rscale>  2 0.22867781E+03</rscale>
<asrwt>0</asrwt>
<pdfrwt beam="1">  1       21 0.11141577E+00 0.22867781E+03</pdfrwt>
<pdfrwt beam="2">  1       21 0.11303923E-01 0.22867781E+03</pdfrwt>
<totfact> 0.40568504E+04</totfact>
</mgrwt>
</event>
<event>
 4    1  0.4017302E+000  0.1951148E+03  0.7546771E-02  0.1153927E+00
         21   -1    0    0  501  502  0.00000000000E+00  0.00000000000E+00  0.67768515789E+02  0.67768515789E+02  0.00000000000E+00 0. -1.
         21   -1    0    0  502  503 -0.00000000000E+00 -0.00000000000E+00 -0.11817579872E+04  0.11817579872E+04  0.00000000000E+00 0.  1.
          6    1    1    2  501    0  0.69226773594E+02  0.57865640855E+02 -0.10446655007E+03  0.22132112113E+03  0.17300000000E+03 0. -1.
         -6    1    1    2    0  503 -0.69226773594E+02 -0.57865640855E+02 -0.10095229213E+04  0.10282053818E+04  0.17300000000E+03 0.  1.
<mgrwt>
<rscale>  2 0.19511478E+03</rscale>
<asrwt>0</asrwt>
<pdfrwt beam="1">  1       21 0.10425925E-01 0.19511478E+03</pdfrwt>
<pdfrwt beam="2">  1       21 0.18180892E+00 0.19511478E+03</pdfrwt>
<totfact> 0.13307542E+04</totfact>
</mgrwt>
</event>
<event>
 4    1  0.4017302E+000  0.1895860E+03  0.7546771E-02  0.1158835E+00
         21   -1    0    0  503  502  0.00000000000E+00  0.00000000000E+00  0.22728396496E+04  0.22728396496E+04  0.00000000000E+00 0. -1.
         21   -1    0    0  501  503 -0.00000000000E+00 -0.00000000000E+00 -0.26334150318E+02  0.26334150318E+02  0.00000000000E+00 0. -1.
          6    1    1    2  501    0 -0.76858255826E+01  0.77167166430E+02  0.39665893672E+03  0.43963752748E+03  0.17300000000E+03 0. -1.
         -6    1    1    2    0  502  0.76858255826E+01 -0.77167166430E+02  0.18498465626E+04  0.18595362725E+04  0.17300000000E+03 0. -1.
<mgrwt>
<rscale>  2 0.18958598E+03</rscale>
<asrwt>0</asrwt>
<pdfrwt beam="1">  1       21 0.34966748E+00 0.18958598E+03</pdfrwt>
<pdfrwt beam="2">  1       21 0.40514095E-02 0.18958598E+03</pdfrwt>
<totfact> 0.67632429E+03</totfact>
</mgrwt>
</event>
<event>
 4    1  0.4017302E+000  0.2574222E+03  0.7546771E-02  0.1108702E+00
         21   -1    0    0  503  502  0.00000000000E+00  0.00000000000E+00  0.58894095143E+03  0.58894095143E+03  0.00000000000E+00 0.  1.
         21   -1    0    0  501  503 -0.00000000000E+00 -0.00000000000E+00 -0.22946342713E+03  0.22946342713E+03  0.00000000000E+00 0.  1.
          6    1    1    2  501    0 -0.17208979861E+03 -0.81989451719E+02 -0.11238961366E+03  0.28088715570E+03  0.17300000000E+03 0.  1.
         -6    1    1    2    0  502  0.17208979861E+03  0.81989451719E+02  0.47186713797E+03  0.53751722286E+03  0.17300000000E+03 0.  1.
<mgrwt>
<rscale>  2 0.25742216E+03</rscale>
<asrwt>0</asrwt>
<pdfrwt beam="1">  1       21 0.90606300E-01 0.25742216E+03</pdfrwt>
<pdfrwt beam="2">  1       21 0.35302066E-01 0.25742216E+03</pdfrwt>
<totfact> 0.76719078E+03</totfact>
</mgrwt>
</event>
<event>
 4    1  0.4017302E+000  0.2030201E+03  0.7546771E-02  0.1147216E+00
         21   -1    0    0  501  502  0.00000000000E+00  0.00000000000E+00  0.28610328721E+02  0.28610328721E+02  0.00000000000E+00 0.  1.
         21   -1    0    0  502  503 -0.00000000000E+00 -0.00000000000E+00 -0.14908584810E+04  0.14908584810E+04  0.00000000000E+00 0.  1.
          6    1    1    2  501    0  0.89665777004E+02  0.56993224898E+02 -0.59168770127E+03  0.62554897097E+03  0.17300000000E+03 0.  1.
         -6    1    1    2    0  503 -0.89665777004E+02 -0.56993224898E+02 -0.87056045104E+03  0.89391983878E+03  0.17300000000E+03 0.  1.
<mgrwt>
<rscale>  2 0.20302014E+03</rscale>
<asrwt>0</asrwt>
<pdfrwt beam="1">  1       21 0.44015880E-02 0.20302014E+03</pdfrwt>
<pdfrwt beam="2">  1       21 0.22936290E+00 0.20302014E+03</pdfrwt>
<totfact> 0.29203811E+04</totfact>
</mgrwt>
</event>
<event>
 4    1  0.4017302E+000  0.2720188E+03  0.7546771E-02  0.1100130E+00
         21   -1    0    0  503  502  0.00000000000E+00  0.00000000000E+00  0.15582947625E+03  0.15582947625E+03  0.00000000000E+00 0.  1.
         21   -1    0    0  501  503 -0.00000000000E+00 -0.00000000000E+00 -0.48213207429E+03  0.48213207429E+03  0.00000000000E+00 0.  1.
          6    1    1    2  501    0 -0.17421690375E+03  0.11710548582E+03 -0.20237759071E+03  0.33904411746E+03  0.17300000000E+03 0.  1.
         -6    1    1    2    0  502  0.17421690375E+03 -0.11710548582E+03 -0.12392500733E+03  0.29891743309E+03  0.17300000000E+03 0.  1.
<mgrwt>
<rscale>  2 0.27201879E+03</rscale>
<asrwt>0</asrwt>
<pdfrwt beam="1">  1       21 0.23973766E-01 0.27201879E+03</pdfrwt>
<pdfrwt beam="2">  1       21 0.74174164E-01 0.27201879E+03</pdfrwt>
<totfact> 0.25695595E+04</totfact>
</mgrwt>
</event>
<event>
 4    1  0.4017302E+000  0.2067680E+03  0.7546771E-02  0.1144151E+00
         21   -1    0    0  501  502  0.00000000000E+00  0.00000000000E+00  0.86779092171E+02  0.86779092171E+02  0.00000000000E+00 0. -1.
         21   -1    0    0  502  503 -0.00000000000E+00 -0.00000000000E+00 -0.70772463386E+03  0.70772463386E+03  0.00000000000E+00 0. -1.
          6    1    1    2  501    0  0.84719530771E+02 -0.75143946750E+02 -0.91488283114E+02  0.22610421839E+03  0.17300000000E+03 0. -1.
         -6    1    1    2    0  503 -0.84719530771E+02  0.75143946750E+02 -0.52945725857E+03  0.56839950764E+03  0.17300000000E+03 0. -1.
<mgrwt>
<rscale>  2 0.20676801E+03</rscale>
<asrwt>0</asrwt>
<pdfrwt beam="1">  1       21 0.13350630E-01 0.20676801E+03</pdfrwt>
<pdfrwt beam="2">  1       21 0.10888071E+00 0.20676801E+03</pdfrwt>
<totfact> 0.32175609E+04</totfact>
</mgrwt>
</event>
<event>
 4    1  0.4017302E+000  0.1879555E+03  0.7546771E-02  0.1160318E+00
         21   -1    0    0  501  502  0.00000000000E+00  0.00000000000E+00  0.15769719397E+03  0.15769719397E+03  0.00000000000E+00 0.  1.
         21   -1    0    0  502  503 -0.00000000000E+00 -0.00000000000E+00 -0.26994279114E+03  0.26994279114E+03  0.00000000000E+00 0.  1.
          6    1    1    2  501    0 -0.64927569392E+02  0.34390241130E+02  0.32068960187E+02  0.19067169732E+03  0.17300000000E+03 0.  1.
         -6    1    1    2    0  503  0.64927569392E+02 -0.34390241130E+02 -0.14431455736E+03  0.23696828779E+03  0.17300000000E+03 0.  1.
<mgrwt>
<rscale>  2 0.18795552E+03</rscale>
<asrwt>0</asrwt>
<pdfrwt beam="1">  1       21 0.24261107E-01 0.18795552E+03</pdfrwt>
<pdfrwt beam="2">  1       21 0.41529660E-01 0.18795552E+03</pdfrwt>
<totfact> 0.89699115E+04</totfact>
</mgrwt>
</event>
<event>
 4    1  0.4017302E+000  0.2094076E+03  0.7546771E-02  0.1142036E+00
         21   -1    0    0  501  502  0.00000000000E+00  0.00000000000E+00  0.78425911308E+02  0.78425911308E+02  0.00000000000E+00 0. -1.
         21   -1    0    0  502  503 -0.00000000000E+00 -0.00000000000E+00 -0.59460823829E+03  0.59460823829E+03  0.00000000000E+00 0.  1.
          6    1    1    2  501    0  0.48706641052E+02  0.10747193914E+03 -0.17590983531E+03  0.27348825340E+03  0.17300000000E+03 0. -1.
         -6    1    1    2    0  503 -0.48706641052E+02 -0.10747193914E+03 -0.34027249167E+03  0.39954589621E+03  0.17300000000E+03 0.  1.
<mgrwt>
<rscale>  2 0.20940763E+03</rscale>
<asrwt>0</asrwt>
<pdfrwt beam="1">  1       21 0.12065525E-01 0.20940763E+03</pdfrwt>
<pdfrwt beam="2">  1       21 0.91478189E-01 0.20940763E+03</pdfrwt>
<totfact> 0.58314125E+04</totfact>
</mgrwt>
</event>
<event>
 4    1  0.4017302E+000  0.1817547E+03  0.7546771E-02  0.1166116E+00
         21   -1    0    0  501  502  0.00000000000E+00  0.00000000000E+00  0.51938362284E+02  0.51938362284E+02  0.00000000000E+00 0.  1.
         21   -1    0    0  502  503 -0.00000000000E+00 -0.00000000000E+00 -0.65095690343E+03  0.65095690343E+03  0.00000000000E+00 0.  1.
          6    1    1    2  501    0  0.49598140562E+02  0.25412583425E+02 -0.35271423414E+03  0.39678975026E+03  0.17300000000E+03 0. -1.
         -6    1    1    2    0  503 -0.49598140562E+02 -0.25412583425E+02 -0.24630430701E+03  0.30610551546E+03  0.17300000000E+03 0. -1.
<mgrwt>
<rscale>  2 0.18175471E+03</rscale>
<asrwt>0</asrwt>
<pdfrwt beam="1">  1       21 0.79905177E-02 0.18175471E+03</pdfrwt>
<pdfrwt beam="2">  1       21 0.10014721E+00 0.18175471E+03</pdfrwt>
<totfact> 0.98819757E+04</totfact>
</mgrwt>
</event>
<event>
 4    1  0.4017302E+000  0.2523742E+03  0.7546771E-02  0.1111814E+00
         21   -1    0    0  503  502  0.00000000000E+00  0.00000000000E+00  0.28021500535E+04  0.28021500535E+04  0.00000000000E+00 0.  1.
         21   -1    0    0  501  503 -0.00000000000E+00 -0.00000000000E+00 -0.31298783953E+02  0.31298783953E+02  0.00000000000E+00 0. -1.
          6    1    1    2  501    0 -0.81002804064E+02  0.16493116791E+03  0.64414545866E+03  0.69182087011E+03  0.17300000000E+03 0.  1.
         -6    1    1    2    0  502  0.81002804064E+02 -0.16493116791E+03  0.21267058109E+04  0.21416279673E+04  0.17300000000E+03 0.  1.
<mgrwt>
<rscale>  2 0.25237422E+03</rscale>
<asrwt>0</asrwt>
<pdfrwt beam="1">  1       21 0.43109981E+00 0.25237422E+03</pdfrwt>
<pdfrwt beam="2">  1       21 0.48151997E-02 0.25237422E+03</pdfrwt>
<totfact> 0.14648212E+03</totfact>
</mgrwt>
</event>
<event>
 4    1  0.4017302E+000  0.2145683E+03  0.7546771E-02  0.1137999E+00
         21   -1    0    0  503  502  0.00000000000E+00  0.00000000000E+00  0.53500072113E+03  0.53500072113E+03  0.00000000000E+00 0.  1.
         21   -1    0    0  501  503 -0.00000000000E+00 -0.00000000000E+00 -0.97661167706E+02  0.97661167706E+02  0.00000000000E+00 0.  1.
          6    1    1    2  501    0  0.10935244695E+03 -0.64440548406E+02  0.10962039104E+03  0.24094848426E+03  0.17300000000E+03 0.  1.
         -6    1    1    2    0  502 -0.10935244695E+03  0.64440548406E+02  0.32771916238E+03  0.39171340457E+03  0.17300000000E+03 0.  1.
<mgrwt>
<rscale>  2 0.21456827E+03</rscale>
<asrwt>0</asrwt>
<pdfrwt beam="1">  1       21 0.82307802E-01 0.21456827E+03</pdfrwt>
<pdfrwt beam="2">  1       21 0.15024795E-01 0.21456827E+03</pdfrwt>
<totfact> 0.49892141E+04</totfact>
</mgrwt>
</event>
<event>
 4    1  0.4017302E+000  0.1923680E+03  0.7546771E-02  0.1156343E+00
         21   -1    0    0  503  502  0.00000000000E+00  0.00000000000E+00  0.98203214493E+02  0.98203214493E+02  0.00000000000E+00 0.  1.
         21   -1    0    0  501  503 -0.00000000000E+00 -0.00000000000E+00 -0.43586715235E+03  0.43586715235E+03  0.00000000000E+00 0. -1.
          6    1    1    2  501    0 -0.84042745175E+02  0.36402295796E+01 -0.26711356637E+03  0.32917334586E+03  0.17300000000E+03 0. -1.
         -6    1    1    2    0  502  0.84042745175E+02 -0.36402295796E+01 -0.70550371481E+02  0.20489702097E+03  0.17300000000E+03 0.  1.
<mgrwt>
<rscale>  2 0.19236797E+03</rscale>
<asrwt>0</asrwt>
<pdfrwt beam="1">  1       21 0.15108187E-01 0.19236797E+03</pdfrwt>
<pdfrwt beam="2">  1       21 0.67056484E-01 0.19236797E+03</pdfrwt>
<totfact> 0.78854332E+04</totfact>
</mgrwt>
</event>
<event>
 4    1  0.4017302E+000  0.1957483E+03  0.7546771E-02  0.1153377E+00
         21   -1    0    0  501  502  0.00000000000E+00  0.00000000000E+00  0.22075743759E+02  0.22075743759E+02  0.00000000000E+00 0. -1.
         21   -1    0    0  502  503 -0.00000000000E+00 -0.00000000000E+00 -0.25382406425E+04  0.25382406425E+04  0.00000000000E+00 0. -1.
          6    1    1    2  501    0  0.24615328304E+02  0.88218299627E+02 -0.53826154191E+03  0.57275026868E+03  0.17300000000E+03 0. -1.
         -6    1    1    2    0  503 -0.24615328304E+02 -0.88218299627E+02 -0.19779033568E+04  0.19875661176E+04  0.17300000000E+03 0. -1.
<mgrwt>
<rscale>  2 0.19574826E+03</rscale>
<asrwt>0</asrwt>
<pdfrwt beam="1">  1       21 0.33962702E-02 0.19574826E+03</pdfrwt>
<pdfrwt beam="2">  1       21 0.39049833E+00 0.19574826E+03</pdfrwt>
<totfact> 0.51156266E+03</totfact>
</mgrwt>
</event>
<event>
 4    1  0.4017302E+000  0.1892675E+03  0.7546771E-02  0.1159124E+00
         21   -1    0    0  501  502  0.00000000000E+00  0.00000000000E+00  0.37315856881E+03  0.37315856881E+03  0.00000000000E+00 0.  1.
         21   -1    0    0  502  503 -0.00000000000E+00 -0.00000000000E+00 -0.96953510566E+02  0.96953510566E+02  0.00000000000E+00 0.  1.
          6    1    1    2  501    0  0.46119498637E+02 -0.61369097564E+02  0.11475767122E+03  0.22134022995E+03  0.17300000000E+03 0.  1.
         -6    1    1    2    0  503 -0.46119498637E+02  0.61369097564E+02  0.16144738703E+03  0.24877184943E+03  0.17300000000E+03 0.  1.
<mgrwt>
<rscale>  2 0.18926747E+03</rscale>
<asrwt>0</asrwt>
<pdfrwt beam="1">  1       21 0.57409010E-01 0.18926747E+03</pdfrwt>
<pdfrwt beam="2">  1       21 0.14915925E-01 0.18926747E+03</pdfrwt>
<totfact> 0.11300697E+05</totfact>
</mgrwt>
</event>
<event>
 4    1  0.4017302E+000  0.3962269E+03  0.7546771E-02  0.1045094E+00
         21   -1    0    0  501  502  0.00000000000E+00  0.00000000000E+00  0.29087472104E+03  0.29087472104E+03  0.00000000000E+00 0.  1.
         21   -1    0    0  502  503 -0.00000000000E+00 -0.00000000000E+00 -0.61325231503E+03  0.61325231503E+03  0.00000000000E+00 0. -1.
          6    1    1    2  501    0 -0.15715026398E+03 -0.31995399537E+03 -0.46688710966E+01  0.39625441698E+03  0.17300000000E+03 0.  1.
         -6    1    1    2    0  503  0.15715026398E+03  0.31995399537E+03 -0.31770872289E+03  0.50787261909E+03  0.17300000000E+03 0. -1.
<mgrwt>
<rscale>  2 0.39622691E+03</rscale>
<asrwt>0</asrwt>
<pdfrwt beam="1">  1       21 0.44749957E-01 0.39622691E+03</pdfrwt>
<pdfrwt beam="2">  1       21 0.94346510E-01 0.39622691E+03</pdfrwt>
<totfact> 0.40252700E+03</totfact>
</mgrwt>
</event>
<event>
 4    1  0.4017302E+000  0.3141334E+03  0.7546771E-02  0.1078381E+00
         21   -1    0    0  503  502  0.00000000000E+00  0.00000000000E+00  0.65899950799E+03  0.65899950799E+03  0.00000000000E+00 0.  1.
         21   -1    0    0  501  503 -0.00000000000E+00 -0.00000000000E+00 -0.15206549858E+03  0.15206549858E+03  0.00000000000E+00 0. -1.
          6    1    1    2  501    0  0.25932880733E+03  0.38721786023E+02  0.20333727911E+03  0.37420028875E+03  0.17300000000E+03 0. -1.
         -6    1    1    2    0  502 -0.25932880733E+03 -0.38721786023E+02  0.30359673030E+03  0.43686471782E+03  0.17300000000E+03 0.  1.
<mgrwt>
<rscale>  2 0.31413342E+03</rscale>
<asrwt>0</asrwt>
<pdfrwt beam="1">  1       21 0.10138454E+00 0.31413342E+03</pdfrwt>
<pdfrwt beam="2">  1       21 0.23394692E-01 0.31413342E+03</pdfrwt>
<totfact> 0.12788907E+04</totfact>
</mgrwt>
</event>
<event>
 4    1  0.4017302E+000  0.2022638E+03  0.7546771E-02  0.1147843E+00
         21   -1    0    0  503  502  0.00000000000E+00  0.00000000000E+00  0.15834129701E+03  0.15834129701E+03  0.00000000000E+00 0. -1.
         21   -1    0    0  501  503 -0.00000000000E+00 -0.00000000000E+00 -0.55378543270E+03  0.55378543270E+03  0.00000000000E+00 0. -1.
          6    1    1    2  501    0 -0.10449283798E+03 -0.79311335240E+01 -0.45778176189E+03  0.50047457237E+03  0.17300000000E+03 0. -1.
         -6    1    1    2    0  502  0.10449283798E+03  0.79311335240E+01  0.62337626194E+02  0.21165215734E+03  0.17300000000E+03 0. -1.
<mgrwt>
<rscale>  2 0.20226383E+03</rscale>
<asrwt>0</asrwt>
<pdfrwt beam="1">  1       21 0.24360200E-01 0.20226383E+03</pdfrwt>
<pdfrwt beam="2">  1       21 0.85197758E-01 0.20226383E+03</pdfrwt>
<totfact> 0.18855562E+04</totfact>
</mgrwt>
</event>
<event>
 4    1  0.4017302E+000  0.1900442E+03  0.7546771E-02  0.1158421E+00
         21   -1    0    0  501  502  0.00000000000E+00  0.00000000000E+00  0.39884475382E+02  0.39884475382E+02  0.00000000000E+00 0.  1.
         21   -1    0    0  502  503 -0.00000000000E+00 -0.00000000000E+00 -0.93245609294E+03  0.93245609294E+03  0.00000000000E+00 0. -1.
          6    1    1    2  501    0 -0.11004871207E+02  0.77888972694E+02 -0.36367852057E+03  0.41033993905E+03  0.17300000000E+03 0. -1.
         -6    1    1    2    0  503  0.11004871207E+02 -0.77888972694E+02 -0.52889309699E+03  0.56200062927E+03  0.17300000000E+03 0. -1.
<mgrwt>
<rscale>  2 0.19004420E+03</rscale>
<asrwt>0</asrwt>
<pdfrwt beam="1">  1       21 0.61360736E-02 0.19004420E+03</pdfrwt>
<pdfrwt beam="2">  1       21 0.14345477E+00 0.19004420E+03</pdfrwt>
<totfact> 0.63826186E+04</totfact>
</mgrwt>
</event>
<event>
 4    1  0.4017302E+000  0.1807224E+03  0.7546771E-02  0.1167106E+00
         21   -1    0    0  503  502  0.00000000000E+00  0.00000000000E+00  0.40852343627E+03  0.40852343627E+03  0.00000000000E+00 0.  1.
         21   -1    0    0  501  503 -0.00000000000E+00 -0.00000000000E+00 -0.85235124305E+02  0.85235124305E+02  0.00000000000E+00 0.  1.
          6    1    1    2  501    0  0.15748694191E+02 -0.49835481080E+02  0.10015640100E+03  0.20662018586E+03  0.17300000000E+03 0. -1.
         -6    1    1    2    0  502 -0.15748694191E+02  0.49835481080E+02  0.22313191097E+03  0.28713837472E+03  0.17300000000E+03 0. -1.
<mgrwt>
<rscale>  2 0.18072243E+03</rscale>
<asrwt>0</asrwt>
<pdfrwt beam="1">  1       21 0.62849758E-01 0.18072243E+03</pdfrwt>
<pdfrwt beam="2">  1       21 0.13113096E-01 0.18072243E+03</pdfrwt>
<totfact> 0.11783955E+05</totfact>
</mgrwt>
</event>
<event>
 4    1  0.4017302E+000  0.3037771E+03  0.7546771E-02  0.1083368E+00
         21   -1    0    0  501  502  0.00000000000E+00  0.00000000000E+00  0.17675031634E+03  0.17675031634E+03  0.00000000000E+00 0.  1.
         21   -1    0    0  502  503 -0.00000000000E+00 -0.00000000000E+00 -0.10756228228E+04  0.10756228228E+04  0.00000000000E+00 0. -1.
          6    1    1    2  501    0  0.23225266028E+03 -0.91707389060E+02 -0.23260069566E+00  0.30377721692E+03  0.17300000000E+03 0.  1.
         -6    1    1    2    0  503 -0.23225266028E+03  0.91707389060E+02 -0.89863990578E+03  0.94859592223E+03  0.17300000000E+03 0. -1.
<mgrwt>
<rscale>  2 0.30377713E+03</rscale>
<asrwt>0</asrwt>
<pdfrwt beam="1">  1       21 0.27192356E-01 0.30377713E+03</pdfrwt>
<pdfrwt beam="2">  1       21 0.16548044E+00 0.30377713E+03</pdfrwt>
<totfact> 0.27239561E+03</totfact>
</mgrwt>
</event>
<event>
 4    1  0.4017302E+000  0.2437136E+03  0.7546771E-02  0.1117343E+00
         21   -1    0    0  501  502  0.00000000000E+00  0.00000000000E+00  0.40713279429E+03  0.40713279429E+03  0.00000000000E+00 0.  1.
         21   -1    0    0  502  503 -0.00000000000E+00 -0.00000000000E+00 -0.31703787730E+03  0.31703787730E+03  0.00000000000E+00 0.  1.
          6    1    1    2  501    0 -0.10184828842E+03  0.13818200522E+03  0.31108439534E+03  0.39518330107E+03  0.17300000000E+03 0.  1.
         -6    1    1    2    0  503  0.10184828842E+03 -0.13818200522E+03 -0.22098947835E+03  0.32898737052E+03  0.17300000000E+03 0.  1.
<mgrwt>
<rscale>  2 0.24371364E+03</rscale>
<asrwt>0</asrwt>
<pdfrwt beam="1">  1       21 0.62635814E-01 0.24371364E+03</pdfrwt>
<pdfrwt beam="2">  1       21 0.48775058E-01 0.24371364E+03</pdfrwt>
<totfact> 0.91711266E+03</totfact>
</mgrwt>
</event>
<event>
 4    1  0.4017302E+000  0.1811262E+03  0.7546771E-02  0.1166718E+00
         21   -1    0    0  503  502  0.00000000000E+00  0.00000000000E+00  0.35918208125E+03  0.35918208125E+03  0.00000000000E+00 0. -1.
         21   -1    0    0  501  503 -0.00000000000E+00 -0.00000000000E+00 -0.93961026993E+02  0.93961026993E+02  0.00000000000E+00 0. -1.
          6    1    1    2  501    0  0.17862951162E+01 -0.53614569236E+02  0.94749463087E+02  0.20441177471E+03  0.17300000000E+03 0.  1.
         -6    1    1    2    0  502 -0.17862951162E+01  0.53614569236E+02  0.17047159117E+03  0.24873133353E+03  0.17300000000E+03 0.  1.
<mgrwt>
<rscale>  2 0.18112623E+03</rscale>
<asrwt>0</asrwt>
<pdfrwt beam="1">  1       21 0.55258781E-01 0.18112623E+03</pdfrwt>
<pdfrwt beam="2">  1       21 0.14455543E-01 0.18112623E+03</pdfrwt>
<totfact> 0.13009213E+05</totfact>
</mgrwt>
</event>
<event>
 4    1  0.4017302E+000  0.1752309E+03  0.7546771E-02  0.1172500E+00
         21   -1    0    0  503  502  0.00000000000E+00  0.00000000000E+00  0.33783038611E+03  0.33783038611E+03  0.00000000000E+00 0. -1.
         21   -1    0    0  501  503 -0.00000000000E+00 -0.00000000000E+00 -0.23837904451E+03  0.23837904451E+03  0.00000000000E+00 0. -1.
          6    1    1    2  501    0 -0.27868408816E+02  0.45717062089E+00 -0.17689224130E+03  0.24899140999E+03  0.17300000000E+03 0. -1.
         -6    1    1    2    0  502  0.27868408816E+02 -0.45717062089E+00  0.27634358291E+03  0.32721802064E+03  0.17300000000E+03 0. -1.
<mgrwt>
<rscale>  2 0.17523087E+03</rscale>
<asrwt>0</asrwt>
<pdfrwt beam="1">  1       21 0.51973905E-01 0.17523087E+03</pdfrwt>
<pdfrwt beam="2">  1       21 0.36673699E-01 0.17523087E+03</pdfrwt>
<totfact> 0.25449234E+04</totfact>
</mgrwt>
</event>
<event>
 4    1  0.4017302E+000  0.1757888E+03  0.7546771E-02  0.1171942E+00
         21   -1    0    0  503  502  0.00000000000E+00  0.00000000000E+00  0.72643568455E+03  0.72643568455E+03  0.00000000000E+00 0. -1.
         21   -1    0    0  501  503 -0.00000000000E+00 -0.00000000000E+00 -0.14610535556E+03  0.14610535556E+03  0.00000000000E+00 0. -1.
          6    1    1    2  501    0  0.25039302157E+02  0.18593534988E+02 -0.77144717477E+02  0.19197133544E+03  0.17300000000E+03 0. -1.
         -6    1    1    2    0  502 -0.25039302157E+02 -0.18593534988E+02  0.65747504647E+03  0.68056970468E+03  0.17300000000E+03 0. -1.
<mgrwt>
<rscale>  2 0.17578875E+03</rscale>
<asrwt>0</asrwt>
<pdfrwt beam="1">  1       21 0.11175933E+00 0.17578875E+03</pdfrwt>
<pdfrwt beam="2">  1       21 0.22477747E-01 0.17578875E+03</pdfrwt>
<totfact> 0.11789127E+04</totfact>
</mgrwt>
</event>
<event>
 4    1  0.4017302E+000  0.4931035E+03  0.7546771E-02  0.1015595E+00
         21   -1    0    0  501  502  0.00000000000E+00  0.00000000000E+00  0.79091894740E+03  0.79091894740E+03  0.00000000000E+00 0.  1.
         21   -1    0    0  502  503 -0.00000000000E+00 -0.00000000000E+00 -0.33693071719E+03  0.33693071719E+03  0.00000000000E+00 0. -1.
          6    1    1    2  501    0  0.14952110244E+03 -0.43688154854E+03  0.39386402828E+03  0.63109422458E+03  0.17300000000E+03 0.  1.
         -6    1    1    2    0  503 -0.14952110244E+03  0.43688154854E+03  0.60124201924E+02  0.49675544001E+03  0.17300000000E+03 0. -1.
<mgrwt>
<rscale>  2 0.49310349E+03</rscale>
<asrwt>0</asrwt>
<pdfrwt beam="1">  1       21 0.12167984E+00 0.49310349E+03</pdfrwt>
<pdfrwt beam="2">  1       21 0.51835495E-01 0.49310349E+03</pdfrwt>
<totfact> 0.15180764E+03</totfact>
</mgrwt>
</event>
<event>
 4    1  0.4017302E+000  0.1983896E+03  0.7546771E-02  0.1151105E+00
         21   -1    0    0  501  502  0.00000000000E+00  0.00000000000E+00  0.73001193861E+03  0.73001193861E+03  0.00000000000E+00 0. -1.
         21   -1    0    0  502  503 -0.00000000000E+00 -0.00000000000E+00 -0.54153876396E+02  0.54153876396E+02  0.00000000000E+00 0.  1.
          6    1    1    2  501    0 -0.97105193630E+02  0.15214683032E+00  0.31187716651E+03  0.36962928559E+03  0.17300000000E+03 0.  1.
         -6    1    1    2    0  503  0.97105193630E+02 -0.15214683032E+00  0.36398089570E+03  0.41453652941E+03  0.17300000000E+03 0.  1.
<mgrwt>
<rscale>  2 0.19838962E+03</rscale>
<asrwt>0</asrwt>
<pdfrwt beam="1">  1       21 0.11230952E+00 0.19838962E+03</pdfrwt>
<pdfrwt beam="2">  1       21 0.83313661E-02 0.19838962E+03</pdfrwt>
<totfact> 0.69241092E+04</totfact>
</mgrwt>
</event>
<event>
 4    1  0.4017302E+000  0.2246957E+03  0.7546771E-02  0.1130430E+00
         21   -1    0    0  501  502  0.00000000000E+00  0.00000000000E+00  0.72322828076E+03  0.72322828076E+03  0.00000000000E+00 0. -1.
         21   -1    0    0  502  503 -0.00000000000E+00 -0.00000000000E+00 -0.78982206067E+02  0.78982206067E+02  0.00000000000E+00 0. -1.
          6    1    1    2  501    0 -0.42404602288E+01 -0.14332196789E+03  0.45881521068E+03  0.51088116577E+03  0.17300000000E+03 0. -1.
         -6    1    1    2    0  503  0.42404602288E+01  0.14332196789E+03  0.18543086401E+03  0.29132932106E+03  0.17300000000E+03 0. -1.
<mgrwt>
<rscale>  2 0.22469572E+03</rscale>
<asrwt>0</asrwt>
<pdfrwt beam="1">  1       21 0.11126589E+00 0.22469572E+03</pdfrwt>
<pdfrwt beam="2">  1       21 0.12151109E-01 0.22469572E+03</pdfrwt>
<totfact> 0.35826575E+04</totfact>
</mgrwt>
</event>
<event>
 4    1  0.4017302E+000  0.2172999E+03  0.7546771E-02  0.1135912E+00
         21   -1    0    0  501  502  0.00000000000E+00  0.00000000000E+00  0.11935953714E+03  0.11935953714E+03  0.00000000000E+00 0.  1.
         21   -1    0    0  502  503 -0.00000000000E+00 -0.00000000000E+00 -0.48942008299E+03  0.48942008299E+03  0.00000000000E+00 0. -1.
          6    1    1    2  501    0 -0.11908972511E+03  0.55748583148E+02 -0.51762597149E+02  0.22338002062E+03  0.17300000000E+03 0.  1.
         -6    1    1    2    0  503  0.11908972511E+03 -0.55748583148E+02 -0.31829794870E+03  0.38539959950E+03  0.17300000000E+03 0. -1.
<mgrwt>
<rscale>  2 0.21729995E+03</rscale>
<asrwt>0</asrwt>
<pdfrwt beam="1">  1       21 0.18363006E-01 0.21729995E+03</pdfrwt>
<pdfrwt beam="2">  1       21 0.75295397E-01 0.21729995E+03</pdfrwt>
<totfact> 0.42115194E+04</totfact>
</mgrwt>
</event>
<event>
 4    1  0.4017302E+000  0.1903737E+03  0.7546771E-02  0.1158125E+00
         21   -1    0    0  503  502  0.00000000000E+00  0.00000000000E+00  0.13262927606E+03  0.13262927606E+03  0.00000000000E+00 0. -1.
         21   -1    0    0  501  503 -0.00000000000E+00 -0.00000000000E+00 -0.53014669587E+03  0.53014669587E+03  0.00000000000E+00 0. -1.
          6    1    1    2  501    0 -0.79289640479E+02  0.51266879554E+01 -0.42943898824E+03  0.46974458446E+03  0.17300000000E+03 0. -1.
         -6    1    1    2    0  502  0.79289640479E+02 -0.51266879554E+01  0.31921568431E+02  0.19303138747E+03  0.17300000000E+03 0. -1.
<mgrwt>
<rscale>  2 0.19037366E+03</rscale>
<asrwt>0</asrwt>
<pdfrwt beam="1">  1       21 0.20404504E-01 0.19037366E+03</pdfrwt>
<pdfrwt beam="2">  1       21 0.81561030E-01 0.19037366E+03</pdfrwt>
<totfact> 0.29309112E+04</totfact>
</mgrwt>
</event>
<event>
 4    1  0.4017302E+000  0.2754981E+03  0.7546771E-02  0.1098173E+00
         21   -1    0    0  501  502  0.00000000000E+00  0.00000000000E+00  0.20303050506E+03  0.20303050506E+03  0.00000000000E+00 0. -1.
         21   -1    0    0  502  503 -0.00000000000E+00 -0.00000000000E+00 -0.93558209285E+03  0.93558209285E+03  0.00000000000E+00 0. -1.
          6    1    1    2  501    0  0.17407416259E+03  0.12517348377E+03  0.74864548776E+02  0.28548890659E+03  0.17300000000E+03 0. -1.
         -6    1    1    2    0  503 -0.17407416259E+03 -0.12517348377E+03 -0.80741613656E+03  0.85312369133E+03  0.17300000000E+03 0. -1.
<mgrwt>
<rscale>  2 0.27549812E+03</rscale>
<asrwt>0</asrwt>
<pdfrwt beam="1">  1       21 0.31235462E-01 0.27549812E+03</pdfrwt>
<pdfrwt beam="2">  1       21 0.14393571E+00 0.27549812E+03</pdfrwt>
<totfact> 0.30792903E+03</totfact>
</mgrwt>
</event>
<event>
 4    1  0.4017302E+000  0.2749145E+03  0.7546771E-02  0.1098499E+00
         21   -1    0    0  503  502  0.00000000000E+00  0.00000000000E+00  0.12394760776E+03  0.12394760776E+03  0.00000000000E+00 0.  1.
         21   -1    0    0  501  503 -0.00000000000E+00 -0.00000000000E+00 -0.78577959385E+03  0.78577959385E+03  0.00000000000E+00 0. -1.
          6    1    1    2  501    0 -0.17688699022E+03  0.11983313510E+03 -0.54620128587E+03  0.61148494034E+03  0.17300000000E+03 0. -1.
         -6    1    1    2    0  502  0.17688699022E+03 -0.11983313510E+03 -0.11563070023E+03  0.29824226128E+03  0.17300000000E+03 0.  1.
<mgrwt>
<rscale>  2 0.27491451E+03</rscale>
<asrwt>0</asrwt>
<pdfrwt beam="1">  1       21 0.19068863E-01 0.27491451E+03</pdfrwt>
<pdfrwt beam="2">  1       21 0.12088917E+00 0.27491451E+03</pdfrwt>
<totfact> 0.12452837E+04</totfact>
</mgrwt>
</event>
<event>
 4    1  0.4017302E+000  0.1884894E+03  0.7546771E-02  0.1159831E+00
         21   -1    0    0  503  502  0.00000000000E+00  0.00000000000E+00  0.83608365645E+03  0.83608365645E+03  0.00000000000E+00 0. -1.
         21   -1    0    0  501  503 -0.00000000000E+00 -0.00000000000E+00 -0.11622543877E+03  0.11622543877E+03  0.00000000000E+00 0. -1.
          6    1    1    2  501    0 -0.73571601665E+02 -0.13654991020E+02 -0.19320157039E+02  0.18947693216E+03  0.17300000000E+03 0. -1.
         -6    1    1    2    0  502  0.73571601665E+02  0.13654991020E+02  0.73917837472E+03  0.76283216307E+03  0.17300000000E+03 0. -1.
<mgrwt>
<rscale>  2 0.18848936E+03</rscale>
<asrwt>0</asrwt>
<pdfrwt beam="1">  1       21 0.12862825E+00 0.18848936E+03</pdfrwt>
<pdfrwt beam="2">  1       21 0.17880837E-01 0.18848936E+03</pdfrwt>
<totfact> 0.12655541E+04</totfact>
</mgrwt>
</event>
<event>
 4    1  0.4017302E+000  0.2719524E+03  0.7546771E-02  0.1100167E+00
         21   -1    0    0  503  502  0.00000000000E+00  0.00000000000E+00  0.14330646928E+04  0.14330646928E+04  0.00000000000E+00 0. -1.
         21   -1    0    0  501  503 -0.00000000000E+00 -0.00000000000E+00 -0.16591447515E+03  0.16591447515E+03  0.00000000000E+00 0.  1.
          6    1    1    2  501    0 -0.20611216407E+03 -0.39330376797E+02 -0.30023435486E+02  0.27360465894E+03  0.17300000000E+03 0.  1.
         -6    1    1    2    0  502  0.20611216407E+03  0.39330376797E+02  0.12971736531E+04  0.13253745090E+04  0.17300000000E+03 0. -1.
<mgrwt>
<rscale>  2 0.27195239E+03</rscale>
<asrwt>0</asrwt>
<pdfrwt beam="1">  1       21 0.22047148E+00 0.27195239E+03</pdfrwt>
<pdfrwt beam="2">  1       21 0.25525305E-01 0.27195239E+03</pdfrwt>
<totfact> 0.13483354E+03</totfact>
</mgrwt>
</event>
<event>
 4    1  0.4017302E+000  0.2480636E+03  0.7546771E-02  0.1114535E+00
         21   -1    0    0  503  502  0.00000000000E+00  0.00000000000E+00  0.27716204857E+03  0.27716204857E+03  0.00000000000E+00 0.  1.
         21   -1    0    0  501  503 -0.00000000000E+00 -0.00000000000E+00 -0.25183215097E+03  0.25183215097E+03  0.00000000000E+00 0.  1.
          6    1    1    2  501    0  0.83552697586E+02  0.15692515469E+03 -0.78339148619E+02  0.26013953881E+03  0.17300000000E+03 0. -1.
         -6    1    1    2    0  502 -0.83552697586E+02 -0.15692515469E+03  0.10366904622E+03  0.26885466072E+03  0.17300000000E+03 0. -1.
<mgrwt>
<rscale>  2 0.24806362E+03</rscale>
<asrwt>0</asrwt>
<pdfrwt beam="1">  1       21 0.42640315E-01 0.24806362E+03</pdfrwt>
<pdfrwt beam="2">  1       21 0.38743408E-01 0.24806362E+03</pdfrwt>
<totfact> 0.33074057E+04</totfact>
</mgrwt>
</event>
<event>
 4    1  0.4017302E+000  0.1811688E+03  0.7546771E-02  0.1166677E+00
         21   -1    0    0  501  502  0.00000000000E+00  0.00000000000E+00  0.96891554878E+02  0.96891554878E+02  0.00000000000E+00 0. -1.
         21   -1    0    0  502  503 -0.00000000000E+00 -0.00000000000E+00 -0.36447529230E+03  0.36447529230E+03  0.00000000000E+00 0. -1.
          6    1    1    2  501    0  0.34167833106E+02 -0.41541309513E+02 -0.72507011453E+02  0.19513940639E+03  0.17300000000E+03 0. -1.
         -6    1    1    2    0  503 -0.34167833106E+02  0.41541309513E+02 -0.19507672597E+03  0.26622744079E+03  0.17300000000E+03 0. -1.
<mgrwt>
<rscale>  2 0.18116876E+03</rscale>
<asrwt>0</asrwt>
<pdfrwt beam="1">  1       21 0.14906393E-01 0.18116876E+03</pdfrwt>
<pdfrwt beam="2">  1       21 0.56073122E-01 0.18116876E+03</pdfrwt>
<totfact> 0.11928624E+05</totfact>
</mgrwt>
</event>
<event>
 4    1  0.4017302E+000  0.1735594E+03  0.7546771E-02  0.1174186E+00
         21   -1    0    0  503  502  0.00000000000E+00  0.00000000000E+00  0.40270431933E+02  0.40270431933E+02  0.00000000000E+00 0.  1.
         21   -1    0    0  501  503 -0.00000000000E+00 -0.00000000000E+00 -0.99819101108E+03  0.99819101108E+03  0.00000000000E+00 0.  1.
          6    1    1    2  501    0 -0.47386703455E+01  0.13092764091E+02 -0.73890239770E+03  0.75901227184E+03  0.17300000000E+03 0.  1.
         -6    1    1    2    0  502  0.47386703455E+01 -0.13092764091E+02 -0.21901818145E+03  0.27944917118E+03  0.17300000000E+03 0.  1.
<mgrwt>
<rscale>  2 0.17355943E+03</rscale>
<asrwt>0</asrwt>
<pdfrwt beam="1">  1       21 0.61954512E-02 0.17355943E+03</pdfrwt>
<pdfrwt beam="2">  1       21 0.15356784E+00 0.17355943E+03</pdfrwt>
<totfact> 0.53001498E+04</totfact>
</mgrwt>
</event>
<event>
 4    1  0.4017302E+000  0.1762937E+03  0.7546771E-02  0.1171439E+00
         21   -1    0    0  501  502  0.00000000000E+00  0.00000000000E+00  0.98680024628E+03  0.98680024628E+03  0.00000000000E+00 0.  1.
         21   -1    0    0  502  503 -0.00000000000E+00 -0.00000000000E+00 -0.73350543552E+02  0.73350543552E+02  0.00000000000E+00 0.  1.
          6    1    1    2  501    0 -0.32528354924E+02  0.96120481216E+01  0.85714079159E+03  0.87508275149E+03  0.17300000000E+03 0.  1.
         -6    1    1    2    0  503  0.32528354924E+02 -0.96120481216E+01  0.56308911138E+02  0.18506803834E+03  0.17300000000E+03 0.  1.
<mgrwt>
<rscale>  2 0.17629375E+03</rscale>
<asrwt>0</asrwt>
<pdfrwt beam="1">  1       21 0.15181541E+00 0.17629375E+03</pdfrwt>
<pdfrwt beam="2">  1       21 0.11284700E-01 0.17629375E+03</pdfrwt>
<totfact> 0.19178755E+04</totfact>
</mgrwt>
</event>
<event>
 4    1  0.4017302E+000  0.2370129E+03  0.7546771E-02  0.1121799E+00
         21   -1    0    0  501  502  0.00000000000E+00  0.00000000000E+00  0.27148277718E+03  0.27148277718E+03  0.00000000000E+00 0. -1.
         21   -1    0    0  502  503 -0.00000000000E+00 -0.00000000000E+00 -0.25136325428E+03  0.25136325428E+03  0.00000000000E+00 0. -1.
          6    1    1    2  501    0  0.98812636998E+01  0.16170484326E+03  0.11998515284E+03  0.26565303049E+03  0.17300000000E+03 0. -1.
         -6    1    1    2    0  503 -0.98812636998E+01 -0.16170484326E+03 -0.99865629932E+02  0.25719300097E+03  0.17300000000E+03 0. -1.
<mgrwt>
<rscale>  2 0.23701286E+03</rscale>
<asrwt>0</asrwt>
<pdfrwt beam="1">  1       21 0.41766581E-01 0.23701286E+03</pdfrwt>
<pdfrwt beam="2">  1       21 0.38671270E-01 0.23701286E+03</pdfrwt>
<totfact> 0.34805676E+04</totfact>
</mgrwt>
</event>
<event>
 4    1  0.4017302E+000  0.1795937E+03  0.7546771E-02  0.1168197E+00
         21   -1    0    0  501  502  0.00000000000E+00  0.00000000000E+00  0.38977052907E+03  0.38977052907E+03  0.00000000000E+00 0.  1.
         21   -1    0    0  502  503 -0.00000000000E+00 -0.00000000000E+00 -0.99936798741E+02  0.99936798741E+02  0.00000000000E+00 0.  1.
          6    1    1    2  501    0 -0.15943579457E+02 -0.45505085888E+02  0.24645482721E+03  0.30494899971E+03  0.17300000000E+03 0.  1.
         -6    1    1    2    0  503  0.15943579457E+02  0.45505085888E+02  0.43378903118E+02  0.18475832810E+03  0.17300000000E+03 0.  1.
<mgrwt>
<rscale>  2 0.17959374E+03</rscale>
<asrwt>0</asrwt>
<pdfrwt beam="1">  1       21 0.59964696E-01 0.17959374E+03</pdfrwt>
<pdfrwt beam="2">  1       21 0.15374892E-01 0.17959374E+03</pdfrwt>
<totfact> 0.97790741E+04</totfact>
</mgrwt>
</event>
<event>
 4    1  0.4017302E+000  0.1969855E+03  0.7546771E-02  0.1152308E+00
         21   -1    0    0  501  502  0.00000000000E+00  0.00000000000E+00  0.16700052126E+04  0.16700052126E+04  0.00000000000E+00 0.  1.
         21   -1    0    0  502  503 -0.00000000000E+00 -0.00000000000E+00 -0.10615174538E+03  0.10615174538E+03  0.00000000000E+00 0.  1.
          6    1    1    2  501    0  0.42891028829E+02 -0.83872872822E+02  0.15668148577E+04  0.15791491688E+04  0.17300000000E+03 0.  1.
         -6    1    1    2    0  503 -0.42891028829E+02  0.83872872822E+02 -0.29613904746E+01  0.19700778914E+03  0.17300000000E+03 0.  1.
<mgrwt>
<rscale>  2 0.19698553E+03</rscale>
<asrwt>0</asrwt>
<pdfrwt beam="1">  1       21 0.25692386E+00 0.19698553E+03</pdfrwt>
<pdfrwt beam="2">  1       21 0.16331039E-01 0.19698553E+03</pdfrwt>
<totfact> 0.20237140E+03</totfact>
</mgrwt>
</event>
<event>
 4    1  0.4017302E+000  0.2385712E+03  0.7546771E-02  0.1120748E+00
         21   -1    0    0  503  502  0.00000000000E+00  0.00000000000E+00  0.25753051599E+03  0.25753051599E+03  0.00000000000E+00 0.  1.
         21   -1    0    0  501  503 -0.00000000000E+00 -0.00000000000E+00 -0.25019054794E+03  0.25019054794E+03  0.00000000000E+00 0.  1.
          6    1    1    2  501    0  0.14828745945E+03  0.70696839307E+02 -0.83030986127E+02  0.25260712257E+03  0.17300000000E+03 0.  1.
         -6    1    1    2    0  502 -0.14828745945E+03 -0.70696839307E+02  0.90370954170E+02  0.25511394136E+03  0.17300000000E+03 0.  1.
<mgrwt>
<rscale>  2 0.23857119E+03</rscale>
<asrwt>0</asrwt>
<pdfrwt beam="1">  1       21 0.39620080E-01 0.23857119E+03</pdfrwt>
<pdfrwt beam="2">  1       21 0.38490853E-01 0.23857119E+03</pdfrwt>
<totfact> 0.39093069E+04</totfact>
</mgrwt>
</event>
<event>
 4    1  0.4017302E+000  0.1901711E+03  0.7546771E-02  0.1158307E+00
         21   -1    0    0  503  502  0.00000000000E+00  0.00000000000E+00  0.58465722376E+03  0.58465722376E+03  0.00000000000E+00 0.  1.
         21   -1    0    0  501  503 -0.00000000000E+00 -0.00000000000E+00 -0.76259632012E+02  0.76259632012E+02  0.00000000000E+00 0. -1.
          6    1    1    2  501    0 -0.66628687924E+01 -0.78686962581E+02  0.11058596322E+03  0.21998701589E+03  0.17300000000E+03 0. -1.
         -6    1    1    2    0  502  0.66628687924E+01  0.78686962581E+02  0.39781162853E+03  0.44092983988E+03  0.17300000000E+03 0.  1.
<mgrwt>
<rscale>  2 0.19017106E+03</rscale>
<asrwt>0</asrwt>
<pdfrwt beam="1">  1       21 0.89947262E-01 0.19017106E+03</pdfrwt>
<pdfrwt beam="2">  1       21 0.11732251E-01 0.19017106E+03</pdfrwt>
<totfact> 0.64349441E+04</totfact>
</mgrwt>
</event>
<event>
 4    1  0.4017302E+000  0.1853608E+03  0.7546771E-02  0.1162713E+00
         21   -1    0    0  503  502  0.00000000000E+00  0.00000000000E+00  0.42673977853E+03  0.42673977853E+03  0.00000000000E+00 0. -1.
         21   -1    0    0  501  503 -0.00000000000E+00 -0.00000000000E+00 -0.18093377448E+03  0.18093377448E+03  0.00000000000E+00 0. -1.
          6    1    1    2  501    0  0.59216508761E+02  0.30381222718E+02 -0.10345179250E+03  0.21227549782E+03  0.17300000000E+03 0. -1.
         -6    1    1    2    0  502 -0.59216508761E+02 -0.30381222718E+02  0.34925779655E+03  0.39539805520E+03  0.17300000000E+03 0. -1.
<mgrwt>
<rscale>  2 0.18536077E+03</rscale>
<asrwt>0</asrwt>
<pdfrwt beam="1">  1       21 0.65652273E-01 0.18536077E+03</pdfrwt>
<pdfrwt beam="2">  1       21 0.27835965E-01 0.18536077E+03</pdfrwt>
<totfact> 0.26386498E+04</totfact>
</mgrwt>
</event>
<event>
 4    1  0.4017302E+000  0.1737375E+03  0.7546771E-02  0.1174005E+00
         21   -1    0    0  503  502  0.00000000000E+00  0.00000000000E+00  0.41445722505E+03  0.41445722505E+03  0.00000000000E+00 0.  1.
         21   -1    0    0  501  503 -0.00000000000E+00 -0.00000000000E+00 -0.85347126781E+02  0.85347126781E+02  0.00000000000E+00 0.  1.
          6    1    1    2  501    0  0.11583226895E+02  0.11024409551E+02  0.68849583607E+02  0.18688224612E+03  0.17300000000E+03 0.  1.
         -6    1    1    2    0  502 -0.11583226895E+02 -0.11024409551E+02  0.26026051466E+03  0.31292210571E+03  0.17300000000E+03 0.  1.
<mgrwt>
<rscale>  2 0.17373747E+03</rscale>
<asrwt>0</asrwt>
<pdfrwt beam="1">  1       21 0.63762649E-01 0.17373747E+03</pdfrwt>
<pdfrwt beam="2">  1       21 0.13130327E-01 0.17373747E+03</pdfrwt>
<totfact> 0.11425403E+05</totfact>
</mgrwt>
</event>
<event>
 4    1  0.4017302E+000  0.2979330E+03  0.7546771E-02  0.1086278E+00
         21   -1    0    0  501  502  0.00000000000E+00  0.00000000000E+00  0.14940029776E+03  0.14940029776E+03  0.00000000000E+00 0. -1.
         21   -1    0    0  502  503 -0.00000000000E+00 -0.00000000000E+00 -0.62240353053E+03  0.62240353053E+03  0.00000000000E+00 0. -1.
          6    1    1    2  501    0 -0.21413496402E+03  0.11393536175E+03 -0.15426084013E+03  0.33550030741E+03  0.17300000000E+03 0. -1.
         -6    1    1    2    0  503  0.21413496402E+03 -0.11393536175E+03 -0.31874239264E+03  0.43630352088E+03  0.17300000000E+03 0. -1.
<mgrwt>
<rscale>  2 0.29793296E+03</rscale>
<asrwt>0</asrwt>
<pdfrwt beam="1">  1       21 0.22984661E-01 0.29793296E+03</pdfrwt>
<pdfrwt beam="2">  1       21 0.95754391E-01 0.29793296E+03</pdfrwt>
<totfact> 0.15274348E+04</totfact>
</mgrwt>
</event>
<event>
 4    1  0.4017302E+000  0.2298061E+03  0.7546771E-02  0.1126776E+00
         21   -1    0    0  503  502  0.00000000000E+00  0.00000000000E+00  0.72971978604E+03  0.72971978604E+03  0.00000000000E+00 0.  1.
         21   -1    0    0  501  503 -0.00000000000E+00 -0.00000000000E+00 -0.30121711966E+03  0.30121711966E+03  0.00000000000E+00 0.  1.
          6    1    1    2  501    0  0.52224133002E+02 -0.14196655341E+03 -0.23504578874E+03  0.32872083165E+03  0.17300000000E+03 0.  1.
         -6    1    1    2    0  502 -0.52224133002E+02  0.14196655341E+03  0.66354845513E+03  0.70221607405E+03  0.17300000000E+03 0.  1.
<mgrwt>
<rscale>  2 0.22980614E+03</rscale>
<asrwt>0</asrwt>
<pdfrwt beam="1">  1       21 0.11226458E+00 0.22980614E+03</pdfrwt>
<pdfrwt beam="2">  1       21 0.46341095E-01 0.22980614E+03</pdfrwt>
<totfact> 0.26888165E+03</totfact>
</mgrwt>
</event>
<event>
 4    1  0.4017302E+000  0.1843349E+03  0.7546771E-02  0.1163672E+00
         21   -1    0    0  503  502  0.00000000000E+00  0.00000000000E+00  0.14236900899E+04  0.14236900899E+04  0.00000000000E+00 0.  1.
         21   -1    0    0  501  503 -0.00000000000E+00 -0.00000000000E+00 -0.37651954343E+02  0.37651954343E+02  0.00000000000E+00 0.  1.
          6    1    1    2  501    0 -0.45415640838E+02  0.44584663965E+02  0.25091042675E+03  0.31134452773E+03  0.17300000000E+03 0.  1.
         -6    1    1    2    0  502  0.45415640838E+02 -0.44584663965E+02  0.11351277088E+04  0.11499975165E+04  0.17300000000E+03 0.  1.
<mgrwt>
<rscale>  2 0.18433495E+03</rscale>
<asrwt>0</asrwt>
<pdfrwt beam="1">  1       21 0.21902920E+00 0.18433495E+03</pdfrwt>
<pdfrwt beam="2">  1       21 0.57926095E-02 0.18433495E+03</pdfrwt>
<totfact> 0.21499375E+04</totfact>
</mgrwt>
</event>
<event>
 4    1  0.4017302E+000  0.1842166E+03  0.7546771E-02  0.1163783E+00
         21   -1    0    0  503  502  0.00000000000E+00  0.00000000000E+00  0.32824595823E+04  0.32824595823E+04  0.00000000000E+00 0. -1.
         21   -1    0    0  501  503 -0.00000000000E+00 -0.00000000000E+00 -0.16091500032E+02  0.16091500032E+02  0.00000000000E+00 0. -1.
          6    1    1    2  501    0 -0.29713209848E+02 -0.55891736105E+02  0.64703731691E+03  0.67275036267E+03  0.17300000000E+03 0. -1.
         -6    1    1    2    0  502  0.29713209848E+02  0.55891736105E+02  0.26193307654E+04  0.26258007197E+04  0.17300000000E+03 0. -1.
<mgrwt>
<rscale>  2 0.18421661E+03</rscale>
<asrwt>0</asrwt>
<pdfrwt beam="1">  1       21 0.50499325E+00 0.18421661E+03</pdfrwt>
<pdfrwt beam="2">  1       21 0.24756180E-02 0.18421661E+03</pdfrwt>
<totfact> 0.15366656E+03</totfact>
</mgrwt>
</event>
<event>
 4    1  0.4017302E+000  0.2343467E+03  0.7546771E-02  0.1123617E+00
         21   -1    0    0  503  502  0.00000000000E+00  0.00000000000E+00  0.32696447992E+04  0.32696447992E+04  0.00000000000E+00 0. -1.
         21   -1    0    0  501  503 -0.00000000000E+00 -0.00000000000E+00 -0.14895250537E+03  0.14895250537E+03  0.00000000000E+00 0. -1.
          6    1    1    2  501    0 -0.61666137844E+02  0.14555631203E+03 -0.49697369055E+02  0.23955830401E+03  0.17300000000E+03 0. -1.
         -6    1    1    2    0  502  0.61666137844E+02 -0.14555631203E+03  0.31703896629E+04  0.31790390006E+04  0.17300000000E+03 0. -1.
<mgrwt>
<rscale>  2 0.23434665E+03</rscale>
<asrwt>0</asrwt>
<pdfrwt beam="1">  1       21 0.50302222E+00 0.23434665E+03</pdfrwt>
<pdfrwt beam="2">  1       21 0.22915773E-01 0.23434665E+03</pdfrwt>
<totfact> 0.29848002E+01</totfact>
</mgrwt>
</event>
<event>
 4    1  0.4017302E+000  0.2266508E+03  0.7546771E-02  0.1129020E+00
         21   -1    0    0  501  502  0.00000000000E+00  0.00000000000E+00  0.87043419090E+02  0.87043419090E+02  0.00000000000E+00 0.  1.
         21   -1    0    0  502  503 -0.00000000000E+00 -0.00000000000E+00 -0.59814735148E+03  0.59814735148E+03  0.00000000000E+00 0. -1.
          6    1    1    2  501    0 -0.11790114945E+03 -0.86838423161E+02 -0.29511149108E+03  0.37210399748E+03  0.17300000000E+03 0. -1.
         -6    1    1    2    0  503  0.11790114945E+03  0.86838423161E+02 -0.21599244132E+03  0.31308677309E+03  0.17300000000E+03 0.  1.
<mgrwt>
<rscale>  2 0.22665082E+03</rscale>
<asrwt>0</asrwt>
<pdfrwt beam="1">  1       21 0.13391295E-01 0.22665082E+03</pdfrwt>
<pdfrwt beam="2">  1       21 0.92022670E-01 0.22665082E+03</pdfrwt>
<totfact> 0.47280290E+04</totfact>
</mgrwt>
</event>
<event>
 4    1  0.4017302E+000  0.1788048E+03  0.7546771E-02  0.1168965E+00
         21   -1    0    0  503  502  0.00000000000E+00  0.00000000000E+00  0.44387501652E+02  0.44387501652E+02  0.00000000000E+00 0. -1.
         21   -1    0    0  501  503 -0.00000000000E+00 -0.00000000000E+00 -0.15266901018E+04  0.15266901018E+04  0.00000000000E+00 0. -1.
          6    1    1    2  501    0  0.22201166315E+01  0.45135773979E+02 -0.13120667163E+04  0.13241941833E+04  0.17300000000E+03 0. -1.
         -6    1    1    2    0  502 -0.22201166315E+01 -0.45135773979E+02 -0.17023588387E+03  0.24688342020E+03  0.17300000000E+03 0. -1.
<mgrwt>
<rscale>  2 0.17880483E+03</rscale>
<asrwt>0</asrwt>
<pdfrwt beam="1">  1       21 0.68288468E-02 0.17880483E+03</pdfrwt>
<pdfrwt beam="2">  1       21 0.23487539E+00 0.17880483E+03</pdfrwt>
<totfact> 0.13068914E+04</totfact>
</mgrwt>
</event>
<event>
 4    1  0.4017302E+000  0.1837328E+03  0.7546771E-02  0.1164239E+00
         21   -1    0    0  501  502  0.00000000000E+00  0.00000000000E+00  0.23334645825E+03  0.23334645825E+03  0.00000000000E+00 0.  1.
         21   -1    0    0  502  503 -0.00000000000E+00 -0.00000000000E+00 -0.40504380797E+03  0.40504380797E+03  0.00000000000E+00 0.  1.
          6    1    1    2  501    0  0.51921718693E+02 -0.33658416480E+02  0.17007214524E+03  0.25036431147E+03  0.17300000000E+03 0.  1.
         -6    1    1    2    0  503 -0.51921718693E+02  0.33658416480E+02 -0.34176949496E+03  0.38802595475E+03  0.17300000000E+03 0.  1.
<mgrwt>
<rscale>  2 0.18373283E+03</rscale>
<asrwt>0</asrwt>
<pdfrwt beam="1">  1       21 0.35899455E-01 0.18373283E+03</pdfrwt>
<pdfrwt beam="2">  1       21 0.62314432E-01 0.18373283E+03</pdfrwt>
<totfact> 0.17967516E+04</totfact>
</mgrwt>
</event>
<event>
 4    1  0.4017302E+000  0.2233134E+03  0.7546771E-02  0.1131437E+00
         21   -1    0    0  503  502  0.00000000000E+00  0.00000000000E+00  0.51280787892E+03  0.51280787892E+03  0.00000000000E+00 0. -1.
         21   -1    0    0  501  503 -0.00000000000E+00 -0.00000000000E+00 -0.24686773350E+03  0.24686773350E+03  0.00000000000E+00 0. -1.
          6    1    1    2  501    0  0.11190067684E+03  0.86128536809E+02 -0.16273740998E+03  0.27631929164E+03  0.17300000000E+03 0. -1.
         -6    1    1    2    0  502 -0.11190067684E+03 -0.86128536809E+02  0.42867755540E+03  0.48335632078E+03  0.17300000000E+03 0. -1.
<mgrwt>
<rscale>  2 0.22331343E+03</rscale>
<asrwt>0</asrwt>
<pdfrwt beam="1">  1       21 0.78893520E-01 0.22331343E+03</pdfrwt>
<pdfrwt beam="2">  1       21 0.37979651E-01 0.22331343E+03</pdfrwt>
<totfact> 0.92946075E+03</totfact>
</mgrwt>
</event>
<event>
 4    1  0.4017302E+000  0.2043687E+03  0.7546771E-02  0.1146105E+00
         21   -1    0    0  501  502  0.00000000000E+00  0.00000000000E+00  0.42049262326E+03  0.42049262326E+03  0.00000000000E+00 0. -1.
         21   -1    0    0  502  503 -0.00000000000E+00 -0.00000000000E+00 -0.10932761841E+03  0.10932761841E+03  0.00000000000E+00 0. -1.
          6    1    1    2  501    0 -0.24135313312E+02 -0.10608977169E+03  0.23570093820E+03  0.31196391662E+03  0.17300000000E+03 0. -1.
         -6    1    1    2    0  503  0.24135313312E+02  0.10608977169E+03  0.75464066652E+02  0.21785632504E+03  0.17300000000E+03 0. -1.
<mgrwt>
<rscale>  2 0.20436867E+03</rscale>
<asrwt>0</asrwt>
<pdfrwt beam="1">  1       21 0.64691172E-01 0.20436867E+03</pdfrwt>
<pdfrwt beam="2">  1       21 0.16819634E-01 0.20436867E+03</pdfrwt>
<totfact> 0.69691902E+04</totfact>
</mgrwt>
</event>
<event>
 4    1  0.4017302E+000  0.2038303E+03  0.7546771E-02  0.1146547E+00
         21   -1    0    0  501  502  0.00000000000E+00  0.00000000000E+00  0.18167356493E+03  0.18167356493E+03  0.00000000000E+00 0. -1.
         21   -1    0    0  502  503 -0.00000000000E+00 -0.00000000000E+00 -0.34305005968E+03  0.34305005968E+03  0.00000000000E+00 0. -1.
          6    1    1    2  501    0  0.10778441008E+03  0.54776424667E+00  0.70793606302E+02  0.21577421949E+03  0.17300000000E+03 0. -1.
         -6    1    1    2    0  503 -0.10778441008E+03 -0.54776424667E+00 -0.23217010105E+03  0.30894940512E+03  0.17300000000E+03 0. -1.
<mgrwt>
<rscale>  2 0.20383027E+03</rscale>
<asrwt>0</asrwt>
<pdfrwt beam="1">  1       21 0.27949779E-01 0.20383027E+03</pdfrwt>
<pdfrwt beam="2">  1       21 0.52776932E-01 0.20383027E+03</pdfrwt>
<totfact> 0.41364057E+04</totfact>
</mgrwt>
</event>
<event>
 4    1  0.4017302E+000  0.2126274E+03  0.7546771E-02  0.1139502E+00
         21   -1    0    0  501  502  0.00000000000E+00  0.00000000000E+00  0.21928549329E+03  0.21928549329E+03  0.00000000000E+00 0.  1.
         21   -1    0    0  502  503 -0.00000000000E+00 -0.00000000000E+00 -0.20631039932E+03  0.20631039932E+03  0.00000000000E+00 0. -1.
          6    1    1    2  501    0  0.88407978098E+02 -0.86402795009E+02  0.12009543988E+02  0.21296629481E+03  0.17300000000E+03 0.  1.
         -6    1    1    2    0  503 -0.88407978098E+02  0.86402795009E+02  0.96554997879E+00  0.21262959781E+03  0.17300000000E+03 0. -1.
<mgrwt>
<rscale>  2 0.21262741E+03</rscale>
<asrwt>0</asrwt>
<pdfrwt beam="1">  1       21 0.33736230E-01 0.21262741E+03</pdfrwt>
<pdfrwt beam="2">  1       21 0.31740061E-01 0.21262741E+03</pdfrwt>
<totfact> 0.80097521E+04</totfact>
</mgrwt>
</event>
<event>
 4    1  0.4017302E+000  0.2275886E+03  0.7546771E-02  0.1128349E+00
         21   -1    0    0  503  502  0.00000000000E+00  0.00000000000E+00  0.21631577663E+03  0.21631577663E+03  0.00000000000E+00 0. -1.
         21   -1    0    0  501  503 -0.00000000000E+00 -0.00000000000E+00 -0.33329548941E+03  0.33329548941E+03  0.00000000000E+00 0. -1.
          6    1    1    2  501    0  0.14104228822E+03  0.44437068631E+02 -0.20431086648E+03  0.30584229644E+03  0.17300000000E+03 0. -1.
         -6    1    1    2    0  502 -0.14104228822E+03 -0.44437068631E+02  0.87331153692E+02  0.24376896960E+03  0.17300000000E+03 0. -1.
<mgrwt>
<rscale>  2 0.22758862E+03</rscale>
<asrwt>0</asrwt>
<pdfrwt beam="1">  1       21 0.33279350E-01 0.22758862E+03</pdfrwt>
<pdfrwt beam="2">  1       21 0.51276229E-01 0.22758862E+03</pdfrwt>
<totfact> 0.30863024E+04</totfact>
</mgrwt>
</event>
<event>
 4    1  0.4017302E+000  0.1786693E+03  0.7546771E-02  0.1169097E+00
         21   -1    0    0  503  502  0.00000000000E+00  0.00000000000E+00  0.11134136813E+03  0.11134136813E+03  0.00000000000E+00 0. -1.
         21   -1    0    0  501  503 -0.00000000000E+00 -0.00000000000E+00 -0.37152170248E+03  0.37152170248E+03  0.00000000000E+00 0. -1.
          6    1    1    2  501    0  0.27004873883E+01  0.44569355303E+02 -0.24544318355E+03  0.30358701622E+03  0.17300000000E+03 0. -1.
         -6    1    1    2    0  502 -0.27004873883E+01 -0.44569355303E+02 -0.14737150804E+02  0.17927605439E+03  0.17300000000E+03 0. -1.
<mgrwt>
<rscale>  2 0.17866930E+03</rscale>
<asrwt>0</asrwt>
<pdfrwt beam="1">  1       21 0.17129441E-01 0.17866930E+03</pdfrwt>
<pdfrwt beam="2">  1       21 0.57157185E-01 0.17866930E+03</pdfrwt>
<totfact> 0.88930652E+04</totfact>
</mgrwt>
</event>
<event>
 4    1  0.4017302E+000  0.2990905E+03  0.7546771E-02  0.1085696E+00
         21   -1    0    0  503  502  0.00000000000E+00  0.00000000000E+00  0.36529774882E+03  0.36529774882E+03  0.00000000000E+00 0. -1.
         21   -1    0    0  501  503 -0.00000000000E+00 -0.00000000000E+00 -0.24596361175E+03  0.24596361175E+03  0.00000000000E+00 0.  1.
          6    1    1    2  501    0 -0.18621379481E+03  0.15764050667E+03  0.79927673580E+02  0.30958607805E+03  0.17300000000E+03 0.  1.
         -6    1    1    2    0  502  0.18621379481E+03 -0.15764050667E+03  0.39406463490E+02  0.30167528252E+03  0.17300000000E+03 0. -1.
<mgrwt>
<rscale>  2 0.29909047E+03</rscale>
<asrwt>0</asrwt>
<pdfrwt beam="1">  1       21 0.56199654E-01 0.29909047E+03</pdfrwt>
<pdfrwt beam="2">  1       21 0.37840555E-01 0.29909047E+03</pdfrwt>
<totfact> 0.19031201E+04</totfact>
</mgrwt>
</event>
<event>
 4    1  0.4017302E+000  0.2423990E+03  0.7546771E-02  0.1118205E+00
         21   -1    0    0  503  502  0.00000000000E+00  0.00000000000E+00  0.39118170383E+03  0.39118170383E+03  0.00000000000E+00 0.  1.
         21   -1    0    0  501  503 -0.00000000000E+00 -0.00000000000E+00 -0.76299103815E+03  0.76299103815E+03  0.00000000000E+00 0. -1.
          6    1    1    2  501    0  0.12149755564E+03 -0.11860284471E+03 -0.70307746320E+03  0.74369026487E+03  0.17300000000E+03 0. -1.
         -6    1    1    2    0  502 -0.12149755564E+03  0.11860284471E+03  0.33126812888E+03  0.41048247711E+03  0.17300000000E+03 0.  1.
<mgrwt>
<rscale>  2 0.24239903E+03</rscale>
<asrwt>0</asrwt>
<pdfrwt beam="1">  1       21 0.60181801E-01 0.24239903E+03</pdfrwt>
<pdfrwt beam="2">  1       21 0.11738324E+00 0.24239903E+03</pdfrwt>
<totfact> 0.13737274E+03</totfact>
</mgrwt>
</event>
<event>
 4    1  0.4017302E+000  0.1987701E+03  0.7546771E-02  0.1150781E+00
         21   -1    0    0  503  502  0.00000000000E+00  0.00000000000E+00  0.41585898670E+03  0.41585898670E+03  0.00000000000E+00 0.  1.
         21   -1    0    0  501  503 -0.00000000000E+00 -0.00000000000E+00 -0.25672605003E+03  0.25672605003E+03  0.00000000000E+00 0. -1.
          6    1    1    2  501    0  0.95675073502E+02  0.20660118082E+02 -0.18734220105E+03  0.27314219824E+03  0.17300000000E+03 0. -1.
         -6    1    1    2    0  502 -0.95675073502E+02 -0.20660118082E+02  0.34647513771E+03  0.39944283849E+03  0.17300000000E+03 0.  1.
<mgrwt>
<rscale>  2 0.19877012E+03</rscale>
<asrwt>0</asrwt>
<pdfrwt beam="1">  1       21 0.63978306E-01 0.19877012E+03</pdfrwt>
<pdfrwt beam="2">  1       21 0.39496315E-01 0.19877012E+03</pdfrwt>
<totfact> 0.13885027E+04</totfact>
</mgrwt>
</event>
<event>
 4    1  0.4017302E+000  0.2156858E+03  0.7546771E-02  0.1137141E+00
         21   -1    0    0  501  502  0.00000000000E+00  0.00000000000E+00  0.12248063710E+03  0.12248063710E+03  0.00000000000E+00 0.  1.
         21   -1    0    0  502  503 -0.00000000000E+00 -0.00000000000E+00 -0.38473602770E+03  0.38473602770E+03  0.00000000000E+00 0.  1.
          6    1    1    2  501    0 -0.10248560962E+03 -0.78026040623E+02 -0.15980068924E+03  0.26843364818E+03  0.17300000000E+03 0. -1.
         -6    1    1    2    0  503  0.10248560962E+03  0.78026040623E+02 -0.10245470136E+03  0.23878301662E+03  0.17300000000E+03 0. -1.
<mgrwt>
<rscale>  2 0.21568580E+03</rscale>
<asrwt>0</asrwt>
<pdfrwt beam="1">  1       21 0.18843175E-01 0.21568580E+03</pdfrwt>
<pdfrwt beam="2">  1       21 0.59190157E-01 0.21568580E+03</pdfrwt>
<totfact> 0.68108666E+04</totfact>
</mgrwt>
</event>
<event>
 4    1  0.4017302E+000  0.1821038E+03  0.7546771E-02  0.1165782E+00
         21   -1    0    0  503  502  0.00000000000E+00  0.00000000000E+00  0.89255640390E+03  0.89255640390E+03  0.00000000000E+00 0. -1.
         21   -1    0    0  501  503 -0.00000000000E+00 -0.00000000000E+00 -0.37159177710E+02  0.37159177710E+02  0.00000000000E+00 0. -1.
          6    1    1    2  501    0  0.52540974815E+02  0.21730945029E+02  0.43333386056E+03  0.47004257542E+03  0.17300000000E+03 0. -1.
         -6    1    1    2    0  502 -0.52540974815E+02 -0.21730945029E+02  0.42206336563E+03  0.45967300618E+03  0.17300000000E+03 0. -1.
<mgrwt>
<rscale>  2 0.18210378E+03</rscale>
<asrwt>0</asrwt>
<pdfrwt beam="1">  1       21 0.13731635E+00 0.18210378E+03</pdfrwt>
<pdfrwt beam="2">  1       21 0.57167972E-02 0.18210378E+03</pdfrwt>
<totfact> 0.80965951E+04</totfact>
</mgrwt>
</event>
<event>
 4    1  0.4017302E+000  0.2066894E+03  0.7546771E-02  0.1144215E+00
         21   -1    0    0  503  502  0.00000000000E+00  0.00000000000E+00  0.21465903775E+03  0.21465903775E+03  0.00000000000E+00 0. -1.
         21   -1    0    0  501  503 -0.00000000000E+00 -0.00000000000E+00 -0.19947612444E+03  0.19947612444E+03  0.00000000000E+00 0.  1.
          6    1    1    2  501    0  0.53647976153E+02  0.99565995690E+02 -0.23580728316E+01  0.20670281409E+03  0.17300000000E+03 0. -1.
         -6    1    1    2    0  502 -0.53647976153E+02 -0.99565995690E+02  0.17540986141E+02  0.20743234810E+03  0.17300000000E+03 0.  1.
<mgrwt>
<rscale>  2 0.20668936E+03</rscale>
<asrwt>0</asrwt>
<pdfrwt beam="1">  1       21 0.33024467E-01 0.20668936E+03</pdfrwt>
<pdfrwt beam="2">  1       21 0.30688635E-01 0.20668936E+03</pdfrwt>
<totfact> 0.89472072E+04</totfact>
</mgrwt>
</event>
<event>
 4    1  0.4017302E+000  0.1963117E+03  0.7546771E-02  0.1152889E+00
         21   -1    0    0  501  502  0.00000000000E+00  0.00000000000E+00  0.15574886523E+03  0.15574886523E+03  0.00000000000E+00 0.  1.
         21   -1    0    0  502  503 -0.00000000000E+00 -0.00000000000E+00 -0.29855584714E+03  0.29855584714E+03  0.00000000000E+00 0.  1.
          6    1    1    2  501    0  0.88921025060E+02 -0.26501837507E+02  0.22587835156E+02  0.19760694924E+03  0.17300000000E+03 0.  1.
         -6    1    1    2    0  503 -0.88921025060E+02  0.26501837507E+02 -0.16539481706E+03  0.25669776314E+03  0.17300000000E+03 0.  1.
<mgrwt>
<rscale>  2 0.19631173E+03</rscale>
<asrwt>0</asrwt>
<pdfrwt beam="1">  1       21 0.23961364E-01 0.19631173E+03</pdfrwt>
<pdfrwt beam="2">  1       21 0.45931668E-01 0.19631173E+03</pdfrwt>
<totfact> 0.74488867E+04</totfact>
</mgrwt>
</event>
<event>
 4    1  0.4017302E+000  0.2309142E+03  0.7546771E-02  0.1125998E+00
         21   -1    0    0  501  502  0.00000000000E+00  0.00000000000E+00  0.40707998333E+03  0.40707998333E+03  0.00000000000E+00 0. -1.
         21   -1    0    0  502  503 -0.00000000000E+00 -0.00000000000E+00 -0.14207764330E+03  0.14207764330E+03  0.00000000000E+00 0. -1.
          6    1    1    2  501    0 -0.14959526666E+03 -0.31837367678E+02  0.55778775640E+02  0.23755553793E+03  0.17300000000E+03 0. -1.
         -6    1    1    2    0  503  0.14959526666E+03  0.31837367678E+02  0.20922356439E+03  0.31160208870E+03  0.17300000000E+03 0. -1.
<mgrwt>
<rscale>  2 0.23091419E+03</rscale>
<asrwt>0</asrwt>
<pdfrwt beam="1">  1       21 0.62627689E-01 0.23091419E+03</pdfrwt>
<pdfrwt beam="2">  1       21 0.21858099E-01 0.23091419E+03</pdfrwt>
<totfact> 0.45327728E+04</totfact>
</mgrwt>
</event>
<event>
 4    1  0.4017302E+000  0.1754841E+03  0.7546771E-02  0.1172247E+00
         21   -1    0    0  501  502  0.00000000000E+00  0.00000000000E+00  0.73481165679E+02  0.73481165679E+02  0.00000000000E+00 0. -1.
         21   -1    0    0  502  503 -0.00000000000E+00 -0.00000000000E+00 -0.50271701996E+03  0.50271701996E+03  0.00000000000E+00 0. -1.
          6    1    1    2  501    0  0.24866426872E+02 -0.15726227247E+02 -0.97108289101E+02  0.20056089654E+03  0.17300000000E+03 0. -1.
         -6    1    1    2    0  503 -0.24866426872E+02  0.15726227247E+02 -0.33212756518E+03  0.37563728910E+03  0.17300000000E+03 0. -1.
<mgrwt>
<rscale>  2 0.17548405E+03</rscale>
<asrwt>0</asrwt>
<pdfrwt beam="1">  1       21 0.11304795E-01 0.17548405E+03</pdfrwt>
<pdfrwt beam="2">  1       21 0.77341079E-01 0.17548405E+03</pdfrwt>
<totfact> 0.97552239E+04</totfact>
</mgrwt>
</event>
<event>
 4    1  0.4017302E+000  0.2020066E+03  0.7546771E-02  0.1148057E+00
         21   -1    0    0  501  502  0.00000000000E+00  0.00000000000E+00  0.80650026429E+02  0.80650026429E+02  0.00000000000E+00 0. -1.
         21   -1    0    0  502  503 -0.00000000000E+00 -0.00000000000E+00 -0.53309844552E+03  0.53309844552E+03  0.00000000000E+00 0. -1.
          6    1    1    2  501    0  0.51854224125E+01 -0.10416703304E+03 -0.15700083801E+03  0.25584355085E+03  0.17300000000E+03 0.  1.
         -6    1    1    2    0  503 -0.51854224125E+01  0.10416703304E+03 -0.29544758108E+03  0.35790492110E+03  0.17300000000E+03 0.  1.
<mgrwt>
<rscale>  2 0.20200658E+03</rscale>
<asrwt>0</asrwt>
<pdfrwt beam="1">  1       21 0.12407697E-01 0.20200658E+03</pdfrwt>
<pdfrwt beam="2">  1       21 0.82015145E-01 0.20200658E+03</pdfrwt>
<totfact> 0.71546163E+04</totfact>
</mgrwt>
</event>
<event>
 4    1  0.4017302E+000  0.2556387E+03  0.7546771E-02  0.1109792E+00
         21   -1    0    0  503  502  0.00000000000E+00  0.00000000000E+00  0.77611149578E+03  0.77611149578E+03  0.00000000000E+00 0.  1.
         21   -1    0    0  501  503 -0.00000000000E+00 -0.00000000000E+00 -0.11313144704E+03  0.11313144704E+03  0.00000000000E+00 0.  1.
          6    1    1    2  501    0  0.43452163623E+02 -0.18312311612E+03  0.10665762067E+03  0.27699641555E+03  0.17300000000E+03 0.  1.
         -6    1    1    2    0  502 -0.43452163623E+02  0.18312311612E+03  0.55632242807E+03  0.61224652727E+03  0.17300000000E+03 0.  1.
<mgrwt>
<rscale>  2 0.25563874E+03</rscale>
<asrwt>0</asrwt>
<pdfrwt beam="1">  1       21 0.11940177E+00 0.25563874E+03</pdfrwt>
<pdfrwt beam="2">  1       21 0.17404838E-01 0.25563874E+03</pdfrwt>
<totfact> 0.15381760E+04</totfact>
</mgrwt>
</event>
<event>
 4    1  0.4017302E+000  0.2095311E+03  0.7546771E-02  0.1141938E+00
         21   -1    0    0  501  502  0.00000000000E+00  0.00000000000E+00  0.15856462031E+03  0.15856462031E+03  0.00000000000E+00 0. -1.
         21   -1    0    0  502  503 -0.00000000000E+00 -0.00000000000E+00 -0.41487789358E+03  0.41487789358E+03  0.00000000000E+00 0. -1.
          6    1    1    2  501    0  0.11166249895E+03 -0.38804278811E+02  0.37205787487E+02  0.21280873184E+03  0.17300000000E+03 0.  1.
         -6    1    1    2    0  503 -0.11166249895E+03  0.38804278811E+02 -0.29351906076E+03  0.36063378205E+03  0.17300000000E+03 0.  1.
<mgrwt>
<rscale>  2 0.20953111E+03</rscale>
<asrwt>0</asrwt>
<pdfrwt beam="1">  1       21 0.24394558E-01 0.20953111E+03</pdfrwt>
<pdfrwt beam="2">  1       21 0.63827367E-01 0.20953111E+03</pdfrwt>
<totfact> 0.35668589E+04</totfact>
</mgrwt>
</event>
<event>
 4    1  0.4017302E+000  0.1781773E+03  0.7546771E-02  0.1169579E+00
         21   -1    0    0  503  502  0.00000000000E+00  0.00000000000E+00  0.12921976769E+03  0.12921976769E+03  0.00000000000E+00 0. -1.
         21   -1    0    0  501  503 -0.00000000000E+00 -0.00000000000E+00 -0.36223590371E+03  0.36223590371E+03  0.00000000000E+00 0. -1.
          6    1    1    2  501    0 -0.42615189652E+02  0.14419436699E+01 -0.25589423506E+03  0.31181563964E+03  0.17300000000E+03 0. -1.
         -6    1    1    2    0  502  0.42615189652E+02 -0.14419436699E+01  0.22878099037E+02  0.17964003175E+03  0.17300000000E+03 0. -1.
<mgrwt>
<rscale>  2 0.17817725E+03</rscale>
<asrwt>0</asrwt>
<pdfrwt beam="1">  1       21 0.19879964E-01 0.17817725E+03</pdfrwt>
<pdfrwt beam="2">  1       21 0.55728600E-01 0.17817725E+03</pdfrwt>
<totfact> 0.71252020E+04</totfact>
</mgrwt>
</event>
<event>
 4    1  0.4017302E+000  0.1995186E+03  0.7546771E-02  0.1150146E+00
         21   -1    0    0  503  502  0.00000000000E+00  0.00000000000E+00  0.41772445432E+02  0.41772445432E+02  0.00000000000E+00 0.  1.
         21   -1    0    0  501  503 -0.00000000000E+00 -0.00000000000E+00 -0.11517361210E+04  0.11517361210E+04  0.00000000000E+00 0. -1.
          6    1    1    2  501    0  0.70462525976E+02 -0.70097737324E+02 -0.80289304968E+03  0.82731185750E+03  0.17300000000E+03 0. -1.
         -6    1    1    2    0  502 -0.70462525976E+02  0.70097737324E+02 -0.30707062588E+03  0.36619670892E+03  0.17300000000E+03 0.  1.
<mgrwt>
<rscale>  2 0.19951857E+03</rscale>
<asrwt>0</asrwt>
<pdfrwt beam="1">  1       21 0.64265296E-02 0.19951857E+03</pdfrwt>
<pdfrwt beam="2">  1       21 0.17719019E+00 0.19951857E+03</pdfrwt>
<totfact> 0.33183544E+04</totfact>
</mgrwt>
</event>
<event>
 4    1  0.4017302E+000  0.3054349E+03  0.7546771E-02  0.1082555E+00
         21   -1    0    0  501  502  0.00000000000E+00  0.00000000000E+00  0.33993862632E+04  0.33993862632E+04  0.00000000000E+00 0. -1.
         21   -1    0    0  502  503 -0.00000000000E+00 -0.00000000000E+00 -0.27746759405E+02  0.27746759405E+02  0.00000000000E+00 0.  1.
          6    1    1    2  501    0 -0.23665657086E+03 -0.85762246277E+02  0.15066270939E+04  0.15372754130E+04  0.17300000000E+03 0.  1.
         -6    1    1    2    0  503  0.23665657086E+03  0.85762246277E+02  0.18650124098E+04  0.18898576095E+04  0.17300000000E+03 0.  1.
<mgrwt>
<rscale>  2 0.30543493E+03</rscale>
<asrwt>0</asrwt>
<pdfrwt beam="1">  1       21 0.52298217E+00 0.30543493E+03</pdfrwt>
<pdfrwt beam="2">  1       21 0.42687349E-02 0.30543493E+03</pdfrwt>
<totfact> 0.39367474E+02</totfact>
</mgrwt>
</event>
<event>
 4    1  0.4017302E+000  0.2695485E+03  0.7546771E-02  0.1101538E+00
         21   -1    0    0  501  502  0.00000000000E+00  0.00000000000E+00  0.41081856935E+03  0.41081856935E+03  0.00000000000E+00 0. -1.
         21   -1    0    0  502  503 -0.00000000000E+00 -0.00000000000E+00 -0.43878477573E+03  0.43878477573E+03  0.00000000000E+00 0. -1.
          6    1    1    2  501    0  0.20042096007E+03  0.50584648906E+02  0.31422610363E+03  0.41399808229E+03  0.17300000000E+03 0. -1.
         -6    1    1    2    0  503 -0.20042096007E+03 -0.50584648906E+02 -0.34219231001E+03  0.43560526279E+03  0.17300000000E+03 0. -1.
<mgrwt>
<rscale>  2 0.26954845E+03</rscale>
<asrwt>0</asrwt>
<pdfrwt beam="1">  1       21 0.63202857E-01 0.26954845E+03</pdfrwt>
<pdfrwt beam="2">  1       21 0.67505350E-01 0.26954845E+03</pdfrwt>
<totfact> 0.44089899E+03</totfact>
</mgrwt>
</event>
<event>
 4    1  0.4017302E+000  0.2033605E+03  0.7546771E-02  0.1146934E+00
         21   -1    0    0  501  502  0.00000000000E+00  0.00000000000E+00  0.83712994609E+02  0.83712994609E+02  0.00000000000E+00 0. -1.
         21   -1    0    0  502  503 -0.00000000000E+00 -0.00000000000E+00 -0.61956961966E+03  0.61956961966E+03  0.00000000000E+00 0. -1.
          6    1    1    2  501    0  0.98365235015E+02 -0.41842465086E+02 -0.10963213535E+03  0.23102968737E+03  0.17300000000E+03 0. -1.
         -6    1    1    2    0  503 -0.98365235015E+02  0.41842465086E+02 -0.42622448970E+03  0.47225292690E+03  0.17300000000E+03 0. -1.
<mgrwt>
<rscale>  2 0.20336055E+03</rscale>
<asrwt>0</asrwt>
<pdfrwt beam="1">  1       21 0.12878923E-01 0.20336055E+03</pdfrwt>
<pdfrwt beam="2">  1       21 0.95318401E-01 0.20336055E+03</pdfrwt>
<totfact> 0.47251116E+04</totfact>
</mgrwt>
</event>
<event>
 4    1  0.4017302E+000  0.2339954E+03  0.7546771E-02  0.1123859E+00
         21   -1    0    0  503  502  0.00000000000E+00  0.00000000000E+00  0.33027871633E+03  0.33027871633E+03  0.00000000000E+00 0.  1.
         21   -1    0    0  501  503 -0.00000000000E+00 -0.00000000000E+00 -0.16812341105E+03  0.16812341105E+03  0.00000000000E+00 0.  1.
          6    1    1    2  501    0 -0.14503853907E+03  0.61552243141E+02  0.11049406061E+03  0.25877170224E+03  0.17300000000E+03 0.  1.
         -6    1    1    2    0  502  0.14503853907E+03 -0.61552243141E+02  0.51661244675E+02  0.23963042514E+03  0.17300000000E+03 0.  1.
<mgrwt>
<rscale>  2 0.23399542E+03</rscale>
<asrwt>0</asrwt>
<pdfrwt beam="1">  1       21 0.50812110E-01 0.23399542E+03</pdfrwt>
<pdfrwt beam="2">  1       21 0.25865140E-01 0.23399542E+03</pdfrwt>
<totfact> 0.51310464E+04</totfact>
</mgrwt>
</event>
<event>
 4    1  0.4017302E+000  0.1866696E+03  0.7546771E-02  0.1161500E+00
         21   -1    0    0  503  502  0.00000000000E+00  0.00000000000E+00  0.12241576311E+03  0.12241576311E+03  0.00000000000E+00 0. -1.
         21   -1    0    0  501  503 -0.00000000000E+00 -0.00000000000E+00 -0.29685861345E+03  0.29685861345E+03  0.00000000000E+00 0.  1.
          6    1    1    2  501    0  0.57825825738E+02  0.39657685880E+02 -0.12973616953E+03  0.22732582752E+03  0.17300000000E+03 0.  1.
         -6    1    1    2    0  502 -0.57825825738E+02 -0.39657685880E+02 -0.44706680810E+02  0.19194854905E+03  0.17300000000E+03 0. -1.
<mgrwt>
<rscale>  2 0.18666965E+03</rscale>
<asrwt>0</asrwt>
<pdfrwt beam="1">  1       21 0.18833194E-01 0.18666965E+03</pdfrwt>
<pdfrwt beam="2">  1       21 0.45670556E-01 0.18666965E+03</pdfrwt>
<totfact> 0.11892963E+05</totfact>
</mgrwt>
</event>
<event>
 4    1  0.4017302E+000  0.1933714E+03  0.7546771E-02  0.1155455E+00
         21   -1    0    0  501  502  0.00000000000E+00  0.00000000000E+00  0.10785297871E+03  0.10785297871E+03  0.00000000000E+00 0.  1.
         21   -1    0    0  502  503 -0.00000000000E+00 -0.00000000000E+00 -0.34670673249E+03  0.34670673249E+03  0.00000000000E+00 0.  1.
          6    1    1    2  501    0  0.70928650306E+02 -0.49321457526E+02 -0.11832792893E+03  0.22670240046E+03  0.17300000000E+03 0. -1.
         -6    1    1    2    0  503 -0.70928650306E+02  0.49321457526E+02 -0.12052582484E+03  0.22785731074E+03  0.17300000000E+03 0. -1.
<mgrwt>
<rscale>  2 0.19337135E+03</rscale>
<asrwt>0</asrwt>
<pdfrwt beam="1">  1       21 0.16592766E-01 0.19337135E+03</pdfrwt>
<pdfrwt beam="2">  1       21 0.53339497E-01 0.19337135E+03</pdfrwt>
<totfact> 0.10852139E+05</totfact>
</mgrwt>
</event>
<event>
 4    1  0.4017302E+000  0.1761187E+03  0.7546771E-02  0.1171613E+00
         21   -1    0    0  501  502  0.00000000000E+00  0.00000000000E+00  0.11430772297E+03  0.11430772297E+03  0.00000000000E+00 0.  1.
         21   -1    0    0  502  503 -0.00000000000E+00 -0.00000000000E+00 -0.31489300809E+03  0.31489300809E+03  0.00000000000E+00 0.  1.
          6    1    1    2  501    0 -0.43113354583E+01 -0.32714185934E+02 -0.18009036483E+03  0.25189351933E+03  0.17300000000E+03 0.  1.
         -6    1    1    2    0  503  0.43113354583E+01  0.32714185934E+02 -0.20494920279E+02  0.17730721173E+03  0.17300000000E+03 0.  1.
<mgrwt>
<rscale>  2 0.17611873E+03</rscale>
<asrwt>0</asrwt>
<pdfrwt beam="1">  1       21 0.17585804E-01 0.17611873E+03</pdfrwt>
<pdfrwt beam="2">  1       21 0.48445078E-01 0.17611873E+03</pdfrwt>
<totfact> 0.11997280E+05</totfact>
</mgrwt>
</event>
<event>
 4    1  0.4017302E+000  0.1882474E+03  0.7546771E-02  0.1160052E+00
         21   -1    0    0  503  502  0.00000000000E+00  0.00000000000E+00  0.37348100826E+03  0.37348100826E+03  0.00000000000E+00 0. -1.
         21   -1    0    0  501  503 -0.00000000000E+00 -0.00000000000E+00 -0.13650701803E+03  0.13650701803E+03  0.00000000000E+00 0. -1.
          6    1    1    2  501    0 -0.74077536561E+02 -0.45388836763E+01 -0.22319703494E+02  0.18956595700E+03  0.17300000000E+03 0. -1.
         -6    1    1    2    0  502  0.74077536561E+02  0.45388836763E+01  0.25929369372E+03  0.32042206930E+03  0.17300000000E+03 0. -1.
<mgrwt>
<rscale>  2 0.18824740E+03</rscale>
<asrwt>0</asrwt>
<pdfrwt beam="1">  1       21 0.57458616E-01 0.18824740E+03</pdfrwt>
<pdfrwt beam="2">  1       21 0.21001080E-01 0.18824740E+03</pdfrwt>
<totfact> 0.60000939E+04</totfact>
</mgrwt>
</event>
<event>
 4    1  0.4017302E+000  0.2231997E+03  0.7546771E-02  0.1131520E+00
         21   -1    0    0  503  502  0.00000000000E+00  0.00000000000E+00  0.37328918167E+03  0.37328918167E+03  0.00000000000E+00 0.  1.
         21   -1    0    0  501  503 -0.00000000000E+00 -0.00000000000E+00 -0.19307751909E+03  0.19307751909E+03  0.00000000000E+00 0.  1.
          6    1    1    2  501    0 -0.10054877360E+03 -0.98889049458E+02 -0.67255960400E+02  0.23311255690E+03  0.17300000000E+03 0.  1.
         -6    1    1    2    0  502  0.10054877360E+03  0.98889049458E+02  0.24746762298E+03  0.33325414386E+03  0.17300000000E+03 0.  1.
<mgrwt>
<rscale>  2 0.22319969E+03</rscale>
<asrwt>0</asrwt>
<pdfrwt beam="1">  1       21 0.57429105E-01 0.22319969E+03</pdfrwt>
<pdfrwt beam="2">  1       21 0.29704234E-01 0.22319969E+03</pdfrwt>
<totfact> 0.30418763E+04</totfact>
</mgrwt>
</event>
<event>
 4    1  0.4017302E+000  0.2109254E+03  0.7546771E-02  0.1140835E+00
         21   -1    0    0  501  502  0.00000000000E+00  0.00000000000E+00  0.15042252652E+03  0.15042252652E+03  0.00000000000E+00 0. -1.
         21   -1    0    0  502  503 -0.00000000000E+00 -0.00000000000E+00 -0.33058207481E+03  0.33058207481E+03  0.00000000000E+00 0. -1.
          6    1    1    2  501    0  0.11967021559E+03 -0.15477556523E+02 -0.12027752911E+02  0.21126803378E+03  0.17300000000E+03 0. -1.
         -6    1    1    2    0  503 -0.11967021559E+03  0.15477556523E+02 -0.16813179538E+03  0.26973656755E+03  0.17300000000E+03 0. -1.
<mgrwt>
<rscale>  2 0.21092538E+03</rscale>
<asrwt>0</asrwt>
<pdfrwt beam="1">  1       21 0.23141927E-01 0.21092538E+03</pdfrwt>
<pdfrwt beam="2">  1       21 0.50858780E-01 0.21092538E+03</pdfrwt>
<totfact> 0.63977812E+04</totfact>
</mgrwt>
</event>
<event>
 4    1  0.4017302E+000  0.1909329E+03  0.7546771E-02  0.1157623E+00
         21   -1    0    0  501  502  0.00000000000E+00  0.00000000000E+00  0.10385713816E+03  0.10385713816E+03  0.00000000000E+00 0. -1.
         21   -1    0    0  502  503 -0.00000000000E+00 -0.00000000000E+00 -0.37862162646E+03  0.37862162646E+03  0.00000000000E+00 0. -1.
          6    1    1    2  501    0  0.48579279312E+02  0.64547871804E+02 -0.72241136492E+02  0.20414248929E+03  0.17300000000E+03 0. -1.
         -6    1    1    2    0  503 -0.48579279312E+02 -0.64547871804E+02 -0.20252335181E+03  0.27833627533E+03  0.17300000000E+03 0. -1.
<mgrwt>
<rscale>  2 0.19093290E+03</rscale>
<asrwt>0</asrwt>
<pdfrwt beam="1">  1       21 0.15978021E-01 0.19093290E+03</pdfrwt>
<pdfrwt beam="2">  1       21 0.58249481E-01 0.19093290E+03</pdfrwt>
<totfact> 0.96576482E+04</totfact>
</mgrwt>
</event>
<event>
 4    1  0.4017302E+000  0.3140288E+03  0.7546771E-02  0.1078431E+00
         21   -1    0    0  503  502  0.00000000000E+00  0.00000000000E+00  0.86747691961E+03  0.86747691961E+03  0.00000000000E+00 0. -1.
         21   -1    0    0  501  503 -0.00000000000E+00 -0.00000000000E+00 -0.16394247060E+03  0.16394247060E+03  0.00000000000E+00 0.  1.
          6    1    1    2  501    0 -0.20252817104E+03 -0.16633537485E+03  0.63731892934E+03  0.71048542187E+03  0.17300000000E+03 0. -1.
         -6    1    1    2    0  502  0.20252817104E+03  0.16633537485E+03  0.66215519667E+02  0.32093396834E+03  0.17300000000E+03 0.  1.
<mgrwt>
<rscale>  2 0.31402885E+03</rscale>
<asrwt>0</asrwt>
<pdfrwt beam="1">  1       21 0.13345799E+00 0.31402885E+03</pdfrwt>
<pdfrwt beam="2">  1       21 0.25221919E-01 0.31402885E+03</pdfrwt>
<totfact> 0.55744154E+03</totfact>
</mgrwt>
</event>
<event>
 4    1  0.4017302E+000  0.2647647E+03  0.7546771E-02  0.1104314E+00
         21   -1    0    0  503  502  0.00000000000E+00  0.00000000000E+00  0.21760558303E+03  0.21760558303E+03  0.00000000000E+00 0. -1.
         21   -1    0    0  501  503 -0.00000000000E+00 -0.00000000000E+00 -0.35739691668E+03  0.35739691668E+03  0.00000000000E+00 0. -1.
          6    1    1    2  501    0  0.18102910764E+03 -0.86022109676E+02  0.20398902482E+02  0.26554934831E+03  0.17300000000E+03 0. -1.
         -6    1    1    2    0  502 -0.18102910764E+03  0.86022109676E+02 -0.16019023613E+03  0.30945315141E+03  0.17300000000E+03 0. -1.
<mgrwt>
<rscale>  2 0.26476469E+03</rscale>
<asrwt>0</asrwt>
<pdfrwt beam="1">  1       21 0.33477782E-01 0.26476469E+03</pdfrwt>
<pdfrwt beam="2">  1       21 0.54984141E-01 0.26476469E+03</pdfrwt>
<totfact> 0.25868260E+04</totfact>
</mgrwt>
</event>
<event>
 4    1  0.4017302E+000  0.1734079E+03  0.7546771E-02  0.1174340E+00
         21   -1    0    0  501  502  0.00000000000E+00  0.00000000000E+00  0.13507438302E+03  0.13507438302E+03  0.00000000000E+00 0. -1.
         21   -1    0    0  502  503 -0.00000000000E+00 -0.00000000000E+00 -0.26289963096E+03  0.26289963096E+03  0.00000000000E+00 0. -1.
          6    1    1    2  501    0 -0.23172996399E+01  0.11658638462E+02  0.13975472973E+02  0.17397013414E+03  0.17300000000E+03 0. -1.
         -6    1    1    2    0  503  0.23172996399E+01 -0.11658638462E+02 -0.14180072091E+03  0.22400387983E+03  0.17300000000E+03 0. -1.
<mgrwt>
<rscale>  2 0.17340788E+03</rscale>
<asrwt>0</asrwt>
<pdfrwt beam="1">  1       21 0.20780674E-01 0.17340788E+03</pdfrwt>
<pdfrwt beam="2">  1       21 0.40446097E-01 0.17340788E+03</pdfrwt>
<totfact> 0.12740874E+05</totfact>
</mgrwt>
</event>
<event>
 4    1  0.4017302E+000  0.1920032E+03  0.7546771E-02  0.1156667E+00
         21   -1    0    0  501  502  0.00000000000E+00  0.00000000000E+00  0.74299973603E+02  0.74299973603E+02  0.00000000000E+00 0.  1.
         21   -1    0    0  502  503 -0.00000000000E+00 -0.00000000000E+00 -0.60255534034E+03  0.60255534034E+03  0.00000000000E+00 0.  1.
          6    1    1    2  501    0 -0.16521597353E+02  0.81628848785E+02 -0.12192317205E+03  0.22744338200E+03  0.17300000000E+03 0.  1.
         -6    1    1    2    0  503  0.16521597353E+02 -0.81628848785E+02 -0.40633219469E+03  0.44941193195E+03  0.17300000000E+03 0.  1.
<mgrwt>
<rscale>  2 0.19200321E+03</rscale>
<asrwt>0</asrwt>
<pdfrwt beam="1">  1       21 0.11430765E-01 0.19200321E+03</pdfrwt>
<pdfrwt beam="2">  1       21 0.92700824E-01 0.19200321E+03</pdfrwt>
<totfact> 0.62801133E+04</totfact>
</mgrwt>
</event>
<event>
 4    1  0.4017302E+000  0.2065256E+03  0.7546771E-02  0.1144347E+00
         21   -1    0    0  503  502  0.00000000000E+00  0.00000000000E+00  0.29056799377E+03  0.29056799377E+03  0.00000000000E+00 0.  1.
         21   -1    0    0  501  503 -0.00000000000E+00 -0.00000000000E+00 -0.16609055837E+03  0.16609055837E+03  0.00000000000E+00 0. -1.
          6    1    1    2  501    0 -0.64728424769E+02  0.92379939864E+02 -0.15593722842E+02  0.20711346276E+03  0.17300000000E+03 0. -1.
         -6    1    1    2    0  502  0.64728424769E+02 -0.92379939864E+02  0.14007115824E+03  0.24954508938E+03  0.17300000000E+03 0.  1.
<mgrwt>
<rscale>  2 0.20652560E+03</rscale>
<asrwt>0</asrwt>
<pdfrwt beam="1">  1       21 0.44702768E-01 0.20652560E+03</pdfrwt>
<pdfrwt beam="2">  1       21 0.25552394E-01 0.20652560E+03</pdfrwt>
<totfact> 0.69350679E+04</totfact>
</mgrwt>
</event>
<event>
 4    1  0.4017302E+000  0.1921432E+03  0.7546771E-02  0.1156542E+00
         21   -1    0    0  503  502  0.00000000000E+00  0.00000000000E+00  0.72158537784E+03  0.72158537784E+03  0.00000000000E+00 0. -1.
         21   -1    0    0  501  503 -0.00000000000E+00 -0.00000000000E+00 -0.61556885116E+02  0.61556885116E+02  0.00000000000E+00 0. -1.
          6    1    1    2  501    0  0.81271475556E+02  0.19620273319E+02  0.16911803830E+03  0.25596858937E+03  0.17300000000E+03 0. -1.
         -6    1    1    2    0  502 -0.81271475556E+02 -0.19620273319E+02  0.49091045442E+03  0.52717367358E+03  0.17300000000E+03 0. -1.
<mgrwt>
<rscale>  2 0.19214320E+03</rscale>
<asrwt>0</asrwt>
<pdfrwt beam="1">  1       21 0.11101313E+00 0.19214320E+03</pdfrwt>
<pdfrwt beam="2">  1       21 0.94702905E-02 0.19214320E+03</pdfrwt>
<totfact> 0.57070419E+04</totfact>
</mgrwt>
</event>
<event>
 4    1  0.4017302E+000  0.1902988E+03  0.7546771E-02  0.1158192E+00
         21   -1    0    0  501  502  0.00000000000E+00  0.00000000000E+00  0.89591360572E+02  0.89591360572E+02  0.00000000000E+00 0. -1.
         21   -1    0    0  502  503 -0.00000000000E+00 -0.00000000000E+00 -0.41459391299E+03  0.41459391299E+03  0.00000000000E+00 0. -1.
          6    1    1    2  501    0 -0.48748917252E+02  0.62515501049E+02 -0.12260359358E+03  0.22637421665E+03  0.17300000000E+03 0. -1.
         -6    1    1    2    0  503  0.48748917252E+02 -0.62515501049E+02 -0.20239895885E+03  0.27781105692E+03  0.17300000000E+03 0. -1.
<mgrwt>
<rscale>  2 0.19029883E+03</rscale>
<asrwt>0</asrwt>
<pdfrwt beam="1">  1       21 0.13783287E-01 0.19029883E+03</pdfrwt>
<pdfrwt beam="2">  1       21 0.63783677E-01 0.19029883E+03</pdfrwt>
<totfact> 0.10395685E+05</totfact>
</mgrwt>
</event>
<event>
 4    1  0.4017302E+000  0.1891644E+03  0.7546771E-02  0.1159217E+00
         21   -1    0    0  501  502  0.00000000000E+00  0.00000000000E+00  0.71366381244E+03  0.71366381244E+03  0.00000000000E+00 0. -1.
         21   -1    0    0  502  503 -0.00000000000E+00 -0.00000000000E+00 -0.70009952629E+02  0.70009952629E+02  0.00000000000E+00 0.  1.
          6    1    1    2  501    0 -0.11551419494E+02  0.75635514369E+02  0.53057519525E+03  0.56328785194E+03  0.17300000000E+03 0. -1.
         -6    1    1    2    0  503  0.11551419494E+02 -0.75635514369E+02  0.11307866455E+03  0.22038591312E+03  0.17300000000E+03 0.  1.
<mgrwt>
<rscale>  2 0.18916439E+03</rscale>
<asrwt>0</asrwt>
<pdfrwt beam="1">  1       21 0.10979443E+00 0.18916439E+03</pdfrwt>
<pdfrwt beam="2">  1       21 0.10770762E-01 0.18916439E+03</pdfrwt>
<totfact> 0.46761115E+04</totfact>
</mgrwt>
</event>
<event>
 4    1  0.4017302E+000  0.2098110E+03  0.7546771E-02  0.1141716E+00
         21   -1    0    0  501  502  0.00000000000E+00  0.00000000000E+00  0.52222023564E+03  0.52222023564E+03  0.00000000000E+00 0.  1.
         21   -1    0    0  502  503 -0.00000000000E+00 -0.00000000000E+00 -0.10118612754E+03  0.10118612754E+03  0.00000000000E+00 0.  1.
          6    1    1    2  501    0 -0.11572545957E+03  0.26443706812E+02  0.83164492850E+02  0.22569223401E+03  0.17300000000E+03 0.  1.
         -6    1    1    2    0  503  0.11572545957E+03 -0.26443706812E+02  0.33786961525E+03  0.39771412916E+03  0.17300000000E+03 0.  1.
<mgrwt>
<rscale>  2 0.20981099E+03</rscale>
<asrwt>0</asrwt>
<pdfrwt beam="1">  1       21 0.80341573E-01 0.20981099E+03</pdfrwt>
<pdfrwt beam="2">  1       21 0.15567097E-01 0.20981099E+03</pdfrwt>
<totfact> 0.49515621E+04</totfact>
</mgrwt>
</event>
<event>
 4    1  0.4017302E+000  0.2307190E+03  0.7546771E-02  0.1126135E+00
         21   -1    0    0  503  502  0.00000000000E+00  0.00000000000E+00  0.28425849052E+02  0.28425849052E+02  0.00000000000E+00 0.  1.
         21   -1    0    0  501  503 -0.00000000000E+00 -0.00000000000E+00 -0.20303379941E+04  0.20303379941E+04  0.00000000000E+00 0. -1.
          6    1    1    2  501    0 -0.10813445348E+03  0.10774599706E+03 -0.71406874622E+03  0.75041684032E+03  0.17300000000E+03 0.  1.
         -6    1    1    2    0  502  0.10813445348E+03 -0.10774599706E+03 -0.12878433989E+04  0.13083470029E+04  0.17300000000E+03 0. -1.
<mgrwt>
<rscale>  2 0.23071901E+03</rscale>
<asrwt>0</asrwt>
<pdfrwt beam="1">  1       21 0.43732070E-02 0.23071901E+03</pdfrwt>
<pdfrwt beam="2">  1       21 0.31235973E+00 0.23071901E+03</pdfrwt>
<totfact> 0.93950731E+03</totfact>
</mgrwt>
</event>
<event>
 4    1  0.4017302E+000  0.2331616E+03  0.7546771E-02  0.1124434E+00
         21   -1    0    0  503  502  0.00000000000E+00  0.00000000000E+00  0.57872359366E+03  0.57872359366E+03  0.00000000000E+00 0. -1.
         21   -1    0    0  501  503 -0.00000000000E+00 -0.00000000000E+00 -0.94606257932E+02  0.94606257932E+02  0.00000000000E+00 0.  1.
          6    1    1    2  501    0 -0.36099278159E+01 -0.15627640943E+03  0.21377135990E+03  0.31632663821E+03  0.17300000000E+03 0. -1.
         -6    1    1    2    0  502  0.36099278159E+01  0.15627640943E+03  0.27034597583E+03  0.35700321339E+03  0.17300000000E+03 0. -1.
<mgrwt>
<rscale>  2 0.23316163E+03</rscale>
<asrwt>0</asrwt>
<pdfrwt beam="1">  1       21 0.89034397E-01 0.23316163E+03</pdfrwt>
<pdfrwt beam="2">  1       21 0.14554809E-01 0.23316163E+03</pdfrwt>
<totfact> 0.43751683E+04</totfact>
</mgrwt>
</event>
<event>
 4    1  0.4017302E+000  0.1876031E+03  0.7546771E-02  0.1160641E+00
         21   -1    0    0  501  502  0.00000000000E+00  0.00000000000E+00  0.18538663383E+03  0.18538663383E+03  0.00000000000E+00 0.  1.
         21   -1    0    0  502  503 -0.00000000000E+00 -0.00000000000E+00 -0.40600449394E+03  0.40600449394E+03  0.00000000000E+00 0.  1.
          6    1    1    2  501    0 -0.47457658468E+02 -0.54897058174E+02  0.10544837663E+03  0.21520751956E+03  0.17300000000E+03 0.  1.
         -6    1    1    2    0  503  0.47457658468E+02  0.54897058174E+02 -0.32606623674E+03  0.37618360821E+03  0.17300000000E+03 0.  1.
<mgrwt>
<rscale>  2 0.18760308E+03</rscale>
<asrwt>0</asrwt>
<pdfrwt beam="1">  1       21 0.28521021E-01 0.18760308E+03</pdfrwt>
<pdfrwt beam="2">  1       21 0.62462230E-01 0.18760308E+03</pdfrwt>
<totfact> 0.28012252E+04</totfact>
</mgrwt>
</event>
<event>
 4    1  0.4017302E+000  0.1744785E+03  0.7546771E-02  0.1173256E+00
         21   -1    0    0  501  502  0.00000000000E+00  0.00000000000E+00  0.25132562922E+04  0.25132562922E+04  0.00000000000E+00 0.  1.
         21   -1    0    0  502  503 -0.00000000000E+00 -0.00000000000E+00 -0.72834053104E+02  0.72834053104E+02  0.00000000000E+00 0.  1.
          6    1    1    2  501    0  0.22236114574E+02  0.43922260122E+01  0.24008486515E+04  0.24071802973E+04  0.17300000000E+03 0.  1.
         -6    1    1    2    0  503 -0.22236114574E+02 -0.43922260122E+01  0.39573587630E+02  0.17891004801E+03  0.17300000000E+03 0.  1.
<mgrwt>
<rscale>  2 0.17447847E+03</rscale>
<asrwt>0</asrwt>
<pdfrwt beam="1">  1       21 0.38665475E+00 0.17447847E+03</pdfrwt>
<pdfrwt beam="2">  1       21 0.11205241E-01 0.17447847E+03</pdfrwt>
<totfact> 0.71982500E+02</totfact>
</mgrwt>
</event>
<event>
 4    1  0.4017302E+000  0.1746724E+03  0.7546771E-02  0.1173061E+00
         21   -1    0    0  503  502  0.00000000000E+00  0.00000000000E+00  0.54372495151E+03  0.54372495151E+03  0.00000000000E+00 0.  1.
         21   -1    0    0  501  503 -0.00000000000E+00 -0.00000000000E+00 -0.56115274404E+02  0.56115274404E+02  0.00000000000E+00 0.  1.
          6    1    1    2  501    0  0.24034691909E+02  0.19412769808E+01  0.24537840360E+03  0.30119926282E+03  0.17300000000E+03 0. -1.
         -6    1    1    2    0  502 -0.24034691909E+02 -0.19412769808E+01  0.24223127350E+03  0.29864096309E+03  0.17300000000E+03 0. -1.
<mgrwt>
<rscale>  2 0.17467236E+03</rscale>
<asrwt>0</asrwt>
<pdfrwt beam="1">  1       21 0.83649989E-01 0.17467236E+03</pdfrwt>
<pdfrwt beam="2">  1       21 0.86331195E-02 0.17467236E+03</pdfrwt>
<totfact> 0.13144968E+05</totfact>
</mgrwt>
</event>
<event>
 4    1  0.4017302E+000  0.2348454E+03  0.7546771E-02  0.1123275E+00
         21   -1    0    0  503  502  0.00000000000E+00  0.00000000000E+00  0.12834401053E+03  0.12834401053E+03  0.00000000000E+00 0.  1.
         21   -1    0    0  501  503 -0.00000000000E+00 -0.00000000000E+00 -0.50407286134E+03  0.50407286134E+03  0.00000000000E+00 0.  1.
          6    1    1    2  501    0 -0.62163625149E+02 -0.14614741379E+03 -0.30930579506E+03  0.38835867147E+03  0.17300000000E+03 0.  1.
         -6    1    1    2    0  502  0.62163625149E+02  0.14614741379E+03 -0.66423055746E+02  0.24405820040E+03  0.17300000000E+03 0.  1.
<mgrwt>
<rscale>  2 0.23484544E+03</rscale>
<asrwt>0</asrwt>
<pdfrwt beam="1">  1       21 0.19745232E-01 0.23484544E+03</pdfrwt>
<pdfrwt beam="2">  1       21 0.77549671E-01 0.23484544E+03</pdfrwt>
<totfact> 0.34133024E+04</totfact>
</mgrwt>
</event>
<event>
 4    1  0.4017302E+000  0.2597672E+03  0.7546771E-02  0.1107283E+00
         21   -1    0    0  503  502  0.00000000000E+00  0.00000000000E+00  0.40374009562E+02  0.40374009562E+02  0.00000000000E+00 0. -1.
         21   -1    0    0  501  503 -0.00000000000E+00 -0.00000000000E+00 -0.20171879825E+04  0.20171879825E+04  0.00000000000E+00 0.  1.
          6    1    1    2  501    0  0.47785908613E+02 -0.18779376235E+03 -0.14143856163E+04  0.14380423018E+04  0.17300000000E+03 0.  1.
         -6    1    1    2    0  502 -0.47785908613E+02  0.18779376235E+03 -0.56242835661E+03  0.61951969021E+03  0.17300000000E+03 0. -1.
<mgrwt>
<rscale>  2 0.25976718E+03</rscale>
<asrwt>0</asrwt>
<pdfrwt beam="1">  1       21 0.62113867E-02 0.25976718E+03</pdfrwt>
<pdfrwt beam="2">  1       21 0.31033658E+00 0.25976718E+03</pdfrwt>
<totfact> 0.51656045E+03</totfact>
</mgrwt>
</event>
<event>
 4    1  0.4017302E+000  0.1837071E+03  0.7546771E-02  0.1164263E+00
         21   -1    0    0  501  502  0.00000000000E+00  0.00000000000E+00  0.39256753230E+03  0.39256753230E+03  0.00000000000E+00 0.  1.
         21   -1    0    0  502  503 -0.00000000000E+00 -0.00000000000E+00 -0.10912940379E+03  0.10912940379E+03  0.00000000000E+00 0.  1.
          6    1    1    2  501    0 -0.56577719287E+02 -0.24865092030E+02  0.26155364723E+02  0.18555973223E+03  0.17300000000E+03 0.  1.
         -6    1    1    2    0  503  0.56577719287E+02  0.24865092030E+02  0.25728276379E+03  0.31613720386E+03  0.17300000000E+03 0.  1.
<mgrwt>
<rscale>  2 0.18370713E+03</rscale>
<asrwt>0</asrwt>
<pdfrwt beam="1">  1       21 0.60395004E-01 0.18370713E+03</pdfrwt>
<pdfrwt beam="2">  1       21 0.16789139E-01 0.18370713E+03</pdfrwt>
<totfact> 0.81854200E+04</totfact>
</mgrwt>
</event>
<event>
 4    1  0.4017302E+000  0.1742493E+03  0.7546771E-02  0.1173488E+00
         21   -1    0    0  501  502  0.00000000000E+00  0.00000000000E+00  0.72940745980E+02  0.72940745980E+02  0.00000000000E+00 0. -1.
         21   -1    0    0  502  503 -0.00000000000E+00 -0.00000000000E+00 -0.55735681149E+03  0.55735681149E+03  0.00000000000E+00 0. -1.
          6    1    1    2  501    0  0.20042348939E+02  0.56687074486E+01 -0.83646913096E+02  0.19328640942E+03  0.17300000000E+03 0.  1.
         -6    1    1    2    0  503 -0.20042348939E+02 -0.56687074486E+01 -0.40076915241E+03  0.43701114805E+03  0.17300000000E+03 0.  1.
<mgrwt>
<rscale>  2 0.17424933E+03</rscale>
<asrwt>0</asrwt>
<pdfrwt beam="1">  1       21 0.11221653E-01 0.17424933E+03</pdfrwt>
<pdfrwt beam="2">  1       21 0.85747202E-01 0.17424933E+03</pdfrwt>
<totfact> 0.78308105E+04</totfact>
</mgrwt>
</event>
<event>
 4    1  0.4017302E+000  0.1898526E+03  0.7546771E-02  0.1158594E+00
         21   -1    0    0  501  502  0.00000000000E+00  0.00000000000E+00  0.45459856992E+03  0.45459856992E+03  0.00000000000E+00 0. -1.
         21   -1    0    0  502  503 -0.00000000000E+00 -0.00000000000E+00 -0.18980250401E+03  0.18980250401E+03  0.00000000000E+00 0. -1.
          6    1    1    2  501    0  0.73987638026E+02 -0.25315020877E+02  0.37825683099E+03  0.42322836749E+03  0.17300000000E+03 0. -1.
         -6    1    1    2    0  503 -0.73987638026E+02  0.25315020877E+02 -0.11346076508E+03  0.22117270644E+03  0.17300000000E+03 0. -1.
<mgrwt>
<rscale>  2 0.18985263E+03</rscale>
<asrwt>0</asrwt>
<pdfrwt beam="1">  1       21 0.69938241E-01 0.18985263E+03</pdfrwt>
<pdfrwt beam="2">  1       21 0.29200385E-01 0.18985263E+03</pdfrwt>
<totfact> 0.20886253E+04</totfact>
</mgrwt>
</event>
<event>
 4    1  0.4017302E+000  0.2660085E+03  0.7546771E-02  0.1103586E+00
         21   -1    0    0  503  502  0.00000000000E+00  0.00000000000E+00  0.38097922617E+02  0.38097922617E+02  0.00000000000E+00 0.  1.
         21   -1    0    0  501  503 -0.00000000000E+00 -0.00000000000E+00 -0.25595643944E+04  0.25595643944E+04  0.00000000000E+00 0. -1.
          6    1    1    2  501    0 -0.19793631106E+03  0.40653632864E+02 -0.19410481863E+04  0.19591907928E+04  0.17300000000E+03 0.  1.
         -6    1    1    2    0  502  0.19793631106E+03 -0.40653632864E+02 -0.58041828553E+03  0.63847152425E+03  0.17300000000E+03 0.  1.
<mgrwt>
<rscale>  2 0.26600846E+03</rscale>
<asrwt>0</asrwt>
<pdfrwt beam="1">  1       21 0.58612186E-02 0.26600846E+03</pdfrwt>
<pdfrwt beam="2">  1       21 0.39377916E+00 0.26600846E+03</pdfrwt>
<totfact> 0.17842731E+03</totfact>
</mgrwt>
</event>
<event>
 4    1  0.4017302E+000  0.2001969E+03  0.7546771E-02  0.1149573E+00
         21   -1    0    0  501  502  0.00000000000E+00  0.00000000000E+00  0.15289230168E+03  0.15289230168E+03  0.00000000000E+00 0. -1.
         21   -1    0    0  502  503 -0.00000000000E+00 -0.00000000000E+00 -0.31875518901E+03  0.31875518901E+03  0.00000000000E+00 0.  1.
          6    1    1    2  501    0  0.98769026694E+02 -0.19861222497E+02  0.16456886727E+02  0.20087214320E+03  0.17300000000E+03 0. -1.
         -6    1    1    2    0  503 -0.98769026694E+02  0.19861222497E+02 -0.18231977405E+03  0.27077534748E+03  0.17300000000E+03 0.  1.
<mgrwt>
<rscale>  2 0.20019688E+03</rscale>
<asrwt>0</asrwt>
<pdfrwt beam="1">  1       21 0.23521893E-01 0.20019688E+03</pdfrwt>
<pdfrwt beam="2">  1       21 0.49039259E-01 0.20019688E+03</pdfrwt>
<totfact> 0.67255313E+04</totfact>
</mgrwt>
</event>
<event>
 4    1  0.4017302E+000  0.1938801E+03  0.7546771E-02  0.1155008E+00
         21   -1    0    0  503  502  0.00000000000E+00  0.00000000000E+00  0.21698981351E+03  0.21698981351E+03  0.00000000000E+00 0. -1.
         21   -1    0    0  501  503 -0.00000000000E+00 -0.00000000000E+00 -0.23975051336E+03  0.23975051336E+03  0.00000000000E+00 0. -1.
          6    1    1    2  501    0  0.73979191147E+02  0.46771356850E+02 -0.13167113072E+03  0.23436460315E+03  0.17300000000E+03 0. -1.
         -6    1    1    2    0  502 -0.73979191147E+02 -0.46771356850E+02  0.10891043087E+03  0.22237572371E+03  0.17300000000E+03 0. -1.
<mgrwt>
<rscale>  2 0.19388007E+03</rscale>
<asrwt>0</asrwt>
<pdfrwt beam="1">  1       21 0.33383049E-01 0.19388007E+03</pdfrwt>
<pdfrwt beam="2">  1       21 0.36884694E-01 0.19388007E+03</pdfrwt>
<totfact> 0.61229608E+04</totfact>
</mgrwt>
</event>
<event>
 4    1  0.4017302E+000  0.2105913E+03  0.7546771E-02  0.1141099E+00
         21   -1    0    0  503  502  0.00000000000E+00  0.00000000000E+00  0.87448396088E+02  0.87448396088E+02  0.00000000000E+00 0. -1.
         21   -1    0    0  501  503 -0.00000000000E+00 -0.00000000000E+00 -0.50776884039E+03  0.50776884039E+03  0.00000000000E+00 0. -1.
          6    1    1    2  501    0 -0.78545216502E+02 -0.90831434143E+02 -0.19969845920E+03  0.29022090736E+03  0.17300000000E+03 0. -1.
         -6    1    1    2    0  502  0.78545216502E+02  0.90831434143E+02 -0.22062198511E+03  0.30499632912E+03  0.17300000000E+03 0. -1.
<mgrwt>
<rscale>  2 0.21059131E+03</rscale>
<asrwt>0</asrwt>
<pdfrwt beam="1">  1       21 0.13453600E-01 0.21059131E+03</pdfrwt>
<pdfrwt beam="2">  1       21 0.78118281E-01 0.21059131E+03</pdfrwt>
<totfact> 0.68776801E+04</totfact>
</mgrwt>
</event>
<event>
 4    1  0.4017302E+000  0.1820197E+03  0.7546771E-02  0.1165863E+00
         21   -1    0    0  503  502  0.00000000000E+00  0.00000000000E+00  0.49472370532E+03  0.49472370532E+03  0.00000000000E+00 0.  1.
         21   -1    0    0  501  503 -0.00000000000E+00 -0.00000000000E+00 -0.12274935132E+03  0.12274935132E+03  0.00000000000E+00 0. -1.
          6    1    1    2  501    0 -0.39336725964E+02 -0.40679082719E+02 -0.22135271314E+02  0.18336067195E+03  0.17300000000E+03 0. -1.
         -6    1    1    2    0  502  0.39336725964E+02  0.40679082719E+02  0.39410962531E+03  0.43411238469E+03  0.17300000000E+03 0.  1.
<mgrwt>
<rscale>  2 0.18201969E+03</rscale>
<asrwt>0</asrwt>
<pdfrwt beam="1">  1       21 0.76111338E-01 0.18201969E+03</pdfrwt>
<pdfrwt beam="2">  1       21 0.18884516E-01 0.18201969E+03</pdfrwt>
<totfact> 0.39735236E+04</totfact>
</mgrwt>
</event>
<event>
 4    1  0.4017302E+000  0.2116333E+03  0.7546771E-02  0.1140279E+00
         21   -1    0    0  501  502  0.00000000000E+00  0.00000000000E+00  0.49220226756E+03  0.49220226756E+03  0.00000000000E+00 0.  1.
         21   -1    0    0  502  503 -0.00000000000E+00 -0.00000000000E+00 -0.94906513810E+02  0.94906513810E+02  0.00000000000E+00 0.  1.
          6    1    1    2  501    0  0.88318822058E+02  0.84020421973E+02  0.13906328027E+03  0.25323357115E+03  0.17300000000E+03 0.  1.
         -6    1    1    2    0  503 -0.88318822058E+02 -0.84020421973E+02  0.25823247348E+03  0.33387521022E+03  0.17300000000E+03 0.  1.
<mgrwt>
<rscale>  2 0.21163328E+03</rscale>
<asrwt>0</asrwt>
<pdfrwt beam="1">  1       21 0.75723424E-01 0.21163328E+03</pdfrwt>
<pdfrwt beam="2">  1       21 0.14601002E-01 0.21163328E+03</pdfrwt>
<totfact> 0.63552984E+04</totfact>
</mgrwt>
</event>
<event>
 4    1  0.4017302E+000  0.1980572E+03  0.7546771E-02  0.1151389E+00
         21   -1    0    0  501  502  0.00000000000E+00  0.00000000000E+00  0.25500537131E+03  0.25500537131E+03  0.00000000000E+00 0. -1.
         21   -1    0    0  502  503 -0.00000000000E+00 -0.00000000000E+00 -0.24944541448E+03  0.24944541448E+03  0.00000000000E+00 0. -1.
          6    1    1    2  501    0 -0.89181479455E+02  0.36664691374E+02  0.15894094381E+03  0.25394656818E+03  0.17300000000E+03 0. -1.
         -6    1    1    2    0  503  0.89181479455E+02 -0.36664691374E+02 -0.15338098698E+03  0.25050421760E+03  0.17300000000E+03 0. -1.
<mgrwt>
<rscale>  2 0.19805715E+03</rscale>
<asrwt>0</asrwt>
<pdfrwt beam="1">  1       21 0.39231595E-01 0.19805715E+03</pdfrwt>
<pdfrwt beam="2">  1       21 0.38376218E-01 0.19805715E+03</pdfrwt>
<totfact> 0.40902330E+04</totfact>
</mgrwt>
</event>
<event>
 4    1  0.4017302E+000  0.2228327E+03  0.7546771E-02  0.1131789E+00
         21   -1    0    0  501  502  0.00000000000E+00  0.00000000000E+00  0.31088200185E+03  0.31088200185E+03  0.00000000000E+00 0. -1.
         21   -1    0    0  502  503 -0.00000000000E+00 -0.00000000000E+00 -0.19060394290E+03  0.19060394290E+03  0.00000000000E+00 0. -1.
          6    1    1    2  501    0  0.12969918183E+03  0.53884276581E+02  0.16106942368E+03  0.27495045422E+03  0.17300000000E+03 0. -1.
         -6    1    1    2    0  503 -0.12969918183E+03 -0.53884276581E+02 -0.40791364732E+02  0.22653549053E+03  0.17300000000E+03 0. -1.
<mgrwt>
<rscale>  2 0.22283266E+03</rscale>
<asrwt>0</asrwt>
<pdfrwt beam="1">  1       21 0.47828000E-01 0.22283266E+03</pdfrwt>
<pdfrwt beam="2">  1       21 0.29323684E-01 0.22283266E+03</pdfrwt>
<totfact> 0.45880645E+04</totfact>
</mgrwt>
</event>
<event>
 4    1  0.4017302E+000  0.2031302E+03  0.7546771E-02  0.1147125E+00
         21   -1    0    0  503  502  0.00000000000E+00  0.00000000000E+00  0.90147028703E+02  0.90147028703E+02  0.00000000000E+00 0. -1.
         21   -1    0    0  501  503 -0.00000000000E+00 -0.00000000000E+00 -0.47114533238E+03  0.47114533238E+03  0.00000000000E+00 0. -1.
          6    1    1    2  501    0  0.53251271031E+02  0.92180109007E+02 -0.23787806002E+03  0.31280639668E+03  0.17300000000E+03 0. -1.
         -6    1    1    2    0  502 -0.53251271031E+02 -0.92180109007E+02 -0.14312024366E+03  0.24848596441E+03  0.17300000000E+03 0. -1.
<mgrwt>
<rscale>  2 0.20313018E+03</rscale>
<asrwt>0</asrwt>
<pdfrwt beam="1">  1       21 0.13868774E-01 0.20313018E+03</pdfrwt>
<pdfrwt beam="2">  1       21 0.72483898E-01 0.20313018E+03</pdfrwt>
<totfact> 0.77223700E+04</totfact>
</mgrwt>
</event>
<event>
 4    1  0.4017302E+000  0.2277439E+03  0.7546771E-02  0.1128238E+00
         21   -1    0    0  503  502  0.00000000000E+00  0.00000000000E+00  0.25118772198E+03  0.25118772198E+03  0.00000000000E+00 0.  1.
         21   -1    0    0  501  503 -0.00000000000E+00 -0.00000000000E+00 -0.41275465822E+03  0.41275465822E+03  0.00000000000E+00 0. -1.
          6    1    1    2  501    0 -0.10878385617E+03 -0.10052047066E+03 -0.31545950411E+03  0.38907838686E+03  0.17300000000E+03 0. -1.
         -6    1    1    2    0  502  0.10878385617E+03  0.10052047066E+03  0.15389256788E+03  0.27486399334E+03  0.17300000000E+03 0.  1.
<mgrwt>
<rscale>  2 0.22774392E+03</rscale>
<asrwt>0</asrwt>
<pdfrwt beam="1">  1       21 0.38644266E-01 0.22774392E+03</pdfrwt>
<pdfrwt beam="2">  1       21 0.63500715E-01 0.22774392E+03</pdfrwt>
<totfact> 0.14489762E+04</totfact>
</mgrwt>
</event>
<event>
 4    1  0.4017302E+000  0.3928435E+03  0.7546771E-02  0.1046286E+00
         21   -1    0    0  501  502  0.00000000000E+00  0.00000000000E+00  0.38945390979E+03  0.38945390979E+03  0.00000000000E+00 0. -1.
         21   -1    0    0  502  503 -0.00000000000E+00 -0.00000000000E+00 -0.39735675300E+03  0.39735675300E+03  0.00000000000E+00 0. -1.
          6    1    1    2  501    0 -0.23728272021E+03  0.26094811320E+03 -0.24595475044E+02  0.39361268334E+03  0.17300000000E+03 0. -1.
         -6    1    1    2    0  503  0.23728272021E+03 -0.26094811320E+03  0.16692631829E+02  0.39319797946E+03  0.17300000000E+03 0. -1.
<mgrwt>
<rscale>  2 0.39284349E+03</rscale>
<asrwt>0</asrwt>
<pdfrwt beam="1">  1       21 0.59915986E-01 0.39284349E+03</pdfrwt>
<pdfrwt beam="2">  1       21 0.61131808E-01 0.39284349E+03</pdfrwt>
<totfact> 0.58227728E+03</totfact>
</mgrwt>
</event>
<event>
 4    1  0.4017302E+000  0.2050680E+03  0.7546771E-02  0.1145532E+00
         21   -1    0    0  503  502  0.00000000000E+00  0.00000000000E+00  0.26863449172E+03  0.26863449172E+03  0.00000000000E+00 0. -1.
         21   -1    0    0  501  503 -0.00000000000E+00 -0.00000000000E+00 -0.15657150237E+03  0.15657150237E+03  0.00000000000E+00 0. -1.
          6    1    1    2  501    0 -0.91701952725E+02 -0.60947656901E+02  0.58897029030E+02  0.21335820829E+03  0.17300000000E+03 0. -1.
         -6    1    1    2    0  502  0.91701952725E+02  0.60947656901E+02  0.53165960318E+02  0.21184778581E+03  0.17300000000E+03 0. -1.
<mgrwt>
<rscale>  2 0.20506795E+03</rscale>
<asrwt>0</asrwt>
<pdfrwt beam="1">  1       21 0.41328383E-01 0.20506795E+03</pdfrwt>
<pdfrwt beam="2">  1       21 0.24087924E-01 0.20506795E+03</pdfrwt>
<totfact> 0.91192939E+04</totfact>
</mgrwt>
</event>
<event>
 4    1  0.4017302E+000  0.2218272E+03  0.7546771E-02  0.1132528E+00
         21   -1    0    0  503  502  0.00000000000E+00  0.00000000000E+00  0.84227557036E+03  0.84227557036E+03  0.00000000000E+00 0.  1.
         21   -1    0    0  501  503 -0.00000000000E+00 -0.00000000000E+00 -0.61823355216E+02  0.61823355216E+02  0.00000000000E+00 0.  1.
          6    1    1    2  501    0  0.12220930961E+03 -0.65902841018E+02  0.49626008000E+03  0.54358197800E+03  0.17300000000E+03 0.  1.
         -6    1    1    2    0  502 -0.12220930961E+03  0.65902841018E+02  0.28419213514E+03  0.36051694757E+03  0.17300000000E+03 0.  1.
<mgrwt>
<rscale>  2 0.22182718E+03</rscale>
<asrwt>0</asrwt>
<pdfrwt beam="1">  1       21 0.12958085E+00 0.22182718E+03</pdfrwt>
<pdfrwt beam="2">  1       21 0.95112860E-02 0.22182718E+03</pdfrwt>
<totfact> 0.38009155E+04</totfact>
</mgrwt>
</event>
<event>
 4    1  0.4017302E+000  0.1851392E+03  0.7546771E-02  0.1162920E+00
         21   -1    0    0  503  502  0.00000000000E+00  0.00000000000E+00  0.82761197771E+03  0.82761197771E+03  0.00000000000E+00 0.  1.
         21   -1    0    0  501  503 -0.00000000000E+00 -0.00000000000E+00 -0.42166438505E+02  0.42166438505E+02  0.00000000000E+00 0.  1.
          6    1    1    2  501    0  0.20022697193E+02  0.62822215576E+02  0.45073188603E+03  0.48727381651E+03  0.17300000000E+03 0. -1.
         -6    1    1    2    0  502 -0.20022697193E+02 -0.62822215576E+02  0.33471365318E+03  0.38250459971E+03  0.17300000000E+03 0. -1.
<mgrwt>
<rscale>  2 0.18513924E+03</rscale>
<asrwt>0</asrwt>
<pdfrwt beam="1">  1       21 0.12732491E+00 0.18513924E+03</pdfrwt>
<pdfrwt beam="2">  1       21 0.64871450E-02 0.18513924E+03</pdfrwt>
<totfact> 0.78830506E+04</totfact>
</mgrwt>
</event>
<event>
 4    1  0.4017302E+000  0.1775757E+03  0.7546771E-02  0.1170170E+00
         21   -1    0    0  501  502  0.00000000000E+00  0.00000000000E+00  0.26006898385E+03  0.26006898385E+03  0.00000000000E+00 0. -1.
         21   -1    0    0  502  503 -0.00000000000E+00 -0.00000000000E+00 -0.30575913275E+03  0.30575913275E+03  0.00000000000E+00 0. -1.
          6    1    1    2  501    0 -0.31498369891E+01  0.39927723443E+02  0.19692812854E+03  0.26516755530E+03  0.17300000000E+03 0. -1.
         -6    1    1    2    0  503  0.31498369891E+01 -0.39927723443E+02 -0.24261827745E+03  0.30066056130E+03  0.17300000000E+03 0. -1.
<mgrwt>
<rscale>  2 0.17757574E+03</rscale>
<asrwt>0</asrwt>
<pdfrwt beam="1">  1       21 0.40010613E-01 0.17757574E+03</pdfrwt>
<pdfrwt beam="2">  1       21 0.47039867E-01 0.17757574E+03</pdfrwt>
<totfact> 0.26259304E+04</totfact>
</mgrwt>
</event>
<event>
 4    1  0.4017302E+000  0.1838085E+03  0.7546771E-02  0.1164167E+00
         21   -1    0    0  501  502  0.00000000000E+00  0.00000000000E+00  0.17191072660E+03  0.17191072660E+03  0.00000000000E+00 0. -1.
         21   -1    0    0  502  503 -0.00000000000E+00 -0.00000000000E+00 -0.14113999068E+04  0.14113999068E+04  0.00000000000E+00 0. -1.
          6    1    1    2  501    0 -0.57086572959E+02 -0.24447292692E+02  0.11472877075E+03  0.21667542032E+03  0.17300000000E+03 0. -1.
         -6    1    1    2    0  503  0.57086572959E+02  0.24447292692E+02 -0.13542179510E+04  0.13666352131E+04  0.17300000000E+03 0. -1.
<mgrwt>
<rscale>  2 0.18380845E+03</rscale>
<asrwt>0</asrwt>
<pdfrwt beam="1">  1       21 0.26447803E-01 0.18380845E+03</pdfrwt>
<pdfrwt beam="2">  1       21 0.21713846E+00 0.18380845E+03</pdfrwt>
<totfact> 0.14391130E+03</totfact>
</mgrwt>
</event>
<event>
 4    1  0.4017302E+000  0.1903056E+03  0.7546771E-02  0.1158186E+00
         21   -1    0    0  503  502  0.00000000000E+00  0.00000000000E+00  0.44130680091E+02  0.44130680091E+02  0.00000000000E+00 0. -1.
         21   -1    0    0  501  503 -0.00000000000E+00 -0.00000000000E+00 -0.83522482038E+03  0.83522482038E+03  0.00000000000E+00 0.  1.
          6    1    1    2  501    0  0.23639985609E+02  0.75686014416E+02 -0.45361099389E+03  0.49191376833E+03  0.17300000000E+03 0.  1.
         -6    1    1    2    0  502 -0.23639985609E+02 -0.75686014416E+02 -0.33748314640E+03  0.38744173213E+03  0.17300000000E+03 0. -1.
<mgrwt>
<rscale>  2 0.19030560E+03</rscale>
<asrwt>0</asrwt>
<pdfrwt beam="1">  1       21 0.67893358E-02 0.19030560E+03</pdfrwt>
<pdfrwt beam="2">  1       21 0.12849612E+00 0.19030560E+03</pdfrwt>
<totfact> 0.71058517E+04</totfact>
</mgrwt>
</event>
<event>
 4    1  0.4017302E+000  0.2081735E+03  0.7546771E-02  0.1143021E+00
         21   -1    0    0  501  502  0.00000000000E+00  0.00000000000E+00  0.51233231480E+03  0.51233231480E+03  0.00000000000E+00 0. -1.
         21   -1    0    0  502  503 -0.00000000000E+00 -0.00000000000E+00 -0.92611924985E+02  0.92611924985E+02  0.00000000000E+00 0. -1.
          6    1    1    2  501    0  0.11088185162E+03 -0.33353267979E+02  0.12081817784E+03  0.24069328532E+03  0.17300000000E+03 0. -1.
         -6    1    1    2    0  503 -0.11088185162E+03  0.33353267979E+02  0.29890221198E+03  0.36425095446E+03  0.17300000000E+03 0. -1.
<mgrwt>
<rscale>  2 0.20817355E+03</rscale>
<asrwt>0</asrwt>
<pdfrwt beam="1">  1       21 0.78820355E-01 0.20817355E+03</pdfrwt>
<pdfrwt beam="2">  1       21 0.14247989E-01 0.20817355E+03</pdfrwt>
<totfact> 0.60810456E+04</totfact>
</mgrwt>
</event>
<event>
 4    1  0.4017302E+000  0.1807011E+03  0.7546771E-02  0.1167126E+00
         21   -1    0    0  503  502  0.00000000000E+00  0.00000000000E+00  0.59819883471E+03  0.59819883471E+03  0.00000000000E+00 0.  1.
         21   -1    0    0  501  503 -0.00000000000E+00 -0.00000000000E+00 -0.17956155120E+03  0.17956155120E+03  0.00000000000E+00 0. -1.
          6    1    1    2  501    0  0.51582988358E+02  0.79423934165E+01 -0.11511271882E+03  0.21425177791E+03  0.17300000000E+03 0. -1.
         -6    1    1    2    0  502 -0.51582988358E+02 -0.79423934165E+01  0.53375000234E+03  0.56350860801E+03  0.17300000000E+03 0.  1.
<mgrwt>
<rscale>  2 0.18070110E+03</rscale>
<asrwt>0</asrwt>
<pdfrwt beam="1">  1       21 0.92030589E-01 0.18070110E+03</pdfrwt>
<pdfrwt beam="2">  1       21 0.27624854E-01 0.18070110E+03</pdfrwt>
<totfact> 0.12576060E+04</totfact>
</mgrwt>
</event>
<event>
 4    1  0.4017302E+000  0.2042987E+03  0.7546771E-02  0.1146162E+00
         21   -1    0    0  503  502  0.00000000000E+00  0.00000000000E+00  0.61222266232E+03  0.61222266232E+03  0.00000000000E+00 0.  1.
         21   -1    0    0  501  503 -0.00000000000E+00 -0.00000000000E+00 -0.70788165305E+02  0.70788165305E+02  0.00000000000E+00 0.  1.
          6    1    1    2  501    0 -0.21338777635E+02 -0.10655326496E+03  0.33633881888E+03  0.39352476769E+03  0.17300000000E+03 0.  1.
         -6    1    1    2    0  502  0.21338777635E+02  0.10655326496E+03  0.20509567813E+03  0.28948605993E+03  0.17300000000E+03 0.  1.
<mgrwt>
<rscale>  2 0.20429866E+03</rscale>
<asrwt>0</asrwt>
<pdfrwt beam="1">  1       21 0.94188098E-01 0.20429866E+03</pdfrwt>
<pdfrwt beam="2">  1       21 0.10890487E-01 0.20429866E+03</pdfrwt>
<totfact> 0.65570174E+04</totfact>
</mgrwt>
</event>
<event>
 4    1  0.4017302E+000  0.3952339E+03  0.7546771E-02  0.1045443E+00
         21   -1    0    0  501  502  0.00000000000E+00  0.00000000000E+00  0.27145028885E+03  0.27145028885E+03  0.00000000000E+00 0. -1.
         21   -1    0    0  502  503 -0.00000000000E+00 -0.00000000000E+00 -0.61783905772E+03  0.61783905772E+03  0.00000000000E+00 0.  1.
          6    1    1    2  501    0  0.28063855872E+03  0.21799741302E+03 -0.56746796838E+02  0.39928695405E+03  0.17300000000E+03 0.  1.
         -6    1    1    2    0  503 -0.28063855872E+03 -0.21799741302E+03 -0.28964197203E+03  0.49000239253E+03  0.17300000000E+03 0. -1.
<mgrwt>
<rscale>  2 0.39523395E+03</rscale>
<asrwt>0</asrwt>
<pdfrwt beam="1">  1       21 0.41761583E-01 0.39523395E+03</pdfrwt>
<pdfrwt beam="2">  1       21 0.95052162E-01 0.39523395E+03</pdfrwt>
<totfact> 0.45665386E+03</totfact>
</mgrwt>
</event>
<event>
 4    1  0.4017302E+000  0.3300128E+03  0.7546771E-02  0.1071131E+00
         21   -1    0    0  503  502  0.00000000000E+00  0.00000000000E+00  0.18503453909E+03  0.18503453909E+03  0.00000000000E+00 0.  1.
         21   -1    0    0  501  503 -0.00000000000E+00 -0.00000000000E+00 -0.72966630767E+03  0.72966630767E+03  0.00000000000E+00 0.  1.
          6    1    1    2  501    0  0.26784600271E+03 -0.85076095989E+02 -0.47342083689E+03  0.57709246406E+03  0.17300000000E+03 0.  1.
         -6    1    1    2    0  502 -0.26784600271E+03  0.85076095989E+02 -0.71210931684E+02  0.33760838270E+03  0.17300000000E+03 0.  1.
<mgrwt>
<rscale>  2 0.33001276E+03</rscale>
<asrwt>0</asrwt>
<pdfrwt beam="1">  1       21 0.28466853E-01 0.33001276E+03</pdfrwt>
<pdfrwt beam="2">  1       21 0.11225635E+00 0.33001276E+03</pdfrwt>
<totfact> 0.67670595E+03</totfact>
</mgrwt>
</event>
<event>
 4    1  0.4017302E+000  0.1819231E+03  0.7546771E-02  0.1165955E+00
         21   -1    0    0  503  502  0.00000000000E+00  0.00000000000E+00  0.65663125121E+02  0.65663125121E+02  0.00000000000E+00 0. -1.
         21   -1    0    0  501  503 -0.00000000000E+00 -0.00000000000E+00 -0.51802214770E+03  0.51802214770E+03  0.00000000000E+00 0. -1.
          6    1    1    2  501    0 -0.54038312975E+02  0.15711916317E+02 -0.27414839682E+03  0.32901876400E+03  0.17300000000E+03 0. -1.
         -6    1    1    2    0  502  0.54038312975E+02 -0.15711916317E+02 -0.17821062576E+03  0.25466650883E+03  0.17300000000E+03 0. -1.
<mgrwt>
<rscale>  2 0.18192307E+03</rscale>
<asrwt>0</asrwt>
<pdfrwt beam="1">  1       21 0.10102019E-01 0.18192307E+03</pdfrwt>
<pdfrwt beam="2">  1       21 0.79695714E-01 0.18192307E+03</pdfrwt>
<totfact> 0.11101831E+05</totfact>
</mgrwt>
</event>
<event>
 4    1  0.4017302E+000  0.2411995E+03  0.7546771E-02  0.1118996E+00
         21   -1    0    0  503  502  0.00000000000E+00  0.00000000000E+00  0.52238700954E+03  0.52238700954E+03  0.00000000000E+00 0. -1.
         21   -1    0    0  501  503 -0.00000000000E+00 -0.00000000000E+00 -0.14415413590E+03  0.14415413590E+03  0.00000000000E+00 0.  1.
          6    1    1    2  501    0  0.16672078569E+03 -0.21268653404E+02  0.30178053459E+02  0.24308000928E+03  0.17300000000E+03 0. -1.
         -6    1    1    2    0  502 -0.16672078569E+03  0.21268653404E+02  0.34805482018E+03  0.42346113617E+03  0.17300000000E+03 0. -1.
<mgrwt>
<rscale>  2 0.24119945E+03</rscale>
<asrwt>0</asrwt>
<pdfrwt beam="1">  1       21 0.80367231E-01 0.24119945E+03</pdfrwt>
<pdfrwt beam="2">  1       21 0.22177560E-01 0.24119945E+03</pdfrwt>
<totfact> 0.25212245E+04</totfact>
</mgrwt>
</event>
<event>
 4    1  0.4017302E+000  0.1915128E+03  0.7546771E-02  0.1157104E+00
         21   -1    0    0  501  502  0.00000000000E+00  0.00000000000E+00  0.16939884941E+03  0.16939884941E+03  0.00000000000E+00 0.  1.
         21   -1    0    0  502  503 -0.00000000000E+00 -0.00000000000E+00 -0.21912905923E+03  0.21912905923E+03  0.00000000000E+00 0.  1.
          6    1    1    2  501    0 -0.53147164204E+02  0.62638240078E+02 -0.36420138958E+01  0.19154747309E+03  0.17300000000E+03 0.  1.
         -6    1    1    2    0  503  0.53147164204E+02 -0.62638240078E+02 -0.46088195929E+02  0.19698043554E+03  0.17300000000E+03 0.  1.
<mgrwt>
<rscale>  2 0.19151285E+03</rscale>
<asrwt>0</asrwt>
<pdfrwt beam="1">  1       21 0.26061362E-01 0.19151285E+03</pdfrwt>
<pdfrwt beam="2">  1       21 0.33712163E-01 0.19151285E+03</pdfrwt>
<totfact> 0.11861787E+05</totfact>
</mgrwt>
</event>
<event>
 4    1  0.4017302E+000  0.1743785E+03  0.7546771E-02  0.1173357E+00
         21   -1    0    0  503  502  0.00000000000E+00  0.00000000000E+00  0.30221913445E+03  0.30221913445E+03  0.00000000000E+00 0.  1.
         21   -1    0    0  501  503 -0.00000000000E+00 -0.00000000000E+00 -0.14340128650E+03  0.14340128650E+03  0.00000000000E+00 0.  1.
          6    1    1    2  501    0 -0.11159881392E+02 -0.18823293165E+02 -0.42296378646E+02  0.17943478750E+03  0.17300000000E+03 0.  1.
         -6    1    1    2    0  502  0.11159881392E+02  0.18823293165E+02  0.20111422660E+03  0.26618563346E+03  0.17300000000E+03 0.  1.
<mgrwt>
<rscale>  2 0.17437849E+03</rscale>
<asrwt>0</asrwt>
<pdfrwt beam="1">  1       21 0.46495251E-01 0.17437849E+03</pdfrwt>
<pdfrwt beam="2">  1       21 0.22061736E-01 0.17437849E+03</pdfrwt>
<totfact> 0.85696993E+04</totfact>
</mgrwt>
</event>
<event>
 4    1  0.4017302E+000  0.3309977E+03  0.7546771E-02  0.1070696E+00
         21   -1    0    0  501  502  0.00000000000E+00  0.00000000000E+00  0.14497799948E+03  0.14497799948E+03  0.00000000000E+00 0.  1.
         21   -1    0    0  502  503 -0.00000000000E+00 -0.00000000000E+00 -0.75582478939E+03  0.75582478939E+03  0.00000000000E+00 0. -1.
          6    1    1    2  501    0  0.15199785534E+03 -0.23775438074E+03 -0.31127128234E+03  0.45436692749E+03  0.17300000000E+03 0. -1.
         -6    1    1    2    0  503 -0.15199785534E+03  0.23775438074E+03 -0.29957550758E+03  0.44643586138E+03  0.17300000000E+03 0.  1.
<mgrwt>
<rscale>  2 0.33099772E+03</rscale>
<asrwt>0</asrwt>
<pdfrwt beam="1">  1       21 0.22304308E-01 0.33099772E+03</pdfrwt>
<pdfrwt beam="2">  1       21 0.11628074E+00 0.33099772E+03</pdfrwt>
<totfact> 0.99399079E+03</totfact>
</mgrwt>
</event>
<event>
 4    1  0.4017302E+000  0.1958126E+03  0.7546771E-02  0.1153321E+00
         21   -1    0    0  503  502  0.00000000000E+00  0.00000000000E+00  0.21143208668E+03  0.21143208668E+03  0.00000000000E+00 0. -1.
         21   -1    0    0  501  503 -0.00000000000E+00 -0.00000000000E+00 -0.67144634795E+03  0.67144634795E+03  0.00000000000E+00 0. -1.
          6    1    1    2  501    0 -0.62145289319E+02  0.67465190773E+02 -0.60715120405E+03  0.63794605848E+03  0.17300000000E+03 0. -1.
         -6    1    1    2    0  502  0.62145289319E+02 -0.67465190773E+02  0.14713694279E+03  0.24493237614E+03  0.17300000000E+03 0. -1.
<mgrwt>
<rscale>  2 0.19581264E+03</rscale>
<asrwt>0</asrwt>
<pdfrwt beam="1">  1       21 0.32528014E-01 0.19581264E+03</pdfrwt>
<pdfrwt beam="2">  1       21 0.10329944E+00 0.19581264E+03</pdfrwt>
<totfact> 0.68938485E+03</totfact>
</mgrwt>
</event>
<event>
 4    1  0.4017302E+000  0.2152685E+03  0.7546771E-02  0.1137461E+00
         21   -1    0    0  503  502  0.00000000000E+00  0.00000000000E+00  0.84437287826E+03  0.84437287826E+03  0.00000000000E+00 0.  1.
         21   -1    0    0  501  503 -0.00000000000E+00 -0.00000000000E+00 -0.62822494326E+02  0.62822494326E+02  0.00000000000E+00 0.  1.
          6    1    1    2  501    0 -0.10499316099E+03  0.73402837106E+02  0.55204302987E+03  0.59253020781E+03  0.17300000000E+03 0.  1.
         -6    1    1    2    0  502  0.10499316099E+03 -0.73402837106E+02  0.22950735406E+03  0.31466516477E+03  0.17300000000E+03 0.  1.
<mgrwt>
<rscale>  2 0.21526853E+03</rscale>
<asrwt>0</asrwt>
<pdfrwt beam="1">  1       21 0.12990351E+00 0.21526853E+03</pdfrwt>
<pdfrwt beam="2">  1       21 0.96649997E-02 0.21526853E+03</pdfrwt>
<totfact> 0.36844306E+04</totfact>
</mgrwt>
</event>
<event>
 4    1  0.4017302E+000  0.2222458E+03  0.7546771E-02  0.1132220E+00
         21   -1    0    0  503  502  0.00000000000E+00  0.00000000000E+00  0.11444817767E+04  0.11444817767E+04  0.00000000000E+00 0.  1.
         21   -1    0    0  501  503 -0.00000000000E+00 -0.00000000000E+00 -0.11682296613E+03  0.11682296613E+03  0.00000000000E+00 0. -1.
          6    1    1    2  501    0 -0.12097769400E+03 -0.69488114757E+02  0.13037498759E+02  0.22262788889E+03  0.17300000000E+03 0. -1.
         -6    1    1    2    0  502  0.12097769400E+03  0.69488114757E+02  0.10146213118E+04  0.10386768539E+04  0.17300000000E+03 0.  1.
<mgrwt>
<rscale>  2 0.22224581E+03</rscale>
<asrwt>0</asrwt>
<pdfrwt beam="1">  1       21 0.17607411E+00 0.22224581E+03</pdfrwt>
<pdfrwt beam="2">  1       21 0.17972765E-01 0.22224581E+03</pdfrwt>
<totfact> 0.53170562E+03</totfact>
</mgrwt>
</event>
<event>
 4    1  0.4017302E+000  0.2348987E+03  0.7546771E-02  0.1123239E+00
         21   -1    0    0  501  502  0.00000000000E+00  0.00000000000E+00  0.49900334023E+03  0.49900334023E+03  0.00000000000E+00 0.  1.
         21   -1    0    0  502  503 -0.00000000000E+00 -0.00000000000E+00 -0.11092454484E+03  0.11092454484E+03  0.00000000000E+00 0.  1.
          6    1    1    2  501    0  0.14104285423E+03 -0.73180081098E+02  0.21115297660E+03  0.31585279882E+03  0.17300000000E+03 0.  1.
         -6    1    1    2    0  503 -0.14104285423E+03  0.73180081098E+02  0.17692581880E+03  0.29407508625E+03  0.17300000000E+03 0.  1.
<mgrwt>
<rscale>  2 0.23489872E+03</rscale>
<asrwt>0</asrwt>
<pdfrwt beam="1">  1       21 0.76769743E-01 0.23489872E+03</pdfrwt>
<pdfrwt beam="2">  1       21 0.17065315E-01 0.23489872E+03</pdfrwt>
<totfact> 0.45812136E+04</totfact>
</mgrwt>
</event>
<event>
 4    1  0.4017302E+000  0.2080347E+03  0.7546771E-02  0.1143132E+00
         21   -1    0    0  501  502  0.00000000000E+00  0.00000000000E+00  0.37068887810E+02  0.37068887810E+02  0.00000000000E+00 0.  1.
         21   -1    0    0  502  503 -0.00000000000E+00 -0.00000000000E+00 -0.14306095575E+04  0.14306095575E+04  0.00000000000E+00 0.  1.
          6    1    1    2  501    0  0.11503739808E+03 -0.10762677497E+02 -0.38206994615E+03  0.43503549503E+03  0.17300000000E+03 0.  1.
         -6    1    1    2    0  503 -0.11503739808E+03  0.10762677497E+02 -0.10114707235E+04  0.10326429503E+04  0.17300000000E+03 0.  1.
<mgrwt>
<rscale>  2 0.20803470E+03</rscale>
<asrwt>0</asrwt>
<pdfrwt beam="1">  1       21 0.57029053E-02 0.20803470E+03</pdfrwt>
<pdfrwt beam="2">  1       21 0.22009380E+00 0.20803470E+03</pdfrwt>
<totfact> 0.21347151E+04</totfact>
</mgrwt>
</event>
<event>
 4    1  0.4017302E+000  0.1738544E+03  0.7546771E-02  0.1173887E+00
         21   -1    0    0  501  502  0.00000000000E+00  0.00000000000E+00  0.13980629801E+03  0.13980629801E+03  0.00000000000E+00 0.  1.
         21   -1    0    0  502  503 -0.00000000000E+00 -0.00000000000E+00 -0.84562123274E+03  0.84562123274E+03  0.00000000000E+00 0.  1.
          6    1    1    2  501    0  0.15900407380E+02  0.65966469689E+01  0.72181058716E+02  0.18824304487E+03  0.17300000000E+03 0.  1.
         -6    1    1    2    0  503 -0.15900407380E+02 -0.65966469689E+01 -0.77799599344E+03  0.79718448588E+03  0.17300000000E+03 0.  1.
<mgrwt>
<rscale>  2 0.17385436E+03</rscale>
<asrwt>0</asrwt>
<pdfrwt beam="1">  1       21 0.21508661E-01 0.17385436E+03</pdfrwt>
<pdfrwt beam="2">  1       21 0.13009557E+00 0.17385436E+03</pdfrwt>
<totfact> 0.88166564E+03</totfact>
</mgrwt>
</event>
<event>
 4    1  0.4017302E+000  0.1948729E+03  0.7546771E-02  0.1154138E+00
         21   -1    0    0  501  502  0.00000000000E+00  0.00000000000E+00  0.14771369052E+03  0.14771369052E+03  0.00000000000E+00 0. -1.
         21   -1    0    0  502  503 -0.00000000000E+00 -0.00000000000E+00 -0.25726124842E+03  0.25726124842E+03  0.00000000000E+00 0. -1.
          6    1    1    2  501    0 -0.29404976188E+02 -0.84745495681E+02 -0.60024918523E+02  0.20390792654E+03  0.17300000000E+03 0. -1.
         -6    1    1    2    0  503  0.29404976188E+02  0.84745495681E+02 -0.49522639375E+02  0.20106701240E+03  0.17300000000E+03 0. -1.
<mgrwt>
<rscale>  2 0.19487291E+03</rscale>
<asrwt>0</asrwt>
<pdfrwt beam="1">  1       21 0.22725184E-01 0.19487291E+03</pdfrwt>
<pdfrwt beam="2">  1       21 0.39578653E-01 0.19487291E+03</pdfrwt>
<totfact> 0.11164055E+05</totfact>
</mgrwt>
</event>
<event>
 4    1  0.4017302E+000  0.1888765E+03  0.7546771E-02  0.1159479E+00
         21   -1    0    0  501  502  0.00000000000E+00  0.00000000000E+00  0.87005138246E+02  0.87005138246E+02  0.00000000000E+00 0.  1.
         21   -1    0    0  502  503 -0.00000000000E+00 -0.00000000000E+00 -0.73710449951E+03  0.73710449951E+03  0.00000000000E+00 0. -1.
          6    1    1    2  501    0  0.32136750362E+02  0.68648034529E+02 -0.50565821256E+02  0.19552806870E+03  0.17300000000E+03 0.  1.
         -6    1    1    2    0  503 -0.32136750362E+02 -0.68648034529E+02 -0.59953354001E+03  0.62858156907E+03  0.17300000000E+03 0. -1.
<mgrwt>
<rscale>  2 0.18887648E+03</rscale>
<asrwt>0</asrwt>
<pdfrwt beam="1">  1       21 0.13385406E-01 0.18887648E+03</pdfrwt>
<pdfrwt beam="2">  1       21 0.11340069E+00 0.18887648E+03</pdfrwt>
<totfact> 0.29316159E+04</totfact>
</mgrwt>
</event>
<event>
 4    1  0.4017302E+000  0.2551509E+03  0.7546771E-02  0.1110092E+00
         21   -1    0    0  503  502  0.00000000000E+00  0.00000000000E+00  0.28773657847E+03  0.28773657847E+03  0.00000000000E+00 0. -1.
         21   -1    0    0  501  503 -0.00000000000E+00 -0.00000000000E+00 -0.27938338253E+03  0.27938338253E+03  0.00000000000E+00 0.  1.
          6    1    1    2  501    0  0.17197494722E+03  0.74817023806E+02 -0.11947681370E+03  0.28173867064E+03  0.17300000000E+03 0.  1.
         -6    1    1    2    0  502 -0.17197494722E+03 -0.74817023806E+02  0.12783000964E+03  0.28538129036E+03  0.17300000000E+03 0. -1.
<mgrwt>
<rscale>  2 0.25515088E+03</rscale>
<asrwt>0</asrwt>
<pdfrwt beam="1">  1       21 0.44267166E-01 0.25515088E+03</pdfrwt>
<pdfrwt beam="2">  1       21 0.42982059E-01 0.25515088E+03</pdfrwt>
<totfact> 0.24701998E+04</totfact>
</mgrwt>
</event>
<event>
 4    1  0.4017302E+000  0.1833571E+03  0.7546771E-02  0.1164593E+00
         21   -1    0    0  503  502  0.00000000000E+00  0.00000000000E+00  0.21309782749E+03  0.21309782749E+03  0.00000000000E+00 0.  1.
         21   -1    0    0  501  503 -0.00000000000E+00 -0.00000000000E+00 -0.21030364078E+03  0.21030364078E+03  0.00000000000E+00 0.  1.
          6    1    1    2  501    0 -0.43899456757E+02 -0.41996069359E+02 -0.10441360752E+03  0.21100244923E+03  0.17300000000E+03 0.  1.
         -6    1    1    2    0  502  0.43899456757E+02  0.41996069359E+02  0.10720779423E+03  0.21239901904E+03  0.17300000000E+03 0.  1.
<mgrwt>
<rscale>  2 0.18335712E+03</rscale>
<asrwt>0</asrwt>
<pdfrwt beam="1">  1       21 0.32784281E-01 0.18335712E+03</pdfrwt>
<pdfrwt beam="2">  1       21 0.32354406E-01 0.18335712E+03</pdfrwt>
<totfact> 0.82618459E+04</totfact>
</mgrwt>
</event>
<event>
 4    1  0.4017302E+000  0.2724768E+03  0.7546771E-02  0.1099870E+00
         21   -1    0    0  501  502  0.00000000000E+00  0.00000000000E+00  0.76100264484E+03  0.76100264484E+03  0.00000000000E+00 0.  1.
         21   -1    0    0  502  503 -0.00000000000E+00 -0.00000000000E+00 -0.39185884063E+03  0.39185884063E+03  0.00000000000E+00 0. -1.
          6    1    1    2  501    0 -0.16614771716E+03 -0.12926535462E+03  0.68411896926E+03  0.73638465487E+03  0.17300000000E+03 0.  1.
         -6    1    1    2    0  503  0.16614771716E+03  0.12926535462E+03 -0.31497516505E+03  0.41647683060E+03  0.17300000000E+03 0. -1.
<mgrwt>
<rscale>  2 0.27247678E+03</rscale>
<asrwt>0</asrwt>
<pdfrwt beam="1">  1       21 0.11707733E+00 0.27247678E+03</pdfrwt>
<pdfrwt beam="2">  1       21 0.60285976E-01 0.27247678E+03</pdfrwt>
<totfact> 0.13471375E+03</totfact>
</mgrwt>
</event>
<event>
 4    1  0.4017302E+000  0.1956469E+03  0.7546771E-02  0.1153465E+00
         21   -1    0    0  503  502  0.00000000000E+00  0.00000000000E+00  0.25424652706E+02  0.25424652706E+02  0.00000000000E+00 0. -1.
         21   -1    0    0  501  503 -0.00000000000E+00 -0.00000000000E+00 -0.15525601849E+04  0.15525601849E+04  0.00000000000E+00 0.  1.
          6    1    1    2  501    0  0.25334279112E+01  0.91336245730E+02 -0.90088011317E+03  0.92187998478E+03  0.17300000000E+03 0.  1.
         -6    1    1    2    0  502 -0.25334279112E+01 -0.91336245730E+02 -0.62625541905E+03  0.65610485285E+03  0.17300000000E+03 0. -1.
<mgrwt>
<rscale>  2 0.19564695E+03</rscale>
<asrwt>0</asrwt>
<pdfrwt beam="1">  1       21 0.39114862E-02 0.19564695E+03</pdfrwt>
<pdfrwt beam="2">  1       21 0.23885534E+00 0.19564695E+03</pdfrwt>
<totfact> 0.31409936E+04</totfact>
</mgrwt>
</event>
<event>
 4    1  0.4017302E+000  0.2078822E+03  0.7546771E-02  0.1143254E+00
         21   -1    0    0  501  502  0.00000000000E+00  0.00000000000E+00  0.59909411539E+02  0.59909411539E+02  0.00000000000E+00 0.  1.
         21   -1    0    0  502  503 -0.00000000000E+00 -0.00000000000E+00 -0.72762883408E+03  0.72762883408E+03  0.00000000000E+00 0.  1.
          6    1    1    2  501    0 -0.11384658716E+03 -0.18026651483E+02 -0.37046975229E+03  0.42480918414E+03  0.17300000000E+03 0. -1.
         -6    1    1    2    0  503  0.11384658716E+03  0.18026651483E+02 -0.29724967025E+03  0.36272906148E+03  0.17300000000E+03 0. -1.
<mgrwt>
<rscale>  2 0.20788219E+03</rscale>
<asrwt>0</asrwt>
<pdfrwt beam="1">  1       21 0.92168333E-02 0.20788219E+03</pdfrwt>
<pdfrwt beam="2">  1       21 0.11194289E+00 0.20788219E+03</pdfrwt>
<totfact> 0.58195743E+04</totfact>
</mgrwt>
</event>
<event>
 4    1  0.4017302E+000  0.3099752E+03  0.7546771E-02  0.1080358E+00
         21   -1    0    0  503  502  0.00000000000E+00  0.00000000000E+00  0.86925255389E+03  0.86925255389E+03  0.00000000000E+00 0.  1.
         21   -1    0    0  501  503 -0.00000000000E+00 -0.00000000000E+00 -0.11904742914E+03  0.11904742914E+03  0.00000000000E+00 0.  1.
          6    1    1    2  501    0  0.42523429365E+02 -0.25366787100E+03  0.24298130043E+03  0.39385853194E+03  0.17300000000E+03 0.  1.
         -6    1    1    2    0  502 -0.42523429365E+02  0.25366787100E+03  0.50722382431E+03  0.59444145109E+03  0.17300000000E+03 0.  1.
<mgrwt>
<rscale>  2 0.30997521E+03</rscale>
<asrwt>0</asrwt>
<pdfrwt beam="1">  1       21 0.13373116E+00 0.30997521E+03</pdfrwt>
<pdfrwt beam="2">  1       21 0.18314990E-01 0.30997521E+03</pdfrwt>
<totfact> 0.10211435E+04</totfact>
</mgrwt>
</event>
<event>
 4    1  0.4017302E+000  0.1968343E+03  0.7546771E-02  0.1152438E+00
         21   -1    0    0  503  502  0.00000000000E+00  0.00000000000E+00  0.12113027550E+03  0.12113027550E+03  0.00000000000E+00 0.  1.
         21   -1    0    0  501  503 -0.00000000000E+00 -0.00000000000E+00 -0.33080039216E+03  0.33080039216E+03  0.00000000000E+00 0.  1.
          6    1    1    2  501    0 -0.48923984529E+02  0.80132242875E+02 -0.14594421911E+03  0.24503764548E+03  0.17300000000E+03 0.  1.
         -6    1    1    2    0  502  0.48923984529E+02 -0.80132242875E+02 -0.63725897550E+02  0.20689302219E+03  0.17300000000E+03 0.  1.
<mgrwt>
<rscale>  2 0.19683428E+03</rscale>
<asrwt>0</asrwt>
<pdfrwt beam="1">  1       21 0.18635427E-01 0.19683428E+03</pdfrwt>
<pdfrwt beam="2">  1       21 0.50892368E-01 0.19683428E+03</pdfrwt>
<totfact> 0.96522962E+04</totfact>
</mgrwt>
</event>
<event>
 4    1  0.4017302E+000  0.4360575E+03  0.7546771E-02  0.1031963E+00
         21   -1    0    0  503  502  0.00000000000E+00  0.00000000000E+00  0.34132435537E+03  0.34132435537E+03  0.00000000000E+00 0.  1.
         21   -1    0    0  501  503 -0.00000000000E+00 -0.00000000000E+00 -0.61411456683E+03  0.61411456683E+03  0.00000000000E+00 0.  1.
          6    1    1    2  501    0  0.38888765162E+03 -0.94781658255E+02 -0.28197585893E+03  0.51928465541E+03  0.17300000000E+03 0.  1.
         -6    1    1    2    0  502 -0.38888765162E+03  0.94781658255E+02  0.91856474643E+01  0.43615426680E+03  0.17300000000E+03 0.  1.
<mgrwt>
<rscale>  2 0.43605753E+03</rscale>
<asrwt>0</asrwt>
<pdfrwt beam="1">  1       21 0.52511440E-01 0.43605753E+03</pdfrwt>
<pdfrwt beam="2">  1       21 0.94479163E-01 0.43605753E+03</pdfrwt>
<totfact> 0.28177049E+03</totfact>
</mgrwt>
</event>
<event>
 4    1  0.4017302E+000  0.2140235E+03  0.7546771E-02  0.1138419E+00
         21   -1    0    0  501  502  0.00000000000E+00  0.00000000000E+00  0.14656805815E+04  0.14656805815E+04  0.00000000000E+00 0.  1.
         21   -1    0    0  502  503 -0.00000000000E+00 -0.00000000000E+00 -0.41162601222E+02  0.41162601222E+02  0.00000000000E+00 0.  1.
          6    1    1    2  501    0  0.47821962000E+02 -0.11657657258E+03  0.10819406196E+04  0.11029059532E+04  0.17300000000E+03 0.  1.
         -6    1    1    2    0  503 -0.47821962000E+02  0.11657657258E+03  0.34257736070E+03  0.40393722952E+03  0.17300000000E+03 0.  1.
<mgrwt>
<rscale>  2 0.21402345E+03</rscale>
<asrwt>0</asrwt>
<pdfrwt beam="1">  1       21 0.22548928E+00 0.21402345E+03</pdfrwt>
<pdfrwt beam="2">  1       21 0.63327090E-02 0.21402345E+03</pdfrwt>
<totfact> 0.16451337E+04</totfact>
</mgrwt>
</event>
<event>
 4    1  0.4017302E+000  0.1830919E+03  0.7546771E-02  0.1164844E+00
         21   -1    0    0  501  502  0.00000000000E+00  0.00000000000E+00  0.10242451593E+04  0.10242451593E+04  0.00000000000E+00 0.  1.
         21   -1    0    0  502  503 -0.00000000000E+00 -0.00000000000E+00 -0.32994848785E+02  0.32994848785E+02  0.00000000000E+00 0.  1.
          6    1    1    2  501    0  0.37573811982E+02 -0.46710125856E+02  0.44818433305E+03  0.48414029330E+03  0.17300000000E+03 0. -1.
         -6    1    1    2    0  503 -0.37573811982E+02  0.46710125856E+02  0.54306597743E+03  0.57309971475E+03  0.17300000000E+03 0. -1.
<mgrwt>
<rscale>  2 0.18309185E+03</rscale>
<asrwt>0</asrwt>
<pdfrwt beam="1">  1       21 0.15757615E+00 0.18309185E+03</pdfrwt>
<pdfrwt beam="2">  1       21 0.50761314E-02 0.18309185E+03</pdfrwt>
<totfact> 0.69107936E+04</totfact>
</mgrwt>
</event>
<event>
 4    1  0.4017302E+000  0.2381883E+03  0.7546771E-02  0.1121006E+00
         21   -1    0    0  503  502  0.00000000000E+00  0.00000000000E+00  0.65385179936E+03  0.65385179936E+03  0.00000000000E+00 0. -1.
         21   -1    0    0  501  503 -0.00000000000E+00 -0.00000000000E+00 -0.11814445893E+03  0.11814445893E+03  0.00000000000E+00 0. -1.
          6    1    1    2  501    0  0.84192701673E+02 -0.14041453969E+03  0.68933906895E+02  0.24796277440E+03  0.17300000000E+03 0. -1.
         -6    1    1    2    0  502 -0.84192701673E+02  0.14041453969E+03  0.46677343354E+03  0.52403348388E+03  0.17300000000E+03 0. -1.
<mgrwt>
<rscale>  2 0.23818827E+03</rscale>
<asrwt>0</asrwt>
<pdfrwt beam="1">  1       21 0.10059258E+00 0.23818827E+03</pdfrwt>
<pdfrwt beam="2">  1       21 0.18176071E-01 0.23818827E+03</pdfrwt>
<totfact> 0.21749749E+04</totfact>
</mgrwt>
</event>
<event>
 4    1  0.4017302E+000  0.2683783E+03  0.7546771E-02  0.1102211E+00
         21   -1    0    0  501  502  0.00000000000E+00  0.00000000000E+00  0.10779974118E+03  0.10779974118E+03  0.00000000000E+00 0. -1.
         21   -1    0    0  502  503 -0.00000000000E+00 -0.00000000000E+00 -0.66832062288E+03  0.66832062288E+03  0.00000000000E+00 0. -1.
          6    1    1    2  501    0  0.96796435586E+02  0.18090982229E+03 -0.27414766961E+03  0.38364548544E+03  0.17300000000E+03 0. -1.
         -6    1    1    2    0  503 -0.96796435586E+02 -0.18090982229E+03 -0.28637321208E+03  0.39247487862E+03  0.17300000000E+03 0. -1.
<mgrwt>
<rscale>  2 0.26837830E+03</rscale>
<asrwt>0</asrwt>
<pdfrwt beam="1">  1       21 0.16584576E-01 0.26837830E+03</pdfrwt>
<pdfrwt beam="2">  1       21 0.10281856E+00 0.26837830E+03</pdfrwt>
<totfact> 0.24105010E+04</totfact>
</mgrwt>
</event>
<event>
 4    1  0.4017302E+000  0.2484077E+03  0.7546771E-02  0.1114315E+00
         21   -1    0    0  503  502  0.00000000000E+00  0.00000000000E+00  0.52320589420E+03  0.52320589420E+03  0.00000000000E+00 0. -1.
         21   -1    0    0  501  503 -0.00000000000E+00 -0.00000000000E+00 -0.13123693767E+03  0.13123693767E+03  0.00000000000E+00 0. -1.
          6    1    1    2  501    0 -0.16873079002E+03  0.57509181416E+02  0.91823355954E+02  0.26483563610E+03  0.17300000000E+03 0. -1.
         -6    1    1    2    0  502  0.16873079002E+03 -0.57509181416E+02  0.30014560058E+03  0.38960719577E+03  0.17300000000E+03 0. -1.
<mgrwt>
<rscale>  2 0.24840770E+03</rscale>
<asrwt>0</asrwt>
<pdfrwt beam="1">  1       21 0.80493214E-01 0.24840770E+03</pdfrwt>
<pdfrwt beam="2">  1       21 0.20190298E-01 0.24840770E+03</pdfrwt>
<totfact> 0.29895022E+04</totfact>
</mgrwt>
</event>
<event>
 4    1  0.4017302E+000  0.1967403E+03  0.7546771E-02  0.1152519E+00
         21   -1    0    0  503  502  0.00000000000E+00  0.00000000000E+00  0.11672208516E+04  0.11672208516E+04  0.00000000000E+00 0. -1.
         21   -1    0    0  501  503 -0.00000000000E+00 -0.00000000000E+00 -0.41594936593E+02  0.41594936593E+02  0.00000000000E+00 0. -1.
          6    1    1    2  501    0  0.88277529324E+01 -0.93272862457E+02  0.29066001838E+03  0.35098433352E+03  0.17300000000E+03 0. -1.
         -6    1    1    2    0  502 -0.88277529324E+01  0.93272862457E+02  0.83496589658E+03  0.85783145462E+03  0.17300000000E+03 0. -1.
<mgrwt>
<rscale>  2 0.19674033E+03</rscale>
<asrwt>0</asrwt>
<pdfrwt beam="1">  1       21 0.17957241E+00 0.19674033E+03</pdfrwt>
<pdfrwt beam="2">  1       21 0.63992219E-02 0.19674033E+03</pdfrwt>
<totfact> 0.32254004E+04</totfact>
</mgrwt>
</event>
<event>
 4    1  0.4017302E+000  0.2430073E+03  0.7546771E-02  0.1117806E+00
         21   -1    0    0  501  502  0.00000000000E+00  0.00000000000E+00  0.73889365420E+03  0.73889365420E+03  0.00000000000E+00 0.  1.
         21   -1    0    0  502  503 -0.00000000000E+00 -0.00000000000E+00 -0.91736796084E+02  0.91736796084E+02  0.00000000000E+00 0.  1.
          6    1    1    2  501    0  0.26874266021E+02  0.16852691874E+03  0.47263522060E+03  0.53144764584E+03  0.17300000000E+03 0.  1.
         -6    1    1    2    0  503 -0.26874266021E+02 -0.16852691874E+03  0.17452163752E+03  0.29918280445E+03  0.17300000000E+03 0.  1.
<mgrwt>
<rscale>  2 0.24300730E+03</rscale>
<asrwt>0</asrwt>
<pdfrwt beam="1">  1       21 0.11367594E+00 0.24300730E+03</pdfrwt>
<pdfrwt beam="2">  1       21 0.14113354E-01 0.24300730E+03</pdfrwt>
<totfact> 0.25694598E+04</totfact>
</mgrwt>
</event>
<event>
 4    1  0.4017302E+000  0.1931138E+03  0.7546771E-02  0.1155683E+00
         21   -1    0    0  501  502  0.00000000000E+00  0.00000000000E+00  0.10826326768E+04  0.10826326768E+04  0.00000000000E+00 0.  1.
         21   -1    0    0  502  503 -0.00000000000E+00 -0.00000000000E+00 -0.36823147781E+02  0.36823147781E+02  0.00000000000E+00 0. -1.
          6    1    1    2  501    0 -0.24157386170E+02 -0.82342851967E+02  0.66510404403E+03  0.69257224458E+03  0.17300000000E+03 0.  1.
         -6    1    1    2    0  503  0.24157386170E+02  0.82342851967E+02  0.38070548501E+03  0.42688358002E+03  0.17300000000E+03 0. -1.
<mgrwt>
<rscale>  2 0.19311376E+03</rscale>
<asrwt>0</asrwt>
<pdfrwt beam="1">  1       21 0.16655885E+00 0.19311376E+03</pdfrwt>
<pdfrwt beam="2">  1       21 0.56651005E-02 0.19311376E+03</pdfrwt>
<totfact> 0.49078878E+04</totfact>
</mgrwt>
</event>
<event>
 4    1  0.4017302E+000  0.2037423E+03  0.7546771E-02  0.1146619E+00
         21   -1    0    0  503  502  0.00000000000E+00  0.00000000000E+00  0.65266839243E+03  0.65266839243E+03  0.00000000000E+00 0. -1.
         21   -1    0    0  501  503 -0.00000000000E+00 -0.00000000000E+00 -0.10651762976E+03  0.10651762976E+03  0.00000000000E+00 0.  1.
          6    1    1    2  501    0  0.65035466115E+02 -0.85745611615E+02  0.32131484858E+02  0.20626040358E+03  0.17300000000E+03 0.  1.
         -6    1    1    2    0  502 -0.65035466115E+02  0.85745611615E+02  0.51401927781E+03  0.55292561862E+03  0.17300000000E+03 0. -1.
<mgrwt>
<rscale>  2 0.20374229E+03</rscale>
<asrwt>0</asrwt>
<pdfrwt beam="1">  1       21 0.10041052E+00 0.20374229E+03</pdfrwt>
<pdfrwt beam="2">  1       21 0.16387328E-01 0.20374229E+03</pdfrwt>
<totfact> 0.26956812E+04</totfact>
</mgrwt>
</event>
<event>
 4    1  0.4017302E+000  0.2196152E+03  0.7546771E-02  0.1134170E+00
         21   -1    0    0  501  502  0.00000000000E+00  0.00000000000E+00  0.67951555288E+03  0.67951555288E+03  0.00000000000E+00 0.  1.
         21   -1    0    0  502  503 -0.00000000000E+00 -0.00000000000E+00 -0.71219462493E+02  0.71219462493E+02  0.00000000000E+00 0.  1.
          6    1    1    2  501    0  0.99065475139E+02  0.92129621676E+02  0.28230350189E+03  0.35766758692E+03  0.17300000000E+03 0.  1.
         -6    1    1    2    0  503 -0.99065475139E+02 -0.92129621676E+02  0.32599258850E+03  0.39306742846E+03  0.17300000000E+03 0.  1.
<mgrwt>
<rscale>  2 0.21961520E+03</rscale>
<asrwt>0</asrwt>
<pdfrwt beam="1">  1       21 0.10454085E+00 0.21961520E+03</pdfrwt>
<pdfrwt beam="2">  1       21 0.10956841E-01 0.21961520E+03</pdfrwt>
<totfact> 0.50270380E+04</totfact>
</mgrwt>
</event>
<event>
 4    1  0.4017302E+000  0.1903412E+03  0.7546771E-02  0.1158154E+00
         21   -1    0    0  503  502  0.00000000000E+00  0.00000000000E+00  0.62410250152E+03  0.62410250152E+03  0.00000000000E+00 0. -1.
         21   -1    0    0  501  503 -0.00000000000E+00 -0.00000000000E+00 -0.81878976890E+02  0.81878976890E+02  0.00000000000E+00 0. -1.
          6    1    1    2  501    0 -0.63830012259E+02  0.47185834557E+02  0.80688191036E+02  0.20673741224E+03  0.17300000000E+03 0. -1.
         -6    1    1    2    0  502  0.63830012259E+02 -0.47185834557E+02  0.46153533359E+03  0.49924406616E+03  0.17300000000E+03 0. -1.
<mgrwt>
<rscale>  2 0.19034120E+03</rscale>
<asrwt>0</asrwt>
<pdfrwt beam="1">  1       21 0.96015767E-01 0.19034120E+03</pdfrwt>
<pdfrwt beam="2">  1       21 0.12596766E-01 0.19034120E+03</pdfrwt>
<totfact> 0.48661537E+04</totfact>
</mgrwt>
</event>
<event>
 4    1  0.4017302E+000  0.1735498E+03  0.7546771E-02  0.1174196E+00
         21   -1    0    0  503  502  0.00000000000E+00  0.00000000000E+00  0.60888736830E+02  0.60888736830E+02  0.00000000000E+00 0. -1.
         21   -1    0    0  501  503 -0.00000000000E+00 -0.00000000000E+00 -0.52259916869E+03  0.52259916869E+03  0.00000000000E+00 0. -1.
          6    1    1    2  501    0 -0.11845449216E+02 -0.70876778647E+01 -0.29830529532E+03  0.34511679047E+03  0.17300000000E+03 0. -1.
         -6    1    1    2    0  502  0.11845449216E+02  0.70876778647E+01 -0.16340513653E+03  0.23837111505E+03  0.17300000000E+03 0. -1.
<mgrwt>
<rscale>  2 0.17354985E+03</rscale>
<asrwt>0</asrwt>
<pdfrwt beam="1">  1       21 0.93674978E-02 0.17354985E+03</pdfrwt>
<pdfrwt beam="2">  1       21 0.80399873E-01 0.17354985E+03</pdfrwt>
<totfact> 0.12470350E+05</totfact>
</mgrwt>
</event>
<event>
 4    1  0.4017302E+000  0.2321085E+03  0.7546771E-02  0.1125164E+00
         21   -1    0    0  501  502  0.00000000000E+00  0.00000000000E+00  0.72800023087E+02  0.72800023087E+02  0.00000000000E+00 0. -1.
         21   -1    0    0  502  503 -0.00000000000E+00 -0.00000000000E+00 -0.93088772214E+03  0.93088772214E+03  0.00000000000E+00 0. -1.
          6    1    1    2  501    0 -0.86876648050E+02 -0.12805398510E+03 -0.20181047204E+03  0.30757412391E+03  0.17300000000E+03 0. -1.
         -6    1    1    2    0  503  0.86876648050E+02  0.12805398510E+03 -0.65627722702E+03  0.69611362131E+03  0.17300000000E+03 0. -1.
<mgrwt>
<rscale>  2 0.23210854E+03</rscale>
<asrwt>0</asrwt>
<pdfrwt beam="1">  1       21 0.11200005E-01 0.23210854E+03</pdfrwt>
<pdfrwt beam="2">  1       21 0.14321348E+00 0.23210854E+03</pdfrwt>
<totfact> 0.21852100E+04</totfact>
</mgrwt>
</event>
<event>
 4    1  0.4017302E+000  0.1903163E+03  0.7546771E-02  0.1158176E+00
         21   -1    0    0  501  502  0.00000000000E+00  0.00000000000E+00  0.11438420484E+04  0.11438420484E+04  0.00000000000E+00 0.  1.
         21   -1    0    0  502  503 -0.00000000000E+00 -0.00000000000E+00 -0.46941241491E+02  0.46941241491E+02  0.00000000000E+00 0.  1.
          6    1    1    2  501    0 -0.14732177467E+02  0.77937587373E+02  0.88809672933E+03  0.90825993263E+03  0.17300000000E+03 0.  1.
         -6    1    1    2    0  503  0.14732177467E+02 -0.77937587373E+02  0.20880407754E+03  0.28252335722E+03  0.17300000000E+03 0.  1.
<mgrwt>
<rscale>  2 0.19031633E+03</rscale>
<asrwt>0</asrwt>
<pdfrwt beam="1">  1       21 0.17597568E+00 0.19031633E+03</pdfrwt>
<pdfrwt beam="2">  1       21 0.72217303E-02 0.19031633E+03</pdfrwt>
<totfact> 0.27833740E+04</totfact>
</mgrwt>
</event>
<event>
 4    1  0.4017302E+000  0.1996436E+03  0.7546771E-02  0.1150040E+00
         21   -1    0    0  503  502  0.00000000000E+00  0.00000000000E+00  0.77724480930E+02  0.77724480930E+02  0.00000000000E+00 0.  1.
         21   -1    0    0  501  503 -0.00000000000E+00 -0.00000000000E+00 -0.54379070207E+03  0.54379070207E+03  0.00000000000E+00 0.  1.
          6    1    1    2  501    0 -0.81992257095E+02 -0.56620022498E+02 -0.15885400476E+03  0.25513163661E+03  0.17300000000E+03 0.  1.
         -6    1    1    2    0  502  0.81992257095E+02  0.56620022498E+02 -0.30721221639E+03  0.36638354639E+03  0.17300000000E+03 0.  1.
<mgrwt>
<rscale>  2 0.19964358E+03</rscale>
<asrwt>0</asrwt>
<pdfrwt beam="1">  1       21 0.11957613E-01 0.19964358E+03</pdfrwt>
<pdfrwt beam="2">  1       21 0.83660107E-01 0.19964358E+03</pdfrwt>
<totfact> 0.73143539E+04</totfact>
</mgrwt>
</event>
<event>
 4    1  0.4017302E+000  0.2344982E+03  0.7546771E-02  0.1123513E+00
         21   -1    0    0  503  502  0.00000000000E+00  0.00000000000E+00  0.95101166329E+02  0.95101166329E+02  0.00000000000E+00 0.  1.
         21   -1    0    0  501  503 -0.00000000000E+00 -0.00000000000E+00 -0.58715395325E+03  0.58715395325E+03  0.00000000000E+00 0. -1.
          6    1    1    2  501    0 -0.11063601822E+03 -0.11322570361E+03 -0.20394746498E+03  0.31077959546E+03  0.17300000000E+03 0. -1.
         -6    1    1    2    0  502  0.11063601822E+03  0.11322570361E+03 -0.28810532195E+03  0.37147552412E+03  0.17300000000E+03 0. -1.
<mgrwt>
<rscale>  2 0.23449816E+03</rscale>
<asrwt>0</asrwt>
<pdfrwt beam="1">  1       21 0.14630948E-01 0.23449816E+03</pdfrwt>
<pdfrwt beam="2">  1       21 0.90331380E-01 0.23449816E+03</pdfrwt>
<totfact> 0.41878544E+04</totfact>
</mgrwt>
</event>
<event>
 4    1  0.4017302E+000  0.1890095E+03  0.7546771E-02  0.1159358E+00
         21   -1    0    0  501  502  0.00000000000E+00  0.00000000000E+00  0.21921462153E+02  0.21921462153E+02  0.00000000000E+00 0. -1.
         21   -1    0    0  502  503 -0.00000000000E+00 -0.00000000000E+00 -0.22723765532E+04  0.22723765532E+04  0.00000000000E+00 0. -1.
          6    1    1    2  501    0 -0.42409638373E+02  0.63222054644E+02 -0.51514547565E+03  0.54872531079E+03  0.17300000000E+03 0.  1.
         -6    1    1    2    0  503  0.42409638373E+02 -0.63222054644E+02 -0.17353096154E+04  0.17455727046E+04  0.17300000000E+03 0.  1.
<mgrwt>
<rscale>  2 0.18900954E+03</rscale>
<asrwt>0</asrwt>
<pdfrwt beam="1">  1       21 0.33725335E-02 0.18900954E+03</pdfrwt>
<pdfrwt beam="2">  1       21 0.34959630E+00 0.18900954E+03</pdfrwt>
<totfact> 0.92021262E+03</totfact>
</mgrwt>
</event>
<event>
 4    1  0.4017302E+000  0.1916009E+03  0.7546771E-02  0.1157025E+00
         21   -1    0    0  501  502  0.00000000000E+00  0.00000000000E+00  0.14319272143E+04  0.14319272143E+04  0.00000000000E+00 0.  1.
         21   -1    0    0  502  503 -0.00000000000E+00 -0.00000000000E+00 -0.44726058985E+02  0.44726058985E+02  0.00000000000E+00 0.  1.
          6    1    1    2  501    0 -0.55179194832E+02  0.61132217847E+02  0.11759435149E+04  0.11914503942E+04  0.17300000000E+03 0.  1.
         -6    1    1    2    0  503  0.55179194832E+02 -0.61132217847E+02  0.21125764039E+03  0.28520287906E+03  0.17300000000E+03 0.  1.
<mgrwt>
<rscale>  2 0.19160087E+03</rscale>
<asrwt>0</asrwt>
<pdfrwt beam="1">  1       21 0.22029646E+00 0.19160087E+03</pdfrwt>
<pdfrwt beam="2">  1       21 0.68809332E-02 0.19160087E+03</pdfrwt>
<totfact> 0.15622768E+04</totfact>
</mgrwt>
</event>
<event>
 4    1  0.4017302E+000  0.1994576E+03  0.7546771E-02  0.1150197E+00
         21   -1    0    0  501  502  0.00000000000E+00  0.00000000000E+00  0.25507352665E+03  0.25507352665E+03  0.00000000000E+00 0. -1.
         21   -1    0    0  502  503 -0.00000000000E+00 -0.00000000000E+00 -0.16126366304E+03  0.16126366304E+03  0.00000000000E+00 0. -1.
          6    1    1    2  501    0  0.77363281586E+02  0.62203301655E+02  0.84627726806E+02  0.21666836460E+03  0.17300000000E+03 0. -1.
         -6    1    1    2    0  503 -0.77363281586E+02 -0.62203301655E+02  0.91821368055E+01  0.19966882509E+03  0.17300000000E+03 0. -1.
<mgrwt>
<rscale>  2 0.19945758E+03</rscale>
<asrwt>0</asrwt>
<pdfrwt beam="1">  1       21 0.39242081E-01 0.19945758E+03</pdfrwt>
<pdfrwt beam="2">  1       21 0.24809794E-01 0.19945758E+03</pdfrwt>
<totfact> 0.95953162E+04</totfact>
</mgrwt>
</event>
<event>
 4    1  0.4017302E+000  0.2325201E+03  0.7546771E-02  0.1124879E+00
         21   -1    0    0  503  502  0.00000000000E+00  0.00000000000E+00  0.38366560667E+03  0.38366560667E+03  0.00000000000E+00 0.  1.
         21   -1    0    0  501  503 -0.00000000000E+00 -0.00000000000E+00 -0.21975287569E+03  0.21975287569E+03  0.00000000000E+00 0. -1.
          6    1    1    2  501    0  0.14469569909E+03 -0.56566166417E+02 -0.98752385126E+02  0.25262147590E+03  0.17300000000E+03 0. -1.
         -6    1    1    2    0  502 -0.14469569909E+03  0.56566166417E+02  0.26266511610E+03  0.35079700645E+03  0.17300000000E+03 0.  1.
<mgrwt>
<rscale>  2 0.23252006E+03</rscale>
<asrwt>0</asrwt>
<pdfrwt beam="1">  1       21 0.59025478E-01 0.23252006E+03</pdfrwt>
<pdfrwt beam="2">  1       21 0.33808135E-01 0.23252006E+03</pdfrwt>
<totfact> 0.22123554E+04</totfact>
</mgrwt>
</event>
<event>
 4    1  0.4017302E+000  0.2232584E+03  0.7546771E-02  0.1131477E+00
         21   -1    0    0  501  502  0.00000000000E+00  0.00000000000E+00  0.24531705970E+03  0.24531705970E+03  0.00000000000E+00 0.  1.
         21   -1    0    0  502  503 -0.00000000000E+00 -0.00000000000E+00 -0.25179823022E+03  0.25179823022E+03  0.00000000000E+00 0. -1.
          6    1    1    2  501    0 -0.14071151621E+03 -0.10751360653E+02  0.10597528558E+03  0.24713373647E+03  0.17300000000E+03 0. -1.
         -6    1    1    2    0  503  0.14071151621E+03  0.10751360653E+02 -0.11245645610E+03  0.24998155345E+03  0.17300000000E+03 0.  1.
<mgrwt>
<rscale>  2 0.22325842E+03</rscale>
<asrwt>0</asrwt>
<pdfrwt beam="1">  1       21 0.37741086E-01 0.22325842E+03</pdfrwt>
<pdfrwt beam="2">  1       21 0.38738189E-01 0.22325842E+03</pdfrwt>
<totfact> 0.42860882E+04</totfact>
</mgrwt>
</event>
<event>
 4    1  0.4017302E+000  0.4105188E+03  0.7546771E-02  0.1040197E+00
         21   -1    0    0  503  502  0.00000000000E+00  0.00000000000E+00  0.34584064441E+03  0.34584064441E+03  0.00000000000E+00 0.  1.
         21   -1    0    0  501  503 -0.00000000000E+00 -0.00000000000E+00 -0.49337843590E+03  0.49337843590E+03  0.00000000000E+00 0.  1.
          6    1    1    2  501    0  0.31321490787E+03  0.20122905376E+03 -0.12037068790E+03  0.42780230609E+03  0.17300000000E+03 0.  1.
         -6    1    1    2    0  502 -0.31321490787E+03 -0.20122905376E+03 -0.27167103595E+02  0.41141677422E+03  0.17300000000E+03 0.  1.
<mgrwt>
<rscale>  2 0.41051883E+03</rscale>
<asrwt>0</asrwt>
<pdfrwt beam="1">  1       21 0.53206253E-01 0.41051883E+03</pdfrwt>
<pdfrwt beam="2">  1       21 0.75904375E-01 0.41051883E+03</pdfrwt>
<totfact> 0.46102218E+03</totfact>
</mgrwt>
</event>
<event>
 4    1  0.4017302E+000  0.2011810E+03  0.7546771E-02  0.1148746E+00
         21   -1    0    0  503  502  0.00000000000E+00  0.00000000000E+00  0.69514361309E+03  0.69514361309E+03  0.00000000000E+00 0.  1.
         21   -1    0    0  501  503 -0.00000000000E+00 -0.00000000000E+00 -0.10282594767E+03  0.10282594767E+03  0.00000000000E+00 0.  1.
          6    1    1    2  501    0 -0.92841838113E+02  0.43876741956E+02  0.33384013270E+02  0.20393201742E+03  0.17300000000E+03 0.  1.
         -6    1    1    2    0  502  0.92841838113E+02 -0.43876741956E+02  0.55893365215E+03  0.59403754334E+03  0.17300000000E+03 0.  1.
<mgrwt>
<rscale>  2 0.20118095E+03</rscale>
<asrwt>0</asrwt>
<pdfrwt beam="1">  1       21 0.10694517E+00 0.20118095E+03</pdfrwt>
<pdfrwt beam="2">  1       21 0.15819377E-01 0.20118095E+03</pdfrwt>
<totfact> 0.24758975E+04</totfact>
</mgrwt>
</event>
<event>
 4    1  0.4017302E+000  0.2940180E+03  0.7546771E-02  0.1088270E+00
         21   -1    0    0  501  502  0.00000000000E+00  0.00000000000E+00  0.19136157871E+03  0.19136157871E+03  0.00000000000E+00 0.  1.
         21   -1    0    0  502  503 -0.00000000000E+00 -0.00000000000E+00 -0.49408797175E+03  0.49408797175E+03  0.00000000000E+00 0. -1.
          6    1    1    2  501    0 -0.23402263710E+03 -0.41845110646E+02 -0.51032277958E+02  0.29841397647E+03  0.17300000000E+03 0.  1.
         -6    1    1    2    0  503  0.23402263710E+03  0.41845110646E+02 -0.25169411508E+03  0.38703557398E+03  0.17300000000E+03 0. -1.
<mgrwt>
<rscale>  2 0.29401804E+03</rscale>
<asrwt>0</asrwt>
<pdfrwt beam="1">  1       21 0.29440243E-01 0.29401804E+03</pdfrwt>
<pdfrwt beam="2">  1       21 0.76013535E-01 0.29401804E+03</pdfrwt>
<totfact> 0.16172313E+04</totfact>
</mgrwt>
</event>
<event>
 4    1  0.4017302E+000  0.1762274E+03  0.7546771E-02  0.1171505E+00
         21   -1    0    0  501  502  0.00000000000E+00  0.00000000000E+00  0.77494711523E+02  0.77494711523E+02  0.00000000000E+00 0.  1.
         21   -1    0    0  502  503 -0.00000000000E+00 -0.00000000000E+00 -0.86619097765E+03  0.86619097765E+03  0.00000000000E+00 0.  1.
          6    1    1    2  501    0 -0.22973966603E+02  0.24480216838E+02 -0.48470577552E+02  0.18277166368E+03  0.17300000000E+03 0.  1.
         -6    1    1    2    0  503  0.22973966603E+02 -0.24480216838E+02 -0.74022568857E+03  0.76091402549E+03  0.17300000000E+03 0.  1.
<mgrwt>
<rscale>  2 0.17622736E+03</rscale>
<asrwt>0</asrwt>
<pdfrwt beam="1">  1       21 0.11922263E-01 0.17622736E+03</pdfrwt>
<pdfrwt beam="2">  1       21 0.13326016E+00 0.17622736E+03</pdfrwt>
<totfact> 0.24355460E+04</totfact>
</mgrwt>
</event>
<event>
 4    1  0.4017302E+000  0.2092066E+03  0.7546771E-02  0.1142196E+00
         21   -1    0    0  501  502  0.00000000000E+00  0.00000000000E+00  0.11192891662E+03  0.11192891662E+03  0.00000000000E+00 0. -1.
         21   -1    0    0  502  503 -0.00000000000E+00 -0.00000000000E+00 -0.43135274306E+03  0.43135274306E+03  0.00000000000E+00 0. -1.
          6    1    1    2  501    0  0.79566071319E+02  0.86646542390E+02 -0.24276628949E+03  0.32047286052E+03  0.17300000000E+03 0. -1.
         -6    1    1    2    0  503 -0.79566071319E+02 -0.86646542390E+02 -0.76657536945E+02  0.22280879916E+03  0.17300000000E+03 0. -1.
<mgrwt>
<rscale>  2 0.20920656E+03</rscale>
<asrwt>0</asrwt>
<pdfrwt beam="1">  1       21 0.17219833E-01 0.20920656E+03</pdfrwt>
<pdfrwt beam="2">  1       21 0.66361960E-01 0.20920656E+03</pdfrwt>
<totfact> 0.62985075E+04</totfact>
</mgrwt>
</event>
<event>
 4    1  0.4017302E+000  0.1732990E+03  0.7546771E-02  0.1174451E+00
         21   -1    0    0  501  502  0.00000000000E+00  0.00000000000E+00  0.13188437474E+03  0.13188437474E+03  0.00000000000E+00 0. -1.
         21   -1    0    0  502  503 -0.00000000000E+00 -0.00000000000E+00 -0.26109848175E+04  0.26109848175E+04  0.00000000000E+00 0. -1.
          6    1    1    2  501    0 -0.94153377158E+01  0.38576415926E+01  0.70714967388E+02  0.18717140966E+03  0.17300000000E+03 0. -1.
         -6    1    1    2    0  503  0.94153377158E+01 -0.38576415926E+01 -0.25498154102E+04  0.25556977826E+04  0.17300000000E+03 0. -1.
<mgrwt>
<rscale>  2 0.17329896E+03</rscale>
<asrwt>0</asrwt>
<pdfrwt beam="1">  1       21 0.20289906E-01 0.17329896E+03</pdfrwt>
<pdfrwt beam="2">  1       21 0.40168993E+00 0.17329896E+03</pdfrwt>
<totfact> 0.19808885E+02</totfact>
</mgrwt>
</event>
<event>
 4    1  0.4017302E+000  0.2500026E+03  0.7546771E-02  0.1113303E+00
         21   -1    0    0  503  502  0.00000000000E+00  0.00000000000E+00  0.86001705058E+03  0.86001705058E+03  0.00000000000E+00 0. -1.
         21   -1    0    0  501  503 -0.00000000000E+00 -0.00000000000E+00 -0.72714068847E+02  0.72714068847E+02  0.00000000000E+00 0. -1.
          6    1    1    2  501    0  0.98364310557E+02  0.15131677773E+03  0.40453130693E+03  0.47554903333E+03  0.17300000000E+03 0. -1.
         -6    1    1    2    0  502 -0.98364310557E+02 -0.15131677773E+03  0.38277167480E+03  0.45718208610E+03  0.17300000000E+03 0. -1.
<mgrwt>
<rscale>  2 0.25000261E+03</rscale>
<asrwt>0</asrwt>
<pdfrwt beam="1">  1       21 0.13231031E+00 0.25000261E+03</pdfrwt>
<pdfrwt beam="2">  1       21 0.11186780E-01 0.25000261E+03</pdfrwt>
<totfact> 0.26626228E+04</totfact>
</mgrwt>
</event>
<event>
 4    1  0.4017302E+000  0.3104463E+03  0.7546771E-02  0.1080132E+00
         21   -1    0    0  501  502  0.00000000000E+00  0.00000000000E+00  0.39090486098E+03  0.39090486098E+03  0.00000000000E+00 0. -1.
         21   -1    0    0  502  503 -0.00000000000E+00 -0.00000000000E+00 -0.24688208091E+03  0.24688208091E+03  0.00000000000E+00 0.  1.
          6    1    1    2  501    0  0.21509804610E+03  0.14205888523E+03  0.60284418011E+02  0.31624532781E+03  0.17300000000E+03 0.  1.
         -6    1    1    2    0  503 -0.21509804610E+03 -0.14205888523E+03  0.83738362060E+02  0.32154161409E+03  0.17300000000E+03 0.  1.
<mgrwt>
<rscale>  2 0.31044629E+03</rscale>
<asrwt>0</asrwt>
<pdfrwt beam="1">  1       21 0.60139210E-01 0.31044629E+03</pdfrwt>
<pdfrwt beam="2">  1       21 0.37981858E-01 0.31044629E+03</pdfrwt>
<totfact> 0.16242268E+04</totfact>
</mgrwt>
</event>
<event>
 4    1  0.4017302E+000  0.3314738E+03  0.7546771E-02  0.1070487E+00
         21   -1    0    0  501  502  0.00000000000E+00  0.00000000000E+00  0.42830265185E+03  0.42830265185E+03  0.00000000000E+00 0. -1.
         21   -1    0    0  502  503 -0.00000000000E+00 -0.00000000000E+00 -0.88357679340E+03  0.88357679340E+03  0.00000000000E+00 0.  1.
          6    1    1    2  501    0  0.25334947576E+03  0.12553863738E+03  0.32493609998E+03  0.46417494053E+03  0.17300000000E+03 0. -1.
         -6    1    1    2    0  503 -0.25334947576E+03 -0.12553863738E+03 -0.78021024153E+03  0.84770450473E+03  0.17300000000E+03 0.  1.
<mgrwt>
<rscale>  2 0.33147384E+03</rscale>
<asrwt>0</asrwt>
<pdfrwt beam="1">  1       21 0.65892717E-01 0.33147384E+03</pdfrwt>
<pdfrwt beam="2">  1       21 0.13593489E+00 0.33147384E+03</pdfrwt>
<totfact> 0.72974293E+02</totfact>
</mgrwt>
</event>
<event>
 4    1  0.4017302E+000  0.1775144E+03  0.7546771E-02  0.1170230E+00
         21   -1    0    0  501  502  0.00000000000E+00  0.00000000000E+00  0.27588041382E+03  0.27588041382E+03  0.00000000000E+00 0.  1.
         21   -1    0    0  502  503 -0.00000000000E+00 -0.00000000000E+00 -0.38738854421E+03  0.38738854421E+03  0.00000000000E+00 0.  1.
          6    1    1    2  501    0 -0.69452349502E+01 -0.39168110631E+02  0.22273023875E+03  0.28481596941E+03  0.17300000000E+03 0.  1.
         -6    1    1    2    0  503  0.69452349502E+01  0.39168110631E+02 -0.33423836915E+03  0.37845298861E+03  0.17300000000E+03 0.  1.
<mgrwt>
<rscale>  2 0.17751444E+03</rscale>
<asrwt>0</asrwt>
<pdfrwt beam="1">  1       21 0.42443140E-01 0.17751444E+03</pdfrwt>
<pdfrwt beam="2">  1       21 0.59598238E-01 0.17751444E+03</pdfrwt>
<totfact> 0.14178840E+04</totfact>
</mgrwt>
</event>
<event>
 4    1  0.4017302E+000  0.2504423E+03  0.7546771E-02  0.1113026E+00
         21   -1    0    0  503  502  0.00000000000E+00  0.00000000000E+00  0.78518263694E+03  0.78518263694E+03  0.00000000000E+00 0.  1.
         21   -1    0    0  501  503 -0.00000000000E+00 -0.00000000000E+00 -0.14026541423E+03  0.14026541423E+03  0.00000000000E+00 0. -1.
          6    1    1    2  501    0  0.17810377478E+03  0.32732090937E+02  0.18853974698E+02  0.25115098393E+03  0.17300000000E+03 0. -1.
         -6    1    1    2    0  502 -0.17810377478E+03 -0.32732090937E+02  0.62606324801E+03  0.67429706723E+03  0.17300000000E+03 0.  1.
<mgrwt>
<rscale>  2 0.25044230E+03</rscale>
<asrwt>0</asrwt>
<pdfrwt beam="1">  1       21 0.12079733E+00 0.25044230E+03</pdfrwt>
<pdfrwt beam="2">  1       21 0.21579295E-01 0.25044230E+03</pdfrwt>
<totfact> 0.10014363E+04</totfact>
</mgrwt>
</event>
<event>
 4    1  0.4017302E+000  0.2043850E+03  0.7546771E-02  0.1146091E+00
         21   -1    0    0  501  502  0.00000000000E+00  0.00000000000E+00  0.16422079217E+03  0.16422079217E+03  0.00000000000E+00 0.  1.
         21   -1    0    0  502  503 -0.00000000000E+00 -0.00000000000E+00 -0.25499478533E+03  0.25499478533E+03  0.00000000000E+00 0.  1.
          6    1    1    2  501    0 -0.83014257414E+02 -0.70376525444E+02 -0.35030739718E+02  0.20736531772E+03  0.17300000000E+03 0.  1.
         -6    1    1    2    0  503  0.83014257414E+02  0.70376525444E+02 -0.55743253439E+02  0.21185025979E+03  0.17300000000E+03 0.  1.
<mgrwt>
<rscale>  2 0.20438499E+03</rscale>
<asrwt>0</asrwt>
<pdfrwt beam="1">  1       21 0.25264737E-01 0.20438499E+03</pdfrwt>
<pdfrwt beam="2">  1       21 0.39229967E-01 0.20438499E+03</pdfrwt>
<totfact> 0.92547566E+04</totfact>
</mgrwt>
</event>
<event>
 4    1  0.4017302E+000  0.1801188E+03  0.7546771E-02  0.1167688E+00
         21   -1    0    0  501  502  0.00000000000E+00  0.00000000000E+00  0.13766777683E+03  0.13766777683E+03  0.00000000000E+00 0. -1.
         21   -1    0    0  502  503 -0.00000000000E+00 -0.00000000000E+00 -0.95963752877E+03  0.95963752877E+03  0.00000000000E+00 0. -1.
          6    1    1    2  501    0  0.34110015355E+02  0.36746427474E+02  0.65562853184E+02  0.19168015233E+03  0.17300000000E+03 0. -1.
         -6    1    1    2    0  503 -0.34110015355E+02 -0.36746427474E+02 -0.88753260512E+03  0.90562515327E+03  0.17300000000E+03 0. -1.
<mgrwt>
<rscale>  2 0.18011883E+03</rscale>
<asrwt>0</asrwt>
<pdfrwt beam="1">  1       21 0.21179657E-01 0.18011883E+03</pdfrwt>
<pdfrwt beam="2">  1       21 0.14763655E+00 0.18011883E+03</pdfrwt>
<totfact> 0.65281464E+03</totfact>
</mgrwt>
</event>
<event>
 4    1  0.4017302E+000  0.2077205E+03  0.7546771E-02  0.1143384E+00
         21   -1    0    0  501  502  0.00000000000E+00  0.00000000000E+00  0.21908205595E+03  0.21908205595E+03  0.00000000000E+00 0.  1.
         21   -1    0    0  502  503 -0.00000000000E+00 -0.00000000000E+00 -0.33866026588E+03  0.33866026588E+03  0.00000000000E+00 0.  1.
          6    1    1    2  501    0  0.83604758039E+02  0.78924219651E+02  0.12060614443E+03  0.24019498348E+03  0.17300000000E+03 0.  1.
         -6    1    1    2    0  503 -0.83604758039E+02 -0.78924219651E+02 -0.24018435437E+03  0.31754733836E+03  0.17300000000E+03 0.  1.
<mgrwt>
<rscale>  2 0.20772046E+03</rscale>
<asrwt>0</asrwt>
<pdfrwt beam="1">  1       21 0.33704932E-01 0.20772046E+03</pdfrwt>
<pdfrwt beam="2">  1       21 0.52101579E-01 0.20772046E+03</pdfrwt>
<totfact> 0.29399626E+04</totfact>
</mgrwt>
</event>
<event>
 4    1  0.4017302E+000  0.1936464E+03  0.7546771E-02  0.1155213E+00
         21   -1    0    0  501  502  0.00000000000E+00  0.00000000000E+00  0.10423374214E+04  0.10423374214E+04  0.00000000000E+00 0.  1.
         21   -1    0    0  502  503 -0.00000000000E+00 -0.00000000000E+00 -0.36517072418E+02  0.36517072418E+02  0.00000000000E+00 0.  1.
          6    1    1    2  501    0  0.49089687025E+02  0.71834066064E+02  0.56858362643E+03  0.60065486818E+03  0.17300000000E+03 0. -1.
         -6    1    1    2    0  503 -0.49089687025E+02 -0.71834066064E+02  0.43723672259E+03  0.47819962568E+03  0.17300000000E+03 0. -1.
<mgrwt>
<rscale>  2 0.19364641E+03</rscale>
<asrwt>0</asrwt>
<pdfrwt beam="1">  1       21 0.16035958E+00 0.19364641E+03</pdfrwt>
<pdfrwt beam="2">  1       21 0.56180119E-02 0.19364641E+03</pdfrwt>
<totfact> 0.55167750E+04</totfact>
</mgrwt>
</event>
<event>
 4    1  0.4017302E+000  0.1823391E+03  0.7546771E-02  0.1165558E+00
         21   -1    0    0  503  502  0.00000000000E+00  0.00000000000E+00  0.37032230512E+02  0.37032230512E+02  0.00000000000E+00 0.  1.
         21   -1    0    0  501  503 -0.00000000000E+00 -0.00000000000E+00 -0.91782569469E+03  0.91782569469E+03  0.00000000000E+00 0. -1.
          6    1    1    2  501    0  0.15946714270E+02 -0.55355761111E+02 -0.36987610336E+03  0.41237833335E+03  0.17300000000E+03 0.  1.
         -6    1    1    2    0  502 -0.15946714270E+02  0.55355761111E+02 -0.51091736083E+03  0.54247959185E+03  0.17300000000E+03 0. -1.
<mgrwt>
<rscale>  2 0.18233913E+03</rscale>
<asrwt>0</asrwt>
<pdfrwt beam="1">  1       21 0.56972665E-02 0.18233913E+03</pdfrwt>
<pdfrwt beam="2">  1       21 0.14120395E+00 0.18233913E+03</pdfrwt>
<totfact> 0.75781205E+04</totfact>
</mgrwt>
</event>
<event>
 4    1  0.4017302E+000  0.2373706E+03  0.7546771E-02  0.1121557E+00
         21   -1    0    0  503  502  0.00000000000E+00  0.00000000000E+00  0.44660060092E+02  0.44660060092E+02  0.00000000000E+00 0. -1.
         21   -1    0    0  501  503 -0.00000000000E+00 -0.00000000000E+00 -0.14067071843E+04  0.14067071843E+04  0.00000000000E+00 0.  1.
          6    1    1    2  501    0 -0.60044000704E+02 -0.15103155522E+03 -0.44798188530E+03  0.50698380867E+03  0.17300000000E+03 0. -1.
         -6    1    1    2    0  502  0.60044000704E+02  0.15103155522E+03 -0.91406523887E+03  0.94438343569E+03  0.17300000000E+03 0.  1.
<mgrwt>
<rscale>  2 0.23737062E+03</rscale>
<asrwt>0</asrwt>
<pdfrwt beam="1">  1       21 0.68707780E-02 0.23737062E+03</pdfrwt>
<pdfrwt beam="2">  1       21 0.21641651E+00 0.23737062E+03</pdfrwt>
<totfact> 0.15980348E+04</totfact>
</mgrwt>
</event>
<event>
 4    1  0.4017302E+000  0.2286319E+03  0.7546771E-02  0.1127606E+00
         21   -1    0    0  501  502  0.00000000000E+00  0.00000000000E+00  0.23600416212E+03  0.23600416212E+03  0.00000000000E+00 0.  1.
         21   -1    0    0  502  503 -0.00000000000E+00 -0.00000000000E+00 -0.32002352334E+03  0.32002352334E+03  0.00000000000E+00 0.  1.
          6    1    1    2  501    0 -0.47878203985E+02 -0.14160233140E+03  0.11225540870E+03  0.25470339507E+03  0.17300000000E+03 0.  1.
         -6    1    1    2    0  503  0.47878203985E+02  0.14160233140E+03 -0.19627476992E+03  0.30132429040E+03  0.17300000000E+03 0.  1.
<mgrwt>
<rscale>  2 0.22863189E+03</rscale>
<asrwt>0</asrwt>
<pdfrwt beam="1">  1       21 0.36308333E-01 0.22863189E+03</pdfrwt>
<pdfrwt beam="2">  1       21 0.49234388E-01 0.22863189E+03</pdfrwt>
<totfact> 0.28239620E+04</totfact>
</mgrwt>
</event>
<event>
 4    1  0.4017302E+000  0.1797923E+03  0.7546771E-02  0.1168004E+00
         21   -1    0    0  503  502  0.00000000000E+00  0.00000000000E+00  0.88594460526E+02  0.88594460526E+02  0.00000000000E+00 0. -1.
         21   -1    0    0  501  503 -0.00000000000E+00 -0.00000000000E+00 -0.42360948501E+03  0.42360948501E+03  0.00000000000E+00 0. -1.
          6    1    1    2  501    0  0.47950417669E+02 -0.98502053064E+01 -0.26287561715E+03  0.31847897763E+03  0.17300000000E+03 0. -1.
         -6    1    1    2    0  502 -0.47950417669E+02  0.98502053064E+01 -0.72139407329E+02  0.19372496790E+03  0.17300000000E+03 0. -1.
<mgrwt>
<rscale>  2 0.17979229E+03</rscale>
<asrwt>0</asrwt>
<pdfrwt beam="1">  1       21 0.13629917E-01 0.17979229E+03</pdfrwt>
<pdfrwt beam="2">  1       21 0.65170691E-01 0.17979229E+03</pdfrwt>
<totfact> 0.10164246E+05</totfact>
</mgrwt>
</event>
<event>
 4    1  0.4017302E+000  0.2629027E+03  0.7546771E-02  0.1105412E+00
         21   -1    0    0  503  502  0.00000000000E+00  0.00000000000E+00  0.12316700798E+03  0.12316700798E+03  0.00000000000E+00 0. -1.
         21   -1    0    0  501  503 -0.00000000000E+00 -0.00000000000E+00 -0.64583460684E+03  0.64583460684E+03  0.00000000000E+00 0.  1.
          6    1    1    2  501    0 -0.17858973615E+03  0.85408115092E+02 -0.40054788281E+03  0.47912049258E+03  0.17300000000E+03 0.  1.
         -6    1    1    2    0  502  0.17858973615E+03 -0.85408115092E+02 -0.12211971605E+03  0.28988112224E+03  0.17300000000E+03 0. -1.
<mgrwt>
<rscale>  2 0.26290272E+03</rscale>
<asrwt>0</asrwt>
<pdfrwt beam="1">  1       21 0.18948771E-01 0.26290272E+03</pdfrwt>
<pdfrwt beam="2">  1       21 0.99359170E-01 0.26290272E+03</pdfrwt>
<totfact> 0.20477076E+04</totfact>
</mgrwt>
</event>
<event>
 4    1  0.4017302E+000  0.2027969E+03  0.7546771E-02  0.1147400E+00
         21   -1    0    0  503  502  0.00000000000E+00  0.00000000000E+00  0.19996076876E+03  0.19996076876E+03  0.00000000000E+00 0. -1.
         21   -1    0    0  501  503 -0.00000000000E+00 -0.00000000000E+00 -0.99818302029E+03  0.99818302029E+03  0.00000000000E+00 0. -1.
          6    1    1    2  501    0  0.77496848183E+02  0.72054277790E+02 -0.93290817619E+03  0.95469589170E+03  0.17300000000E+03 0. -1.
         -6    1    1    2    0  502 -0.77496848183E+02 -0.72054277790E+02  0.13468592466E+03  0.24344789736E+03  0.17300000000E+03 0. -1.
<mgrwt>
<rscale>  2 0.20279689E+03</rscale>
<asrwt>0</asrwt>
<pdfrwt beam="1">  1       21 0.30763197E-01 0.20279689E+03</pdfrwt>
<pdfrwt beam="2">  1       21 0.15356661E+00 0.20279689E+03</pdfrwt>
<totfact> 0.28240147E+03</totfact>
</mgrwt>
</event>
<event>
 4    1  0.4017302E+000  0.2169754E+03  0.7546771E-02  0.1136158E+00
         21   -1    0    0  501  502  0.00000000000E+00  0.00000000000E+00  0.41790674231E+03  0.41790674231E+03  0.00000000000E+00 0.  1.
         21   -1    0    0  502  503 -0.00000000000E+00 -0.00000000000E+00 -0.14004610380E+03  0.14004610380E+03  0.00000000000E+00 0.  1.
          6    1    1    2  501    0  0.49201353272E+02 -0.12136124034E+03  0.26231321757E+03  0.34042113320E+03  0.17300000000E+03 0.  1.
         -6    1    1    2    0  503 -0.49201353272E+02  0.12136124034E+03  0.15547420939E+02  0.21753171290E+03  0.17300000000E+03 0.  1.
<mgrwt>
<rscale>  2 0.21697540E+03</rscale>
<asrwt>0</asrwt>
<pdfrwt beam="1">  1       21 0.64293344E-01 0.21697540E+03</pdfrwt>
<pdfrwt beam="2">  1       21 0.21545555E-01 0.21697540E+03</pdfrwt>
<totfact> 0.44273210E+04</totfact>
</mgrwt>
</event>
<event>
 4    1  0.4017302E+000  0.2072283E+03  0.7546771E-02  0.1143780E+00
         21   -1    0    0  501  502  0.00000000000E+00  0.00000000000E+00  0.29053549229E+03  0.29053549229E+03  0.00000000000E+00 0.  1.
         21   -1    0    0  502  503 -0.00000000000E+00 -0.00000000000E+00 -0.16604290617E+03  0.16604290617E+03  0.00000000000E+00 0.  1.
          6    1    1    2  501    0 -0.10818650492E+03 -0.36197537518E+02  0.13789863852E+03  0.24891688588E+03  0.17300000000E+03 0.  1.
         -6    1    1    2    0  503  0.10818650492E+03  0.36197537518E+02 -0.13406052393E+02  0.20766151259E+03  0.17300000000E+03 0.  1.
<mgrwt>
<rscale>  2 0.20722833E+03</rscale>
<asrwt>0</asrwt>
<pdfrwt beam="1">  1       21 0.44697768E-01 0.20722833E+03</pdfrwt>
<pdfrwt beam="2">  1       21 0.25545063E-01 0.20722833E+03</pdfrwt>
<totfact> 0.69383443E+04</totfact>
</mgrwt>
</event>
<event>
 4    1  0.4017302E+000  0.1784824E+03  0.7546771E-02  0.1169280E+00
         21   -1    0    0  503  502  0.00000000000E+00  0.00000000000E+00  0.80295637111E+02  0.80295637111E+02  0.00000000000E+00 0. -1.
         21   -1    0    0  501  503 -0.00000000000E+00 -0.00000000000E+00 -0.56991956735E+03  0.56991956735E+03  0.00000000000E+00 0. -1.
          6    1    1    2  501    0 -0.41688856329E+02  0.13747763516E+02 -0.42402802782E+03  0.46006057223E+03  0.17300000000E+03 0. -1.
         -6    1    1    2    0  502  0.41688856329E+02 -0.13747763516E+02 -0.65595902415E+02  0.19015463223E+03  0.17300000000E+03 0. -1.
<mgrwt>
<rscale>  2 0.17848238E+03</rscale>
<asrwt>0</asrwt>
<pdfrwt beam="1">  1       21 0.12353175E-01 0.17848238E+03</pdfrwt>
<pdfrwt beam="2">  1       21 0.87679931E-01 0.17848238E+03</pdfrwt>
<totfact> 0.62574270E+04</totfact>
</mgrwt>
</event>
<event>
 4    1  0.4017302E+000  0.1938339E+03  0.7546771E-02  0.1155048E+00
         21   -1    0    0  501  502  0.00000000000E+00  0.00000000000E+00  0.36827096164E+03  0.36827096164E+03  0.00000000000E+00 0.  1.
         21   -1    0    0  502  503 -0.00000000000E+00 -0.00000000000E+00 -0.24579560169E+03  0.24579560169E+03  0.00000000000E+00 0.  1.
          6    1    1    2  501    0 -0.81967157422E+02 -0.30396695322E+02  0.29605961265E+03  0.35386843349E+03  0.17300000000E+03 0.  1.
         -6    1    1    2    0  503  0.81967157422E+02  0.30396695322E+02 -0.17358425270E+03  0.26019812983E+03  0.17300000000E+03 0.  1.
<mgrwt>
<rscale>  2 0.19383388E+03</rscale>
<asrwt>0</asrwt>
<pdfrwt beam="1">  1       21 0.56657071E-01 0.19383388E+03</pdfrwt>
<pdfrwt beam="2">  1       21 0.37814708E-01 0.19383388E+03</pdfrwt>
<totfact> 0.19740664E+04</totfact>
</mgrwt>
</event>
<event>
 4    1  0.4017302E+000  0.1781392E+03  0.7546771E-02  0.1169616E+00
         21   -1    0    0  501  502  0.00000000000E+00  0.00000000000E+00  0.17305548840E+03  0.17305548840E+03  0.00000000000E+00 0.  1.
         21   -1    0    0  502  503 -0.00000000000E+00 -0.00000000000E+00 -0.24117019960E+03  0.24117019960E+03  0.00000000000E+00 0.  1.
          6    1    1    2  501    0 -0.11180964515E+02  0.40982428766E+02  0.67334120394E+02  0.19044016699E+03  0.17300000000E+03 0.  1.
         -6    1    1    2    0  503  0.11180964515E+02 -0.40982428766E+02 -0.13544883159E+03  0.22378552101E+03  0.17300000000E+03 0.  1.
<mgrwt>
<rscale>  2 0.17813920E+03</rscale>
<asrwt>0</asrwt>
<pdfrwt beam="1">  1       21 0.26623922E-01 0.17813920E+03</pdfrwt>
<pdfrwt beam="2">  1       21 0.37103107E-01 0.17813920E+03</pdfrwt>
<totfact> 0.94590522E+04</totfact>
</mgrwt>
</event>
<event>
 4    1  0.4017302E+000  0.2031189E+03  0.7546771E-02  0.1147134E+00
         21   -1    0    0  501  502  0.00000000000E+00  0.00000000000E+00  0.87323487217E+02  0.87323487217E+02  0.00000000000E+00 0.  1.
         21   -1    0    0  502  503 -0.00000000000E+00 -0.00000000000E+00 -0.53114273646E+03  0.53114273646E+03  0.00000000000E+00 0. -1.
          6    1    1    2  501    0 -0.69582003233E+02  0.80539674045E+02 -0.11912765841E+03  0.23547546213E+03  0.17300000000E+03 0. -1.
         -6    1    1    2    0  503  0.69582003233E+02 -0.80539674045E+02 -0.32469159083E+03  0.38299076154E+03  0.17300000000E+03 0. -1.
<mgrwt>
<rscale>  2 0.20311892E+03</rscale>
<asrwt>0</asrwt>
<pdfrwt beam="1">  1       21 0.13434383E-01 0.20311892E+03</pdfrwt>
<pdfrwt beam="2">  1       21 0.81714266E-01 0.20311892E+03</pdfrwt>
<totfact> 0.62488046E+04</totfact>
</mgrwt>
</event>
<event>
 4    1  0.4017302E+000  0.2784807E+03  0.7546771E-02  0.1096522E+00
         21   -1    0    0  503  502  0.00000000000E+00  0.00000000000E+00  0.41896653443E+03  0.41896653443E+03  0.00000000000E+00 0.  1.
         21   -1    0    0  501  503 -0.00000000000E+00 -0.00000000000E+00 -0.23929018396E+03  0.23929018396E+03  0.00000000000E+00 0.  1.
          6    1    1    2  501    0  0.84513264476E+02  0.20119643466E+03 -0.66784848340E+02  0.28637687260E+03  0.17300000000E+03 0.  1.
         -6    1    1    2    0  502 -0.84513264476E+02 -0.20119643466E+03  0.24646119880E+03  0.37187984579E+03  0.17300000000E+03 0.  1.
<mgrwt>
<rscale>  2 0.27848069E+03</rscale>
<asrwt>0</asrwt>
<pdfrwt beam="1">  1       21 0.64456390E-01 0.27848069E+03</pdfrwt>
<pdfrwt beam="2">  1       21 0.36813875E-01 0.27848069E+03</pdfrwt>
<totfact> 0.15073567E+04</totfact>
</mgrwt>
</event>
<event>
 4    1  0.4017302E+000  0.1911631E+03  0.7546771E-02  0.1157416E+00
         21   -1    0    0  501  502  0.00000000000E+00  0.00000000000E+00  0.73260066554E+02  0.73260066554E+02  0.00000000000E+00 0. -1.
         21   -1    0    0  502  503 -0.00000000000E+00 -0.00000000000E+00 -0.52840539529E+03  0.52840539529E+03  0.00000000000E+00 0. -1.
          6    1    1    2  501    0 -0.63372672086E+02 -0.50972845204E+02 -0.15638476336E+03  0.24698081044E+03  0.17300000000E+03 0. -1.
         -6    1    1    2    0  503  0.63372672086E+02  0.50972845204E+02 -0.29876056538E+03  0.35468465140E+03  0.17300000000E+03 0. -1.
<mgrwt>
<rscale>  2 0.19116309E+03</rscale>
<asrwt>0</asrwt>
<pdfrwt beam="1">  1       21 0.11270780E-01 0.19116309E+03</pdfrwt>
<pdfrwt beam="2">  1       21 0.81293137E-01 0.19116309E+03</pdfrwt>
<totfact> 0.87104311E+04</totfact>
</mgrwt>
</event>
<event>
 4    1  0.4017302E+000  0.1808223E+03  0.7546771E-02  0.1167010E+00
         21   -1    0    0  503  502  0.00000000000E+00  0.00000000000E+00  0.15409964901E+03  0.15409964901E+03  0.00000000000E+00 0. -1.
         21   -1    0    0  501  503 -0.00000000000E+00 -0.00000000000E+00 -0.22167200351E+03  0.22167200351E+03  0.00000000000E+00 0. -1.
          6    1    1    2  501    0 -0.51955839774E+02  0.82633762564E+01  0.50953130959E+01  0.18089404327E+03  0.17300000000E+03 0. -1.
         -6    1    1    2    0  502  0.51955839774E+02 -0.82633762564E+01 -0.72667667595E+02  0.19487760925E+03  0.17300000000E+03 0. -1.
<mgrwt>
<rscale>  2 0.18082227E+03</rscale>
<asrwt>0</asrwt>
<pdfrwt beam="1">  1       21 0.23707638E-01 0.18082227E+03</pdfrwt>
<pdfrwt beam="2">  1       21 0.34103385E-01 0.18082227E+03</pdfrwt>
<totfact> 0.13937435E+05</totfact>
</mgrwt>
</event>
<event>
 4    1  0.4017302E+000  0.1841744E+03  0.7546771E-02  0.1163823E+00
         21   -1    0    0  503  502  0.00000000000E+00  0.00000000000E+00  0.39802271726E+03  0.39802271726E+03  0.00000000000E+00 0.  1.
         21   -1    0    0  501  503 -0.00000000000E+00 -0.00000000000E+00 -0.10596549914E+03  0.10596549914E+03  0.00000000000E+00 0.  1.
          6    1    1    2  501    0 -0.21629649496E+02 -0.59357867640E+02  0.34534577629E+02  0.18738419154E+03  0.17300000000E+03 0. -1.
         -6    1    1    2    0  502  0.21629649496E+02  0.59357867640E+02  0.25752264049E+03  0.31660402486E+03  0.17300000000E+03 0. -1.
<mgrwt>
<rscale>  2 0.18417437E+03</rscale>
<asrwt>0</asrwt>
<pdfrwt beam="1">  1       21 0.61234264E-01 0.18417437E+03</pdfrwt>
<pdfrwt beam="2">  1       21 0.16302385E-01 0.18417437E+03</pdfrwt>
<totfact> 0.83849996E+04</totfact>
</mgrwt>
</event>
<event>
 4    1  0.4017302E+000  0.2860532E+03  0.7546771E-02  0.1092428E+00
         21   -1    0    0  503  502  0.00000000000E+00  0.00000000000E+00  0.67271166651E+03  0.67271166651E+03  0.00000000000E+00 0. -1.
         21   -1    0    0  501  503 -0.00000000000E+00 -0.00000000000E+00 -0.17657083027E+03  0.17657083027E+03  0.00000000000E+00 0.  1.
          6    1    1    2  501    0 -0.16914365036E+03 -0.15260367963E+03  0.11214823874E+02  0.28627299867E+03  0.17300000000E+03 0.  1.
         -6    1    1    2    0  502  0.16914365036E+03  0.15260367963E+03  0.48492601236E+03  0.56300949811E+03  0.17300000000E+03 0. -1.
<mgrwt>
<rscale>  2 0.28605324E+03</rscale>
<asrwt>0</asrwt>
<pdfrwt beam="1">  1       21 0.10349410E+00 0.28605324E+03</pdfrwt>
<pdfrwt beam="2">  1       21 0.27164744E-01 0.28605324E+03</pdfrwt>
<totfact> 0.92355698E+03</totfact>
</mgrwt>
</event>
<event>
 4    1  0.4017302E+000  0.1902996E+03  0.7546771E-02  0.1158191E+00
         21   -1    0    0  501  502  0.00000000000E+00  0.00000000000E+00  0.69530756086E+03  0.69530756086E+03  0.00000000000E+00 0. -1.
         21   -1    0    0  502  503 -0.00000000000E+00 -0.00000000000E+00 -0.67666947232E+02  0.67666947232E+02  0.00000000000E+00 0. -1.
          6    1    1    2  501    0  0.72373964983E+02  0.32356699917E+02  0.49689385640E+03  0.53208782298E+03  0.17300000000E+03 0.  1.
         -6    1    1    2    0  503 -0.72373964983E+02 -0.32356699917E+02  0.13074675723E+03  0.23088668512E+03  0.17300000000E+03 0.  1.
<mgrwt>
<rscale>  2 0.19029962E+03</rscale>
<asrwt>0</asrwt>
<pdfrwt beam="1">  1       21 0.10697039E+00 0.19029962E+03</pdfrwt>
<pdfrwt beam="2">  1       21 0.10410300E-01 0.19029962E+03</pdfrwt>
<totfact> 0.52863373E+04</totfact>
</mgrwt>
</event>
<event>
 4    1  0.4017302E+000  0.2007453E+03  0.7546771E-02  0.1149112E+00
         21   -1    0    0  503  502  0.00000000000E+00  0.00000000000E+00  0.25156914667E+02  0.25156914667E+02  0.00000000000E+00 0. -1.
         21   -1    0    0  501  503 -0.00000000000E+00 -0.00000000000E+00 -0.16048436965E+04  0.16048436965E+04  0.00000000000E+00 0. -1.
          6    1    1    2  501    0  0.27856245985E+02  0.97947536500E+02 -0.75489803136E+03  0.78113361731E+03  0.17300000000E+03 0. -1.
         -6    1    1    2    0  502 -0.27856245985E+02 -0.97947536500E+02 -0.82478875045E+03  0.84886699383E+03  0.17300000000E+03 0. -1.
<mgrwt>
<rscale>  2 0.20074534E+03</rscale>
<asrwt>0</asrwt>
<pdfrwt beam="1">  1       21 0.38702943E-02 0.20074534E+03</pdfrwt>
<pdfrwt beam="2">  1       21 0.24689904E+00 0.20074534E+03</pdfrwt>
<totfact> 0.28528159E+04</totfact>
</mgrwt>
</event>
<event>
 4    1  0.4017302E+000  0.1775346E+03  0.7546771E-02  0.1170211E+00
         21   -1    0    0  503  502  0.00000000000E+00  0.00000000000E+00  0.28776978241E+04  0.28776978241E+04  0.00000000000E+00 0.  1.
         21   -1    0    0  501  503 -0.00000000000E+00 -0.00000000000E+00 -0.28975173246E+02  0.28975173246E+02  0.00000000000E+00 0.  1.
          6    1    1    2  501    0  0.36073985703E+02  0.16976935098E+02  0.27816132167E+03  0.32998828713E+03  0.17300000000E+03 0.  1.
         -6    1    1    2    0  502 -0.36073985703E+02 -0.16976935098E+02  0.25705613292E+04  0.25766847102E+04  0.17300000000E+03 0.  1.
<mgrwt>
<rscale>  2 0.17753464E+03</rscale>
<asrwt>0</asrwt>
<pdfrwt beam="1">  1       21 0.44272252E+00 0.17753464E+03</pdfrwt>
<pdfrwt beam="2">  1       21 0.44577212E-02 0.17753464E+03</pdfrwt>
<totfact> 0.15555176E+03</totfact>
</mgrwt>
</event>
<event>
 4    1  0.4017302E+000  0.1868554E+03  0.7546771E-02  0.1161328E+00
         21   -1    0    0  501  502  0.00000000000E+00  0.00000000000E+00  0.14138148701E+03  0.14138148701E+03  0.00000000000E+00 0. -1.
         21   -1    0    0  502  503 -0.00000000000E+00 -0.00000000000E+00 -0.27804547608E+03  0.27804547608E+03  0.00000000000E+00 0.  1.
          6    1    1    2  501    0  0.62119851282E+02  0.33572052188E+02 -0.13845774167E+03  0.23256290513E+03  0.17300000000E+03 0. -1.
         -6    1    1    2    0  503 -0.62119851282E+02 -0.33572052188E+02  0.17937526097E+01  0.18686405797E+03  0.17300000000E+03 0. -1.
<mgrwt>
<rscale>  2 0.18685545E+03</rscale>
<asrwt>0</asrwt>
<pdfrwt beam="1">  1       21 0.21750998E-01 0.18685545E+03</pdfrwt>
<pdfrwt beam="2">  1       21 0.42776227E-01 0.18685545E+03</pdfrwt>
<totfact> 0.10388902E+05</totfact>
</mgrwt>
</event>
<event>
 4    1  0.4017302E+000  0.1741818E+03  0.7546771E-02  0.1173556E+00
         21   -1    0    0  501  502  0.00000000000E+00  0.00000000000E+00  0.12427285458E+04  0.12427285458E+04  0.00000000000E+00 0. -1.
         21   -1    0    0  502  503 -0.00000000000E+00 -0.00000000000E+00 -0.31185850377E+02  0.31185850377E+02  0.00000000000E+00 0. -1.
          6    1    1    2  501    0  0.78037291431E+01  0.18692109170E+02  0.90259787943E+03  0.91925090432E+03  0.17300000000E+03 0. -1.
         -6    1    1    2    0  503 -0.78037291431E+01 -0.18692109170E+02  0.30894481602E+03  0.35466349189E+03  0.17300000000E+03 0. -1.
<mgrwt>
<rscale>  2 0.17418178E+03</rscale>
<asrwt>0</asrwt>
<pdfrwt beam="1">  1       21 0.19118897E+00 0.17418178E+03</pdfrwt>
<pdfrwt beam="2">  1       21 0.47978241E-02 0.17418178E+03</pdfrwt>
<totfact> 0.44732767E+04</totfact>
</mgrwt>
</event>
<event>
 4    1  0.4017302E+000  0.2723646E+03  0.7546771E-02  0.1099934E+00
         21   -1    0    0  501  502  0.00000000000E+00  0.00000000000E+00  0.16499384959E+03  0.16499384959E+03  0.00000000000E+00 0.  1.
         21   -1    0    0  502  503 -0.00000000000E+00 -0.00000000000E+00 -0.83932020615E+03  0.83932020615E+03  0.00000000000E+00 0. -1.
          6    1    1    2  501    0  0.19721178395E+03  0.73218899613E+02  0.50115348686E+01  0.27241073854E+03  0.17300000000E+03 0. -1.
         -6    1    1    2    0  503 -0.19721178395E+03 -0.73218899613E+02 -0.67933789143E+03  0.73190331720E+03  0.17300000000E+03 0. -1.
<mgrwt>
<rscale>  2 0.27236464E+03</rscale>
<asrwt>0</asrwt>
<pdfrwt beam="1">  1       21 0.25383669E-01 0.27236464E+03</pdfrwt>
<pdfrwt beam="2">  1       21 0.12912619E+00 0.27236464E+03</pdfrwt>
<totfact> 0.61271056E+03</totfact>
</mgrwt>
</event>
<event>
 4    1  0.4017302E+000  0.2118343E+03  0.7546771E-02  0.1140122E+00
         21   -1    0    0  501  502  0.00000000000E+00  0.00000000000E+00  0.11626190284E+03  0.11626190284E+03  0.00000000000E+00 0. -1.
         21   -1    0    0  502  503 -0.00000000000E+00 -0.00000000000E+00 -0.97462770938E+03  0.97462770938E+03  0.00000000000E+00 0. -1.
          6    1    1    2  501    0  0.99038946458E+02 -0.71666313698E+02 -0.52839714291E+01  0.21190019771E+03  0.17300000000E+03 0. -1.
         -6    1    1    2    0  503 -0.99038946458E+02  0.71666313698E+02 -0.85308183511E+03  0.87898941451E+03  0.17300000000E+03 0. -1.
<mgrwt>
<rscale>  2 0.21183431E+03</rscale>
<asrwt>0</asrwt>
<pdfrwt beam="1">  1       21 0.17886446E-01 0.21183431E+03</pdfrwt>
<pdfrwt beam="2">  1       21 0.14994273E+00 0.21183431E+03</pdfrwt>
<totfact> 0.83755652E+03</totfact>
</mgrwt>
</event>
<event>
 4    1  0.4017302E+000  0.1947131E+03  0.7546771E-02  0.1154278E+00
         21   -1    0    0  503  502  0.00000000000E+00  0.00000000000E+00  0.15629516674E+03  0.15629516674E+03  0.00000000000E+00 0. -1.
         21   -1    0    0  501  503 -0.00000000000E+00 -0.00000000000E+00 -0.25253145890E+03  0.25253145890E+03  0.00000000000E+00 0. -1.
          6    1    1    2  501    0 -0.89252079479E+02 -0.42724483151E+01 -0.88708196654E+02  0.21396806224E+03  0.17300000000E+03 0. -1.
         -6    1    1    2    0  502  0.89252079479E+02  0.42724483151E+01 -0.75280955085E+01  0.19485856339E+03  0.17300000000E+03 0. -1.
<mgrwt>
<rscale>  2 0.19471309E+03</rscale>
<asrwt>0</asrwt>
<pdfrwt beam="1">  1       21 0.24045410E-01 0.19471309E+03</pdfrwt>
<pdfrwt beam="2">  1       21 0.38850994E-01 0.19471309E+03</pdfrwt>
<totfact> 0.10412859E+05</totfact>
</mgrwt>
</event>
<event>
 4    1  0.4017302E+000  0.1863599E+03  0.7546771E-02  0.1161786E+00
         21   -1    0    0  503  502  0.00000000000E+00  0.00000000000E+00  0.20440311274E+03  0.20440311274E+03  0.00000000000E+00 0. -1.
         21   -1    0    0  501  503 -0.00000000000E+00 -0.00000000000E+00 -0.24126261294E+03  0.24126261294E+03  0.00000000000E+00 0. -1.
          6    1    1    2  501    0 -0.63927987693E+02  0.26724850437E+02 -0.13961257375E+03  0.23285548306E+03  0.17300000000E+03 0. -1.
         -6    1    1    2    0  502  0.63927987693E+02 -0.26724850437E+02  0.10275307354E+03  0.21281024262E+03  0.17300000000E+03 0. -1.
<mgrwt>
<rscale>  2 0.18635988E+03</rscale>
<asrwt>0</asrwt>
<pdfrwt beam="1">  1       21 0.31446633E-01 0.18635988E+03</pdfrwt>
<pdfrwt beam="2">  1       21 0.37117325E-01 0.18635988E+03</pdfrwt>
<totfact> 0.68221065E+04</totfact>
</mgrwt>
</event>
<event>
 4    1  0.4017302E+000  0.2013506E+03  0.7546771E-02  0.1148604E+00
         21   -1    0    0  503  502  0.00000000000E+00  0.00000000000E+00  0.24721411920E+03  0.24721411920E+03  0.00000000000E+00 0. -1.
         21   -1    0    0  501  503 -0.00000000000E+00 -0.00000000000E+00 -0.17517512080E+03  0.17517512080E+03  0.00000000000E+00 0.  1.
          6    1    1    2  501    0 -0.52609862519E+02  0.88573544840E+02  0.89372012050E+02  0.22029395593E+03  0.17300000000E+03 0. -1.
         -6    1    1    2    0  502  0.52609862519E+02 -0.88573544840E+02 -0.17333013649E+02  0.20209528407E+03  0.17300000000E+03 0.  1.
<mgrwt>
<rscale>  2 0.20135062E+03</rscale>
<asrwt>0</asrwt>
<pdfrwt beam="1">  1       21 0.38032942E-01 0.20135062E+03</pdfrwt>
<pdfrwt beam="2">  1       21 0.26950019E-01 0.20135062E+03</pdfrwt>
<totfact> 0.87125536E+04</totfact>
</mgrwt>
</event>
<event>
 4    1  0.4017302E+000  0.2433219E+03  0.7546771E-02  0.1117599E+00
         21   -1    0    0  503  502  0.00000000000E+00  0.00000000000E+00  0.71439588701E+02  0.71439588701E+02  0.00000000000E+00 0. -1.
         21   -1    0    0  501  503 -0.00000000000E+00 -0.00000000000E+00 -0.90649911528E+03  0.90649911528E+03  0.00000000000E+00 0. -1.
          6    1    1    2  501    0 -0.50529371658E+02  0.16347274609E+03 -0.56073067818E+03  0.61124827163E+03  0.17300000000E+03 0. -1.
         -6    1    1    2    0  502  0.50529371658E+02 -0.16347274609E+03 -0.27432884840E+03  0.36669043235E+03  0.17300000000E+03 0. -1.
<mgrwt>
<rscale>  2 0.24332192E+03</rscale>
<asrwt>0</asrwt>
<pdfrwt beam="1">  1       21 0.10990706E-01 0.24332192E+03</pdfrwt>
<pdfrwt beam="2">  1       21 0.13946140E+00 0.24332192E+03</pdfrwt>
<totfact> 0.24077517E+04</totfact>
</mgrwt>
</event>
<event>
 4    1  0.4017302E+000  0.1892552E+03  0.7546771E-02  0.1159135E+00
         21   -1    0    0  501  502  0.00000000000E+00  0.00000000000E+00  0.63662902475E+02  0.63662902475E+02  0.00000000000E+00 0. -1.
         21   -1    0    0  502  503 -0.00000000000E+00 -0.00000000000E+00 -0.56434705613E+03  0.56434705613E+03  0.00000000000E+00 0. -1.
          6    1    1    2  501    0  0.58096014696E+02 -0.50133540229E+02 -0.26775247018E+03  0.32788550451E+03  0.17300000000E+03 0. -1.
         -6    1    1    2    0  503 -0.58096014696E+02  0.50133540229E+02 -0.23293168347E+03  0.30012445409E+03  0.17300000000E+03 0. -1.
<mgrwt>
<rscale>  2 0.18925517E+03</rscale>
<asrwt>0</asrwt>
<pdfrwt beam="1">  1       21 0.97942932E-02 0.18925517E+03</pdfrwt>
<pdfrwt beam="2">  1       21 0.86822620E-01 0.18925517E+03</pdfrwt>
<totfact> 0.96210969E+04</totfact>
</mgrwt>
</event>
<event>
 4    1  0.4017302E+000  0.1764231E+03  0.7546771E-02  0.1171310E+00
         21   -1    0    0  501  502  0.00000000000E+00  0.00000000000E+00  0.16560147494E+03  0.16560147494E+03  0.00000000000E+00 0.  1.
         21   -1    0    0  502  503 -0.00000000000E+00 -0.00000000000E+00 -0.19928168144E+03  0.19928168144E+03  0.00000000000E+00 0.  1.
          6    1    1    2  501    0 -0.14296555551E+02  0.31491428194E+02 -0.60341388640E+02  0.18645692461E+03  0.17300000000E+03 0.  1.
         -6    1    1    2    0  503  0.14296555551E+02 -0.31491428194E+02  0.26661182142E+02  0.17842623177E+03  0.17300000000E+03 0.  1.
<mgrwt>
<rscale>  2 0.17642308E+03</rscale>
<asrwt>0</asrwt>
<pdfrwt beam="1">  1       21 0.25477150E-01 0.17642308E+03</pdfrwt>
<pdfrwt beam="2">  1       21 0.30658720E-01 0.17642308E+03</pdfrwt>
<totfact> 0.15000233E+05</totfact>
</mgrwt>
</event>
<event>
 4    1  0.4017302E+000  0.2176233E+03  0.7546771E-02  0.1135667E+00
         21   -1    0    0  501  502  0.00000000000E+00  0.00000000000E+00  0.70656981787E+02  0.70656981787E+02  0.00000000000E+00 0. -1.
         21   -1    0    0  502  503 -0.00000000000E+00 -0.00000000000E+00 -0.73899470629E+03  0.73899470629E+03  0.00000000000E+00 0. -1.
          6    1    1    2  501    0  0.98363985862E+02 -0.88064849340E+02 -0.21072327788E+03  0.30292604914E+03  0.17300000000E+03 0. -1.
         -6    1    1    2    0  503 -0.98363985862E+02  0.88064849340E+02 -0.45761444662E+03  0.50672563894E+03  0.17300000000E+03 0. -1.
<mgrwt>
<rscale>  2 0.21762328E+03</rscale>
<asrwt>0</asrwt>
<pdfrwt beam="1">  1       21 0.10870305E-01 0.21762328E+03</pdfrwt>
<pdfrwt beam="2">  1       21 0.11369150E+00 0.21762328E+03</pdfrwt>
<totfact> 0.41636201E+04</totfact>
</mgrwt>
</event>
<event>
 4    1  0.4017302E+000  0.1798069E+03  0.7546771E-02  0.1167990E+00
         21   -1    0    0  501  502  0.00000000000E+00  0.00000000000E+00  0.22327231762E+02  0.22327231762E+02  0.00000000000E+00 0.  1.
         21   -1    0    0  502  503 -0.00000000000E+00 -0.00000000000E+00 -0.15500447582E+04  0.15500447582E+04  0.00000000000E+00 0.  1.
          6    1    1    2  501    0 -0.48855645095E+02  0.38293569171E+01 -0.96554729035E+03  0.98214668351E+03  0.17300000000E+03 0.  1.
         -6    1    1    2    0  503  0.48855645095E+02 -0.38293569171E+01 -0.56217023613E+03  0.59022530649E+03  0.17300000000E+03 0.  1.
<mgrwt>
<rscale>  2 0.17980695E+03</rscale>
<asrwt>0</asrwt>
<pdfrwt beam="1">  1       21 0.34349574E-02 0.17980695E+03</pdfrwt>
<pdfrwt beam="2">  1       21 0.23846852E+00 0.17980695E+03</pdfrwt>
<totfact> 0.39717536E+04</totfact>
</mgrwt>
</event>
<event>
 4    1  0.4017302E+000  0.2788604E+03  0.7546771E-02  0.1096313E+00
         21   -1    0    0  503  502  0.00000000000E+00  0.00000000000E+00  0.58391696721E+03  0.58391696721E+03  0.00000000000E+00 0.  1.
         21   -1    0    0  501  503 -0.00000000000E+00 -0.00000000000E+00 -0.13929384133E+03  0.13929384133E+03  0.00000000000E+00 0.  1.
          6    1    1    2  501    0 -0.19786065776E+03 -0.93194889187E+02  0.29810026216E+03  0.40819957565E+03  0.17300000000E+03 0.  1.
         -6    1    1    2    0  502  0.19786065776E+03  0.93194889187E+02  0.14652286371E+03  0.31501123289E+03  0.17300000000E+03 0.  1.
<mgrwt>
<rscale>  2 0.27886041E+03</rscale>
<asrwt>0</asrwt>
<pdfrwt beam="1">  1       21 0.89833378E-01 0.27886041E+03</pdfrwt>
<pdfrwt beam="2">  1       21 0.21429822E-01 0.27886041E+03</pdfrwt>
<totfact> 0.20454555E+04</totfact>
</mgrwt>
</event>
<event>
 4    1  0.4017302E+000  0.2369604E+03  0.7546771E-02  0.1121834E+00
         21   -1    0    0  501  502  0.00000000000E+00  0.00000000000E+00  0.22791444794E+04  0.22791444794E+04  0.00000000000E+00 0.  1.
         21   -1    0    0  502  503 -0.00000000000E+00 -0.00000000000E+00 -0.26535597461E+02  0.26535597461E+02  0.00000000000E+00 0. -1.
          6    1    1    2  501    0 -0.24169236072E+02  0.16011581126E+03  0.81789751132E+03  0.85153189254E+03  0.17300000000E+03 0.  1.
         -6    1    1    2    0  503  0.24169236072E+02 -0.16011581126E+03  0.14347113707E+04  0.14541481844E+04  0.17300000000E+03 0. -1.
<mgrwt>
<rscale>  2 0.23696039E+03</rscale>
<asrwt>0</asrwt>
<pdfrwt beam="1">  1       21 0.35063746E+00 0.23696039E+03</pdfrwt>
<pdfrwt beam="2">  1       21 0.40824014E-02 0.23696039E+03</pdfrwt>
<totfact> 0.62425076E+03</totfact>
</mgrwt>
</event>
<event>
 4    1  0.4017302E+000  0.1953225E+03  0.7546771E-02  0.1153747E+00
         21   -1    0    0  503  502  0.00000000000E+00  0.00000000000E+00  0.19360875812E+04  0.19360875812E+04  0.00000000000E+00 0.  1.
         21   -1    0    0  501  503 -0.00000000000E+00 -0.00000000000E+00 -0.40201259415E+02  0.40201259415E+02  0.00000000000E+00 0.  1.
          6    1    1    2  501    0 -0.87258522052E+02  0.24653954505E+02  0.24237907311E+03  0.31128521042E+03  0.17300000000E+03 0.  1.
         -6    1    1    2    0  502  0.87258522052E+02 -0.24653954505E+02  0.16535072487E+04  0.16650036302E+04  0.17300000000E+03 0.  1.
<mgrwt>
<rscale>  2 0.19532247E+03</rscale>
<asrwt>0</asrwt>
<pdfrwt beam="1">  1       21 0.29785955E+00 0.19532247E+03</pdfrwt>
<pdfrwt beam="2">  1       21 0.61848107E-02 0.19532247E+03</pdfrwt>
<totfact> 0.65541054E+03</totfact>
</mgrwt>
</event>
<event>
 4    1  0.4017302E+000  0.2878772E+03  0.7546771E-02  0.1091463E+00
         21   -1    0    0  501  502  0.00000000000E+00  0.00000000000E+00  0.17130370175E+03  0.17130370175E+03  0.00000000000E+00 0. -1.
         21   -1    0    0  502  503 -0.00000000000E+00 -0.00000000000E+00 -0.48829489686E+03  0.48829489686E+03  0.00000000000E+00 0.  1.
          6    1    1    2  501    0 -0.93263392052E+02  0.21034779753E+03 -0.12678194958E+03  0.31455829183E+03  0.17300000000E+03 0.  1.
         -6    1    1    2    0  503  0.93263392052E+02 -0.21034779753E+03 -0.19020924553E+03  0.34504030678E+03  0.17300000000E+03 0. -1.
<mgrwt>
<rscale>  2 0.28787715E+03</rscale>
<asrwt>0</asrwt>
<pdfrwt beam="1">  1       21 0.26354416E-01 0.28787715E+03</pdfrwt>
<pdfrwt beam="2">  1       21 0.75122291E-01 0.28787715E+03</pdfrwt>
<totfact> 0.20668133E+04</totfact>
</mgrwt>
</event>
<event>
 4    1  0.4017302E+000  0.2485188E+03  0.7546771E-02  0.1114245E+00
         21   -1    0    0  501  502  0.00000000000E+00  0.00000000000E+00  0.24413950617E+03  0.24413950617E+03  0.00000000000E+00 0. -1.
         21   -1    0    0  502  503 -0.00000000000E+00 -0.00000000000E+00 -0.26624490518E+03  0.26624490518E+03  0.00000000000E+00 0. -1.
          6    1    1    2  501    0  0.15065845349E+03 -0.95575120215E+02  0.45915839382E+02  0.25272482569E+03  0.17300000000E+03 0. -1.
         -6    1    1    2    0  503 -0.15065845349E+03  0.95575120215E+02 -0.68021238387E+02  0.25765958566E+03  0.17300000000E+03 0. -1.
<mgrwt>
<rscale>  2 0.24851876E+03</rscale>
<asrwt>0</asrwt>
<pdfrwt beam="1">  1       21 0.37559924E-01 0.24851876E+03</pdfrwt>
<pdfrwt beam="2">  1       21 0.40960755E-01 0.24851876E+03</pdfrwt>
<totfact> 0.38220783E+04</totfact>
</mgrwt>
</event>
<event>
 4    1  0.4017302E+000  0.2011231E+03  0.7546771E-02  0.1148795E+00
         21   -1    0    0  503  502  0.00000000000E+00  0.00000000000E+00  0.15740017566E+03  0.15740017566E+03  0.00000000000E+00 0.  1.
         21   -1    0    0  501  503 -0.00000000000E+00 -0.00000000000E+00 -0.27437324223E+03  0.27437324223E+03  0.00000000000E+00 0.  1.
          6    1    1    2  501    0  0.98907468954E+02 -0.27181363909E+02 -0.11282422027E+03  0.23060749910E+03  0.17300000000E+03 0.  1.
         -6    1    1    2    0  502 -0.98907468954E+02  0.27181363909E+02 -0.41488462914E+01  0.20116591879E+03  0.17300000000E+03 0.  1.
<mgrwt>
<rscale>  2 0.20112313E+03</rscale>
<asrwt>0</asrwt>
<pdfrwt beam="1">  1       21 0.24215412E-01 0.20112313E+03</pdfrwt>
<pdfrwt beam="2">  1       21 0.42211268E-01 0.20112313E+03</pdfrwt>
<totfact> 0.86621235E+04</totfact>
</mgrwt>
</event>
<event>
 4    1  0.4017302E+000  0.2363182E+03  0.7546771E-02  0.1122270E+00
         21   -1    0    0  503  502  0.00000000000E+00  0.00000000000E+00  0.10874109269E+04  0.10874109269E+04  0.00000000000E+00 0. -1.
         21   -1    0    0  501  503 -0.00000000000E+00 -0.00000000000E+00 -0.57988075167E+02  0.57988075167E+02  0.00000000000E+00 0.  1.
          6    1    1    2  501    0 -0.21737262983E+02  0.15951421481E+03  0.32104893739E+03  0.39864610060E+03  0.17300000000E+03 0. -1.
         -6    1    1    2    0  502  0.21737262983E+02 -0.15951421481E+03  0.70837391438E+03  0.74675290151E+03  0.17300000000E+03 0.  1.
<mgrwt>
<rscale>  2 0.23631820E+03</rscale>
<asrwt>0</asrwt>
<pdfrwt beam="1">  1       21 0.16729397E+00 0.23631820E+03</pdfrwt>
<pdfrwt beam="2">  1       21 0.89212431E-02 0.23631820E+03</pdfrwt>
<totfact> 0.21503446E+04</totfact>
</mgrwt>
</event>
<event>
 4    1  0.4017302E+000  0.1970557E+03  0.7546771E-02  0.1152247E+00
         21   -1    0    0  501  502  0.00000000000E+00  0.00000000000E+00  0.22135395794E+03  0.22135395794E+03  0.00000000000E+00 0. -1.
         21   -1    0    0  502  503 -0.00000000000E+00 -0.00000000000E+00 -0.19490862013E+03  0.19490862013E+03  0.00000000000E+00 0. -1.
          6    1    1    2  501    0  0.58681132416E+02 -0.73881535300E+02  0.79027802377E+02  0.21231191702E+03  0.17300000000E+03 0.  1.
         -6    1    1    2    0  503 -0.58681132416E+02  0.73881535300E+02 -0.52582464566E+02  0.20395066104E+03  0.17300000000E+03 0.  1.
<mgrwt>
<rscale>  2 0.19705572E+03</rscale>
<asrwt>0</asrwt>
<pdfrwt beam="1">  1       21 0.34054455E-01 0.19705572E+03</pdfrwt>
<pdfrwt beam="2">  1       21 0.29985942E-01 0.19705572E+03</pdfrwt>
<totfact> 0.88454736E+04</totfact>
</mgrwt>
</event>
<event>
 4    1  0.4017302E+000  0.1765705E+03  0.7546771E-02  0.1171164E+00
         21   -1    0    0  501  502  0.00000000000E+00  0.00000000000E+00  0.84070894995E+02  0.84070894995E+02  0.00000000000E+00 0.  1.
         21   -1    0    0  502  503 -0.00000000000E+00 -0.00000000000E+00 -0.49929811420E+03  0.49929811420E+03  0.00000000000E+00 0. -1.
          6    1    1    2  501    0  0.21862580182E+02  0.27751855457E+02 -0.59665850371E+02  0.18637905353E+03  0.17300000000E+03 0.  1.
         -6    1    1    2    0  503 -0.21862580182E+02 -0.27751855457E+02 -0.35556136883E+03  0.39698995567E+03  0.17300000000E+03 0. -1.
<mgrwt>
<rscale>  2 0.17657049E+03</rscale>
<asrwt>0</asrwt>
<pdfrwt beam="1">  1       21 0.12933984E-01 0.17657049E+03</pdfrwt>
<pdfrwt beam="2">  1       21 0.76815096E-01 0.17657049E+03</pdfrwt>
<totfact> 0.77844775E+04</totfact>
</mgrwt>
</event>
<event>
 4    1  0.4017302E+000  0.1764925E+03  0.7546771E-02  0.1171241E+00
         21   -1    0    0  503  502  0.00000000000E+00  0.00000000000E+00  0.69029820920E+02  0.69029820920E+02  0.00000000000E+00 0. -1.
         21   -1    0    0  501  503 -0.00000000000E+00 -0.00000000000E+00 -0.97295846965E+03  0.97295846965E+03  0.00000000000E+00 0. -1.
          6    1    1    2  501    0  0.15057326750E+02 -0.31525641042E+02 -0.83346942075E+03  0.85195121014E+03  0.17300000000E+03 0. -1.
         -6    1    1    2    0  502 -0.15057326750E+02  0.31525641042E+02 -0.70459227985E+02  0.19003708043E+03  0.17300000000E+03 0. -1.
<mgrwt>
<rscale>  2 0.17649246E+03</rscale>
<asrwt>0</asrwt>
<pdfrwt beam="1">  1       21 0.10619973E-01 0.17649246E+03</pdfrwt>
<pdfrwt beam="2">  1       21 0.14968591E+00 0.17649246E+03</pdfrwt>
<totfact> 0.22163587E+04</totfact>
</mgrwt>
</event>
<event>
 4    1  0.4017302E+000  0.1750555E+03  0.7546771E-02  0.1172676E+00
         21   -1    0    0  501  502  0.00000000000E+00  0.00000000000E+00  0.24934445185E+03  0.24934445185E+03  0.00000000000E+00 0.  1.
         21   -1    0    0  502  503 -0.00000000000E+00 -0.00000000000E+00 -0.15538014181E+03  0.15538014181E+03  0.00000000000E+00 0.  1.
          6    1    1    2  501    0 -0.24548285977E+02  0.10621224942E+02  0.13950328300E+03  0.22384279021E+03  0.17300000000E+03 0. -1.
         -6    1    1    2    0  503  0.24548285977E+02 -0.10621224942E+02 -0.45538972955E+02  0.18088180346E+03  0.17300000000E+03 0. -1.
<mgrwt>
<rscale>  2 0.17505550E+03</rscale>
<asrwt>0</asrwt>
<pdfrwt beam="1">  1       21 0.38360685E-01 0.17505550E+03</pdfrwt>
<pdfrwt beam="2">  1       21 0.23904637E-01 0.17505550E+03</pdfrwt>
<totfact> 0.10880473E+05</totfact>
</mgrwt>
</event>
<event>
 4    1  0.4017302E+000  0.2175962E+03  0.7546771E-02  0.1135688E+00
         21   -1    0    0  503  502  0.00000000000E+00  0.00000000000E+00  0.17508136073E+03  0.17508136073E+03  0.00000000000E+00 0. -1.
         21   -1    0    0  501  503 -0.00000000000E+00 -0.00000000000E+00 -0.28602526260E+03  0.28602526260E+03  0.00000000000E+00 0. -1.
          6    1    1    2  501    0  0.11314503396E+03  0.67950636658E+02 -0.16450879354E+01  0.21760237601E+03  0.17300000000E+03 0. -1.
         -6    1    1    2    0  502 -0.11314503396E+03 -0.67950636658E+02 -0.10929881393E+03  0.24350424731E+03  0.17300000000E+03 0. -1.
<mgrwt>
<rscale>  2 0.21759616E+03</rscale>
<asrwt>0</asrwt>
<pdfrwt beam="1">  1       21 0.26935594E-01 0.21759616E+03</pdfrwt>
<pdfrwt beam="2">  1       21 0.44003887E-01 0.21759616E+03</pdfrwt>
<totfact> 0.64417406E+04</totfact>
</mgrwt>
</event>
<event>
 4    1  0.4017302E+000  0.2366855E+03  0.7546771E-02  0.1122021E+00
         21   -1    0    0  501  502  0.00000000000E+00  0.00000000000E+00  0.42016200246E+03  0.42016200246E+03  0.00000000000E+00 0. -1.
         21   -1    0    0  502  503 -0.00000000000E+00 -0.00000000000E+00 -0.78372016214E+03  0.78372016214E+03  0.00000000000E+00 0.  1.
          6    1    1    2  501    0  0.35444066587E+02  0.15759040029E+03  0.36657439850E+03  0.43634482437E+03  0.17300000000E+03 0. -1.
         -6    1    1    2    0  503 -0.35444066587E+02 -0.15759040029E+03 -0.73013255818E+03  0.76753734022E+03  0.17300000000E+03 0.  1.
<mgrwt>
<rscale>  2 0.23668548E+03</rscale>
<asrwt>0</asrwt>
<pdfrwt beam="1">  1       21 0.64640309E-01 0.23668548E+03</pdfrwt>
<pdfrwt beam="2">  1       21 0.12057233E+00 0.23668548E+03</pdfrwt>
<totfact> 0.11053059E+03</totfact>
</mgrwt>
</event>
<event>
 4    1  0.4017302E+000  0.1869473E+03  0.7546771E-02  0.1161244E+00
         21   -1    0    0  503  502  0.00000000000E+00  0.00000000000E+00  0.25553719761E+03  0.25553719761E+03  0.00000000000E+00 0.  1.
         21   -1    0    0  501  503 -0.00000000000E+00 -0.00000000000E+00 -0.37171861360E+03  0.37171861360E+03  0.00000000000E+00 0.  1.
          6    1    1    2  501    0 -0.61770488521E+02  0.34708865968E+02 -0.30743296232E+03  0.35981151309E+03  0.17300000000E+03 0.  1.
         -6    1    1    2    0  502  0.61770488521E+02 -0.34708865968E+02  0.19125154633E+03  0.26744429813E+03  0.17300000000E+03 0.  1.
<mgrwt>
<rscale>  2 0.18694732E+03</rscale>
<asrwt>0</asrwt>
<pdfrwt beam="1">  1       21 0.39313415E-01 0.18694732E+03</pdfrwt>
<pdfrwt beam="2">  1       21 0.57187479E-01 0.18694732E+03</pdfrwt>
<totfact> 0.17973118E+04</totfact>
</mgrwt>
</event>
<event>
 4    1  0.4017302E+000  0.2524151E+03  0.7546771E-02  0.1111788E+00
         21   -1    0    0  503  502  0.00000000000E+00  0.00000000000E+00  0.43874365431E+03  0.43874365431E+03  0.00000000000E+00 0. -1.
         21   -1    0    0  501  503 -0.00000000000E+00 -0.00000000000E+00 -0.35972812020E+03  0.35972812020E+03  0.00000000000E+00 0. -1.
          6    1    1    2  501    0 -0.39904505621E+02 -0.17942129895E+03 -0.26878725458E+03  0.36872748787E+03  0.17300000000E+03 0. -1.
         -6    1    1    2    0  502  0.39904505621E+02  0.17942129895E+03  0.34780278868E+03  0.42974428664E+03  0.17300000000E+03 0. -1.
<mgrwt>
<rscale>  2 0.25241508E+03</rscale>
<asrwt>0</asrwt>
<pdfrwt beam="1">  1       21 0.67499023E-01 0.25241508E+03</pdfrwt>
<pdfrwt beam="2">  1       21 0.55342788E-01 0.25241508E+03</pdfrwt>
<totfact> 0.59332321E+03</totfact>
</mgrwt>
</event>
<event>
 4    1  0.4017302E+000  0.1980366E+03  0.7546771E-02  0.1151406E+00
         21   -1    0    0  503  502  0.00000000000E+00  0.00000000000E+00  0.63234552515E+03  0.63234552515E+03  0.00000000000E+00 0. -1.
         21   -1    0    0  501  503 -0.00000000000E+00 -0.00000000000E+00 -0.89460983161E+02  0.89460983161E+02  0.00000000000E+00 0. -1.
          6    1    1    2  501    0 -0.87662296684E+02  0.40059944009E+02  0.71562568816E+02  0.21056989013E+03  0.17300000000E+03 0. -1.
         -6    1    1    2    0  502  0.87662296684E+02 -0.40059944009E+02  0.47132197318E+03  0.51123661818E+03  0.17300000000E+03 0. -1.
<mgrwt>
<rscale>  2 0.19803656E+03</rscale>
<asrwt>0</asrwt>
<pdfrwt beam="1">  1       21 0.97283924E-01 0.19803656E+03</pdfrwt>
<pdfrwt beam="2">  1       21 0.13763229E-01 0.19803656E+03</pdfrwt>
<totfact> 0.40060683E+04</totfact>
</mgrwt>
</event>
<event>
 4    1  0.4017302E+000  0.1879133E+03  0.7546771E-02  0.1160357E+00
         21   -1    0    0  503  502  0.00000000000E+00  0.00000000000E+00  0.74969454851E+02  0.74969454851E+02  0.00000000000E+00 0. -1.
         21   -1    0    0  501  503 -0.00000000000E+00 -0.00000000000E+00 -0.47128395672E+03  0.47128395672E+03  0.00000000000E+00 0. -1.
          6    1    1    2  501    0  0.55735771193E+02 -0.47706644344E+02 -0.19157809148E+03  0.26835343344E+03  0.17300000000E+03 0. -1.
         -6    1    1    2    0  502 -0.55735771193E+02  0.47706644344E+02 -0.20473641039E+03  0.27789997813E+03  0.17300000000E+03 0. -1.
<mgrwt>
<rscale>  2 0.18791328E+03</rscale>
<asrwt>0</asrwt>
<pdfrwt beam="1">  1       21 0.11533762E-01 0.18791328E+03</pdfrwt>
<pdfrwt beam="2">  1       21 0.72505223E-01 0.18791328E+03</pdfrwt>
<totfact> 0.10817060E+05</totfact>
</mgrwt>
</event>
<event>
 4    1  0.4017302E+000  0.2072440E+03  0.7546771E-02  0.1143767E+00
         21   -1    0    0  501  502  0.00000000000E+00  0.00000000000E+00  0.93759234019E+03  0.93759234019E+03  0.00000000000E+00 0.  1.
         21   -1    0    0  502  503 -0.00000000000E+00 -0.00000000000E+00 -0.45809239308E+02  0.45809239308E+02  0.00000000000E+00 0. -1.
          6    1    1    2  501    0 -0.11385998789E+03 -0.75480283724E+01  0.44723851150E+03  0.49292226136E+03  0.17300000000E+03 0.  1.
         -6    1    1    2    0  503  0.11385998789E+03  0.75480283724E+01  0.44454458938E+03  0.49047931814E+03  0.17300000000E+03 0.  1.
<mgrwt>
<rscale>  2 0.20724399E+03</rscale>
<asrwt>0</asrwt>
<pdfrwt beam="1">  1       21 0.14424496E+00 0.20724399E+03</pdfrwt>
<pdfrwt beam="2">  1       21 0.70475760E-02 0.20724399E+03</pdfrwt>
<totfact> 0.49105722E+04</totfact>
</mgrwt>
</event>
<event>
 4    1  0.4017302E+000  0.1986053E+03  0.7546771E-02  0.1150921E+00
         21   -1    0    0  503  502  0.00000000000E+00  0.00000000000E+00  0.78672017203E+02  0.78672017203E+02  0.00000000000E+00 0.  1.
         21   -1    0    0  501  503 -0.00000000000E+00 -0.00000000000E+00 -0.57883500564E+03  0.57883500564E+03  0.00000000000E+00 0.  1.
          6    1    1    2  501    0  0.17162804248E+02 -0.96023372463E+02 -0.37034573048E+03  0.42023803968E+03  0.17300000000E+03 0.  1.
         -6    1    1    2    0  502 -0.17162804248E+02  0.96023372463E+02 -0.12981725796E+03  0.23726898317E+03  0.17300000000E+03 0.  1.
<mgrwt>
<rscale>  2 0.19860526E+03</rscale>
<asrwt>0</asrwt>
<pdfrwt beam="1">  1       21 0.12103388E-01 0.19860526E+03</pdfrwt>
<pdfrwt beam="2">  1       21 0.89051534E-01 0.19860526E+03</pdfrwt>
<totfact> 0.62039211E+04</totfact>
</mgrwt>
</event>
<event>
 4    1  0.4017302E+000  0.1869551E+03  0.7546771E-02  0.1161237E+00
         21   -1    0    0  501  502  0.00000000000E+00  0.00000000000E+00  0.17407924728E+03  0.17407924728E+03  0.00000000000E+00 0. -1.
         21   -1    0    0  502  503 -0.00000000000E+00 -0.00000000000E+00 -0.60430179776E+03  0.60430179776E+03  0.00000000000E+00 0. -1.
          6    1    1    2  501    0  0.67119275962E+02 -0.22764114522E+02  0.10291796226E+03  0.21341112687E+03  0.17300000000E+03 0. -1.
         -6    1    1    2    0  503 -0.67119275962E+02  0.22764114522E+02 -0.53314051273E+03  0.56496991817E+03  0.17300000000E+03 0. -1.
<mgrwt>
<rscale>  2 0.18695508E+03</rscale>
<asrwt>0</asrwt>
<pdfrwt beam="1">  1       21 0.26781423E-01 0.18695508E+03</pdfrwt>
<pdfrwt beam="2">  1       21 0.92969506E-01 0.18695508E+03</pdfrwt>
<totfact> 0.12983138E+04</totfact>
</mgrwt>
</event>
<event>
 4    1  0.4017302E+000  0.1745853E+03  0.7546771E-02  0.1173149E+00
         21   -1    0    0  503  502  0.00000000000E+00  0.00000000000E+00  0.59933905024E+03  0.59933905024E+03  0.00000000000E+00 0.  1.
         21   -1    0    0  501  503 -0.00000000000E+00 -0.00000000000E+00 -0.10847044387E+03  0.10847044387E+03  0.00000000000E+00 0.  1.
          6    1    1    2  501    0 -0.52400262656E+01 -0.22881350866E+02 -0.12492333132E+02  0.17503163280E+03  0.17300000000E+03 0.  1.
         -6    1    1    2    0  502  0.52400262656E+01  0.22881350866E+02  0.50336093950E+03  0.53277786132E+03  0.17300000000E+03 0.  1.
<mgrwt>
<rscale>  2 0.17458526E+03</rscale>
<asrwt>0</asrwt>
<pdfrwt beam="1">  1       21 0.92206006E-01 0.17458526E+03</pdfrwt>
<pdfrwt beam="2">  1       21 0.16687761E-01 0.17458526E+03</pdfrwt>
<totfact> 0.32382071E+04</totfact>
</mgrwt>
</event>
<event>
 4    1  0.4017302E+000  0.1929582E+03  0.7546771E-02  0.1155820E+00
         21   -1    0    0  501  502  0.00000000000E+00  0.00000000000E+00  0.66749076383E+02  0.66749076383E+02  0.00000000000E+00 0. -1.
         21   -1    0    0  502  503 -0.00000000000E+00 -0.00000000000E+00 -0.58210298629E+03  0.58210298629E+03  0.00000000000E+00 0. -1.
          6    1    1    2  501    0  0.50924934463E+02  0.68633248300E+02 -0.19139216484E+03  0.27177901406E+03  0.17300000000E+03 0. -1.
         -6    1    1    2    0  503 -0.50924934463E+02 -0.68633248300E+02 -0.32396174507E+03  0.37707304861E+03  0.17300000000E+03 0. -1.
<mgrwt>
<rscale>  2 0.19295821E+03</rscale>
<asrwt>0</asrwt>
<pdfrwt beam="1">  1       21 0.10269089E-01 0.19295821E+03</pdfrwt>
<pdfrwt beam="2">  1       21 0.89554307E-01 0.19295821E+03</pdfrwt>
<totfact> 0.82273555E+04</totfact>
</mgrwt>
</event>
<event>
 4    1  0.4017302E+000  0.2156342E+03  0.7546771E-02  0.1137180E+00
         21   -1    0    0  501  502  0.00000000000E+00  0.00000000000E+00  0.26224899758E+03  0.26224899758E+03  0.00000000000E+00 0. -1.
         21   -1    0    0  502  503 -0.00000000000E+00 -0.00000000000E+00 -0.52327207265E+03  0.52327207265E+03  0.00000000000E+00 0.  1.
          6    1    1    2  501    0  0.12510011533E+03  0.30315961218E+02  0.18884907863E+03  0.28663926957E+03  0.17300000000E+03 0. -1.
         -6    1    1    2    0  503 -0.12510011533E+03 -0.30315961218E+02 -0.44987215370E+03  0.49888180066E+03  0.17300000000E+03 0.  1.
<mgrwt>
<rscale>  2 0.21563417E+03</rscale>
<asrwt>0</asrwt>
<pdfrwt beam="1">  1       21 0.40345999E-01 0.21563417E+03</pdfrwt>
<pdfrwt beam="2">  1       21 0.80503396E-01 0.21563417E+03</pdfrwt>
<totfact> 0.78975907E+03</totfact>
</mgrwt>
</event>
<event>
 4    1  0.4017302E+000  0.2152577E+03  0.7546771E-02  0.1137469E+00
         21   -1    0    0  503  502  0.00000000000E+00  0.00000000000E+00  0.71162672123E+02  0.71162672123E+02  0.00000000000E+00 0. -1.
         21   -1    0    0  501  503 -0.00000000000E+00 -0.00000000000E+00 -0.11762511586E+04  0.11762511586E+04  0.00000000000E+00 0. -1.
          6    1    1    2  501    0 -0.21750877892E+02  0.12622904350E+03 -0.96928109336E+03  0.99289561891E+03  0.17300000000E+03 0. -1.
         -6    1    1    2    0  502  0.21750877892E+02 -0.12622904350E+03 -0.13580739310E+03  0.25451821179E+03  0.17300000000E+03 0. -1.
<mgrwt>
<rscale>  2 0.21525769E+03</rscale>
<asrwt>0</asrwt>
<pdfrwt beam="1">  1       21 0.10948105E-01 0.21525769E+03</pdfrwt>
<pdfrwt beam="2">  1       21 0.18096169E+00 0.21525769E+03</pdfrwt>
<totfact> 0.12176372E+04</totfact>
</mgrwt>
</event>
<event>
 4    1  0.4017302E+000  0.2424737E+03  0.7546771E-02  0.1118156E+00
         21   -1    0    0  503  502  0.00000000000E+00  0.00000000000E+00  0.28273117520E+03  0.28273117520E+03  0.00000000000E+00 0. -1.
         21   -1    0    0  501  503 -0.00000000000E+00 -0.00000000000E+00 -0.32279943987E+03  0.32279943987E+03  0.00000000000E+00 0. -1.
          6    1    1    2  501    0  0.16843819323E+03  0.22204872062E+02 -0.20062978209E+03  0.31471541231E+03  0.17300000000E+03 0. -1.
         -6    1    1    2    0  502 -0.16843819323E+03 -0.22204872062E+02  0.16056151742E+03  0.29081520277E+03  0.17300000000E+03 0. -1.
<mgrwt>
<rscale>  2 0.24247367E+03</rscale>
<asrwt>0</asrwt>
<pdfrwt beam="1">  1       21 0.43497104E-01 0.24247367E+03</pdfrwt>
<pdfrwt beam="2">  1       21 0.49661452E-01 0.24247367E+03</pdfrwt>
<totfact> 0.19094090E+04</totfact>
</mgrwt>
</event>
<event>
 4    1  0.4017302E+000  0.1801213E+03  0.7546771E-02  0.1167686E+00
         21   -1    0    0  503  502  0.00000000000E+00  0.00000000000E+00  0.31108213671E+03  0.31108213671E+03  0.00000000000E+00 0. -1.
         21   -1    0    0  501  503 -0.00000000000E+00 -0.00000000000E+00 -0.15600194161E+03  0.15600194161E+03  0.00000000000E+00 0. -1.
          6    1    1    2  501    0  0.40746942754E+02  0.29229559512E+02 -0.56916776131E+02  0.18889997326E+03  0.17300000000E+03 0. -1.
         -6    1    1    2    0  502 -0.40746942754E+02 -0.29229559512E+02  0.21199697124E+03  0.27818410506E+03  0.17300000000E+03 0. -1.
<mgrwt>
<rscale>  2 0.18012129E+03</rscale>
<asrwt>0</asrwt>
<pdfrwt beam="1">  1       21 0.47858790E-01 0.18012129E+03</pdfrwt>
<pdfrwt beam="2">  1       21 0.24000299E-01 0.18012129E+03</pdfrwt>
<totfact> 0.68690340E+04</totfact>
</mgrwt>
</event>
<event>
 4    1  0.4017302E+000  0.3507510E+03  0.7546771E-02  0.1062307E+00
         21   -1    0    0  503  502  0.00000000000E+00  0.00000000000E+00  0.16285051156E+03  0.16285051156E+03  0.00000000000E+00 0. -1.
         21   -1    0    0  501  503 -0.00000000000E+00 -0.00000000000E+00 -0.79285561587E+03  0.79285561587E+03  0.00000000000E+00 0.  1.
          6    1    1    2  501    0 -0.30043002273E+03  0.53283081947E+02 -0.21121749273E+03  0.40943755887E+03  0.17300000000E+03 0. -1.
         -6    1    1    2    0  502  0.30043002273E+03 -0.53283081947E+02 -0.41878761158E+03  0.54626856855E+03  0.17300000000E+03 0.  1.
<mgrwt>
<rscale>  2 0.35075103E+03</rscale>
<asrwt>0</asrwt>
<pdfrwt beam="1">  1       21 0.25053925E-01 0.35075103E+03</pdfrwt>
<pdfrwt beam="2">  1       21 0.12197779E+00 0.35075103E+03</pdfrwt>
<totfact> 0.69890995E+03</totfact>
</mgrwt>
</event>
<event>
 4    1  0.4017302E+000  0.2776840E+03  0.7546771E-02  0.1096961E+00
         21   -1    0    0  501  502  0.00000000000E+00  0.00000000000E+00  0.11537043077E+04  0.11537043077E+04  0.00000000000E+00 0. -1.
         21   -1    0    0  502  503 -0.00000000000E+00 -0.00000000000E+00 -0.74267404902E+02  0.74267404902E+02  0.00000000000E+00 0.  1.
          6    1    1    2  501    0  0.17708950629E+03  0.12577242598E+03  0.34549149078E+03  0.44325248625E+03  0.17300000000E+03 0.  1.
         -6    1    1    2    0  503 -0.17708950629E+03 -0.12577242598E+03  0.73394541206E+03  0.78471922638E+03  0.17300000000E+03 0. -1.
<mgrwt>
<rscale>  2 0.27768399E+03</rscale>
<asrwt>0</asrwt>
<pdfrwt beam="1">  1       21 0.17749296E+00 0.27768399E+03</pdfrwt>
<pdfrwt beam="2">  1       21 0.11425755E-01 0.27768399E+03</pdfrwt>
<totfact> 0.11454901E+04</totfact>
</mgrwt>
</event>
<event>
 4    1  0.4017302E+000  0.2307736E+03  0.7546771E-02  0.1126096E+00
         21   -1    0    0  503  502  0.00000000000E+00  0.00000000000E+00  0.76157533402E+02  0.76157533402E+02  0.00000000000E+00 0. -1.
         21   -1    0    0  501  503 -0.00000000000E+00 -0.00000000000E+00 -0.76806013411E+03  0.76806013411E+03  0.00000000000E+00 0. -1.
          6    1    1    2  501    0 -0.14005390135E+03 -0.60929271026E+02 -0.47225485619E+03  0.52562450528E+03  0.17300000000E+03 0. -1.
         -6    1    1    2    0  502  0.14005390135E+03  0.60929271026E+02 -0.21964774451E+03  0.31859316223E+03  0.17300000000E+03 0. -1.
<mgrwt>
<rscale>  2 0.23077364E+03</rscale>
<asrwt>0</asrwt>
<pdfrwt beam="1">  1       21 0.11716544E-01 0.23077364E+03</pdfrwt>
<pdfrwt beam="2">  1       21 0.11816309E+00 0.23077364E+03</pdfrwt>
<totfact> 0.32905096E+04</totfact>
</mgrwt>
</event>
<event>
 4    1  0.4017302E+000  0.2254521E+03  0.7546771E-02  0.1129882E+00
         21   -1    0    0  503  502  0.00000000000E+00  0.00000000000E+00  0.11093956604E+03  0.11093956604E+03  0.00000000000E+00 0.  1.
         21   -1    0    0  501  503 -0.00000000000E+00 -0.00000000000E+00 -0.62088999496E+03  0.62088999496E+03  0.00000000000E+00 0.  1.
          6    1    1    2  501    0  0.72973714772E+02  0.12479783357E+03 -0.44230175873E+03  0.49644688345E+03  0.17300000000E+03 0.  1.
         -6    1    1    2    0  502 -0.72973714772E+02 -0.12479783357E+03 -0.67648670184E+02  0.23538267755E+03  0.17300000000E+03 0.  1.
<mgrwt>
<rscale>  2 0.22545213E+03</rscale>
<asrwt>0</asrwt>
<pdfrwt beam="1">  1       21 0.17067625E-01 0.22545213E+03</pdfrwt>
<pdfrwt beam="2">  1       21 0.95521539E-01 0.22545213E+03</pdfrwt>
<totfact> 0.27812119E+04</totfact>
</mgrwt>
</event>
<event>
 4    1  0.4017302E+000  0.1986759E+03  0.7546771E-02  0.1150861E+00
         21   -1    0    0  503  502  0.00000000000E+00  0.00000000000E+00  0.44403907008E+03  0.44403907008E+03  0.00000000000E+00 0. -1.
         21   -1    0    0  501  503 -0.00000000000E+00 -0.00000000000E+00 -0.10301779604E+03  0.10301779604E+03  0.00000000000E+00 0. -1.
          6    1    1    2  501    0  0.19388344354E+02  0.95745467562E+02  0.27179273436E+03  0.33666510497E+03  0.17300000000E+03 0.  1.
         -6    1    1    2    0  502 -0.19388344354E+02 -0.95745467562E+02  0.69228539679E+02  0.21039176115E+03  0.17300000000E+03 0.  1.
<mgrwt>
<rscale>  2 0.19867587E+03</rscale>
<asrwt>0</asrwt>
<pdfrwt beam="1">  1       21 0.68313702E-01 0.19867587E+03</pdfrwt>
<pdfrwt beam="2">  1       21 0.15848892E-01 0.19867587E+03</pdfrwt>
<totfact> 0.69172522E+04</totfact>
</mgrwt>
</event>
<event>
 4    1  0.4017302E+000  0.2126015E+03  0.7546771E-02  0.1139522E+00
         21   -1    0    0  503  502  0.00000000000E+00  0.00000000000E+00  0.22108735024E+03  0.22108735024E+03  0.00000000000E+00 0.  1.
         21   -1    0    0  501  503 -0.00000000000E+00 -0.00000000000E+00 -0.22010804932E+03  0.22010804932E+03  0.00000000000E+00 0. -1.
          6    1    1    2  501    0  0.12261396861E+03 -0.15369656221E+02 -0.58363648726E+02  0.22046706585E+03  0.17300000000E+03 0.  1.
         -6    1    1    2    0  502 -0.12261396861E+03  0.15369656221E+02  0.59342949641E+02  0.22072833371E+03  0.17300000000E+03 0. -1.
<mgrwt>
<rscale>  2 0.21260153E+03</rscale>
<asrwt>0</asrwt>
<pdfrwt beam="1">  1       21 0.34013439E-01 0.21260153E+03</pdfrwt>
<pdfrwt beam="2">  1       21 0.33862777E-01 0.21260153E+03</pdfrwt>
<totfact> 0.69355793E+04</totfact>
</mgrwt>
</event>
<event>
 4    1  0.4017302E+000  0.1905662E+03  0.7546771E-02  0.1157952E+00
         21   -1    0    0  503  502  0.00000000000E+00  0.00000000000E+00  0.19709959069E+03  0.19709959069E+03  0.00000000000E+00 0.  1.
         21   -1    0    0  501  503 -0.00000000000E+00 -0.00000000000E+00 -0.19985956967E+03  0.19985956967E+03  0.00000000000E+00 0. -1.
          6    1    1    2  501    0  0.63259679385E+02  0.48833274604E+02 -0.56849912640E+02  0.19886525164E+03  0.17300000000E+03 0. -1.
         -6    1    1    2    0  502 -0.63259679385E+02 -0.48833274604E+02  0.54089933662E+02  0.19809390871E+03  0.17300000000E+03 0.  1.
<mgrwt>
<rscale>  2 0.19056620E+03</rscale>
<asrwt>0</asrwt>
<pdfrwt beam="1">  1       21 0.30323014E-01 0.19056620E+03</pdfrwt>
<pdfrwt beam="2">  1       21 0.30747626E-01 0.19056620E+03</pdfrwt>
<totfact> 0.10607587E+05</totfact>
</mgrwt>
</event>
<event>
 4    1  0.4017302E+000  0.1885365E+03  0.7546771E-02  0.1159788E+00
         21   -1    0    0  503  502  0.00000000000E+00  0.00000000000E+00  0.22821700385E+03  0.22821700385E+03  0.00000000000E+00 0.  1.
         21   -1    0    0  501  503 -0.00000000000E+00 -0.00000000000E+00 -0.18748051525E+03  0.18748051525E+03  0.00000000000E+00 0.  1.
          6    1    1    2  501    0 -0.58149870945E+02 -0.47282133012E+02 -0.65132848524E+02  0.19947003672E+03  0.17300000000E+03 0.  1.
         -6    1    1    2    0  502  0.58149870945E+02  0.47282133012E+02  0.10586933713E+03  0.21622748238E+03  0.17300000000E+03 0.  1.
<mgrwt>
<rscale>  2 0.18853649E+03</rscale>
<asrwt>0</asrwt>
<pdfrwt beam="1">  1       21 0.35110308E-01 0.18853649E+03</pdfrwt>
<pdfrwt beam="2">  1       21 0.28843156E-01 0.18853649E+03</pdfrwt>
<totfact> 0.90103417E+04</totfact>
</mgrwt>
</event>
<event>
 4    1  0.4017302E+000  0.2950242E+03  0.7546771E-02  0.1087755E+00
         21   -1    0    0  503  502  0.00000000000E+00  0.00000000000E+00  0.52183677415E+03  0.52183677415E+03  0.00000000000E+00 0.  1.
         21   -1    0    0  501  503 -0.00000000000E+00 -0.00000000000E+00 -0.23483304077E+03  0.23483304077E+03  0.00000000000E+00 0.  1.
          6    1    1    2  501    0 -0.11443717167E+03 -0.20979605302E+03 -0.60144121958E+02  0.30109228739E+03  0.17300000000E+03 0.  1.
         -6    1    1    2    0  502  0.11443717167E+03  0.20979605302E+03  0.34714785534E+03  0.45557752753E+03  0.17300000000E+03 0.  1.
<mgrwt>
<rscale>  2 0.29502415E+03</rscale>
<asrwt>0</asrwt>
<pdfrwt beam="1">  1       21 0.80282580E-01 0.29502415E+03</pdfrwt>
<pdfrwt beam="2">  1       21 0.36128160E-01 0.29502415E+03</pdfrwt>
<totfact> 0.95022418E+03</totfact>
</mgrwt>
</event>
<event>
 4    1  0.4017302E+000  0.1965108E+03  0.7546771E-02  0.1152717E+00
         21   -1    0    0  503  502  0.00000000000E+00  0.00000000000E+00  0.43512312948E+02  0.43512312948E+02  0.00000000000E+00 0. -1.
         21   -1    0    0  501  503 -0.00000000000E+00 -0.00000000000E+00 -0.12097700190E+04  0.12097700190E+04  0.00000000000E+00 0. -1.
          6    1    1    2  501    0  0.90512532057E+02  0.22247993083E+02 -0.90656465342E+03  0.92761843583E+03  0.17300000000E+03 0. -1.
         -6    1    1    2    0  502 -0.90512532057E+02 -0.22247993083E+02 -0.25969305266E+03  0.32566389615E+03  0.17300000000E+03 0. -1.
<mgrwt>
<rscale>  2 0.19651079E+03</rscale>
<asrwt>0</asrwt>
<pdfrwt beam="1">  1       21 0.66942022E-02 0.19651079E+03</pdfrwt>
<pdfrwt beam="2">  1       21 0.18611846E+00 0.19651079E+03</pdfrwt>
<totfact> 0.26964796E+04</totfact>
</mgrwt>
</event>
<event>
 4    1  0.4017302E+000  0.1849186E+03  0.7546771E-02  0.1163126E+00
         21   -1    0    0  501  502  0.00000000000E+00  0.00000000000E+00  0.25754607662E+03  0.25754607662E+03  0.00000000000E+00 0.  1.
         21   -1    0    0  502  503 -0.00000000000E+00 -0.00000000000E+00 -0.14418119577E+03  0.14418119577E+03  0.00000000000E+00 0. -1.
          6    1    1    2  501    0 -0.65158686622E+02 -0.44992567605E+01  0.11318592856E+03  0.21680856113E+03  0.17300000000E+03 0. -1.
         -6    1    1    2    0  503  0.65158686622E+02  0.44992567605E+01  0.17895229376E+00  0.18491871127E+03  0.17300000000E+03 0.  1.
<mgrwt>
<rscale>  2 0.18491862E+03</rscale>
<asrwt>0</asrwt>
<pdfrwt beam="1">  1       21 0.39622473E-01 0.18491862E+03</pdfrwt>
<pdfrwt beam="2">  1       21 0.22181723E-01 0.18491862E+03</pdfrwt>
<totfact> 0.11701622E+05</totfact>
</mgrwt>
</event>
<event>
 4    1  0.4017302E+000  0.1993192E+03  0.7546771E-02  0.1150315E+00
         21   -1    0    0  503  502  0.00000000000E+00  0.00000000000E+00  0.27120861306E+03  0.27120861306E+03  0.00000000000E+00 0. -1.
         21   -1    0    0  501  503 -0.00000000000E+00 -0.00000000000E+00 -0.17806140518E+03  0.17806140518E+03  0.00000000000E+00 0. -1.
          6    1    1    2  501    0 -0.58066185299E+02 -0.80171373125E+02  0.14116908846E+03  0.24424750250E+03  0.17300000000E+03 0. -1.
         -6    1    1    2    0  502  0.58066185299E+02  0.80171373125E+02 -0.48021880585E+02  0.20502251574E+03  0.17300000000E+03 0. -1.
<mgrwt>
<rscale>  2 0.19931917E+03</rscale>
<asrwt>0</asrwt>
<pdfrwt beam="1">  1       21 0.41724402E-01 0.19931917E+03</pdfrwt>
<pdfrwt beam="2">  1       21 0.27394062E-01 0.19931917E+03</pdfrwt>
<totfact> 0.70071402E+04</totfact>
</mgrwt>
</event>
<event>
 4    1  0.4017302E+000  0.2197497E+03  0.7546771E-02  0.1134070E+00
         21   -1    0    0  503  502  0.00000000000E+00  0.00000000000E+00  0.12137478739E+04  0.12137478739E+04  0.00000000000E+00 0. -1.
         21   -1    0    0  501  503 -0.00000000000E+00 -0.00000000000E+00 -0.91485106059E+02  0.91485106059E+02  0.00000000000E+00 0. -1.
          6    1    1    2  501    0  0.11684866967E+03 -0.68610025371E+02  0.70534095895E+02  0.23079212697E+03  0.17300000000E+03 0. -1.
         -6    1    1    2    0  502 -0.11684866967E+03  0.68610025371E+02  0.10517286719E+04  0.10744408530E+04  0.17300000000E+03 0. -1.
<mgrwt>
<rscale>  2 0.21974974E+03</rscale>
<asrwt>0</asrwt>
<pdfrwt beam="1">  1       21 0.18673043E+00 0.21974974E+03</pdfrwt>
<pdfrwt beam="2">  1       21 0.14074633E-01 0.21974974E+03</pdfrwt>
<totfact> 0.70598972E+03</totfact>
</mgrwt>
</event>
<event>
 4    1  0.4017302E+000  0.1760169E+03  0.7546771E-02  0.1171715E+00
         21   -1    0    0  501  502  0.00000000000E+00  0.00000000000E+00  0.64376493483E+03  0.64376493483E+03  0.00000000000E+00 0.  1.
         21   -1    0    0  502  503 -0.00000000000E+00 -0.00000000000E+00 -0.53941010586E+02  0.53941010586E+02  0.00000000000E+00 0.  1.
          6    1    1    2  501    0 -0.17105783702E+02  0.27574307620E+02  0.40945039569E+03  0.44568102585E+03  0.17300000000E+03 0.  1.
         -6    1    1    2    0  503  0.17105783702E+02 -0.27574307620E+02  0.18037352856E+03  0.25202491956E+03  0.17300000000E+03 0.  1.
<mgrwt>
<rscale>  2 0.17601690E+03</rscale>
<asrwt>0</asrwt>
<pdfrwt beam="1">  1       21 0.99040754E-01 0.17601690E+03</pdfrwt>
<pdfrwt beam="2">  1       21 0.82986175E-02 0.17601690E+03</pdfrwt>
<totfact> 0.95216724E+04</totfact>
</mgrwt>
</event>
<event>
 4    1  0.4017302E+000  0.2041026E+03  0.7546771E-02  0.1146323E+00
         21   -1    0    0  501  502  0.00000000000E+00  0.00000000000E+00  0.82878722958E+03  0.82878722958E+03  0.00000000000E+00 0.  1.
         21   -1    0    0  502  503 -0.00000000000E+00 -0.00000000000E+00 -0.50445386015E+02  0.50445386015E+02  0.00000000000E+00 0.  1.
          6    1    1    2  501    0 -0.51526205013E+02  0.95257187611E+02  0.41555662238E+03  0.46297428439E+03  0.17300000000E+03 0.  1.
         -6    1    1    2    0  503  0.51526205013E+02 -0.95257187611E+02  0.36278522118E+03  0.41625833121E+03  0.17300000000E+03 0.  1.
<mgrwt>
<rscale>  2 0.20410263E+03</rscale>
<asrwt>0</asrwt>
<pdfrwt beam="1">  1       21 0.12750572E+00 0.20410263E+03</pdfrwt>
<pdfrwt beam="2">  1       21 0.77608292E-02 0.20410263E+03</pdfrwt>
<totfact> 0.57073419E+04</totfact>
</mgrwt>
</event>
<event>
 4    1  0.4017302E+000  0.1859652E+03  0.7546771E-02  0.1162152E+00
         21   -1    0    0  503  502  0.00000000000E+00  0.00000000000E+00  0.14304229934E+04  0.14304229934E+04  0.00000000000E+00 0.  1.
         21   -1    0    0  501  503 -0.00000000000E+00 -0.00000000000E+00 -0.10568073391E+03  0.10568073391E+03  0.00000000000E+00 0.  1.
          6    1    1    2  501    0  0.29363049551E+02 -0.61578064961E+02 -0.12128832577E+02  0.18636028371E+03  0.17300000000E+03 0.  1.
         -6    1    1    2    0  502 -0.29363049551E+02  0.61578064961E+02  0.13368710921E+04  0.13497434436E+04  0.17300000000E+03 0.  1.
<mgrwt>
<rscale>  2 0.18596518E+03</rscale>
<asrwt>0</asrwt>
<pdfrwt beam="1">  1       21 0.22006506E+00 0.18596518E+03</pdfrwt>
<pdfrwt beam="2">  1       21 0.16258575E-01 0.18596518E+03</pdfrwt>
<totfact> 0.34265592E+03</totfact>
</mgrwt>
</event>
<event>
 4    1  0.4017302E+000  0.2473513E+03  0.7546771E-02  0.1114990E+00
         21   -1    0    0  503  502  0.00000000000E+00  0.00000000000E+00  0.94269717615E+03  0.94269717615E+03  0.00000000000E+00 0.  1.
         21   -1    0    0  501  503 -0.00000000000E+00 -0.00000000000E+00 -0.76353250866E+02  0.76353250866E+02  0.00000000000E+00 0.  1.
          6    1    1    2  501    0 -0.16012882613E+03 -0.74916237226E+02  0.23584638725E+03  0.34176922321E+03  0.17300000000E+03 0.  1.
         -6    1    1    2    0  502  0.16012882613E+03  0.74916237226E+02  0.63049753804E+03  0.67728120381E+03  0.17300000000E+03 0.  1.
<mgrwt>
<rscale>  2 0.24735134E+03</rscale>
<asrwt>0</asrwt>
<pdfrwt beam="1">  1       21 0.14503033E+00 0.24735134E+03</pdfrwt>
<pdfrwt beam="2">  1       21 0.11746655E-01 0.24735134E+03</pdfrwt>
<totfact> 0.19247949E+04</totfact>
</mgrwt>
</event>
<event>
 4    1  0.4017302E+000  0.1815674E+03  0.7546771E-02  0.1166295E+00
         21   -1    0    0  503  502  0.00000000000E+00  0.00000000000E+00  0.10078833293E+03  0.10078833293E+03  0.00000000000E+00 0.  1.
         21   -1    0    0  501  503 -0.00000000000E+00 -0.00000000000E+00 -0.58349226592E+03  0.58349226592E+03  0.00000000000E+00 0. -1.
          6    1    1    2  501    0  0.54361459915E+02 -0.90863559611E+01 -0.46815489830E+03  0.50213119699E+03  0.17300000000E+03 0. -1.
         -6    1    1    2    0  502 -0.54361459915E+02  0.90863559611E+01 -0.14549034686E+02  0.18214940186E+03  0.17300000000E+03 0.  1.
<mgrwt>
<rscale>  2 0.18156743E+03</rscale>
<asrwt>0</asrwt>
<pdfrwt beam="1">  1       21 0.15505897E-01 0.18156743E+03</pdfrwt>
<pdfrwt beam="2">  1       21 0.89768040E-01 0.18156743E+03</pdfrwt>
<totfact> 0.39252380E+04</totfact>
</mgrwt>
</event>
<event>
 4    1  0.4017302E+000  0.1982351E+03  0.7546771E-02  0.1151237E+00
         21   -1    0    0  501  502  0.00000000000E+00  0.00000000000E+00  0.90363205413E+03  0.90363205413E+03  0.00000000000E+00 0.  1.
         21   -1    0    0  502  503 -0.00000000000E+00 -0.00000000000E+00 -0.51346056942E+02  0.51346056942E+02  0.00000000000E+00 0. -1.
          6    1    1    2  501    0 -0.27738662793E+02 -0.92729274876E+02  0.61293893568E+03  0.64419817658E+03  0.17300000000E+03 0.  1.
         -6    1    1    2    0  503  0.27738662793E+02  0.92729274876E+02  0.23934706151E+03  0.31077993450E+03  0.17300000000E+03 0. -1.
<mgrwt>
<rscale>  2 0.19823509E+03</rscale>
<asrwt>0</asrwt>
<pdfrwt beam="1">  1       21 0.13902030E+00 0.19823509E+03</pdfrwt>
<pdfrwt beam="2">  1       21 0.78993940E-02 0.19823509E+03</pdfrwt>
<totfact> 0.44558356E+04</totfact>
</mgrwt>
</event>
<event>
 4    1  0.4017302E+000  0.1873868E+03  0.7546771E-02  0.1160840E+00
         21   -1    0    0  503  502  0.00000000000E+00  0.00000000000E+00  0.11046008496E+03  0.11046008496E+03  0.00000000000E+00 0.  1.
         21   -1    0    0  501  503 -0.00000000000E+00 -0.00000000000E+00 -0.32039008881E+03  0.32039008881E+03  0.00000000000E+00 0.  1.
          6    1    1    2  501    0 -0.24027731007E+02  0.67878373994E+02 -0.85923105637E+02  0.20614699997E+03  0.17300000000E+03 0.  1.
         -6    1    1    2    0  502  0.24027731007E+02 -0.67878373994E+02 -0.12400689821E+03  0.22470317380E+03  0.17300000000E+03 0.  1.
<mgrwt>
<rscale>  2 0.18738678E+03</rscale>
<asrwt>0</asrwt>
<pdfrwt beam="1">  1       21 0.16993860E-01 0.18738678E+03</pdfrwt>
<pdfrwt beam="2">  1       21 0.49290782E-01 0.18738678E+03</pdfrwt>
<totfact> 0.12277285E+05</totfact>
</mgrwt>
</event>
<event>
 4    1  0.4017302E+000  0.2568774E+03  0.7546771E-02  0.1109034E+00
         21   -1    0    0  501  502  0.00000000000E+00  0.00000000000E+00  0.11317386594E+04  0.11317386594E+04  0.00000000000E+00 0. -1.
         21   -1    0    0  502  503 -0.00000000000E+00 -0.00000000000E+00 -0.60780953267E+02  0.60780953267E+02  0.00000000000E+00 0. -1.
          6    1    1    2  501    0  0.18555158434E+03 -0.40343374720E+02  0.65582340321E+03  0.70433679056E+03  0.17300000000E+03 0. -1.
         -6    1    1    2    0  503 -0.18555158434E+03  0.40343374720E+02  0.41513430289E+03  0.48818282208E+03  0.17300000000E+03 0. -1.
<mgrwt>
<rscale>  2 0.25687736E+03</rscale>
<asrwt>0</asrwt>
<pdfrwt beam="1">  1       21 0.17411362E+00 0.25687736E+03</pdfrwt>
<pdfrwt beam="2">  1       21 0.93509168E-02 0.25687736E+03</pdfrwt>
<totfact> 0.17498596E+04</totfact>
</mgrwt>
</event>
<event>
 4    1  0.4017302E+000  0.2199507E+03  0.7546771E-02  0.1133920E+00
         21   -1    0    0  501  502  0.00000000000E+00  0.00000000000E+00  0.13812796077E+04  0.13812796077E+04  0.00000000000E+00 0. -1.
         21   -1    0    0  502  503 -0.00000000000E+00 -0.00000000000E+00 -0.56057126550E+02  0.56057126550E+02  0.00000000000E+00 0.  1.
          6    1    1    2  501    0  0.51452549543E+02 -0.12570573192E+03  0.11028237180E+04  0.11245436625E+04  0.17300000000E+03 0. -1.
         -6    1    1    2    0  503 -0.51452549543E+02  0.12570573192E+03  0.22239876320E+03  0.31279307180E+03  0.17300000000E+03 0.  1.
<mgrwt>
<rscale>  2 0.21995067E+03</rscale>
<asrwt>0</asrwt>
<pdfrwt beam="1">  1       21 0.21250453E+00 0.21995067E+03</pdfrwt>
<pdfrwt beam="2">  1       21 0.86241744E-02 0.21995067E+03</pdfrwt>
<totfact> 0.11521863E+04</totfact>
</mgrwt>
</event>
<event>
 4    1  0.4017302E+000  0.2235908E+03  0.7546771E-02  0.1131234E+00
         21   -1    0    0  501  502  0.00000000000E+00  0.00000000000E+00  0.48687989717E+02  0.48687989717E+02  0.00000000000E+00 0. -1.
         21   -1    0    0  502  503 -0.00000000000E+00 -0.00000000000E+00 -0.11535687778E+04  0.11535687778E+04  0.00000000000E+00 0. -1.
          6    1    1    2  501    0  0.13891298588E+03  0.27695512873E+02 -0.35316643882E+03  0.41799448870E+03  0.17300000000E+03 0. -1.
         -6    1    1    2    0  503 -0.13891298588E+03 -0.27695512873E+02 -0.75171434924E+03  0.78426227879E+03  0.17300000000E+03 0. -1.
<mgrwt>
<rscale>  2 0.22359083E+03</rscale>
<asrwt>0</asrwt>
<pdfrwt beam="1">  1       21 0.74904596E-02 0.22359083E+03</pdfrwt>
<pdfrwt beam="2">  1       21 0.17747213E+00 0.22359083E+03</pdfrwt>
<totfact> 0.24955344E+04</totfact>
</mgrwt>
</event>
<event>
 4    1  0.4017302E+000  0.1863141E+03  0.7546771E-02  0.1161828E+00
         21   -1    0    0  503  502  0.00000000000E+00  0.00000000000E+00  0.15079061643E+04  0.15079061643E+04  0.00000000000E+00 0.  1.
         21   -1    0    0  501  503 -0.00000000000E+00 -0.00000000000E+00 -0.16804407992E+03  0.16804407992E+03  0.00000000000E+00 0.  1.
          6    1    1    2  501    0  0.29451991178E+02  0.62582090545E+02 -0.10853315761E+03  0.21562092696E+03  0.17300000000E+03 0.  1.
         -6    1    1    2    0  502 -0.29451991178E+02 -0.62582090545E+02  0.14483952420E+04  0.14603293173E+04  0.17300000000E+03 0.  1.
<mgrwt>
<rscale>  2 0.18631408E+03</rscale>
<asrwt>0</asrwt>
<pdfrwt beam="1">  1       21 0.23198555E+00 0.18631408E+03</pdfrwt>
<pdfrwt beam="2">  1       21 0.25852936E-01 0.18631408E+03</pdfrwt>
<totfact> 0.12177412E+03</totfact>
</mgrwt>
</event>
<event>
 4    1  0.4017302E+000  0.2045298E+03  0.7546771E-02  0.1145972E+00
         21   -1    0    0  501  502  0.00000000000E+00  0.00000000000E+00  0.52218088355E+03  0.52218088355E+03  0.00000000000E+00 0. -1.
         21   -1    0    0  502  503 -0.00000000000E+00 -0.00000000000E+00 -0.89787912266E+02  0.89787912266E+02  0.00000000000E+00 0.  1.
          6    1    1    2  501    0 -0.33283263395E+02  0.10390226813E+03  0.31664828216E+03  0.37695966832E+03  0.17300000000E+03 0. -1.
         -6    1    1    2    0  503  0.33283263395E+02 -0.10390226813E+03  0.11574468912E+03  0.23500912749E+03  0.17300000000E+03 0. -1.
<mgrwt>
<rscale>  2 0.20452984E+03</rscale>
<asrwt>0</asrwt>
<pdfrwt beam="1">  1       21 0.80335519E-01 0.20452984E+03</pdfrwt>
<pdfrwt beam="2">  1       21 0.13813525E-01 0.20452984E+03</pdfrwt>
<totfact> 0.61717455E+04</totfact>
</mgrwt>
</event>
<event>
 4    1  0.4017302E+000  0.2329854E+03  0.7546771E-02  0.1124556E+00
         21   -1    0    0  503  502  0.00000000000E+00  0.00000000000E+00  0.93862805986E+03  0.93862805986E+03  0.00000000000E+00 0.  1.
         21   -1    0    0  501  503 -0.00000000000E+00 -0.00000000000E+00 -0.74104253797E+02  0.74104253797E+02  0.00000000000E+00 0. -1.
          6    1    1    2  501    0 -0.38204486761E+02  0.15130632161E+03  0.66954937399E+03  0.70892774666E+03  0.17300000000E+03 0.  1.
         -6    1    1    2    0  502  0.38204486761E+02 -0.15130632161E+03  0.19497443207E+03  0.30380456700E+03  0.17300000000E+03 0. -1.
<mgrwt>
<rscale>  2 0.23298538E+03</rscale>
<asrwt>0</asrwt>
<pdfrwt beam="1">  1       21 0.14440431E+00 0.23298538E+03</pdfrwt>
<pdfrwt beam="2">  1       21 0.11400655E-01 0.23298538E+03</pdfrwt>
<totfact> 0.20703762E+04</totfact>
</mgrwt>
</event>
<event>
 4    1  0.4017302E+000  0.2617935E+03  0.7546771E-02  0.1106070E+00
         21   -1    0    0  503  502  0.00000000000E+00  0.00000000000E+00  0.63161135561E+03  0.63161135561E+03  0.00000000000E+00 0. -1.
         21   -1    0    0  501  503 -0.00000000000E+00 -0.00000000000E+00 -0.25367086324E+03  0.25367086324E+03  0.00000000000E+00 0.  1.
          6    1    1    2  501    0 -0.19402065258E+03 -0.31028978251E+02 -0.14587336864E+03  0.29969125913E+03  0.17300000000E+03 0.  1.
         -6    1    1    2    0  502  0.19402065258E+03  0.31028978251E+02  0.52381386101E+03  0.58559095972E+03  0.17300000000E+03 0. -1.
<mgrwt>
<rscale>  2 0.26179345E+03</rscale>
<asrwt>0</asrwt>
<pdfrwt beam="1">  1       21 0.97170977E-01 0.26179345E+03</pdfrwt>
<pdfrwt beam="2">  1       21 0.39026287E-01 0.26179345E+03</pdfrwt>
<totfact> 0.53032243E+03</totfact>
</mgrwt>
</event>
<event>
 4    1  0.4017302E+000  0.1841353E+03  0.7546771E-02  0.1163860E+00
         21   -1    0    0  501  502  0.00000000000E+00  0.00000000000E+00  0.34178218949E+03  0.34178218949E+03  0.00000000000E+00 0. -1.
         21   -1    0    0  502  503 -0.00000000000E+00 -0.00000000000E+00 -0.10199468870E+03  0.10199468870E+03  0.00000000000E+00 0.  1.
          6    1    1    2  501    0  0.53268147205E+02 -0.33753640093E+02  0.83183887422E+02  0.20205287143E+03  0.17300000000E+03 0. -1.
         -6    1    1    2    0  503 -0.53268147205E+02  0.33753640093E+02  0.15660361337E+03  0.24172400676E+03  0.17300000000E+03 0. -1.
<mgrwt>
<rscale>  2 0.18413529E+03</rscale>
<asrwt>0</asrwt>
<pdfrwt beam="1">  1       21 0.52581875E-01 0.18413529E+03</pdfrwt>
<pdfrwt beam="2">  1       21 0.15691491E-01 0.18413529E+03</pdfrwt>
<totfact> 0.12427850E+05</totfact>
</mgrwt>
</event>
<event>
 4    1  0.4017302E+000  0.2313156E+03  0.7546771E-02  0.1125717E+00
         21   -1    0    0  501  502  0.00000000000E+00  0.00000000000E+00  0.75048611539E+03  0.75048611539E+03  0.00000000000E+00 0.  1.
         21   -1    0    0  502  503 -0.00000000000E+00 -0.00000000000E+00 -0.10211768174E+03  0.10211768174E+03  0.00000000000E+00 0.  1.
          6    1    1    2  501    0 -0.17694835187E+02 -0.15252806508E+03  0.55838725291E+03  0.60440321148E+03  0.17300000000E+03 0.  1.
         -6    1    1    2    0  503  0.17694835187E+02  0.15252806508E+03  0.89981180747E+02  0.24820058565E+03  0.17300000000E+03 0.  1.
<mgrwt>
<rscale>  2 0.23131562E+03</rscale>
<asrwt>0</asrwt>
<pdfrwt beam="1">  1       21 0.11545940E+00 0.23131562E+03</pdfrwt>
<pdfrwt beam="2">  1       21 0.15710413E-01 0.23131562E+03</pdfrwt>
<totfact> 0.20453199E+04</totfact>
</mgrwt>
</event>
<event>
 4    1  0.4017302E+000  0.2316495E+03  0.7546771E-02  0.1125484E+00
         21   -1    0    0  501  502  0.00000000000E+00  0.00000000000E+00  0.11605357097E+04  0.11605357097E+04  0.00000000000E+00 0. -1.
         21   -1    0    0  502  503 -0.00000000000E+00 -0.00000000000E+00 -0.64684783886E+02  0.64684783886E+02  0.00000000000E+00 0. -1.
          6    1    1    2  501    0 -0.65281003056E+02 -0.13953812571E+03  0.87506794962E+03  0.90521014927E+03  0.17300000000E+03 0. -1.
         -6    1    1    2    0  503  0.65281003056E+02  0.13953812571E+03  0.22078297617E+03  0.32001034429E+03  0.17300000000E+03 0. -1.
<mgrwt>
<rscale>  2 0.23164952E+03</rscale>
<asrwt>0</asrwt>
<pdfrwt beam="1">  1       21 0.17854394E+00 0.23164952E+03</pdfrwt>
<pdfrwt beam="2">  1       21 0.99515061E-02 0.23164952E+03</pdfrwt>
<totfact> 0.14819507E+04</totfact>
</mgrwt>
</event>
<event>
 4    1  0.4017302E+000  0.1858947E+03  0.7546771E-02  0.1162217E+00
         21   -1    0    0  503  502  0.00000000000E+00  0.00000000000E+00  0.18037471891E+03  0.18037471891E+03  0.00000000000E+00 0. -1.
         21   -1    0    0  501  503 -0.00000000000E+00 -0.00000000000E+00 -0.19751559159E+03  0.19751559159E+03  0.00000000000E+00 0. -1.
          6    1    1    2  501    0 -0.59780097390E+02  0.32468006777E+02 -0.41314807086E+02  0.19043041982E+03  0.17300000000E+03 0. -1.
         -6    1    1    2    0  502  0.59780097390E+02 -0.32468006777E+02  0.24173934413E+02  0.18745989068E+03  0.17300000000E+03 0. -1.
<mgrwt>
<rscale>  2 0.18589468E+03</rscale>
<asrwt>0</asrwt>
<pdfrwt beam="1">  1       21 0.27749957E-01 0.18589468E+03</pdfrwt>
<pdfrwt beam="2">  1       21 0.30387014E-01 0.18589468E+03</pdfrwt>
<totfact> 0.12913522E+05</totfact>
</mgrwt>
</event>
<event>
 4    1  0.4017302E+000  0.2286634E+03  0.7546771E-02  0.1127584E+00
         21   -1    0    0  503  502  0.00000000000E+00  0.00000000000E+00  0.16600344373E+03  0.16600344373E+03  0.00000000000E+00 0. -1.
         21   -1    0    0  501  503 -0.00000000000E+00 -0.00000000000E+00 -0.31653504740E+03  0.31653504740E+03  0.00000000000E+00 0.  1.
          6    1    1    2  501    0 -0.11037296147E+03 -0.10087492460E+03 -0.58328093965E+02  0.23598539697E+03  0.17300000000E+03 0. -1.
         -6    1    1    2    0  502  0.11037296147E+03  0.10087492460E+03 -0.92203509707E+02  0.24655309416E+03  0.17300000000E+03 0.  1.
<mgrwt>
<rscale>  2 0.22866338E+03</rscale>
<asrwt>0</asrwt>
<pdfrwt beam="1">  1       21 0.25538992E-01 0.22866338E+03</pdfrwt>
<pdfrwt beam="2">  1       21 0.48697699E-01 0.22866338E+03</pdfrwt>
<totfact> 0.57598220E+04</totfact>
</mgrwt>
</event>
<event>
 4    1  0.4017302E+000  0.1849541E+03  0.7546771E-02  0.1163093E+00
         21   -1    0    0  503  502  0.00000000000E+00  0.00000000000E+00  0.43770356694E+03  0.43770356694E+03  0.00000000000E+00 0.  1.
         21   -1    0    0  501  503 -0.00000000000E+00 -0.00000000000E+00 -0.90436769437E+02  0.90436769437E+02  0.00000000000E+00 0.  1.
          6    1    1    2  501    0  0.60599655565E+02  0.24631064500E+02  0.27095430821E+03  0.32806134294E+03  0.17300000000E+03 0.  1.
         -6    1    1    2    0  502 -0.60599655565E+02 -0.24631064500E+02  0.76312489292E+02  0.20007899344E+03  0.17300000000E+03 0.  1.
<mgrwt>
<rscale>  2 0.18495407E+03</rscale>
<asrwt>0</asrwt>
<pdfrwt beam="1">  1       21 0.67339009E-01 0.18495407E+03</pdfrwt>
<pdfrwt beam="2">  1       21 0.13913349E-01 0.18495407E+03</pdfrwt>
<totfact> 0.91003011E+04</totfact>
</mgrwt>
</event>
<event>
 4    1  0.4017302E+000  0.3539763E+03  0.7546771E-02  0.1060995E+00
         21   -1    0    0  503  502  0.00000000000E+00  0.00000000000E+00  0.52244935626E+03  0.52244935626E+03  0.00000000000E+00 0.  1.
         21   -1    0    0  501  503 -0.00000000000E+00 -0.00000000000E+00 -0.32399370570E+03  0.32399370570E+03  0.00000000000E+00 0. -1.
          6    1    1    2  501    0  0.29398502686E+03  0.94567736611E+02 -0.11647746029E+03  0.37264762388E+03  0.17300000000E+03 0. -1.
         -6    1    1    2    0  502 -0.29398502686E+03 -0.94567736611E+02  0.31493311086E+03  0.47379543808E+03  0.17300000000E+03 0.  1.
<mgrwt>
<rscale>  2 0.35397635E+03</rscale>
<asrwt>0</asrwt>
<pdfrwt beam="1">  1       21 0.80376824E-01 0.35397635E+03</pdfrwt>
<pdfrwt beam="2">  1       21 0.49845186E-01 0.35397635E+03</pdfrwt>
<totfact> 0.47520015E+03</totfact>
</mgrwt>
</event>
<event>
 4    1  0.4017302E+000  0.1747169E+03  0.7546771E-02  0.1173016E+00
         21   -1    0    0  503  502  0.00000000000E+00  0.00000000000E+00  0.41791709745E+03  0.41791709745E+03  0.00000000000E+00 0. -1.
         21   -1    0    0  501  503 -0.00000000000E+00 -0.00000000000E+00 -0.14935860694E+03  0.14935860694E+03  0.00000000000E+00 0. -1.
          6    1    1    2  501    0 -0.23928688967E+02  0.49409790573E+01 -0.68468119809E+02  0.18765361403E+03  0.17300000000E+03 0. -1.
         -6    1    1    2    0  502  0.23928688967E+02 -0.49409790573E+01  0.33702661031E+03  0.37962209036E+03  0.17300000000E+03 0. -1.
<mgrwt>
<rscale>  2 0.17471690E+03</rscale>
<asrwt>0</asrwt>
<pdfrwt beam="1">  1       21 0.64294938E-01 0.17471690E+03</pdfrwt>
<pdfrwt beam="2">  1       21 0.22978247E-01 0.17471690E+03</pdfrwt>
<totfact> 0.40047615E+04</totfact>
</mgrwt>
</event>
<event>
 4    1  0.4017302E+000  0.1917381E+03  0.7546771E-02  0.1156903E+00
         21   -1    0    0  501  502  0.00000000000E+00  0.00000000000E+00  0.19208616427E+03  0.19208616427E+03  0.00000000000E+00 0. -1.
         21   -1    0    0  502  503 -0.00000000000E+00 -0.00000000000E+00 -0.34959972353E+03  0.34959972353E+03  0.00000000000E+00 0. -1.
          6    1    1    2  501    0  0.75231881791E+02 -0.34273150933E+02  0.10344296214E+03  0.21786218425E+03  0.17300000000E+03 0. -1.
         -6    1    1    2    0  503 -0.75231881791E+02  0.34273150933E+02 -0.26095652140E+03  0.32382370354E+03  0.17300000000E+03 0. -1.
<mgrwt>
<rscale>  2 0.19173806E+03</rscale>
<asrwt>0</asrwt>
<pdfrwt beam="1">  1       21 0.29551718E-01 0.19173806E+03</pdfrwt>
<pdfrwt beam="2">  1       21 0.53784572E-01 0.19173806E+03</pdfrwt>
<totfact> 0.35900197E+04</totfact>
</mgrwt>
</event>
<event>
 4    1  0.4017302E+000  0.1922113E+03  0.7546771E-02  0.1156482E+00
         21   -1    0    0  503  502  0.00000000000E+00  0.00000000000E+00  0.37767617587E+03  0.37767617587E+03  0.00000000000E+00 0.  1.
         21   -1    0    0  501  503 -0.00000000000E+00 -0.00000000000E+00 -0.10015099660E+03  0.10015099660E+03  0.00000000000E+00 0. -1.
          6    1    1    2  501    0  0.41733304084E+01 -0.83658533451E+02  0.10233201443E+03  0.21775446742E+03  0.17300000000E+03 0.  1.
         -6    1    1    2    0  502 -0.41733304084E+01  0.83658533451E+02  0.17519316484E+03  0.26007270505E+03  0.17300000000E+03 0. -1.
<mgrwt>
<rscale>  2 0.19221126E+03</rscale>
<asrwt>0</asrwt>
<pdfrwt beam="1">  1       21 0.58104026E-01 0.19221126E+03</pdfrwt>
<pdfrwt beam="2">  1       21 0.15407846E-01 0.19221126E+03</pdfrwt>
<totfact> 0.10371072E+05</totfact>
</mgrwt>
</event>
<event>
 4    1  0.4017302E+000  0.2589083E+03  0.7546771E-02  0.1107801E+00
         21   -1    0    0  503  502  0.00000000000E+00  0.00000000000E+00  0.33761657681E+03  0.33761657681E+03  0.00000000000E+00 0. -1.
         21   -1    0    0  501  503 -0.00000000000E+00 -0.00000000000E+00 -0.30140681449E+03  0.30140681449E+03  0.00000000000E+00 0.  1.
          6    1    1    2  501    0  0.65544012132E+02  0.18113111615E+03 -0.16854532152E+03  0.30893530742E+03  0.17300000000E+03 0.  1.
         -6    1    1    2    0  502 -0.65544012132E+02 -0.18113111615E+03  0.20475508384E+03  0.33008808388E+03  0.17300000000E+03 0. -1.
<mgrwt>
<rscale>  2 0.25890828E+03</rscale>
<asrwt>0</asrwt>
<pdfrwt beam="1">  1       21 0.51941012E-01 0.25890828E+03</pdfrwt>
<pdfrwt beam="2">  1       21 0.46370279E-01 0.25890828E+03</pdfrwt>
<totfact> 0.15099623E+04</totfact>
</mgrwt>
</event>
<event>
 4    1  0.4017302E+000  0.2132619E+03  0.7546771E-02  0.1139009E+00
         21   -1    0    0  503  502  0.00000000000E+00  0.00000000000E+00  0.10922418472E+03  0.10922418472E+03  0.00000000000E+00 0. -1.
         21   -1    0    0  501  503 -0.00000000000E+00 -0.00000000000E+00 -0.73764359086E+03  0.73764359086E+03  0.00000000000E+00 0. -1.
          6    1    1    2  501    0 -0.12017138146E+03  0.33324122119E+02 -0.59364506957E+03  0.63078928864E+03  0.17300000000E+03 0. -1.
         -6    1    1    2    0  502  0.12017138146E+03 -0.33324122119E+02 -0.34774336565E+02  0.21607848695E+03  0.17300000000E+03 0. -1.
<mgrwt>
<rscale>  2 0.21326195E+03</rscale>
<asrwt>0</asrwt>
<pdfrwt beam="1">  1       21 0.16803721E-01 0.21326195E+03</pdfrwt>
<pdfrwt beam="2">  1       21 0.11348363E+00 0.21326195E+03</pdfrwt>
<totfact> 0.19050432E+04</totfact>
</mgrwt>
</event>
<event>
 4    1  0.4017302E+000  0.1997088E+03  0.7546771E-02  0.1149985E+00
         21   -1    0    0  501  502  0.00000000000E+00  0.00000000000E+00  0.13648559550E+04  0.13648559550E+04  0.00000000000E+00 0.  1.
         21   -1    0    0  502  503 -0.00000000000E+00 -0.00000000000E+00 -0.57360114438E+02  0.57360114438E+02  0.00000000000E+00 0.  1.
          6    1    1    2  501    0  0.81417116937E+02 -0.57670344933E+02  0.11518051362E+04  0.11689904565E+04  0.17300000000E+03 0.  1.
         -6    1    1    2    0  503 -0.81417116937E+02  0.57670344933E+02  0.15569070432E+03  0.25322561290E+03  0.17300000000E+03 0.  1.
<mgrwt>
<rscale>  2 0.19970883E+03</rscale>
<asrwt>0</asrwt>
<pdfrwt beam="1">  1       21 0.20997781E+00 0.19970883E+03</pdfrwt>
<pdfrwt beam="2">  1       21 0.88246340E-02 0.19970883E+03</pdfrwt>
<totfact> 0.11667226E+04</totfact>
</mgrwt>
</event>
<event>
 4    1  0.4017302E+000  0.2232519E+03  0.7546771E-02  0.1131482E+00
         21   -1    0    0  503  502  0.00000000000E+00  0.00000000000E+00  0.56536244590E+03  0.56536244590E+03  0.00000000000E+00 0.  1.
         21   -1    0    0  501  503 -0.00000000000E+00 -0.00000000000E+00 -0.37039393710E+03  0.37039393710E+03  0.00000000000E+00 0.  1.
          6    1    1    2  501    0  0.40737531005E+02  0.13510323808E+03 -0.31093549973E+03  0.38278233549E+03  0.17300000000E+03 0.  1.
         -6    1    1    2    0  502 -0.40737531005E+02 -0.13510323808E+03  0.50590400853E+03  0.55297404751E+03  0.17300000000E+03 0.  1.
<mgrwt>
<rscale>  2 0.22325195E+03</rscale>
<asrwt>0</asrwt>
<pdfrwt beam="1">  1       21 0.86978838E-01 0.22325195E+03</pdfrwt>
<pdfrwt beam="2">  1       21 0.56983683E-01 0.22325195E+03</pdfrwt>
<totfact> 0.32086685E+03</totfact>
</mgrwt>
</event>
<event>
 4    1  0.4017302E+000  0.1866109E+03  0.7546771E-02  0.1161554E+00
         21   -1    0    0  501  502  0.00000000000E+00  0.00000000000E+00  0.41222292382E+03  0.41222292382E+03  0.00000000000E+00 0. -1.
         21   -1    0    0  502  503 -0.00000000000E+00 -0.00000000000E+00 -0.30374554961E+03  0.30374554961E+03  0.00000000000E+00 0. -1.
          6    1    1    2  501    0 -0.48388938714E+02 -0.50528417835E+02  0.35839476720E+03  0.40406734532E+03  0.17300000000E+03 0. -1.
         -6    1    1    2    0  503  0.48388938714E+02  0.50528417835E+02 -0.24991739299E+03  0.31190112811E+03  0.17300000000E+03 0. -1.
<mgrwt>
<rscale>  2 0.18661085E+03</rscale>
<asrwt>0</asrwt>
<pdfrwt beam="1">  1       21 0.63418911E-01 0.18661085E+03</pdfrwt>
<pdfrwt beam="2">  1       21 0.46730085E-01 0.18661085E+03</pdfrwt>
<totfact> 0.10122799E+04</totfact>
</mgrwt>
</event>
<event>
 4    1  0.4017302E+000  0.2003686E+03  0.7546771E-02  0.1149428E+00
         21   -1    0    0  503  502  0.00000000000E+00  0.00000000000E+00  0.26121490172E+03  0.26121490172E+03  0.00000000000E+00 0.  1.
         21   -1    0    0  501  503 -0.00000000000E+00 -0.00000000000E+00 -0.18863105842E+03  0.18863105842E+03  0.00000000000E+00 0.  1.
          6    1    1    2  501    0 -0.22952830499E+02 -0.98446590639E+02 -0.60504848373E+02  0.20930456353E+03  0.17300000000E+03 0.  1.
         -6    1    1    2    0  502  0.22952830499E+02  0.98446590639E+02  0.13308869168E+03  0.24054139662E+03  0.17300000000E+03 0.  1.
<mgrwt>
<rscale>  2 0.20036857E+03</rscale>
<asrwt>0</asrwt>
<pdfrwt beam="1">  1       21 0.40186908E-01 0.20036857E+03</pdfrwt>
<pdfrwt beam="2">  1       21 0.29020163E-01 0.20036857E+03</pdfrwt>
<totfact> 0.67593462E+04</totfact>
</mgrwt>
</event>
<event>
 4    1  0.4017302E+000  0.2188820E+03  0.7546771E-02  0.1134719E+00
         21   -1    0    0  503  502  0.00000000000E+00  0.00000000000E+00  0.46078327125E+03  0.46078327125E+03  0.00000000000E+00 0.  1.
         21   -1    0    0  501  503 -0.00000000000E+00 -0.00000000000E+00 -0.11262141857E+03  0.11262141857E+03  0.00000000000E+00 0.  1.
          6    1    1    2  501    0 -0.11631973292E+03 -0.66708677455E+02  0.94634883783E+02  0.23846402064E+03  0.17300000000E+03 0.  1.
         -6    1    1    2    0  502  0.11631973292E+03  0.66708677455E+02  0.25352696889E+03  0.33494066917E+03  0.17300000000E+03 0.  1.
<mgrwt>
<rscale>  2 0.21888200E+03</rscale>
<asrwt>0</asrwt>
<pdfrwt beam="1">  1       21 0.70889733E-01 0.21888200E+03</pdfrwt>
<pdfrwt beam="2">  1       21 0.17326372E-01 0.21888200E+03</pdfrwt>
<totfact> 0.53610749E+04</totfact>
</mgrwt>
</event>
<event>
 4    1  0.4017302E+000  0.2254351E+03  0.7546771E-02  0.1129895E+00
         21   -1    0    0  503  502  0.00000000000E+00  0.00000000000E+00  0.67717461768E+03  0.67717461768E+03  0.00000000000E+00 0. -1.
         21   -1    0    0  501  503 -0.00000000000E+00 -0.00000000000E+00 -0.75231904434E+02  0.75231904434E+02  0.00000000000E+00 0.  1.
          6    1    1    2  501    0 -0.31642619996E+02 -0.14103450373E+03  0.31954271384E+03  0.39106077867E+03  0.17300000000E+03 0.  1.
         -6    1    1    2    0  502  0.31642619996E+02  0.14103450373E+03  0.28239999941E+03  0.36134574345E+03  0.17300000000E+03 0. -1.
<mgrwt>
<rscale>  2 0.22543511E+03</rscale>
<asrwt>0</asrwt>
<pdfrwt beam="1">  1       21 0.10418071E+00 0.22543511E+03</pdfrwt>
<pdfrwt beam="2">  1       21 0.11574140E-01 0.22543511E+03</pdfrwt>
<totfact> 0.45833734E+04</totfact>
</mgrwt>
</event>
<event>
 4    1  0.4017302E+000  0.1796249E+03  0.7546771E-02  0.1168167E+00
         21   -1    0    0  503  502  0.00000000000E+00  0.00000000000E+00  0.30058227016E+03  0.30058227016E+03  0.00000000000E+00 0.  1.
         21   -1    0    0  501  503 -0.00000000000E+00 -0.00000000000E+00 -0.13567243344E+03  0.13567243344E+03  0.00000000000E+00 0. -1.
          6    1    1    2  501    0 -0.64203882033E+01  0.47904780787E+02 -0.17221230776E+02  0.18044849735E+03  0.17300000000E+03 0. -1.
         -6    1    1    2    0  502  0.64203882033E+01 -0.47904780787E+02  0.18213106749E+03  0.25580620625E+03  0.17300000000E+03 0.  1.
<mgrwt>
<rscale>  2 0.17962486E+03</rscale>
<asrwt>0</asrwt>
<pdfrwt beam="1">  1       21 0.46243426E-01 0.17962486E+03</pdfrwt>
<pdfrwt beam="2">  1       21 0.20872682E-01 0.17962486E+03</pdfrwt>
<totfact> 0.95950164E+04</totfact>
</mgrwt>
</event>
<event>
 4    1  0.4017302E+000  0.2375873E+03  0.7546771E-02  0.1121411E+00
         21   -1    0    0  503  502  0.00000000000E+00  0.00000000000E+00  0.53726796660E+02  0.53726796660E+02  0.00000000000E+00 0. -1.
         21   -1    0    0  501  503 -0.00000000000E+00 -0.00000000000E+00 -0.10531673646E+04  0.10531673646E+04  0.00000000000E+00 0. -1.
          6    1    1    2  501    0  0.14243162824E+02 -0.16222155947E+03 -0.52681425528E+03  0.57791085957E+03  0.17300000000E+03 0. -1.
         -6    1    1    2    0  502 -0.14243162824E+02  0.16222155947E+03 -0.47262631264E+03  0.52898330166E+03  0.17300000000E+03 0. -1.
<mgrwt>
<rscale>  2 0.23758725E+03</rscale>
<asrwt>0</asrwt>
<pdfrwt beam="1">  1       21 0.82656620E-02 0.23758725E+03</pdfrwt>
<pdfrwt beam="2">  1       21 0.16202573E+00 0.23758725E+03</pdfrwt>
<totfact> 0.26827588E+04</totfact>
</mgrwt>
</event>
<event>
 4    1  0.4017302E+000  0.2391212E+03  0.7546771E-02  0.1120380E+00
         21   -1    0    0  501  502  0.00000000000E+00  0.00000000000E+00  0.12350914137E+03  0.12350914137E+03  0.00000000000E+00 0. -1.
         21   -1    0    0  502  503 -0.00000000000E+00 -0.00000000000E+00 -0.58428441279E+03  0.58428441279E+03  0.00000000000E+00 0. -1.
          6    1    1    2  501    0  0.16433536322E+03 -0.15615254571E+02 -0.69118673562E+02  0.24891030275E+03  0.17300000000E+03 0. -1.
         -6    1    1    2    0  503 -0.16433536322E+03  0.15615254571E+02 -0.39165659785E+03  0.45888325141E+03  0.17300000000E+03 0. -1.
<mgrwt>
<rscale>  2 0.23912120E+03</rscale>
<asrwt>0</asrwt>
<pdfrwt beam="1">  1       21 0.19001407E-01 0.23912120E+03</pdfrwt>
<pdfrwt beam="2">  1       21 0.89889908E-01 0.23912120E+03</pdfrwt>
<totfact> 0.26089308E+04</totfact>
</mgrwt>
</event>
<event>
 4    1  0.4017302E+000  0.2525487E+03  0.7546771E-02  0.1111705E+00
         21   -1    0    0  501  502  0.00000000000E+00  0.00000000000E+00  0.26291796938E+03  0.26291796938E+03  0.00000000000E+00 0.  1.
         21   -1    0    0  502  503 -0.00000000000E+00 -0.00000000000E+00 -0.29292338458E+03  0.29292338458E+03  0.00000000000E+00 0.  1.
          6    1    1    2  501    0  0.18348910656E+03 -0.13549623634E+02  0.10020429809E+03  0.27170157505E+03  0.17300000000E+03 0.  1.
         -6    1    1    2    0  503 -0.18348910656E+03  0.13549623634E+02 -0.13020971328E+03  0.28413977891E+03  0.17300000000E+03 0.  1.
<mgrwt>
<rscale>  2 0.25254870E+03</rscale>
<asrwt>0</asrwt>
<pdfrwt beam="1">  1       21 0.40448918E-01 0.25254870E+03</pdfrwt>
<pdfrwt beam="2">  1       21 0.45065136E-01 0.25254870E+03</pdfrwt>
<totfact> 0.26988742E+04</totfact>
</mgrwt>
</event>
<event>
 4    1  0.4017302E+000  0.1880193E+03  0.7546771E-02  0.1160260E+00
         21   -1    0    0  503  502  0.00000000000E+00  0.00000000000E+00  0.60298758854E+03  0.60298758854E+03  0.00000000000E+00 0.  1.
         21   -1    0    0  501  503 -0.00000000000E+00 -0.00000000000E+00 -0.65812036098E+02  0.65812036098E+02  0.00000000000E+00 0.  1.
          6    1    1    2  501    0  0.48450907728E+02 -0.55450588542E+02  0.15809532553E+03  0.24565298733E+03  0.17300000000E+03 0.  1.
         -6    1    1    2    0  502 -0.48450907728E+02  0.55450588542E+02  0.37908022691E+03  0.42314663730E+03  0.17300000000E+03 0.  1.
<mgrwt>
<rscale>  2 0.18801930E+03</rscale>
<asrwt>0</asrwt>
<pdfrwt beam="1">  1       21 0.92767318E-01 0.18801930E+03</pdfrwt>
<pdfrwt beam="2">  1       21 0.10124929E-01 0.18801930E+03</pdfrwt>
<totfact> 0.77893546E+04</totfact>
</mgrwt>
</event>
<event>
 4    1  0.4017302E+000  0.2283715E+03  0.7546771E-02  0.1127791E+00
         21   -1    0    0  503  502  0.00000000000E+00  0.00000000000E+00  0.41061604232E+02  0.41061604232E+02  0.00000000000E+00 0.  1.
         21   -1    0    0  501  503 -0.00000000000E+00 -0.00000000000E+00 -0.16839350263E+04  0.16839350263E+04  0.00000000000E+00 0.  1.
          6    1    1    2  501    0 -0.93987280633E+02  0.11571923349E+03 -0.12489934897E+04  0.12697000777E+04  0.17300000000E+03 0.  1.
         -6    1    1    2    0  502  0.93987280633E+02 -0.11571923349E+03 -0.39387993232E+03  0.45529655281E+03  0.17300000000E+03 0.  1.
<mgrwt>
<rscale>  2 0.22837152E+03</rscale>
<asrwt>0</asrwt>
<pdfrwt beam="1">  1       21 0.63171692E-02 0.22837152E+03</pdfrwt>
<pdfrwt beam="2">  1       21 0.25906696E+00 0.22837152E+03</pdfrwt>
<totfact> 0.10280411E+04</totfact>
</mgrwt>
</event>
<event>
 4    1  0.4017302E+000  0.1831408E+03  0.7546771E-02  0.1164798E+00
         21   -1    0    0  503  502  0.00000000000E+00  0.00000000000E+00  0.67818265942E+02  0.67818265942E+02  0.00000000000E+00 0.  1.
         21   -1    0    0  501  503 -0.00000000000E+00 -0.00000000000E+00 -0.11553414031E+04  0.11553414031E+04  0.00000000000E+00 0.  1.
          6    1    1    2  501    0  0.34044929696E+02 -0.49522712733E+02 -0.10062758801E+04  0.10228057993E+04  0.17300000000E+03 0.  1.
         -6    1    1    2    0  502 -0.34044929696E+02  0.49522712733E+02 -0.81247257032E+02  0.20035386966E+03  0.17300000000E+03 0.  1.
<mgrwt>
<rscale>  2 0.18314081E+03</rscale>
<asrwt>0</asrwt>
<pdfrwt beam="1">  1       21 0.10433580E-01 0.18314081E+03</pdfrwt>
<pdfrwt beam="2">  1       21 0.17774482E+00 0.18314081E+03</pdfrwt>
<totfact> 0.14295272E+04</totfact>
</mgrwt>
</event>
<event>
 4    1  0.4017302E+000  0.2191717E+03  0.7546771E-02  0.1134502E+00
         21   -1    0    0  503  502  0.00000000000E+00  0.00000000000E+00  0.36394227278E+03  0.36394227278E+03  0.00000000000E+00 0.  1.
         21   -1    0    0  501  503 -0.00000000000E+00 -0.00000000000E+00 -0.13467616001E+03  0.13467616001E+03  0.00000000000E+00 0. -1.
          6    1    1    2  501    0 -0.89649997716E+01 -0.13426422311E+03  0.14985126201E+03  0.26550264321E+03  0.17300000000E+03 0. -1.
         -6    1    1    2    0  502  0.89649997716E+01  0.13426422311E+03  0.79414850772E+02  0.23311578958E+03  0.17300000000E+03 0. -1.
<mgrwt>
<rscale>  2 0.21917174E+03</rscale>
<asrwt>0</asrwt>
<pdfrwt beam="1">  1       21 0.55991118E-01 0.21917174E+03</pdfrwt>
<pdfrwt beam="2">  1       21 0.20719409E-01 0.21917174E+03</pdfrwt>
<totfact> 0.64125167E+04</totfact>
</mgrwt>
</event>
<event>
 4    1  0.4017302E+000  0.2294054E+03  0.7546771E-02  0.1127059E+00
         21   -1    0    0  501  502  0.00000000000E+00  0.00000000000E+00  0.11626979046E+04  0.11626979046E+04  0.00000000000E+00 0.  1.
         21   -1    0    0  502  503 -0.00000000000E+00 -0.00000000000E+00 -0.51169353427E+02  0.51169353427E+02  0.00000000000E+00 0.  1.
          6    1    1    2  501    0 -0.32311854644E+02 -0.14715221353E+03  0.76197322276E+03  0.79575751464E+03  0.17300000000E+03 0.  1.
         -6    1    1    2    0  503  0.32311854644E+02  0.14715221353E+03  0.34955532842E+03  0.41810974340E+03  0.17300000000E+03 0.  1.
<mgrwt>
<rscale>  2 0.22940538E+03</rscale>
<asrwt>0</asrwt>
<pdfrwt beam="1">  1       21 0.17887658E+00 0.22940538E+03</pdfrwt>
<pdfrwt beam="2">  1       21 0.78722091E-02 0.22940538E+03</pdfrwt>
<totfact> 0.22297980E+04</totfact>
</mgrwt>
</event>
<event>
 4    1  0.4017302E+000  0.2035183E+03  0.7546771E-02  0.1146804E+00
         21   -1    0    0  503  502  0.00000000000E+00  0.00000000000E+00  0.86333325874E+02  0.86333325874E+02  0.00000000000E+00 0.  1.
         21   -1    0    0  501  503 -0.00000000000E+00 -0.00000000000E+00 -0.60882099505E+03  0.60882099505E+03  0.00000000000E+00 0.  1.
          6    1    1    2  501    0  0.84969496145E+02 -0.65351878279E+02 -0.42127184144E+03  0.46785643916E+03  0.17300000000E+03 0.  1.
         -6    1    1    2    0  502 -0.84969496145E+02  0.65351878279E+02 -0.10121582773E+03  0.22729788176E+03  0.17300000000E+03 0.  1.
<mgrwt>
<rscale>  2 0.20351826E+03</rscale>
<asrwt>0</asrwt>
<pdfrwt beam="1">  1       21 0.13282050E-01 0.20351826E+03</pdfrwt>
<pdfrwt beam="2">  1       21 0.93664766E-01 0.20351826E+03</pdfrwt>
<totfact> 0.46562362E+04</totfact>
</mgrwt>
</event>
<event>
 4    1  0.4017302E+000  0.1900879E+03  0.7546771E-02  0.1158382E+00
         21   -1    0    0  501  502  0.00000000000E+00  0.00000000000E+00  0.16417137914E+03  0.16417137914E+03  0.00000000000E+00 0. -1.
         21   -1    0    0  502  503 -0.00000000000E+00 -0.00000000000E+00 -0.22611406850E+03  0.22611406850E+03  0.00000000000E+00 0. -1.
          6    1    1    2  501    0  0.77709336340E+02  0.12871168287E+02 -0.62808146034E+02  0.20019558221E+03  0.17300000000E+03 0. -1.
         -6    1    1    2    0  503 -0.77709336340E+02 -0.12871168287E+02  0.86545667433E+00  0.19008986544E+03  0.17300000000E+03 0. -1.
<mgrwt>
<rscale>  2 0.19008790E+03</rscale>
<asrwt>0</asrwt>
<pdfrwt beam="1">  1       21 0.25257135E-01 0.19008790E+03</pdfrwt>
<pdfrwt beam="2">  1       21 0.34786780E-01 0.19008790E+03</pdfrwt>
<totfact> 0.11842466E+05</totfact>
</mgrwt>
</event>
<event>
 4    1  0.4017302E+000  0.2117600E+03  0.7546771E-02  0.1140180E+00
         21   -1    0    0  501  502  0.00000000000E+00  0.00000000000E+00  0.93653968873E+02  0.93653968873E+02  0.00000000000E+00 0.  1.
         21   -1    0    0  502  503 -0.00000000000E+00 -0.00000000000E+00 -0.56095790709E+03  0.56095790709E+03  0.00000000000E+00 0. -1.
          6    1    1    2  501    0 -0.65879353402E+02  0.10282613455E+03 -0.10839804623E+03  0.23789165512E+03  0.17300000000E+03 0.  1.
         -6    1    1    2    0  503  0.65879353402E+02 -0.10282613455E+03 -0.35890589199E+03  0.41672022084E+03  0.17300000000E+03 0. -1.
<mgrwt>
<rscale>  2 0.21176001E+03</rscale>
<asrwt>0</asrwt>
<pdfrwt beam="1">  1       21 0.14408303E-01 0.21176001E+03</pdfrwt>
<pdfrwt beam="2">  1       21 0.86301216E-01 0.21176001E+03</pdfrwt>
<totfact> 0.48378454E+04</totfact>
</mgrwt>
</event>
<event>
 4    1  0.4017302E+000  0.1897928E+03  0.7546771E-02  0.1158648E+00
         21   -1    0    0  503  502  0.00000000000E+00  0.00000000000E+00  0.43554014834E+02  0.43554014834E+02  0.00000000000E+00 0. -1.
         21   -1    0    0  501  503 -0.00000000000E+00 -0.00000000000E+00 -0.18321287149E+04  0.18321287149E+04  0.00000000000E+00 0. -1.
          6    1    1    2  501    0  0.51480696524E+00 -0.78051451813E+02 -0.15889144106E+04  0.16002094545E+04  0.17300000000E+03 0. -1.
         -6    1    1    2    0  502 -0.51480696524E+00  0.78051451813E+02 -0.19966028943E+03  0.27547327517E+03  0.17300000000E+03 0. -1.
<mgrwt>
<rscale>  2 0.18979277E+03</rscale>
<asrwt>0</asrwt>
<pdfrwt beam="1">  1       21 0.67006193E-02 0.18979277E+03</pdfrwt>
<pdfrwt beam="2">  1       21 0.28186589E+00 0.18979277E+03</pdfrwt>
<totfact> 0.71031152E+03</totfact>
</mgrwt>
</event>
<event>
 4    1  0.4017302E+000  0.1898158E+03  0.7546771E-02  0.1158628E+00
         21   -1    0    0  503  502  0.00000000000E+00  0.00000000000E+00  0.28339868800E+03  0.28339868800E+03  0.00000000000E+00 0.  1.
         21   -1    0    0  501  503 -0.00000000000E+00 -0.00000000000E+00 -0.15579657663E+03  0.15579657663E+03  0.00000000000E+00 0.  1.
          6    1    1    2  501    0 -0.69617452917E+02 -0.35418252098E+02 -0.30386759433E+02  0.19223266497E+03  0.17300000000E+03 0.  1.
         -6    1    1    2    0  502  0.69617452917E+02  0.35418252098E+02  0.15798887081E+03  0.24696259966E+03  0.17300000000E+03 0.  1.
<mgrwt>
<rscale>  2 0.18981581E+03</rscale>
<asrwt>0</asrwt>
<pdfrwt beam="1">  1       21 0.43599798E-01 0.18981581E+03</pdfrwt>
<pdfrwt beam="2">  1       21 0.23968704E-01 0.18981581E+03</pdfrwt>
<totfact> 0.83073244E+04</totfact>
</mgrwt>
</event>
<event>
 4    1  0.4017302E+000  0.1851052E+03  0.7546771E-02  0.1162952E+00
         21   -1    0    0  503  502  0.00000000000E+00  0.00000000000E+00  0.89129524540E+02  0.89129524540E+02  0.00000000000E+00 0.  1.
         21   -1    0    0  501  503 -0.00000000000E+00 -0.00000000000E+00 -0.38604412561E+03  0.38604412561E+03  0.00000000000E+00 0.  1.
          6    1    1    2  501    0 -0.65024506673E+02  0.10332424722E+02 -0.16382645758E+03  0.24719031873E+03  0.17300000000E+03 0. -1.
         -6    1    1    2    0  502  0.65024506673E+02 -0.10332424722E+02 -0.13308814348E+03  0.22798333142E+03  0.17300000000E+03 0. -1.
<mgrwt>
<rscale>  2 0.18510523E+03</rscale>
<asrwt>0</asrwt>
<pdfrwt beam="1">  1       21 0.13712234E-01 0.18510523E+03</pdfrwt>
<pdfrwt beam="2">  1       21 0.59391404E-01 0.18510523E+03</pdfrwt>
<totfact> 0.12260084E+05</totfact>
</mgrwt>
</event>
<event>
 4    1  0.4017302E+000  0.2404174E+03  0.7546771E-02  0.1119515E+00
         21   -1    0    0  501  502  0.00000000000E+00  0.00000000000E+00  0.14588478864E+03  0.14588478864E+03  0.00000000000E+00 0. -1.
         21   -1    0    0  502  503 -0.00000000000E+00 -0.00000000000E+00 -0.52476082830E+03  0.52476082830E+03  0.00000000000E+00 0.  1.
          6    1    1    2  501    0 -0.12619892676E+03  0.10929481587E+03 -0.23469599716E+02  0.24156023680E+03  0.17300000000E+03 0. -1.
         -6    1    1    2    0  503  0.12619892676E+03 -0.10929481587E+03 -0.35540643994E+03  0.42908538013E+03  0.17300000000E+03 0.  1.
<mgrwt>
<rscale>  2 0.24041740E+03</rscale>
<asrwt>0</asrwt>
<pdfrwt beam="1">  1       21 0.22443814E-01 0.24041740E+03</pdfrwt>
<pdfrwt beam="2">  1       21 0.80732435E-01 0.24041740E+03</pdfrwt>
<totfact> 0.24403836E+04</totfact>
</mgrwt>
</event>
<event>
 4    1  0.4017302E+000  0.3221854E+03  0.7546771E-02  0.1074648E+00
         21   -1    0    0  501  502  0.00000000000E+00  0.00000000000E+00  0.34310272274E+03  0.34310272274E+03  0.00000000000E+00 0. -1.
         21   -1    0    0  502  503 -0.00000000000E+00 -0.00000000000E+00 -0.35353521198E+03  0.35353521198E+03  0.00000000000E+00 0.  1.
          6    1    1    2  501    0  0.16595025086E+03  0.21525554513E+03 -0.13750147753E+03  0.35030000256E+03  0.17300000000E+03 0.  1.
         -6    1    1    2    0  503 -0.16595025086E+03 -0.21525554513E+03  0.12706898828E+03  0.34633793216E+03  0.17300000000E+03 0. -1.
<mgrwt>
<rscale>  2 0.32218541E+03</rscale>
<asrwt>0</asrwt>
<pdfrwt beam="1">  1       21 0.52785034E-01 0.32218541E+03</pdfrwt>
<pdfrwt beam="2">  1       21 0.54390032E-01 0.32218541E+03</pdfrwt>
<totfact> 0.10132187E+04</totfact>
</mgrwt>
</event>
<event>
 4    1  0.4017302E+000  0.2201459E+03  0.7546771E-02  0.1133774E+00
         21   -1    0    0  501  502  0.00000000000E+00  0.00000000000E+00  0.25968049994E+03  0.25968049994E+03  0.00000000000E+00 0.  1.
         21   -1    0    0  502  503 -0.00000000000E+00 -0.00000000000E+00 -0.18674237679E+03  0.18674237679E+03  0.00000000000E+00 0.  1.
          6    1    1    2  501    0 -0.11366502740E+03 -0.74936571998E+02  0.30998751582E+02  0.22231768008E+03  0.17300000000E+03 0.  1.
         -6    1    1    2    0  503  0.11366502740E+03  0.74936571998E+02  0.41939371565E+02  0.22410519665E+03  0.17300000000E+03 0.  1.
<mgrwt>
<rscale>  2 0.22014592E+03</rscale>
<asrwt>0</asrwt>
<pdfrwt beam="1">  1       21 0.39950846E-01 0.22014592E+03</pdfrwt>
<pdfrwt beam="2">  1       21 0.28729597E-01 0.22014592E+03</pdfrwt>
<totfact> 0.69163157E+04</totfact>
</mgrwt>
</event>
<event>
 4    1  0.4017302E+000  0.2035170E+03  0.7546771E-02  0.1146805E+00
         21   -1    0    0  503  502  0.00000000000E+00  0.00000000000E+00  0.71827678618E+03  0.71827678618E+03  0.00000000000E+00 0.  1.
         21   -1    0    0  501  503 -0.00000000000E+00 -0.00000000000E+00 -0.57668217278E+02  0.57668217278E+02  0.00000000000E+00 0. -1.
          6    1    1    2  501    0 -0.95846207791E+02  0.47996753212E+02  0.33335308417E+03  0.39056812797E+03  0.17300000000E+03 0. -1.
         -6    1    1    2    0  502  0.95846207791E+02 -0.47996753212E+02  0.32725548474E+03  0.38537687548E+03  0.17300000000E+03 0. -1.
<mgrwt>
<rscale>  2 0.20351704E+03</rscale>
<asrwt>0</asrwt>
<pdfrwt beam="1">  1       21 0.11050411E+00 0.20351704E+03</pdfrwt>
<pdfrwt beam="2">  1       21 0.88720340E-02 0.20351704E+03</pdfrwt>
<totfact> 0.64353252E+04</totfact>
</mgrwt>
</event>
<event>
 4    1  0.4017302E+000  0.1861095E+03  0.7546771E-02  0.1162018E+00
         21   -1    0    0  503  502  0.00000000000E+00  0.00000000000E+00  0.21749421890E+03  0.21749421890E+03  0.00000000000E+00 0. -1.
         21   -1    0    0  501  503 -0.00000000000E+00 -0.00000000000E+00 -0.17120704654E+03  0.17120704654E+03  0.00000000000E+00 0. -1.
          6    1    1    2  501    0 -0.23575257675E+02  0.64435700067E+02 -0.28209963706E+02  0.18823536934E+03  0.17300000000E+03 0. -1.
         -6    1    1    2    0  502  0.23575257675E+02 -0.64435700067E+02  0.74497136064E+02  0.20046589610E+03  0.17300000000E+03 0. -1.
<mgrwt>
<rscale>  2 0.18610952E+03</rscale>
<asrwt>0</asrwt>
<pdfrwt beam="1">  1       21 0.33460649E-01 0.18610952E+03</pdfrwt>
<pdfrwt beam="2">  1       21 0.26339546E-01 0.18610952E+03</pdfrwt>
<totfact> 0.11817660E+05</totfact>
</mgrwt>
</event>
<event>
 4    1  0.4017302E+000  0.2402049E+03  0.7546771E-02  0.1119656E+00
         21   -1    0    0  503  502  0.00000000000E+00  0.00000000000E+00  0.81572031791E+02  0.81572031791E+02  0.00000000000E+00 0. -1.
         21   -1    0    0  501  503 -0.00000000000E+00 -0.00000000000E+00 -0.72094264846E+03  0.72094264846E+03  0.00000000000E+00 0. -1.
          6    1    1    2  501    0  0.60232121925E+02  0.15537528413E+03 -0.37482136431E+03  0.44518472859E+03  0.17300000000E+03 0. -1.
         -6    1    1    2    0  502 -0.60232121925E+02 -0.15537528413E+03 -0.26454925235E+03  0.35732995165E+03  0.17300000000E+03 0. -1.
<mgrwt>
<rscale>  2 0.24020489E+03</rscale>
<asrwt>0</asrwt>
<pdfrwt beam="1">  1       21 0.12549544E-01 0.24020489E+03</pdfrwt>
<pdfrwt beam="2">  1       21 0.11091425E+00 0.24020489E+03</pdfrwt>
<totfact> 0.33808522E+04</totfact>
</mgrwt>
</event>
<event>
 4    1  0.4017302E+000  0.1771671E+03  0.7546771E-02  0.1170573E+00
         21   -1    0    0  501  502  0.00000000000E+00  0.00000000000E+00  0.82628375791E+02  0.82628375791E+02  0.00000000000E+00 0.  1.
         21   -1    0    0  502  503 -0.00000000000E+00 -0.00000000000E+00 -0.40519568889E+03  0.40519568889E+03  0.00000000000E+00 0. -1.
          6    1    1    2  501    0  0.24587256929E+02  0.29234659323E+02 -0.10030678805E+03  0.20359187174E+03  0.17300000000E+03 0. -1.
         -6    1    1    2    0  503 -0.24587256929E+02 -0.29234659323E+02 -0.22226052505E+03  0.28423219294E+03  0.17300000000E+03 0. -1.
<mgrwt>
<rscale>  2 0.17716715E+03</rscale>
<asrwt>0</asrwt>
<pdfrwt beam="1">  1       21 0.12712058E-01 0.17716715E+03</pdfrwt>
<pdfrwt beam="2">  1       21 0.62337798E-01 0.17716715E+03</pdfrwt>
<totfact> 0.12698429E+05</totfact>
</mgrwt>
</event>
<event>
 4    1  0.4017302E+000  0.1808970E+03  0.7546771E-02  0.1166938E+00
         21   -1    0    0  501  502  0.00000000000E+00  0.00000000000E+00  0.14666109632E+03  0.14666109632E+03  0.00000000000E+00 0. -1.
         21   -1    0    0  502  503 -0.00000000000E+00 -0.00000000000E+00 -0.22591135170E+03  0.22591135170E+03  0.00000000000E+00 0.  1.
          6    1    1    2  501    0  0.26805358291E+02 -0.45565403423E+02 -0.18935990690E+02  0.18188541713E+03  0.17300000000E+03 0. -1.
         -6    1    1    2    0  503 -0.26805358291E+02  0.45565403423E+02 -0.60314264689E+02  0.19068703088E+03  0.17300000000E+03 0.  1.
<mgrwt>
<rscale>  2 0.18089702E+03</rscale>
<asrwt>0</asrwt>
<pdfrwt beam="1">  1       21 0.22563246E-01 0.18089702E+03</pdfrwt>
<pdfrwt beam="2">  1       21 0.34755592E-01 0.18089702E+03</pdfrwt>
<totfact> 0.14741326E+05</totfact>
</mgrwt>
</event>
<event>
 4    1  0.4017302E+000  0.1835417E+03  0.7546771E-02  0.1164419E+00
         21   -1    0    0  503  502  0.00000000000E+00  0.00000000000E+00  0.14552693287E+03  0.14552693287E+03  0.00000000000E+00 0.  1.
         21   -1    0    0  501  503 -0.00000000000E+00 -0.00000000000E+00 -0.26943414049E+03  0.26943414049E+03  0.00000000000E+00 0.  1.
          6    1    1    2  501    0  0.61107969695E+02  0.49377855221E+01 -0.13981849053E+03  0.23073096017E+03  0.17300000000E+03 0.  1.
         -6    1    1    2    0  502 -0.61107969695E+02 -0.49377855221E+01  0.15911282909E+02  0.18423011320E+03  0.17300000000E+03 0.  1.
<mgrwt>
<rscale>  2 0.18354173E+03</rscale>
<asrwt>0</asrwt>
<pdfrwt beam="1">  1       21 0.22388759E-01 0.18354173E+03</pdfrwt>
<pdfrwt beam="2">  1       21 0.41451406E-01 0.18354173E+03</pdfrwt>
<totfact> 0.10501011E+05</totfact>
</mgrwt>
</event>
<event>
 4    1  0.4017302E+000  0.1912545E+03  0.7546771E-02  0.1157335E+00
         21   -1    0    0  501  502  0.00000000000E+00  0.00000000000E+00  0.66018807571E+03  0.66018807571E+03  0.00000000000E+00 0. -1.
         21   -1    0    0  502  503 -0.00000000000E+00 -0.00000000000E+00 -0.80068781474E+02  0.80068781474E+02  0.00000000000E+00 0. -1.
          6    1    1    2  501    0 -0.35573812348E+02 -0.73374206704E+02  0.49547993368E+03  0.53111075589E+03  0.17300000000E+03 0. -1.
         -6    1    1    2    0  503  0.35573812348E+02  0.73374206704E+02  0.84639360555E+02  0.20914610130E+03  0.17300000000E+03 0. -1.
<mgrwt>
<rscale>  2 0.19125446E+03</rscale>
<asrwt>0</asrwt>
<pdfrwt beam="1">  1       21 0.10156739E+00 0.19125446E+03</pdfrwt>
<pdfrwt beam="2">  1       21 0.12318275E-01 0.19125446E+03</pdfrwt>
<totfact> 0.44331476E+04</totfact>
</mgrwt>
</event>
<event>
 4    1  0.4017302E+000  0.2230382E+03  0.7546771E-02  0.1131638E+00
         21   -1    0    0  503  502  0.00000000000E+00  0.00000000000E+00  0.49985428766E+03  0.49985428766E+03  0.00000000000E+00 0. -1.
         21   -1    0    0  501  503 -0.00000000000E+00 -0.00000000000E+00 -0.14356726077E+03  0.14356726077E+03  0.00000000000E+00 0. -1.
          6    1    1    2  501    0 -0.27080377702E+01  0.14074694760E+03 -0.50063287138E-01  0.22303820128E+03  0.17300000000E+03 0. -1.
         -6    1    1    2    0  502  0.27080377702E+01 -0.14074694760E+03  0.35633709018E+03  0.42038334715E+03  0.17300000000E+03 0. -1.
<mgrwt>
<rscale>  2 0.22303820E+03</rscale>
<asrwt>0</asrwt>
<pdfrwt beam="1">  1       21 0.76900659E-01 0.22303820E+03</pdfrwt>
<pdfrwt beam="2">  1       21 0.22087271E-01 0.22303820E+03</pdfrwt>
<totfact> 0.28329691E+04</totfact>
</mgrwt>
</event>
<event>
 4    1  0.4017302E+000  0.2005469E+03  0.7546771E-02  0.1149278E+00
         21   -1    0    0  501  502  0.00000000000E+00  0.00000000000E+00  0.28358242154E+03  0.28358242154E+03  0.00000000000E+00 0.  1.
         21   -1    0    0  502  503 -0.00000000000E+00 -0.00000000000E+00 -0.60655384826E+03  0.60655384826E+03  0.00000000000E+00 0.  1.
          6    1    1    2  501    0 -0.99692397125E+02 -0.18747700653E+02  0.22808982585E+03  0.30371700476E+03  0.17300000000E+03 0.  1.
         -6    1    1    2    0  503  0.99692397125E+02  0.18747700653E+02 -0.55106125257E+03  0.58641926504E+03  0.17300000000E+03 0.  1.
<mgrwt>
<rscale>  2 0.20054688E+03</rscale>
<asrwt>0</asrwt>
<pdfrwt beam="1">  1       21 0.43628065E-01 0.20054688E+03</pdfrwt>
<pdfrwt beam="2">  1       21 0.93315976E-01 0.20054688E+03</pdfrwt>
<totfact> 0.48463769E+03</totfact>
</mgrwt>
</event>
<event>
 4    1  0.4017302E+000  0.2143036E+03  0.7546771E-02  0.1138203E+00
         21   -1    0    0  501  502  0.00000000000E+00  0.00000000000E+00  0.66209782331E+02  0.66209782331E+02  0.00000000000E+00 0.  1.
         21   -1    0    0  502  503 -0.00000000000E+00 -0.00000000000E+00 -0.69939090648E+03  0.69939090648E+03  0.00000000000E+00 0. -1.
          6    1    1    2  501    0 -0.95273582199E+02  0.83186468774E+02 -0.35128937934E+03  0.41149759670E+03  0.17300000000E+03 0. -1.
         -6    1    1    2    0  503  0.95273582199E+02 -0.83186468774E+02 -0.28189174482E+03  0.35410309212E+03  0.17300000000E+03 0. -1.
<mgrwt>
<rscale>  2 0.21430363E+03</rscale>
<asrwt>0</asrwt>
<pdfrwt beam="1">  1       21 0.10186120E-01 0.21430363E+03</pdfrwt>
<pdfrwt beam="2">  1       21 0.10759860E+00 0.21430363E+03</pdfrwt>
<totfact> 0.53519970E+04</totfact>
</mgrwt>
</event>
<event>
 4    1  0.4017302E+000  0.1785496E+03  0.7546771E-02  0.1169214E+00
         21   -1    0    0  501  502  0.00000000000E+00  0.00000000000E+00  0.41221609529E+03  0.41221609529E+03  0.00000000000E+00 0.  1.
         21   -1    0    0  502  503 -0.00000000000E+00 -0.00000000000E+00 -0.29945073838E+03  0.29945073838E+03  0.00000000000E+00 0.  1.
          6    1    1    2  501    0 -0.43565574262E+02  0.72802522485E+01  0.36284055406E+03  0.40439241957E+03  0.17300000000E+03 0.  1.
         -6    1    1    2    0  503  0.43565574262E+02 -0.72802522485E+01 -0.25007519715E+03  0.30727441411E+03  0.17300000000E+03 0.  1.
<mgrwt>
<rscale>  2 0.17854960E+03</rscale>
<asrwt>0</asrwt>
<pdfrwt beam="1">  1       21 0.63417861E-01 0.17854960E+03</pdfrwt>
<pdfrwt beam="2">  1       21 0.46069344E-01 0.17854960E+03</pdfrwt>
<totfact> 0.10483270E+04</totfact>
</mgrwt>
</event>
<event>
 4    1  0.4017302E+000  0.1819951E+03  0.7546771E-02  0.1165886E+00
         21   -1    0    0  503  502  0.00000000000E+00  0.00000000000E+00  0.11646453699E+03  0.11646453699E+03  0.00000000000E+00 0.  1.
         21   -1    0    0  501  503 -0.00000000000E+00 -0.00000000000E+00 -0.44817923524E+03  0.44817923524E+03  0.00000000000E+00 0.  1.
          6    1    1    2  501    0 -0.48171648560E+02 -0.29541541271E+02 -0.33652513748E+03  0.38258512588E+03  0.17300000000E+03 0.  1.
         -6    1    1    2    0  502  0.48171648560E+02  0.29541541271E+02  0.48104392324E+01  0.18205864635E+03  0.17300000000E+03 0.  1.
<mgrwt>
<rscale>  2 0.18199508E+03</rscale>
<asrwt>0</asrwt>
<pdfrwt beam="1">  1       21 0.17917621E-01 0.18199508E+03</pdfrwt>
<pdfrwt beam="2">  1       21 0.68950651E-01 0.18199508E+03</pdfrwt>
<totfact> 0.54508480E+04</totfact>
</mgrwt>
</event>
<event>
 4    1  0.4017302E+000  0.2364935E+03  0.7546771E-02  0.1122151E+00
         21   -1    0    0  501  502  0.00000000000E+00  0.00000000000E+00  0.27556836295E+04  0.27556836295E+04  0.00000000000E+00 0.  1.
         21   -1    0    0  502  503 -0.00000000000E+00 -0.00000000000E+00 -0.25929039299E+02  0.25929039299E+02  0.00000000000E+00 0. -1.
          6    1    1    2  501    0 -0.14880685174E+03 -0.62102250643E+02  0.20131346361E+04  0.20269781034E+04  0.17300000000E+03 0.  1.
         -6    1    1    2    0  503  0.14880685174E+03  0.62102250643E+02  0.71661995412E+03  0.75463456540E+03  0.17300000000E+03 0. -1.
<mgrwt>
<rscale>  2 0.23649349E+03</rscale>
<asrwt>0</asrwt>
<pdfrwt beam="1">  1       21 0.42395110E+00 0.23649349E+03</pdfrwt>
<pdfrwt beam="2">  1       21 0.39890851E-02 0.23649349E+03</pdfrwt>
<totfact> 0.22828539E+03</totfact>
</mgrwt>
</event>
<event>
 4    1  0.4017302E+000  0.2564476E+03  0.7546771E-02  0.1109297E+00
         21   -1    0    0  503  502  0.00000000000E+00  0.00000000000E+00  0.28415110387E+03  0.28415110387E+03  0.00000000000E+00 0.  1.
         21   -1    0    0  501  503 -0.00000000000E+00 -0.00000000000E+00 -0.50793981664E+03  0.50793981664E+03  0.00000000000E+00 0. -1.
          6    1    1    2  501    0  0.80049428383E+02 -0.17154731128E+03 -0.40409576184E+03  0.47860085220E+03  0.17300000000E+03 0. -1.
         -6    1    1    2    0  502 -0.80049428383E+02  0.17154731128E+03  0.18030704906E+03  0.31349006831E+03  0.17300000000E+03 0.  1.
<mgrwt>
<rscale>  2 0.25644764E+03</rscale>
<asrwt>0</asrwt>
<pdfrwt beam="1">  1       21 0.43715555E-01 0.25644764E+03</pdfrwt>
<pdfrwt beam="2">  1       21 0.78144586E-01 0.25644764E+03</pdfrwt>
<totfact> 0.69923537E+03</totfact>
</mgrwt>
</event>
<event>
 4    1  0.4017302E+000  0.1934283E+03  0.7546771E-02  0.1155405E+00
         21   -1    0    0  501  502  0.00000000000E+00  0.00000000000E+00  0.19134562321E+03  0.19134562321E+03  0.00000000000E+00 0.  1.
         21   -1    0    0  502  503 -0.00000000000E+00 -0.00000000000E+00 -0.25568178006E+03  0.25568178006E+03  0.00000000000E+00 0.  1.
          6    1    1    2  501    0  0.54766824932E+02  0.66978349695E+02  0.76240935681E+02  0.20791148288E+03  0.17300000000E+03 0.  1.
         -6    1    1    2    0  503 -0.54766824932E+02 -0.66978349695E+02 -0.14057709253E+03  0.23911592039E+03  0.17300000000E+03 0.  1.
<mgrwt>
<rscale>  2 0.19342829E+03</rscale>
<asrwt>0</asrwt>
<pdfrwt beam="1">  1       21 0.29437788E-01 0.19342829E+03</pdfrwt>
<pdfrwt beam="2">  1       21 0.39335659E-01 0.19342829E+03</pdfrwt>
<totfact> 0.68866782E+04</totfact>
</mgrwt>
</event>
<event>
 4    1  0.4017302E+000  0.2014875E+03  0.7546771E-02  0.1148490E+00
         21   -1    0    0  501  502  0.00000000000E+00  0.00000000000E+00  0.44982048388E+02  0.44982048388E+02  0.00000000000E+00 0. -1.
         21   -1    0    0  502  503 -0.00000000000E+00 -0.00000000000E+00 -0.11525549712E+04  0.11525549712E+04  0.00000000000E+00 0. -1.
          6    1    1    2  501    0  0.10126975256E+03 -0.20314232260E+02 -0.27489971345E+03  0.34083292574E+03  0.17300000000E+03 0. -1.
         -6    1    1    2    0  503 -0.10126975256E+03  0.20314232260E+02 -0.83267320935E+03  0.85670409383E+03  0.17300000000E+03 0. -1.
<mgrwt>
<rscale>  2 0.20148755E+03</rscale>
<asrwt>0</asrwt>
<pdfrwt beam="1">  1       21 0.69203158E-02 0.20148755E+03</pdfrwt>
<pdfrwt beam="2">  1       21 0.17731613E+00 0.20148755E+03</pdfrwt>
<totfact> 0.29111517E+04</totfact>
</mgrwt>
</event>
<event>
 4    1  0.4017302E+000  0.2346416E+03  0.7546771E-02  0.1123415E+00
         21   -1    0    0  503  502  0.00000000000E+00  0.00000000000E+00  0.12570846889E+03  0.12570846889E+03  0.00000000000E+00 0. -1.
         21   -1    0    0  501  503 -0.00000000000E+00 -0.00000000000E+00 -0.49206964118E+03  0.49206964118E+03  0.00000000000E+00 0.  1.
          6    1    1    2  501    0  0.67415630974E+02 -0.14346711311E+03 -0.28559990928E+03  0.36962682265E+03  0.17300000000E+03 0.  1.
         -6    1    1    2    0  502 -0.67415630974E+02  0.14346711311E+03 -0.80761263009E+02  0.24815128741E+03  0.17300000000E+03 0. -1.
<mgrwt>
<rscale>  2 0.23464160E+03</rscale>
<asrwt>0</asrwt>
<pdfrwt beam="1">  1       21 0.19339764E-01 0.23464160E+03</pdfrwt>
<pdfrwt beam="2">  1       21 0.75703023E-01 0.23464160E+03</pdfrwt>
<totfact> 0.37469483E+04</totfact>
</mgrwt>
</event>
<event>
 4    1  0.4017302E+000  0.2163657E+03  0.7546771E-02  0.1136622E+00
         21   -1    0    0  503  502  0.00000000000E+00  0.00000000000E+00  0.53937695980E+02  0.53937695980E+02  0.00000000000E+00 0. -1.
         21   -1    0    0  501  503 -0.00000000000E+00 -0.00000000000E+00 -0.12842552996E+04  0.12842552996E+04  0.00000000000E+00 0.  1.
          6    1    1    2  501    0  0.83014869172E+00  0.12994012130E+03 -0.99611905827E+03  0.10193465076E+04  0.17300000000E+03 0.  1.
         -6    1    1    2    0  502 -0.83014869172E+00 -0.12994012130E+03 -0.23419854538E+03  0.31884648803E+03  0.17300000000E+03 0. -1.
<mgrwt>
<rscale>  2 0.21636572E+03</rscale>
<asrwt>0</asrwt>
<pdfrwt beam="1">  1       21 0.82981078E-02 0.21636572E+03</pdfrwt>
<pdfrwt beam="2">  1       21 0.19757772E+00 0.21636572E+03</pdfrwt>
<totfact> 0.15389355E+04</totfact>
</mgrwt>
</event>
<event>
 4    1  0.4017302E+000  0.2138284E+03  0.7546771E-02  0.1138570E+00
         21   -1    0    0  503  502  0.00000000000E+00  0.00000000000E+00  0.84198344381E+03  0.84198344381E+03  0.00000000000E+00 0. -1.
         21   -1    0    0  501  503 -0.00000000000E+00 -0.00000000000E+00 -0.55177375070E+02  0.55177375070E+02  0.00000000000E+00 0.  1.
          6    1    1    2  501    0 -0.76529796901E+02  0.99683477016E+02  0.33694873613E+03  0.39907023966E+03  0.17300000000E+03 0.  1.
         -6    1    1    2    0  502  0.76529796901E+02 -0.99683477016E+02  0.44985733261E+03  0.49809057922E+03  0.17300000000E+03 0. -1.
<mgrwt>
<rscale>  2 0.21382845E+03</rscale>
<asrwt>0</asrwt>
<pdfrwt beam="1">  1       21 0.12953591E+00 0.21382845E+03</pdfrwt>
<pdfrwt beam="2">  1       21 0.84888275E-02 0.21382845E+03</pdfrwt>
<totfact> 0.46661226E+04</totfact>
</mgrwt>
</event>
<event>
 4    1  0.4017302E+000  0.2407967E+03  0.7546771E-02  0.1119263E+00
         21   -1    0    0  503  502  0.00000000000E+00  0.00000000000E+00  0.21849315411E+04  0.21849315411E+04  0.00000000000E+00 0. -1.
         21   -1    0    0  501  503 -0.00000000000E+00 -0.00000000000E+00 -0.26792102815E+02  0.26792102815E+02  0.00000000000E+00 0. -1.
          6    1    1    2  501    0  0.84337087144E+02  0.14471104219E+03  0.97130682034E+03  0.10007097328E+04  0.17300000000E+03 0. -1.
         -6    1    1    2    0  502 -0.84337087144E+02 -0.14471104219E+03  0.11868326180E+04  0.12110139112E+04  0.17300000000E+03 0. -1.
<mgrwt>
<rscale>  2 0.24079666E+03</rscale>
<asrwt>0</asrwt>
<pdfrwt beam="1">  1       21 0.33614317E+00 0.24079666E+03</pdfrwt>
<pdfrwt beam="2">  1       21 0.41218637E-02 0.24079666E+03</pdfrwt>
<totfact> 0.74603486E+03</totfact>
</mgrwt>
</event>
<event>
 4    1  0.4017302E+000  0.2053067E+03  0.7546771E-02  0.1145337E+00
         21   -1    0    0  503  502  0.00000000000E+00  0.00000000000E+00  0.95730214251E+03  0.95730214251E+03  0.00000000000E+00 0. -1.
         21   -1    0    0  501  503 -0.00000000000E+00 -0.00000000000E+00 -0.65438950476E+02  0.65438950476E+02  0.00000000000E+00 0.  1.
          6    1    1    2  501    0  0.10677759067E+03 -0.28642511068E+02  0.15344470917E+03  0.25631255545E+03  0.17300000000E+03 0.  1.
         -6    1    1    2    0  502 -0.10677759067E+03  0.28642511068E+02  0.73841848287E+03  0.76642853754E+03  0.17300000000E+03 0. -1.
<mgrwt>
<rscale>  2 0.20530672E+03</rscale>
<asrwt>0</asrwt>
<pdfrwt beam="1">  1       21 0.14727724E+00 0.20530672E+03</pdfrwt>
<pdfrwt beam="2">  1       21 0.10067531E-01 0.20530672E+03</pdfrwt>
<totfact> 0.24945020E+04</totfact>
</mgrwt>
</event>
<event>
 4    1  0.4017302E+000  0.2298224E+03  0.7546771E-02  0.1126765E+00
         21   -1    0    0  501  502  0.00000000000E+00  0.00000000000E+00  0.10634756856E+03  0.10634756856E+03  0.00000000000E+00 0. -1.
         21   -1    0    0  502  503 -0.00000000000E+00 -0.00000000000E+00 -0.82497590448E+03  0.82497590448E+03  0.00000000000E+00 0. -1.
          6    1    1    2  501    0 -0.30335410126E+02  0.14821979091E+03 -0.65550979057E+02  0.23898802141E+03  0.17300000000E+03 0. -1.
         -6    1    1    2    0  503  0.30335410126E+02 -0.14821979091E+03 -0.65307735686E+03  0.69233545162E+03  0.17300000000E+03 0. -1.
<mgrwt>
<rscale>  2 0.22982242E+03</rscale>
<asrwt>0</asrwt>
<pdfrwt beam="1">  1       21 0.16361165E-01 0.22982242E+03</pdfrwt>
<pdfrwt beam="2">  1       21 0.12691937E+00 0.22982242E+03</pdfrwt>
<totfact> 0.15003922E+04</totfact>
</mgrwt>
</event>
<event>
 4    1  0.4017302E+000  0.1932895E+03  0.7546771E-02  0.1155527E+00
         21   -1    0    0  501  502  0.00000000000E+00  0.00000000000E+00  0.65723567584E+02  0.65723567584E+02  0.00000000000E+00 0.  1.
         21   -1    0    0  502  503 -0.00000000000E+00 -0.00000000000E+00 -0.14059703945E+04  0.14059703945E+04  0.00000000000E+00 0. -1.
          6    1    1    2  501    0  0.85322627458E+02 -0.12323224388E+02 -0.10219168558E+03  0.21864115170E+03  0.17300000000E+03 0.  1.
         -6    1    1    2    0  503 -0.85322627458E+02  0.12323224388E+02 -0.12380551413E+04  0.12530528103E+04  0.17300000000E+03 0. -1.
<mgrwt>
<rscale>  2 0.19328945E+03</rscale>
<asrwt>0</asrwt>
<pdfrwt beam="1">  1       21 0.10111318E-01 0.19328945E+03</pdfrwt>
<pdfrwt beam="2">  1       21 0.21630313E+00 0.19328945E+03</pdfrwt>
<totfact> 0.84312002E+03</totfact>
</mgrwt>
</event>
<event>
 4    1  0.4017302E+000  0.2615163E+03  0.7546771E-02  0.1106236E+00
         21   -1    0    0  501  502  0.00000000000E+00  0.00000000000E+00  0.19505907044E+03  0.19505907044E+03  0.00000000000E+00 0.  1.
         21   -1    0    0  502  503 -0.00000000000E+00 -0.00000000000E+00 -0.37992452791E+03  0.37992452791E+03  0.00000000000E+00 0.  1.
          6    1    1    2  501    0  0.19127549674E+03 -0.43306299245E+02 -0.17228307976E+03  0.31316483005E+03  0.17300000000E+03 0. -1.
         -6    1    1    2    0  503 -0.19127549674E+03  0.43306299245E+02 -0.12582377710E+02  0.26181876830E+03  0.17300000000E+03 0. -1.
<mgrwt>
<rscale>  2 0.26151625E+03</rscale>
<asrwt>0</asrwt>
<pdfrwt beam="1">  1       21 0.30009088E-01 0.26151625E+03</pdfrwt>
<pdfrwt beam="2">  1       21 0.58449927E-01 0.26151625E+03</pdfrwt>
<totfact> 0.28207143E+04</totfact>
</mgrwt>
</event>
<event>
 4    1  0.4017302E+000  0.2853547E+03  0.7546771E-02  0.1092800E+00
         21   -1    0    0  503  502  0.00000000000E+00  0.00000000000E+00  0.40929226928E+03  0.40929226928E+03  0.00000000000E+00 0. -1.
         21   -1    0    0  501  503 -0.00000000000E+00 -0.00000000000E+00 -0.29016377313E+03  0.29016377313E+03  0.00000000000E+00 0.  1.
          6    1    1    2  501    0 -0.69949081160E+02  0.21588297224E+03 -0.13652193253E+03  0.31633142386E+03  0.17300000000E+03 0.  1.
         -6    1    1    2    0  502  0.69949081160E+02 -0.21588297224E+03  0.25565042868E+03  0.38312461855E+03  0.17300000000E+03 0. -1.
<mgrwt>
<rscale>  2 0.28535475E+03</rscale>
<asrwt>0</asrwt>
<pdfrwt beam="1">  1       21 0.62968041E-01 0.28535475E+03</pdfrwt>
<pdfrwt beam="2">  1       21 0.44640580E-01 0.28535475E+03</pdfrwt>
<totfact> 0.10667026E+04</totfact>
</mgrwt>
</event>
<event>
 4    1  0.4017302E+000  0.1793178E+03  0.7546771E-02  0.1168465E+00
         21   -1    0    0  503  502  0.00000000000E+00  0.00000000000E+00  0.19276046408E+03  0.19276046408E+03  0.00000000000E+00 0. -1.
         21   -1    0    0  501  503 -0.00000000000E+00 -0.00000000000E+00 -0.17533445843E+03  0.17533445843E+03  0.00000000000E+00 0.  1.
          6    1    1    2  501    0 -0.42023872847E+02 -0.21444597149E+02 -0.31862417505E+02  0.18212657765E+03  0.17300000000E+03 0.  1.
         -6    1    1    2    0  502  0.42023872847E+02  0.21444597149E+02  0.49288423156E+02  0.18596834487E+03  0.17300000000E+03 0. -1.
<mgrwt>
<rscale>  2 0.17931781E+03</rscale>
<asrwt>0</asrwt>
<pdfrwt beam="1">  1       21 0.29655456E-01 0.17931781E+03</pdfrwt>
<pdfrwt beam="2">  1       21 0.26974532E-01 0.17931781E+03</pdfrwt>
<totfact> 0.14331998E+05</totfact>
</mgrwt>
</event>
<event>
 4    1  0.4017302E+000  0.2112692E+03  0.7546771E-02  0.1140565E+00
         21   -1    0    0  501  502  0.00000000000E+00  0.00000000000E+00  0.22405053357E+03  0.22405053357E+03  0.00000000000E+00 0.  1.
         21   -1    0    0  502  503 -0.00000000000E+00 -0.00000000000E+00 -0.21682482893E+03  0.21682482893E+03  0.00000000000E+00 0.  1.
          6    1    1    2  501    0 -0.11494217533E+03  0.38652018521E+02  0.66430814620E+02  0.22146723310E+03  0.17300000000E+03 0.  1.
         -6    1    1    2    0  503  0.11494217533E+03 -0.38652018521E+02 -0.59205109980E+02  0.21940812941E+03  0.17300000000E+03 0.  1.
<mgrwt>
<rscale>  2 0.21126922E+03</rscale>
<asrwt>0</asrwt>
<pdfrwt beam="1">  1       21 0.34469313E-01 0.21126922E+03</pdfrwt>
<pdfrwt beam="2">  1       21 0.33357666E-01 0.21126922E+03</pdfrwt>
<totfact> 0.69627070E+04</totfact>
</mgrwt>
</event>
<event>
 4    1  0.4017302E+000  0.1760895E+03  0.7546771E-02  0.1171642E+00
         21   -1    0    0  501  502  0.00000000000E+00  0.00000000000E+00  0.88551968919E+02  0.88551968919E+02  0.00000000000E+00 0. -1.
         21   -1    0    0  502  503 -0.00000000000E+00 -0.00000000000E+00 -0.14555285643E+04  0.14555285643E+04  0.00000000000E+00 0. -1.
          6    1    1    2  501    0 -0.29275108823E+02 -0.14882292671E+02 -0.10693241300E+02  0.17641388846E+03  0.17300000000E+03 0. -1.
         -6    1    1    2    0  503  0.29275108823E+02  0.14882292671E+02 -0.13562833541E+04  0.13676666447E+04  0.17300000000E+03 0. -1.
<mgrwt>
<rscale>  2 0.17608951E+03</rscale>
<asrwt>0</asrwt>
<pdfrwt beam="1">  1       21 0.13623381E-01 0.17608951E+03</pdfrwt>
<pdfrwt beam="2">  1       21 0.22392746E+00 0.17608951E+03</pdfrwt>
<totfact> 0.45226132E+03</totfact>
</mgrwt>
</event>
<event>
 4    1  0.4017302E+000  0.2217785E+03  0.7546771E-02  0.1132564E+00
         21   -1    0    0  503  502  0.00000000000E+00  0.00000000000E+00  0.75601020561E+03  0.75601020561E+03  0.00000000000E+00 0. -1.
         21   -1    0    0  501  503 -0.00000000000E+00 -0.00000000000E+00 -0.12510728031E+03  0.12510728031E+03  0.00000000000E+00 0.  1.
          6    1    1    2  501    0 -0.11714473913E+03 -0.74389610405E+02  0.10233046716E+02  0.22201445738E+03  0.17300000000E+03 0.  1.
         -6    1    1    2    0  502  0.11714473913E+03  0.74389610405E+02  0.62066987858E+03  0.65910302853E+03  0.17300000000E+03 0. -1.
<mgrwt>
<rscale>  2 0.22177850E+03</rscale>
<asrwt>0</asrwt>
<pdfrwt beam="1">  1       21 0.11630926E+00 0.22177850E+03</pdfrwt>
<pdfrwt beam="2">  1       21 0.19247274E-01 0.22177850E+03</pdfrwt>
<totfact> 0.13872992E+04</totfact>
</mgrwt>
</event>
<event>
 4    1  0.4017302E+000  0.2487760E+03  0.7546771E-02  0.1114081E+00
         21   -1    0    0  503  502  0.00000000000E+00  0.00000000000E+00  0.93577408178E+02  0.93577408178E+02  0.00000000000E+00 0.  1.
         21   -1    0    0  501  503 -0.00000000000E+00 -0.00000000000E+00 -0.66338305878E+03  0.66338305878E+03  0.00000000000E+00 0. -1.
          6    1    1    2  501    0 -0.97824996643E+02  0.14963540866E+03 -0.30574122155E+03  0.39416643699E+03  0.17300000000E+03 0. -1.
         -6    1    1    2    0  502  0.97824996643E+02 -0.14963540866E+03 -0.26406442905E+03  0.36279402997E+03  0.17300000000E+03 0.  1.
<mgrwt>
<rscale>  2 0.24877597E+03</rscale>
<asrwt>0</asrwt>
<pdfrwt beam="1">  1       21 0.14396525E-01 0.24877597E+03</pdfrwt>
<pdfrwt beam="2">  1       21 0.10205893E+00 0.24877597E+03</pdfrwt>
<totfact> 0.32111274E+04</totfact>
</mgrwt>
</event>
<event>
 4    1  0.4017302E+000  0.2431595E+03  0.7546771E-02  0.1117706E+00
         21   -1    0    0  501  502  0.00000000000E+00  0.00000000000E+00  0.30312741062E+04  0.30312741062E+04  0.00000000000E+00 0.  1.
         21   -1    0    0  502  503 -0.00000000000E+00 -0.00000000000E+00 -0.19958658354E+02  0.19958658354E+02  0.00000000000E+00 0. -1.
          6    1    1    2  501    0  0.40759074817E+02 -0.16594042611E+03  0.12757767294E+04  0.12987427730E+04  0.17300000000E+03 0. -1.
         -6    1    1    2    0  503 -0.40759074817E+02  0.16594042611E+03  0.17355387184E+04  0.17524899915E+04  0.17300000000E+03 0.  1.
<mgrwt>
<rscale>  2 0.24315947E+03</rscale>
<asrwt>0</asrwt>
<pdfrwt beam="1">  1       21 0.46634950E+00 0.24315947E+03</pdfrwt>
<pdfrwt beam="2">  1       21 0.30705652E-02 0.24315947E+03</pdfrwt>
<totfact> 0.18380723E+03</totfact>
</mgrwt>
</event>
<event>
 4    1  0.4017302E+000  0.1890538E+03  0.7546771E-02  0.1159317E+00
         21   -1    0    0  503  502  0.00000000000E+00  0.00000000000E+00  0.11464659116E+04  0.11464659116E+04  0.00000000000E+00 0. -1.
         21   -1    0    0  501  503 -0.00000000000E+00 -0.00000000000E+00 -0.50592021641E+02  0.50592021641E+02  0.00000000000E+00 0. -1.
          6    1    1    2  501    0  0.31729569762E+02 -0.69322328479E+02  0.17714288243E+03  0.25907711520E+03  0.17300000000E+03 0. -1.
         -6    1    1    2    0  502 -0.31729569762E+02  0.69322328479E+02  0.91873100758E+03  0.93798081809E+03  0.17300000000E+03 0. -1.
<mgrwt>
<rscale>  2 0.18905383E+03</rscale>
<asrwt>0</asrwt>
<pdfrwt beam="1">  1       21 0.17637935E+00 0.18905383E+03</pdfrwt>
<pdfrwt beam="2">  1       21 0.77833888E-02 0.18905383E+03</pdfrwt>
<totfact> 0.24309531E+04</totfact>
</mgrwt>
</event>
<event>
 4    1  0.4017302E+000  0.2429595E+03  0.7546771E-02  0.1117837E+00
         21   -1    0    0  501  502  0.00000000000E+00  0.00000000000E+00  0.12843960926E+03  0.12843960926E+03  0.00000000000E+00 0.  1.
         21   -1    0    0  502  503 -0.00000000000E+00 -0.00000000000E+00 -0.56845571094E+03  0.56845571094E+03  0.00000000000E+00 0.  1.
          6    1    1    2  501    0 -0.13039036326E+03  0.10999401356E+03 -0.67519103469E+02  0.25216692722E+03  0.17300000000E+03 0.  1.
         -6    1    1    2    0  503  0.13039036326E+03 -0.10999401356E+03 -0.37249699821E+03  0.44472839298E+03  0.17300000000E+03 0.  1.
<mgrwt>
<rscale>  2 0.24295952E+03</rscale>
<asrwt>0</asrwt>
<pdfrwt beam="1">  1       21 0.19759940E-01 0.24295952E+03</pdfrwt>
<pdfrwt beam="2">  1       21 0.87454725E-01 0.24295952E+03</pdfrwt>
<totfact> 0.25794439E+04</totfact>
</mgrwt>
</event>
<event>
 4    1  0.4017302E+000  0.2530751E+03  0.7546771E-02  0.1111377E+00
         21   -1    0    0  501  502  0.00000000000E+00  0.00000000000E+00  0.13825892561E+03  0.13825892561E+03  0.00000000000E+00 0.  1.
         21   -1    0    0  502  503 -0.00000000000E+00 -0.00000000000E+00 -0.53788282157E+03  0.53788282157E+03  0.00000000000E+00 0. -1.
          6    1    1    2  501    0 -0.18007206012E+03  0.41134608788E+02 -0.73873237147E+02  0.26363660224E+03  0.17300000000E+03 0.  1.
         -6    1    1    2    0  503  0.18007206012E+03 -0.41134608788E+02 -0.32575065881E+03  0.41250514493E+03  0.17300000000E+03 0. -1.
<mgrwt>
<rscale>  2 0.25307509E+03</rscale>
<asrwt>0</asrwt>
<pdfrwt beam="1">  1       21 0.21270604E-01 0.25307509E+03</pdfrwt>
<pdfrwt beam="2">  1       21 0.82751203E-01 0.25307509E+03</pdfrwt>
<totfact> 0.25382075E+04</totfact>
</mgrwt>
</event>
<event>
 4    1  0.4017302E+000  0.2237057E+03  0.7546771E-02  0.1131150E+00
         21   -1    0    0  503  502  0.00000000000E+00  0.00000000000E+00  0.12884721268E+03  0.12884721268E+03  0.00000000000E+00 0. -1.
         21   -1    0    0  501  503 -0.00000000000E+00 -0.00000000000E+00 -0.39015392258E+03  0.39015392258E+03  0.00000000000E+00 0.  1.
          6    1    1    2  501    0 -0.13804223258E+03 -0.32551426654E+02 -0.11325414901E+03  0.25074041481E+03  0.17300000000E+03 0. -1.
         -6    1    1    2    0  502  0.13804223258E+03  0.32551426654E+02 -0.14805256089E+03  0.26826072045E+03  0.17300000000E+03 0.  1.
<mgrwt>
<rscale>  2 0.22370573E+03</rscale>
<asrwt>0</asrwt>
<pdfrwt beam="1">  1       21 0.19822648E-01 0.22370573E+03</pdfrwt>
<pdfrwt beam="2">  1       21 0.60023681E-01 0.22370573E+03</pdfrwt>
<totfact> 0.59916228E+04</totfact>
</mgrwt>
</event>
<event>
 4    1  0.4017302E+000  0.2157758E+03  0.7546771E-02  0.1137072E+00
         21   -1    0    0  503  502  0.00000000000E+00  0.00000000000E+00  0.81308949933E+02  0.81308949933E+02  0.00000000000E+00 0.  1.
         21   -1    0    0  501  503 -0.00000000000E+00 -0.00000000000E+00 -0.86299344859E+03  0.86299344859E+03  0.00000000000E+00 0.  1.
          6    1    1    2  501    0 -0.70576264350E+02 -0.10793132160E+03 -0.66471911825E+03  0.69886385329E+03  0.17300000000E+03 0.  1.
         -6    1    1    2    0  502  0.70576264350E+02  0.10793132160E+03 -0.11696538041E+03  0.24543854523E+03  0.17300000000E+03 0.  1.
<mgrwt>
<rscale>  2 0.21577576E+03</rscale>
<asrwt>0</asrwt>
<pdfrwt beam="1">  1       21 0.12509070E-01 0.21577576E+03</pdfrwt>
<pdfrwt beam="2">  1       21 0.13276822E+00 0.21577576E+03</pdfrwt>
<totfact> 0.22002996E+04</totfact>
</mgrwt>
</event>
<event>
 4    1  0.4017302E+000  0.1922651E+03  0.7546771E-02  0.1156434E+00
         21   -1    0    0  503  502  0.00000000000E+00  0.00000000000E+00  0.44288805062E+03  0.44288805062E+03  0.00000000000E+00 0. -1.
         21   -1    0    0  501  503 -0.00000000000E+00 -0.00000000000E+00 -0.10234243068E+03  0.10234243068E+03  0.00000000000E+00 0.  1.
          6    1    1    2  501    0 -0.14376751837E+02 -0.82644970585E+02  0.53191463092E+02  0.19948737780E+03  0.17300000000E+03 0. -1.
         -6    1    1    2    0  502  0.14376751837E+02  0.82644970585E+02  0.28735415685E+03  0.34574310349E+03  0.17300000000E+03 0. -1.
<mgrwt>
<rscale>  2 0.19226514E+03</rscale>
<asrwt>0</asrwt>
<pdfrwt beam="1">  1       21 0.68136622E-01 0.19226514E+03</pdfrwt>
<pdfrwt beam="2">  1       21 0.15744990E-01 0.19226514E+03</pdfrwt>
<totfact> 0.70618261E+04</totfact>
</mgrwt>
</event>
<event>
 4    1  0.4017302E+000  0.1748391E+03  0.7546771E-02  0.1172893E+00
         21   -1    0    0  501  502  0.00000000000E+00  0.00000000000E+00  0.18050491803E+04  0.18050491803E+04  0.00000000000E+00 0. -1.
         21   -1    0    0  502  503 -0.00000000000E+00 -0.00000000000E+00 -0.18657092848E+02  0.18657092848E+02  0.00000000000E+00 0. -1.
          6    1    1    2  501    0 -0.80513322012E+00 -0.25279356071E+02  0.11702205457E+04  0.11832095417E+04  0.17300000000E+03 0. -1.
         -6    1    1    2    0  503  0.80513322012E+00  0.25279356071E+02  0.61617154179E+03  0.64049673145E+03  0.17300000000E+03 0. -1.
<mgrwt>
<rscale>  2 0.17483905E+03</rscale>
<asrwt>0</asrwt>
<pdfrwt beam="1">  1       21 0.27769974E+00 0.17483905E+03</pdfrwt>
<pdfrwt beam="2">  1       21 0.28703234E-02 0.17483905E+03</pdfrwt>
<totfact> 0.31750266E+04</totfact>
</mgrwt>
</event>
<event>
 4    1  0.4017302E+000  0.1898033E+03  0.7546771E-02  0.1158639E+00
         21   -1    0    0  501  502  0.00000000000E+00  0.00000000000E+00  0.23012924528E+03  0.23012924528E+03  0.00000000000E+00 0.  1.
         21   -1    0    0  502  503 -0.00000000000E+00 -0.00000000000E+00 -0.37074981515E+03  0.37074981515E+03  0.00000000000E+00 0.  1.
          6    1    1    2  501    0  0.72746455623E+02 -0.28359404967E+02  0.15805624400E+03  0.24699611115E+03  0.17300000000E+03 0.  1.
         -6    1    1    2    0  503 -0.72746455623E+02  0.28359404967E+02 -0.29867681386E+03  0.35388294929E+03  0.17300000000E+03 0.  1.
<mgrwt>
<rscale>  2 0.18980333E+03</rscale>
<asrwt>0</asrwt>
<pdfrwt beam="1">  1       21 0.35404500E-01 0.18980333E+03</pdfrwt>
<pdfrwt beam="2">  1       21 0.57038433E-01 0.18980333E+03</pdfrwt>
<totfact> 0.22246437E+04</totfact>
</mgrwt>
</event>
<event>
 4    1  0.4017302E+000  0.2040968E+03  0.7546771E-02  0.1146328E+00
         21   -1    0    0  503  502  0.00000000000E+00  0.00000000000E+00  0.21725838011E+04  0.21725838011E+04  0.00000000000E+00 0.  1.
         21   -1    0    0  501  503 -0.00000000000E+00 -0.00000000000E+00 -0.25388456120E+02  0.25388456120E+02  0.00000000000E+00 0.  1.
          6    1    1    2  501    0 -0.10234242435E+03 -0.35391371139E+02  0.52984503976E+03  0.56779511017E+03  0.17300000000E+03 0.  1.
         -6    1    1    2    0  502  0.10234242435E+03  0.35391371139E+02  0.16173503052E+04  0.16301771470E+04  0.17300000000E+03 0.  1.
<mgrwt>
<rscale>  2 0.20409684E+03</rscale>
<asrwt>0</asrwt>
<pdfrwt beam="1">  1       21 0.33424352E+00 0.20409684E+03</pdfrwt>
<pdfrwt beam="2">  1       21 0.39059180E-02 0.20409684E+03</pdfrwt>
<totfact> 0.87074536E+03</totfact>
</mgrwt>
</event>
<event>
 4    1  0.4017302E+000  0.2120681E+03  0.7546771E-02  0.1139939E+00
         21   -1    0    0  501  502  0.00000000000E+00  0.00000000000E+00  0.14820564772E+03  0.14820564772E+03  0.00000000000E+00 0. -1.
         21   -1    0    0  502  503 -0.00000000000E+00 -0.00000000000E+00 -0.83887508421E+03  0.83887508421E+03  0.00000000000E+00 0.  1.
          6    1    1    2  501    0 -0.73813972174E+02 -0.97955893251E+02  0.48962563190E+02  0.21764694371E+03  0.17300000000E+03 0. -1.
         -6    1    1    2    0  503  0.73813972174E+02  0.97955893251E+02 -0.73963199968E+03  0.76943378822E+03  0.17300000000E+03 0.  1.
<mgrwt>
<rscale>  2 0.21206805E+03</rscale>
<asrwt>0</asrwt>
<pdfrwt beam="1">  1       21 0.22800869E-01 0.21206805E+03</pdfrwt>
<pdfrwt beam="2">  1       21 0.12905771E+00 0.21206805E+03</pdfrwt>
<totfact> 0.78291067E+03</totfact>
</mgrwt>
</event>
<event>
 4    1  0.4017302E+000  0.1938512E+03  0.7546771E-02  0.1155033E+00
         21   -1    0    0  501  502  0.00000000000E+00  0.00000000000E+00  0.45885358017E+02  0.45885358017E+02  0.00000000000E+00 0.  1.
         21   -1    0    0  502  503 -0.00000000000E+00 -0.00000000000E+00 -0.88045089056E+03  0.88045089056E+03  0.00000000000E+00 0. -1.
          6    1    1    2  501    0  0.86320864649E+02 -0.14071409759E+02 -0.29488043718E+03  0.35289200682E+03  0.17300000000E+03 0.  1.
         -6    1    1    2    0  503 -0.86320864649E+02  0.14071409759E+02 -0.53968509536E+03  0.57344424175E+03  0.17300000000E+03 0.  1.
<mgrwt>
<rscale>  2 0.19385122E+03</rscale>
<asrwt>0</asrwt>
<pdfrwt beam="1">  1       21 0.70592861E-02 0.19385122E+03</pdfrwt>
<pdfrwt beam="2">  1       21 0.13545398E+00 0.19385122E+03</pdfrwt>
<totfact> 0.58030681E+04</totfact>
</mgrwt>
</event>
<event>
 4    1  0.4017302E+000  0.1764687E+03  0.7546771E-02  0.1171265E+00
         21   -1    0    0  501  502  0.00000000000E+00  0.00000000000E+00  0.60016943599E+02  0.60016943599E+02  0.00000000000E+00 0.  1.
         21   -1    0    0  502  503 -0.00000000000E+00 -0.00000000000E+00 -0.87444201515E+03  0.87444201515E+03  0.00000000000E+00 0.  1.
          6    1    1    2  501    0  0.33656941918E+02 -0.89104336919E+01 -0.10927409529E+03  0.20756207137E+03  0.17300000000E+03 0.  1.
         -6    1    1    2    0  503 -0.33656941918E+02  0.89104336919E+01 -0.70515097626E+03  0.72689688738E+03  0.17300000000E+03 0.  1.
<mgrwt>
<rscale>  2 0.17646865E+03</rscale>
<asrwt>0</asrwt>
<pdfrwt beam="1">  1       21 0.92333768E-02 0.17646865E+03</pdfrwt>
<pdfrwt beam="2">  1       21 0.13452953E+00 0.17646865E+03</pdfrwt>
<totfact> 0.37362529E+04</totfact>
</mgrwt>
</event>
<event>
 4    1  0.4017302E+000  0.1749181E+03  0.7546771E-02  0.1172814E+00
         21   -1    0    0  503  502  0.00000000000E+00  0.00000000000E+00  0.17094459022E+02  0.17094459022E+02  0.00000000000E+00 0.  1.
         21   -1    0    0  501  503 -0.00000000000E+00 -0.00000000000E+00 -0.20155535846E+04  0.20155535846E+04  0.00000000000E+00 0.  1.
          6    1    1    2  501    0  0.24882971112E+02 -0.69416508663E+01 -0.13393351290E+04  0.13507090496E+04  0.17300000000E+03 0. -1.
         -6    1    1    2    0  502 -0.24882971112E+02  0.69416508663E+01 -0.65912399658E+03  0.68193899408E+03  0.17300000000E+03 0. -1.
<mgrwt>
<rscale>  2 0.17491812E+03</rscale>
<asrwt>0</asrwt>
<pdfrwt beam="1">  1       21 0.26299179E-02 0.17491812E+03</pdfrwt>
<pdfrwt beam="2">  1       21 0.31008503E+00 0.17491812E+03</pdfrwt>
<totfact> 0.23919509E+04</totfact>
</mgrwt>
</event>
<event>
 4    1  0.4017302E+000  0.2027902E+03  0.7546771E-02  0.1147406E+00
         21   -1    0    0  501  502  0.00000000000E+00  0.00000000000E+00  0.25227419385E+03  0.25227419385E+03  0.00000000000E+00 0.  1.
         21   -1    0    0  502  503 -0.00000000000E+00 -0.00000000000E+00 -0.21991219771E+03  0.21991219771E+03  0.00000000000E+00 0. -1.
          6    1    1    2  501    0  0.93713612493E+02  0.49118667158E+02  0.13627276155E+03  0.24432386328E+03  0.17300000000E+03 0.  1.
         -6    1    1    2    0  503 -0.93713612493E+02 -0.49118667158E+02 -0.10391076541E+03  0.22786252829E+03  0.17300000000E+03 0. -1.
<mgrwt>
<rscale>  2 0.20279025E+03</rscale>
<asrwt>0</asrwt>
<pdfrwt beam="1">  1       21 0.38811415E-01 0.20279025E+03</pdfrwt>
<pdfrwt beam="2">  1       21 0.33832646E-01 0.20279025E+03</pdfrwt>
<totfact> 0.53613165E+04</totfact>
</mgrwt>
</event>
<event>
 4    1  0.4017302E+000  0.2012679E+03  0.7546771E-02  0.1148674E+00
         21   -1    0    0  503  502  0.00000000000E+00  0.00000000000E+00  0.10586929155E+03  0.10586929155E+03  0.00000000000E+00 0.  1.
         21   -1    0    0  501  503 -0.00000000000E+00 -0.00000000000E+00 -0.38321125443E+03  0.38321125443E+03  0.00000000000E+00 0.  1.
          6    1    1    2  501    0  0.90779212191E+02  0.48362325411E+02 -0.12914808593E+03  0.23914014298E+03  0.17300000000E+03 0.  1.
         -6    1    1    2    0  502 -0.90779212191E+02 -0.48362325411E+02 -0.14819387695E+03  0.24994040300E+03  0.17300000000E+03 0.  1.
<mgrwt>
<rscale>  2 0.20126793E+03</rscale>
<asrwt>0</asrwt>
<pdfrwt beam="1">  1       21 0.16287583E-01 0.20126793E+03</pdfrwt>
<pdfrwt beam="2">  1       21 0.58955577E-01 0.20126793E+03</pdfrwt>
<totfact> 0.90476741E+04</totfact>
</mgrwt>
</event>
<event>
 4    1  0.4017302E+000  0.1764541E+03  0.7546771E-02  0.1171280E+00
         21   -1    0    0  501  502  0.00000000000E+00  0.00000000000E+00  0.13701971118E+03  0.13701971118E+03  0.00000000000E+00 0. -1.
         21   -1    0    0  502  503 -0.00000000000E+00 -0.00000000000E+00 -0.40379704044E+03  0.40379704044E+03  0.00000000000E+00 0. -1.
          6    1    1    2  501    0  0.32965365994E+02  0.10968900711E+02  0.45418134744E+02  0.18220548593E+03  0.17300000000E+03 0. -1.
         -6    1    1    2    0  503 -0.32965365994E+02 -0.10968900711E+02 -0.31219546400E+03  0.35861126569E+03  0.17300000000E+03 0. -1.
<mgrwt>
<rscale>  2 0.17645405E+03</rscale>
<asrwt>0</asrwt>
<pdfrwt beam="1">  1       21 0.21079956E-01 0.17645405E+03</pdfrwt>
<pdfrwt beam="2">  1       21 0.62122620E-01 0.17645405E+03</pdfrwt>
<totfact> 0.50683555E+04</totfact>
</mgrwt>
</event>
<event>
 4    1  0.4017302E+000  0.1839729E+03  0.7546771E-02  0.1164013E+00
         21   -1    0    0  501  502  0.00000000000E+00  0.00000000000E+00  0.59262527764E+02  0.59262527764E+02  0.00000000000E+00 0. -1.
         21   -1    0    0  502  503 -0.00000000000E+00 -0.00000000000E+00 -0.63505492000E+03  0.63505492000E+03  0.00000000000E+00 0. -1.
          6    1    1    2  501    0  0.15411880490E+02 -0.60658790955E+02 -0.17774442190E+03  0.25581066142E+03  0.17300000000E+03 0. -1.
         -6    1    1    2    0  503 -0.15411880490E+02  0.60658790955E+02 -0.39804797033E+03  0.43850678634E+03  0.17300000000E+03 0. -1.
<mgrwt>
<rscale>  2 0.18397286E+03</rscale>
<asrwt>0</asrwt>
<pdfrwt beam="1">  1       21 0.91173115E-02 0.18397286E+03</pdfrwt>
<pdfrwt beam="2">  1       21 0.97700762E-01 0.18397286E+03</pdfrwt>
<totfact> 0.83128905E+04</totfact>
</mgrwt>
</event>
<event>
 4    1  0.4017302E+000  0.2084377E+03  0.7546771E-02  0.1142809E+00
         21   -1    0    0  501  502  0.00000000000E+00  0.00000000000E+00  0.72831112936E+03  0.72831112936E+03  0.00000000000E+00 0. -1.
         21   -1    0    0  502  503 -0.00000000000E+00 -0.00000000000E+00 -0.10271692189E+03  0.10271692189E+03  0.00000000000E+00 0. -1.
          6    1    1    2  501    0  0.11547891028E+03 -0.13487278216E+02  0.58183850372E+03  0.61804719060E+03  0.17300000000E+03 0. -1.
         -6    1    1    2    0  503 -0.11547891028E+03  0.13487278216E+02  0.43755703748E+02  0.21298086065E+03  0.17300000000E+03 0. -1.
<mgrwt>
<rscale>  2 0.20843773E+03</rscale>
<asrwt>0</asrwt>
<pdfrwt beam="1">  1       21 0.11204786E+00 0.20843773E+03</pdfrwt>
<pdfrwt beam="2">  1       21 0.15802604E-01 0.20843773E+03</pdfrwt>
<totfact> 0.22062092E+04</totfact>
</mgrwt>
</event>
<event>
 4    1  0.4017302E+000  0.2068621E+03  0.7546771E-02  0.1144075E+00
         21   -1    0    0  503  502  0.00000000000E+00  0.00000000000E+00  0.45521663952E+03  0.45521663952E+03  0.00000000000E+00 0.  1.
         21   -1    0    0  501  503 -0.00000000000E+00 -0.00000000000E+00 -0.10634904807E+03  0.10634904807E+03  0.00000000000E+00 0. -1.
          6    1    1    2  501    0 -0.10444875068E+03 -0.44197347313E+02  0.78767413237E+02  0.22135097112E+03  0.17300000000E+03 0. -1.
         -6    1    1    2    0  502  0.10444875068E+03  0.44197347313E+02  0.27010017822E+03  0.34021471647E+03  0.17300000000E+03 0.  1.
<mgrwt>
<rscale>  2 0.20686214E+03</rscale>
<asrwt>0</asrwt>
<pdfrwt beam="1">  1       21 0.70033328E-01 0.20686214E+03</pdfrwt>
<pdfrwt beam="2">  1       21 0.16361392E-01 0.20686214E+03</pdfrwt>
<totfact> 0.61541082E+04</totfact>
</mgrwt>
</event>
<event>
 4    1  0.4017302E+000  0.1880827E+03  0.7546771E-02  0.1160202E+00
         21   -1    0    0  503  502  0.00000000000E+00  0.00000000000E+00  0.19500963240E+03  0.19500963240E+03  0.00000000000E+00 0. -1.
         21   -1    0    0  501  503 -0.00000000000E+00 -0.00000000000E+00 -0.24162413098E+03  0.24162413098E+03  0.00000000000E+00 0.  1.
          6    1    1    2  501    0 -0.55429577268E+02 -0.48720226536E+02 -0.13229958119E+03  0.22995277274E+03  0.17300000000E+03 0.  1.
         -6    1    1    2    0  502  0.55429577268E+02  0.48720226536E+02  0.85685082600E+02  0.20668099064E+03  0.17300000000E+03 0. -1.
<mgrwt>
<rscale>  2 0.18808269E+03</rscale>
<asrwt>0</asrwt>
<pdfrwt beam="1">  1       21 0.30001482E-01 0.18808269E+03</pdfrwt>
<pdfrwt beam="2">  1       21 0.37172943E-01 0.18808269E+03</pdfrwt>
<totfact> 0.74509125E+04</totfact>
</mgrwt>
</event>
<event>
 4    1  0.4017302E+000  0.1796469E+03  0.7546771E-02  0.1168145E+00
         21   -1    0    0  503  502  0.00000000000E+00  0.00000000000E+00  0.25891726375E+02  0.25891726375E+02  0.00000000000E+00 0.  1.
         21   -1    0    0  501  503 -0.00000000000E+00 -0.00000000000E+00 -0.15410180747E+04  0.15410180747E+04  0.00000000000E+00 0.  1.
          6    1    1    2  501    0 -0.39331384023E+02 -0.28231788964E+02 -0.41503533553E+03  0.45224696949E+03  0.17300000000E+03 0.  1.
         -6    1    1    2    0  502  0.39331384023E+02  0.28231788964E+02 -0.11000910128E+04  0.11146628315E+04  0.17300000000E+03 0.  1.
<mgrwt>
<rscale>  2 0.17964685E+03</rscale>
<asrwt>0</asrwt>
<pdfrwt beam="1">  1       21 0.39833432E-02 0.17964685E+03</pdfrwt>
<pdfrwt beam="2">  1       21 0.23707966E+00 0.17964685E+03</pdfrwt>
<totfact> 0.31622724E+04</totfact>
</mgrwt>
</event>
<event>
 4    1  0.4017302E+000  0.2005625E+03  0.7546771E-02  0.1149265E+00
         21   -1    0    0  503  502  0.00000000000E+00  0.00000000000E+00  0.22252139209E+03  0.22252139209E+03  0.00000000000E+00 0. -1.
         21   -1    0    0  501  503 -0.00000000000E+00 -0.00000000000E+00 -0.60008804721E+03  0.60008804721E+03  0.00000000000E+00 0. -1.
          6    1    1    2  501    0  0.69867767388E+02  0.73585319795E+02 -0.53260062406E+03  0.56911222879E+03  0.17300000000E+03 0. -1.
         -6    1    1    2    0  502 -0.69867767388E+02 -0.73585319795E+02  0.15503396894E+03  0.25349721051E+03  0.17300000000E+03 0. -1.
<mgrwt>
<rscale>  2 0.20056247E+03</rscale>
<asrwt>0</asrwt>
<pdfrwt beam="1">  1       21 0.34234061E-01 0.20056247E+03</pdfrwt>
<pdfrwt beam="2">  1       21 0.92321237E-01 0.20056247E+03</pdfrwt>
<totfact> 0.80957144E+03</totfact>
</mgrwt>
</event>
<event>
 4    1  0.4017302E+000  0.2563957E+03  0.7546771E-02  0.1109328E+00
         21   -1    0    0  501  502  0.00000000000E+00  0.00000000000E+00  0.59892093365E+02  0.59892093365E+02  0.00000000000E+00 0.  1.
         21   -1    0    0  502  503 -0.00000000000E+00 -0.00000000000E+00 -0.15091261345E+04  0.15091261345E+04  0.00000000000E+00 0. -1.
          6    1    1    2  501    0 -0.18607131234E+03 -0.34455744397E+02 -0.31495695879E+03  0.40612389426E+03  0.17300000000E+03 0.  1.
         -6    1    1    2    0  503  0.18607131234E+03  0.34455744397E+02 -0.11342770823E+04  0.11628943336E+04  0.17300000000E+03 0. -1.
<mgrwt>
<rscale>  2 0.25639565E+03</rscale>
<asrwt>0</asrwt>
<pdfrwt beam="1">  1       21 0.92141684E-02 0.25639565E+03</pdfrwt>
<pdfrwt beam="2">  1       21 0.23217325E+00 0.25639565E+03</pdfrwt>
<totfact> 0.75427936E+03</totfact>
</mgrwt>
</event>
<event>
 4    1  0.4017302E+000  0.1855587E+03  0.7546771E-02  0.1162529E+00
         21   -1    0    0  503  502  0.00000000000E+00  0.00000000000E+00  0.50654144459E+03  0.50654144459E+03  0.00000000000E+00 0. -1.
         21   -1    0    0  501  503 -0.00000000000E+00 -0.00000000000E+00 -0.99989980335E+02  0.99989980335E+02  0.00000000000E+00 0. -1.
          6    1    1    2  501    0 -0.65226192658E+02  0.15766778654E+02  0.31673424142E+02  0.18824253854E+03  0.17300000000E+03 0. -1.
         -6    1    1    2    0  502  0.65226192658E+02 -0.15766778654E+02  0.37487804011E+03  0.41828888639E+03  0.17300000000E+03 0. -1.
<mgrwt>
<rscale>  2 0.18555874E+03</rscale>
<asrwt>0</asrwt>
<pdfrwt beam="1">  1       21 0.77929452E-01 0.18555874E+03</pdfrwt>
<pdfrwt beam="2">  1       21 0.15383074E-01 0.18555874E+03</pdfrwt>
<totfact> 0.54848869E+04</totfact>
</mgrwt>
</event>
<event>
 4    1  0.4017302E+000  0.2213649E+03  0.7546771E-02  0.1132870E+00
         21   -1    0    0  503  502  0.00000000000E+00  0.00000000000E+00  0.58130337369E+03  0.58130337369E+03  0.00000000000E+00 0.  1.
         21   -1    0    0  501  503 -0.00000000000E+00 -0.00000000000E+00 -0.11134085422E+03  0.11134085422E+03  0.00000000000E+00 0.  1.
          6    1    1    2  501    0  0.12810167901E+03  0.51608092641E+02  0.64301103862E+02  0.23051478770E+03  0.17300000000E+03 0.  1.
         -6    1    1    2    0  502 -0.12810167901E+03 -0.51608092641E+02  0.40566141561E+03  0.46212944021E+03  0.17300000000E+03 0.  1.
<mgrwt>
<rscale>  2 0.22136494E+03</rscale>
<asrwt>0</asrwt>
<pdfrwt beam="1">  1       21 0.89431286E-01 0.22136494E+03</pdfrwt>
<pdfrwt beam="2">  1       21 0.17129363E-01 0.22136494E+03</pdfrwt>
<totfact> 0.32294693E+04</totfact>
</mgrwt>
</event>
<event>
 4    1  0.4017302E+000  0.1909278E+03  0.7546771E-02  0.1157627E+00
         21   -1    0    0  503  502  0.00000000000E+00  0.00000000000E+00  0.68207800532E+02  0.68207800532E+02  0.00000000000E+00 0.  1.
         21   -1    0    0  501  503 -0.00000000000E+00 -0.00000000000E+00 -0.56799118016E+03  0.56799118016E+03  0.00000000000E+00 0.  1.
          6    1    1    2  501    0  0.95626050565E+01  0.80205750942E+02 -0.17258708426E+03  0.25737075893E+03  0.17300000000E+03 0. -1.
         -6    1    1    2    0  502 -0.95626050565E+01 -0.80205750942E+02 -0.32719629536E+03  0.37882822176E+03  0.17300000000E+03 0. -1.
<mgrwt>
<rscale>  2 0.19092775E+03</rscale>
<asrwt>0</asrwt>
<pdfrwt beam="1">  1       21 0.10493508E-01 0.19092775E+03</pdfrwt>
<pdfrwt beam="2">  1       21 0.87383256E-01 0.19092775E+03</pdfrwt>
<totfact> 0.83863314E+04</totfact>
</mgrwt>
</event>
<event>
 4    1  0.4017302E+000  0.2120951E+03  0.7546771E-02  0.1139918E+00
         21   -1    0    0  501  502  0.00000000000E+00  0.00000000000E+00  0.90860994533E+02  0.90860994533E+02  0.00000000000E+00 0.  1.
         21   -1    0    0  502  503 -0.00000000000E+00 -0.00000000000E+00 -0.95535235645E+03  0.95535235645E+03  0.00000000000E+00 0.  1.
          6    1    1    2  501    0 -0.14465688254E+02  0.12184451211E+03 -0.69158138099E+02  0.22308560988E+03  0.17300000000E+03 0.  1.
         -6    1    1    2    0  503  0.14465688254E+02 -0.12184451211E+03 -0.79533322382E+03  0.82312774111E+03  0.17300000000E+03 0.  1.
<mgrwt>
<rscale>  2 0.21209512E+03</rscale>
<asrwt>0</asrwt>
<pdfrwt beam="1">  1       21 0.13978616E-01 0.21209512E+03</pdfrwt>
<pdfrwt beam="2">  1       21 0.14697727E+00 0.21209512E+03</pdfrwt>
<totfact> 0.13868431E+04</totfact>
</mgrwt>
</event>
<event>
 4    1  0.4017302E+000  0.2163090E+03  0.7546771E-02  0.1136665E+00
         21   -1    0    0  503  502  0.00000000000E+00  0.00000000000E+00  0.32932341575E+03  0.32932341575E+03  0.00000000000E+00 0. -1.
         21   -1    0    0  501  503 -0.00000000000E+00 -0.00000000000E+00 -0.68496166889E+03  0.68496166889E+03  0.00000000000E+00 0. -1.
          6    1    1    2  501    0  0.10879073961E+03  0.70888496478E+02 -0.62931138485E+03  0.66544903866E+03  0.17300000000E+03 0. -1.
         -6    1    1    2    0  502 -0.10879073961E+03 -0.70888496478E+02  0.27367313171E+03  0.34883604598E+03  0.17300000000E+03 0. -1.
<mgrwt>
<rscale>  2 0.21630905E+03</rscale>
<asrwt>0</asrwt>
<pdfrwt beam="1">  1       21 0.50665141E-01 0.21630905E+03</pdfrwt>
<pdfrwt beam="2">  1       21 0.10537872E+00 0.21630905E+03</pdfrwt>
<totfact> 0.26313788E+03</totfact>
</mgrwt>
</event>
<event>
 4    1  0.4017302E+000  0.2258375E+03  0.7546771E-02  0.1129604E+00
         21   -1    0    0  503  502  0.00000000000E+00  0.00000000000E+00  0.14385358835E+03  0.14385358835E+03  0.00000000000E+00 0.  1.
         21   -1    0    0  501  503 -0.00000000000E+00 -0.00000000000E+00 -0.39504664997E+03  0.39504664997E+03  0.00000000000E+00 0.  1.
          6    1    1    2  501    0 -0.82109745463E+02 -0.11971461259E+03 -0.39320632052E+02  0.22923505594E+03  0.17300000000E+03 0.  1.
         -6    1    1    2    0  502  0.82109745463E+02  0.11971461259E+03 -0.21187242957E+03  0.30966518238E+03  0.17300000000E+03 0.  1.
<mgrwt>
<rscale>  2 0.22583755E+03</rscale>
<asrwt>0</asrwt>
<pdfrwt beam="1">  1       21 0.22131321E-01 0.22583755E+03</pdfrwt>
<pdfrwt beam="2">  1       21 0.60776407E-01 0.22583755E+03</pdfrwt>
<totfact> 0.47355311E+04</totfact>
</mgrwt>
</event>
<event>
 4    1  0.4017302E+000  0.1970031E+03  0.7546771E-02  0.1152292E+00
         21   -1    0    0  501  502  0.00000000000E+00  0.00000000000E+00  0.62487218810E+02  0.62487218810E+02  0.00000000000E+00 0. -1.
         21   -1    0    0  502  503 -0.00000000000E+00 -0.00000000000E+00 -0.82750828600E+03  0.82750828600E+03  0.00000000000E+00 0. -1.
          6    1    1    2  501    0  0.74984777622E+02  0.57083157945E+02 -0.16025865612E+03  0.25395480042E+03  0.17300000000E+03 0. -1.
         -6    1    1    2    0  503 -0.74984777622E+02 -0.57083157945E+02 -0.60476241107E+03  0.63604070439E+03  0.17300000000E+03 0. -1.
<mgrwt>
<rscale>  2 0.19700306E+03</rscale>
<asrwt>0</asrwt>
<pdfrwt beam="1">  1       21 0.96134184E-02 0.19700306E+03</pdfrwt>
<pdfrwt beam="2">  1       21 0.12730896E+00 0.19700306E+03</pdfrwt>
<totfact> 0.39537775E+04</totfact>
</mgrwt>
</event>
<event>
 4    1  0.4017302E+000  0.1855409E+03  0.7546771E-02  0.1162546E+00
         21   -1    0    0  503  502  0.00000000000E+00  0.00000000000E+00  0.53932550063E+02  0.53932550063E+02  0.00000000000E+00 0.  1.
         21   -1    0    0  501  503 -0.00000000000E+00 -0.00000000000E+00 -0.67984352717E+03  0.67984352717E+03  0.00000000000E+00 0.  1.
          6    1    1    2  501    0  0.45434581122E+02 -0.49316622569E+02 -0.40364420474E+03  0.44424551145E+03  0.17300000000E+03 0.  1.
         -6    1    1    2    0  502 -0.45434581122E+02  0.49316622569E+02 -0.22226677236E+03  0.28953056578E+03  0.17300000000E+03 0.  1.
<mgrwt>
<rscale>  2 0.18554091E+03</rscale>
<asrwt>0</asrwt>
<pdfrwt beam="1">  1       21 0.82973154E-02 0.18554091E+03</pdfrwt>
<pdfrwt beam="2">  1       21 0.10459131E+00 0.18554091E+03</pdfrwt>
<totfact> 0.83305107E+04</totfact>
</mgrwt>
</event>
<event>
 4    1  0.4017302E+000  0.1956913E+03  0.7546771E-02  0.1153426E+00
         21   -1    0    0  503  502  0.00000000000E+00  0.00000000000E+00  0.50230765168E+03  0.50230765168E+03  0.00000000000E+00 0. -1.
         21   -1    0    0  501  503 -0.00000000000E+00 -0.00000000000E+00 -0.89992612032E+02  0.89992612032E+02  0.00000000000E+00 0. -1.
          6    1    1    2  501    0 -0.49533590166E+02 -0.76892716130E+02  0.90378888220E+02  0.21555372830E+03  0.17300000000E+03 0. -1.
         -6    1    1    2    0  502  0.49533590166E+02  0.76892716130E+02  0.32193615143E+03  0.37674653542E+03  0.17300000000E+03 0. -1.
<mgrwt>
<rscale>  2 0.19569125E+03</rscale>
<asrwt>0</asrwt>
<pdfrwt beam="1">  1       21 0.77278098E-01 0.19569125E+03</pdfrwt>
<pdfrwt beam="2">  1       21 0.13845018E-01 0.19569125E+03</pdfrwt>
<totfact> 0.67366663E+04</totfact>
</mgrwt>
</event>
<event>
 4    1  0.4017302E+000  0.1846571E+03  0.7546771E-02  0.1163371E+00
         21   -1    0    0  501  502  0.00000000000E+00  0.00000000000E+00  0.14370996303E+03  0.14370996303E+03  0.00000000000E+00 0.  1.
         21   -1    0    0  502  503 -0.00000000000E+00 -0.00000000000E+00 -0.32108929137E+03  0.32108929137E+03  0.00000000000E+00 0. -1.
          6    1    1    2  501    0 -0.54318766056E+02 -0.34910022326E+02 -0.20742810792E+03  0.27771326572E+03  0.17300000000E+03 0. -1.
         -6    1    1    2    0  503  0.54318766056E+02  0.34910022326E+02  0.30048779572E+02  0.18708598867E+03  0.17300000000E+03 0.  1.
<mgrwt>
<rscale>  2 0.18465708E+03</rscale>
<asrwt>0</asrwt>
<pdfrwt beam="1">  1       21 0.22109225E-01 0.18465708E+03</pdfrwt>
<pdfrwt beam="2">  1       21 0.49398353E-01 0.18465708E+03</pdfrwt>
<totfact> 0.74978851E+04</totfact>
</mgrwt>
</event>
<event>
 4    1  0.4017302E+000  0.2313539E+03  0.7546771E-02  0.1125690E+00
         21   -1    0    0  501  502  0.00000000000E+00  0.00000000000E+00  0.15158158632E+03  0.15158158632E+03  0.00000000000E+00 0. -1.
         21   -1    0    0  502  503 -0.00000000000E+00 -0.00000000000E+00 -0.36942101579E+03  0.36942101579E+03  0.00000000000E+00 0.  1.
          6    1    1    2  501    0 -0.15120490228E+03  0.27068691034E+02 -0.16366153519E+03  0.28338972213E+03  0.17300000000E+03 0.  1.
         -6    1    1    2    0  503  0.15120490228E+03 -0.27068691034E+02 -0.54177894280E+02  0.23761287999E+03  0.17300000000E+03 0. -1.
<mgrwt>
<rscale>  2 0.23135392E+03</rscale>
<asrwt>0</asrwt>
<pdfrwt beam="1">  1       21 0.23320244E-01 0.23135392E+03</pdfrwt>
<pdfrwt beam="2">  1       21 0.56834002E-01 0.23135392E+03</pdfrwt>
<totfact> 0.49405121E+04</totfact>
</mgrwt>
</event>
<event>
 4    1  0.4017302E+000  0.1973822E+03  0.7546771E-02  0.1151967E+00
         21   -1    0    0  503  502  0.00000000000E+00  0.00000000000E+00  0.22618903826E+03  0.22618903826E+03  0.00000000000E+00 0.  1.
         21   -1    0    0  501  503 -0.00000000000E+00 -0.00000000000E+00 -0.70754497306E+03  0.70754497306E+03  0.00000000000E+00 0. -1.
          6    1    1    2  501    0  0.40807061465E+02 -0.85822595220E+02 -0.64676125969E+03  0.67620992388E+03  0.17300000000E+03 0. -1.
         -6    1    1    2    0  502 -0.40807061465E+02  0.85822595220E+02  0.16540532488E+03  0.25752408744E+03  0.17300000000E+03 0.  1.
<mgrwt>
<rscale>  2 0.19738220E+03</rscale>
<asrwt>0</asrwt>
<pdfrwt beam="1">  1       21 0.34798314E-01 0.19738220E+03</pdfrwt>
<pdfrwt beam="2">  1       21 0.10885307E+00 0.19738220E+03</pdfrwt>
<totfact> 0.53123481E+03</totfact>
</mgrwt>
</event>
<event>
 4    1  0.4017302E+000  0.1968135E+03  0.7546771E-02  0.1152456E+00
         21   -1    0    0  503  502  0.00000000000E+00  0.00000000000E+00  0.18880709962E+03  0.18880709962E+03  0.00000000000E+00 0. -1.
         21   -1    0    0  501  503 -0.00000000000E+00 -0.00000000000E+00 -0.21932855325E+03  0.21932855325E+03  0.00000000000E+00 0. -1.
          6    1    1    2  501    0 -0.16116130579E+02  0.92449133595E+02  0.36607000731E+02  0.20018902185E+03  0.17300000000E+03 0.  1.
         -6    1    1    2    0  502  0.16116130579E+02 -0.92449133595E+02 -0.67128454361E+02  0.20794663102E+03  0.17300000000E+03 0.  1.
<mgrwt>
<rscale>  2 0.19681355E+03</rscale>
<asrwt>0</asrwt>
<pdfrwt beam="1">  1       21 0.29047246E-01 0.19681355E+03</pdfrwt>
<pdfrwt beam="2">  1       21 0.33742854E-01 0.19681355E+03</pdfrwt>
<totfact> 0.95840227E+04</totfact>
</mgrwt>
</event>
<event>
 4    1  0.4017302E+000  0.2492350E+03  0.7546771E-02  0.1113789E+00
         21   -1    0    0  501  502  0.00000000000E+00  0.00000000000E+00  0.85924660555E+02  0.85924660555E+02  0.00000000000E+00 0.  1.
         21   -1    0    0  502  503 -0.00000000000E+00 -0.00000000000E+00 -0.90178386850E+03  0.90178386850E+03  0.00000000000E+00 0. -1.
          6    1    1    2  501    0  0.39694477924E+02 -0.17496700954E+03 -0.18799761933E+03  0.31218778144E+03  0.17300000000E+03 0.  1.
         -6    1    1    2    0  503 -0.39694477924E+02  0.17496700954E+03 -0.62786158862E+03  0.67552074762E+03  0.17300000000E+03 0. -1.
<mgrwt>
<rscale>  2 0.24923504E+03</rscale>
<asrwt>0</asrwt>
<pdfrwt beam="1">  1       21 0.13219178E-01 0.24923504E+03</pdfrwt>
<pdfrwt beam="2">  1       21 0.13873599E+00 0.24923504E+03</pdfrwt>
<totfact> 0.17451256E+04</totfact>
</mgrwt>
</event>
<event>
 4    1  0.4017302E+000  0.2056058E+03  0.7546771E-02  0.1145094E+00
         21   -1    0    0  503  502  0.00000000000E+00  0.00000000000E+00  0.10626657689E+04  0.10626657689E+04  0.00000000000E+00 0.  1.
         21   -1    0    0  501  503 -0.00000000000E+00 -0.00000000000E+00 -0.45684106974E+02  0.45684106974E+02  0.00000000000E+00 0.  1.
          6    1    1    2  501    0 -0.20354730700E+02  0.10922654276E+03  0.30928136212E+03  0.37138755183E+03  0.17300000000E+03 0.  1.
         -6    1    1    2    0  502  0.20354730700E+02 -0.10922654276E+03  0.70770029985E+03  0.73696232408E+03  0.17300000000E+03 0.  1.
<mgrwt>
<rscale>  2 0.20560582E+03</rscale>
<asrwt>0</asrwt>
<pdfrwt beam="1">  1       21 0.16348702E+00 0.20560582E+03</pdfrwt>
<pdfrwt beam="2">  1       21 0.70283250E-02 0.20560582E+03</pdfrwt>
<totfact> 0.35377207E+04</totfact>
</mgrwt>
</event>
<event>
 4    1  0.4017302E+000  0.2489495E+03  0.7546771E-02  0.1113971E+00
         21   -1    0    0  503  502  0.00000000000E+00  0.00000000000E+00  0.37724537919E+03  0.37724537919E+03  0.00000000000E+00 0.  1.
         21   -1    0    0  501  503 -0.00000000000E+00 -0.00000000000E+00 -0.16807635789E+03  0.16807635789E+03  0.00000000000E+00 0.  1.
          6    1    1    2  501    0  0.12279171393E+03 -0.13026526328E+03  0.63634527672E+02  0.25695368637E+03  0.17300000000E+03 0.  1.
         -6    1    1    2    0  502 -0.12279171393E+03  0.13026526328E+03  0.14553449363E+03  0.28836805070E+03  0.17300000000E+03 0.  1.
<mgrwt>
<rscale>  2 0.24894948E+03</rscale>
<asrwt>0</asrwt>
<pdfrwt beam="1">  1       21 0.58037750E-01 0.24894948E+03</pdfrwt>
<pdfrwt beam="2">  1       21 0.25857901E-01 0.24894948E+03</pdfrwt>
<totfact> 0.38466538E+04</totfact>
</mgrwt>
</event>
<event>
 4    1  0.4017302E+000  0.1748265E+03  0.7546771E-02  0.1172906E+00
         21   -1    0    0  501  502  0.00000000000E+00  0.00000000000E+00  0.10560592276E+04  0.10560592276E+04  0.00000000000E+00 0.  1.
         21   -1    0    0  502  503 -0.00000000000E+00 -0.00000000000E+00 -0.23421268665E+03  0.23421268665E+03  0.00000000000E+00 0.  1.
          6    1    1    2  501    0  0.19075719452E+02  0.16475205645E+02  0.10148853320E+04  0.10298332644E+04  0.17300000000E+03 0.  1.
         -6    1    1    2    0  503 -0.19075719452E+02 -0.16475205645E+02 -0.19303879103E+03  0.26043864981E+03  0.17300000000E+03 0.  1.
<mgrwt>
<rscale>  2 0.17482653E+03</rscale>
<asrwt>0</asrwt>
<pdfrwt beam="1">  1       21 0.16247065E+00 0.17482653E+03</pdfrwt>
<pdfrwt beam="2">  1       21 0.36032722E-01 0.17482653E+03</pdfrwt>
<totfact> 0.18266866E+03</totfact>
</mgrwt>
</event>
<event>
 4    1  0.4017302E+000  0.1940201E+03  0.7546771E-02  0.1154885E+00
         21   -1    0    0  501  502  0.00000000000E+00  0.00000000000E+00  0.14810366840E+03  0.14810366840E+03  0.00000000000E+00 0. -1.
         21   -1    0    0  502  503 -0.00000000000E+00 -0.00000000000E+00 -0.29351568088E+03  0.29351568088E+03  0.00000000000E+00 0. -1.
          6    1    1    2  501    0 -0.34912028737E+02 -0.80597362017E+02 -0.15354869030E+03  0.24742874693E+03  0.17300000000E+03 0. -1.
         -6    1    1    2    0  503  0.34912028737E+02  0.80597362017E+02  0.81366778247E+01  0.19419060235E+03  0.17300000000E+03 0. -1.
<mgrwt>
<rscale>  2 0.19402006E+03</rscale>
<asrwt>0</asrwt>
<pdfrwt beam="1">  1       21 0.22785180E-01 0.19402006E+03</pdfrwt>
<pdfrwt beam="2">  1       21 0.45156258E-01 0.19402006E+03</pdfrwt>
<totfact> 0.84959346E+04</totfact>
</mgrwt>
</event>
<event>
 4    1  0.4017302E+000  0.2340248E+03  0.7546771E-02  0.1123839E+00
         21   -1    0    0  503  502  0.00000000000E+00  0.00000000000E+00  0.55839821528E+03  0.55839821528E+03  0.00000000000E+00 0.  1.
         21   -1    0    0  501  503 -0.00000000000E+00 -0.00000000000E+00 -0.13584631623E+03  0.13584631623E+03  0.00000000000E+00 0. -1.
          6    1    1    2  501    0  0.14541868450E+03 -0.60762075126E+02  0.28250447383E+02  0.23572380311E+03  0.17300000000E+03 0. -1.
         -6    1    1    2    0  502 -0.14541868450E+03  0.60762075126E+02  0.39430145167E+03  0.45852072839E+03  0.17300000000E+03 0.  1.
<mgrwt>
<rscale>  2 0.23402484E+03</rscale>
<asrwt>0</asrwt>
<pdfrwt beam="1">  1       21 0.85907417E-01 0.23402484E+03</pdfrwt>
<pdfrwt beam="2">  1       21 0.20899434E-01 0.23402484E+03</pdfrwt>
<totfact> 0.24297431E+04</totfact>
</mgrwt>
</event>
<event>
 4    1  0.4017302E+000  0.2127097E+03  0.7546771E-02  0.1139438E+00
         21   -1    0    0  503  502  0.00000000000E+00  0.00000000000E+00  0.23354575446E+03  0.23354575446E+03  0.00000000000E+00 0.  1.
         21   -1    0    0  501  503 -0.00000000000E+00 -0.00000000000E+00 -0.23642511044E+03  0.23642511044E+03  0.00000000000E+00 0.  1.
          6    1    1    2  501    0  0.10817713734E+03  0.60117577837E+02 -0.10129476728E+03  0.23559721154E+03  0.17300000000E+03 0.  1.
         -6    1    1    2    0  502 -0.10817713734E+03 -0.60117577837E+02  0.98415411297E+02  0.23437365336E+03  0.17300000000E+03 0.  1.
<mgrwt>
<rscale>  2 0.21270970E+03</rscale>
<asrwt>0</asrwt>
<pdfrwt beam="1">  1       21 0.35930116E-01 0.21270970E+03</pdfrwt>
<pdfrwt beam="2">  1       21 0.36373094E-01 0.21270970E+03</pdfrwt>
<totfact> 0.53936645E+04</totfact>
</mgrwt>
</event>
<event>
 4    1  0.4017302E+000  0.1782225E+03  0.7546771E-02  0.1169534E+00
         21   -1    0    0  501  502  0.00000000000E+00  0.00000000000E+00  0.87675631888E+03  0.87675631888E+03  0.00000000000E+00 0.  1.
         21   -1    0    0  502  503 -0.00000000000E+00 -0.00000000000E+00 -0.51596647141E+02  0.51596647141E+02  0.00000000000E+00 0.  1.
          6    1    1    2  501    0  0.34616588087E+02  0.25218161987E+02  0.66591065183E+03  0.68934770623E+03  0.17300000000E+03 0.  1.
         -6    1    1    2    0  503 -0.34616588087E+02 -0.25218161987E+02  0.15924901990E+03  0.23900525979E+03  0.17300000000E+03 0.  1.
<mgrwt>
<rscale>  2 0.17822251E+03</rscale>
<asrwt>0</asrwt>
<pdfrwt beam="1">  1       21 0.13488558E+00 0.17822251E+03</pdfrwt>
<pdfrwt beam="2">  1       21 0.79379464E-02 0.17822251E+03</pdfrwt>
<totfact> 0.48266033E+04</totfact>
</mgrwt>
</event>
<event>
 4    1  0.4017302E+000  0.2255453E+03  0.7546771E-02  0.1129815E+00
         21   -1    0    0  501  502  0.00000000000E+00  0.00000000000E+00  0.33555745615E+03  0.33555745615E+03  0.00000000000E+00 0. -1.
         21   -1    0    0  502  503 -0.00000000000E+00 -0.00000000000E+00 -0.27680039436E+04  0.27680039436E+04  0.00000000000E+00 0.  1.
          6    1    1    2  501    0  0.11353668990E+03 -0.89727828541E+02  0.29246446978E+03  0.36933200410E+03  0.17300000000E+03 0. -1.
         -6    1    1    2    0  503 -0.11353668990E+03  0.89727828541E+02 -0.27249109572E+04  0.27342293956E+04  0.17300000000E+03 0.  1.
<mgrwt>
<rscale>  2 0.22554526E+03</rscale>
<asrwt>0</asrwt>
<pdfrwt beam="1">  1       21 0.51624222E-01 0.22554526E+03</pdfrwt>
<pdfrwt beam="2">  1       21 0.42584678E+00 0.22554526E+03</pdfrwt>
<totfact> 0.20021478E+01</totfact>
</mgrwt>
</event>
<event>
 4    1  0.4017302E+000  0.3076471E+03  0.7546771E-02  0.1081479E+00
         21   -1    0    0  503  502  0.00000000000E+00  0.00000000000E+00  0.77001858073E+03  0.77001858073E+03  0.00000000000E+00 0.  1.
         21   -1    0    0  501  503 -0.00000000000E+00 -0.00000000000E+00 -0.17034783299E+03  0.17034783299E+03  0.00000000000E+00 0.  1.
          6    1    1    2  501    0 -0.14951996168E+02 -0.25395699026E+03  0.51728357963E+02  0.31196560405E+03  0.17300000000E+03 0.  1.
         -6    1    1    2    0  502  0.14951996168E+02  0.25395699026E+03  0.54794238978E+03  0.62840080968E+03  0.17300000000E+03 0.  1.
<mgrwt>
<rscale>  2 0.30764706E+03</rscale>
<asrwt>0</asrwt>
<pdfrwt beam="1">  1       21 0.11846439E+00 0.30764706E+03</pdfrwt>
<pdfrwt beam="2">  1       21 0.26207359E-01 0.30764706E+03</pdfrwt>
<totfact> 0.70322761E+03</totfact>
</mgrwt>
</event>
<event>
 4    1  0.4017302E+000  0.1744456E+03  0.7546771E-02  0.1173290E+00
         21   -1    0    0  503  502  0.00000000000E+00  0.00000000000E+00  0.15953913099E+03  0.15953913099E+03  0.00000000000E+00 0.  1.
         21   -1    0    0  501  503 -0.00000000000E+00 -0.00000000000E+00 -0.22077127382E+03  0.22077127382E+03  0.00000000000E+00 0.  1.
          6    1    1    2  501    0 -0.18932985579E+02 -0.11991787425E+02 -0.10074368154E+03  0.20144614734E+03  0.17300000000E+03 0.  1.
         -6    1    1    2    0  502  0.18932985579E+02  0.11991787425E+02  0.39511538711E+02  0.17886425747E+03  0.17300000000E+03 0.  1.
<mgrwt>
<rscale>  2 0.17444558E+03</rscale>
<asrwt>0</asrwt>
<pdfrwt beam="1">  1       21 0.24544482E-01 0.17444558E+03</pdfrwt>
<pdfrwt beam="2">  1       21 0.33964811E-01 0.17444558E+03</pdfrwt>
<totfact> 0.13183471E+05</totfact>
</mgrwt>
</event>
<event>
 4    1  0.4017302E+000  0.1988849E+03  0.7546771E-02  0.1150683E+00
         21   -1    0    0  503  502  0.00000000000E+00  0.00000000000E+00  0.51357324064E+03  0.51357324064E+03  0.00000000000E+00 0. -1.
         21   -1    0    0  501  503 -0.00000000000E+00 -0.00000000000E+00 -0.11263588013E+03  0.11263588013E+03  0.00000000000E+00 0. -1.
          6    1    1    2  501    0 -0.26728439461E+02  0.94402275307E+02  0.37653462897E+03  0.42583274401E+03  0.17300000000E+03 0. -1.
         -6    1    1    2    0  502  0.26728439461E+02 -0.94402275307E+02  0.24402731541E+02  0.20037637677E+03  0.17300000000E+03 0. -1.
<mgrwt>
<rscale>  2 0.19888489E+03</rscale>
<asrwt>0</asrwt>
<pdfrwt beam="1">  1       21 0.79011267E-01 0.19888489E+03</pdfrwt>
<pdfrwt beam="2">  1       21 0.17328597E-01 0.19888489E+03</pdfrwt>
<totfact> 0.42462652E+04</totfact>
</mgrwt>
</event>
<event>
 4    1  0.4017302E+000  0.2025824E+03  0.7546771E-02  0.1147578E+00
         21   -1    0    0  501  502  0.00000000000E+00  0.00000000000E+00  0.20954933025E+03  0.20954933025E+03  0.00000000000E+00 0. -1.
         21   -1    0    0  502  503 -0.00000000000E+00 -0.00000000000E+00 -0.37068943484E+03  0.37068943484E+03  0.00000000000E+00 0. -1.
          6    1    1    2  501    0  0.10523813650E+03 -0.59649518860E+01  0.11867834468E+03  0.23478542442E+03  0.17300000000E+03 0. -1.
         -6    1    1    2    0  503 -0.10523813650E+03  0.59649518860E+01 -0.27981844927E+03  0.34545334067E+03  0.17300000000E+03 0. -1.
<mgrwt>
<rscale>  2 0.20258244E+03</rscale>
<asrwt>0</asrwt>
<pdfrwt beam="1">  1       21 0.32238359E-01 0.20258244E+03</pdfrwt>
<pdfrwt beam="2">  1       21 0.57029144E-01 0.20258244E+03</pdfrwt>
<totfact> 0.26585880E+04</totfact>
</mgrwt>
</event>
<event>
 4    1  0.4017302E+000  0.2014131E+03  0.7546771E-02  0.1148552E+00
         21   -1    0    0  501  502  0.00000000000E+00  0.00000000000E+00  0.11366930981E+03  0.11366930981E+03  0.00000000000E+00 0.  1.
         21   -1    0    0  502  503 -0.00000000000E+00 -0.00000000000E+00 -0.44424837325E+03  0.44424837325E+03  0.00000000000E+00 0.  1.
          6    1    1    2  501    0 -0.23924369706E+02  0.10032876801E+03 -0.41585483542E+02  0.20566134687E+03  0.17300000000E+03 0.  1.
         -6    1    1    2    0  503  0.23924369706E+02 -0.10032876801E+03 -0.28899357990E+03  0.35225633619E+03  0.17300000000E+03 0.  1.
<mgrwt>
<rscale>  2 0.20141310E+03</rscale>
<asrwt>0</asrwt>
<pdfrwt beam="1">  1       21 0.17487586E-01 0.20141310E+03</pdfrwt>
<pdfrwt beam="2">  1       21 0.68345905E-01 0.20141310E+03</pdfrwt>
<totfact> 0.57594016E+04</totfact>
</mgrwt>
</event>
<event>
 4    1  0.4017302E+000  0.1822776E+03  0.7546771E-02  0.1165617E+00
         21   -1    0    0  501  502  0.00000000000E+00  0.00000000000E+00  0.88634588329E+03  0.88634588329E+03  0.00000000000E+00 0.  1.
         21   -1    0    0  502  503 -0.00000000000E+00 -0.00000000000E+00 -0.11271510055E+03  0.11271510055E+03  0.00000000000E+00 0.  1.
          6    1    1    2  501    0  0.49045104414E+02  0.29844687402E+02  0.79491417501E+03  0.81554501609E+03  0.17300000000E+03 0.  1.
         -6    1    1    2    0  503 -0.49045104414E+02 -0.29844687402E+02 -0.21283392277E+02  0.18351596775E+03  0.17300000000E+03 0.  1.
<mgrwt>
<rscale>  2 0.18227761E+03</rscale>
<asrwt>0</asrwt>
<pdfrwt beam="1">  1       21 0.13636090E+00 0.18227761E+03</pdfrwt>
<pdfrwt beam="2">  1       21 0.17340785E-01 0.18227761E+03</pdfrwt>
<totfact> 0.11604506E+04</totfact>
</mgrwt>
</event>
<event>
 4    1  0.4017302E+000  0.1872664E+03  0.7546771E-02  0.1160950E+00
         21   -1    0    0  503  502  0.00000000000E+00  0.00000000000E+00  0.12559277630E+04  0.12559277630E+04  0.00000000000E+00 0.  1.
         21   -1    0    0  501  503 -0.00000000000E+00 -0.00000000000E+00 -0.36457822949E+02  0.36457822949E+02  0.00000000000E+00 0.  1.
          6    1    1    2  501    0  0.50095936193E+00  0.71689881677E+02  0.29707248990E+03  0.35117054881E+03  0.17300000000E+03 0.  1.
         -6    1    1    2    0  502 -0.50095936193E+00 -0.71689881677E+02  0.92239745020E+03  0.94121503718E+03  0.17300000000E+03 0.  1.
<mgrwt>
<rscale>  2 0.18726636E+03</rscale>
<asrwt>0</asrwt>
<pdfrwt beam="1">  1       21 0.19321962E+00 0.18726636E+03</pdfrwt>
<pdfrwt beam="2">  1       21 0.56088968E-02 0.18726636E+03</pdfrwt>
<totfact> 0.32990816E+04</totfact>
</mgrwt>
</event>
<event>
 4    1  0.4017302E+000  0.1783088E+03  0.7546771E-02  0.1169450E+00
         21   -1    0    0  501  502  0.00000000000E+00  0.00000000000E+00  0.13695436019E+03  0.13695436019E+03  0.00000000000E+00 0.  1.
         21   -1    0    0  502  503 -0.00000000000E+00 -0.00000000000E+00 -0.15111708996E+04  0.15111708996E+04  0.00000000000E+00 0.  1.
          6    1    1    2  501    0 -0.37462370523E+02  0.21485267658E+02  0.71019031484E+02  0.19193162523E+03  0.17300000000E+03 0.  1.
         -6    1    1    2    0  503  0.37462370523E+02 -0.21485267658E+02 -0.14452355709E+04  0.14561936345E+04  0.17300000000E+03 0.  1.
<mgrwt>
<rscale>  2 0.17830885E+03</rscale>
<asrwt>0</asrwt>
<pdfrwt beam="1">  1       21 0.21069902E-01 0.17830885E+03</pdfrwt>
<pdfrwt beam="2">  1       21 0.23248782E+00 0.17830885E+03</pdfrwt>
<totfact> 0.17986750E+03</totfact>
</mgrwt>
</event>
<event>
 4    1  0.4017302E+000  0.2123070E+03  0.7546771E-02  0.1139752E+00
         21   -1    0    0  501  502  0.00000000000E+00  0.00000000000E+00  0.22377888268E+03  0.22377888268E+03  0.00000000000E+00 0. -1.
         21   -1    0    0  502  503 -0.00000000000E+00 -0.00000000000E+00 -0.20350934866E+03  0.20350934866E+03  0.00000000000E+00 0. -1.
          6    1    1    2  501    0  0.50863955580E+02  0.11206299231E+03  0.31765563180E+02  0.21467022902E+03  0.17300000000E+03 0. -1.
         -6    1    1    2    0  503 -0.50863955580E+02 -0.11206299231E+03 -0.11496029158E+02  0.21261800232E+03  0.17300000000E+03 0. -1.
<mgrwt>
<rscale>  2 0.21230699E+03</rscale>
<asrwt>0</asrwt>
<pdfrwt beam="1">  1       21 0.34427520E-01 0.21230699E+03</pdfrwt>
<pdfrwt beam="2">  1       21 0.31309131E-01 0.21230699E+03</pdfrwt>
<totfact> 0.79044367E+04</totfact>
</mgrwt>
</event>
<event>
 4    1  0.4017302E+000  0.2032776E+03  0.7546771E-02  0.1147003E+00
         21   -1    0    0  501  502  0.00000000000E+00  0.00000000000E+00  0.38672074690E+03  0.38672074690E+03  0.00000000000E+00 0.  1.
         21   -1    0    0  502  503 -0.00000000000E+00 -0.00000000000E+00 -0.15474852963E+03  0.15474852963E+03  0.00000000000E+00 0.  1.
          6    1    1    2  501    0  0.10619830724E+03  0.10709729311E+02  0.26660652030E+03  0.33526230839E+03  0.17300000000E+03 0.  1.
         -6    1    1    2    0  503 -0.10619830724E+03 -0.10709729311E+02 -0.34634303029E+02  0.20620696814E+03  0.17300000000E+03 0.  1.
<mgrwt>
<rscale>  2 0.20327759E+03</rscale>
<asrwt>0</asrwt>
<pdfrwt beam="1">  1       21 0.59495499E-01 0.20327759E+03</pdfrwt>
<pdfrwt beam="2">  1       21 0.23807466E-01 0.20327759E+03</pdfrwt>
<totfact> 0.43628585E+04</totfact>
</mgrwt>
</event>
<event>
 4    1  0.4017302E+000  0.2013166E+03  0.7546771E-02  0.1148633E+00
         21   -1    0    0  501  502  0.00000000000E+00  0.00000000000E+00  0.31903561525E+03  0.31903561525E+03  0.00000000000E+00 0.  1.
         21   -1    0    0  502  503 -0.00000000000E+00 -0.00000000000E+00 -0.33746221208E+03  0.33746221208E+03  0.00000000000E+00 0. -1.
          6    1    1    2  501    0 -0.91851504097E+02 -0.46504436521E+02  0.24999131944E+03  0.32097355221E+03  0.17300000000E+03 0.  1.
         -6    1    1    2    0  503  0.91851504097E+02  0.46504436521E+02 -0.26841791627E+03  0.33552427513E+03  0.17300000000E+03 0. -1.
<mgrwt>
<rscale>  2 0.20131657E+03</rscale>
<asrwt>0</asrwt>
<pdfrwt beam="1">  1       21 0.49082403E-01 0.20131657E+03</pdfrwt>
<pdfrwt beam="2">  1       21 0.51917263E-01 0.20131657E+03</pdfrwt>
<totfact> 0.13870348E+04</totfact>
</mgrwt>
</event>
<event>
 4    1  0.4017302E+000  0.2179838E+03  0.7546771E-02  0.1135395E+00
         21   -1    0    0  503  502  0.00000000000E+00  0.00000000000E+00  0.30721613749E+03  0.30721613749E+03  0.00000000000E+00 0. -1.
         21   -1    0    0  501  503 -0.00000000000E+00 -0.00000000000E+00 -0.15751719945E+03  0.15751719945E+03  0.00000000000E+00 0.  1.
          6    1    1    2  501    0  0.28518188936E+02  0.12951694937E+03  0.43605469604E+02  0.22230241621E+03  0.17300000000E+03 0.  1.
         -6    1    1    2    0  502 -0.28518188936E+02 -0.12951694937E+03  0.10609346844E+03  0.24243092072E+03  0.17300000000E+03 0. -1.
<mgrwt>
<rscale>  2 0.21798378E+03</rscale>
<asrwt>0</asrwt>
<pdfrwt beam="1">  1       21 0.47264021E-01 0.21798378E+03</pdfrwt>
<pdfrwt beam="2">  1       21 0.24233415E-01 0.21798378E+03</pdfrwt>
<totfact> 0.68074188E+04</totfact>
</mgrwt>
</event>
<event>
 4    1  0.4017302E+000  0.4320419E+03  0.7546771E-02  0.1033217E+00
         21   -1    0    0  503  502  0.00000000000E+00  0.00000000000E+00  0.89313219560E+03  0.89313219560E+03  0.00000000000E+00 0. -1.
         21   -1    0    0  501  503 -0.00000000000E+00 -0.00000000000E+00 -0.66079751826E+03  0.66079751826E+03  0.00000000000E+00 0.  1.
          6    1    1    2  501    0  0.33194363640E+03  0.21574197115E+03 -0.52628585267E+03  0.68090893266E+03  0.17300000000E+03 0.  1.
         -6    1    1    2    0  502 -0.33194363640E+03 -0.21574197115E+03  0.75862053001E+03  0.87302078120E+03  0.17300000000E+03 0. -1.
<mgrwt>
<rscale>  2 0.43204187E+03</rscale>
<asrwt>0</asrwt>
<pdfrwt beam="1">  1       21 0.13740495E+00 0.43204187E+03</pdfrwt>
<pdfrwt beam="2">  1       21 0.10166116E+00 0.43204187E+03</pdfrwt>
<totfact> 0.24565049E+02</totfact>
</mgrwt>
</event>
<event>
 4    1  0.4017302E+000  0.1853535E+03  0.7546771E-02  0.1162720E+00
         21   -1    0    0  503  502  0.00000000000E+00  0.00000000000E+00  0.38506864352E+03  0.38506864352E+03  0.00000000000E+00 0.  1.
         21   -1    0    0  501  503 -0.00000000000E+00 -0.00000000000E+00 -0.89627881174E+02  0.89627881174E+02  0.00000000000E+00 0. -1.
          6    1    1    2  501    0  0.66340386144E+02  0.50858390859E+01  0.16372735819E+03  0.24731065568E+03  0.17300000000E+03 0. -1.
         -6    1    1    2    0  502 -0.66340386144E+02 -0.50858390859E+01  0.13171340416E+03  0.22738586902E+03  0.17300000000E+03 0.  1.
<mgrwt>
<rscale>  2 0.18535348E+03</rscale>
<asrwt>0</asrwt>
<pdfrwt beam="1">  1       21 0.59241329E-01 0.18535348E+03</pdfrwt>
<pdfrwt beam="2">  1       21 0.13788905E-01 0.18535348E+03</pdfrwt>
<totfact> 0.12202051E+05</totfact>
</mgrwt>
</event>
<event>
 4    1  0.4017302E+000  0.2590314E+03  0.7546771E-02  0.1107727E+00
         21   -1    0    0  503  502  0.00000000000E+00  0.00000000000E+00  0.50400332905E+03  0.50400332905E+03  0.00000000000E+00 0. -1.
         21   -1    0    0  501  503 -0.00000000000E+00 -0.00000000000E+00 -0.27420163640E+03  0.27420163640E+03  0.00000000000E+00 0. -1.
          6    1    1    2  501    0 -0.51929453210E+02  0.18566523249E+03 -0.16419348853E+03  0.30668672671E+03  0.17300000000E+03 0. -1.
         -6    1    1    2    0  502  0.51929453210E+02 -0.18566523249E+03  0.39399518119E+03  0.47151823874E+03  0.17300000000E+03 0. -1.
<mgrwt>
<rscale>  2 0.25903136E+03</rscale>
<asrwt>0</asrwt>
<pdfrwt beam="1">  1       21 0.77538974E-01 0.25903136E+03</pdfrwt>
<pdfrwt beam="2">  1       21 0.42184867E-01 0.25903136E+03</pdfrwt>
<totfact> 0.76463665E+03</totfact>
</mgrwt>
</event>
<event>
 4    1  0.4017302E+000  0.3118423E+03  0.7546771E-02  0.1079466E+00
         21   -1    0    0  503  502  0.00000000000E+00  0.00000000000E+00  0.86863377129E+02  0.86863377129E+02  0.00000000000E+00 0. -1.
         21   -1    0    0  501  503 -0.00000000000E+00 -0.00000000000E+00 -0.11276317398E+04  0.11276317398E+04  0.00000000000E+00 0.  1.
          6    1    1    2  501    0 -0.28492525758E+02 -0.25788524696E+03 -0.57187565962E+03  0.65137346791E+03  0.17300000000E+03 0. -1.
         -6    1    1    2    0  502  0.28492525758E+02  0.25788524696E+03 -0.46889270305E+03  0.56312164903E+03  0.17300000000E+03 0. -1.
<mgrwt>
<rscale>  2 0.31184231E+03</rscale>
<asrwt>0</asrwt>
<pdfrwt beam="1">  1       21 0.13363598E-01 0.31184231E+03</pdfrwt>
<pdfrwt beam="2">  1       21 0.17348179E+00 0.31184231E+03</pdfrwt>
<totfact> 0.90414351E+03</totfact>
</mgrwt>
</event>
<event>
 4    1  0.4017302E+000  0.3162541E+03  0.7546771E-02  0.1077386E+00
         21   -1    0    0  501  502  0.00000000000E+00  0.00000000000E+00  0.76813523818E+03  0.76813523818E+03  0.00000000000E+00 0. -1.
         21   -1    0    0  502  503 -0.00000000000E+00 -0.00000000000E+00 -0.13480902261E+03  0.13480902261E+03  0.00000000000E+00 0. -1.
          6    1    1    2  501    0 -0.12314970071E+03  0.23435408336E+03  0.40007724922E+03  0.50997891183E+03  0.17300000000E+03 0. -1.
         -6    1    1    2    0  503  0.12314970071E+03 -0.23435408336E+03  0.23324896635E+03  0.39296534895E+03  0.17300000000E+03 0. -1.
<mgrwt>
<rscale>  2 0.31625415E+03</rscale>
<asrwt>0</asrwt>
<pdfrwt beam="1">  1       21 0.11817465E+00 0.31625415E+03</pdfrwt>
<pdfrwt beam="2">  1       21 0.20739850E-01 0.31625415E+03</pdfrwt>
<totfact> 0.11036688E+04</totfact>
</mgrwt>
</event>
<event>
 4    1  0.4017302E+000  0.2015530E+03  0.7546771E-02  0.1148435E+00
         21   -1    0    0  501  502  0.00000000000E+00  0.00000000000E+00  0.56126290487E+02  0.56126290487E+02  0.00000000000E+00 0.  1.
         21   -1    0    0  502  503 -0.00000000000E+00 -0.00000000000E+00 -0.94610347114E+03  0.94610347114E+03  0.00000000000E+00 0.  1.
          6    1    1    2  501    0  0.10341098170E+03  0.88683930450E+00 -0.20207523300E+03  0.28540850970E+03  0.17300000000E+03 0.  1.
         -6    1    1    2    0  503 -0.10341098170E+03 -0.88683930450E+00 -0.68790194766E+03  0.71682125193E+03  0.17300000000E+03 0.  1.
<mgrwt>
<rscale>  2 0.20155301E+03</rscale>
<asrwt>0</asrwt>
<pdfrwt beam="1">  1       21 0.86348153E-02 0.20155301E+03</pdfrwt>
<pdfrwt beam="2">  1       21 0.14555436E+00 0.20155301E+03</pdfrwt>
<totfact> 0.33787459E+04</totfact>
</mgrwt>
</event>
<event>
 4    1  0.4017302E+000  0.1907093E+03  0.7546771E-02  0.1157823E+00
         21   -1    0    0  501  502  0.00000000000E+00  0.00000000000E+00  0.81503811099E+03  0.81503811099E+03  0.00000000000E+00 0.  1.
         21   -1    0    0  502  503 -0.00000000000E+00 -0.00000000000E+00 -0.44635388826E+02  0.44635388826E+02  0.00000000000E+00 0.  1.
          6    1    1    2  501    0  0.43288786380E+02  0.67580482022E+02  0.37825444690E+03  0.42361122173E+03  0.17300000000E+03 0.  1.
         -6    1    1    2    0  503 -0.43288786380E+02 -0.67580482022E+02  0.39214827526E+03  0.43606227808E+03  0.17300000000E+03 0.  1.
<mgrwt>
<rscale>  2 0.19070931E+03</rscale>
<asrwt>0</asrwt>
<pdfrwt beam="1">  1       21 0.12539047E+00 0.19070931E+03</pdfrwt>
<pdfrwt beam="2">  1       21 0.68669835E-02 0.19070931E+03</pdfrwt>
<totfact> 0.74077309E+04</totfact>
</mgrwt>
</event>
<event>
 4    1  0.4017302E+000  0.2057129E+03  0.7546771E-02  0.1145007E+00
         21   -1    0    0  503  502  0.00000000000E+00  0.00000000000E+00  0.79833653202E+03  0.79833653202E+03  0.00000000000E+00 0.  1.
         21   -1    0    0  501  503 -0.00000000000E+00 -0.00000000000E+00 -0.79141447591E+02  0.79141447591E+02  0.00000000000E+00 0.  1.
          6    1    1    2  501    0 -0.86248246239E+02  0.70356388447E+02  0.10747760824E+03  0.23209743137E+03  0.17300000000E+03 0.  1.
         -6    1    1    2    0  502  0.86248246239E+02 -0.70356388447E+02  0.61171747619E+03  0.64538054824E+03  0.17300000000E+03 0.  1.
<mgrwt>
<rscale>  2 0.20571286E+03</rscale>
<asrwt>0</asrwt>
<pdfrwt beam="1">  1       21 0.12282100E+00 0.20571286E+03</pdfrwt>
<pdfrwt beam="2">  1       21 0.12175608E-01 0.20571286E+03</pdfrwt>
<totfact> 0.28277232E+04</totfact>
</mgrwt>
</event>
<event>
 4    1  0.4017302E+000  0.2305644E+03  0.7546771E-02  0.1126243E+00
         21   -1    0    0  501  502  0.00000000000E+00  0.00000000000E+00  0.12023210337E+04  0.12023210337E+04  0.00000000000E+00 0. -1.
         21   -1    0    0  502  503 -0.00000000000E+00 -0.00000000000E+00 -0.59414233568E+02  0.59414233568E+02  0.00000000000E+00 0.  1.
          6    1    1    2  501    0  0.11563058953E+03 -0.99300129502E+02  0.89054242632E+03  0.91990530057E+03  0.17300000000E+03 0. -1.
         -6    1    1    2    0  503 -0.11563058953E+03  0.99300129502E+02  0.25236437378E+03  0.34182996666E+03  0.17300000000E+03 0.  1.
<mgrwt>
<rscale>  2 0.23056441E+03</rscale>
<asrwt>0</asrwt>
<pdfrwt beam="1">  1       21 0.18497245E+00 0.23056441E+03</pdfrwt>
<pdfrwt beam="2">  1       21 0.91406522E-02 0.23056441E+03</pdfrwt>
<totfact> 0.15580279E+04</totfact>
</mgrwt>
</event>
<event>
 4    1  0.4017302E+000  0.1764481E+03  0.7546771E-02  0.1171285E+00
         21   -1    0    0  501  502  0.00000000000E+00  0.00000000000E+00  0.46564411549E+02  0.46564411549E+02  0.00000000000E+00 0.  1.
         21   -1    0    0  502  503 -0.00000000000E+00 -0.00000000000E+00 -0.68146055755E+03  0.68146055755E+03  0.00000000000E+00 0.  1.
          6    1    1    2  501    0 -0.34228398486E+02  0.57761882196E+01 -0.26748266699E+03  0.32043864429E+03  0.17300000000E+03 0. -1.
         -6    1    1    2    0  503  0.34228398486E+02 -0.57761882196E+01 -0.36741347901E+03  0.40758632481E+03  0.17300000000E+03 0. -1.
<mgrwt>
<rscale>  2 0.17644814E+03</rscale>
<asrwt>0</asrwt>
<pdfrwt beam="1">  1       21 0.71637562E-02 0.17644814E+03</pdfrwt>
<pdfrwt beam="2">  1       21 0.10484008E+00 0.17644814E+03</pdfrwt>
<totfact> 0.10728684E+05</totfact>
</mgrwt>
</event>
<event>
 4    1  0.4017302E+000  0.3348928E+03  0.7546771E-02  0.1068992E+00
         21   -1    0    0  503  502  0.00000000000E+00  0.00000000000E+00  0.10034248642E+03  0.10034248642E+03  0.00000000000E+00 0. -1.
         21   -1    0    0  501  503 -0.00000000000E+00 -0.00000000000E+00 -0.13402891236E+04  0.13402891236E+04  0.00000000000E+00 0. -1.
          6    1    1    2  501    0  0.27118496034E+03 -0.93182022385E+02 -0.32643012022E+03  0.46766419085E+03  0.17300000000E+03 0. -1.
         -6    1    1    2    0  502 -0.27118496034E+03  0.93182022385E+02 -0.91351651695E+03  0.97296741916E+03  0.17300000000E+03 0. -1.
<mgrwt>
<rscale>  2 0.33489278E+03</rscale>
<asrwt>0</asrwt>
<pdfrwt beam="1">  1       21 0.15437306E-01 0.33489278E+03</pdfrwt>
<pdfrwt beam="2">  1       21 0.20619832E+00 0.33489278E+03</pdfrwt>
<totfact> 0.41158689E+03</totfact>
</mgrwt>
</event>
<event>
 4    1  0.4017302E+000  0.1769590E+03  0.7546771E-02  0.1170779E+00
         21   -1    0    0  503  502  0.00000000000E+00  0.00000000000E+00  0.53606791546E+02  0.53606791546E+02  0.00000000000E+00 0.  1.
         21   -1    0    0  501  503 -0.00000000000E+00 -0.00000000000E+00 -0.13681895141E+04  0.13681895141E+04  0.00000000000E+00 0.  1.
          6    1    1    2  501    0  0.11212241343E+02 -0.35493381731E+02 -0.11954406639E+04  0.12084671594E+04  0.17300000000E+03 0.  1.
         -6    1    1    2    0  502 -0.11212241343E+02  0.35493381731E+02 -0.11914205874E+03  0.21332914630E+03  0.17300000000E+03 0.  1.
<mgrwt>
<rscale>  2 0.17695902E+03</rscale>
<asrwt>0</asrwt>
<pdfrwt beam="1">  1       21 0.82471983E-02 0.17695902E+03</pdfrwt>
<pdfrwt beam="2">  1       21 0.21049070E+00 0.17695902E+03</pdfrwt>
<totfact> 0.13289594E+04</totfact>
</mgrwt>
</event>
<event>
 4    1  0.4017302E+000  0.2023609E+03  0.7546771E-02  0.1147762E+00
         21   -1    0    0  501  502  0.00000000000E+00  0.00000000000E+00  0.63946528380E+02  0.63946528380E+02  0.00000000000E+00 0.  1.
         21   -1    0    0  502  503 -0.00000000000E+00 -0.00000000000E+00 -0.64454118849E+03  0.64454118849E+03  0.00000000000E+00 0.  1.
          6    1    1    2  501    0  0.56917175325E+02  0.88212092380E+02 -0.26182652785E+03  0.33091247902E+03  0.17300000000E+03 0.  1.
         -6    1    1    2    0  503 -0.56917175325E+02 -0.88212092380E+02 -0.31876813227E+03  0.37757523785E+03  0.17300000000E+03 0.  1.
<mgrwt>
<rscale>  2 0.20236091E+03</rscale>
<asrwt>0</asrwt>
<pdfrwt beam="1">  1       21 0.98379275E-02 0.20236091E+03</pdfrwt>
<pdfrwt beam="2">  1       21 0.99160183E-01 0.20236091E+03</pdfrwt>
<totfact> 0.69627937E+04</totfact>
</mgrwt>
</event>
<event>
 4    1  0.4017302E+000  0.2736607E+03  0.7546771E-02  0.1099203E+00
         21   -1    0    0  501  502  0.00000000000E+00  0.00000000000E+00  0.25690466205E+03  0.25690466205E+03  0.00000000000E+00 0. -1.
         21   -1    0    0  502  503 -0.00000000000E+00 -0.00000000000E+00 -0.34313188307E+03  0.34313188307E+03  0.00000000000E+00 0. -1.
          6    1    1    2  501    0  0.18086426844E+03 -0.11067655451E+03  0.73254944497E+02  0.28329572925E+03  0.17300000000E+03 0. -1.
         -6    1    1    2    0  503 -0.18086426844E+03  0.11067655451E+03 -0.15948216552E+03  0.31674081587E+03  0.17300000000E+03 0. -1.
<mgrwt>
<rscale>  2 0.27366071E+03</rscale>
<asrwt>0</asrwt>
<pdfrwt beam="1">  1       21 0.39523794E-01 0.27366071E+03</pdfrwt>
<pdfrwt beam="2">  1       21 0.52789520E-01 0.27366071E+03</pdfrwt>
<totfact> 0.20124596E+04</totfact>
</mgrwt>
</event>
<event>
 4    1  0.4017302E+000  0.2217329E+03  0.7546771E-02  0.1132598E+00
         21   -1    0    0  503  502  0.00000000000E+00  0.00000000000E+00  0.15089348820E+03  0.15089348820E+03  0.00000000000E+00 0.  1.
         21   -1    0    0  501  503 -0.00000000000E+00 -0.00000000000E+00 -0.50902188006E+03  0.50902188006E+03  0.00000000000E+00 0. -1.
          6    1    1    2  501    0  0.13334564824E+03  0.38149916678E+02 -0.37700908271E+03  0.43738007098E+03  0.17300000000E+03 0. -1.
         -6    1    1    2    0  502 -0.13334564824E+03 -0.38149916678E+02  0.18880690851E+02  0.22253529728E+03  0.17300000000E+03 0. -1.
<mgrwt>
<rscale>  2 0.22173290E+03</rscale>
<asrwt>0</asrwt>
<pdfrwt beam="1">  1       21 0.23214383E-01 0.22173290E+03</pdfrwt>
<pdfrwt beam="2">  1       21 0.78311059E-01 0.22173290E+03</pdfrwt>
<totfact> 0.24759157E+04</totfact>
</mgrwt>
</event>
<event>
 4    1  0.4017302E+000  0.1858033E+03  0.7546771E-02  0.1162302E+00
         21   -1    0    0  503  502  0.00000000000E+00  0.00000000000E+00  0.60980374072E+03  0.60980374072E+03  0.00000000000E+00 0.  1.
         21   -1    0    0  501  503 -0.00000000000E+00 -0.00000000000E+00 -0.59768272508E+02  0.59768272508E+02  0.00000000000E+00 0. -1.
          6    1    1    2  501    0  0.37193477603E+02 -0.56661212507E+02  0.19809633876E+03  0.27159714138E+03  0.17300000000E+03 0. -1.
         -6    1    1    2    0  502 -0.37193477603E+02  0.56661212507E+02  0.35193912946E+03  0.39797487185E+03  0.17300000000E+03 0.  1.
<mgrwt>
<rscale>  2 0.18580325E+03</rscale>
<asrwt>0</asrwt>
<pdfrwt beam="1">  1       21 0.93815956E-01 0.18580325E+03</pdfrwt>
<pdfrwt beam="2">  1       21 0.91951193E-02 0.18580325E+03</pdfrwt>
<totfact> 0.89993476E+04</totfact>
</mgrwt>
</event>
<event>
 4    1  0.4017302E+000  0.1983672E+03  0.7546771E-02  0.1151124E+00
         21   -1    0    0  503  502  0.00000000000E+00  0.00000000000E+00  0.41492851315E+03  0.41492851315E+03  0.00000000000E+00 0. -1.
         21   -1    0    0  501  503 -0.00000000000E+00 -0.00000000000E+00 -0.97546685013E+02  0.97546685013E+02  0.00000000000E+00 0. -1.
          6    1    1    2  501    0  0.94891801961E+02 -0.20398424193E+02  0.11596474098E+03  0.22977678503E+03  0.17300000000E+03 0.  1.
         -6    1    1    2    0  502 -0.94891801961E+02  0.20398424193E+02  0.20141708716E+03  0.28269841314E+03  0.17300000000E+03 0.  1.
<mgrwt>
<rscale>  2 0.19836721E+03</rscale>
<asrwt>0</asrwt>
<pdfrwt beam="1">  1       21 0.63835155E-01 0.19836721E+03</pdfrwt>
<pdfrwt beam="2">  1       21 0.15007183E-01 0.19836721E+03</pdfrwt>
<totfact> 0.88632538E+04</totfact>
</mgrwt>
</event>
<event>
 4    1  0.4017302E+000  0.2051054E+03  0.7546771E-02  0.1145502E+00
         21   -1    0    0  503  502  0.00000000000E+00  0.00000000000E+00  0.57831007136E+02  0.57831007136E+02  0.00000000000E+00 0.  1.
         21   -1    0    0  501  503 -0.00000000000E+00 -0.00000000000E+00 -0.11723147277E+04  0.11723147277E+04  0.00000000000E+00 0.  1.
          6    1    1    2  501    0  0.11685042746E+02 -0.10955675086E+03 -0.93614343936E+03  0.95834897660E+03  0.17300000000E+03 0.  1.
         -6    1    1    2    0  502 -0.11685042746E+02  0.10955675086E+03 -0.17834028117E+03  0.27179675821E+03  0.17300000000E+03 0.  1.
<mgrwt>
<rscale>  2 0.20510539E+03</rscale>
<asrwt>0</asrwt>
<pdfrwt beam="1">  1       21 0.88970789E-02 0.20510539E+03</pdfrwt>
<pdfrwt beam="2">  1       21 0.18035609E+00 0.20510539E+03</pdfrwt>
<totfact> 0.17872146E+04</totfact>
</mgrwt>
</event>
<event>
 4    1  0.4017302E+000  0.2011376E+03  0.7546771E-02  0.1148783E+00
         21   -1    0    0  503  502  0.00000000000E+00  0.00000000000E+00  0.97806872166E+03  0.97806872166E+03  0.00000000000E+00 0.  1.
         21   -1    0    0  501  503 -0.00000000000E+00 -0.00000000000E+00 -0.14706012755E+03  0.14706012755E+03  0.00000000000E+00 0.  1.
          6    1    1    2  501    0  0.52836592974E+02 -0.87952509860E+02 -0.61426483918E+02  0.21030825584E+03  0.17300000000E+03 0.  1.
         -6    1    1    2    0  502 -0.52836592974E+02  0.87952509860E+02  0.89243507803E+03  0.91482059337E+03  0.17300000000E+03 0.  1.
<mgrwt>
<rscale>  2 0.20113764E+03</rscale>
<asrwt>0</asrwt>
<pdfrwt beam="1">  1       21 0.15047211E+00 0.20113764E+03</pdfrwt>
<pdfrwt beam="2">  1       21 0.22624636E-01 0.20113764E+03</pdfrwt>
<totfact> 0.53894886E+03</totfact>
</mgrwt>
</event>
<event>
 4    1  0.4017302E+000  0.2389339E+03  0.7546771E-02  0.1120505E+00
         21   -1    0    0  501  502  0.00000000000E+00  0.00000000000E+00  0.13764393978E+04  0.13764393978E+04  0.00000000000E+00 0. -1.
         21   -1    0    0  502  503 -0.00000000000E+00 -0.00000000000E+00 -0.45400094094E+02  0.45400094094E+02  0.00000000000E+00 0. -1.
          6    1    1    2  501    0 -0.16398571832E+03  0.16404762588E+02  0.87452268857E+03  0.90657562557E+03  0.17300000000E+03 0. -1.
         -6    1    1    2    0  503  0.16398571832E+03 -0.16404762588E+02  0.45651661515E+03  0.51526386634E+03  0.17300000000E+03 0. -1.
<mgrwt>
<rscale>  2 0.23893395E+03</rscale>
<asrwt>0</asrwt>
<pdfrwt beam="1">  1       21 0.21175988E+00 0.23893395E+03</pdfrwt>
<pdfrwt beam="2">  1       21 0.69846309E-02 0.23893395E+03</pdfrwt>
<totfact> 0.16596200E+04</totfact>
</mgrwt>
</event>
<event>
 4    1  0.4017302E+000  0.2694230E+03  0.7546771E-02  0.1101610E+00
         21   -1    0    0  501  502  0.00000000000E+00  0.00000000000E+00  0.87078475353E+03  0.87078475353E+03  0.00000000000E+00 0. -1.
         21   -1    0    0  502  503 -0.00000000000E+00 -0.00000000000E+00 -0.16074139877E+03  0.16074139877E+03  0.00000000000E+00 0. -1.
          6    1    1    2  501    0 -0.10189837168E+02 -0.20629092144E+03  0.71287425368E+03  0.76208823545E+03  0.17300000000E+03 0. -1.
         -6    1    1    2    0  503  0.10189837168E+02  0.20629092144E+03 -0.28308989177E+01  0.26943791686E+03  0.17300000000E+03 0. -1.
<mgrwt>
<rscale>  2 0.26942304E+03</rscale>
<asrwt>0</asrwt>
<pdfrwt beam="1">  1       21 0.13396688E+00 0.26942304E+03</pdfrwt>
<pdfrwt beam="2">  1       21 0.24729447E-01 0.26942304E+03</pdfrwt>
<totfact> 0.58738559E+03</totfact>
</mgrwt>
</event>
<event>
 4    1  0.4017302E+000  0.1975114E+03  0.7546771E-02  0.1151856E+00
         21   -1    0    0  503  502  0.00000000000E+00  0.00000000000E+00  0.76219992062E+02  0.76219992062E+02  0.00000000000E+00 0.  1.
         21   -1    0    0  501  503 -0.00000000000E+00 -0.00000000000E+00 -0.80130218915E+03  0.80130218915E+03  0.00000000000E+00 0.  1.
          6    1    1    2  501    0 -0.29064246823E+02  0.90757962049E+02 -0.98821369567E+02  0.22085380051E+03  0.17300000000E+03 0.  1.
         -6    1    1    2    0  502  0.29064246823E+02 -0.90757962049E+02 -0.62626082752E+03  0.65666838070E+03  0.17300000000E+03 0.  1.
<mgrwt>
<rscale>  2 0.19751136E+03</rscale>
<asrwt>0</asrwt>
<pdfrwt beam="1">  1       21 0.11726152E-01 0.19751136E+03</pdfrwt>
<pdfrwt beam="2">  1       21 0.12327726E+00 0.19751136E+03</pdfrwt>
<totfact> 0.30114561E+04</totfact>
</mgrwt>
</event>
<event>
 4    1  0.4017302E+000  0.1738035E+03  0.7546771E-02  0.1173938E+00
         21   -1    0    0  503  502  0.00000000000E+00  0.00000000000E+00  0.73330865897E+02  0.73330865897E+02  0.00000000000E+00 0.  1.
         21   -1    0    0  501  503 -0.00000000000E+00 -0.00000000000E+00 -0.91886836008E+03  0.91886836008E+03  0.00000000000E+00 0.  1.
          6    1    1    2  501    0  0.35551739953E+00 -0.16688990752E+02 -0.79125144449E+03  0.81011511356E+03  0.17300000000E+03 0.  1.
         -6    1    1    2    0  502 -0.35551739953E+00  0.16688990752E+02 -0.54286049694E+02  0.18208411242E+03  0.17300000000E+03 0.  1.
<mgrwt>
<rscale>  2 0.17380348E+03</rscale>
<asrwt>0</asrwt>
<pdfrwt beam="1">  1       21 0.11281671E-01 0.17380348E+03</pdfrwt>
<pdfrwt beam="2">  1       21 0.14136437E+00 0.17380348E+03</pdfrwt>
<totfact> 0.23147209E+04</totfact>
</mgrwt>
</event>
<event>
 4    1  0.4017302E+000  0.1995264E+03  0.7546771E-02  0.1150139E+00
         21   -1    0    0  503  502  0.00000000000E+00  0.00000000000E+00  0.71086886738E+03  0.71086886738E+03  0.00000000000E+00 0. -1.
         21   -1    0    0  501  503 -0.00000000000E+00 -0.00000000000E+00 -0.14717341011E+03  0.14717341011E+03  0.00000000000E+00 0. -1.
          6    1    1    2  501    0  0.12728952254E+02  0.98588919230E+02 -0.55821066879E+02  0.20718781993E+03  0.17300000000E+03 0. -1.
         -6    1    1    2    0  502 -0.12728952254E+02 -0.98588919230E+02  0.61951652415E+03  0.65085445755E+03  0.17300000000E+03 0. -1.
<mgrwt>
<rscale>  2 0.19952644E+03</rscale>
<asrwt>0</asrwt>
<pdfrwt beam="1">  1       21 0.10936444E+00 0.19952644E+03</pdfrwt>
<pdfrwt beam="2">  1       21 0.22642063E-01 0.19952644E+03</pdfrwt>
<totfact> 0.12051793E+04</totfact>
</mgrwt>
</event>
<event>
 4    1  0.4017302E+000  0.2236462E+03  0.7546771E-02  0.1131194E+00
         21   -1    0    0  503  502  0.00000000000E+00  0.00000000000E+00  0.14695001369E+04  0.14695001369E+04  0.00000000000E+00 0. -1.
         21   -1    0    0  501  503 -0.00000000000E+00 -0.00000000000E+00 -0.27942902701E+03  0.27942902701E+03  0.00000000000E+00 0. -1.
          6    1    1    2  501    0  0.20532868773E+02  0.14023909418E+03 -0.22444103727E+03  0.31684599011E+03  0.17300000000E+03 0. -1.
         -6    1    1    2    0  502 -0.20532868773E+02 -0.14023909418E+03  0.14145121471E+04  0.14320831738E+04  0.17300000000E+03 0. -1.
<mgrwt>
<rscale>  2 0.22364615E+03</rscale>
<asrwt>0</asrwt>
<pdfrwt beam="1">  1       21 0.22607694E+00 0.22364615E+03</pdfrwt>
<pdfrwt beam="2">  1       21 0.42989082E-01 0.22364615E+03</pdfrwt>
<totfact> 0.46303257E+02</totfact>
</mgrwt>
</event>
<event>
 4    1  0.4017302E+000  0.2441867E+03  0.7546771E-02  0.1117035E+00
         21   -1    0    0  503  502  0.00000000000E+00  0.00000000000E+00  0.21026152469E+03  0.21026152469E+03  0.00000000000E+00 0.  1.
         21   -1    0    0  501  503 -0.00000000000E+00 -0.00000000000E+00 -0.30050724073E+03  0.30050724073E+03  0.00000000000E+00 0.  1.
          6    1    1    2  501    0  0.54802290909E+02  0.16338555333E+03 -0.10572510707E+03  0.26609195476E+03  0.17300000000E+03 0.  1.
         -6    1    1    2    0  502 -0.54802290909E+02 -0.16338555333E+03  0.15479391025E+02  0.24467681065E+03  0.17300000000E+03 0.  1.
<mgrwt>
<rscale>  2 0.24418667E+03</rscale>
<asrwt>0</asrwt>
<pdfrwt beam="1">  1       21 0.32347927E-01 0.24418667E+03</pdfrwt>
<pdfrwt beam="2">  1       21 0.46231883E-01 0.24418667E+03</pdfrwt>
<totfact> 0.40221609E+04</totfact>
</mgrwt>
</event>
<event>
 4    1  0.4017302E+000  0.2015169E+03  0.7546771E-02  0.1148465E+00
         21   -1    0    0  501  502  0.00000000000E+00  0.00000000000E+00  0.29597938309E+03  0.29597938309E+03  0.00000000000E+00 0. -1.
         21   -1    0    0  502  503 -0.00000000000E+00 -0.00000000000E+00 -0.34582547083E+03  0.34582547083E+03  0.00000000000E+00 0. -1.
          6    1    1    2  501    0  0.92765848135E+02  0.45547293239E+02  0.22432155830E+03  0.30154472308E+03  0.17300000000E+03 0. -1.
         -6    1    1    2    0  503 -0.92765848135E+02 -0.45547293239E+02 -0.27416764604E+03  0.34026013084E+03  0.17300000000E+03 0. -1.
<mgrwt>
<rscale>  2 0.20151689E+03</rscale>
<asrwt>0</asrwt>
<pdfrwt beam="1">  1       21 0.45535290E-01 0.20151689E+03</pdfrwt>
<pdfrwt beam="2">  1       21 0.53203918E-01 0.20151689E+03</pdfrwt>
<totfact> 0.15385859E+04</totfact>
</mgrwt>
</event>
<event>
 4    1  0.4017302E+000  0.1785344E+03  0.7546771E-02  0.1169229E+00
         21   -1    0    0  501  502  0.00000000000E+00  0.00000000000E+00  0.96432893831E+03  0.96432893831E+03  0.00000000000E+00 0.  1.
         21   -1    0    0  502  503 -0.00000000000E+00 -0.00000000000E+00 -0.41220378947E+02  0.41220378947E+02  0.00000000000E+00 0.  1.
          6    1    1    2  501    0  0.23641290898E+02  0.37237130440E+02  0.68534577350E+03  0.70821842942E+03  0.17300000000E+03 0.  1.
         -6    1    1    2    0  503 -0.23641290898E+02 -0.37237130440E+02  0.23776278586E+03  0.29733088783E+03  0.17300000000E+03 0.  1.
<mgrwt>
<rscale>  2 0.17853435E+03</rscale>
<asrwt>0</asrwt>
<pdfrwt beam="1">  1       21 0.14835828E+00 0.17853435E+03</pdfrwt>
<pdfrwt beam="2">  1       21 0.63415975E-02 0.17853435E+03</pdfrwt>
<totfact> 0.55600226E+04</totfact>
</mgrwt>
</event>
<event>
 4    1  0.4017302E+000  0.2891089E+03  0.7546771E-02  0.1090815E+00
         21   -1    0    0  501  502  0.00000000000E+00  0.00000000000E+00  0.49215416048E+03  0.49215416048E+03  0.00000000000E+00 0. -1.
         21   -1    0    0  502  503 -0.00000000000E+00 -0.00000000000E+00 -0.17002643188E+03  0.17002643188E+03  0.00000000000E+00 0. -1.
          6    1    1    2  501    0  0.10787128342E+03  0.20498469890E+03  0.17223578248E+03  0.33652504415E+03  0.17300000000E+03 0.  1.
         -6    1    1    2    0  503 -0.10787128342E+03 -0.20498469890E+03  0.14989194612E+03  0.32565554821E+03  0.17300000000E+03 0.  1.
<mgrwt>
<rscale>  2 0.28910887E+03</rscale>
<asrwt>0</asrwt>
<pdfrwt beam="1">  1       21 0.75716024E-01 0.28910887E+03</pdfrwt>
<pdfrwt beam="2">  1       21 0.26157913E-01 0.28910887E+03</pdfrwt>
<totfact> 0.20589861E+04</totfact>
</mgrwt>
</event>
<event>
 4    1  0.4017302E+000  0.2112761E+03  0.7546771E-02  0.1140559E+00
         21   -1    0    0  501  502  0.00000000000E+00  0.00000000000E+00  0.23028715512E+03  0.23028715512E+03  0.00000000000E+00 0.  1.
         21   -1    0    0  502  503 -0.00000000000E+00 -0.00000000000E+00 -0.23330266946E+03  0.23330266946E+03  0.00000000000E+00 0.  1.
          6    1    1    2  501    0 -0.55862013443E+02  0.10764776535E+03  0.93830517859E+02  0.23117476509E+03  0.17300000000E+03 0.  1.
         -6    1    1    2    0  503  0.55862013443E+02 -0.10764776535E+03 -0.96846032197E+02  0.23241505950E+03  0.17300000000E+03 0.  1.
<mgrwt>
<rscale>  2 0.21127614E+03</rscale>
<asrwt>0</asrwt>
<pdfrwt beam="1">  1       21 0.35428793E-01 0.21127614E+03</pdfrwt>
<pdfrwt beam="2">  1       21 0.35892719E-01 0.21127614E+03</pdfrwt>
<totfact> 0.56998980E+04</totfact>
</mgrwt>
</event>
<event>
 4    1  0.4017302E+000  0.1980763E+03  0.7546771E-02  0.1151372E+00
         21   -1    0    0  501  502  0.00000000000E+00  0.00000000000E+00  0.17891884673E+03  0.17891884673E+03  0.00000000000E+00 0.  1.
         21   -1    0    0  502  503 -0.00000000000E+00 -0.00000000000E+00 -0.57255817819E+03  0.57255817819E+03  0.00000000000E+00 0.  1.
          6    1    1    2  501    0  0.93119489789E+02 -0.25178598337E+02  0.98322524240E+02  0.22113688061E+03  0.17300000000E+03 0.  1.
         -6    1    1    2    0  503 -0.93119489789E+02  0.25178598337E+02 -0.49196185570E+03  0.53034014430E+03  0.17300000000E+03 0.  1.
<mgrwt>
<rscale>  2 0.19807625E+03</rscale>
<asrwt>0</asrwt>
<pdfrwt beam="1">  1       21 0.27525977E-01 0.19807625E+03</pdfrwt>
<pdfrwt beam="2">  1       21 0.88085872E-01 0.19807625E+03</pdfrwt>
<totfact> 0.13852859E+04</totfact>
</mgrwt>
</event>
<event>
 4    1  0.4017302E+000  0.3060166E+03  0.7546771E-02  0.1082271E+00
         21   -1    0    0  501  502  0.00000000000E+00  0.00000000000E+00  0.16812364880E+04  0.16812364880E+04  0.00000000000E+00 0.  1.
         21   -1    0    0  502  503 -0.00000000000E+00 -0.00000000000E+00 -0.61000040768E+02  0.61000040768E+02  0.00000000000E+00 0. -1.
          6    1    1    2  501    0  0.27954561606E+02  0.25086985906E+03  0.10668742693E+04  0.11098949726E+04  0.17300000000E+03 0.  1.
         -6    1    1    2    0  503 -0.27954561606E+02 -0.25086985906E+03  0.55336217796E+03  0.63234155620E+03  0.17300000000E+03 0. -1.
<mgrwt>
<rscale>  2 0.30601657E+03</rscale>
<asrwt>0</asrwt>
<pdfrwt beam="1">  1       21 0.25865173E+00 0.30601657E+03</pdfrwt>
<pdfrwt beam="2">  1       21 0.93846229E-02 0.30601657E+03</pdfrwt>
<totfact> 0.48837607E+03</totfact>
</mgrwt>
</event>
<event>
 4    1  0.4017302E+000  0.2191413E+03  0.7546771E-02  0.1134525E+00
         21   -1    0    0  501  502  0.00000000000E+00  0.00000000000E+00  0.90555578101E+02  0.90555578101E+02  0.00000000000E+00 0. -1.
         21   -1    0    0  502  503 -0.00000000000E+00 -0.00000000000E+00 -0.68331772207E+03  0.68331772207E+03  0.00000000000E+00 0. -1.
          6    1    1    2  501    0 -0.61671824799E+02 -0.11954291105E+03 -0.11328499390E+03  0.24669092282E+03  0.17300000000E+03 0. -1.
         -6    1    1    2    0  503  0.61671824799E+02  0.11954291105E+03 -0.47947715006E+03  0.52718237735E+03  0.17300000000E+03 0. -1.
<mgrwt>
<rscale>  2 0.21914133E+03</rscale>
<asrwt>0</asrwt>
<pdfrwt beam="1">  1       21 0.13931627E-01 0.21914133E+03</pdfrwt>
<pdfrwt beam="2">  1       21 0.10512580E+00 0.21914133E+03</pdfrwt>
<totfact> 0.32205862E+04</totfact>
</mgrwt>
</event>
<event>
 4    1  0.4017302E+000  0.1849456E+03  0.7546771E-02  0.1163101E+00
         21   -1    0    0  503  502  0.00000000000E+00  0.00000000000E+00  0.13691933421E+03  0.13691933421E+03  0.00000000000E+00 0. -1.
         21   -1    0    0  501  503 -0.00000000000E+00 -0.00000000000E+00 -0.87909815282E+03  0.87909815282E+03  0.00000000000E+00 0. -1.
          6    1    1    2  501    0  0.57286385137E+02  0.31529973603E+02 -0.80089754739E+03  0.82197430043E+03  0.17300000000E+03 0. -1.
         -6    1    1    2    0  502 -0.57286385137E+02 -0.31529973603E+02  0.58718728778E+02  0.19404318660E+03  0.17300000000E+03 0. -1.
<mgrwt>
<rscale>  2 0.18494558E+03</rscale>
<asrwt>0</asrwt>
<pdfrwt beam="1">  1       21 0.21064513E-01 0.18494558E+03</pdfrwt>
<pdfrwt beam="2">  1       21 0.13524587E+00 0.18494558E+03</pdfrwt>
<totfact> 0.82392699E+03</totfact>
</mgrwt>
</event>
<event>
 4    1  0.4017302E+000  0.2179839E+03  0.7546771E-02  0.1135395E+00
         21   -1    0    0  503  502  0.00000000000E+00  0.00000000000E+00  0.39113116111E+03  0.39113116111E+03  0.00000000000E+00 0. -1.
         21   -1    0    0  501  503 -0.00000000000E+00 -0.00000000000E+00 -0.16009303849E+03  0.16009303849E+03  0.00000000000E+00 0. -1.
          6    1    1    2  501    0 -0.11040526236E+03 -0.73475489722E+02  0.25086498071E+03  0.33234050023E+03  0.17300000000E+03 0.  1.
         -6    1    1    2    0  502  0.11040526236E+03  0.73475489722E+02 -0.19826858099E+02  0.21888369937E+03  0.17300000000E+03 0.  1.
<mgrwt>
<rscale>  2 0.21798387E+03</rscale>
<asrwt>0</asrwt>
<pdfrwt beam="1">  1       21 0.60174025E-01 0.21798387E+03</pdfrwt>
<pdfrwt beam="2">  1       21 0.24629698E-01 0.21798387E+03</pdfrwt>
<totfact> 0.39620125E+04</totfact>
</mgrwt>
</event>
<event>
 4    1  0.4017302E+000  0.2330810E+03  0.7546771E-02  0.1124490E+00
         21   -1    0    0  501  502  0.00000000000E+00  0.00000000000E+00  0.52225703424E+03  0.52225703424E+03  0.00000000000E+00 0.  1.
         21   -1    0    0  502  503 -0.00000000000E+00 -0.00000000000E+00 -0.16163208737E+03  0.16163208737E+03  0.00000000000E+00 0. -1.
          6    1    1    2  501    0  0.25687566412E+02  0.15407106605E+03  0.38445683987E+03  0.44959293387E+03  0.17300000000E+03 0.  1.
         -6    1    1    2    0  503 -0.25687566412E+02 -0.15407106605E+03 -0.23831892995E+02  0.23429618773E+03  0.17300000000E+03 0. -1.
<mgrwt>
<rscale>  2 0.23308098E+03</rscale>
<asrwt>0</asrwt>
<pdfrwt beam="1">  1       21 0.80347235E-01 0.23308098E+03</pdfrwt>
<pdfrwt beam="2">  1       21 0.24866475E-01 0.23308098E+03</pdfrwt>
<totfact> 0.20364116E+04</totfact>
</mgrwt>
</event>
<event>
 4    1  0.4017302E+000  0.1803814E+03  0.7546771E-02  0.1167434E+00
         21   -1    0    0  503  502  0.00000000000E+00  0.00000000000E+00  0.80458134151E+03  0.80458134151E+03  0.00000000000E+00 0.  1.
         21   -1    0    0  501  503 -0.00000000000E+00 -0.00000000000E+00 -0.42833021406E+02  0.42833021406E+02  0.00000000000E+00 0. -1.
          6    1    1    2  501    0  0.31734636973E+01  0.50974288116E+02  0.28072910267E+03  0.33368589722E+03  0.17300000000E+03 0. -1.
         -6    1    1    2    0  502 -0.31734636973E+01 -0.50974288116E+02  0.48101921744E+03  0.51372846570E+03  0.17300000000E+03 0.  1.
<mgrwt>
<rscale>  2 0.18038140E+03</rscale>
<asrwt>0</asrwt>
<pdfrwt beam="1">  1       21 0.12378173E+00 0.18038140E+03</pdfrwt>
<pdfrwt beam="2">  1       21 0.65896962E-02 0.18038140E+03</pdfrwt>
<totfact> 0.82528785E+04</totfact>
</mgrwt>
</event>
<event>
 4    1  0.4017302E+000  0.2865710E+03  0.7546771E-02  0.1092153E+00
         21   -1    0    0  501  502  0.00000000000E+00  0.00000000000E+00  0.12143239850E+04  0.12143239850E+04  0.00000000000E+00 0. -1.
         21   -1    0    0  502  503 -0.00000000000E+00 -0.00000000000E+00 -0.12760265513E+03  0.12760265513E+03  0.00000000000E+00 0.  1.
          6    1    1    2  501    0 -0.22775539784E+03 -0.17928718162E+02  0.10033532615E+04  0.10434753124E+04  0.17300000000E+03 0. -1.
         -6    1    1    2    0  503  0.22775539784E+03  0.17928718162E+02  0.83368068284E+02  0.29845132767E+03  0.17300000000E+03 0.  1.
<mgrwt>
<rscale>  2 0.28657104E+03</rscale>
<asrwt>0</asrwt>
<pdfrwt beam="1">  1       21 0.18681907E+00 0.28657104E+03</pdfrwt>
<pdfrwt beam="2">  1       21 0.19631179E-01 0.28657104E+03</pdfrwt>
<totfact> 0.36365663E+03</totfact>
</mgrwt>
</event>
<event>
 4    1  0.4017302E+000  0.2134881E+03  0.7546771E-02  0.1138833E+00
         21   -1    0    0  501  502  0.00000000000E+00  0.00000000000E+00  0.40580352450E+03  0.40580352450E+03  0.00000000000E+00 0. -1.
         21   -1    0    0  502  503 -0.00000000000E+00 -0.00000000000E+00 -0.25740549493E+03  0.25740549493E+03  0.00000000000E+00 0. -1.
          6    1    1    2  501    0 -0.11616142237E+03  0.46418632066E+02  0.32316122275E+03  0.38731168500E+03  0.17300000000E+03 0. -1.
         -6    1    1    2    0  503  0.11616142237E+03 -0.46418632066E+02 -0.17476319318E+03  0.27589733442E+03  0.17300000000E+03 0. -1.
<mgrwt>
<rscale>  2 0.21348809E+03</rscale>
<asrwt>0</asrwt>
<pdfrwt beam="1">  1       21 0.62431311E-01 0.21348809E+03</pdfrwt>
<pdfrwt beam="2">  1       21 0.39600846E-01 0.21348809E+03</pdfrwt>
<totfact> 0.14430087E+04</totfact>
</mgrwt>
</event>
<event>
 4    1  0.4017302E+000  0.2140962E+03  0.7546771E-02  0.1138363E+00
         21   -1    0    0  501  502  0.00000000000E+00  0.00000000000E+00  0.16283568288E+03  0.16283568288E+03  0.00000000000E+00 0. -1.
         21   -1    0    0  502  503 -0.00000000000E+00 -0.00000000000E+00 -0.12857929151E+04  0.12857929151E+04  0.00000000000E+00 0.  1.
          6    1    1    2  501    0 -0.11517659532E+03  0.51405629092E+02  0.78658706203E+02  0.22808853297E+03  0.17300000000E+03 0. -1.
         -6    1    1    2    0  503  0.11517659532E+03 -0.51405629092E+02 -0.12016159384E+04  0.12205400650E+04  0.17300000000E+03 0.  1.
<mgrwt>
<rscale>  2 0.21409621E+03</rscale>
<asrwt>0</asrwt>
<pdfrwt beam="1">  1       21 0.25051643E-01 0.21409621E+03</pdfrwt>
<pdfrwt beam="2">  1       21 0.19781430E+00 0.21409621E+03</pdfrwt>
<totfact> 0.20481644E+03</totfact>
</mgrwt>
</event>
<event>
 4    1  0.4017302E+000  0.1964904E+03  0.7546771E-02  0.1152734E+00
         21   -1    0    0  503  502  0.00000000000E+00  0.00000000000E+00  0.93676320368E+03  0.93676320368E+03  0.00000000000E+00 0. -1.
         21   -1    0    0  501  503 -0.00000000000E+00 -0.00000000000E+00 -0.59157145654E+02  0.59157145654E+02  0.00000000000E+00 0.  1.
          6    1    1    2  501    0  0.72796582984E+02  0.58139001789E+02  0.16456296625E+03  0.25629954328E+03  0.17300000000E+03 0.  1.
         -6    1    1    2    0  502 -0.72796582984E+02 -0.58139001789E+02  0.71304309177E+03  0.73962080606E+03  0.17300000000E+03 0. -1.
<mgrwt>
<rscale>  2 0.19649042E+03</rscale>
<asrwt>0</asrwt>
<pdfrwt beam="1">  1       21 0.14411740E+00 0.19649042E+03</pdfrwt>
<pdfrwt beam="2">  1       21 0.91011000E-02 0.19649042E+03</pdfrwt>
<totfact> 0.31717642E+04</totfact>
</mgrwt>
</event>
<event>
 4    1  0.4017302E+000  0.1793437E+03  0.7546771E-02  0.1168440E+00
         21   -1    0    0  503  502  0.00000000000E+00  0.00000000000E+00  0.65177164139E+03  0.65177164139E+03  0.00000000000E+00 0. -1.
         21   -1    0    0  501  503 -0.00000000000E+00 -0.00000000000E+00 -0.82990905167E+02  0.82990905167E+02  0.00000000000E+00 0. -1.
          6    1    1    2  501    0 -0.20875870369E+01  0.47231525467E+02  0.50483441546E+02  0.18631358750E+03  0.17300000000E+03 0. -1.
         -6    1    1    2    0  502  0.20875870369E+01 -0.47231525467E+02  0.51829729468E+03  0.54844895905E+03  0.17300000000E+03 0. -1.
<mgrwt>
<rscale>  2 0.17934373E+03</rscale>
<asrwt>0</asrwt>
<pdfrwt beam="1">  1       21 0.10027256E+00 0.17934373E+03</pdfrwt>
<pdfrwt beam="2">  1       21 0.12767832E-01 0.17934373E+03</pdfrwt>
<totfact> 0.43124594E+04</totfact>
</mgrwt>
</event>
<event>
 4    1  0.4017302E+000  0.1913722E+03  0.7546771E-02  0.1157229E+00
         21   -1    0    0  503  502  0.00000000000E+00  0.00000000000E+00  0.21217449359E+03  0.21217449359E+03  0.00000000000E+00 0. -1.
         21   -1    0    0  501  503 -0.00000000000E+00 -0.00000000000E+00 -0.37127023185E+03  0.37127023185E+03  0.00000000000E+00 0. -1.
          6    1    1    2  501    0 -0.81796013660E+02 -0.19361732132E+01 -0.29294110837E+03  0.34991117386E+03  0.17300000000E+03 0. -1.
         -6    1    1    2    0  502  0.81796013660E+02  0.19361732132E+01  0.13384537010E+03  0.23353355158E+03  0.17300000000E+03 0. -1.
<mgrwt>
<rscale>  2 0.19137225E+03</rscale>
<asrwt>0</asrwt>
<pdfrwt beam="1">  1       21 0.32642230E-01 0.19137225E+03</pdfrwt>
<pdfrwt beam="2">  1       21 0.57118496E-01 0.19137225E+03</pdfrwt>
<totfact> 0.26022243E+04</totfact>
</mgrwt>
</event>
<event>
 4    1  0.4017302E+000  0.2505367E+03  0.7546771E-02  0.1112966E+00
         21   -1    0    0  501  502  0.00000000000E+00  0.00000000000E+00  0.25267285128E+03  0.25267285128E+03  0.00000000000E+00 0. -1.
         21   -1    0    0  502  503 -0.00000000000E+00 -0.00000000000E+00 -0.26994472254E+03  0.26994472254E+03  0.00000000000E+00 0. -1.
          6    1    1    2  501    0 -0.17550569735E+03 -0.45137361915E+02  0.65154434044E+02  0.25887010549E+03  0.17300000000E+03 0. -1.
         -6    1    1    2    0  503  0.17550569735E+03  0.45137361915E+02 -0.82426305310E+02  0.26374746833E+03  0.17300000000E+03 0. -1.
<mgrwt>
<rscale>  2 0.25053669E+03</rscale>
<asrwt>0</asrwt>
<pdfrwt beam="1">  1       21 0.38872746E-01 0.25053669E+03</pdfrwt>
<pdfrwt beam="2">  1       21 0.41529957E-01 0.25053669E+03</pdfrwt>
<totfact> 0.34638428E+04</totfact>
</mgrwt>
</event>
<event>
 4    1  0.4017302E+000  0.1828959E+03  0.7546771E-02  0.1165029E+00
         21   -1    0    0  501  502  0.00000000000E+00  0.00000000000E+00  0.14164819966E+03  0.14164819966E+03  0.00000000000E+00 0. -1.
         21   -1    0    0  502  503 -0.00000000000E+00 -0.00000000000E+00 -0.33744994605E+03  0.33744994605E+03  0.00000000000E+00 0.  1.
          6    1    1    2  501    0 -0.13103174171E+02 -0.57881072492E+02  0.33344495428E+02  0.18591064279E+03  0.17300000000E+03 0. -1.
         -6    1    1    2    0  503  0.13103174171E+02  0.57881072492E+02 -0.22914624182E+03  0.29318750292E+03  0.17300000000E+03 0.  1.
<mgrwt>
<rscale>  2 0.18289590E+03</rscale>
<asrwt>0</asrwt>
<pdfrwt beam="1">  1       21 0.21792031E-01 0.18289590E+03</pdfrwt>
<pdfrwt beam="2">  1       21 0.51915376E-01 0.18289590E+03</pdfrwt>
<totfact> 0.69508799E+04</totfact>
</mgrwt>
</event>
<event>
 4    1  0.4017302E+000  0.1963354E+03  0.7546771E-02  0.1152868E+00
         21   -1    0    0  503  502  0.00000000000E+00  0.00000000000E+00  0.25305909428E+03  0.25305909428E+03  0.00000000000E+00 0.  1.
         21   -1    0    0  501  503 -0.00000000000E+00 -0.00000000000E+00 -0.22910672132E+03  0.22910672132E+03  0.00000000000E+00 0. -1.
          6    1    1    2  501    0  0.72192050698E+02 -0.58368608518E+02 -0.12758749064E+03  0.23414985461E+03  0.17300000000E+03 0. -1.
         -6    1    1    2    0  502 -0.72192050698E+02  0.58368608518E+02  0.15153986360E+03  0.24801596099E+03  0.17300000000E+03 0.  1.
<mgrwt>
<rscale>  2 0.19633539E+03</rscale>
<asrwt>0</asrwt>
<pdfrwt beam="1">  1       21 0.38932168E-01 0.19633539E+03</pdfrwt>
<pdfrwt beam="2">  1       21 0.35247188E-01 0.19633539E+03</pdfrwt>
<totfact> 0.49277170E+04</totfact>
</mgrwt>
</event>
<event>
 4    1  0.4017302E+000  0.2455483E+03  0.7546771E-02  0.1116151E+00
         21   -1    0    0  503  502  0.00000000000E+00  0.00000000000E+00  0.25593805355E+03  0.25593805355E+03  0.00000000000E+00 0. -1.
         21   -1    0    0  501  503 -0.00000000000E+00 -0.00000000000E+00 -0.39670356018E+03  0.39670356018E+03  0.00000000000E+00 0.  1.
          6    1    1    2  501    0  0.13385136775E+03 -0.11157419386E+03 -0.27834796905E+03  0.37117594380E+03  0.17300000000E+03 0.  1.
         -6    1    1    2    0  502 -0.13385136775E+03  0.11157419386E+03  0.13758246242E+03  0.28146566993E+03  0.17300000000E+03 0. -1.
<mgrwt>
<rscale>  2 0.24554834E+03</rscale>
<asrwt>0</asrwt>
<pdfrwt beam="1">  1       21 0.39375085E-01 0.24554834E+03</pdfrwt>
<pdfrwt beam="2">  1       21 0.61031317E-01 0.24554834E+03</pdfrwt>
<totfact> 0.15060582E+04</totfact>
</mgrwt>
</event>
<event>
 4    1  0.4017302E+000  0.2226693E+03  0.7546771E-02  0.1131909E+00
         21   -1    0    0  503  502  0.00000000000E+00  0.00000000000E+00  0.21791000225E+04  0.21791000225E+04  0.00000000000E+00 0.  1.
         21   -1    0    0  501  503 -0.00000000000E+00 -0.00000000000E+00 -0.37109624623E+02  0.37109624623E+02  0.00000000000E+00 0. -1.
          6    1    1    2  501    0  0.13964862652E+03 -0.12282706319E+02  0.38177184873E+03  0.44196306209E+03  0.17300000000E+03 0. -1.
         -6    1    1    2    0  502 -0.13964862652E+03  0.12282706319E+02  0.17602185492E+04  0.17742465851E+04  0.17300000000E+03 0.  1.
<mgrwt>
<rscale>  2 0.22266927E+03</rscale>
<asrwt>0</asrwt>
<pdfrwt beam="1">  1       21 0.33524606E+00 0.22266927E+03</pdfrwt>
<pdfrwt beam="2">  1       21 0.57091747E-02 0.22266927E+03</pdfrwt>
<totfact> 0.44226119E+03</totfact>
</mgrwt>
</event>
<event>
 4    1  0.4017302E+000  0.1897194E+03  0.7546771E-02  0.1158715E+00
         21   -1    0    0  503  502  0.00000000000E+00  0.00000000000E+00  0.13980834546E+04  0.13980834546E+04  0.00000000000E+00 0.  1.
         21   -1    0    0  501  503 -0.00000000000E+00 -0.00000000000E+00 -0.72090370484E+02  0.72090370484E+02  0.00000000000E+00 0.  1.
          6    1    1    2  501    0  0.75470425508E+02  0.19201103895E+02  0.73605024525E+02  0.20349733942E+03  0.17300000000E+03 0.  1.
         -6    1    1    2    0  502 -0.75470425508E+02 -0.19201103895E+02  0.12523880596E+04  0.12666764857E+04  0.17300000000E+03 0.  1.
<mgrwt>
<rscale>  2 0.18971944E+03</rscale>
<asrwt>0</asrwt>
<pdfrwt beam="1">  1       21 0.21508974E+00 0.18971944E+03</pdfrwt>
<pdfrwt beam="2">  1       21 0.11090827E-01 0.18971944E+03</pdfrwt>
<totfact> 0.73046238E+03</totfact>
</mgrwt>
</event>
<event>
 4    1  0.4017302E+000  0.1757414E+03  0.7546771E-02  0.1171989E+00
         21   -1    0    0  501  502  0.00000000000E+00  0.00000000000E+00  0.85722677055E+02  0.85722677055E+02  0.00000000000E+00 0. -1.
         21   -1    0    0  502  503 -0.00000000000E+00 -0.00000000000E+00 -0.60215921063E+03  0.60215921063E+03  0.00000000000E+00 0. -1.
          6    1    1    2  501    0  0.30624042219E+02  0.42650952586E+01 -0.40237332940E+02  0.18028884037E+03  0.17300000000E+03 0. -1.
         -6    1    1    2    0  503 -0.30624042219E+02 -0.42650952586E+01 -0.47619920064E+03  0.50759304732E+03  0.17300000000E+03 0. -1.
<mgrwt>
<rscale>  2 0.17574135E+03</rscale>
<asrwt>0</asrwt>
<pdfrwt beam="1">  1       21 0.13188104E-01 0.17574135E+03</pdfrwt>
<pdfrwt beam="2">  1       21 0.92639877E-01 0.17574135E+03</pdfrwt>
<totfact> 0.49073059E+04</totfact>
</mgrwt>
</event>
<event>
 4    1  0.4017302E+000  0.2407292E+03  0.7546771E-02  0.1119308E+00
         21   -1    0    0  503  502  0.00000000000E+00  0.00000000000E+00  0.38007523996E+03  0.38007523996E+03  0.00000000000E+00 0.  1.
         21   -1    0    0  501  503 -0.00000000000E+00 -0.00000000000E+00 -0.74087705560E+03  0.74087705560E+03  0.00000000000E+00 0.  1.
          6    1    1    2  501    0  0.12592214704E+03 -0.11029583337E+03 -0.67988599496E+03  0.72124581393E+03  0.17300000000E+03 0.  1.
         -6    1    1    2    0  502 -0.12592214704E+03  0.11029583337E+03  0.31908417931E+03  0.39970648164E+03  0.17300000000E+03 0.  1.
<mgrwt>
<rscale>  2 0.24072922E+03</rscale>
<asrwt>0</asrwt>
<pdfrwt beam="1">  1       21 0.58473115E-01 0.24072922E+03</pdfrwt>
<pdfrwt beam="2">  1       21 0.11398108E+00 0.24072922E+03</pdfrwt>
<totfact> 0.15733526E+03</totfact>
</mgrwt>
</event>
<event>
 4    1  0.4017302E+000  0.1831982E+03  0.7546771E-02  0.1164743E+00
         21   -1    0    0  503  502  0.00000000000E+00  0.00000000000E+00  0.84575954806E+02  0.84575954806E+02  0.00000000000E+00 0.  1.
         21   -1    0    0  501  503 -0.00000000000E+00 -0.00000000000E+00 -0.42241503580E+03  0.42241503580E+03  0.00000000000E+00 0.  1.
          6    1    1    2  501    0 -0.54877961282E+02 -0.24919503424E+02 -0.23131661067E+03  0.29507447646E+03  0.17300000000E+03 0.  1.
         -6    1    1    2    0  502  0.54877961282E+02  0.24919503424E+02 -0.10652247033E+03  0.21191651415E+03  0.17300000000E+03 0.  1.
<mgrwt>
<rscale>  2 0.18319818E+03</rscale>
<asrwt>0</asrwt>
<pdfrwt beam="1">  1       21 0.13011686E-01 0.18319818E+03</pdfrwt>
<pdfrwt beam="2">  1       21 0.64986926E-01 0.18319818E+03</pdfrwt>
<totfact> 0.11104298E+05</totfact>
</mgrwt>
</event>
<event>
 4    1  0.4017302E+000  0.2562391E+03  0.7546771E-02  0.1109424E+00
         21   -1    0    0  503  502  0.00000000000E+00  0.00000000000E+00  0.27272767294E+03  0.27272767294E+03  0.00000000000E+00 0. -1.
         21   -1    0    0  501  503 -0.00000000000E+00 -0.00000000000E+00 -0.40624326985E+03  0.40624326985E+03  0.00000000000E+00 0. -1.
          6    1    1    2  501    0  0.13332310083E+03 -0.13399403906E+03  0.14992369017E+03  0.29687634563E+03  0.17300000000E+03 0. -1.
         -6    1    1    2    0  502 -0.13332310083E+03  0.13399403906E+03 -0.28343928708E+03  0.38209459716E+03  0.17300000000E+03 0. -1.
<mgrwt>
<rscale>  2 0.25623905E+03</rscale>
<asrwt>0</asrwt>
<pdfrwt beam="1">  1       21 0.41958104E-01 0.25623905E+03</pdfrwt>
<pdfrwt beam="2">  1       21 0.62498964E-01 0.25623905E+03</pdfrwt>
<totfact> 0.12496642E+04</totfact>
</mgrwt>
</event>
<event>
 4    1  0.4017302E+000  0.1807903E+03  0.7546771E-02  0.1167040E+00
         21   -1    0    0  501  502  0.00000000000E+00  0.00000000000E+00  0.39634379692E+02  0.39634379692E+02  0.00000000000E+00 0. -1.
         21   -1    0    0  502  503 -0.00000000000E+00 -0.00000000000E+00 -0.85782924920E+03  0.85782924920E+03  0.00000000000E+00 0.  1.
          6    1    1    2  501    0 -0.52149715669E+02 -0.60448578293E+01 -0.49732690815E+03  0.52916839165E+03  0.17300000000E+03 0.  1.
         -6    1    1    2    0  503  0.52149715669E+02  0.60448578293E+01 -0.32086796136E+03  0.36829523725E+03  0.17300000000E+03 0. -1.
<mgrwt>
<rscale>  2 0.18079030E+03</rscale>
<asrwt>0</asrwt>
<pdfrwt beam="1">  1       21 0.60975970E-02 0.18079030E+03</pdfrwt>
<pdfrwt beam="2">  1       21 0.13197373E+00 0.18079030E+03</pdfrwt>
<totfact> 0.80261895E+04</totfact>
</mgrwt>
</event>
<event>
 4    1  0.4017302E+000  0.1777353E+03  0.7546771E-02  0.1170013E+00
         21   -1    0    0  501  502  0.00000000000E+00  0.00000000000E+00  0.80742243949E+03  0.80742243949E+03  0.00000000000E+00 0.  1.
         21   -1    0    0  502  503 -0.00000000000E+00 -0.00000000000E+00 -0.12548026657E+03  0.12548026657E+03  0.00000000000E+00 0.  1.
          6    1    1    2  501    0 -0.32441650056E+02 -0.24664940319E+02  0.72793001431E+03  0.74931430366E+03  0.17300000000E+03 0.  1.
         -6    1    1    2    0  503  0.32441650056E+02  0.24664940319E+02 -0.45987841397E+02  0.18358840240E+03  0.17300000000E+03 0.  1.
<mgrwt>
<rscale>  2 0.17773525E+03</rscale>
<asrwt>0</asrwt>
<pdfrwt beam="1">  1       21 0.12421883E+00 0.17773525E+03</pdfrwt>
<pdfrwt beam="2">  1       21 0.19304657E-01 0.17773525E+03</pdfrwt>
<totfact> 0.12075902E+04</totfact>
</mgrwt>
</event>
<event>
 4    1  0.4017302E+000  0.1918822E+03  0.7546771E-02  0.1156775E+00
         21   -1    0    0  501  502  0.00000000000E+00  0.00000000000E+00  0.22213553674E+03  0.22213553674E+03  0.00000000000E+00 0. -1.
         21   -1    0    0  502  503 -0.00000000000E+00 -0.00000000000E+00 -0.16650507370E+03  0.16650507370E+03  0.00000000000E+00 0.  1.
          6    1    1    2  501    0 -0.20826249044E+02  0.80349625882E+02  0.14722829330E+02  0.19244624375E+03  0.17300000000E+03 0.  1.
         -6    1    1    2    0  503  0.20826249044E+02 -0.80349625882E+02  0.40907633704E+02  0.19619436670E+03  0.17300000000E+03 0.  1.
<mgrwt>
<rscale>  2 0.19188224E+03</rscale>
<asrwt>0</asrwt>
<pdfrwt beam="1">  1       21 0.34174698E-01 0.19188224E+03</pdfrwt>
<pdfrwt beam="2">  1       21 0.25616165E-01 0.19188224E+03</pdfrwt>
<totfact> 0.11932410E+05</totfact>
</mgrwt>
</event>
<event>
 4    1  0.4017302E+000  0.2048680E+03  0.7546771E-02  0.1145696E+00
         21   -1    0    0  501  502  0.00000000000E+00  0.00000000000E+00  0.16549767071E+03  0.16549767071E+03  0.00000000000E+00 0.  1.
         21   -1    0    0  502  503 -0.00000000000E+00 -0.00000000000E+00 -0.36331363497E+03  0.36331363497E+03  0.00000000000E+00 0. -1.
          6    1    1    2  501    0  0.45198060589E+02  0.99995188472E+02  0.46387429706E+02  0.21005403122E+03  0.17300000000E+03 0.  1.
         -6    1    1    2    0  503 -0.45198060589E+02 -0.99995188472E+02 -0.24420339396E+03  0.31875727446E+03  0.17300000000E+03 0.  1.
<mgrwt>
<rscale>  2 0.20486801E+03</rscale>
<asrwt>0</asrwt>
<pdfrwt beam="1">  1       21 0.25461180E-01 0.20486801E+03</pdfrwt>
<pdfrwt beam="2">  1       21 0.55894406E-01 0.20486801E+03</pdfrwt>
<totfact> 0.43819837E+04</totfact>
</mgrwt>
</event>
<event>
 4    1  0.4017302E+000  0.1883634E+03  0.7546771E-02  0.1159946E+00
         21   -1    0    0  501  502  0.00000000000E+00  0.00000000000E+00  0.23756065043E+03  0.23756065043E+03  0.00000000000E+00 0.  1.
         21   -1    0    0  502  503 -0.00000000000E+00 -0.00000000000E+00 -0.20795554493E+03  0.20795554493E+03  0.00000000000E+00 0.  1.
          6    1    1    2  501    0  0.51731248122E+02  0.53624979138E+02  0.13305245742E+03  0.23061595098E+03  0.17300000000E+03 0.  1.
         -6    1    1    2    0  503 -0.51731248122E+02 -0.53624979138E+02 -0.10344735191E+03  0.21490024439E+03  0.17300000000E+03 0.  1.
<mgrwt>
<rscale>  2 0.18836337E+03</rscale>
<asrwt>0</asrwt>
<pdfrwt beam="1">  1       21 0.36547792E-01 0.18836337E+03</pdfrwt>
<pdfrwt beam="2">  1       21 0.31993161E-01 0.18836337E+03</pdfrwt>
<totfact> 0.67965761E+04</totfact>
</mgrwt>
</event>
<event>
 4    1  0.4017302E+000  0.1847099E+03  0.7546771E-02  0.1163321E+00
         21   -1    0    0  501  502  0.00000000000E+00  0.00000000000E+00  0.49138030618E+03  0.49138030618E+03  0.00000000000E+00 0. -1.
         21   -1    0    0  502  503 -0.00000000000E+00 -0.00000000000E+00 -0.89786996610E+02  0.89786996610E+02  0.00000000000E+00 0. -1.
          6    1    1    2  501    0 -0.23738240971E+02 -0.60210061927E+02  0.33915163597E+03  0.38618853922E+03  0.17300000000E+03 0. -1.
         -6    1    1    2    0  503  0.23738240971E+02  0.60210061927E+02  0.62441673596E+02  0.19497876357E+03  0.17300000000E+03 0. -1.
<mgrwt>
<rscale>  2 0.18470992E+03</rscale>
<asrwt>0</asrwt>
<pdfrwt beam="1">  1       21 0.75596969E-01 0.18470992E+03</pdfrwt>
<pdfrwt beam="2">  1       21 0.13813384E-01 0.18470992E+03</pdfrwt>
<totfact> 0.71405731E+04</totfact>
</mgrwt>
</event>
<event>
 4    1  0.4017302E+000  0.2307563E+03  0.7546771E-02  0.1126109E+00
         21   -1    0    0  501  502  0.00000000000E+00  0.00000000000E+00  0.55544069264E+02  0.55544069264E+02  0.00000000000E+00 0.  1.
         21   -1    0    0  502  503 -0.00000000000E+00 -0.00000000000E+00 -0.13933932973E+04  0.13933932973E+04  0.00000000000E+00 0. -1.
          6    1    1    2  501    0 -0.14009610358E+03 -0.60766236535E+02 -0.26426577766E+03  0.35083451224E+03  0.17300000000E+03 0.  1.
         -6    1    1    2    0  503  0.14009610358E+03  0.60766236535E+02 -0.10735834503E+04  0.10981028543E+04  0.17300000000E+03 0. -1.
<mgrwt>
<rscale>  2 0.23075626E+03</rscale>
<asrwt>0</asrwt>
<pdfrwt beam="1">  1       21 0.85452417E-02 0.23075626E+03</pdfrwt>
<pdfrwt beam="2">  1       21 0.21436819E+00 0.23075626E+03</pdfrwt>
<totfact> 0.11304460E+04</totfact>
</mgrwt>
</event>
<event>
 4    1  0.4017302E+000  0.1843271E+03  0.7546771E-02  0.1163680E+00
         21   -1    0    0  501  502  0.00000000000E+00  0.00000000000E+00  0.26138250742E+03  0.26138250742E+03  0.00000000000E+00 0. -1.
         21   -1    0    0  502  503 -0.00000000000E+00 -0.00000000000E+00 -0.15049845817E+03  0.15049845817E+03  0.00000000000E+00 0. -1.
          6    1    1    2  501    0  0.29985704651E+02 -0.56110037973E+02  0.13146902557E+03  0.22640800235E+03  0.17300000000E+03 0. -1.
         -6    1    1    2    0  503 -0.29985704651E+02  0.56110037973E+02 -0.20584976321E+02  0.18547296324E+03  0.17300000000E+03 0. -1.
<mgrwt>
<rscale>  2 0.18432710E+03</rscale>
<asrwt>0</asrwt>
<pdfrwt beam="1">  1       21 0.40212693E-01 0.18432710E+03</pdfrwt>
<pdfrwt beam="2">  1       21 0.23153609E-01 0.18432710E+03</pdfrwt>
<totfact> 0.10476419E+05</totfact>
</mgrwt>
</event>
<event>
 4    1  0.4017302E+000  0.2586258E+03  0.7546771E-02  0.1107972E+00
         21   -1    0    0  501  502  0.00000000000E+00  0.00000000000E+00  0.12724980841E+04  0.12724980841E+04  0.00000000000E+00 0.  1.
         21   -1    0    0  502  503 -0.00000000000E+00 -0.00000000000E+00 -0.42544917635E+03  0.42544917635E+03  0.00000000000E+00 0.  1.
          6    1    1    2  501    0 -0.10095365186E+03  0.16360515623E+03  0.12183248138E+04  0.12454728575E+04  0.17300000000E+03 0.  1.
         -6    1    1    2    0  503  0.10095365186E+03 -0.16360515623E+03 -0.37127590599E+03  0.45247440297E+03  0.17300000000E+03 0.  1.
<mgrwt>
<rscale>  2 0.25862577E+03</rscale>
<asrwt>0</asrwt>
<pdfrwt beam="1">  1       21 0.19576893E+00 0.25862577E+03</pdfrwt>
<pdfrwt beam="2">  1       21 0.65453720E-01 0.25862577E+03</pdfrwt>
<totfact> 0.28522501E+02</totfact>
</mgrwt>
</event>
<event>
 4    1  0.4017302E+000  0.2883168E+03  0.7546771E-02  0.1091231E+00
         21   -1    0    0  501  502  0.00000000000E+00  0.00000000000E+00  0.13448733569E+04  0.13448733569E+04  0.00000000000E+00 0. -1.
         21   -1    0    0  502  503 -0.00000000000E+00 -0.00000000000E+00 -0.73467356709E+02  0.73467356709E+02  0.00000000000E+00 0. -1.
          6    1    1    2  501    0  0.22618218252E+03  0.45157228650E+02  0.91819382081E+03  0.96239620092E+03  0.17300000000E+03 0. -1.
         -6    1    1    2    0  503 -0.22618218252E+03 -0.45157228650E+02  0.35321217943E+03  0.45594451273E+03  0.17300000000E+03 0. -1.
<mgrwt>
<rscale>  2 0.28831676E+03</rscale>
<asrwt>0</asrwt>
<pdfrwt beam="1">  1       21 0.20690358E+00 0.28831676E+03</pdfrwt>
<pdfrwt beam="2">  1       21 0.11302671E-01 0.28831676E+03</pdfrwt>
<totfact> 0.73839101E+03</totfact>
</mgrwt>
</event>
<event>
 4    1  0.4017302E+000  0.2211868E+03  0.7546771E-02  0.1133001E+00
         21   -1    0    0  503  502  0.00000000000E+00  0.00000000000E+00  0.12648620293E+04  0.12648620293E+04  0.00000000000E+00 0.  1.
         21   -1    0    0  501  503 -0.00000000000E+00 -0.00000000000E+00 -0.39223229395E+02  0.39223229395E+02  0.00000000000E+00 0.  1.
          6    1    1    2  501    0 -0.63290765447E+02 -0.12242901459E+03  0.53601259934E+03  0.57985609530E+03  0.17300000000E+03 0.  1.
         -6    1    1    2    0  502  0.63290765447E+02  0.12242901459E+03  0.68962620057E+03  0.72422916340E+03  0.17300000000E+03 0.  1.
<mgrwt>
<rscale>  2 0.22118676E+03</rscale>
<asrwt>0</asrwt>
<pdfrwt beam="1">  1       21 0.19459413E+00 0.22118676E+03</pdfrwt>
<pdfrwt beam="2">  1       21 0.60343439E-02 0.22118676E+03</pdfrwt>
<totfact> 0.27864738E+04</totfact>
</mgrwt>
</event>
<event>
 4    1  0.4017302E+000  0.2241929E+03  0.7546771E-02  0.1130795E+00
         21   -1    0    0  501  502  0.00000000000E+00  0.00000000000E+00  0.23021226379E+03  0.23021226379E+03  0.00000000000E+00 0. -1.
         21   -1    0    0  502  503 -0.00000000000E+00 -0.00000000000E+00 -0.25215100643E+03  0.25215100643E+03  0.00000000000E+00 0. -1.
          6    1    1    2  501    0  0.12105681462E+03  0.75357037442E+02  0.77359319505E+02  0.23716428857E+03  0.17300000000E+03 0. -1.
         -6    1    1    2    0  503 -0.12105681462E+03 -0.75357037442E+02 -0.99298062146E+02  0.24519898165E+03  0.17300000000E+03 0. -1.
<mgrwt>
<rscale>  2 0.22419285E+03</rscale>
<asrwt>0</asrwt>
<pdfrwt beam="1">  1       21 0.35417272E-01 0.22419285E+03</pdfrwt>
<pdfrwt beam="2">  1       21 0.38792462E-01 0.22419285E+03</pdfrwt>
<totfact> 0.48521243E+04</totfact>
</mgrwt>
</event>
<event>
 4    1  0.4017302E+000  0.1748998E+03  0.7546771E-02  0.1172832E+00
         21   -1    0    0  501  502  0.00000000000E+00  0.00000000000E+00  0.12823726930E+04  0.12823726930E+04  0.00000000000E+00 0.  1.
         21   -1    0    0  502  503 -0.00000000000E+00 -0.00000000000E+00 -0.39242584962E+02  0.39242584962E+02  0.00000000000E+00 0.  1.
          6    1    1    2  501    0 -0.17668582626E+02  0.18675317383E+02  0.10353675299E+04  0.10500361272E+04  0.17300000000E+03 0.  1.
         -6    1    1    2    0  503  0.17668582626E+02 -0.18675317383E+02  0.20776257810E+03  0.27157915080E+03  0.17300000000E+03 0.  1.
<mgrwt>
<rscale>  2 0.17489982E+03</rscale>
<asrwt>0</asrwt>
<pdfrwt beam="1">  1       21 0.19728807E+00 0.17489982E+03</pdfrwt>
<pdfrwt beam="2">  1       21 0.60373218E-02 0.17489982E+03</pdfrwt>
<totfact> 0.27628509E+04</totfact>
</mgrwt>
</event>
<event>
 4    1  0.4017302E+000  0.2521903E+03  0.7546771E-02  0.1111928E+00
         21   -1    0    0  501  502  0.00000000000E+00  0.00000000000E+00  0.33135713395E+03  0.33135713395E+03  0.00000000000E+00 0.  1.
         21   -1    0    0  502  503 -0.00000000000E+00 -0.00000000000E+00 -0.20995767707E+03  0.20995767707E+03  0.00000000000E+00 0. -1.
          6    1    1    2  501    0 -0.18268520539E+03  0.17235927685E+02 -0.18592362064E+02  0.25287474646E+03  0.17300000000E+03 0. -1.
         -6    1    1    2    0  503  0.18268520539E+03 -0.17235927685E+02  0.13999181894E+03  0.28844006456E+03  0.17300000000E+03 0.  1.
<mgrwt>
<rscale>  2 0.25219033E+03</rscale>
<asrwt>0</asrwt>
<pdfrwt beam="1">  1       21 0.50978021E-01 0.25219033E+03</pdfrwt>
<pdfrwt beam="2">  1       21 0.32301181E-01 0.25219033E+03</pdfrwt>
<totfact> 0.32775561E+04</totfact>
</mgrwt>
</event>
<event>
 4    1  0.4017302E+000  0.1778557E+03  0.7546771E-02  0.1169895E+00
         21   -1    0    0  503  502  0.00000000000E+00  0.00000000000E+00  0.76198351103E+03  0.76198351103E+03  0.00000000000E+00 0.  1.
         21   -1    0    0  501  503 -0.00000000000E+00 -0.00000000000E+00 -0.15861253635E+03  0.15861253635E+03  0.00000000000E+00 0.  1.
          6    1    1    2  501    0  0.13800429715E+02 -0.38899698498E+02 -0.93814913887E+02  0.20108176564E+03  0.17300000000E+03 0.  1.
         -6    1    1    2    0  502 -0.13800429715E+02  0.38899698498E+02  0.69718588857E+03  0.71951428174E+03  0.17300000000E+03 0.  1.
<mgrwt>
<rscale>  2 0.17785567E+03</rscale>
<asrwt>0</asrwt>
<pdfrwt beam="1">  1       21 0.11722823E+00 0.17785567E+03</pdfrwt>
<pdfrwt beam="2">  1       21 0.24401929E-01 0.17785567E+03</pdfrwt>
<totfact> 0.89720631E+03</totfact>
</mgrwt>
</event>
<event>
 4    1  0.4017302E+000  0.2153482E+03  0.7546771E-02  0.1137399E+00
         21   -1    0    0  501  502  0.00000000000E+00  0.00000000000E+00  0.13985574053E+03  0.13985574053E+03  0.00000000000E+00 0.  1.
         21   -1    0    0  502  503 -0.00000000000E+00 -0.00000000000E+00 -0.44589486426E+03  0.44589486426E+03  0.00000000000E+00 0.  1.
          6    1    1    2  501    0 -0.74186297454E+02 -0.10460513941E+03 -0.47343554105E+01  0.21540022294E+03  0.17300000000E+03 0.  1.
         -6    1    1    2    0  503  0.74186297454E+02  0.10460513941E+03 -0.30130476832E+03  0.37035038185E+03  0.17300000000E+03 0.  1.
<mgrwt>
<rscale>  2 0.21534819E+03</rscale>
<asrwt>0</asrwt>
<pdfrwt beam="1">  1       21 0.21516267E-01 0.21534819E+03</pdfrwt>
<pdfrwt beam="2">  1       21 0.68599211E-01 0.21534819E+03</pdfrwt>
<totfact> 0.38539811E+04</totfact>
</mgrwt>
</event>
<event>
 4    1  0.4017302E+000  0.1844294E+03  0.7546771E-02  0.1163584E+00
         21   -1    0    0  503  502  0.00000000000E+00  0.00000000000E+00  0.26370871922E+03  0.26370871922E+03  0.00000000000E+00 0.  1.
         21   -1    0    0  501  503 -0.00000000000E+00 -0.00000000000E+00 -0.32819949464E+03  0.32819949464E+03  0.00000000000E+00 0.  1.
          6    1    1    2  501    0 -0.31473261545E+01 -0.63838135120E+02 -0.26282289624E+03  0.32107645187E+03  0.17300000000E+03 0.  1.
         -6    1    1    2    0  502  0.31473261545E+01  0.63838135120E+02  0.19833212081E+03  0.27083176199E+03  0.17300000000E+03 0.  1.
<mgrwt>
<rscale>  2 0.18442943E+03</rscale>
<asrwt>0</asrwt>
<pdfrwt beam="1">  1       21 0.40570572E-01 0.18442943E+03</pdfrwt>
<pdfrwt beam="2">  1       21 0.50492230E-01 0.18442943E+03</pdfrwt>
<totfact> 0.21957022E+04</totfact>
</mgrwt>
</event>
<event>
 4    1  0.4017302E+000  0.2122908E+03  0.7546771E-02  0.1139765E+00
         21   -1    0    0  503  502  0.00000000000E+00  0.00000000000E+00  0.91231158469E+03  0.91231158469E+03  0.00000000000E+00 0.  1.
         21   -1    0    0  501  503 -0.00000000000E+00 -0.00000000000E+00 -0.55657924734E+02  0.55657924734E+02  0.00000000000E+00 0.  1.
          6    1    1    2  501    0 -0.55594117120E+01  0.12291240973E+03  0.59062540702E+03  0.62761910339E+03  0.17300000000E+03 0.  1.
         -6    1    1    2    0  502  0.55594117120E+01 -0.12291240973E+03  0.26602825293E+03  0.34035040603E+03  0.17300000000E+03 0.  1.
<mgrwt>
<rscale>  2 0.21229076E+03</rscale>
<asrwt>0</asrwt>
<pdfrwt beam="1">  1       21 0.14035562E+00 0.21229076E+03</pdfrwt>
<pdfrwt beam="2">  1       21 0.85627583E-02 0.21229076E+03</pdfrwt>
<totfact> 0.37460660E+04</totfact>
</mgrwt>
</event>
<event>
 4    1  0.4017302E+000  0.1950911E+03  0.7546771E-02  0.1153948E+00
         21   -1    0    0  501  502  0.00000000000E+00  0.00000000000E+00  0.49883963013E+02  0.49883963013E+02  0.00000000000E+00 0. -1.
         21   -1    0    0  502  503 -0.00000000000E+00 -0.00000000000E+00 -0.12928474883E+04  0.12928474883E+04  0.00000000000E+00 0.  1.
          6    1    1    2  501    0 -0.67842946319E+02 -0.59404341894E+02 -0.19167965838E+03  0.27349887136E+03  0.17300000000E+03 0. -1.
         -6    1    1    2    0  503  0.67842946319E+02  0.59404341894E+02 -0.10512838669E+04  0.10692325800E+04  0.17300000000E+03 0.  1.
<mgrwt>
<rscale>  2 0.19509111E+03</rscale>
<asrwt>0</asrwt>
<pdfrwt beam="1">  1       21 0.76744572E-02 0.19509111E+03</pdfrwt>
<pdfrwt beam="2">  1       21 0.19889958E+00 0.19509111E+03</pdfrwt>
<totfact> 0.17570826E+04</totfact>
</mgrwt>
</event>
<event>
 4    1  0.4017302E+000  0.1785443E+03  0.7546771E-02  0.1169219E+00
         21   -1    0    0  501  502  0.00000000000E+00  0.00000000000E+00  0.93824026068E+02  0.93824026068E+02  0.00000000000E+00 0.  1.
         21   -1    0    0  502  503 -0.00000000000E+00 -0.00000000000E+00 -0.47325074665E+03  0.47325074665E+03  0.00000000000E+00 0. -1.
          6    1    1    2  501    0 -0.38579311349E+02  0.21464085560E+02 -0.39127916928E+02  0.18278146546E+03  0.17300000000E+03 0.  1.
         -6    1    1    2    0  503  0.38579311349E+02 -0.21464085560E+02 -0.34029880365E+03  0.38429330726E+03  0.17300000000E+03 0.  1.
<mgrwt>
<rscale>  2 0.17854431E+03</rscale>
<asrwt>0</asrwt>
<pdfrwt beam="1">  1       21 0.14434466E-01 0.17854431E+03</pdfrwt>
<pdfrwt beam="2">  1       21 0.72807807E-01 0.17854431E+03</pdfrwt>
<totfact> 0.71889152E+04</totfact>
</mgrwt>
</event>
<event>
 4    1  0.4017302E+000  0.1941131E+03  0.7546771E-02  0.1154803E+00
         21   -1    0    0  501  502  0.00000000000E+00  0.00000000000E+00  0.55509676534E+03  0.55509676534E+03  0.00000000000E+00 0. -1.
         21   -1    0    0  502  503 -0.00000000000E+00 -0.00000000000E+00 -0.97830661181E+02  0.97830661181E+02  0.00000000000E+00 0.  1.
          6    1    1    2  501    0  0.71395216816E+02  0.51513343155E+02  0.40926788550E+03  0.45296810441E+03  0.17300000000E+03 0. -1.
         -6    1    1    2    0  503 -0.71395216816E+02 -0.51513343155E+02  0.47998218660E+02  0.19995932212E+03  0.17300000000E+03 0.  1.
<mgrwt>
<rscale>  2 0.19411312E+03</rscale>
<asrwt>0</asrwt>
<pdfrwt beam="1">  1       21 0.85399500E-01 0.19411312E+03</pdfrwt>
<pdfrwt beam="2">  1       21 0.15050871E-01 0.19411312E+03</pdfrwt>
<totfact> 0.46185845E+04</totfact>
</mgrwt>
</event>
<event>
 4    1  0.4017302E+000  0.1858042E+03  0.7546771E-02  0.1162301E+00
         21   -1    0    0  501  502  0.00000000000E+00  0.00000000000E+00  0.45517783329E+02  0.45517783329E+02  0.00000000000E+00 0.  1.
         21   -1    0    0  502  503 -0.00000000000E+00 -0.00000000000E+00 -0.77358657846E+03  0.77358657846E+03  0.00000000000E+00 0.  1.
          6    1    1    2  501    0 -0.48334155447E+02 -0.47518416562E+02 -0.30675520959E+03  0.35863902340E+03  0.17300000000E+03 0. -1.
         -6    1    1    2    0  503  0.48334155447E+02  0.47518416562E+02 -0.42131358554E+03  0.46046533839E+03  0.17300000000E+03 0. -1.
<mgrwt>
<rscale>  2 0.18580417E+03</rscale>
<asrwt>0</asrwt>
<pdfrwt beam="1">  1       21 0.70027365E-02 0.18580417E+03</pdfrwt>
<pdfrwt beam="2">  1       21 0.11901331E+00 0.18580417E+03</pdfrwt>
<totfact> 0.81733562E+04</totfact>
</mgrwt>
</event>
<event>
 4    1  0.4017302E+000  0.1978658E+03  0.7546771E-02  0.1151552E+00
         21   -1    0    0  503  502  0.00000000000E+00  0.00000000000E+00  0.64879254621E+03  0.64879254621E+03  0.00000000000E+00 0.  1.
         21   -1    0    0  501  503 -0.00000000000E+00 -0.00000000000E+00 -0.60896294974E+02  0.60896294974E+02  0.00000000000E+00 0.  1.
          6    1    1    2  501    0  0.93359817671E+02 -0.22490727108E+02  0.26016213994E+03  0.32685658540E+03  0.17300000000E+03 0. -1.
         -6    1    1    2    0  502 -0.93359817671E+02  0.22490727108E+02  0.32773411129E+03  0.38283225578E+03  0.17300000000E+03 0. -1.
<mgrwt>
<rscale>  2 0.19786583E+03</rscale>
<asrwt>0</asrwt>
<pdfrwt beam="1">  1       21 0.99814233E-01 0.19786583E+03</pdfrwt>
<pdfrwt beam="2">  1       21 0.93686612E-02 0.19786583E+03</pdfrwt>
<totfact> 0.74881888E+04</totfact>
</mgrwt>
</event>
<event>
 4    1  0.4017302E+000  0.1839140E+03  0.7546771E-02  0.1164068E+00
         21   -1    0    0  503  502  0.00000000000E+00  0.00000000000E+00  0.13574625796E+03  0.13574625796E+03  0.00000000000E+00 0. -1.
         21   -1    0    0  501  503 -0.00000000000E+00 -0.00000000000E+00 -0.25312438548E+03  0.25312438548E+03  0.00000000000E+00 0. -1.
          6    1    1    2  501    0 -0.49386603190E+02  0.38162008373E+02 -0.34397623499E+02  0.18710310516E+03  0.17300000000E+03 0. -1.
         -6    1    1    2    0  502  0.49386603190E+02 -0.38162008373E+02 -0.82980504012E+02  0.20176753828E+03  0.17300000000E+03 0. -1.
<mgrwt>
<rscale>  2 0.18391404E+03</rscale>
<asrwt>0</asrwt>
<pdfrwt beam="1">  1       21 0.20884040E-01 0.18391404E+03</pdfrwt>
<pdfrwt beam="2">  1       21 0.38942213E-01 0.18391404E+03</pdfrwt>
<totfact> 0.13574414E+05</totfact>
</mgrwt>
</event>
<event>
 4    1  0.4017302E+000  0.1758915E+03  0.7546771E-02  0.1171840E+00
         21   -1    0    0  503  502  0.00000000000E+00  0.00000000000E+00  0.86353543194E+03  0.86353543194E+03  0.00000000000E+00 0.  1.
         21   -1    0    0  501  503 -0.00000000000E+00 -0.00000000000E+00 -0.39028005161E+02  0.39028005161E+02  0.00000000000E+00 0. -1.
          6    1    1    2  501    0 -0.29924143079E+02  0.10648036027E+02  0.28301084351E+03  0.33321610489E+03  0.17300000000E+03 0. -1.
         -6    1    1    2    0  502  0.29924143079E+02 -0.10648036027E+02  0.54149658326E+03  0.56934733221E+03  0.17300000000E+03 0.  1.
<mgrwt>
<rscale>  2 0.17589154E+03</rscale>
<asrwt>0</asrwt>
<pdfrwt beam="1">  1       21 0.13285159E+00 0.17589154E+03</pdfrwt>
<pdfrwt beam="2">  1       21 0.60043092E-02 0.17589154E+03</pdfrwt>
<totfact> 0.81231058E+04</totfact>
</mgrwt>
</event>
<event>
 4    1  0.4017302E+000  0.2351883E+03  0.7546771E-02  0.1123040E+00
         21   -1    0    0  501  502  0.00000000000E+00  0.00000000000E+00  0.88083147396E+03  0.88083147396E+03  0.00000000000E+00 0.  1.
         21   -1    0    0  502  503 -0.00000000000E+00 -0.00000000000E+00 -0.65909767980E+02  0.65909767980E+02  0.00000000000E+00 0. -1.
          6    1    1    2  501    0 -0.95402367371E+02  0.12760460323E+03  0.51033398698E+03  0.56192021207E+03  0.17300000000E+03 0. -1.
         -6    1    1    2    0  503  0.95402367371E+02 -0.12760460323E+03  0.30458771900E+03  0.38482102987E+03  0.17300000000E+03 0. -1.
<mgrwt>
<rscale>  2 0.23518832E+03</rscale>
<asrwt>0</asrwt>
<pdfrwt beam="1">  1       21 0.13551253E+00 0.23518832E+03</pdfrwt>
<pdfrwt beam="2">  1       21 0.10139965E-01 0.23518832E+03</pdfrwt>
<totfact> 0.30065040E+04</totfact>
</mgrwt>
</event>
<event>
 4    1  0.4017302E+000  0.1863580E+03  0.7546771E-02  0.1161788E+00
         21   -1    0    0  503  502  0.00000000000E+00  0.00000000000E+00  0.69589698739E+02  0.69589698739E+02  0.00000000000E+00 0. -1.
         21   -1    0    0  501  503 -0.00000000000E+00 -0.00000000000E+00 -0.49933676456E+03  0.49933676456E+03  0.00000000000E+00 0. -1.
          6    1    1    2  501    0 -0.59758635633E+02  0.35059881172E+02 -0.20815126045E+03  0.27938546316E+03  0.17300000000E+03 0. -1.
         -6    1    1    2    0  502  0.59758635633E+02 -0.35059881172E+02 -0.22159580537E+03  0.28954100013E+03  0.17300000000E+03 0. -1.
<mgrwt>
<rscale>  2 0.18635796E+03</rscale>
<asrwt>0</asrwt>
<pdfrwt beam="1">  1       21 0.10706107E-01 0.18635796E+03</pdfrwt>
<pdfrwt beam="2">  1       21 0.76821042E-01 0.18635796E+03</pdfrwt>
<totfact> 0.10861624E+05</totfact>
</mgrwt>
</event>
<event>
 4    1  0.4017302E+000  0.2416900E+03  0.7546771E-02  0.1118672E+00
         21   -1    0    0  501  502  0.00000000000E+00  0.00000000000E+00  0.70402645075E+03  0.70402645075E+03  0.00000000000E+00 0.  1.
         21   -1    0    0  502  503 -0.00000000000E+00 -0.00000000000E+00 -0.88555960420E+02  0.88555960420E+02  0.00000000000E+00 0. -1.
          6    1    1    2  501    0 -0.15192004085E+03 -0.73521053151E+02  0.40725308187E+03  0.47357060378E+03  0.17300000000E+03 0.  1.
         -6    1    1    2    0  503  0.15192004085E+03  0.73521053151E+02  0.20821740846E+03  0.31901180739E+03  0.17300000000E+03 0.  1.
<mgrwt>
<rscale>  2 0.24168998E+03</rscale>
<asrwt>0</asrwt>
<pdfrwt beam="1">  1       21 0.10831176E+00 0.24168998E+03</pdfrwt>
<pdfrwt beam="2">  1       21 0.13623994E-01 0.24168998E+03</pdfrwt>
<totfact> 0.30849149E+04</totfact>
</mgrwt>
</event>
<event>
 4    1  0.4017302E+000  0.2989918E+03  0.7546771E-02  0.1085746E+00
         21   -1    0    0  503  502  0.00000000000E+00  0.00000000000E+00  0.23288991155E+02  0.23288991155E+02  0.00000000000E+00 0.  1.
         21   -1    0    0  501  503 -0.00000000000E+00 -0.00000000000E+00 -0.38619945825E+04  0.38619945825E+04  0.00000000000E+00 0. -1.
          6    1    1    2  501    0  0.23328404136E+03 -0.71032689613E+02 -0.17680118445E+04  0.17931151578E+04  0.17300000000E+03 0.  1.
         -6    1    1    2    0  502 -0.23328404136E+03  0.71032689613E+02 -0.20706937468E+04  0.20921684158E+04  0.17300000000E+03 0. -1.
<mgrwt>
<rscale>  2 0.29899178E+03</rscale>
<asrwt>0</asrwt>
<pdfrwt beam="1">  1       21 0.35829203E-02 0.29899178E+03</pdfrwt>
<pdfrwt beam="2">  1       21 0.59415325E+00 0.29899178E+03</pdfrwt>
<totfact> 0.15497013E+02</totfact>
</mgrwt>
</event>
<event>
 4    1  0.4017302E+000  0.1966788E+03  0.7546771E-02  0.1152572E+00
         21   -1    0    0  503  502  0.00000000000E+00  0.00000000000E+00  0.16619854738E+03  0.16619854738E+03  0.00000000000E+00 0.  1.
         21   -1    0    0  501  503 -0.00000000000E+00 -0.00000000000E+00 -0.37035998953E+03  0.37035998953E+03  0.00000000000E+00 0. -1.
          6    1    1    2  501    0 -0.93364024534E+02  0.60583040053E+01 -0.26561230971E+03  0.33050331798E+03  0.17300000000E+03 0. -1.
         -6    1    1    2    0  502  0.93364024534E+02 -0.60583040053E+01  0.61450867561E+02  0.20605521893E+03  0.17300000000E+03 0.  1.
<mgrwt>
<rscale>  2 0.19667878E+03</rscale>
<asrwt>0</asrwt>
<pdfrwt beam="1">  1       21 0.25569007E-01 0.19667878E+03</pdfrwt>
<pdfrwt beam="2">  1       21 0.56978460E-01 0.19667878E+03</pdfrwt>
<totfact> 0.41901750E+04</totfact>
</mgrwt>
</event>
<event>
 4    1  0.4017302E+000  0.2118904E+03  0.7546771E-02  0.1140078E+00
         21   -1    0    0  501  502  0.00000000000E+00  0.00000000000E+00  0.12317272004E+03  0.12317272004E+03  0.00000000000E+00 0.  1.
         21   -1    0    0  502  503 -0.00000000000E+00 -0.00000000000E+00 -0.37056186720E+03  0.37056186720E+03  0.00000000000E+00 0.  1.
          6    1    1    2  501    0 -0.11497494913E+03  0.41824822406E+02 -0.15524583803E+03  0.26267627400E+03  0.17300000000E+03 0.  1.
         -6    1    1    2    0  503  0.11497494913E+03 -0.41824822406E+02 -0.92143309134E+02  0.23105831324E+03  0.17300000000E+03 0.  1.
<mgrwt>
<rscale>  2 0.21189043E+03</rscale>
<asrwt>0</asrwt>
<pdfrwt beam="1">  1       21 0.18949650E-01 0.21189043E+03</pdfrwt>
<pdfrwt beam="2">  1       21 0.57009517E-01 0.21189043E+03</pdfrwt>
<totfact> 0.73156669E+04</totfact>
</mgrwt>
</event>
<event>
 4    1  0.4017302E+000  0.2021506E+03  0.7546771E-02  0.1147937E+00
         21   -1    0    0  503  502  0.00000000000E+00  0.00000000000E+00  0.33451973647E+03  0.33451973647E+03  0.00000000000E+00 0.  1.
         21   -1    0    0  501  503 -0.00000000000E+00 -0.00000000000E+00 -0.30331748930E+03  0.30331748930E+03  0.00000000000E+00 0.  1.
          6    1    1    2  501    0  0.75734380502E+02  0.72112098128E+02 -0.23086632718E+03  0.30686171497E+03  0.17300000000E+03 0.  1.
         -6    1    1    2    0  502 -0.75734380502E+02 -0.72112098128E+02  0.26206857436E+03  0.33097551081E+03  0.17300000000E+03 0.  1.
<mgrwt>
<rscale>  2 0.20215057E+03</rscale>
<asrwt>0</asrwt>
<pdfrwt beam="1">  1       21 0.51464575E-01 0.20215057E+03</pdfrwt>
<pdfrwt beam="2">  1       21 0.46664229E-01 0.20215057E+03</pdfrwt>
<totfact> 0.15680043E+04</totfact>
</mgrwt>
</event>
<event>
 4    1  0.4017302E+000  0.2295258E+03  0.7546771E-02  0.1126974E+00
         21   -1    0    0  503  502  0.00000000000E+00  0.00000000000E+00  0.24894949408E+03  0.24894949408E+03  0.00000000000E+00 0. -1.
         21   -1    0    0  501  503 -0.00000000000E+00 -0.00000000000E+00 -0.30741514890E+03  0.30741514890E+03  0.00000000000E+00 0.  1.
          6    1    1    2  501    0 -0.71141936367E+02  0.13301105428E+03 -0.18452297406E+03  0.29450100785E+03  0.17300000000E+03 0.  1.
         -6    1    1    2    0  502  0.71141936367E+02 -0.13301105428E+03  0.12605731924E+03  0.26186363513E+03  0.17300000000E+03 0. -1.
<mgrwt>
<rscale>  2 0.22952585E+03</rscale>
<asrwt>0</asrwt>
<pdfrwt beam="1">  1       21 0.38299922E-01 0.22952585E+03</pdfrwt>
<pdfrwt beam="2">  1       21 0.47294638E-01 0.22952585E+03</pdfrwt>
<totfact> 0.27570125E+04</totfact>
</mgrwt>
</event>
<event>
 4    1  0.4017302E+000  0.2569744E+03  0.7546771E-02  0.1108975E+00
         21   -1    0    0  503  502  0.00000000000E+00  0.00000000000E+00  0.35617577137E+03  0.35617577137E+03  0.00000000000E+00 0.  1.
         21   -1    0    0  501  503 -0.00000000000E+00 -0.00000000000E+00 -0.20555269089E+03  0.20555269089E+03  0.00000000000E+00 0.  1.
          6    1    1    2  501    0  0.76933778746E+02 -0.17374703516E+03  0.16324934922E+03  0.30444406475E+03  0.17300000000E+03 0.  1.
         -6    1    1    2    0  502 -0.76933778746E+02  0.17374703516E+03 -0.12626268737E+02  0.25728439751E+03  0.17300000000E+03 0.  1.
<mgrwt>
<rscale>  2 0.25697439E+03</rscale>
<asrwt>0</asrwt>
<pdfrwt beam="1">  1       21 0.54796272E-01 0.25697439E+03</pdfrwt>
<pdfrwt beam="2">  1       21 0.31623491E-01 0.25697439E+03</pdfrwt>
<totfact> 0.29271189E+04</totfact>
</mgrwt>
</event>
<event>
 4    1  0.4017302E+000  0.2176564E+03  0.7546771E-02  0.1135642E+00
         21   -1    0    0  501  502  0.00000000000E+00  0.00000000000E+00  0.29400503987E+03  0.29400503987E+03  0.00000000000E+00 0. -1.
         21   -1    0    0  502  503 -0.00000000000E+00 -0.00000000000E+00 -0.45515676685E+03  0.45515676685E+03  0.00000000000E+00 0.  1.
          6    1    1    2  501    0 -0.37857398402E+02 -0.12653907125E+03  0.22048571326E+03  0.30981973616E+03  0.17300000000E+03 0. -1.
         -6    1    1    2    0  503  0.37857398402E+02  0.12653907125E+03 -0.38163744024E+03  0.43934207055E+03  0.17300000000E+03 0.  1.
<mgrwt>
<rscale>  2 0.21765642E+03</rscale>
<asrwt>0</asrwt>
<pdfrwt beam="1">  1       21 0.45231545E-01 0.21765642E+03</pdfrwt>
<pdfrwt beam="2">  1       21 0.70024118E-01 0.21765642E+03</pdfrwt>
<totfact> 0.85329589E+03</totfact>
</mgrwt>
</event>
<event>
 4    1  0.4017302E+000  0.1842592E+03  0.7546771E-02  0.1163743E+00
         21   -1    0    0  501  502  0.00000000000E+00  0.00000000000E+00  0.74246780165E+03  0.74246780165E+03  0.00000000000E+00 0.  1.
         21   -1    0    0  502  503 -0.00000000000E+00 -0.00000000000E+00 -0.48899612496E+02  0.48899612496E+02  0.00000000000E+00 0.  1.
          6    1    1    2  501    0  0.54806600085E+02 -0.31916928400E+02  0.24601066885E+03  0.30736412107E+03  0.17300000000E+03 0.  1.
         -6    1    1    2    0  503 -0.54806600085E+02  0.31916928400E+02  0.44755752030E+03  0.48400329308E+03  0.17300000000E+03 0.  1.
<mgrwt>
<rscale>  2 0.18425920E+03</rscale>
<asrwt>0</asrwt>
<pdfrwt beam="1">  1       21 0.11422581E+00 0.18425920E+03</pdfrwt>
<pdfrwt beam="2">  1       21 0.75230178E-02 0.18425920E+03</pdfrwt>
<totfact> 0.79884917E+04</totfact>
</mgrwt>
</event>
<event>
 4    1  0.4017302E+000  0.3045376E+03  0.7546771E-02  0.1082994E+00
         21   -1    0    0  503  502  0.00000000000E+00  0.00000000000E+00  0.20887358637E+03  0.20887358637E+03  0.00000000000E+00 0.  1.
         21   -1    0    0  501  503 -0.00000000000E+00 -0.00000000000E+00 -0.44410630990E+03  0.44410630990E+03  0.00000000000E+00 0.  1.
          6    1    1    2  501    0  0.18889229199E+02 -0.24991466153E+03 -0.12228119582E+03  0.32817043114E+03  0.17300000000E+03 0.  1.
         -6    1    1    2    0  502 -0.18889229199E+02  0.24991466153E+03 -0.11295152771E+03  0.32480946513E+03  0.17300000000E+03 0.  1.
<mgrwt>
<rscale>  2 0.30453759E+03</rscale>
<asrwt>0</asrwt>
<pdfrwt beam="1">  1       21 0.32134398E-01 0.30453759E+03</pdfrwt>
<pdfrwt beam="2">  1       21 0.68324048E-01 0.30453759E+03</pdfrwt>
<totfact> 0.17203389E+04</totfact>
</mgrwt>
</event>
<event>
 4    1  0.4017302E+000  0.2185553E+03  0.7546771E-02  0.1134965E+00
         21   -1    0    0  503  502  0.00000000000E+00  0.00000000000E+00  0.41987586666E+03  0.41987586666E+03  0.00000000000E+00 0. -1.
         21   -1    0    0  501  503 -0.00000000000E+00 -0.00000000000E+00 -0.12901550016E+03  0.12901550016E+03  0.00000000000E+00 0.  1.
          6    1    1    2  501    0  0.11606697535E+03 -0.66074820217E+02  0.51066898923E+02  0.22444209231E+03  0.17300000000E+03 0.  1.
         -6    1    1    2    0  502 -0.11606697535E+03  0.66074820217E+02  0.23979346759E+03  0.32444927451E+03  0.17300000000E+03 0. -1.
<mgrwt>
<rscale>  2 0.21855531E+03</rscale>
<asrwt>0</asrwt>
<pdfrwt beam="1">  1       21 0.64596287E-01 0.21855531E+03</pdfrwt>
<pdfrwt beam="2">  1       21 0.19848539E-01 0.21855531E+03</pdfrwt>
<totfact> 0.51089136E+04</totfact>
</mgrwt>
</event>
<event>
 4    1  0.4017302E+000  0.1896295E+03  0.7546771E-02  0.1158796E+00
         21   -1    0    0  501  502  0.00000000000E+00  0.00000000000E+00  0.80737908265E+02  0.80737908265E+02  0.00000000000E+00 0.  1.
         21   -1    0    0  502  503 -0.00000000000E+00 -0.00000000000E+00 -0.50880710439E+03  0.50880710439E+03  0.00000000000E+00 0.  1.
          6    1    1    2  501    0 -0.72637976125E+02  0.27460093874E+02 -0.10996213249E+03  0.21920538979E+03  0.17300000000E+03 0.  1.
         -6    1    1    2    0  503  0.72637976125E+02 -0.27460093874E+02 -0.31810706363E+03  0.37033962287E+03  0.17300000000E+03 0.  1.
<mgrwt>
<rscale>  2 0.18962946E+03</rscale>
<asrwt>0</asrwt>
<pdfrwt beam="1">  1       21 0.12421217E-01 0.18962946E+03</pdfrwt>
<pdfrwt beam="2">  1       21 0.78278016E-01 0.18962946E+03</pdfrwt>
<totfact> 0.79791302E+04</totfact>
</mgrwt>
</event>
<event>
 4    1  0.4017302E+000  0.1840617E+03  0.7546771E-02  0.1163929E+00
         21   -1    0    0  501  502  0.00000000000E+00  0.00000000000E+00  0.20325122719E+03  0.20325122719E+03  0.00000000000E+00 0.  1.
         21   -1    0    0  502  503 -0.00000000000E+00 -0.00000000000E+00 -0.20589540365E+03  0.20589540365E+03  0.00000000000E+00 0.  1.
          6    1    1    2  501    0  0.60640263406E+02 -0.16506674031E+02  0.87953409593E+02  0.20399635804E+03  0.17300000000E+03 0.  1.
         -6    1    1    2    0  503 -0.60640263406E+02  0.16506674031E+02 -0.90597586055E+02  0.20515027281E+03  0.17300000000E+03 0.  1.
<mgrwt>
<rscale>  2 0.18406171E+03</rscale>
<asrwt>0</asrwt>
<pdfrwt beam="1">  1       21 0.31269420E-01 0.18406171E+03</pdfrwt>
<pdfrwt beam="2">  1       21 0.31676216E-01 0.18406171E+03</pdfrwt>
<totfact> 0.94471438E+04</totfact>
</mgrwt>
</event>
<event>
 4    1  0.4017302E+000  0.1815758E+03  0.7546771E-02  0.1166287E+00
         21   -1    0    0  503  502  0.00000000000E+00  0.00000000000E+00  0.92592835141E+03  0.92592835141E+03  0.00000000000E+00 0.  1.
         21   -1    0    0  501  503 -0.00000000000E+00 -0.00000000000E+00 -0.64960225528E+02  0.64960225528E+02  0.00000000000E+00 0.  1.
          6    1    1    2  501    0 -0.40850008844E+02  0.37040947113E+02  0.97443456427E+02  0.20607033310E+03  0.17300000000E+03 0.  1.
         -6    1    1    2    0  502  0.40850008844E+02 -0.37040947113E+02  0.76352466945E+03  0.78481824383E+03  0.17300000000E+03 0.  1.
<mgrwt>
<rscale>  2 0.18157576E+03</rscale>
<asrwt>0</asrwt>
<pdfrwt beam="1">  1       21 0.14245051E+00 0.18157576E+03</pdfrwt>
<pdfrwt beam="2">  1       21 0.99938815E-02 0.18157576E+03</pdfrwt>
<totfact> 0.27981882E+04</totfact>
</mgrwt>
</event>
<event>
 4    1  0.4017302E+000  0.2011587E+03  0.7546771E-02  0.1148765E+00
         21   -1    0    0  501  502  0.00000000000E+00  0.00000000000E+00  0.69444725802E+03  0.69444725802E+03  0.00000000000E+00 0.  1.
         21   -1    0    0  502  503 -0.00000000000E+00 -0.00000000000E+00 -0.65688687267E+02  0.65688687267E+02  0.00000000000E+00 0. -1.
          6    1    1    2  501    0  0.69964971630E+02 -0.75104738215E+02  0.44211306474E+03  0.48572500551E+03  0.17300000000E+03 0.  1.
         -6    1    1    2    0  503 -0.69964971630E+02  0.75104738215E+02  0.18664550601E+03  0.27441093978E+03  0.17300000000E+03 0. -1.
<mgrwt>
<rscale>  2 0.20115869E+03</rscale>
<asrwt>0</asrwt>
<pdfrwt beam="1">  1       21 0.10683803E+00 0.20115869E+03</pdfrwt>
<pdfrwt beam="2">  1       21 0.10105952E-01 0.20115869E+03</pdfrwt>
<totfact> 0.55572672E+04</totfact>
</mgrwt>
</event>
<event>
 4    1  0.4017302E+000  0.1762297E+03  0.7546771E-02  0.1171503E+00
         21   -1    0    0  503  502  0.00000000000E+00  0.00000000000E+00  0.57681570969E+02  0.57681570969E+02  0.00000000000E+00 0. -1.
         21   -1    0    0  501  503 -0.00000000000E+00 -0.00000000000E+00 -0.60691880614E+03  0.60691880614E+03  0.00000000000E+00 0. -1.
          6    1    1    2  501    0 -0.24057393497E+02  0.23434025338E+02 -0.38625526247E+03  0.42455864084E+03  0.17300000000E+03 0.  1.
         -6    1    1    2    0  502  0.24057393497E+02 -0.23434025338E+02 -0.16298197270E+03  0.24004173627E+03  0.17300000000E+03 0.  1.
<mgrwt>
<rscale>  2 0.17622971E+03</rscale>
<asrwt>0</asrwt>
<pdfrwt beam="1">  1       21 0.88740877E-02 0.17622971E+03</pdfrwt>
<pdfrwt beam="2">  1       21 0.93372126E-01 0.17622971E+03</pdfrwt>
<totfact> 0.97228801E+04</totfact>
</mgrwt>
</event>
<event>
 4    1  0.4017302E+000  0.2034213E+03  0.7546771E-02  0.1146884E+00
         21   -1    0    0  501  502  0.00000000000E+00  0.00000000000E+00  0.72387530062E+02  0.72387530062E+02  0.00000000000E+00 0.  1.
         21   -1    0    0  502  503 -0.00000000000E+00 -0.00000000000E+00 -0.88079320953E+03  0.88079320953E+03  0.00000000000E+00 0.  1.
          6    1    1    2  501    0  0.99374283232E+01 -0.10654794843E+03 -0.12185189624E+03  0.23712465585E+03  0.17300000000E+03 0.  1.
         -6    1    1    2    0  503 -0.99374283232E+01  0.10654794843E+03 -0.68655378323E+03  0.71605608374E+03  0.17300000000E+03 0.  1.
<mgrwt>
<rscale>  2 0.20342128E+03</rscale>
<asrwt>0</asrwt>
<pdfrwt beam="1">  1       21 0.11136543E-01 0.20342128E+03</pdfrwt>
<pdfrwt beam="2">  1       21 0.13550664E+00 0.20342128E+03</pdfrwt>
<totfact> 0.25913216E+04</totfact>
</mgrwt>
</event>
<event>
 4    1  0.4017302E+000  0.2679099E+03  0.7546771E-02  0.1102482E+00
         21   -1    0    0  501  502  0.00000000000E+00  0.00000000000E+00  0.40009470065E+03  0.40009470065E+03  0.00000000000E+00 0.  1.
         21   -1    0    0  502  503 -0.00000000000E+00 -0.00000000000E+00 -0.19922861601E+03  0.19922861601E+03  0.00000000000E+00 0. -1.
          6    1    1    2  501    0 -0.20426539996E+03 -0.11060957403E+02  0.19497766911E+03  0.33134874355E+03  0.17300000000E+03 0. -1.
         -6    1    1    2    0  503  0.20426539996E+03  0.11060957403E+02  0.58884155191E+01  0.26797457311E+03  0.17300000000E+03 0. -1.
<mgrwt>
<rscale>  2 0.26790987E+03</rscale>
<asrwt>0</asrwt>
<pdfrwt beam="1">  1       21 0.61553030E-01 0.26790987E+03</pdfrwt>
<pdfrwt beam="2">  1       21 0.30650557E-01 0.26790987E+03</pdfrwt>
<totfact> 0.24125298E+04</totfact>
</mgrwt>
</event>
<event>
 4    1  0.4017302E+000  0.1744280E+03  0.7546771E-02  0.1173307E+00
         21   -1    0    0  501  502  0.00000000000E+00  0.00000000000E+00  0.67125347445E+03  0.67125347445E+03  0.00000000000E+00 0.  1.
         21   -1    0    0  502  503 -0.00000000000E+00 -0.00000000000E+00 -0.31454036977E+03  0.31454036977E+03  0.00000000000E+00 0.  1.
          6    1    1    2  501    0 -0.17729753870E+01  0.22203384354E+02  0.63435897508E+03  0.65790306504E+03  0.17300000000E+03 0.  1.
         -6    1    1    2    0  503  0.17729753870E+01 -0.22203384354E+02 -0.27764587041E+03  0.32789077918E+03  0.17300000000E+03 0.  1.
<mgrwt>
<rscale>  2 0.17442802E+03</rscale>
<asrwt>0</asrwt>
<pdfrwt beam="1">  1       21 0.10326976E+00 0.17442802E+03</pdfrwt>
<pdfrwt beam="2">  1       21 0.48390826E-01 0.17442802E+03</pdfrwt>
<totfact> 0.31514515E+03</totfact>
</mgrwt>
</event>
<event>
 4    1  0.4017302E+000  0.1872302E+03  0.7546771E-02  0.1160984E+00
         21   -1    0    0  503  502  0.00000000000E+00  0.00000000000E+00  0.86242754496E+03  0.86242754496E+03  0.00000000000E+00 0. -1.
         21   -1    0    0  501  503 -0.00000000000E+00 -0.00000000000E+00 -0.40695663079E+02  0.40695663079E+02  0.00000000000E+00 0. -1.
          6    1    1    2  501    0 -0.43803566880E+02 -0.56633768559E+02  0.39525906317E+03  0.43736125027E+03  0.17300000000E+03 0. -1.
         -6    1    1    2    0  502  0.43803566880E+02  0.56633768559E+02  0.42647281871E+03  0.46576195778E+03  0.17300000000E+03 0. -1.
<mgrwt>
<rscale>  2 0.18723017E+03</rscale>
<asrwt>0</asrwt>
<pdfrwt beam="1">  1       21 0.13268115E+00 0.18723017E+03</pdfrwt>
<pdfrwt beam="2">  1       21 0.62608719E-02 0.18723017E+03</pdfrwt>
<totfact> 0.75445562E+04</totfact>
</mgrwt>
</event>
<event>
 4    1  0.4017302E+000  0.1838644E+03  0.7546771E-02  0.1164115E+00
         21   -1    0    0  503  502  0.00000000000E+00  0.00000000000E+00  0.20401506551E+03  0.20401506551E+03  0.00000000000E+00 0. -1.
         21   -1    0    0  501  503 -0.00000000000E+00 -0.00000000000E+00 -0.16604684201E+03  0.16604684201E+03  0.00000000000E+00 0. -1.
          6    1    1    2  501    0  0.39853323645E+02 -0.47841753464E+02  0.27391287459E+02  0.18589352708E+03  0.17300000000E+03 0.  1.
         -6    1    1    2    0  502 -0.39853323645E+02  0.47841753464E+02  0.10576936046E+02  0.18416838045E+03  0.17300000000E+03 0.  1.
<mgrwt>
<rscale>  2 0.18386441E+03</rscale>
<asrwt>0</asrwt>
<pdfrwt beam="1">  1       21 0.31386933E-01 0.18386441E+03</pdfrwt>
<pdfrwt beam="2">  1       21 0.25545668E-01 0.18386441E+03</pdfrwt>
<totfact> 0.14219771E+05</totfact>
</mgrwt>
</event>
<event>
 4    1  0.4017302E+000  0.2478416E+03  0.7546771E-02  0.1114677E+00
         21   -1    0    0  501  502  0.00000000000E+00  0.00000000000E+00  0.42775227952E+03  0.42775227952E+03  0.00000000000E+00 0. -1.
         21   -1    0    0  502  503 -0.00000000000E+00 -0.00000000000E+00 -0.22021239416E+03  0.22021239416E+03  0.00000000000E+00 0.  1.
          6    1    1    2  501    0  0.17502186805E+03  0.29390603058E+02  0.29486454390E+03  0.38518899400E+03  0.17300000000E+03 0. -1.
         -6    1    1    2    0  503 -0.17502186805E+03 -0.29390603058E+02 -0.87324658534E+02  0.26277567968E+03  0.17300000000E+03 0.  1.
<mgrwt>
<rscale>  2 0.24784161E+03</rscale>
<asrwt>0</asrwt>
<pdfrwt beam="1">  1       21 0.65808043E-01 0.24784161E+03</pdfrwt>
<pdfrwt beam="2">  1       21 0.33878830E-01 0.24784161E+03</pdfrwt>
<totfact> 0.17259998E+04</totfact>
</mgrwt>
</event>
<event>
 4    1  0.4017302E+000  0.2339093E+03  0.7546771E-02  0.1123918E+00
         21   -1    0    0  501  502  0.00000000000E+00  0.00000000000E+00  0.97248864179E+02  0.97248864179E+02  0.00000000000E+00 0. -1.
         21   -1    0    0  502  503 -0.00000000000E+00 -0.00000000000E+00 -0.66731269735E+03  0.66731269735E+03  0.00000000000E+00 0. -1.
          6    1    1    2  501    0 -0.15715096629E+03  0.93889782322E+01 -0.43645366881E+03  0.49518217267E+03  0.17300000000E+03 0. -1.
         -6    1    1    2    0  503  0.15715096629E+03 -0.93889782322E+01 -0.13361016437E+03  0.26937938886E+03  0.17300000000E+03 0. -1.
<mgrwt>
<rscale>  2 0.23390934E+03</rscale>
<asrwt>0</asrwt>
<pdfrwt beam="1">  1       21 0.14961364E-01 0.23390934E+03</pdfrwt>
<pdfrwt beam="2">  1       21 0.10266349E+00 0.23390934E+03</pdfrwt>
<totfact> 0.29716976E+04</totfact>
</mgrwt>
</event>
<event>
 4    1  0.4017302E+000  0.2170915E+03  0.7546771E-02  0.1136070E+00
         21   -1    0    0  501  502  0.00000000000E+00  0.00000000000E+00  0.11249694479E+04  0.11249694479E+04  0.00000000000E+00 0.  1.
         21   -1    0    0  502  503 -0.00000000000E+00 -0.00000000000E+00 -0.58465598155E+02  0.58465598155E+02  0.00000000000E+00 0. -1.
          6    1    1    2  501    0  0.41706013919E+01  0.13108136696E+03  0.84828429487E+03  0.87562261483E+03  0.17300000000E+03 0.  1.
         -6    1    1    2    0  503 -0.41706013919E+01 -0.13108136696E+03  0.21821955484E+03  0.30781243119E+03  0.17300000000E+03 0. -1.
<mgrwt>
<rscale>  2 0.21709150E+03</rscale>
<asrwt>0</asrwt>
<pdfrwt beam="1">  1       21 0.17307221E+00 0.21709150E+03</pdfrwt>
<pdfrwt beam="2">  1       21 0.89947083E-02 0.21709150E+03</pdfrwt>
<totfact> 0.19524995E+04</totfact>
</mgrwt>
</event>
<event>
 4    1  0.4017302E+000  0.2005621E+03  0.7546771E-02  0.1149266E+00
         21   -1    0    0  501  502  0.00000000000E+00  0.00000000000E+00  0.12268925808E+03  0.12268925808E+03  0.00000000000E+00 0.  1.
         21   -1    0    0  502  503 -0.00000000000E+00 -0.00000000000E+00 -0.35009053294E+03  0.35009053294E+03  0.00000000000E+00 0.  1.
          6    1    1    2  501    0 -0.64671649994E+02 -0.78190344998E+02 -0.54135303384E+02  0.20773970116E+03  0.17300000000E+03 0.  1.
         -6    1    1    2    0  503  0.64671649994E+02  0.78190344998E+02 -0.17326597147E+03  0.26504008986E+03  0.17300000000E+03 0.  1.
<mgrwt>
<rscale>  2 0.20056209E+03</rscale>
<asrwt>0</asrwt>
<pdfrwt beam="1">  1       21 0.18875271E-01 0.20056209E+03</pdfrwt>
<pdfrwt beam="2">  1       21 0.53860081E-01 0.20056209E+03</pdfrwt>
<totfact> 0.83541601E+04</totfact>
</mgrwt>
</event>
<event>
 4    1  0.4017302E+000  0.2997262E+03  0.7546771E-02  0.1085378E+00
         21   -1    0    0  501  502  0.00000000000E+00  0.00000000000E+00  0.64146708301E+03  0.64146708301E+03  0.00000000000E+00 0. -1.
         21   -1    0    0  502  503 -0.00000000000E+00 -0.00000000000E+00 -0.14272517929E+03  0.14272517929E+03  0.00000000000E+00 0.  1.
          6    1    1    2  501    0  0.16529409273E+03  0.18051214360E+03  0.30307820550E+03  0.42625364483E+03  0.17300000000E+03 0.  1.
         -6    1    1    2    0  503 -0.16529409273E+03 -0.18051214360E+03  0.19566369822E+03  0.35793861747E+03  0.17300000000E+03 0.  1.
<mgrwt>
<rscale>  2 0.29972616E+03</rscale>
<asrwt>0</asrwt>
<pdfrwt beam="1">  1       21 0.98687242E-01 0.29972616E+03</pdfrwt>
<pdfrwt beam="2">  1       21 0.21957720E-01 0.29972616E+03</pdfrwt>
<totfact> 0.15498290E+04</totfact>
</mgrwt>
</event>
<event>
 4    1  0.4017302E+000  0.2195505E+03  0.7546771E-02  0.1134219E+00
         21   -1    0    0  503  502  0.00000000000E+00  0.00000000000E+00  0.29921752929E+03  0.29921752929E+03  0.00000000000E+00 0. -1.
         21   -1    0    0  501  503 -0.00000000000E+00 -0.00000000000E+00 -0.17880501373E+03  0.17880501373E+03  0.00000000000E+00 0.  1.
          6    1    1    2  501    0  0.48028961432E+02  0.12635925164E+03  0.13542710870E+03  0.25795918938E+03  0.17300000000E+03 0.  1.
         -6    1    1    2    0  502 -0.48028961432E+02 -0.12635925164E+03 -0.15014593144E+02  0.22006335365E+03  0.17300000000E+03 0.  1.
<mgrwt>
<rscale>  2 0.21955054E+03</rscale>
<asrwt>0</asrwt>
<pdfrwt beam="1">  1       21 0.46033466E-01 0.21955054E+03</pdfrwt>
<pdfrwt beam="2">  1       21 0.27508464E-01 0.21955054E+03</pdfrwt>
<totfact> 0.56315416E+04</totfact>
</mgrwt>
</event>
<event>
 4    1  0.4017302E+000  0.3776949E+03  0.7546771E-02  0.1051789E+00
         21   -1    0    0  503  502  0.00000000000E+00  0.00000000000E+00  0.47576096036E+03  0.47576096036E+03  0.00000000000E+00 0.  1.
         21   -1    0    0  501  503 -0.00000000000E+00 -0.00000000000E+00 -0.39046478981E+03  0.39046478981E+03  0.00000000000E+00 0. -1.
          6    1    1    2  501    0 -0.31028174163E+03  0.12825618038E+03 -0.16600625025E+03  0.41256694259E+03  0.17300000000E+03 0. -1.
         -6    1    1    2    0  502  0.31028174163E+03 -0.12825618038E+03  0.25130242080E+03  0.45365880758E+03  0.17300000000E+03 0.  1.
<mgrwt>
<rscale>  2 0.37769486E+03</rscale>
<asrwt>0</asrwt>
<pdfrwt beam="1">  1       21 0.73193994E-01 0.37769486E+03</pdfrwt>
<pdfrwt beam="2">  1       21 0.60071506E-01 0.37769486E+03</pdfrwt>
<totfact> 0.39009456E+03</totfact>
</mgrwt>
</event>
<event>
 4    1  0.4017302E+000  0.2349429E+03  0.7546771E-02  0.1123208E+00
         21   -1    0    0  503  502  0.00000000000E+00  0.00000000000E+00  0.78120000251E+03  0.78120000251E+03  0.00000000000E+00 0. -1.
         21   -1    0    0  501  503 -0.00000000000E+00 -0.00000000000E+00 -0.46052791624E+03  0.46052791624E+03  0.00000000000E+00 0. -1.
          6    1    1    2  501    0 -0.15598371598E+03 -0.30630744136E+02 -0.41091661968E+03  0.47333986782E+03  0.17300000000E+03 0. -1.
         -6    1    1    2    0  502  0.15598371598E+03  0.30630744136E+02  0.73158870595E+03  0.76838805093E+03  0.17300000000E+03 0. -1.
<mgrwt>
<rscale>  2 0.23494289E+03</rscale>
<asrwt>0</asrwt>
<pdfrwt beam="1">  1       21 0.12018462E+00 0.23494289E+03</pdfrwt>
<pdfrwt beam="2">  1       21 0.70850449E-01 0.23494289E+03</pdfrwt>
<totfact> 0.91164881E+02</totfact>
</mgrwt>
</event>
<event>
 4    1  0.4017302E+000  0.5746627E+03  0.7546771E-02  0.9959413E-01
         21   -1    0    0  503  502  0.00000000000E+00  0.00000000000E+00  0.37663508974E+03  0.37663508974E+03  0.00000000000E+00 0. -1.
         21   -1    0    0  501  503 -0.00000000000E+00 -0.00000000000E+00 -0.89171159031E+03  0.89171159031E+03  0.00000000000E+00 0.  1.
          6    1    1    2  501    0 -0.43079330328E+03 -0.33871134208E+03 -0.33952027648E+03  0.66746629993E+03  0.17300000000E+03 0.  1.
         -6    1    1    2    0  502  0.43079330328E+03  0.33871134208E+03 -0.17555622409E+03  0.60088038012E+03  0.17300000000E+03 0. -1.
<mgrwt>
<rscale>  2 0.57466272E+03</rscale>
<asrwt>0</asrwt>
<pdfrwt beam="1">  1       21 0.57943860E-01 0.57466272E+03</pdfrwt>
<pdfrwt beam="2">  1       21 0.13718640E+00 0.57466272E+03</pdfrwt>
<totfact> 0.84845536E+02</totfact>
</mgrwt>
</event>
<event>
 4    1  0.4017302E+000  0.1733426E+03  0.7546771E-02  0.1174406E+00
         21   -1    0    0  501  502  0.00000000000E+00  0.00000000000E+00  0.35865047123E+03  0.35865047123E+03  0.00000000000E+00 0. -1.
         21   -1    0    0  502  503 -0.00000000000E+00 -0.00000000000E+00 -0.12484863742E+03  0.12484863742E+03  0.00000000000E+00 0. -1.
          6    1    1    2  501    0  0.25717918969E+01 -0.10585153438E+02 -0.21752334851E+02  0.17470209975E+03  0.17300000000E+03 0.  1.
         -6    1    1    2    0  503 -0.25717918969E+01  0.10585153438E+02  0.25555416866E+03  0.30879700890E+03  0.17300000000E+03 0.  1.
<mgrwt>
<rscale>  2 0.17334261E+03</rscale>
<asrwt>0</asrwt>
<pdfrwt beam="1">  1       21 0.55176995E-01 0.17334261E+03</pdfrwt>
<pdfrwt beam="2">  1       21 0.19207483E-01 0.17334261E+03</pdfrwt>
<totfact> 0.77739144E+04</totfact>
</mgrwt>
</event>
<event>
 4    1  0.4017302E+000  0.1919648E+03  0.7546771E-02  0.1156701E+00
         21   -1    0    0  501  502  0.00000000000E+00  0.00000000000E+00  0.55686180033E+02  0.55686180033E+02  0.00000000000E+00 0.  1.
         21   -1    0    0  502  503 -0.00000000000E+00 -0.00000000000E+00 -0.72337863744E+03  0.72337863744E+03  0.00000000000E+00 0.  1.
          6    1    1    2  501    0 -0.78599669432E+02  0.27268602496E+02 -0.44754145411E+03  0.48697416550E+03  0.17300000000E+03 0.  1.
         -6    1    1    2    0  503  0.78599669432E+02 -0.27268602496E+02 -0.22015100329E+03  0.29209065197E+03  0.17300000000E+03 0.  1.
<mgrwt>
<rscale>  2 0.19196480E+03</rscale>
<asrwt>0</asrwt>
<pdfrwt beam="1">  1       21 0.85671052E-02 0.19196480E+03</pdfrwt>
<pdfrwt beam="2">  1       21 0.11128901E+00 0.19196480E+03</pdfrwt>
<totfact> 0.67637611E+04</totfact>
</mgrwt>
</event>
<event>
 4    1  0.4017302E+000  0.1934319E+03  0.7546771E-02  0.1155402E+00
         21   -1    0    0  501  502  0.00000000000E+00  0.00000000000E+00  0.45997641096E+03  0.45997641096E+03  0.00000000000E+00 0.  1.
         21   -1    0    0  502  503 -0.00000000000E+00 -0.00000000000E+00 -0.45113312753E+03  0.45113312753E+03  0.00000000000E+00 0. -1.
          6    1    1    2  501    0  0.49418561273E+02 -0.71026105302E+02  0.41686645105E+03  0.45955798312E+03  0.17300000000E+03 0.  1.
         -6    1    1    2    0  503 -0.49418561273E+02  0.71026105302E+02 -0.40802316763E+03  0.45155155537E+03  0.17300000000E+03 0. -1.
<mgrwt>
<rscale>  2 0.19343190E+03</rscale>
<asrwt>0</asrwt>
<pdfrwt beam="1">  1       21 0.70765602E-01 0.19343190E+03</pdfrwt>
<pdfrwt beam="2">  1       21 0.69405096E-01 0.19343190E+03</pdfrwt>
<totfact> 0.34134580E+03</totfact>
</mgrwt>
</event>
<event>
 4    1  0.4017302E+000  0.2435153E+03  0.7546771E-02  0.1117473E+00
         21   -1    0    0  503  502  0.00000000000E+00  0.00000000000E+00  0.69428792138E+03  0.69428792138E+03  0.00000000000E+00 0.  1.
         21   -1    0    0  501  503 -0.00000000000E+00 -0.00000000000E+00 -0.12689348803E+03  0.12689348803E+03  0.00000000000E+00 0. -1.
          6    1    1    2  501    0  0.13881611203E+03  0.10050263400E+03  0.48937893626E+02  0.24838399673E+03  0.17300000000E+03 0. -1.
         -6    1    1    2    0  502 -0.13881611203E+03 -0.10050263400E+03  0.51845653972E+03  0.57279741268E+03  0.17300000000E+03 0.  1.
<mgrwt>
<rscale>  2 0.24351528E+03</rscale>
<asrwt>0</asrwt>
<pdfrwt beam="1">  1       21 0.10681352E+00 0.24351528E+03</pdfrwt>
<pdfrwt beam="2">  1       21 0.19522075E-01 0.24351528E+03</pdfrwt>
<totfact> 0.16424108E+04</totfact>
</mgrwt>
</event>
<event>
 4    1  0.4017302E+000  0.3756483E+03  0.7546771E-02  0.1052554E+00
         21   -1    0    0  501  502  0.00000000000E+00  0.00000000000E+00  0.14404182151E+04  0.14404182151E+04  0.00000000000E+00 0. -1.
         21   -1    0    0  502  503 -0.00000000000E+00 -0.00000000000E+00 -0.10024348974E+03  0.10024348974E+03  0.00000000000E+00 0.  1.
          6    1    1    2  501    0 -0.42003848205E+02  0.33078438106E+03  0.78620618575E+03  0.87133908241E+03  0.17300000000E+03 0. -1.
         -6    1    1    2    0  503  0.42003848205E+02 -0.33078438106E+03  0.55396853964E+03  0.66932262246E+03  0.17300000000E+03 0.  1.
<mgrwt>
<rscale>  2 0.37564828E+03</rscale>
<asrwt>0</asrwt>
<pdfrwt beam="1">  1       21 0.22160279E+00 0.37564828E+03</pdfrwt>
<pdfrwt beam="2">  1       21 0.15422076E-01 0.37564828E+03</pdfrwt>
<totfact> 0.32156223E+03</totfact>
</mgrwt>
</event>
<event>
 4    1  0.4017302E+000  0.2636803E+03  0.7546771E-02  0.1104952E+00
         21   -1    0    0  503  502  0.00000000000E+00  0.00000000000E+00  0.13934488109E+03  0.13934488109E+03  0.00000000000E+00 0.  1.
         21   -1    0    0  501  503 -0.00000000000E+00 -0.00000000000E+00 -0.94128241697E+03  0.94128241697E+03  0.00000000000E+00 0.  1.
          6    1    1    2  501    0  0.19376250476E+03 -0.45325636166E+02 -0.77135611844E+03  0.81517947901E+03  0.17300000000E+03 0.  1.
         -6    1    1    2    0  502 -0.19376250476E+03  0.45325636166E+02 -0.30581417444E+02  0.26544781905E+03  0.17300000000E+03 0.  1.
<mgrwt>
<rscale>  2 0.26368034E+03</rscale>
<asrwt>0</asrwt>
<pdfrwt beam="1">  1       21 0.21437675E-01 0.26368034E+03</pdfrwt>
<pdfrwt beam="2">  1       21 0.14481267E+00 0.26368034E+03</pdfrwt>
<totfact> 0.63186325E+03</totfact>
</mgrwt>
</event>
<event>
 4    1  0.4017302E+000  0.2499862E+03  0.7546771E-02  0.1113314E+00
         21   -1    0    0  501  502  0.00000000000E+00  0.00000000000E+00  0.16522712623E+03  0.16522712623E+03  0.00000000000E+00 0. -1.
         21   -1    0    0  502  503 -0.00000000000E+00 -0.00000000000E+00 -0.45183482544E+03  0.45183482544E+03  0.00000000000E+00 0. -1.
          6    1    1    2  501    0  0.74688281517E+02 -0.16427348802E+03 -0.26783420768E+03  0.36637177985E+03  0.17300000000E+03 0. -1.
         -6    1    1    2    0  503 -0.74688281517E+02  0.16427348802E+03 -0.18773491528E+02  0.25069017182E+03  0.17300000000E+03 0. -1.
<mgrwt>
<rscale>  2 0.24998624E+03</rscale>
<asrwt>0</asrwt>
<pdfrwt beam="1">  1       21 0.25419558E-01 0.24998624E+03</pdfrwt>
<pdfrwt beam="2">  1       21 0.69513049E-01 0.24998624E+03</pdfrwt>
<totfact> 0.26801922E+04</totfact>
</mgrwt>
</event>
<event>
 4    1  0.4017302E+000  0.1882817E+03  0.7546771E-02  0.1160020E+00
         21   -1    0    0  503  502  0.00000000000E+00  0.00000000000E+00  0.44988538805E+03  0.44988538805E+03  0.00000000000E+00 0. -1.
         21   -1    0    0  501  503 -0.00000000000E+00 -0.00000000000E+00 -0.14105202294E+03  0.14105202294E+03  0.00000000000E+00 0. -1.
          6    1    1    2  501    0  0.16881740518E+02  0.72360248359E+02 -0.41876892180E+02  0.19288253629E+03  0.17300000000E+03 0. -1.
         -6    1    1    2    0  502 -0.16881740518E+02 -0.72360248359E+02  0.35071025729E+03  0.39805487470E+03  0.17300000000E+03 0. -1.
<mgrwt>
<rscale>  2 0.18828170E+03</rscale>
<asrwt>0</asrwt>
<pdfrwt beam="1">  1       21 0.69213136E-01 0.18828170E+03</pdfrwt>
<pdfrwt beam="2">  1       21 0.21700311E-01 0.18828170E+03</pdfrwt>
<totfact> 0.37713076E+04</totfact>
</mgrwt>
</event>
<event>
 4    1  0.4017302E+000  0.1780707E+03  0.7546771E-02  0.1169683E+00
         21   -1    0    0  501  502  0.00000000000E+00  0.00000000000E+00  0.16122502876E+03  0.16122502876E+03  0.00000000000E+00 0.  1.
         21   -1    0    0  502  503 -0.00000000000E+00 -0.00000000000E+00 -0.20024233771E+03  0.20024233771E+03  0.00000000000E+00 0.  1.
          6    1    1    2  501    0 -0.42191654361E+02 -0.20241562464E+00  0.46093328781E+01  0.17813035289E+03  0.17300000000E+03 0. -1.
         -6    1    1    2    0  503  0.42191654361E+02  0.20241562464E+00 -0.43626641826E+02  0.18333701358E+03  0.17300000000E+03 0. -1.
<mgrwt>
<rscale>  2 0.17807071E+03</rscale>
<asrwt>0</asrwt>
<pdfrwt beam="1">  1       21 0.24803851E-01 0.17807071E+03</pdfrwt>
<pdfrwt beam="2">  1       21 0.30806514E-01 0.17807071E+03</pdfrwt>
<totfact> 0.15630145E+05</totfact>
</mgrwt>
</event>
<event>
 4    1  0.4017302E+000  0.1962614E+03  0.7546771E-02  0.1152932E+00
         21   -1    0    0  503  502  0.00000000000E+00  0.00000000000E+00  0.36562764008E+03  0.36562764008E+03  0.00000000000E+00 0. -1.
         21   -1    0    0  501  503 -0.00000000000E+00 -0.00000000000E+00 -0.14782618964E+03  0.14782618964E+03  0.00000000000E+00 0. -1.
          6    1    1    2  501    0  0.68756589132E+02 -0.62145594336E+02 -0.28716589145E+02  0.19835116823E+03  0.17300000000E+03 0. -1.
         -6    1    1    2    0  502 -0.68756589132E+02  0.62145594336E+02  0.24651803958E+03  0.31510266149E+03  0.17300000000E+03 0. -1.
<mgrwt>
<rscale>  2 0.19626142E+03</rscale>
<asrwt>0</asrwt>
<pdfrwt beam="1">  1       21 0.56250406E-01 0.19626142E+03</pdfrwt>
<pdfrwt beam="2">  1       21 0.22742491E-01 0.19626142E+03</pdfrwt>
<totfact> 0.53829383E+04</totfact>
</mgrwt>
</event>
<event>
 4    1  0.4017302E+000  0.1855806E+03  0.7546771E-02  0.1162509E+00
         21   -1    0    0  501  502  0.00000000000E+00  0.00000000000E+00  0.24164000186E+02  0.24164000186E+02  0.00000000000E+00 0. -1.
         21   -1    0    0  502  503 -0.00000000000E+00 -0.00000000000E+00 -0.14260738788E+04  0.14260738788E+04  0.00000000000E+00 0. -1.
          6    1    1    2  501    0 -0.66459292909E+02 -0.97120889654E+01 -0.68371132122E+03  0.70844995099E+03  0.17300000000E+03 0.  1.
         -6    1    1    2    0  503  0.66459292909E+02  0.97120889654E+01 -0.71819855740E+03  0.74178792800E+03  0.17300000000E+03 0.  1.
<mgrwt>
<rscale>  2 0.18558061E+03</rscale>
<asrwt>0</asrwt>
<pdfrwt beam="1">  1       21 0.37175380E-02 0.18558061E+03</pdfrwt>
<pdfrwt beam="2">  1       21 0.21939601E+00 0.18558061E+03</pdfrwt>
<totfact> 0.45168031E+04</totfact>
</mgrwt>
</event>
<event>
 4    1  0.4017302E+000  0.2774413E+03  0.7546771E-02  0.1097095E+00
         21   -1    0    0  501  502  0.00000000000E+00  0.00000000000E+00  0.45456009449E+03  0.45456009449E+03  0.00000000000E+00 0.  1.
         21   -1    0    0  502  503 -0.00000000000E+00 -0.00000000000E+00 -0.19923850356E+03  0.19923850356E+03  0.00000000000E+00 0. -1.
          6    1    1    2  501    0  0.21510565333E+03  0.27824655617E+02  0.25430254141E+03  0.37635546511E+03  0.17300000000E+03 0.  1.
         -6    1    1    2    0  503 -0.21510565333E+03 -0.27824655617E+02  0.10190495170E+01  0.27744313294E+03  0.17300000000E+03 0. -1.
<mgrwt>
<rscale>  2 0.27744126E+03</rscale>
<asrwt>0</asrwt>
<pdfrwt beam="1">  1       21 0.69932322E-01 0.27744126E+03</pdfrwt>
<pdfrwt beam="2">  1       21 0.30652078E-01 0.27744126E+03</pdfrwt>
<totfact> 0.18142145E+04</totfact>
</mgrwt>
</event>
<event>
 4    1  0.4017302E+000  0.2682540E+03  0.7546771E-02  0.1102283E+00
         21   -1    0    0  501  502  0.00000000000E+00  0.00000000000E+00  0.18492076295E+03  0.18492076295E+03  0.00000000000E+00 0.  1.
         21   -1    0    0  502  503 -0.00000000000E+00 -0.00000000000E+00 -0.39020927887E+03  0.39020927887E+03  0.00000000000E+00 0. -1.
          6    1    1    2  501    0 -0.12787892453E+03 -0.16024419859E+03 -0.11769162317E+03  0.29293606928E+03  0.17300000000E+03 0. -1.
         -6    1    1    2    0  503  0.12787892453E+03  0.16024419859E+03 -0.87596892757E+02  0.28219397254E+03  0.17300000000E+03 0.  1.
<mgrwt>
<rscale>  2 0.26825403E+03</rscale>
<asrwt>0</asrwt>
<pdfrwt beam="1">  1       21 0.28449348E-01 0.26825403E+03</pdfrwt>
<pdfrwt beam="2">  1       21 0.60032196E-01 0.26825403E+03</pdfrwt>
<totfact> 0.29474916E+04</totfact>
</mgrwt>
</event>
<event>
 4    1  0.4017302E+000  0.1957256E+03  0.7546771E-02  0.1153396E+00
         21   -1    0    0  503  502  0.00000000000E+00  0.00000000000E+00  0.48889920252E+03  0.48889920252E+03  0.00000000000E+00 0. -1.
         21   -1    0    0  501  503 -0.00000000000E+00 -0.00000000000E+00 -0.78372788175E+02  0.78372788175E+02  0.00000000000E+00 0.  1.
          6    1    1    2  501    0  0.90957729143E+02  0.10305994379E+02  0.20119782585E+03  0.28069393855E+03  0.17300000000E+03 0. -1.
         -6    1    1    2    0  502 -0.90957729143E+02 -0.10305994379E+02  0.20932858849E+03  0.28657805215E+03  0.17300000000E+03 0.  1.
<mgrwt>
<rscale>  2 0.19572563E+03</rscale>
<asrwt>0</asrwt>
<pdfrwt beam="1">  1       21 0.75215260E-01 0.19572563E+03</pdfrwt>
<pdfrwt beam="2">  1       21 0.12057352E-01 0.19572563E+03</pdfrwt>
<totfact> 0.91800060E+04</totfact>
</mgrwt>
</event>
<event>
 4    1  0.4017302E+000  0.1833953E+03  0.7546771E-02  0.1164557E+00
         21   -1    0    0  503  502  0.00000000000E+00  0.00000000000E+00  0.38854072553E+03  0.38854072553E+03  0.00000000000E+00 0.  1.
         21   -1    0    0  501  503 -0.00000000000E+00 -0.00000000000E+00 -0.86883632227E+02  0.86883632227E+02  0.00000000000E+00 0. -1.
          6    1    1    2  501    0 -0.57805426314E+02 -0.19062245322E+02  0.16523518814E+03  0.24685320315E+03  0.17300000000E+03 0.  1.
         -6    1    1    2    0  502  0.57805426314E+02  0.19062245322E+02  0.13642190517E+03  0.22857115460E+03  0.17300000000E+03 0.  1.
<mgrwt>
<rscale>  2 0.18339530E+03</rscale>
<asrwt>0</asrwt>
<pdfrwt beam="1">  1       21 0.59775495E-01 0.18339530E+03</pdfrwt>
<pdfrwt beam="2">  1       21 0.13366713E-01 0.18339530E+03</pdfrwt>
<totfact> 0.12669401E+05</totfact>
</mgrwt>
</event>
<event>
 4    1  0.4017302E+000  0.4510854E+03  0.7546771E-02  0.1027399E+00
         21   -1    0    0  501  502  0.00000000000E+00  0.00000000000E+00  0.23552196275E+03  0.23552196275E+03  0.00000000000E+00 0. -1.
         21   -1    0    0  502  503 -0.00000000000E+00 -0.00000000000E+00 -0.89351640181E+03  0.89351640181E+03  0.00000000000E+00 0. -1.
          6    1    1    2  501    0 -0.19030042690E+03  0.37058708012E+03 -0.22629899182E+03  0.50466748471E+03  0.17300000000E+03 0. -1.
         -6    1    1    2    0  503  0.19030042690E+03 -0.37058708012E+03 -0.43169544725E+03  0.62437087985E+03  0.17300000000E+03 0. -1.
<mgrwt>
<rscale>  2 0.45108540E+03</rscale>
<asrwt>0</asrwt>
<pdfrwt beam="1">  1       21 0.36234148E-01 0.45108540E+03</pdfrwt>
<pdfrwt beam="2">  1       21 0.13746406E+00 0.45108540E+03</pdfrwt>
<totfact> 0.23714164E+03</totfact>
</mgrwt>
</event>
<event>
 4    1  0.4017302E+000  0.3676890E+03  0.7546771E-02  0.1055580E+00
         21   -1    0    0  501  502  0.00000000000E+00  0.00000000000E+00  0.23615316423E+03  0.23615316423E+03  0.00000000000E+00 0. -1.
         21   -1    0    0  502  503 -0.00000000000E+00 -0.00000000000E+00 -0.98347034897E+03  0.98347034897E+03  0.00000000000E+00 0.  1.
          6    1    1    2  501    0  0.27787588497E+03 -0.16748490826E+03  0.20549886514E+02  0.36826281346E+03  0.17300000000E+03 0. -1.
         -6    1    1    2    0  503 -0.27787588497E+03  0.16748490826E+03 -0.76786707125E+03  0.85136069974E+03  0.17300000000E+03 0.  1.
<mgrwt>
<rscale>  2 0.36768900E+03</rscale>
<asrwt>0</asrwt>
<pdfrwt beam="1">  1       21 0.36331256E-01 0.36768900E+03</pdfrwt>
<pdfrwt beam="2">  1       21 0.15130313E+00 0.36768900E+03</pdfrwt>
<totfact> 0.18920854E+03</totfact>
</mgrwt>
</event>
<event>
 4    1  0.4017302E+000  0.2401643E+03  0.7546771E-02  0.1119683E+00
         21   -1    0    0  503  502  0.00000000000E+00  0.00000000000E+00  0.23107112081E+03  0.23107112081E+03  0.00000000000E+00 0.  1.
         21   -1    0    0  501  503 -0.00000000000E+00 -0.00000000000E+00 -0.27591542231E+03  0.27591542231E+03  0.00000000000E+00 0. -1.
          6    1    1    2  501    0  0.21441958070E+02 -0.16519722948E+03 -0.10068533417E+03  0.26041585726E+03  0.17300000000E+03 0. -1.
         -6    1    1    2    0  502 -0.21441958070E+02  0.16519722948E+03  0.55841032668E+02  0.24657068586E+03  0.17300000000E+03 0.  1.
<mgrwt>
<rscale>  2 0.24016428E+03</rscale>
<asrwt>0</asrwt>
<pdfrwt beam="1">  1       21 0.35549403E-01 0.24016428E+03</pdfrwt>
<pdfrwt beam="2">  1       21 0.42448527E-01 0.24016428E+03</pdfrwt>
<totfact> 0.39822257E+04</totfact>
</mgrwt>
</event>
<event>
 4    1  0.4017302E+000  0.1807915E+03  0.7546771E-02  0.1167039E+00
         21   -1    0    0  503  502  0.00000000000E+00  0.00000000000E+00  0.47853578033E+03  0.47853578033E+03  0.00000000000E+00 0. -1.
         21   -1    0    0  501  503 -0.00000000000E+00 -0.00000000000E+00 -0.79798818843E+02  0.79798818843E+02  0.00000000000E+00 0.  1.
          6    1    1    2  501    0 -0.51476829441E+02 -0.10329426426E+02  0.93411134070E+02  0.20349742256E+03  0.17300000000E+03 0.  1.
         -6    1    1    2    0  502  0.51476829441E+02  0.10329426426E+02  0.30532582742E+03  0.35483717661E+03  0.17300000000E+03 0. -1.
<mgrwt>
<rscale>  2 0.18079148E+03</rscale>
<asrwt>0</asrwt>
<pdfrwt beam="1">  1       21 0.73620887E-01 0.18079148E+03</pdfrwt>
<pdfrwt beam="2">  1       21 0.12276742E-01 0.18079148E+03</pdfrwt>
<totfact> 0.93792047E+04</totfact>
</mgrwt>
</event>
<event>
 4    1  0.4017302E+000  0.1902305E+03  0.7546771E-02  0.1158254E+00
         21   -1    0    0  503  502  0.00000000000E+00  0.00000000000E+00  0.20289061424E+03  0.20289061424E+03  0.00000000000E+00 0.  1.
         21   -1    0    0  501  503 -0.00000000000E+00 -0.00000000000E+00 -0.18585353250E+03  0.18585353250E+03  0.00000000000E+00 0.  1.
          6    1    1    2  501    0 -0.79099187239E+02  0.13969848031E+01 -0.30510039270E+02  0.19266160875E+03  0.17300000000E+03 0.  1.
         -6    1    1    2    0  502  0.79099187239E+02 -0.13969848031E+01  0.47547121016E+02  0.19608253799E+03  0.17300000000E+03 0.  1.
<mgrwt>
<rscale>  2 0.19023047E+03</rscale>
<asrwt>0</asrwt>
<pdfrwt beam="1">  1       21 0.31213940E-01 0.19023047E+03</pdfrwt>
<pdfrwt beam="2">  1       21 0.28592851E-01 0.19023047E+03</pdfrwt>
<totfact> 0.11547598E+05</totfact>
</mgrwt>
</event>
<event>
 4    1  0.4017302E+000  0.2022657E+03  0.7546771E-02  0.1147841E+00
         21   -1    0    0  503  502  0.00000000000E+00  0.00000000000E+00  0.72652233719E+02  0.72652233719E+02  0.00000000000E+00 0. -1.
         21   -1    0    0  501  503 -0.00000000000E+00 -0.00000000000E+00 -0.56435934239E+03  0.56435934239E+03  0.00000000000E+00 0.  1.
          6    1    1    2  501    0  0.60674041141E+02  0.85446382752E+02 -0.26082083924E+03  0.33005898530E+03  0.17300000000E+03 0.  1.
         -6    1    1    2    0  502 -0.60674041141E+02 -0.85446382752E+02 -0.23088626943E+03  0.30695259081E+03  0.17300000000E+03 0. -1.
<mgrwt>
<rscale>  2 0.20226573E+03</rscale>
<asrwt>0</asrwt>
<pdfrwt beam="1">  1       21 0.11177267E-01 0.20226573E+03</pdfrwt>
<pdfrwt beam="2">  1       21 0.86824515E-01 0.20226573E+03</pdfrwt>
<totfact> 0.75692232E+04</totfact>
</mgrwt>
</event>
<event>
 4    1  0.4017302E+000  0.1961870E+03  0.7546771E-02  0.1152997E+00
         21   -1    0    0  503  502  0.00000000000E+00  0.00000000000E+00  0.60596348977E+03  0.60596348977E+03  0.00000000000E+00 0.  1.
         21   -1    0    0  501  503 -0.00000000000E+00 -0.00000000000E+00 -0.69005503678E+02  0.69005503678E+02  0.00000000000E+00 0.  1.
          6    1    1    2  501    0 -0.43955657363E+01  0.92417551013E+02  0.17330536453E+03  0.26177103375E+03  0.17300000000E+03 0. -1.
         -6    1    1    2    0  502  0.43955657363E+01 -0.92417551013E+02  0.36365262156E+03  0.41319795970E+03  0.17300000000E+03 0. -1.
<mgrwt>
<rscale>  2 0.19618696E+03</rscale>
<asrwt>0</asrwt>
<pdfrwt beam="1">  1       21 0.93225149E-01 0.19618696E+03</pdfrwt>
<pdfrwt beam="2">  1       21 0.10616232E-01 0.19618696E+03</pdfrwt>
<totfact> 0.70549308E+04</totfact>
</mgrwt>
</event>
<event>
 4    1  0.4017302E+000  0.1999854E+03  0.7546771E-02  0.1149751E+00
         21   -1    0    0  501  502  0.00000000000E+00  0.00000000000E+00  0.14261344928E+03  0.14261344928E+03  0.00000000000E+00 0. -1.
         21   -1    0    0  502  503 -0.00000000000E+00 -0.00000000000E+00 -0.87973189097E+03  0.87973189097E+03  0.00000000000E+00 0. -1.
          6    1    1    2  501    0 -0.37757600541E+02 -0.92949051836E+02  0.53343723316E+02  0.20697757234E+03  0.17300000000E+03 0. -1.
         -6    1    1    2    0  503  0.37757600541E+02  0.92949051836E+02 -0.79046216501E+03  0.81536776791E+03  0.17300000000E+03 0. -1.
<mgrwt>
<rscale>  2 0.19998541E+03</rscale>
<asrwt>0</asrwt>
<pdfrwt beam="1">  1       21 0.21940531E-01 0.19998541E+03</pdfrwt>
<pdfrwt beam="2">  1       21 0.13534337E+00 0.19998541E+03</pdfrwt>
<totfact> 0.75298107E+03</totfact>
</mgrwt>
</event>
<event>
 4    1  0.4017302E+000  0.2010773E+03  0.7546771E-02  0.1148833E+00
         21   -1    0    0  501  502  0.00000000000E+00  0.00000000000E+00  0.17355728105E+04  0.17355728105E+04  0.00000000000E+00 0. -1.
         21   -1    0    0  502  503 -0.00000000000E+00 -0.00000000000E+00 -0.30444041547E+02  0.30444041547E+02  0.00000000000E+00 0. -1.
          6    1    1    2  501    0 -0.45913074092E+02 -0.91624647125E+02  0.12804267036E+04  0.12961190646E+04  0.17300000000E+03 0. -1.
         -6    1    1    2    0  503  0.45913074092E+02  0.91624647125E+02  0.42470206539E+03  0.46989778748E+03  0.17300000000E+03 0. -1.
<mgrwt>
<rscale>  2 0.20107731E+03</rscale>
<asrwt>0</asrwt>
<pdfrwt beam="1">  1       21 0.26701112E+00 0.20107731E+03</pdfrwt>
<pdfrwt beam="2">  1       21 0.46837001E-02 0.20107731E+03</pdfrwt>
<totfact> 0.15770673E+04</totfact>
</mgrwt>
</event>
<event>
 4    1  0.4017302E+000  0.1887293E+03  0.7546771E-02  0.1159612E+00
         21   -1    0    0  503  502  0.00000000000E+00  0.00000000000E+00  0.57196646074E+03  0.57196646074E+03  0.00000000000E+00 0. -1.
         21   -1    0    0  501  503 -0.00000000000E+00 -0.00000000000E+00 -0.13389172756E+03  0.13389172756E+03  0.00000000000E+00 0. -1.
          6    1    1    2  501    0 -0.70801357739E+02  0.26017420550E+02 -0.39081846313E+02  0.19273331093E+03  0.17300000000E+03 0. -1.
         -6    1    1    2    0  502  0.70801357739E+02 -0.26017420550E+02  0.47715657949E+03  0.51312487738E+03  0.17300000000E+03 0. -1.
<mgrwt>
<rscale>  2 0.18872927E+03</rscale>
<asrwt>0</asrwt>
<pdfrwt beam="1">  1       21 0.87994839E-01 0.18872927E+03</pdfrwt>
<pdfrwt beam="2">  1       21 0.20598728E-01 0.18872927E+03</pdfrwt>
<totfact> 0.24229858E+04</totfact>
</mgrwt>
</event>
<event>
 4    1  0.4017302E+000  0.2114455E+03  0.7546771E-02  0.1140426E+00
         21   -1    0    0  503  502  0.00000000000E+00  0.00000000000E+00  0.73743970343E+02  0.73743970343E+02  0.00000000000E+00 0.  1.
         21   -1    0    0  501  503 -0.00000000000E+00 -0.00000000000E+00 -0.86866272727E+03  0.86866272727E+03  0.00000000000E+00 0.  1.
          6    1    1    2  501    0  0.88320363007E+02 -0.83544711090E+02 -0.65643187276E+03  0.68964629257E+03  0.17300000000E+03 0.  1.
         -6    1    1    2    0  502 -0.88320363007E+02  0.83544711090E+02 -0.13848688416E+03  0.25276040504E+03  0.17300000000E+03 0.  1.
<mgrwt>
<rscale>  2 0.21144551E+03</rscale>
<asrwt>0</asrwt>
<pdfrwt beam="1">  1       21 0.11345225E-01 0.21144551E+03</pdfrwt>
<pdfrwt beam="2">  1       21 0.13364043E+00 0.21144551E+03</pdfrwt>
<totfact> 0.25845412E+04</totfact>
</mgrwt>
</event>
<event>
 4    1  0.4017302E+000  0.1762834E+03  0.7546771E-02  0.1171449E+00
         21   -1    0    0  501  502  0.00000000000E+00  0.00000000000E+00  0.10949863169E+03  0.10949863169E+03  0.00000000000E+00 0.  1.
         21   -1    0    0  502  503 -0.00000000000E+00 -0.00000000000E+00 -0.30151065279E+03  0.30151065279E+03  0.00000000000E+00 0.  1.
          6    1    1    2  501    0 -0.16533169768E+02  0.29555058520E+02 -0.46201071086E+02  0.18223717007E+03  0.17300000000E+03 0.  1.
         -6    1    1    2    0  503  0.16533169768E+02 -0.29555058520E+02 -0.14581095001E+03  0.22877211441E+03  0.17300000000E+03 0.  1.
<mgrwt>
<rscale>  2 0.17628343E+03</rscale>
<asrwt>0</asrwt>
<pdfrwt beam="1">  1       21 0.16845943E-01 0.17628343E+03</pdfrwt>
<pdfrwt beam="2">  1       21 0.46386254E-01 0.17628343E+03</pdfrwt>
<totfact> 0.14200137E+05</totfact>
</mgrwt>
</event>
<event>
 4    1  0.4017302E+000  0.2024011E+03  0.7546771E-02  0.1147729E+00
         21   -1    0    0  501  502  0.00000000000E+00  0.00000000000E+00  0.93120606611E+03  0.93120606611E+03  0.00000000000E+00 0.  1.
         21   -1    0    0  502  503 -0.00000000000E+00 -0.00000000000E+00 -0.13657617687E+03  0.13657617687E+03  0.00000000000E+00 0.  1.
          6    1    1    2  501    0  0.29579539764E+02 -0.10080799375E+03  0.83688908769E+03  0.86101657700E+03  0.17300000000E+03 0.  1.
         -6    1    1    2    0  503 -0.29579539764E+02  0.10080799375E+03 -0.42259198453E+02  0.20676566599E+03  0.17300000000E+03 0.  1.
<mgrwt>
<rscale>  2 0.20240109E+03</rscale>
<asrwt>0</asrwt>
<pdfrwt beam="1">  1       21 0.14326247E+00 0.20240109E+03</pdfrwt>
<pdfrwt beam="2">  1       21 0.21011720E-01 0.20240109E+03</pdfrwt>
<totfact> 0.70399476E+03</totfact>
</mgrwt>
</event>
<event>
 4    1  0.4017302E+000  0.1816866E+03  0.7546771E-02  0.1166181E+00
         21   -1    0    0  503  502  0.00000000000E+00  0.00000000000E+00  0.10968320010E+03  0.10968320010E+03  0.00000000000E+00 0. -1.
         21   -1    0    0  501  503 -0.00000000000E+00 -0.00000000000E+00 -0.35333453710E+03  0.35333453710E+03  0.00000000000E+00 0. -1.
          6    1    1    2  501    0  0.23124626993E+02  0.50460751003E+02 -0.21095958864E+03  0.27841333266E+03  0.17300000000E+03 0. -1.
         -6    1    1    2    0  502 -0.23124626993E+02 -0.50460751003E+02 -0.32691748360E+02  0.18460440454E+03  0.17300000000E+03 0. -1.
<mgrwt>
<rscale>  2 0.18168664E+03</rscale>
<asrwt>0</asrwt>
<pdfrwt beam="1">  1       21 0.16874339E-01 0.18168664E+03</pdfrwt>
<pdfrwt beam="2">  1       21 0.54359159E-01 0.18168664E+03</pdfrwt>
<totfact> 0.10153969E+05</totfact>
</mgrwt>
</event>
<event>
 4    1  0.4017302E+000  0.2646466E+03  0.7546771E-02  0.1104383E+00
         21   -1    0    0  503  502  0.00000000000E+00  0.00000000000E+00  0.47751976292E+02  0.47751976292E+02  0.00000000000E+00 0.  1.
         21   -1    0    0  501  503 -0.00000000000E+00 -0.00000000000E+00 -0.18209881867E+04  0.18209881867E+04  0.00000000000E+00 0.  1.
          6    1    1    2  501    0  0.10049258078E+03  0.17323414845E+03 -0.47447918707E+03  0.54329396089E+03  0.17300000000E+03 0.  1.
         -6    1    1    2    0  502 -0.10049258078E+03 -0.17323414845E+03 -0.12987570234E+04  0.13254462021E+04  0.17300000000E+03 0.  1.
<mgrwt>
<rscale>  2 0.26464661E+03</rscale>
<asrwt>0</asrwt>
<pdfrwt beam="1">  1       21 0.73464566E-02 0.26464661E+03</pdfrwt>
<pdfrwt beam="2">  1       21 0.28015208E+00 0.26464661E+03</pdfrwt>
<totfact> 0.57763437E+03</totfact>
</mgrwt>
</event>
<event>
 4    1  0.4017302E+000  0.1882059E+03  0.7546771E-02  0.1160090E+00
         21   -1    0    0  503  502  0.00000000000E+00  0.00000000000E+00  0.97614798132E+03  0.97614798132E+03  0.00000000000E+00 0. -1.
         21   -1    0    0  501  503 -0.00000000000E+00 -0.00000000000E+00 -0.54299992059E+02  0.54299992059E+02  0.00000000000E+00 0.  1.
          6    1    1    2  501    0 -0.73465490871E+02  0.97613639174E+01  0.16417493123E+03  0.24974961585E+03  0.17300000000E+03 0.  1.
         -6    1    1    2    0  502  0.73465490871E+02 -0.97613639174E+01  0.75767305803E+03  0.78069835753E+03  0.17300000000E+03 0. -1.
<mgrwt>
<rscale>  2 0.18820590E+03</rscale>
<asrwt>0</asrwt>
<pdfrwt beam="1">  1       21 0.15017660E+00 0.18820590E+03</pdfrwt>
<pdfrwt beam="2">  1       21 0.83538456E-02 0.18820590E+03</pdfrwt>
<totfact> 0.33249393E+04</totfact>
</mgrwt>
</event>
<event>
 4    1  0.4017302E+000  0.2405240E+03  0.7546771E-02  0.1119444E+00
         21   -1    0    0  503  502  0.00000000000E+00  0.00000000000E+00  0.10176180230E+03  0.10176180230E+03  0.00000000000E+00 0. -1.
         21   -1    0    0  501  503 -0.00000000000E+00 -0.00000000000E+00 -0.58568415490E+03  0.58568415490E+03  0.00000000000E+00 0. -1.
          6    1    1    2  501    0  0.11525434234E+03  0.12099274172E+03 -0.30083378813E+03  0.38516590589E+03  0.17300000000E+03 0. -1.
         -6    1    1    2    0  502 -0.11525434234E+03 -0.12099274172E+03 -0.18308856447E+03  0.30228005131E+03  0.17300000000E+03 0. -1.
<mgrwt>
<rscale>  2 0.24052403E+03</rscale>
<asrwt>0</asrwt>
<pdfrwt beam="1">  1       21 0.15655662E-01 0.24052403E+03</pdfrwt>
<pdfrwt beam="2">  1       21 0.90105253E-01 0.24052403E+03</pdfrwt>
<totfact> 0.37112135E+04</totfact>
</mgrwt>
</event>
<event>
 4    1  0.4017302E+000  0.1936459E+03  0.7546771E-02  0.1155213E+00
         21   -1    0    0  503  502  0.00000000000E+00  0.00000000000E+00  0.23685387510E+03  0.23685387510E+03  0.00000000000E+00 0. -1.
         21   -1    0    0  501  503 -0.00000000000E+00 -0.00000000000E+00 -0.67501418113E+03  0.67501418113E+03  0.00000000000E+00 0.  1.
          6    1    1    2  501    0  0.74700808421E+02 -0.44604275119E+02 -0.61797852207E+03  0.64760806502E+03  0.17300000000E+03 0.  1.
         -6    1    1    2    0  502 -0.74700808421E+02  0.44604275119E+02  0.17981821604E+03  0.26425999122E+03  0.17300000000E+03 0. -1.
<mgrwt>
<rscale>  2 0.19364595E+03</rscale>
<asrwt>0</asrwt>
<pdfrwt beam="1">  1       21 0.36439057E-01 0.19364595E+03</pdfrwt>
<pdfrwt beam="2">  1       21 0.10384834E+00 0.19364595E+03</pdfrwt>
<totfact> 0.54448052E+03</totfact>
</mgrwt>
</event>
<event>
 4    1  0.4017302E+000  0.2140872E+03  0.7546771E-02  0.1138370E+00
         21   -1    0    0  503  502  0.00000000000E+00  0.00000000000E+00  0.61118528088E+03  0.61118528088E+03  0.00000000000E+00 0. -1.
         21   -1    0    0  501  503 -0.00000000000E+00 -0.00000000000E+00 -0.88847466949E+02  0.88847466949E+02  0.00000000000E+00 0.  1.
          6    1    1    2  501    0 -0.42799429938E+02  0.11862771900E+03  0.39939621397E+03  0.45315633357E+03  0.17300000000E+03 0. -1.
         -6    1    1    2    0  502  0.42799429938E+02 -0.11862771900E+03  0.12294159996E+03  0.24687641426E+03  0.17300000000E+03 0. -1.
<mgrwt>
<rscale>  2 0.21408719E+03</rscale>
<asrwt>0</asrwt>
<pdfrwt beam="1">  1       21 0.94028502E-01 0.21408719E+03</pdfrwt>
<pdfrwt beam="2">  1       21 0.13668841E-01 0.21408719E+03</pdfrwt>
<totfact> 0.43574605E+04</totfact>
</mgrwt>
</event>
<event>
 4    1  0.4017302E+000  0.1772121E+03  0.7546771E-02  0.1170529E+00
         21   -1    0    0  503  502  0.00000000000E+00  0.00000000000E+00  0.36176157940E+02  0.36176157940E+02  0.00000000000E+00 0. -1.
         21   -1    0    0  501  503 -0.00000000000E+00 -0.00000000000E+00 -0.97014190737E+03  0.97014190737E+03  0.00000000000E+00 0. -1.
          6    1    1    2  501    0  0.19510816310E+01  0.38357692207E+02 -0.63017554742E+03  0.65461846891E+03  0.17300000000E+03 0. -1.
         -6    1    1    2    0  502 -0.19510816310E+01 -0.38357692207E+02 -0.30379020201E+03  0.35169959640E+03  0.17300000000E+03 0. -1.
<mgrwt>
<rscale>  2 0.17721207E+03</rscale>
<asrwt>0</asrwt>
<pdfrwt beam="1">  1       21 0.55655621E-02 0.17721207E+03</pdfrwt>
<pdfrwt beam="2">  1       21 0.14925262E+00 0.17721207E+03</pdfrwt>
<totfact> 0.68449629E+04</totfact>
</mgrwt>
</event>
<event>
 4    1  0.4017302E+000  0.1755770E+03  0.7546771E-02  0.1172154E+00
         21   -1    0    0  501  502  0.00000000000E+00  0.00000000000E+00  0.34369631818E+02  0.34369631818E+02  0.00000000000E+00 0. -1.
         21   -1    0    0  502  503 -0.00000000000E+00 -0.00000000000E+00 -0.94477452552E+03  0.94477452552E+03  0.00000000000E+00 0. -1.
          6    1    1    2  501    0 -0.21405448985E+02 -0.20978086335E+02 -0.34503509740E+03  0.38713885338E+03  0.17300000000E+03 0.  1.
         -6    1    1    2    0  503  0.21405448985E+02  0.20978086335E+02 -0.56536979630E+03  0.59200530396E+03  0.17300000000E+03 0.  1.
<mgrwt>
<rscale>  2 0.17557697E+03</rscale>
<asrwt>0</asrwt>
<pdfrwt beam="1">  1       21 0.52876370E-02 0.17557697E+03</pdfrwt>
<pdfrwt beam="2">  1       21 0.14534989E+00 0.17557697E+03</pdfrwt>
<totfact> 0.80090362E+04</totfact>
</mgrwt>
</event>
<event>
 4    1  0.4017302E+000  0.1794231E+03  0.7546771E-02  0.1168363E+00
         21   -1    0    0  503  502  0.00000000000E+00  0.00000000000E+00  0.12362265106E+04  0.12362265106E+04  0.00000000000E+00 0.  1.
         21   -1    0    0  501  503 -0.00000000000E+00 -0.00000000000E+00 -0.41575373305E+02  0.41575373305E+02  0.00000000000E+00 0.  1.
          6    1    1    2  501    0  0.28565345085E+02 -0.38048284220E+02  0.20678922531E+03  0.27377807541E+03  0.17300000000E+03 0.  1.
         -6    1    1    2    0  502 -0.28565345085E+02  0.38048284220E+02  0.98786191202E+03  0.10040238085E+04  0.17300000000E+03 0.  1.
<mgrwt>
<rscale>  2 0.17942311E+03</rscale>
<asrwt>0</asrwt>
<pdfrwt beam="1">  1       21 0.19018867E+00 0.17942311E+03</pdfrwt>
<pdfrwt beam="2">  1       21 0.63962122E-02 0.17942311E+03</pdfrwt>
<totfact> 0.27740571E+04</totfact>
</mgrwt>
</event>
<event>
 4    1  0.4017302E+000  0.2171108E+03  0.7546771E-02  0.1136056E+00
         21   -1    0    0  503  502  0.00000000000E+00  0.00000000000E+00  0.77118862629E+03  0.77118862629E+03  0.00000000000E+00 0. -1.
         21   -1    0    0  501  503 -0.00000000000E+00 -0.00000000000E+00 -0.62102396159E+02  0.62102396159E+02  0.00000000000E+00 0.  1.
          6    1    1    2  501    0 -0.99438397386E+02 -0.85557686044E+02  0.30221156996E+03  0.37211415659E+03  0.17300000000E+03 0. -1.
         -6    1    1    2    0  502  0.99438397386E+02  0.85557686044E+02  0.40687466018E+03  0.46117686587E+03  0.17300000000E+03 0. -1.
<mgrwt>
<rscale>  2 0.21711083E+03</rscale>
<asrwt>0</asrwt>
<pdfrwt beam="1">  1       21 0.11864440E+00 0.21711083E+03</pdfrwt>
<pdfrwt beam="2">  1       21 0.95542153E-02 0.21711083E+03</pdfrwt>
<totfact> 0.47159360E+04</totfact>
</mgrwt>
</event>
<event>
 4    1  0.4017302E+000  0.1784996E+03  0.7546771E-02  0.1169263E+00
         21   -1    0    0  501  502  0.00000000000E+00  0.00000000000E+00  0.45542867101E+03  0.45542867101E+03  0.00000000000E+00 0. -1.
         21   -1    0    0  502  503 -0.00000000000E+00 -0.00000000000E+00 -0.77144782697E+02  0.77144782697E+02  0.00000000000E+00 0. -1.
          6    1    1    2  501    0 -0.98915538958E+01 -0.42840056731E+02  0.27040283716E+03  0.32400587594E+03  0.17300000000E+03 0. -1.
         -6    1    1    2    0  503  0.98915538958E+01  0.42840056731E+02  0.10788105116E+03  0.20856757777E+03  0.17300000000E+03 0. -1.
<mgrwt>
<rscale>  2 0.17849962E+03</rscale>
<asrwt>0</asrwt>
<pdfrwt beam="1">  1       21 0.70065948E-01 0.17849962E+03</pdfrwt>
<pdfrwt beam="2">  1       21 0.11868428E-01 0.17849962E+03</pdfrwt>
<totfact> 0.11125669E+05</totfact>
</mgrwt>
</event>
<event>
 4    1  0.4017302E+000  0.2476808E+03  0.7546771E-02  0.1114779E+00
         21   -1    0    0  501  502  0.00000000000E+00  0.00000000000E+00  0.10866389332E+04  0.10866389332E+04  0.00000000000E+00 0.  1.
         21   -1    0    0  502  503 -0.00000000000E+00 -0.00000000000E+00 -0.86403878032E+02  0.86403878032E+02  0.00000000000E+00 0.  1.
          6    1    1    2  501    0  0.16358854163E+03 -0.68231623820E+02  0.84542854396E+03  0.88096264869E+03  0.17300000000E+03 0.  1.
         -6    1    1    2    0  503 -0.16358854163E+03  0.68231623820E+02  0.15480651122E+03  0.29208016255E+03  0.17300000000E+03 0.  1.
<mgrwt>
<rscale>  2 0.24768077E+03</rscale>
<asrwt>0</asrwt>
<pdfrwt beam="1">  1       21 0.16717521E+00 0.24768077E+03</pdfrwt>
<pdfrwt beam="2">  1       21 0.13292905E-01 0.24768077E+03</pdfrwt>
<totfact> 0.10494800E+04</totfact>
</mgrwt>
</event>
<event>
 4    1  0.4017302E+000  0.2572647E+03  0.7546771E-02  0.1108798E+00
         21   -1    0    0  501  502  0.00000000000E+00  0.00000000000E+00  0.13963788670E+03  0.13963788670E+03  0.00000000000E+00 0.  1.
         21   -1    0    0  502  503 -0.00000000000E+00 -0.00000000000E+00 -0.48810406569E+03  0.48810406569E+03  0.00000000000E+00 0. -1.
          6    1    1    2  501    0 -0.15447692349E+03  0.11132383073E+03 -0.12083516350E+03  0.28422922425E+03  0.17300000000E+03 0.  1.
         -6    1    1    2    0  503  0.15447692349E+03 -0.11132383073E+03 -0.22763101550E+03  0.34351272814E+03  0.17300000000E+03 0.  1.
<mgrwt>
<rscale>  2 0.25726468E+03</rscale>
<asrwt>0</asrwt>
<pdfrwt beam="1">  1       21 0.21482752E-01 0.25726468E+03</pdfrwt>
<pdfrwt beam="2">  1       21 0.75092934E-01 0.25726468E+03</pdfrwt>
<totfact> 0.30998332E+04</totfact>
</mgrwt>
</event>
<event>
 4    1  0.4017302E+000  0.1755384E+03  0.7546771E-02  0.1172192E+00
         21   -1    0    0  501  502  0.00000000000E+00  0.00000000000E+00  0.18428952654E+02  0.18428952654E+02  0.00000000000E+00 0. -1.
         21   -1    0    0  502  503 -0.00000000000E+00 -0.00000000000E+00 -0.17333665610E+04  0.17333665610E+04  0.00000000000E+00 0. -1.
          6    1    1    2  501    0  0.68222646039E+01  0.28951269682E+02 -0.69269959315E+03  0.71459530201E+03  0.17300000000E+03 0. -1.
         -6    1    1    2    0  503 -0.68222646039E+01 -0.28951269682E+02 -0.10222380151E+04  0.10372002116E+04  0.17300000000E+03 0. -1.
<mgrwt>
<rscale>  2 0.17553837E+03</rscale>
<asrwt>0</asrwt>
<pdfrwt beam="1">  1       21 0.28352239E-02 0.17553837E+03</pdfrwt>
<pdfrwt beam="2">  1       21 0.26667174E+00 0.17553837E+03</pdfrwt>
<totfact> 0.37473330E+04</totfact>
</mgrwt>
</event>
<event>
 4    1  0.4017302E+000  0.1797360E+03  0.7546771E-02  0.1168059E+00
         21   -1    0    0  503  502  0.00000000000E+00  0.00000000000E+00  0.11395057142E+03  0.11395057142E+03  0.00000000000E+00 0.  1.
         21   -1    0    0  501  503 -0.00000000000E+00 -0.00000000000E+00 -0.54953514791E+03  0.54953514791E+03  0.00000000000E+00 0.  1.
          6    1    1    2  501    0 -0.39637278152E+02  0.28371317997E+02 -0.44861202250E+03  0.48327817272E+03  0.17300000000E+03 0.  1.
         -6    1    1    2    0  502  0.39637278152E+02 -0.28371317997E+02  0.13027446015E+02  0.18020754661E+03  0.17300000000E+03 0.  1.
<mgrwt>
<rscale>  2 0.17973604E+03</rscale>
<asrwt>0</asrwt>
<pdfrwt beam="1">  1       21 0.17530857E-01 0.17973604E+03</pdfrwt>
<pdfrwt beam="2">  1       21 0.84543871E-01 0.17973604E+03</pdfrwt>
<totfact> 0.36006308E+04</totfact>
</mgrwt>
</event>
<event>
 4    1  0.4017302E+000  0.2035640E+03  0.7546771E-02  0.1146766E+00
         21   -1    0    0  503  502  0.00000000000E+00  0.00000000000E+00  0.11777361509E+03  0.11777361509E+03  0.00000000000E+00 0. -1.
         21   -1    0    0  501  503 -0.00000000000E+00 -0.00000000000E+00 -0.49828572192E+03  0.49828572192E+03  0.00000000000E+00 0.  1.
          6    1    1    2  501    0  0.56093182764E+02  0.91448580022E+02 -0.23269555190E+02  0.20488962917E+03  0.17300000000E+03 0. -1.
         -6    1    1    2    0  502 -0.56093182764E+02 -0.91448580022E+02 -0.35724255164E+03  0.41116970784E+03  0.17300000000E+03 0.  1.
<mgrwt>
<rscale>  2 0.20356397E+03</rscale>
<asrwt>0</asrwt>
<pdfrwt beam="1">  1       21 0.18119018E-01 0.20356397E+03</pdfrwt>
<pdfrwt beam="2">  1       21 0.76659342E-01 0.20356397E+03</pdfrwt>
<totfact> 0.41753248E+04</totfact>
</mgrwt>
</event>
<event>
 4    1  0.4017302E+000  0.1865063E+03  0.7546771E-02  0.1161651E+00
         21   -1    0    0  501  502  0.00000000000E+00  0.00000000000E+00  0.87921624852E+03  0.87921624852E+03  0.00000000000E+00 0.  1.
         21   -1    0    0  502  503 -0.00000000000E+00 -0.00000000000E+00 -0.41244440024E+02  0.41244440024E+02  0.00000000000E+00 0.  1.
          6    1    1    2  501    0 -0.69239785592E+02  0.78391661655E+01  0.32606604210E+03  0.37563767682E+03  0.17300000000E+03 0.  1.
         -6    1    1    2    0  503  0.69239785592E+02 -0.78391661655E+01  0.51190576640E+03  0.54482301173E+03  0.17300000000E+03 0.  1.
<mgrwt>
<rscale>  2 0.18650630E+03</rscale>
<asrwt>0</asrwt>
<pdfrwt beam="1">  1       21 0.13526402E+00 0.18650630E+03</pdfrwt>
<pdfrwt beam="2">  1       21 0.63452991E-02 0.18650630E+03</pdfrwt>
<totfact> 0.70236547E+04</totfact>
</mgrwt>
</event>
<event>
 4    1  0.4017302E+000  0.3066179E+03  0.7546771E-02  0.1081978E+00
         21   -1    0    0  503  502  0.00000000000E+00  0.00000000000E+00  0.44222912207E+02  0.44222912207E+02  0.00000000000E+00 0. -1.
         21   -1    0    0  501  503 -0.00000000000E+00 -0.00000000000E+00 -0.21259324504E+04  0.21259324504E+04  0.00000000000E+00 0.  1.
          6    1    1    2  501    0 -0.28270926766E+02 -0.25156765222E+03 -0.10386301641E+04  0.10829437413E+04  0.17300000000E+03 0.  1.
         -6    1    1    2    0  502  0.28270926766E+02  0.25156765222E+03 -0.10430793741E+04  0.10872116214E+04  0.17300000000E+03 0. -1.
<mgrwt>
<rscale>  2 0.30661789E+03</rscale>
<asrwt>0</asrwt>
<pdfrwt beam="1">  1       21 0.68035261E-02 0.30661789E+03</pdfrwt>
<pdfrwt beam="2">  1       21 0.32706647E+00 0.30661789E+03</pdfrwt>
<totfact> 0.33810769E+03</totfact>
</mgrwt>
</event>
<event>
 4    1  0.4017302E+000  0.2036474E+03  0.7546771E-02  0.1146698E+00
         21   -1    0    0  501  502  0.00000000000E+00  0.00000000000E+00  0.15621955204E+04  0.15621955204E+04  0.00000000000E+00 0. -1.
         21   -1    0    0  502  503 -0.00000000000E+00 -0.00000000000E+00 -0.36379678254E+02  0.36379678254E+02  0.00000000000E+00 0. -1.
          6    1    1    2  501    0 -0.10033421885E+03 -0.38422899656E+02  0.11784357240E+04  0.11959026007E+04  0.17300000000E+03 0. -1.
         -6    1    1    2    0  503  0.10033421885E+03  0.38422899656E+02  0.34738011819E+03  0.40267259803E+03  0.17300000000E+03 0. -1.
<mgrwt>
<rscale>  2 0.20364743E+03</rscale>
<asrwt>0</asrwt>
<pdfrwt beam="1">  1       21 0.24033772E+00 0.20364743E+03</pdfrwt>
<pdfrwt beam="2">  1       21 0.55968748E-02 0.20364743E+03</pdfrwt>
<totfact> 0.16681341E+04</totfact>
</mgrwt>
</event>
<event>
 4    1  0.4017302E+000  0.1999546E+03  0.7546771E-02  0.1149777E+00
         21   -1    0    0  501  502  0.00000000000E+00  0.00000000000E+00  0.89268312362E+02  0.89268312362E+02  0.00000000000E+00 0.  1.
         21   -1    0    0  502  503 -0.00000000000E+00 -0.00000000000E+00 -0.44813840572E+03  0.44813840572E+03  0.00000000000E+00 0.  1.
          6    1    1    2  501    0 -0.46479765991E+02  0.88839636789E+02 -0.18583713801E+03  0.27297855516E+03  0.17300000000E+03 0.  1.
         -6    1    1    2    0  503  0.46479765991E+02 -0.88839636789E+02 -0.17303295535E+03  0.26442816292E+03  0.17300000000E+03 0.  1.
<mgrwt>
<rscale>  2 0.19995462E+03</rscale>
<asrwt>0</asrwt>
<pdfrwt beam="1">  1       21 0.13733586E-01 0.19995462E+03</pdfrwt>
<pdfrwt beam="2">  1       21 0.68944370E-01 0.19995462E+03</pdfrwt>
<totfact> 0.87930282E+04</totfact>
</mgrwt>
</event>
<event>
 4    1  0.4017302E+000  0.1750501E+03  0.7546771E-02  0.1172681E+00
         21   -1    0    0  501  502  0.00000000000E+00  0.00000000000E+00  0.33659841134E+03  0.33659841134E+03  0.00000000000E+00 0.  1.
         21   -1    0    0  502  503 -0.00000000000E+00 -0.00000000000E+00 -0.14220478922E+03  0.14220478922E+03  0.00000000000E+00 0.  1.
          6    1    1    2  501    0 -0.15627731716E+02  0.21663374143E+02  0.24080297383E+03  0.29770555921E+03  0.17300000000E+03 0.  1.
         -6    1    1    2    0  503  0.15627731716E+02 -0.21663374143E+02 -0.46409351712E+02  0.18109764135E+03  0.17300000000E+03 0.  1.
<mgrwt>
<rscale>  2 0.17505007E+03</rscale>
<asrwt>0</asrwt>
<pdfrwt beam="1">  1       21 0.51784371E-01 0.17505007E+03</pdfrwt>
<pdfrwt beam="2">  1       21 0.21877660E-01 0.17505007E+03</pdfrwt>
<totfact> 0.69603285E+04</totfact>
</mgrwt>
</event>
<event>
 4    1  0.4017302E+000  0.2021977E+03  0.7546771E-02  0.1147898E+00
         21   -1    0    0  501  502  0.00000000000E+00  0.00000000000E+00  0.50006389437E+03  0.50006389437E+03  0.00000000000E+00 0.  1.
         21   -1    0    0  502  503 -0.00000000000E+00 -0.00000000000E+00 -0.89519127984E+02  0.89519127984E+02  0.00000000000E+00 0.  1.
          6    1    1    2  501    0  0.68294371373E+01 -0.10444269481E+03  0.11846900968E+03  0.23434765620E+03  0.17300000000E+03 0.  1.
         -6    1    1    2    0  503 -0.68294371373E+01  0.10444269481E+03  0.29207575670E+03  0.35523536615E+03  0.17300000000E+03 0.  1.
<mgrwt>
<rscale>  2 0.20219772E+03</rscale>
<asrwt>0</asrwt>
<pdfrwt beam="1">  1       21 0.76932905E-01 0.20219772E+03</pdfrwt>
<pdfrwt beam="2">  1       21 0.13772174E-01 0.20219772E+03</pdfrwt>
<totfact> 0.68491596E+04</totfact>
</mgrwt>
</event>
<event>
 4    1  0.4017302E+000  0.2452773E+03  0.7546771E-02  0.1116326E+00
         21   -1    0    0  503  502  0.00000000000E+00  0.00000000000E+00  0.71202040316E+03  0.71202040316E+03  0.00000000000E+00 0.  1.
         21   -1    0    0  501  503 -0.00000000000E+00 -0.00000000000E+00 -0.10602218538E+03  0.10602218538E+03  0.00000000000E+00 0. -1.
          6    1    1    2  501    0  0.73164204500E+02  0.15773059981E+03  0.48731316880E+03  0.54555940779E+03  0.17300000000E+03 0.  1.
         -6    1    1    2    0  502 -0.73164204500E+02 -0.15773059981E+03  0.11868504898E+03  0.27248318075E+03  0.17300000000E+03 0. -1.
<mgrwt>
<rscale>  2 0.24527728E+03</rscale>
<asrwt>0</asrwt>
<pdfrwt beam="1">  1       21 0.10954160E+00 0.24527728E+03</pdfrwt>
<pdfrwt beam="2">  1       21 0.16311106E-01 0.24527728E+03</pdfrwt>
<totfact> 0.21551516E+04</totfact>
</mgrwt>
</event>
<event>
 4    1  0.4017302E+000  0.1802113E+03  0.7546771E-02  0.1167599E+00
         21   -1    0    0  501  502  0.00000000000E+00  0.00000000000E+00  0.78071459027E+02  0.78071459027E+02  0.00000000000E+00 0.  1.
         21   -1    0    0  502  503 -0.00000000000E+00 -0.00000000000E+00 -0.41769430393E+03  0.41769430393E+03  0.00000000000E+00 0.  1.
          6    1    1    2  501    0 -0.19485075866E+02 -0.46555936861E+02 -0.18569430939E+03  0.25876340541E+03  0.17300000000E+03 0. -1.
         -6    1    1    2    0  503  0.19485075866E+02  0.46555936861E+02 -0.15392853552E+03  0.23700235755E+03  0.17300000000E+03 0. -1.
<mgrwt>
<rscale>  2 0.18021133E+03</rscale>
<asrwt>0</asrwt>
<pdfrwt beam="1">  1       21 0.12010993E-01 0.18021133E+03</pdfrwt>
<pdfrwt beam="2">  1       21 0.64260664E-01 0.18021133E+03</pdfrwt>
<totfact> 0.13147351E+05</totfact>
</mgrwt>
</event>
<event>
 4    1  0.4017302E+000  0.3939746E+03  0.7546771E-02  0.1045886E+00
         21   -1    0    0  501  502  0.00000000000E+00  0.00000000000E+00  0.22278273898E+03  0.22278273898E+03  0.00000000000E+00 0. -1.
         21   -1    0    0  502  503 -0.00000000000E+00 -0.00000000000E+00 -0.71072802239E+03  0.71072802239E+03  0.00000000000E+00 0.  1.
          6    1    1    2  501    0 -0.12838642148E+03 -0.32985440492E+03 -0.17843230159E+03  0.43249750048E+03  0.17300000000E+03 0. -1.
         -6    1    1    2    0  503  0.12838642148E+03  0.32985440492E+03 -0.30951298183E+03  0.50101326089E+03  0.17300000000E+03 0.  1.
<mgrwt>
<rscale>  2 0.39397462E+03</rscale>
<asrwt>0</asrwt>
<pdfrwt beam="1">  1       21 0.34274268E-01 0.39397462E+03</pdfrwt>
<pdfrwt beam="2">  1       21 0.10934277E+00 0.39397462E+03</pdfrwt>
<totfact> 0.48615341E+03</totfact>
</mgrwt>
</event>
<event>
 4    1  0.4017302E+000  0.2001674E+03  0.7546771E-02  0.1149598E+00
         21   -1    0    0  501  502  0.00000000000E+00  0.00000000000E+00  0.47775743265E+02  0.47775743265E+02  0.00000000000E+00 0. -1.
         21   -1    0    0  502  503 -0.00000000000E+00 -0.00000000000E+00 -0.86252154451E+03  0.86252154451E+03  0.00000000000E+00 0.  1.
          6    1    1    2  501    0 -0.74228555356E+02  0.68030084444E+02 -0.48309772736E+03  0.52292483686E+03  0.17300000000E+03 0.  1.
         -6    1    1    2    0  503  0.74228555356E+02 -0.68030084444E+02 -0.33164807388E+03  0.38737245091E+03  0.17300000000E+03 0. -1.
<mgrwt>
<rscale>  2 0.20016736E+03</rscale>
<asrwt>0</asrwt>
<pdfrwt beam="1">  1       21 0.73501156E-02 0.20016736E+03</pdfrwt>
<pdfrwt beam="2">  1       21 0.13269560E+00 0.20016736E+03</pdfrwt>
<totfact> 0.56825470E+04</totfact>
</mgrwt>
</event>
<event>
 4    1  0.4017302E+000  0.2150826E+03  0.7546771E-02  0.1137603E+00
         21   -1    0    0  503  502  0.00000000000E+00  0.00000000000E+00  0.10536818362E+04  0.10536818362E+04  0.00000000000E+00 0. -1.
         21   -1    0    0  501  503 -0.00000000000E+00 -0.00000000000E+00 -0.46277607993E+02  0.46277607993E+02  0.00000000000E+00 0.  1.
          6    1    1    2  501    0 -0.97771359393E+02  0.82293883751E+02  0.37913770653E+03  0.43589668791E+03  0.17300000000E+03 0. -1.
         -6    1    1    2    0  502  0.97771359393E+02 -0.82293883751E+02  0.62826652171E+03  0.66406275632E+03  0.17300000000E+03 0. -1.
<mgrwt>
<rscale>  2 0.21508259E+03</rscale>
<asrwt>0</asrwt>
<pdfrwt beam="1">  1       21 0.16210488E+00 0.21508259E+03</pdfrwt>
<pdfrwt beam="2">  1       21 0.71196328E-02 0.21508259E+03</pdfrwt>
<totfact> 0.35202970E+04</totfact>
</mgrwt>
</event>
<event>
 4    1  0.4017302E+000  0.2568233E+03  0.7546771E-02  0.1109067E+00
         21   -1    0    0  501  502  0.00000000000E+00  0.00000000000E+00  0.18322992450E+03  0.18322992450E+03  0.00000000000E+00 0.  1.
         21   -1    0    0  502  503 -0.00000000000E+00 -0.00000000000E+00 -0.57916796810E+03  0.57916796810E+03  0.00000000000E+00 0.  1.
          6    1    1    2  501    0 -0.87365013195E+02  0.16851274799E+03  0.36541716892E+02  0.25940988578E+03  0.17300000000E+03 0.  1.
         -6    1    1    2    0  503  0.87365013195E+02 -0.16851274799E+03 -0.43247976049E+03  0.50298800682E+03  0.17300000000E+03 0.  1.
<mgrwt>
<rscale>  2 0.25682327E+03</rscale>
<asrwt>0</asrwt>
<pdfrwt beam="1">  1       21 0.28189219E-01 0.25682327E+03</pdfrwt>
<pdfrwt beam="2">  1       21 0.89102766E-01 0.25682327E+03</pdfrwt>
<totfact> 0.12442550E+04</totfact>
</mgrwt>
</event>
<event>
 4    1  0.4017302E+000  0.1952206E+03  0.7546771E-02  0.1153835E+00
         21   -1    0    0  503  502  0.00000000000E+00  0.00000000000E+00  0.75646376310E+02  0.75646376310E+02  0.00000000000E+00 0. -1.
         21   -1    0    0  501  503 -0.00000000000E+00 -0.00000000000E+00 -0.64250634651E+03  0.64250634651E+03  0.00000000000E+00 0.  1.
          6    1    1    2  501    0 -0.54787273691E+02 -0.71975173921E+02 -0.45026509113E+03  0.49076442751E+03  0.17300000000E+03 0.  1.
         -6    1    1    2    0  502  0.54787273691E+02  0.71975173921E+02 -0.11659487907E+03  0.22738829531E+03  0.17300000000E+03 0. -1.
<mgrwt>
<rscale>  2 0.19522057E+03</rscale>
<asrwt>0</asrwt>
<pdfrwt beam="1">  1       21 0.11637904E-01 0.19522057E+03</pdfrwt>
<pdfrwt beam="2">  1       21 0.98847130E-01 0.19522057E+03</pdfrwt>
<totfact> 0.52236078E+04</totfact>
</mgrwt>
</event>
<event>
 4    1  0.4017302E+000  0.1913980E+03  0.7546771E-02  0.1157206E+00
         21   -1    0    0  503  502  0.00000000000E+00  0.00000000000E+00  0.15619001154E+03  0.15619001154E+03  0.00000000000E+00 0.  1.
         21   -1    0    0  501  503 -0.00000000000E+00 -0.00000000000E+00 -0.38573389450E+03  0.38573389450E+03  0.00000000000E+00 0.  1.
          6    1    1    2  501    0 -0.64229333055E+02 -0.50781786489E+02 -0.28441181401E+03  0.34281668135E+03  0.17300000000E+03 0.  1.
         -6    1    1    2    0  502  0.64229333055E+02  0.50781786489E+02  0.54867931050E+02  0.19910722468E+03  0.17300000000E+03 0.  1.
<mgrwt>
<rscale>  2 0.19139801E+03</rscale>
<asrwt>0</asrwt>
<pdfrwt beam="1">  1       21 0.24029233E-01 0.19139801E+03</pdfrwt>
<pdfrwt beam="2">  1       21 0.59343675E-01 0.19139801E+03</pdfrwt>
<totfact> 0.43363549E+04</totfact>
</mgrwt>
</event>
<event>
 4    1  0.4017302E+000  0.2294382E+03  0.7546771E-02  0.1127036E+00
         21   -1    0    0  503  502  0.00000000000E+00  0.00000000000E+00  0.28041385463E+03  0.28041385463E+03  0.00000000000E+00 0. -1.
         21   -1    0    0  501  503 -0.00000000000E+00 -0.00000000000E+00 -0.88011413988E+03  0.88011413988E+03  0.00000000000E+00 0. -1.
          6    1    1    2  501    0 -0.15044944032E+03 -0.88239254933E+01 -0.81452138485E+03  0.84621922818E+03  0.17300000000E+03 0. -1.
         -6    1    1    2    0  502  0.15044944032E+03  0.88239254933E+01  0.21482109961E+03  0.31430876633E+03  0.17300000000E+03 0. -1.
<mgrwt>
<rscale>  2 0.22943822E+03</rscale>
<asrwt>0</asrwt>
<pdfrwt beam="1">  1       21 0.43140594E-01 0.22943822E+03</pdfrwt>
<pdfrwt beam="2">  1       21 0.13540217E+00 0.22943822E+03</pdfrwt>
<totfact> 0.19495647E+03</totfact>
</mgrwt>
</event>
<event>
 4    1  0.4017302E+000  0.1899866E+03  0.7546771E-02  0.1158473E+00
         21   -1    0    0  503  502  0.00000000000E+00  0.00000000000E+00  0.36342367043E+03  0.36342367043E+03  0.00000000000E+00 0. -1.
         21   -1    0    0  501  503 -0.00000000000E+00 -0.00000000000E+00 -0.20772493398E+03  0.20772493398E+03  0.00000000000E+00 0. -1.
          6    1    1    2  501    0  0.50928521688E+01  0.78358082619E+02 -0.12845150089E+03  0.22933537524E+03  0.17300000000E+03 0. -1.
         -6    1    1    2    0  502 -0.50928521688E+01 -0.78358082619E+02  0.28415023734E+03  0.34181322917E+03  0.17300000000E+03 0. -1.
<mgrwt>
<rscale>  2 0.18998665E+03</rscale>
<asrwt>0</asrwt>
<pdfrwt beam="1">  1       21 0.55911334E-01 0.18998665E+03</pdfrwt>
<pdfrwt beam="2">  1       21 0.31957682E-01 0.18998665E+03</pdfrwt>
<totfact> 0.28409421E+04</totfact>
</mgrwt>
</event>
<event>
 4    1  0.4017302E+000  0.2816960E+03  0.7546771E-02  0.1094766E+00
         21   -1    0    0  501  502  0.00000000000E+00  0.00000000000E+00  0.46290488134E+03  0.46290488134E+03  0.00000000000E+00 0.  1.
         21   -1    0    0  502  503 -0.00000000000E+00 -0.00000000000E+00 -0.18161520859E+03  0.18161520859E+03  0.00000000000E+00 0. -1.
          6    1    1    2  501    0 -0.90964907449E+02 -0.20285222844E+03  0.21698621891E+03  0.35557792419E+03  0.17300000000E+03 0. -1.
         -6    1    1    2    0  503  0.90964907449E+02  0.20285222844E+03  0.64303453831E+02  0.28894216574E+03  0.17300000000E+03 0. -1.
<mgrwt>
<rscale>  2 0.28169601E+03</rscale>
<asrwt>0</asrwt>
<pdfrwt beam="1">  1       21 0.71216135E-01 0.28169601E+03</pdfrwt>
<pdfrwt beam="2">  1       21 0.27940801E-01 0.28169601E+03</pdfrwt>
<totfact> 0.20851369E+04</totfact>
</mgrwt>
</event>
<event>
 4    1  0.4017302E+000  0.1840898E+03  0.7546771E-02  0.1163903E+00
         21   -1    0    0  501  502  0.00000000000E+00  0.00000000000E+00  0.91621069286E+03  0.91621069286E+03  0.00000000000E+00 0.  1.
         21   -1    0    0  502  503 -0.00000000000E+00 -0.00000000000E+00 -0.53337514621E+02  0.53337514621E+02  0.00000000000E+00 0.  1.
          6    1    1    2  501    0  0.62417375933E+02 -0.80071240398E+01  0.69983006342E+03  0.72363745102E+03  0.17300000000E+03 0.  1.
         -6    1    1    2    0  503 -0.62417375933E+02  0.80071240398E+01  0.16304311482E+03  0.24591075647E+03  0.17300000000E+03 0.  1.
<mgrwt>
<rscale>  2 0.18408977E+03</rscale>
<asrwt>0</asrwt>
<pdfrwt beam="1">  1       21 0.14095548E+00 0.18408977E+03</pdfrwt>
<pdfrwt beam="2">  1       21 0.82057722E-02 0.18408977E+03</pdfrwt>
<totfact> 0.40563082E+04</totfact>
</mgrwt>
</event>
<event>
 4    1  0.4017302E+000  0.1950942E+03  0.7546771E-02  0.1153945E+00
         21   -1    0    0  503  502  0.00000000000E+00  0.00000000000E+00  0.20046465500E+03  0.20046465500E+03  0.00000000000E+00 0.  1.
         21   -1    0    0  501  503 -0.00000000000E+00 -0.00000000000E+00 -0.45351593138E+03  0.45351593138E+03  0.00000000000E+00 0.  1.
          6    1    1    2  501    0  0.75270362754E+02 -0.49670085431E+02 -0.37584217881E+03  0.42346084620E+03  0.17300000000E+03 0.  1.
         -6    1    1    2    0  502 -0.75270362754E+02  0.49670085431E+02  0.12279090242E+03  0.23051974018E+03  0.17300000000E+03 0.  1.
<mgrwt>
<rscale>  2 0.19509419E+03</rscale>
<asrwt>0</asrwt>
<pdfrwt beam="1">  1       21 0.30840716E-01 0.19509419E+03</pdfrwt>
<pdfrwt beam="2">  1       21 0.69771681E-01 0.19509419E+03</pdfrwt>
<totfact> 0.18815637E+04</totfact>
</mgrwt>
</event>
<event>
 4    1  0.4017302E+000  0.2278154E+03  0.7546771E-02  0.1128187E+00
         21   -1    0    0  501  502  0.00000000000E+00  0.00000000000E+00  0.20441413906E+03  0.20441413906E+03  0.00000000000E+00 0.  1.
         21   -1    0    0  502  503 -0.00000000000E+00 -0.00000000000E+00 -0.39171019180E+03  0.39171019180E+03  0.00000000000E+00 0.  1.
          6    1    1    2  501    0  0.14712173775E+03 -0.18056413269E+02 -0.27044389029E+03  0.35360958354E+03  0.17300000000E+03 0.  1.
         -6    1    1    2    0  503 -0.14712173775E+03  0.18056413269E+02  0.83147837547E+02  0.24251474732E+03  0.17300000000E+03 0.  1.
<mgrwt>
<rscale>  2 0.22781536E+03</rscale>
<asrwt>0</asrwt>
<pdfrwt beam="1">  1       21 0.31448329E-01 0.22781536E+03</pdfrwt>
<pdfrwt beam="2">  1       21 0.60263106E-01 0.22781536E+03</pdfrwt>
<totfact> 0.24467585E+04</totfact>
</mgrwt>
</event>
<event>
 4    1  0.4017302E+000  0.1773837E+03  0.7546771E-02  0.1170359E+00
         21   -1    0    0  503  502  0.00000000000E+00  0.00000000000E+00  0.39797687445E+03  0.39797687445E+03  0.00000000000E+00 0.  1.
         21   -1    0    0  501  503 -0.00000000000E+00 -0.00000000000E+00 -0.88254984894E+02  0.88254984894E+02  0.00000000000E+00 0.  1.
          6    1    1    2  501    0 -0.20744477036E+02 -0.33251182745E+02  0.23332387786E+03  0.29309555858E+03  0.17300000000E+03 0.  1.
         -6    1    1    2    0  502  0.20744477036E+02  0.33251182745E+02  0.76398011703E+02  0.19313630077E+03  0.17300000000E+03 0.  1.
<mgrwt>
<rscale>  2 0.17738369E+03</rscale>
<asrwt>0</asrwt>
<pdfrwt beam="1">  1       21 0.61227211E-01 0.17738369E+03</pdfrwt>
<pdfrwt beam="2">  1       21 0.13577690E-01 0.17738369E+03</pdfrwt>
<totfact> 0.11723977E+05</totfact>
</mgrwt>
</event>
<event>
 4    1  0.4017302E+000  0.1763946E+03  0.7546771E-02  0.1171339E+00
         21   -1    0    0  501  502  0.00000000000E+00  0.00000000000E+00  0.59444444423E+03  0.59444444423E+03  0.00000000000E+00 0. -1.
         21   -1    0    0  502  503 -0.00000000000E+00 -0.00000000000E+00 -0.98326357924E+02  0.98326357924E+02  0.00000000000E+00 0. -1.
          6    1    1    2  501    0 -0.30378235453E+02 -0.16223442957E+02  0.11181062404E+02  0.17674855996E+03  0.17300000000E+03 0. -1.
         -6    1    1    2    0  503  0.30378235453E+02  0.16223442957E+02  0.48493702390E+03  0.51602224219E+03  0.17300000000E+03 0. -1.
<mgrwt>
<rscale>  2 0.17639455E+03</rscale>
<asrwt>0</asrwt>
<pdfrwt beam="1">  1       21 0.91452989E-01 0.17639455E+03</pdfrwt>
<pdfrwt beam="2">  1       21 0.15127132E-01 0.17639455E+03</pdfrwt>
<totfact> 0.39441228E+04</totfact>
</mgrwt>
</event>
<event>
 4    1  0.4017302E+000  0.1871102E+03  0.7546771E-02  0.1161094E+00
         21   -1    0    0  503  502  0.00000000000E+00  0.00000000000E+00  0.59740687706E+03  0.59740687706E+03  0.00000000000E+00 0.  1.
         21   -1    0    0  501  503 -0.00000000000E+00 -0.00000000000E+00 -0.62555662105E+02  0.62555662105E+02  0.00000000000E+00 0.  1.
          6    1    1    2  501    0  0.28329279217E+02 -0.65411571993E+02  0.18448537129E+03  0.26276429367E+03  0.17300000000E+03 0.  1.
         -6    1    1    2    0  502 -0.28329279217E+02  0.65411571993E+02  0.35036584367E+03  0.39719824549E+03  0.17300000000E+03 0.  1.
<mgrwt>
<rscale>  2 0.18711019E+03</rscale>
<asrwt>0</asrwt>
<pdfrwt beam="1">  1       21 0.91908747E-01 0.18711019E+03</pdfrwt>
<pdfrwt beam="2">  1       21 0.96239484E-02 0.18711019E+03</pdfrwt>
<totfact> 0.87082785E+04</totfact>
</mgrwt>
</event>
<event>
 4    1  0.4017302E+000  0.1882592E+03  0.7546771E-02  0.1160041E+00
         21   -1    0    0  501  502  0.00000000000E+00  0.00000000000E+00  0.39641175805E+03  0.39641175805E+03  0.00000000000E+00 0.  1.
         21   -1    0    0  502  503 -0.00000000000E+00 -0.00000000000E+00 -0.14417773919E+03  0.14417773919E+03  0.00000000000E+00 0. -1.
          6    1    1    2  501    0 -0.50640408057E+02  0.54296023680E+02  0.29271416175E+03  0.34802742651E+03  0.17300000000E+03 0.  1.
         -6    1    1    2    0  503  0.50640408057E+02 -0.54296023680E+02 -0.40480142881E+02  0.19256207073E+03  0.17300000000E+03 0. -1.
<mgrwt>
<rscale>  2 0.18825915E+03</rscale>
<asrwt>0</asrwt>
<pdfrwt beam="1">  1       21 0.60986424E-01 0.18825915E+03</pdfrwt>
<pdfrwt beam="2">  1       21 0.22181191E-01 0.18825915E+03</pdfrwt>
<totfact> 0.47654159E+04</totfact>
</mgrwt>
</event>
<event>
 4    1  0.4017302E+000  0.1739755E+03  0.7546771E-02  0.1173764E+00
         21   -1    0    0  501  502  0.00000000000E+00  0.00000000000E+00  0.11863448650E+03  0.11863448650E+03  0.00000000000E+00 0. -1.
         21   -1    0    0  502  503 -0.00000000000E+00 -0.00000000000E+00 -0.27717554237E+03  0.27717554237E+03  0.00000000000E+00 0. -1.
          6    1    1    2  501    0  0.14925512648E+02 -0.10756075916E+02 -0.13508144828E+03  0.22025998676E+03  0.17300000000E+03 0. -1.
         -6    1    1    2    0  503 -0.14925512648E+02  0.10756075916E+02 -0.23459607596E+02  0.17555004211E+03  0.17300000000E+03 0. -1.
<mgrwt>
<rscale>  2 0.17397547E+03</rscale>
<asrwt>0</asrwt>
<pdfrwt beam="1">  1       21 0.18251460E-01 0.17397547E+03</pdfrwt>
<pdfrwt beam="2">  1       21 0.42642390E-01 0.17397547E+03</pdfrwt>
<totfact> 0.14565863E+05</totfact>
</mgrwt>
</event>
<event>
 4    1  0.4017302E+000  0.4769711E+03  0.7546771E-02  0.1019971E+00
         21   -1    0    0  501  502  0.00000000000E+00  0.00000000000E+00  0.55741093342E+03  0.55741093342E+03  0.00000000000E+00 0.  1.
         21   -1    0    0  502  503 -0.00000000000E+00 -0.00000000000E+00 -0.66506824165E+03  0.66506824165E+03  0.00000000000E+00 0. -1.
          6    1    1    2  501    0 -0.34879953260E+03 -0.27552008955E+03  0.32608481658E+03  0.57778260729E+03  0.17300000000E+03 0.  1.
         -6    1    1    2    0  503  0.34879953260E+03  0.27552008955E+03 -0.43374212480E+03  0.64469656778E+03  0.17300000000E+03 0. -1.
<mgrwt>
<rscale>  2 0.47697110E+03</rscale>
<asrwt>0</asrwt>
<pdfrwt beam="1">  1       21 0.85755529E-01 0.47697110E+03</pdfrwt>
<pdfrwt beam="2">  1       21 0.10231819E+00 0.47697110E+03</pdfrwt>
<totfact> 0.76286157E+02</totfact>
</mgrwt>
</event>
<event>
 4    1  0.4017302E+000  0.1794227E+03  0.7546771E-02  0.1168363E+00
         21   -1    0    0  503  502  0.00000000000E+00  0.00000000000E+00  0.21341517188E+02  0.21341517188E+02  0.00000000000E+00 0. -1.
         21   -1    0    0  501  503 -0.00000000000E+00 -0.00000000000E+00 -0.17079449105E+04  0.17079449105E+04  0.00000000000E+00 0. -1.
          6    1    1    2  501    0  0.46381126898E+02 -0.10597325210E+02 -0.54779251019E+03  0.57642791956E+03  0.17300000000E+03 0. -1.
         -6    1    1    2    0  502 -0.46381126898E+02  0.10597325210E+02 -0.11388108831E+04  0.11528585081E+04  0.17300000000E+03 0. -1.
<mgrwt>
<rscale>  2 0.17942272E+03</rscale>
<asrwt>0</asrwt>
<pdfrwt beam="1">  1       21 0.32833102E-02 0.17942272E+03</pdfrwt>
<pdfrwt beam="2">  1       21 0.26276077E+00 0.17942272E+03</pdfrwt>
<totfact> 0.30863919E+04</totfact>
</mgrwt>
</event>
<event>
 4    1  0.4017302E+000  0.1788985E+03  0.7546771E-02  0.1168873E+00
         21   -1    0    0  503  502  0.00000000000E+00  0.00000000000E+00  0.28598792719E+02  0.28598792719E+02  0.00000000000E+00 0. -1.
         21   -1    0    0  501  503 -0.00000000000E+00 -0.00000000000E+00 -0.12454742297E+04  0.12454742297E+04  0.00000000000E+00 0. -1.
          6    1    1    2  501    0  0.28948051497E+02 -0.35180933843E+02 -0.81136456122E+03  0.83085325961E+03  0.17300000000E+03 0. -1.
         -6    1    1    2    0  502 -0.28948051497E+02  0.35180933843E+02 -0.40551087580E+03  0.44321976285E+03  0.17300000000E+03 0. -1.
<mgrwt>
<rscale>  2 0.17889854E+03</rscale>
<asrwt>0</asrwt>
<pdfrwt beam="1">  1       21 0.43998147E-02 0.17889854E+03</pdfrwt>
<pdfrwt beam="2">  1       21 0.19161140E+00 0.17889854E+03</pdfrwt>
<totfact> 0.51270189E+04</totfact>
</mgrwt>
</event>
<event>
 4    1  0.4017302E+000  0.2044737E+03  0.7546771E-02  0.1146019E+00
         21   -1    0    0  501  502  0.00000000000E+00  0.00000000000E+00  0.12890530293E+03  0.12890530293E+03  0.00000000000E+00 0. -1.
         21   -1    0    0  502  503 -0.00000000000E+00 -0.00000000000E+00 -0.65934295963E+03  0.65934295963E+03  0.00000000000E+00 0.  1.
          6    1    1    2  501    0 -0.30724774141E+02 -0.10457761954E+03  0.15712343343E+02  0.20507649301E+03  0.17300000000E+03 0. -1.
         -6    1    1    2    0  503  0.30724774141E+02  0.10457761954E+03 -0.54615000004E+03  0.58317176955E+03  0.17300000000E+03 0.  1.
<mgrwt>
<rscale>  2 0.20447369E+03</rscale>
<asrwt>0</asrwt>
<pdfrwt beam="1">  1       21 0.19831585E-01 0.20447369E+03</pdfrwt>
<pdfrwt beam="2">  1       21 0.10143738E+00 0.20447369E+03</pdfrwt>
<totfact> 0.18470471E+04</totfact>
</mgrwt>
</event>
<event>
 4    1  0.4017302E+000  0.2008623E+03  0.7546771E-02  0.1149013E+00
         21   -1    0    0  501  502  0.00000000000E+00  0.00000000000E+00  0.19886424203E+03  0.19886424203E+03  0.00000000000E+00 0.  1.
         21   -1    0    0  502  503 -0.00000000000E+00 -0.00000000000E+00 -0.29878040870E+03  0.29878040870E+03  0.00000000000E+00 0. -1.
          6    1    1    2  501    0 -0.74636582228E+02 -0.69613612466E+02  0.91010524316E+02  0.22051891072E+03  0.17300000000E+03 0.  1.
         -6    1    1    2    0  503  0.74636582228E+02  0.69613612466E+02 -0.19092669098E+03  0.27712574001E+03  0.17300000000E+03 0. -1.
<mgrwt>
<rscale>  2 0.20086233E+03</rscale>
<asrwt>0</asrwt>
<pdfrwt beam="1">  1       21 0.30594499E-01 0.20086233E+03</pdfrwt>
<pdfrwt beam="2">  1       21 0.45966217E-01 0.20086233E+03</pdfrwt>
<totfact> 0.46331699E+04</totfact>
</mgrwt>
</event>
<event>
 4    1  0.4017302E+000  0.2355119E+03  0.7546771E-02  0.1122819E+00
         21   -1    0    0  501  502  0.00000000000E+00  0.00000000000E+00  0.69459853013E+03  0.69459853013E+03  0.00000000000E+00 0.  1.
         21   -1    0    0  502  503 -0.00000000000E+00 -0.00000000000E+00 -0.85619555116E+02  0.85619555116E+02  0.00000000000E+00 0. -1.
          6    1    1    2  501    0  0.67824730605E+02  0.14469507244E+03  0.40572976602E+03  0.46912951421E+03  0.17300000000E+03 0.  1.
         -6    1    1    2    0  503 -0.67824730605E+02 -0.14469507244E+03  0.20324920899E+03  0.31108857103E+03  0.17300000000E+03 0. -1.
<mgrwt>
<rscale>  2 0.23551191E+03</rscale>
<asrwt>0</asrwt>
<pdfrwt beam="1">  1       21 0.10686131E+00 0.23551191E+03</pdfrwt>
<pdfrwt beam="2">  1       21 0.13172240E-01 0.23551191E+03</pdfrwt>
<totfact> 0.33985852E+04</totfact>
</mgrwt>
</event>
<event>
 4    1  0.4017302E+000  0.1865736E+03  0.7546771E-02  0.1161589E+00
         21   -1    0    0  501  502  0.00000000000E+00  0.00000000000E+00  0.30589605700E+03  0.30589605700E+03  0.00000000000E+00 0. -1.
         21   -1    0    0  502  503 -0.00000000000E+00 -0.00000000000E+00 -0.22002982858E+03  0.22002982858E+03  0.00000000000E+00 0. -1.
          6    1    1    2  501    0  0.18842148368E+02  0.67273065432E+02  0.22565289296E+03  0.29279501360E+03  0.17300000000E+03 0. -1.
         -6    1    1    2    0  503 -0.18842148368E+02 -0.67273065432E+02 -0.13978666454E+03  0.23313087198E+03  0.17300000000E+03 0. -1.
<mgrwt>
<rscale>  2 0.18657356E+03</rscale>
<asrwt>0</asrwt>
<pdfrwt beam="1">  1       21 0.47060932E-01 0.18657356E+03</pdfrwt>
<pdfrwt beam="2">  1       21 0.33850743E-01 0.18657356E+03</pdfrwt>
<totfact> 0.36441688E+04</totfact>
</mgrwt>
</event>
<event>
 4    1  0.4017302E+000  0.1846804E+03  0.7546771E-02  0.1163349E+00
         21   -1    0    0  501  502  0.00000000000E+00  0.00000000000E+00  0.68465367033E+02  0.68465367033E+02  0.00000000000E+00 0. -1.
         21   -1    0    0  502  503 -0.00000000000E+00 -0.00000000000E+00 -0.83107039814E+03  0.83107039814E+03  0.00000000000E+00 0. -1.
          6    1    1    2  501    0  0.33966401676E+02  0.54992116339E+02 -0.96638966490E+02  0.20843689488E+03  0.17300000000E+03 0. -1.
         -6    1    1    2    0  503 -0.33966401676E+02 -0.54992116339E+02 -0.66596606462E+03  0.69109887030E+03  0.17300000000E+03 0. -1.
<mgrwt>
<rscale>  2 0.18468040E+03</rscale>
<asrwt>0</asrwt>
<pdfrwt beam="1">  1       21 0.10533134E-01 0.18468040E+03</pdfrwt>
<pdfrwt beam="2">  1       21 0.12785698E+00 0.18468040E+03</pdfrwt>
<totfact> 0.33516467E+04</totfact>
</mgrwt>
</event>
<event>
 4    1  0.4017302E+000  0.2671747E+03  0.7546771E-02  0.1102908E+00
         21   -1    0    0  501  502  0.00000000000E+00  0.00000000000E+00  0.10566399827E+03  0.10566399827E+03  0.00000000000E+00 0.  1.
         21   -1    0    0  502  503 -0.00000000000E+00 -0.00000000000E+00 -0.67676896059E+03  0.67676896059E+03  0.00000000000E+00 0. -1.
          6    1    1    2  501    0  0.10828759199E+03  0.17241546199E+03 -0.26901257289E+03  0.37914384932E+03  0.17300000000E+03 0.  1.
         -6    1    1    2    0  503 -0.10828759199E+03 -0.17241546199E+03 -0.30209238943E+03  0.40328910953E+03  0.17300000000E+03 0. -1.
<mgrwt>
<rscale>  2 0.26717465E+03</rscale>
<asrwt>0</asrwt>
<pdfrwt beam="1">  1       21 0.16255999E-01 0.26717465E+03</pdfrwt>
<pdfrwt beam="2">  1       21 0.10411830E+00 0.26717465E+03</pdfrwt>
<totfact> 0.24278022E+04</totfact>
</mgrwt>
</event>
<event>
 4    1  0.4017302E+000  0.1857135E+03  0.7546771E-02  0.1162385E+00
         21   -1    0    0  501  502  0.00000000000E+00  0.00000000000E+00  0.63115238343E+03  0.63115238343E+03  0.00000000000E+00 0.  1.
         21   -1    0    0  502  503 -0.00000000000E+00 -0.00000000000E+00 -0.60522490909E+02  0.60522490909E+02  0.00000000000E+00 0.  1.
          6    1    1    2  501    0  0.50281003298E+02  0.45081394963E+02  0.39308509914E+03  0.43474752056E+03  0.17300000000E+03 0.  1.
         -6    1    1    2    0  503 -0.50281003298E+02 -0.45081394963E+02  0.17754479338E+03  0.25692735378E+03  0.17300000000E+03 0.  1.
<mgrwt>
<rscale>  2 0.18571352E+03</rscale>
<asrwt>0</asrwt>
<pdfrwt beam="1">  1       21 0.97100362E-01 0.18571352E+03</pdfrwt>
<pdfrwt beam="2">  1       21 0.93111529E-02 0.18571352E+03</pdfrwt>
<totfact> 0.81223353E+04</totfact>
</mgrwt>
</event>
<event>
 4    1  0.4017302E+000  0.1853981E+03  0.7546771E-02  0.1162679E+00
         21   -1    0    0  503  502  0.00000000000E+00  0.00000000000E+00  0.34680219810E+03  0.34680219810E+03  0.00000000000E+00 0. -1.
         21   -1    0    0  501  503 -0.00000000000E+00 -0.00000000000E+00 -0.15695770789E+03  0.15695770789E+03  0.00000000000E+00 0. -1.
          6    1    1    2  501    0 -0.71135624002E+01 -0.66278482680E+02 -0.57987757264E+02  0.19425503862E+03  0.17300000000E+03 0. -1.
         -6    1    1    2    0  502  0.71135624002E+01  0.66278482680E+02  0.24783224747E+03  0.30950486737E+03  0.17300000000E+03 0. -1.
<mgrwt>
<rscale>  2 0.18539806E+03</rscale>
<asrwt>0</asrwt>
<pdfrwt beam="1">  1       21 0.53354184E-01 0.18539806E+03</pdfrwt>
<pdfrwt beam="2">  1       21 0.24147340E-01 0.18539806E+03</pdfrwt>
<totfact> 0.53997668E+04</totfact>
</mgrwt>
</event>
<event>
 4    1  0.4017302E+000  0.2755909E+03  0.7546771E-02  0.1098122E+00
         21   -1    0    0  501  502  0.00000000000E+00  0.00000000000E+00  0.46902378493E+03  0.46902378493E+03  0.00000000000E+00 0. -1.
         21   -1    0    0  502  503 -0.00000000000E+00 -0.00000000000E+00 -0.16344605375E+03  0.16344605375E+03  0.00000000000E+00 0.  1.
          6    1    1    2  501    0  0.17554850070E+01  0.21451866915E+03  0.12236064676E+03  0.30153352885E+03  0.17300000000E+03 0. -1.
         -6    1    1    2    0  503 -0.17554850070E+01 -0.21451866915E+03  0.18321708442E+03  0.33093630983E+03  0.17300000000E+03 0. -1.
<mgrwt>
<rscale>  2 0.27559089E+03</rscale>
<asrwt>0</asrwt>
<pdfrwt beam="1">  1       21 0.72157505E-01 0.27559089E+03</pdfrwt>
<pdfrwt beam="2">  1       21 0.25145547E-01 0.27559089E+03</pdfrwt>
<totfact> 0.24901919E+04</totfact>
</mgrwt>
</event>
<event>
 4    1  0.4017302E+000  0.3177183E+03  0.7546771E-02  0.1076704E+00
         21   -1    0    0  503  502  0.00000000000E+00  0.00000000000E+00  0.10743482737E+04  0.10743482737E+04  0.00000000000E+00 0. -1.
         21   -1    0    0  501  503 -0.00000000000E+00 -0.00000000000E+00 -0.14853242241E+03  0.14853242241E+03  0.00000000000E+00 0. -1.
          6    1    1    2  501    0  0.76805101037E+02  0.25518010791E+03  0.92284183944E+02  0.33084933372E+03  0.17300000000E+03 0. -1.
         -6    1    1    2    0  502 -0.76805101037E+02 -0.25518010791E+03  0.83353166732E+03  0.89203136236E+03  0.17300000000E+03 0. -1.
<mgrwt>
<rscale>  2 0.31771829E+03</rscale>
<asrwt>0</asrwt>
<pdfrwt beam="1">  1       21 0.16528434E+00 0.31771829E+03</pdfrwt>
<pdfrwt beam="2">  1       21 0.22851143E-01 0.31771829E+03</pdfrwt>
<totfact> 0.37927669E+03</totfact>
</mgrwt>
</event>
<event>
 4    1  0.4017302E+000  0.1900107E+03  0.7546771E-02  0.1158452E+00
         21   -1    0    0  501  502  0.00000000000E+00  0.00000000000E+00  0.59997125156E+02  0.59997125156E+02  0.00000000000E+00 0. -1.
         21   -1    0    0  502  503 -0.00000000000E+00 -0.00000000000E+00 -0.60287414136E+03  0.60287414136E+03  0.00000000000E+00 0. -1.
          6    1    1    2  501    0  0.47822195436E+02  0.62354729582E+02 -0.25721226547E+03  0.31978465283E+03  0.17300000000E+03 0. -1.
         -6    1    1    2    0  503 -0.47822195436E+02 -0.62354729582E+02 -0.28566475074E+03  0.34308661369E+03  0.17300000000E+03 0. -1.
<mgrwt>
<rscale>  2 0.19001072E+03</rscale>
<asrwt>0</asrwt>
<pdfrwt beam="1">  1       21 0.92303270E-02 0.19001072E+03</pdfrwt>
<pdfrwt beam="2">  1       21 0.92749867E-01 0.19001072E+03</pdfrwt>
<totfact> 0.91646249E+04</totfact>
</mgrwt>
</event>
<event>
 4    1  0.4017302E+000  0.1864155E+03  0.7546771E-02  0.1161735E+00
         21   -1    0    0  503  502  0.00000000000E+00  0.00000000000E+00  0.42908670760E+03  0.42908670760E+03  0.00000000000E+00 0. -1.
         21   -1    0    0  501  503 -0.00000000000E+00 -0.00000000000E+00 -0.84020332216E+02  0.84020332216E+02  0.00000000000E+00 0. -1.
          6    1    1    2  501    0 -0.67466459558E+02 -0.16432277061E+02  0.12379200137E+03  0.22377489246E+03  0.17300000000E+03 0. -1.
         -6    1    1    2    0  502  0.67466459558E+02  0.16432277061E+02  0.22127437402E+03  0.28933214736E+03  0.17300000000E+03 0. -1.
<mgrwt>
<rscale>  2 0.18641551E+03</rscale>
<asrwt>0</asrwt>
<pdfrwt beam="1">  1       21 0.66013339E-01 0.18641551E+03</pdfrwt>
<pdfrwt beam="2">  1       21 0.12926205E-01 0.18641551E+03</pdfrwt>
<totfact> 0.10846911E+05</totfact>
</mgrwt>
</event>
<event>
 4    1  0.4017302E+000  0.2388002E+03  0.7546771E-02  0.1120595E+00
         21   -1    0    0  501  502  0.00000000000E+00  0.00000000000E+00  0.99594444370E+03  0.99594444370E+03  0.00000000000E+00 0. -1.
         21   -1    0    0  502  503 -0.00000000000E+00 -0.00000000000E+00 -0.73493823090E+02  0.73493823090E+02  0.00000000000E+00 0. -1.
          6    1    1    2  501    0  0.22136177043E+02 -0.16311511990E+03  0.71255315448E+03  0.75150352669E+03  0.17300000000E+03 0. -1.
         -6    1    1    2    0  503 -0.22136177043E+02  0.16311511990E+03  0.20989746613E+03  0.31793474010E+03  0.17300000000E+03 0. -1.
<mgrwt>
<rscale>  2 0.23880024E+03</rscale>
<asrwt>0</asrwt>
<pdfrwt beam="1">  1       21 0.15322221E+00 0.23880024E+03</pdfrwt>
<pdfrwt beam="2">  1       21 0.11306743E-01 0.23880024E+03</pdfrwt>
<totfact> 0.17902410E+04</totfact>
</mgrwt>
</event>
<event>
 4    1  0.4017302E+000  0.1849444E+03  0.7546771E-02  0.1163102E+00
         21   -1    0    0  503  502  0.00000000000E+00  0.00000000000E+00  0.69964704618E+03  0.69964704618E+03  0.00000000000E+00 0. -1.
         21   -1    0    0  501  503 -0.00000000000E+00 -0.00000000000E+00 -0.11062975196E+03  0.11062975196E+03  0.00000000000E+00 0. -1.
          6    1    1    2  501    0 -0.40870620876E+02  0.51039352607E+02 -0.81523919279E+01  0.18512397106E+03  0.17300000000E+03 0. -1.
         -6    1    1    2    0  502  0.40870620876E+02 -0.51039352607E+02  0.59716968614E+03  0.62515282709E+03  0.17300000000E+03 0. -1.
<mgrwt>
<rscale>  2 0.18494438E+03</rscale>
<asrwt>0</asrwt>
<pdfrwt beam="1">  1       21 0.10763800E+00 0.18494438E+03</pdfrwt>
<pdfrwt beam="2">  1       21 0.17019962E-01 0.18494438E+03</pdfrwt>
<totfact> 0.21526768E+04</totfact>
</mgrwt>
</event>
<event>
 4    1  0.4017302E+000  0.1749316E+03  0.7546771E-02  0.1172800E+00
         21   -1    0    0  503  502  0.00000000000E+00  0.00000000000E+00  0.38694008744E+02  0.38694008744E+02  0.00000000000E+00 0.  1.
         21   -1    0    0  501  503 -0.00000000000E+00 -0.00000000000E+00 -0.10541274324E+04  0.10541274324E+04  0.00000000000E+00 0.  1.
          6    1    1    2  501    0  0.14991061581E+02 -0.21150586090E+02 -0.78079119781E+03  0.80014747003E+03  0.17300000000E+03 0.  1.
         -6    1    1    2    0  502 -0.14991061581E+02  0.21150586090E+02 -0.23464222586E+03  0.29267397113E+03  0.17300000000E+03 0.  1.
<mgrwt>
<rscale>  2 0.17493164E+03</rscale>
<asrwt>0</asrwt>
<pdfrwt beam="1">  1       21 0.59529252E-02 0.17493164E+03</pdfrwt>
<pdfrwt beam="2">  1       21 0.16217343E+00 0.17493164E+03</pdfrwt>
<totfact> 0.49011871E+04</totfact>
</mgrwt>
</event>
<event>
 4    1  0.4017302E+000  0.1795280E+03  0.7546771E-02  0.1168261E+00
         21   -1    0    0  503  502  0.00000000000E+00  0.00000000000E+00  0.18339359204E+03  0.18339359204E+03  0.00000000000E+00 0. -1.
         21   -1    0    0  501  503 -0.00000000000E+00 -0.00000000000E+00 -0.11259041227E+04  0.11259041227E+04  0.00000000000E+00 0. -1.
          6    1    1    2  501    0 -0.47644423061E+02 -0.55943365872E+01 -0.10726451983E+04  0.10875651746E+04  0.17300000000E+03 0. -1.
         -6    1    1    2    0  502  0.47644423061E+02  0.55943365872E+01  0.13013466760E+03  0.22173254015E+03  0.17300000000E+03 0. -1.
<mgrwt>
<rscale>  2 0.17952796E+03</rscale>
<asrwt>0</asrwt>
<pdfrwt beam="1">  1       21 0.28214399E-01 0.17952796E+03</pdfrwt>
<pdfrwt beam="2">  1       21 0.17321602E+00 0.17952796E+03</pdfrwt>
<totfact> 0.24643938E+03</totfact>
</mgrwt>
</event>
<event>
 4    1  0.4017302E+000  0.2213568E+03  0.7546771E-02  0.1132876E+00
         21   -1    0    0  503  502  0.00000000000E+00  0.00000000000E+00  0.46699237688E+03  0.46699237688E+03  0.00000000000E+00 0. -1.
         21   -1    0    0  501  503 -0.00000000000E+00 -0.00000000000E+00 -0.13706000944E+03  0.13706000944E+03  0.00000000000E+00 0.  1.
          6    1    1    2  501    0 -0.12433484488E+03 -0.60088963260E+02  0.18720405963E+02  0.22214700258E+03  0.17300000000E+03 0.  1.
         -6    1    1    2    0  502  0.12433484488E+03  0.60088963260E+02  0.31121196148E+03  0.38190538374E+03  0.17300000000E+03 0. -1.
<mgrwt>
<rscale>  2 0.22135681E+03</rscale>
<asrwt>0</asrwt>
<pdfrwt beam="1">  1       21 0.71844981E-01 0.22135681E+03</pdfrwt>
<pdfrwt beam="2">  1       21 0.21086155E-01 0.22135681E+03</pdfrwt>
<totfact> 0.36034611E+04</totfact>
</mgrwt>
</event>
<event>
 4    1  0.4017302E+000  0.2718128E+03  0.7546771E-02  0.1100247E+00
         21   -1    0    0  503  502  0.00000000000E+00  0.00000000000E+00  0.15093249430E+03  0.15093249430E+03  0.00000000000E+00 0. -1.
         21   -1    0    0  501  503 -0.00000000000E+00 -0.00000000000E+00 -0.71610222445E+03  0.71610222445E+03  0.00000000000E+00 0.  1.
          6    1    1    2  501    0  0.41870830888E+02 -0.20542642990E+03 -0.38721568929E+02  0.27455699678E+03  0.17300000000E+03 0. -1.
         -6    1    1    2    0  502 -0.41870830888E+02  0.20542642990E+03 -0.52644816122E+03  0.59247772197E+03  0.17300000000E+03 0.  1.
<mgrwt>
<rscale>  2 0.27181277E+03</rscale>
<asrwt>0</asrwt>
<pdfrwt beam="1">  1       21 0.23220383E-01 0.27181277E+03</pdfrwt>
<pdfrwt beam="2">  1       21 0.11016957E+00 0.27181277E+03</pdfrwt>
<totfact> 0.10808590E+04</totfact>
</mgrwt>
</event>
<event>
 4    1  0.4017302E+000  0.2158418E+03  0.7546771E-02  0.1137022E+00
         21   -1    0    0  503  502  0.00000000000E+00  0.00000000000E+00  0.67984664729E+02  0.67984664729E+02  0.00000000000E+00 0.  1.
         21   -1    0    0  501  503 -0.00000000000E+00 -0.00000000000E+00 -0.73941693748E+03  0.73941693748E+03  0.00000000000E+00 0.  1.
          6    1    1    2  501    0  0.11950003383E+03  0.48769216371E+02 -0.22646873804E+03  0.31285105699E+03  0.17300000000E+03 0.  1.
         -6    1    1    2    0  502 -0.11950003383E+03 -0.48769216371E+02 -0.44496353471E+03  0.49455054521E+03  0.17300000000E+03 0.  1.
<mgrwt>
<rscale>  2 0.21584183E+03</rscale>
<asrwt>0</asrwt>
<pdfrwt beam="1">  1       21 0.10459180E-01 0.21584183E+03</pdfrwt>
<pdfrwt beam="2">  1       21 0.11375645E+00 0.21584183E+03</pdfrwt>
<totfact> 0.44570406E+04</totfact>
</mgrwt>
</event>
<event>
 4    1  0.4017302E+000  0.1801643E+03  0.7546771E-02  0.1167644E+00
         21   -1    0    0  501  502  0.00000000000E+00  0.00000000000E+00  0.47358994008E+03  0.47358994008E+03  0.00000000000E+00 0.  1.
         21   -1    0    0  502  503 -0.00000000000E+00 -0.00000000000E+00 -0.73206305579E+02  0.73206305579E+02  0.00000000000E+00 0.  1.
          6    1    1    2  501    0 -0.28292346803E+02 -0.41589928499E+02  0.13115603803E+03  0.22284767298E+03  0.17300000000E+03 0.  1.
         -6    1    1    2    0  503  0.28292346803E+02  0.41589928499E+02  0.26922759646E+03  0.32394857267E+03  0.17300000000E+03 0.  1.
<mgrwt>
<rscale>  2 0.18016431E+03</rscale>
<asrwt>0</asrwt>
<pdfrwt beam="1">  1       21 0.72859989E-01 0.18016431E+03</pdfrwt>
<pdfrwt beam="2">  1       21 0.11262509E-01 0.18016431E+03</pdfrwt>
<totfact> 0.11196433E+05</totfact>
</mgrwt>
</event>
<event>
 4    1  0.4017302E+000  0.2581494E+03  0.7546771E-02  0.1108260E+00
         21   -1    0    0  501  502  0.00000000000E+00  0.00000000000E+00  0.13495611659E+04  0.13495611659E+04  0.00000000000E+00 0. -1.
         21   -1    0    0  502  503 -0.00000000000E+00 -0.00000000000E+00 -0.11470488580E+03  0.11470488580E+03  0.00000000000E+00 0.  1.
          6    1    1    2  501    0 -0.62107827514E+02  0.18125876674E+03  0.11699365341E+04  0.11980787189E+04  0.17300000000E+03 0. -1.
         -6    1    1    2    0  503  0.62107827514E+02 -0.18125876674E+03  0.64919746031E+02  0.26618733287E+03  0.17300000000E+03 0.  1.
<mgrwt>
<rscale>  2 0.25814942E+03</rscale>
<asrwt>0</asrwt>
<pdfrwt beam="1">  1       21 0.20762478E+00 0.25814942E+03</pdfrwt>
<pdfrwt beam="2">  1       21 0.17646906E-01 0.25814942E+03</pdfrwt>
<totfact> 0.33038741E+03</totfact>
</mgrwt>
</event>
<event>
 4    1  0.4017302E+000  0.2000125E+03  0.7546771E-02  0.1149728E+00
         21   -1    0    0  501  502  0.00000000000E+00  0.00000000000E+00  0.79606386684E+03  0.79606386684E+03  0.00000000000E+00 0. -1.
         21   -1    0    0  502  503 -0.00000000000E+00 -0.00000000000E+00 -0.50346219735E+02  0.50346219735E+02  0.00000000000E+00 0. -1.
          6    1    1    2  501    0 -0.10037889128E+03 -0.28508193384E+00  0.39101946831E+03  0.43920522275E+03  0.17300000000E+03 0. -1.
         -6    1    1    2    0  503  0.10037889128E+03  0.28508193384E+00  0.35469817879E+03  0.40720486383E+03  0.17300000000E+03 0. -1.
<mgrwt>
<rscale>  2 0.20001251E+03</rscale>
<asrwt>0</asrwt>
<pdfrwt beam="1">  1       21 0.12247136E+00 0.20001251E+03</pdfrwt>
<pdfrwt beam="2">  1       21 0.77455728E-02 0.20001251E+03</pdfrwt>
<totfact> 0.63486755E+04</totfact>
</mgrwt>
</event>
<event>
 4    1  0.4017302E+000  0.2537642E+03  0.7546771E-02  0.1110949E+00
         21   -1    0    0  503  502  0.00000000000E+00  0.00000000000E+00  0.11867615472E+04  0.11867615472E+04  0.00000000000E+00 0.  1.
         21   -1    0    0  501  503 -0.00000000000E+00 -0.00000000000E+00 -0.95587749650E+02  0.95587749650E+02  0.00000000000E+00 0. -1.
          6    1    1    2  501    0 -0.16310245424E+03 -0.88683974581E+02  0.12400234009E+03  0.28244085801E+03  0.17300000000E+03 0. -1.
         -6    1    1    2    0  502  0.16310245424E+03  0.88683974581E+02  0.96717145747E+03  0.99990843885E+03  0.17300000000E+03 0.  1.
<mgrwt>
<rscale>  2 0.25376418E+03</rscale>
<asrwt>0</asrwt>
<pdfrwt beam="1">  1       21 0.18257869E+00 0.25376418E+03</pdfrwt>
<pdfrwt beam="2">  1       21 0.14705809E-01 0.25376418E+03</pdfrwt>
<totfact> 0.67845724E+03</totfact>
</mgrwt>
</event>
<event>
 4    1  0.4017302E+000  0.1910819E+03  0.7546771E-02  0.1157489E+00
         21   -1    0    0  501  502  0.00000000000E+00  0.00000000000E+00  0.14362095991E+03  0.14362095991E+03  0.00000000000E+00 0.  1.
         21   -1    0    0  502  503 -0.00000000000E+00 -0.00000000000E+00 -0.43606092930E+03  0.43606092930E+03  0.00000000000E+00 0. -1.
          6    1    1    2  501    0  0.20541059558E+02 -0.78494219899E+02  0.40944744456E+02  0.19541942018E+03  0.17300000000E+03 0.  1.
         -6    1    1    2    0  503 -0.20541059558E+02  0.78494219899E+02 -0.33338471384E+03  0.38426246903E+03  0.17300000000E+03 0. -1.
<mgrwt>
<rscale>  2 0.19108186E+03</rscale>
<asrwt>0</asrwt>
<pdfrwt beam="1">  1       21 0.22095533E-01 0.19108186E+03</pdfrwt>
<pdfrwt beam="2">  1       21 0.67086296E-01 0.19108186E+03</pdfrwt>
<totfact> 0.38981148E+04</totfact>
</mgrwt>
</event>
<event>
 4    1  0.4017302E+000  0.1880721E+03  0.7546771E-02  0.1160212E+00
         21   -1    0    0  501  502  0.00000000000E+00  0.00000000000E+00  0.30916527092E+02  0.30916527092E+02  0.00000000000E+00 0.  1.
         21   -1    0    0  502  503 -0.00000000000E+00 -0.00000000000E+00 -0.15558155551E+04  0.15558155551E+04  0.00000000000E+00 0. -1.
          6    1    1    2  501    0 -0.70223334750E+02  0.22600810429E+02 -0.35431674228E+03  0.40113771605E+03  0.17300000000E+03 0.  1.
         -6    1    1    2    0  503  0.70223334750E+02 -0.22600810429E+02 -0.11705822857E+04  0.11855943661E+04  0.17300000000E+03 0. -1.
<mgrwt>
<rscale>  2 0.18807210E+03</rscale>
<asrwt>0</asrwt>
<pdfrwt beam="1">  1       21 0.47563894E-02 0.18807210E+03</pdfrwt>
<pdfrwt beam="2">  1       21 0.23935621E+00 0.18807210E+03</pdfrwt>
<totfact> 0.22586673E+04</totfact>
</mgrwt>
</event>
<event>
 4    1  0.4017302E+000  0.1750646E+03  0.7546771E-02  0.1172667E+00
         21   -1    0    0  503  502  0.00000000000E+00  0.00000000000E+00  0.34887004355E+03  0.34887004355E+03  0.00000000000E+00 0. -1.
         21   -1    0    0  501  503 -0.00000000000E+00 -0.00000000000E+00 -0.13251611036E+03  0.13251611036E+03  0.00000000000E+00 0. -1.
          6    1    1    2  501    0  0.19386572462E+02 -0.18514466070E+02 -0.31564986259E+02  0.17788752908E+03  0.17300000000E+03 0. -1.
         -6    1    1    2    0  502 -0.19386572462E+02  0.18514466070E+02  0.24791891945E+03  0.30349862482E+03  0.17300000000E+03 0. -1.
<mgrwt>
<rscale>  2 0.17506463E+03</rscale>
<asrwt>0</asrwt>
<pdfrwt beam="1">  1       21 0.53672314E-01 0.17506463E+03</pdfrwt>
<pdfrwt beam="2">  1       21 0.20387094E-01 0.17506463E+03</pdfrwt>
<totfact> 0.73692489E+04</totfact>
</mgrwt>
</event>
<event>
 4    1  0.4017302E+000  0.1931334E+03  0.7546771E-02  0.1155665E+00
         21   -1    0    0  501  502  0.00000000000E+00  0.00000000000E+00  0.56129908548E+02  0.56129908548E+02  0.00000000000E+00 0.  1.
         21   -1    0    0  502  503 -0.00000000000E+00 -0.00000000000E+00 -0.18410810836E+04  0.18410810836E+04  0.00000000000E+00 0. -1.
          6    1    1    2  501    0 -0.18778918477E+02 -0.83778719515E+02 -0.13415493445E+03  0.23515541257E+03  0.17300000000E+03 0.  1.
         -6    1    1    2    0  503  0.18778918477E+02  0.83778719515E+02 -0.16507962406E+04  0.16620555796E+04  0.17300000000E+03 0. -1.
<mgrwt>
<rscale>  2 0.19313343E+03</rscale>
<asrwt>0</asrwt>
<pdfrwt beam="1">  1       21 0.86353722E-02 0.19313343E+03</pdfrwt>
<pdfrwt beam="2">  1       21 0.28324319E+00 0.19313343E+03</pdfrwt>
<totfact> 0.44742162E+03</totfact>
</mgrwt>
</event>
<event>
 4    1  0.4017302E+000  0.2189060E+03  0.7546771E-02  0.1134701E+00
         21   -1    0    0  501  502  0.00000000000E+00  0.00000000000E+00  0.10202755950E+03  0.10202755950E+03  0.00000000000E+00 0. -1.
         21   -1    0    0  502  503 -0.00000000000E+00 -0.00000000000E+00 -0.47311107550E+03  0.47311107550E+03  0.00000000000E+00 0. -1.
          6    1    1    2  501    0  0.42801377736E+02 -0.12711759474E+03 -0.21004724480E+03  0.30338043094E+03  0.17300000000E+03 0. -1.
         -6    1    1    2    0  503 -0.42801377736E+02  0.12711759474E+03 -0.16103627120E+03  0.27175820406E+03  0.17300000000E+03 0. -1.
<mgrwt>
<rscale>  2 0.21890601E+03</rscale>
<asrwt>0</asrwt>
<pdfrwt beam="1">  1       21 0.15696548E-01 0.21890601E+03</pdfrwt>
<pdfrwt beam="2">  1       21 0.72786320E-01 0.21890601E+03</pdfrwt>
<totfact> 0.60635986E+04</totfact>
</mgrwt>
</event>
<event>
 4    1  0.4017302E+000  0.2473118E+03  0.7546771E-02  0.1115016E+00
         21   -1    0    0  503  502  0.00000000000E+00  0.00000000000E+00  0.51213709686E+03  0.51213709686E+03  0.00000000000E+00 0.  1.
         21   -1    0    0  501  503 -0.00000000000E+00 -0.00000000000E+00 -0.11945828835E+03  0.11945828835E+03  0.00000000000E+00 0.  1.
          6    1    1    2  501    0  0.16581806548E+03 -0.61143241963E+02  0.19124930952E+03  0.31263305211E+03  0.17300000000E+03 0.  1.
         -6    1    1    2    0  502 -0.16581806548E+03  0.61143241963E+02  0.20142949899E+03  0.31896233310E+03  0.17300000000E+03 0.  1.
<mgrwt>
<rscale>  2 0.24731180E+03</rscale>
<asrwt>0</asrwt>
<pdfrwt beam="1">  1       21 0.78790321E-01 0.24731180E+03</pdfrwt>
<pdfrwt beam="2">  1       21 0.18378198E-01 0.24731180E+03</pdfrwt>
<totfact> 0.37444223E+04</totfact>
</mgrwt>
</event>
<event>
 4    1  0.4017302E+000  0.1824414E+03  0.7546771E-02  0.1165461E+00
         21   -1    0    0  501  502  0.00000000000E+00  0.00000000000E+00  0.33090851714E+02  0.33090851714E+02  0.00000000000E+00 0. -1.
         21   -1    0    0  502  503 -0.00000000000E+00 -0.00000000000E+00 -0.10417114537E+04  0.10417114537E+04  0.00000000000E+00 0. -1.
          6    1    1    2  501    0 -0.34893686684E+02 -0.46241727142E+02 -0.40461849139E+03  0.44384793598E+03  0.17300000000E+03 0. -1.
         -6    1    1    2    0  503  0.34893686684E+02  0.46241727142E+02 -0.60400211056E+03  0.63095436939E+03  0.17300000000E+03 0. -1.
<mgrwt>
<rscale>  2 0.18244141E+03</rscale>
<asrwt>0</asrwt>
<pdfrwt beam="1">  1       21 0.50909003E-02 0.18244141E+03</pdfrwt>
<pdfrwt beam="2">  1       21 0.16026330E+00 0.18244141E+03</pdfrwt>
<totfact> 0.65739056E+04</totfact>
</mgrwt>
</event>
<event>
 4    1  0.4017302E+000  0.2159578E+03  0.7546771E-02  0.1136933E+00
         21   -1    0    0  501  502  0.00000000000E+00  0.00000000000E+00  0.85934104463E+02  0.85934104463E+02  0.00000000000E+00 0. -1.
         21   -1    0    0  502  503 -0.00000000000E+00 -0.00000000000E+00 -0.55710071307E+03  0.55710071307E+03  0.00000000000E+00 0. -1.
          6    1    1    2  501    0  0.12912648129E+03  0.59280024482E+01 -0.28724783195E+03  0.35937321317E+03  0.17300000000E+03 0. -1.
         -6    1    1    2    0  503 -0.12912648129E+03 -0.59280024482E+01 -0.18391877665E+03  0.28366160436E+03  0.17300000000E+03 0. -1.
<mgrwt>
<rscale>  2 0.21595784E+03</rscale>
<asrwt>0</asrwt>
<pdfrwt beam="1">  1       21 0.13220632E-01 0.21595784E+03</pdfrwt>
<pdfrwt beam="2">  1       21 0.85707800E-01 0.21595784E+03</pdfrwt>
<totfact> 0.57337115E+04</totfact>
</mgrwt>
</event>
<event>
 4    1  0.4017302E+000  0.1772549E+03  0.7546771E-02  0.1170486E+00
         21   -1    0    0  501  502  0.00000000000E+00  0.00000000000E+00  0.70219099385E+03  0.70219099385E+03  0.00000000000E+00 0.  1.
         21   -1    0    0  502  503 -0.00000000000E+00 -0.00000000000E+00 -0.76841100140E+02  0.76841100140E+02  0.00000000000E+00 0.  1.
          6    1    1    2  501    0  0.38584131284E+02  0.12544228561E+01  0.56441764919E+03  0.59159664594E+03  0.17300000000E+03 0.  1.
         -6    1    1    2    0  503 -0.38584131284E+02 -0.12544228561E+01  0.60932244512E+02  0.18743544805E+03  0.17300000000E+03 0.  1.
<mgrwt>
<rscale>  2 0.17725493E+03</rscale>
<asrwt>0</asrwt>
<pdfrwt beam="1">  1       21 0.10802938E+00 0.17725493E+03</pdfrwt>
<pdfrwt beam="2">  1       21 0.11821708E-01 0.17725493E+03</pdfrwt>
<totfact> 0.41462602E+04</totfact>
</mgrwt>
</event>
<event>
 4    1  0.4017302E+000  0.1917411E+03  0.7546771E-02  0.1156900E+00
         21   -1    0    0  501  502  0.00000000000E+00  0.00000000000E+00  0.23741508965E+03  0.23741508965E+03  0.00000000000E+00 0.  1.
         21   -1    0    0  502  503 -0.00000000000E+00 -0.00000000000E+00 -0.21894156580E+03  0.21894156580E+03  0.00000000000E+00 0.  1.
          6    1    1    2  501    0  0.65325734563E+02  0.50677482024E+02  0.13268856039E+03  0.23317571237E+03  0.17300000000E+03 0.  1.
         -6    1    1    2    0  503 -0.65325734563E+02 -0.50677482024E+02 -0.11421503654E+03  0.22318094308E+03  0.17300000000E+03 0.  1.
<mgrwt>
<rscale>  2 0.19174112E+03</rscale>
<asrwt>0</asrwt>
<pdfrwt beam="1">  1       21 0.36525398E-01 0.19174112E+03</pdfrwt>
<pdfrwt beam="2">  1       21 0.33683318E-01 0.19174112E+03</pdfrwt>
<totfact> 0.61402237E+04</totfact>
</mgrwt>
</event>
<event>
 4    1  0.4017302E+000  0.3075418E+03  0.7546771E-02  0.1081530E+00
         21   -1    0    0  503  502  0.00000000000E+00  0.00000000000E+00  0.98236795446E+03  0.98236795446E+03  0.00000000000E+00 0. -1.
         21   -1    0    0  501  503 -0.00000000000E+00 -0.00000000000E+00 -0.99711025219E+02  0.99711025219E+02  0.00000000000E+00 0.  1.
          6    1    1    2  501    0  0.25323313309E+03 -0.22933325459E+02  0.34096006461E+03  0.45916851239E+03  0.17300000000E+03 0.  1.
         -6    1    1    2    0  502 -0.25323313309E+03  0.22933325459E+02  0.54169686463E+03  0.62291046729E+03  0.17300000000E+03 0. -1.
<mgrwt>
<rscale>  2 0.30754180E+03</rscale>
<asrwt>0</asrwt>
<pdfrwt beam="1">  1       21 0.15113352E+00 0.30754180E+03</pdfrwt>
<pdfrwt beam="2">  1       21 0.15340158E-01 0.30754180E+03</pdfrwt>
<totfact> 0.10291501E+04</totfact>
</mgrwt>
</event>
<event>
 4    1  0.4017302E+000  0.2446401E+03  0.7546771E-02  0.1116740E+00
         21   -1    0    0  501  502  0.00000000000E+00  0.00000000000E+00  0.56237990644E+03  0.56237990644E+03  0.00000000000E+00 0.  1.
         21   -1    0    0  502  503 -0.00000000000E+00 -0.00000000000E+00 -0.12381068620E+03  0.12381068620E+03  0.00000000000E+00 0. -1.
          6    1    1    2  501    0  0.17085895994E+03 -0.26963270856E+02  0.34786853414E+03  0.42527793172E+03  0.17300000000E+03 0.  1.
         -6    1    1    2    0  503 -0.17085895994E+03  0.26963270856E+02  0.90700686101E+02  0.26091266092E+03  0.17300000000E+03 0. -1.
<mgrwt>
<rscale>  2 0.24464015E+03</rscale>
<asrwt>0</asrwt>
<pdfrwt beam="1">  1       21 0.86519984E-01 0.24464015E+03</pdfrwt>
<pdfrwt beam="2">  1       21 0.19047798E-01 0.24464015E+03</pdfrwt>
<totfact> 0.28303200E+04</totfact>
</mgrwt>
</event>
<event>
 4    1  0.4017302E+000  0.2471913E+03  0.7546771E-02  0.1115093E+00
         21   -1    0    0  501  502  0.00000000000E+00  0.00000000000E+00  0.21159211088E+04  0.21159211088E+04  0.00000000000E+00 0. -1.
         21   -1    0    0  502  503 -0.00000000000E+00 -0.00000000000E+00 -0.32060282515E+02  0.32060282515E+02  0.00000000000E+00 0.  1.
          6    1    1    2  501    0 -0.15177464632E+03 -0.90216442023E+02  0.13802965251E+04  0.14022560561E+04  0.17300000000E+03 0. -1.
         -6    1    1    2    0  503  0.15177464632E+03  0.90216442023E+02  0.70356430125E+03  0.74572533527E+03  0.17300000000E+03 0.  1.
<mgrwt>
<rscale>  2 0.24719132E+03</rscale>
<asrwt>0</asrwt>
<pdfrwt beam="1">  1       21 0.32552621E+00 0.24719132E+03</pdfrwt>
<pdfrwt beam="2">  1       21 0.49323528E-02 0.24719132E+03</pdfrwt>
<totfact> 0.63179212E+03</totfact>
</mgrwt>
</event>
<event>
 4    1  0.4017302E+000  0.2473277E+03  0.7546771E-02  0.1115005E+00
         21   -1    0    0  501  502  0.00000000000E+00  0.00000000000E+00  0.36187074000E+03  0.36187074000E+03  0.00000000000E+00 0. -1.
         21   -1    0    0  502  503 -0.00000000000E+00 -0.00000000000E+00 -0.18621663841E+03  0.18621663841E+03  0.00000000000E+00 0. -1.
          6    1    1    2  501    0 -0.38265099861E+00 -0.17675362593E+03  0.17105458837E+03  0.30071691489E+03  0.17300000000E+03 0. -1.
         -6    1    1    2    0  503  0.38265099861E+00  0.17675362593E+03  0.45995132293E+01  0.24737046352E+03  0.17300000000E+03 0. -1.
<mgrwt>
<rscale>  2 0.24732770E+03</rscale>
<asrwt>0</asrwt>
<pdfrwt beam="1">  1       21 0.55672421E-01 0.24732770E+03</pdfrwt>
<pdfrwt beam="2">  1       21 0.28648714E-01 0.24732770E+03</pdfrwt>
<totfact> 0.34495908E+04</totfact>
</mgrwt>
</event>
<event>
 4    1  0.4017302E+000  0.3223238E+03  0.7546771E-02  0.1074585E+00
         21   -1    0    0  501  502  0.00000000000E+00  0.00000000000E+00  0.30822311849E+03  0.30822311849E+03  0.00000000000E+00 0. -1.
         21   -1    0    0  502  503 -0.00000000000E+00 -0.00000000000E+00 -0.76347694636E+03  0.76347694636E+03  0.00000000000E+00 0. -1.
          6    1    1    2  501    0  0.26868519304E+03  0.42094040148E+02  0.17283170017E+03  0.36573684222E+03  0.17300000000E+03 0. -1.
         -6    1    1    2    0  503 -0.26868519304E+03 -0.42094040148E+02 -0.62808552804E+03  0.70596322263E+03  0.17300000000E+03 0. -1.
<mgrwt>
<rscale>  2 0.32232381E+03</rscale>
<asrwt>0</asrwt>
<pdfrwt beam="1">  1       21 0.47418942E-01 0.32232381E+03</pdfrwt>
<pdfrwt beam="2">  1       21 0.11745799E+00 0.32232381E+03</pdfrwt>
<totfact> 0.21611686E+03</totfact>
</mgrwt>
</event>
<event>
 4    1  0.4017302E+000  0.1762850E+03  0.7546771E-02  0.1171448E+00
         21   -1    0    0  501  502  0.00000000000E+00  0.00000000000E+00  0.62805015344E+03  0.62805015344E+03  0.00000000000E+00 0.  1.
         21   -1    0    0  502  503 -0.00000000000E+00 -0.00000000000E+00 -0.82055551392E+02  0.82055551392E+02  0.00000000000E+00 0.  1.
          6    1    1    2  501    0  0.26018708013E+02 -0.21689346359E+02  0.49670442903E+03  0.52705947551E+03  0.17300000000E+03 0.  1.
         -6    1    1    2    0  503 -0.26018708013E+02  0.21689346359E+02  0.49290173021E+02  0.18304622932E+03  0.17300000000E+03 0.  1.
<mgrwt>
<rscale>  2 0.17628500E+03</rscale>
<asrwt>0</asrwt>
<pdfrwt beam="1">  1       21 0.96623097E-01 0.17628500E+03</pdfrwt>
<pdfrwt beam="2">  1       21 0.12623931E-01 0.17628500E+03</pdfrwt>
<totfact> 0.48101515E+04</totfact>
</mgrwt>
</event>
<event>
 4    1  0.4017302E+000  0.2040605E+03  0.7546771E-02  0.1146358E+00
         21   -1    0    0  503  502  0.00000000000E+00  0.00000000000E+00  0.39344060771E+03  0.39344060771E+03  0.00000000000E+00 0. -1.
         21   -1    0    0  501  503 -0.00000000000E+00 -0.00000000000E+00 -0.11682140567E+03  0.11682140567E+03  0.00000000000E+00 0. -1.
          6    1    1    2  501    0 -0.90589018109E+02  0.59205553565E+02  0.60077394662E+02  0.21272038248E+03  0.17300000000E+03 0. -1.
         -6    1    1    2    0  502  0.90589018109E+02 -0.59205553565E+02  0.21654180737E+03  0.29754163089E+03  0.17300000000E+03 0. -1.
<mgrwt>
<rscale>  2 0.20406045E+03</rscale>
<asrwt>0</asrwt>
<pdfrwt beam="1">  1       21 0.60529323E-01 0.20406045E+03</pdfrwt>
<pdfrwt beam="2">  1       21 0.17972524E-01 0.20406045E+03</pdfrwt>
<totfact> 0.71225860E+04</totfact>
</mgrwt>
</event>
<event>
 4    1  0.4017302E+000  0.1824725E+03  0.7546771E-02  0.1165431E+00
         21   -1    0    0  503  502  0.00000000000E+00  0.00000000000E+00  0.85595336036E+03  0.85595336036E+03  0.00000000000E+00 0. -1.
         21   -1    0    0  501  503 -0.00000000000E+00 -0.00000000000E+00 -0.40513165891E+02  0.40513165891E+02  0.00000000000E+00 0. -1.
          6    1    1    2  501    0  0.69431695449E+01 -0.57610758584E+02  0.31826501087E+03  0.36686349539E+03  0.17300000000E+03 0. -1.
         -6    1    1    2    0  502 -0.69431695449E+01  0.57610758584E+02  0.49717518360E+03  0.52960303086E+03  0.17300000000E+03 0. -1.
<mgrwt>
<rscale>  2 0.18247248E+03</rscale>
<asrwt>0</asrwt>
<pdfrwt beam="1">  1       21 0.13168512E+00 0.18247248E+03</pdfrwt>
<pdfrwt beam="2">  1       21 0.62327954E-02 0.18247248E+03</pdfrwt>
<totfact> 0.77669172E+04</totfact>
</mgrwt>
</event>
<event>
 4    1  0.4017302E+000  0.2783719E+03  0.7546771E-02  0.1096582E+00
         21   -1    0    0  501  502  0.00000000000E+00  0.00000000000E+00  0.90593601716E+02  0.90593601716E+02  0.00000000000E+00 0. -1.
         21   -1    0    0  502  503 -0.00000000000E+00 -0.00000000000E+00 -0.86199440250E+03  0.86199440250E+03  0.00000000000E+00 0.  1.
          6    1    1    2  501    0  0.18920035897E+03  0.10846725767E+03 -0.42745865096E+03  0.51010961577E+03  0.17300000000E+03 0. -1.
         -6    1    1    2    0  503 -0.18920035897E+03 -0.10846725767E+03 -0.34394214983E+03  0.44247838845E+03  0.17300000000E+03 0. -1.
<mgrwt>
<rscale>  2 0.27837191E+03</rscale>
<asrwt>0</asrwt>
<pdfrwt beam="1">  1       21 0.13937478E-01 0.27837191E+03</pdfrwt>
<pdfrwt beam="2">  1       21 0.13261452E+00 0.27837191E+03</pdfrwt>
<totfact> 0.17544463E+04</totfact>
</mgrwt>
</event>
<event>
 4    1  0.4017302E+000  0.2031399E+03  0.7546771E-02  0.1147117E+00
         21   -1    0    0  501  502  0.00000000000E+00  0.00000000000E+00  0.11958017203E+03  0.11958017203E+03  0.00000000000E+00 0. -1.
         21   -1    0    0  502  503 -0.00000000000E+00 -0.00000000000E+00 -0.34581850704E+03  0.34581850704E+03  0.00000000000E+00 0. -1.
          6    1    1    2  501    0 -0.87410124719E+02  0.60797103492E+02 -0.12380594263E+03  0.23789436548E+03  0.17300000000E+03 0. -1.
         -6    1    1    2    0  503  0.87410124719E+02 -0.60797103492E+02 -0.10243239238E+03  0.22750431360E+03  0.17300000000E+03 0. -1.
<mgrwt>
<rscale>  2 0.20313990E+03</rscale>
<asrwt>0</asrwt>
<pdfrwt beam="1">  1       21 0.18396950E-01 0.20313990E+03</pdfrwt>
<pdfrwt beam="2">  1       21 0.53202847E-01 0.20313990E+03</pdfrwt>
<totfact> 0.89820355E+04</totfact>
</mgrwt>
</event>
<event>
 4    1  0.4017302E+000  0.2084804E+03  0.7546771E-02  0.1142775E+00
         21   -1    0    0  503  502  0.00000000000E+00  0.00000000000E+00  0.29021497585E+03  0.29021497585E+03  0.00000000000E+00 0. -1.
         21   -1    0    0  501  503 -0.00000000000E+00 -0.00000000000E+00 -0.14977561175E+03  0.14977561175E+03  0.00000000000E+00 0.  1.
          6    1    1    2  501    0  0.11146390970E+03  0.33329747171E+02  0.68376761544E+02  0.21940705716E+03  0.17300000000E+03 0.  1.
         -6    1    1    2    0  502 -0.11146390970E+03 -0.33329747171E+02  0.72062602564E+02  0.22058353044E+03  0.17300000000E+03 0.  1.
<mgrwt>
<rscale>  2 0.20848040E+03</rscale>
<asrwt>0</asrwt>
<pdfrwt beam="1">  1       21 0.44648457E-01 0.20848040E+03</pdfrwt>
<pdfrwt beam="2">  1       21 0.23042402E-01 0.20848040E+03</pdfrwt>
<totfact> 0.84604628E+04</totfact>
</mgrwt>
</event>
<event>
 4    1  0.4017302E+000  0.2230861E+03  0.7546771E-02  0.1131603E+00
         21   -1    0    0  501  502  0.00000000000E+00  0.00000000000E+00  0.68776332427E+03  0.68776332427E+03  0.00000000000E+00 0. -1.
         21   -1    0    0  502  503 -0.00000000000E+00 -0.00000000000E+00 -0.10317561146E+03  0.10317561146E+03  0.00000000000E+00 0. -1.
          6    1    1    2  501    0 -0.13464825214E+03  0.41331312942E+02  0.50841679429E+03  0.55520722793E+03  0.17300000000E+03 0. -1.
         -6    1    1    2    0  503  0.13464825214E+03 -0.41331312942E+02  0.76170918522E+02  0.23573170780E+03  0.17300000000E+03 0. -1.
<mgrwt>
<rscale>  2 0.22308615E+03</rscale>
<asrwt>0</asrwt>
<pdfrwt beam="1">  1       21 0.10580974E+00 0.22308615E+03</pdfrwt>
<pdfrwt beam="2">  1       21 0.15873171E-01 0.22308615E+03</pdfrwt>
<totfact> 0.24933545E+04</totfact>
</mgrwt>
</event>
<event>
 4    1  0.4017302E+000  0.2026154E+03  0.7546771E-02  0.1147551E+00
         21   -1    0    0  501  502  0.00000000000E+00  0.00000000000E+00  0.10889622280E+03  0.10889622280E+03  0.00000000000E+00 0.  1.
         21   -1    0    0  502  503 -0.00000000000E+00 -0.00000000000E+00 -0.40701041302E+03  0.40701041302E+03  0.00000000000E+00 0.  1.
          6    1    1    2  501    0 -0.30691986072E+02  0.10090595927E+03 -0.79003272686E+02  0.21747305056E+03  0.17300000000E+03 0.  1.
         -6    1    1    2    0  503  0.30691986072E+02 -0.10090595927E+03 -0.21911091754E+03  0.29843358526E+03  0.17300000000E+03 0.  1.
<mgrwt>
<rscale>  2 0.20261543E+03</rscale>
<asrwt>0</asrwt>
<pdfrwt beam="1">  1       21 0.16753265E-01 0.20261543E+03</pdfrwt>
<pdfrwt beam="2">  1       21 0.62616986E-01 0.20261543E+03</pdfrwt>
<totfact> 0.75407776E+04</totfact>
</mgrwt>
</event>
<event>
 4    1  0.4017302E+000  0.1963406E+03  0.7546771E-02  0.1152864E+00
         21   -1    0    0  501  502  0.00000000000E+00  0.00000000000E+00  0.36637516952E+03  0.36637516952E+03  0.00000000000E+00 0.  1.
         21   -1    0    0  502  503 -0.00000000000E+00 -0.00000000000E+00 -0.10983730943E+03  0.10983730943E+03  0.00000000000E+00 0. -1.
          6    1    1    2  501    0 -0.24747411283E+02  0.89488477066E+02  0.17709348060E+03  0.26440825018E+03  0.17300000000E+03 0.  1.
         -6    1    1    2    0  503  0.24747411283E+02 -0.89488477066E+02  0.79444379487E+02  0.21180422877E+03  0.17300000000E+03 0. -1.
<mgrwt>
<rscale>  2 0.19634058E+03</rscale>
<asrwt>0</asrwt>
<pdfrwt beam="1">  1       21 0.56365410E-01 0.19634058E+03</pdfrwt>
<pdfrwt beam="2">  1       21 0.16898048E-01 0.19634058E+03</pdfrwt>
<totfact> 0.93267682E+04</totfact>
</mgrwt>
</event>
<event>
 4    1  0.4017302E+000  0.1951950E+03  0.7546771E-02  0.1153857E+00
         21   -1    0    0  501  502  0.00000000000E+00  0.00000000000E+00  0.88647562543E+03  0.88647562543E+03  0.00000000000E+00 0. -1.
         21   -1    0    0  502  503 -0.00000000000E+00 -0.00000000000E+00 -0.44585211477E+02  0.44585211477E+02  0.00000000000E+00 0. -1.
          6    1    1    2  501    0  0.90379842425E+02  0.18913830212E+01  0.50926584034E+03  0.54539232612E+03  0.17300000000E+03 0. -1.
         -6    1    1    2    0  503 -0.90379842425E+02 -0.18913830212E+01  0.33262457361E+03  0.38566851079E+03  0.17300000000E+03 0. -1.
<mgrwt>
<rscale>  2 0.19519501E+03</rscale>
<asrwt>0</asrwt>
<pdfrwt beam="1">  1       21 0.13638085E+00 0.19519501E+03</pdfrwt>
<pdfrwt beam="2">  1       21 0.68592640E-02 0.19519501E+03</pdfrwt>
<totfact> 0.59889019E+04</totfact>
</mgrwt>
</event>
<event>
 4    1  0.4017302E+000  0.1781412E+03  0.7546771E-02  0.1169614E+00
         21   -1    0    0  503  502  0.00000000000E+00  0.00000000000E+00  0.68201300987E+03  0.68201300987E+03  0.00000000000E+00 0. -1.
         21   -1    0    0  501  503 -0.00000000000E+00 -0.00000000000E+00 -0.12822555878E+03  0.12822555878E+03  0.00000000000E+00 0. -1.
          6    1    1    2  501    0 -0.27499798925E+02 -0.32389173199E+02 -0.46471962662E+02  0.18410307112E+03  0.17300000000E+03 0. -1.
         -6    1    1    2    0  502  0.27499798925E+02  0.32389173199E+02  0.60025941374E+03  0.62613549753E+03  0.17300000000E+03 0. -1.
<mgrwt>
<rscale>  2 0.17814123E+03</rscale>
<asrwt>0</asrwt>
<pdfrwt beam="1">  1       21 0.10492508E+00 0.17814123E+03</pdfrwt>
<pdfrwt beam="2">  1       21 0.19727009E-01 0.17814123E+03</pdfrwt>
<totfact> 0.17495417E+04</totfact>
</mgrwt>
</event>
<event>
 4    1  0.4017302E+000  0.1952948E+03  0.7546771E-02  0.1153771E+00
         21   -1    0    0  501  502  0.00000000000E+00  0.00000000000E+00  0.12112726381E+03  0.12112726381E+03  0.00000000000E+00 0. -1.
         21   -1    0    0  502  503 -0.00000000000E+00 -0.00000000000E+00 -0.35625017993E+03  0.35625017993E+03  0.00000000000E+00 0. -1.
          6    1    1    2  501    0  0.44196087728E+02 -0.79106087978E+02 -0.36218662266E+02  0.19862491994E+03  0.17300000000E+03 0. -1.
         -6    1    1    2    0  503 -0.44196087728E+02  0.79106087978E+02 -0.19890425385E+03  0.27875252380E+03  0.17300000000E+03 0. -1.
<mgrwt>
<rscale>  2 0.19529482E+03</rscale>
<asrwt>0</asrwt>
<pdfrwt beam="1">  1       21 0.18634964E-01 0.19529482E+03</pdfrwt>
<pdfrwt beam="2">  1       21 0.54807720E-01 0.19529482E+03</pdfrwt>
<totfact> 0.82648394E+04</totfact>
</mgrwt>
</event>
<event>
 4    1  0.4017302E+000  0.2621552E+03  0.7546771E-02  0.1105855E+00
         21   -1    0    0  503  502  0.00000000000E+00  0.00000000000E+00  0.46971968250E+03  0.46971968250E+03  0.00000000000E+00 0. -1.
         21   -1    0    0  501  503 -0.00000000000E+00 -0.00000000000E+00 -0.14949803037E+03  0.14949803037E+03  0.00000000000E+00 0.  1.
          6    1    1    2  501    0 -0.15575988288E+03 -0.12056214544E+03  0.11490884487E+03  0.28623314738E+03  0.17300000000E+03 0.  1.
         -6    1    1    2    0  502  0.15575988288E+03  0.12056214544E+03  0.20531280726E+03  0.33298456549E+03  0.17300000000E+03 0. -1.
<mgrwt>
<rscale>  2 0.26215524E+03</rscale>
<asrwt>0</asrwt>
<pdfrwt beam="1">  1       21 0.72264566E-01 0.26215524E+03</pdfrwt>
<pdfrwt beam="2">  1       21 0.22999697E-01 0.26215524E+03</pdfrwt>
<totfact> 0.29615447E+04</totfact>
</mgrwt>
</event>
<event>
 4    1  0.4017302E+000  0.2602942E+03  0.7546771E-02  0.1106967E+00
         21   -1    0    0  501  502  0.00000000000E+00  0.00000000000E+00  0.44393305402E+03  0.44393305402E+03  0.00000000000E+00 0.  1.
         21   -1    0    0  502  503 -0.00000000000E+00 -0.00000000000E+00 -0.15282858386E+03  0.15282858386E+03  0.00000000000E+00 0. -1.
          6    1    1    2  501    0 -0.16710934308E+03  0.99491474506E+02  0.13453039224E+03  0.29300428748E+03  0.17300000000E+03 0.  1.
         -6    1    1    2    0  503  0.16710934308E+03 -0.99491474506E+02  0.15657407792E+03  0.30375735040E+03  0.17300000000E+03 0.  1.
<mgrwt>
<rscale>  2 0.26029423E+03</rscale>
<asrwt>0</asrwt>
<pdfrwt beam="1">  1       21 0.68297392E-01 0.26029423E+03</pdfrwt>
<pdfrwt beam="2">  1       21 0.23512090E-01 0.26029423E+03</pdfrwt>
<totfact> 0.32220207E+04</totfact>
</mgrwt>
</event>
<event>
 4    1  0.4017302E+000  0.1955746E+03  0.7546771E-02  0.1153527E+00
         21   -1    0    0  503  502  0.00000000000E+00  0.00000000000E+00  0.20553829902E+04  0.20553829902E+04  0.00000000000E+00 0.  1.
         21   -1    0    0  501  503 -0.00000000000E+00 -0.00000000000E+00 -0.24779212318E+02  0.24779212318E+02  0.00000000000E+00 0.  1.
          6    1    1    2  501    0 -0.29454792938E+02  0.86329839685E+02  0.49631098720E+03  0.53345479852E+03  0.17300000000E+03 0.  1.
         -6    1    1    2    0  502  0.29454792938E+02 -0.86329839685E+02  0.15342927907E+04  0.15467074040E+04  0.17300000000E+03 0.  1.
<mgrwt>
<rscale>  2 0.19557460E+03</rscale>
<asrwt>0</asrwt>
<pdfrwt beam="1">  1       21 0.31621263E+00 0.19557460E+03</pdfrwt>
<pdfrwt beam="2">  1       21 0.38121881E-02 0.19557460E+03</pdfrwt>
<totfact> 0.11653179E+04</totfact>
</mgrwt>
</event>
<event>
 4    1  0.4017302E+000  0.1873852E+03  0.7546771E-02  0.1160841E+00
         21   -1    0    0  503  502  0.00000000000E+00  0.00000000000E+00  0.31521173887E+03  0.31521173887E+03  0.00000000000E+00 0. -1.
         21   -1    0    0  501  503 -0.00000000000E+00 -0.00000000000E+00 -0.11289946728E+03  0.11289946728E+03  0.00000000000E+00 0. -1.
          6    1    1    2  501    0 -0.71983323313E+02 -0.16146150815E+01  0.76451235700E+02  0.20238082235E+03  0.17300000000E+03 0. -1.
         -6    1    1    2    0  502  0.71983323313E+02  0.16146150815E+01  0.12586103589E+03  0.22573038380E+03  0.17300000000E+03 0. -1.
<mgrwt>
<rscale>  2 0.18738518E+03</rscale>
<asrwt>0</asrwt>
<pdfrwt beam="1">  1       21 0.48494113E-01 0.18738518E+03</pdfrwt>
<pdfrwt beam="2">  1       21 0.17369149E-01 0.18738518E+03</pdfrwt>
<totfact> 0.12199501E+05</totfact>
</mgrwt>
</event>
<event>
 4    1  0.4017302E+000  0.1781035E+03  0.7546771E-02  0.1169651E+00
         21   -1    0    0  503  502  0.00000000000E+00  0.00000000000E+00  0.45091910773E+02  0.45091910773E+02  0.00000000000E+00 0. -1.
         21   -1    0    0  501  503 -0.00000000000E+00 -0.00000000000E+00 -0.73529085545E+03  0.73529085545E+03  0.00000000000E+00 0. -1.
          6    1    1    2  501    0 -0.90317714277E+01 -0.41355722177E+02 -0.42626929683E+03  0.46198093258E+03  0.17300000000E+03 0. -1.
         -6    1    1    2    0  502  0.90317714277E+01  0.41355722177E+02 -0.26392964785E+03  0.31840183364E+03  0.17300000000E+03 0. -1.
<mgrwt>
<rscale>  2 0.17810353E+03</rscale>
<asrwt>0</asrwt>
<pdfrwt beam="1">  1       21 0.69372172E-02 0.17810353E+03</pdfrwt>
<pdfrwt beam="2">  1       21 0.11312167E+00 0.17810353E+03</pdfrwt>
<totfact> 0.94350096E+04</totfact>
</mgrwt>
</event>
<event>
 4    1  0.4017302E+000  0.2699974E+03  0.7546771E-02  0.1101281E+00
         21   -1    0    0  501  502  0.00000000000E+00  0.00000000000E+00  0.15821847520E+03  0.15821847520E+03  0.00000000000E+00 0.  1.
         21   -1    0    0  502  503 -0.00000000000E+00 -0.00000000000E+00 -0.63963207911E+03  0.63963207911E+03  0.00000000000E+00 0. -1.
          6    1    1    2  501    0 -0.17438632925E+03 -0.11206705840E+03 -0.29740040596E+02  0.27163042433E+03  0.17300000000E+03 0.  1.
         -6    1    1    2    0  503  0.17438632925E+03  0.11206705840E+03 -0.45167356331E+03  0.52622012999E+03  0.17300000000E+03 0. -1.
<mgrwt>
<rscale>  2 0.26999744E+03</rscale>
<asrwt>0</asrwt>
<pdfrwt beam="1">  1       21 0.24341304E-01 0.26999744E+03</pdfrwt>
<pdfrwt beam="2">  1       21 0.98404936E-01 0.26999744E+03</pdfrwt>
<totfact> 0.12991234E+04</totfact>
</mgrwt>
</event>
<event>
 4    1  0.4017302E+000  0.1969823E+03  0.7546771E-02  0.1152310E+00
         21   -1    0    0  501  502  0.00000000000E+00  0.00000000000E+00  0.75437728742E+03  0.75437728742E+03  0.00000000000E+00 0.  1.
         21   -1    0    0  502  503 -0.00000000000E+00 -0.00000000000E+00 -0.13720459258E+03  0.13720459258E+03  0.00000000000E+00 0.  1.
          6    1    1    2  501    0  0.90343947578E+02  0.26664332474E+02  0.66104770313E+03  0.68977248517E+03  0.17300000000E+03 0.  1.
         -6    1    1    2    0  503 -0.90343947578E+02 -0.26664332474E+02 -0.43875008291E+02  0.20180939483E+03  0.17300000000E+03 0.  1.
<mgrwt>
<rscale>  2 0.19698227E+03</rscale>
<asrwt>0</asrwt>
<pdfrwt beam="1">  1       21 0.11605804E+00 0.19698227E+03</pdfrwt>
<pdfrwt beam="2">  1       21 0.21108399E-01 0.19698227E+03</pdfrwt>
<totfact> 0.11926219E+04</totfact>
</mgrwt>
</event>
<event>
 4    1  0.4017302E+000  0.1968412E+03  0.7546771E-02  0.1152432E+00
         21   -1    0    0  503  502  0.00000000000E+00  0.00000000000E+00  0.61918484661E+02  0.61918484661E+02  0.00000000000E+00 0.  1.
         21   -1    0    0  501  503 -0.00000000000E+00 -0.00000000000E+00 -0.23586136051E+04  0.23586136051E+04  0.00000000000E+00 0.  1.
          6    1    1    2  501    0 -0.31474414468E+00 -0.93900809198E+02 -0.21857151561E+04  0.21945608227E+04  0.17300000000E+03 0.  1.
         -6    1    1    2    0  502  0.31474414468E+00  0.93900809198E+02 -0.11097996430E+03  0.22597126700E+03  0.17300000000E+03 0.  1.
<mgrwt>
<rscale>  2 0.19684121E+03</rscale>
<asrwt>0</asrwt>
<pdfrwt beam="1">  1       21 0.95259227E-02 0.19684121E+03</pdfrwt>
<pdfrwt beam="2">  1       21 0.36286356E+00 0.19684121E+03</pdfrwt>
<totfact> 0.12888003E+03</totfact>
</mgrwt>
</event>
<event>
 4    1  0.4017302E+000  0.2190062E+03  0.7546771E-02  0.1134626E+00
         21   -1    0    0  501  502  0.00000000000E+00  0.00000000000E+00  0.38530496632E+03  0.38530496632E+03  0.00000000000E+00 0. -1.
         21   -1    0    0  502  503 -0.00000000000E+00 -0.00000000000E+00 -0.16389806407E+03  0.16389806407E+03  0.00000000000E+00 0. -1.
          6    1    1    2  501    0 -0.13160646826E+03  0.26729512204E+02  0.24536693177E+03  0.32889004320E+03  0.17300000000E+03 0. -1.
         -6    1    1    2    0  503  0.13160646826E+03 -0.26729512204E+02 -0.23960029511E+02  0.22031298719E+03  0.17300000000E+03 0. -1.
<mgrwt>
<rscale>  2 0.21900623E+03</rscale>
<asrwt>0</asrwt>
<pdfrwt beam="1">  1       21 0.59277687E-01 0.21900623E+03</pdfrwt>
<pdfrwt beam="2">  1       21 0.25215087E-01 0.21900623E+03</pdfrwt>
<totfact> 0.39102487E+04</totfact>
</mgrwt>
</event>
<event>
 4    1  0.4017302E+000  0.1772014E+03  0.7546771E-02  0.1170539E+00
         21   -1    0    0  501  502  0.00000000000E+00  0.00000000000E+00  0.65926582066E+03  0.65926582066E+03  0.00000000000E+00 0.  1.
         21   -1    0    0  502  503 -0.00000000000E+00 -0.00000000000E+00 -0.49615099777E+02  0.49615099777E+02  0.00000000000E+00 0.  1.
          6    1    1    2  501    0  0.37935555565E+02  0.56768071405E+01  0.37573580843E+03  0.41542475884E+03  0.17300000000E+03 0. -1.
         -6    1    1    2    0  503 -0.37935555565E+02 -0.56768071405E+01  0.23391491245E+03  0.29345616160E+03  0.17300000000E+03 0. -1.
<mgrwt>
<rscale>  2 0.17720139E+03</rscale>
<asrwt>0</asrwt>
<pdfrwt beam="1">  1       21 0.10142550E+00 0.17720139E+03</pdfrwt>
<pdfrwt beam="2">  1       21 0.76330927E-02 0.17720139E+03</pdfrwt>
<totfact> 0.10400871E+05</totfact>
</mgrwt>
</event>
<event>
 4    1  0.4017302E+000  0.2089991E+03  0.7546771E-02  0.1142361E+00
         21   -1    0    0  501  502  0.00000000000E+00  0.00000000000E+00  0.16012499155E+04  0.16012499155E+04  0.00000000000E+00 0.  1.
         21   -1    0    0  502  503 -0.00000000000E+00 -0.00000000000E+00 -0.27325993118E+02  0.27325993118E+02  0.00000000000E+00 0.  1.
          6    1    1    2  501    0 -0.61773541648E+02  0.99677705991E+02  0.82070337471E+03  0.84689706859E+03  0.17300000000E+03 0.  1.
         -6    1    1    2    0  503  0.61773541648E+02 -0.99677705991E+02  0.75322054768E+03  0.78167884005E+03  0.17300000000E+03 0.  1.
<mgrwt>
<rscale>  2 0.20899908E+03</rscale>
<asrwt>0</asrwt>
<pdfrwt beam="1">  1       21 0.24634607E+00 0.20899908E+03</pdfrwt>
<pdfrwt beam="2">  1       21 0.42040002E-02 0.20899908E+03</pdfrwt>
<totfact> 0.24850971E+04</totfact>
</mgrwt>
</event>
<event>
 4    1  0.4017302E+000  0.2831044E+03  0.7546771E-02  0.1094005E+00
         21   -1    0    0  501  502  0.00000000000E+00  0.00000000000E+00  0.74397880686E+02  0.74397880686E+02  0.00000000000E+00 0.  1.
         21   -1    0    0  502  503 -0.00000000000E+00 -0.00000000000E+00 -0.13623348747E+04  0.13623348747E+04  0.00000000000E+00 0.  1.
          6    1    1    2  501    0  0.14750332992E+01  0.22409139139E+03 -0.31537397055E+03  0.42380286540E+03  0.17300000000E+03 0.  1.
         -6    1    1    2    0  503 -0.14750332992E+01 -0.22409139139E+03 -0.97256302344E+03  0.10129298900E+04  0.17300000000E+03 0.  1.
<mgrwt>
<rscale>  2 0.28310445E+03</rscale>
<asrwt>0</asrwt>
<pdfrwt beam="1">  1       21 0.11445829E-01 0.28310445E+03</pdfrwt>
<pdfrwt beam="2">  1       21 0.20958997E+00 0.28310445E+03</pdfrwt>
<totfact> 0.69600028E+03</totfact>
</mgrwt>
</event>
<event>
 4    1  0.4017302E+000  0.1983763E+03  0.7546771E-02  0.1151116E+00
         21   -1    0    0  503  502  0.00000000000E+00  0.00000000000E+00  0.21091684069E+04  0.21091684069E+04  0.00000000000E+00 0. -1.
         21   -1    0    0  501  503 -0.00000000000E+00 -0.00000000000E+00 -0.25014996737E+02  0.25014996737E+02  0.00000000000E+00 0. -1.
          6    1    1    2  501    0 -0.37229647464E+02  0.89655430444E+02  0.50415013325E+03  0.54177532217E+03  0.17300000000E+03 0. -1.
         -6    1    1    2    0  502  0.37229647464E+02 -0.89655430444E+02  0.15800032770E+04  0.15924080815E+04  0.17300000000E+03 0. -1.
<mgrwt>
<rscale>  2 0.19837627E+03</rscale>
<asrwt>0</asrwt>
<pdfrwt beam="1">  1       21 0.32448731E+00 0.19837627E+03</pdfrwt>
<pdfrwt beam="2">  1       21 0.38484627E-02 0.19837627E+03</pdfrwt>
<totfact> 0.10239659E+04</totfact>
</mgrwt>
</event>
<event>
 4    1  0.4017302E+000  0.1979990E+03  0.7546771E-02  0.1151438E+00
         21   -1    0    0  503  502  0.00000000000E+00  0.00000000000E+00  0.14236416415E+03  0.14236416415E+03  0.00000000000E+00 0.  1.
         21   -1    0    0  501  503 -0.00000000000E+00 -0.00000000000E+00 -0.27704130005E+03  0.27704130005E+03  0.00000000000E+00 0. -1.
          6    1    1    2  501    0 -0.96290825912E+02  0.16392339249E+01 -0.51077969398E+02  0.20448121968E+03  0.17300000000E+03 0. -1.
         -6    1    1    2    0  502  0.96290825912E+02 -0.16392339249E+01 -0.83599166511E+02  0.21492424452E+03  0.17300000000E+03 0. -1.
<mgrwt>
<rscale>  2 0.19799902E+03</rscale>
<asrwt>0</asrwt>
<pdfrwt beam="1">  1       21 0.21902179E-01 0.19799902E+03</pdfrwt>
<pdfrwt beam="2">  1       21 0.42621738E-01 0.19799902E+03</pdfrwt>
<totfact> 0.10286107E+05</totfact>
</mgrwt>
</event>
<event>
 4    1  0.4017302E+000  0.1937366E+03  0.7546771E-02  0.1155134E+00
         21   -1    0    0  503  502  0.00000000000E+00  0.00000000000E+00  0.38044128221E+03  0.38044128221E+03  0.00000000000E+00 0.  1.
         21   -1    0    0  501  503 -0.00000000000E+00 -0.00000000000E+00 -0.11843176923E+03  0.11843176923E+03  0.00000000000E+00 0.  1.
          6    1    1    2  501    0 -0.86566957524E+02 -0.10536599642E+02  0.23292548739E+03  0.30296557683E+03  0.17300000000E+03 0.  1.
         -6    1    1    2    0  502  0.86566957524E+02  0.10536599642E+02  0.29084025587E+02  0.19590747462E+03  0.17300000000E+03 0.  1.
<mgrwt>
<rscale>  2 0.19373657E+03</rscale>
<asrwt>0</asrwt>
<pdfrwt beam="1">  1       21 0.58529428E-01 0.19373657E+03</pdfrwt>
<pdfrwt beam="2">  1       21 0.18220272E-01 0.19373657E+03</pdfrwt>
<totfact> 0.74985071E+04</totfact>
</mgrwt>
</event>
<event>
 4    1  0.4017302E+000  0.1754906E+03  0.7546771E-02  0.1172240E+00
         21   -1    0    0  503  502  0.00000000000E+00  0.00000000000E+00  0.26928901379E+03  0.26928901379E+03  0.00000000000E+00 0.  1.
         21   -1    0    0  501  503 -0.00000000000E+00 -0.00000000000E+00 -0.19204971992E+03  0.19204971992E+03  0.00000000000E+00 0.  1.
          6    1    1    2  501    0  0.21607892206E+02  0.20026626130E+02 -0.10808832136E+03  0.20610689453E+03  0.17300000000E+03 0.  1.
         -6    1    1    2    0  502 -0.21607892206E+02 -0.20026626130E+02  0.18532761523E+03  0.25523183917E+03  0.17300000000E+03 0.  1.
<mgrwt>
<rscale>  2 0.17549065E+03</rscale>
<asrwt>0</asrwt>
<pdfrwt beam="1">  1       21 0.41429079E-01 0.17549065E+03</pdfrwt>
<pdfrwt beam="2">  1       21 0.29546111E-01 0.17549065E+03</pdfrwt>
<totfact> 0.62055708E+04</totfact>
</mgrwt>
</event>
<event>
 4    1  0.4017302E+000  0.2106188E+03  0.7546771E-02  0.1141077E+00
         21   -1    0    0  501  502  0.00000000000E+00  0.00000000000E+00  0.98724206978E+03  0.98724206978E+03  0.00000000000E+00 0. -1.
         21   -1    0    0  502  503 -0.00000000000E+00 -0.00000000000E+00 -0.87849024180E+02  0.87849024180E+02  0.00000000000E+00 0. -1.
          6    1    1    2  501    0 -0.12006377958E+03 -0.39945887898E+01  0.82540749062E+03  0.85185550035E+03  0.17300000000E+03 0. -1.
         -6    1    1    2    0  503  0.12006377958E+03  0.39945887898E+01  0.73985554978E+02  0.22323559361E+03  0.17300000000E+03 0. -1.
<mgrwt>
<rscale>  2 0.21061877E+03</rscale>
<asrwt>0</asrwt>
<pdfrwt beam="1">  1       21 0.15188339E+00 0.21061877E+03</pdfrwt>
<pdfrwt beam="2">  1       21 0.13515235E-01 0.21061877E+03</pdfrwt>
<totfact> 0.13532239E+04</totfact>
</mgrwt>
</event>
<event>
 4    1  0.4017302E+000  0.1962022E+03  0.7546771E-02  0.1152983E+00
         21   -1    0    0  501  502  0.00000000000E+00  0.00000000000E+00  0.15477482785E+04  0.15477482785E+04  0.00000000000E+00 0. -1.
         21   -1    0    0  502  503 -0.00000000000E+00 -0.00000000000E+00 -0.58518494045E+02  0.58518494045E+02  0.00000000000E+00 0. -1.
          6    1    1    2  501    0  0.31642983960E+02 -0.86977121364E+02  0.13536078309E+04  0.13677534347E+04  0.17300000000E+03 0. -1.
         -6    1    1    2    0  503 -0.31642983960E+02  0.86977121364E+02  0.13562195354E+03  0.23851333790E+03  0.17300000000E+03 0. -1.
<mgrwt>
<rscale>  2 0.19620219E+03</rscale>
<asrwt>0</asrwt>
<pdfrwt beam="1">  1       21 0.23811509E+00 0.19620219E+03</pdfrwt>
<pdfrwt beam="2">  1       21 0.90028464E-02 0.19620219E+03</pdfrwt>
<totfact> 0.76069089E+03</totfact>
</mgrwt>
</event>
<event>
 4    1  0.4017302E+000  0.1897655E+03  0.7546771E-02  0.1158673E+00
         21   -1    0    0  503  502  0.00000000000E+00  0.00000000000E+00  0.17418118841E+03  0.17418118841E+03  0.00000000000E+00 0. -1.
         21   -1    0    0  501  503 -0.00000000000E+00 -0.00000000000E+00 -0.21407693295E+03  0.21407693295E+03  0.00000000000E+00 0.  1.
          6    1    1    2  501    0  0.71468222342E+02 -0.31212730216E+02 -0.55876456251E+02  0.19782092836E+03  0.17300000000E+03 0. -1.
         -6    1    1    2    0  502 -0.71468222342E+02  0.31212730216E+02  0.15980711705E+02  0.19043719300E+03  0.17300000000E+03 0. -1.
<mgrwt>
<rscale>  2 0.18976549E+03</rscale>
<asrwt>0</asrwt>
<pdfrwt beam="1">  1       21 0.26797106E-01 0.18976549E+03</pdfrwt>
<pdfrwt beam="2">  1       21 0.32934913E-01 0.18976549E+03</pdfrwt>
<totfact> 0.11780892E+05</totfact>
</mgrwt>
</event>
<event>
 4    1  0.4017302E+000  0.1773292E+03  0.7546771E-02  0.1170413E+00
         21   -1    0    0  501  502  0.00000000000E+00  0.00000000000E+00  0.22238693037E+04  0.22238693037E+04  0.00000000000E+00 0. -1.
         21   -1    0    0  502  503 -0.00000000000E+00 -0.00000000000E+00 -0.15607684602E+02  0.15607684602E+02  0.00000000000E+00 0. -1.
          6    1    1    2  501    0 -0.14447479531E+02 -0.36164906125E+02  0.14474956931E+04  0.14583173220E+04  0.17300000000E+03 0.  1.
         -6    1    1    2    0  503  0.14447479531E+02  0.36164906125E+02  0.76076592604E+03  0.78115966635E+03  0.17300000000E+03 0.  1.
<mgrwt>
<rscale>  2 0.17732916E+03</rscale>
<asrwt>0</asrwt>
<pdfrwt beam="1">  1       21 0.34213349E+00 0.17732916E+03</pdfrwt>
<pdfrwt beam="2">  1       21 0.24011840E-02 0.17732916E+03</pdfrwt>
<totfact> 0.18079659E+04</totfact>
</mgrwt>
</event>
<event>
 4    1  0.4017302E+000  0.5112068E+03  0.7546771E-02  0.1010894E+00
         21   -1    0    0  501  502  0.00000000000E+00  0.00000000000E+00  0.17546186759E+04  0.17546186759E+04  0.00000000000E+00 0. -1.
         21   -1    0    0  502  503 -0.00000000000E+00 -0.00000000000E+00 -0.25052812848E+03  0.25052812848E+03  0.00000000000E+00 0. -1.
          6    1    1    2  501    0  0.90071848922E+02 -0.47253619610E+03  0.13904704925E+04  0.14814656881E+04  0.17300000000E+03 0. -1.
         -6    1    1    2    0  503 -0.90071848922E+02  0.47253619610E+03  0.11362005487E+03  0.52368111620E+03  0.17300000000E+03 0. -1.
<mgrwt>
<rscale>  2 0.51120680E+03</rscale>
<asrwt>0</asrwt>
<pdfrwt beam="1">  1       21 0.26994133E+00 0.51120680E+03</pdfrwt>
<pdfrwt beam="2">  1       21 0.38542790E-01 0.51120680E+03</pdfrwt>
<totfact> 0.25412772E+02</totfact>
</mgrwt>
</event>
<event>
 4    1  0.4017302E+000  0.1749210E+03  0.7546771E-02  0.1172811E+00
         21   -1    0    0  503  502  0.00000000000E+00  0.00000000000E+00  0.25782202182E+03  0.25782202182E+03  0.00000000000E+00 0. -1.
         21   -1    0    0  501  503 -0.00000000000E+00 -0.00000000000E+00 -0.13623736621E+03  0.13623736621E+03  0.00000000000E+00 0. -1.
          6    1    1    2  501    0  0.25312738564E+02  0.52562870099E+01 -0.99466889276E+01  0.17520359559E+03  0.17300000000E+03 0. -1.
         -6    1    1    2    0  502 -0.25312738564E+02 -0.52562870099E+01  0.13153134454E+03  0.21885579244E+03  0.17300000000E+03 0. -1.
<mgrwt>
<rscale>  2 0.17492102E+03</rscale>
<asrwt>0</asrwt>
<pdfrwt beam="1">  1       21 0.39664927E-01 0.17492102E+03</pdfrwt>
<pdfrwt beam="2">  1       21 0.20959595E-01 0.17492102E+03</pdfrwt>
<totfact> 0.13033808E+05</totfact>
</mgrwt>
</event>
<event>
 4    1  0.4017302E+000  0.2371189E+03  0.7546771E-02  0.1121727E+00
         21   -1    0    0  503  502  0.00000000000E+00  0.00000000000E+00  0.12190289578E+03  0.12190289578E+03  0.00000000000E+00 0. -1.
         21   -1    0    0  501  503 -0.00000000000E+00 -0.00000000000E+00 -0.49878996296E+03  0.49878996296E+03  0.00000000000E+00 0. -1.
          6    1    1    2  501    0  0.97523106442E+02  0.12955931308E+03 -0.27360551742E+03  0.36205711022E+03  0.17300000000E+03 0. -1.
         -6    1    1    2    0  502 -0.97523106442E+02 -0.12955931308E+03 -0.10328154976E+03  0.25863574853E+03  0.17300000000E+03 0. -1.
<mgrwt>
<rscale>  2 0.23711890E+03</rscale>
<asrwt>0</asrwt>
<pdfrwt beam="1">  1       21 0.18754292E-01 0.23711890E+03</pdfrwt>
<pdfrwt beam="2">  1       21 0.76736917E-01 0.23711890E+03</pdfrwt>
<totfact> 0.38447891E+04</totfact>
</mgrwt>
</event>
<event>
 4    1  0.4017302E+000  0.1762955E+03  0.7546771E-02  0.1171437E+00
         21   -1    0    0  501  502  0.00000000000E+00  0.00000000000E+00  0.12484776090E+03  0.12484776090E+03  0.00000000000E+00 0.  1.
         21   -1    0    0  502  503 -0.00000000000E+00 -0.00000000000E+00 -0.28628756866E+03  0.28628756866E+03  0.00000000000E+00 0.  1.
          6    1    1    2  501    0  0.33456074938E+02  0.56391204126E+01 -0.64759468896E+01  0.17641441698E+03  0.17300000000E+03 0.  1.
         -6    1    1    2    0  503 -0.33456074938E+02 -0.56391204126E+01 -0.15496386087E+03  0.23472091259E+03  0.17300000000E+03 0.  1.
<mgrwt>
<rscale>  2 0.17629552E+03</rscale>
<asrwt>0</asrwt>
<pdfrwt beam="1">  1       21 0.19207348E-01 0.17629552E+03</pdfrwt>
<pdfrwt beam="2">  1       21 0.44044241E-01 0.17629552E+03</pdfrwt>
<totfact> 0.12396620E+05</totfact>
</mgrwt>
</event>
<event>
 4    1  0.4017302E+000  0.1994904E+03  0.7546771E-02  0.1150170E+00
         21   -1    0    0  503  502  0.00000000000E+00  0.00000000000E+00  0.94092863736E+02  0.94092863736E+02  0.00000000000E+00 0.  1.
         21   -1    0    0  501  503 -0.00000000000E+00 -0.00000000000E+00 -0.62649271667E+03  0.62649271667E+03  0.00000000000E+00 0.  1.
          6    1    1    2  501    0 -0.99329925581E+02 -0.99009868910E+00 -0.47156528228E+03  0.51202561446E+03  0.17300000000E+03 0.  1.
         -6    1    1    2    0  502  0.99329925581E+02  0.99009868910E+00 -0.60834570663E+02  0.20855996596E+03  0.17300000000E+03 0.  1.
<mgrwt>
<rscale>  2 0.19949039E+03</rscale>
<asrwt>0</asrwt>
<pdfrwt beam="1">  1       21 0.14475825E-01 0.19949039E+03</pdfrwt>
<pdfrwt beam="2">  1       21 0.96383495E-01 0.19949039E+03</pdfrwt>
<totfact> 0.37335265E+04</totfact>
</mgrwt>
</event>
<event>
 4    1  0.4017302E+000  0.2791290E+03  0.7546771E-02  0.1096166E+00
         21   -1    0    0  503  502  0.00000000000E+00  0.00000000000E+00  0.51629473967E+03  0.51629473967E+03  0.00000000000E+00 0. -1.
         21   -1    0    0  501  503 -0.00000000000E+00 -0.00000000000E+00 -0.22401395453E+03  0.22401395453E+03  0.00000000000E+00 0.  1.
          6    1    1    2  501    0  0.16269727138E+03 -0.14667518088E+03 -0.65316414114E+02  0.28666922533E+03  0.17300000000E+03 0.  1.
         -6    1    1    2    0  502 -0.16269727138E+03  0.14667518088E+03  0.35759719925E+03  0.45363946886E+03  0.17300000000E+03 0. -1.
<mgrwt>
<rscale>  2 0.27912902E+03</rscale>
<asrwt>0</asrwt>
<pdfrwt beam="1">  1       21 0.79429960E-01 0.27912902E+03</pdfrwt>
<pdfrwt beam="2">  1       21 0.34463685E-01 0.27912902E+03</pdfrwt>
<totfact> 0.10783803E+04</totfact>
</mgrwt>
</event>
<event>
 4    1  0.4017302E+000  0.1990528E+03  0.7546771E-02  0.1150541E+00
         21   -1    0    0  503  502  0.00000000000E+00  0.00000000000E+00  0.38708767515E+02  0.38708767515E+02  0.00000000000E+00 0.  1.
         21   -1    0    0  501  503 -0.00000000000E+00 -0.00000000000E+00 -0.14794367695E+04  0.14794367695E+04  0.00000000000E+00 0.  1.
          6    1    1    2  501    0 -0.26899306053E+02  0.94707210259E+02 -0.11417141569E+04  0.11589362556E+04  0.17300000000E+03 0.  1.
         -6    1    1    2    0  502  0.26899306053E+02 -0.94707210259E+02 -0.29901384506E+03  0.35920928145E+03  0.17300000000E+03 0.  1.
<mgrwt>
<rscale>  2 0.19905283E+03</rscale>
<asrwt>0</asrwt>
<pdfrwt beam="1">  1       21 0.59551952E-02 0.19905283E+03</pdfrwt>
<pdfrwt beam="2">  1       21 0.22760565E+00 0.19905283E+03</pdfrwt>
<totfact> 0.17962838E+04</totfact>
</mgrwt>
</event>
<event>
 4    1  0.4017302E+000  0.3728338E+03  0.7546771E-02  0.1053615E+00
         21   -1    0    0  501  502  0.00000000000E+00  0.00000000000E+00  0.17184271473E+03  0.17184271473E+03  0.00000000000E+00 0. -1.
         21   -1    0    0  502  503 -0.00000000000E+00 -0.00000000000E+00 -0.83379034554E+03  0.83379034554E+03  0.00000000000E+00 0. -1.
          6    1    1    2  501    0 -0.17419125674E+03  0.28059481323E+03 -0.24411340520E+03  0.44564155746E+03  0.17300000000E+03 0. -1.
         -6    1    1    2    0  503  0.17419125674E+03 -0.28059481323E+03 -0.41783422561E+03  0.55999150282E+03  0.17300000000E+03 0. -1.
<mgrwt>
<rscale>  2 0.37283380E+03</rscale>
<asrwt>0</asrwt>
<pdfrwt beam="1">  1       21 0.26437341E-01 0.37283380E+03</pdfrwt>
<pdfrwt beam="2">  1       21 0.12827544E+00 0.37283380E+03</pdfrwt>
<totfact> 0.54853680E+03</totfact>
</mgrwt>
</event>
<event>
 4    1  0.4017302E+000  0.3590315E+03  0.7546771E-02  0.1058968E+00
         21   -1    0    0  501  502  0.00000000000E+00  0.00000000000E+00  0.90770851126E+02  0.90770851126E+02  0.00000000000E+00 0.  1.
         21   -1    0    0  502  503 -0.00000000000E+00 -0.00000000000E+00 -0.15302249087E+04  0.15302249087E+04  0.00000000000E+00 0.  1.
          6    1    1    2  501    0 -0.88175493173E+00  0.31460106736E+03 -0.50229741496E+03  0.61741906526E+03  0.17300000000E+03 0.  1.
         -6    1    1    2    0  503  0.88175493173E+00 -0.31460106736E+03 -0.93715664260E+03  0.10035766945E+04  0.17300000000E+03 0.  1.
<mgrwt>
<rscale>  2 0.35903149E+03</rscale>
<asrwt>0</asrwt>
<pdfrwt beam="1">  1       21 0.13964747E-01 0.35903149E+03</pdfrwt>
<pdfrwt beam="2">  1       21 0.23541920E+00 0.35903149E+03</pdfrwt>
<totfact> 0.31935341E+03</totfact>
</mgrwt>
</event>
<event>
 4    1  0.4017302E+000  0.1868424E+03  0.7546771E-02  0.1161340E+00
         21   -1    0    0  501  502  0.00000000000E+00  0.00000000000E+00  0.19912479987E+03  0.19912479987E+03  0.00000000000E+00 0. -1.
         21   -1    0    0  502  503 -0.00000000000E+00 -0.00000000000E+00 -0.23275446789E+03  0.23275446789E+03  0.00000000000E+00 0. -1.
          6    1    1    2  501    0  0.10235202982E+02  0.69830754743E+02  0.90455220302E+02  0.20758670614E+03  0.17300000000E+03 0. -1.
         -6    1    1    2    0  503 -0.10235202982E+02 -0.69830754743E+02 -0.12408488832E+03  0.22429256162E+03  0.17300000000E+03 0. -1.
<mgrwt>
<rscale>  2 0.18684243E+03</rscale>
<asrwt>0</asrwt>
<pdfrwt beam="1">  1       21 0.30634585E-01 0.18684243E+03</pdfrwt>
<pdfrwt beam="2">  1       21 0.35808380E-01 0.18684243E+03</pdfrwt>
<totfact> 0.77112701E+04</totfact>
</mgrwt>
</event>
<event>
 4    1  0.4017302E+000  0.2337130E+03  0.7546771E-02  0.1124053E+00
         21   -1    0    0  501  502  0.00000000000E+00  0.00000000000E+00  0.10821375618E+03  0.10821375618E+03  0.00000000000E+00 0. -1.
         21   -1    0    0  502  503 -0.00000000000E+00 -0.00000000000E+00 -0.58250982351E+03  0.58250982351E+03  0.00000000000E+00 0. -1.
          6    1    1    2  501    0  0.14174122854E+03  0.67839505839E+02 -0.11097180081E+03  0.25872092106E+03  0.17300000000E+03 0. -1.
         -6    1    1    2    0  503 -0.14174122854E+03 -0.67839505839E+02 -0.36332426652E+03  0.43200265863E+03  0.17300000000E+03 0. -1.
<mgrwt>
<rscale>  2 0.23371302E+03</rscale>
<asrwt>0</asrwt>
<pdfrwt beam="1">  1       21 0.16648270E-01 0.23371302E+03</pdfrwt>
<pdfrwt beam="2">  1       21 0.89616896E-01 0.23371302E+03</pdfrwt>
<totfact> 0.33668989E+04</totfact>
</mgrwt>
</event>
<event>
 4    1  0.4017302E+000  0.2144384E+03  0.7546771E-02  0.1138099E+00
         21   -1    0    0  501  502  0.00000000000E+00  0.00000000000E+00  0.10297540067E+04  0.10297540067E+04  0.00000000000E+00 0.  1.
         21   -1    0    0  502  503 -0.00000000000E+00 -0.00000000000E+00 -0.65585779830E+02  0.65585779830E+02  0.00000000000E+00 0. -1.
          6    1    1    2  501    0  0.34443876673E+02  0.12193620469E+03  0.79147333681E+03  0.82000845211E+03  0.17300000000E+03 0.  1.
         -6    1    1    2    0  503 -0.34443876673E+02 -0.12193620469E+03  0.17269489003E+03  0.27533133439E+03  0.17300000000E+03 0. -1.
<mgrwt>
<rscale>  2 0.21443838E+03</rscale>
<asrwt>0</asrwt>
<pdfrwt beam="1">  1       21 0.15842368E+00 0.21443838E+03</pdfrwt>
<pdfrwt beam="2">  1       21 0.10090121E-01 0.21443838E+03</pdfrwt>
<totfact> 0.20346592E+04</totfact>
</mgrwt>
</event>
<event>
 4    1  0.4017302E+000  0.2138204E+03  0.7546771E-02  0.1138576E+00
         21   -1    0    0  501  502  0.00000000000E+00  0.00000000000E+00  0.60662702762E+03  0.60662702762E+03  0.00000000000E+00 0. -1.
         21   -1    0    0  502  503 -0.00000000000E+00 -0.00000000000E+00 -0.89892259397E+02  0.89892259397E+02  0.00000000000E+00 0. -1.
          6    1    1    2  501    0 -0.10933430017E+03  0.61936900024E+02  0.39836351616E+03  0.45212018290E+03  0.17300000000E+03 0. -1.
         -6    1    1    2    0  503  0.10933430017E+03 -0.61936900024E+02  0.11837125207E+03  0.24439910412E+03  0.17300000000E+03 0. -1.
<mgrwt>
<rscale>  2 0.21382041E+03</rscale>
<asrwt>0</asrwt>
<pdfrwt beam="1">  1       21 0.93327233E-01 0.21382041E+03</pdfrwt>
<pdfrwt beam="2">  1       21 0.13829579E-01 0.21382041E+03</pdfrwt>
<totfact> 0.43420833E+04</totfact>
</mgrwt>
</event>
<event>
 4    1  0.4017302E+000  0.2156980E+03  0.7546771E-02  0.1137132E+00
         21   -1    0    0  501  502  0.00000000000E+00  0.00000000000E+00  0.16468957036E+03  0.16468957036E+03  0.00000000000E+00 0.  1.
         21   -1    0    0  502  503 -0.00000000000E+00 -0.00000000000E+00 -0.35416022258E+03  0.35416022258E+03  0.00000000000E+00 0.  1.
          6    1    1    2  501    0 -0.98860921370E+02 -0.82602234838E+02  0.21955303230E+02  0.21681246808E+03  0.17300000000E+03 0.  1.
         -6    1    1    2    0  503  0.98860921370E+02  0.82602234838E+02 -0.21142595545E+03  0.30203732487E+03  0.17300000000E+03 0.  1.
<mgrwt>
<rscale>  2 0.21569796E+03</rscale>
<asrwt>0</asrwt>
<pdfrwt beam="1">  1       21 0.25336857E-01 0.21569796E+03</pdfrwt>
<pdfrwt beam="2">  1       21 0.54486188E-01 0.21569796E+03</pdfrwt>
<totfact> 0.46450027E+04</totfact>
</mgrwt>
</event>
<event>
 4    1  0.4017302E+000  0.2082749E+03  0.7546771E-02  0.1142939E+00
         21   -1    0    0  503  502  0.00000000000E+00  0.00000000000E+00  0.74435496507E+02  0.74435496507E+02  0.00000000000E+00 0. -1.
         21   -1    0    0  501  503 -0.00000000000E+00 -0.00000000000E+00 -0.13514788248E+04  0.13514788248E+04  0.00000000000E+00 0. -1.
          6    1    1    2  501    0  0.37287470252E+02  0.10981382935E+03 -0.11762229101E+04  0.11945203082E+04  0.17300000000E+03 0. -1.
         -6    1    1    2    0  502 -0.37287470252E+02 -0.10981382935E+03 -0.10082041817E+03  0.23139401305E+03  0.17300000000E+03 0. -1.
<mgrwt>
<rscale>  2 0.20827490E+03</rscale>
<asrwt>0</asrwt>
<pdfrwt beam="1">  1       21 0.11451615E-01 0.20827490E+03</pdfrwt>
<pdfrwt beam="2">  1       21 0.20791981E+00 0.20827490E+03</pdfrwt>
<totfact> 0.75250341E+03</totfact>
</mgrwt>
</event>
<event>
 4    1  0.4017302E+000  0.2494682E+03  0.7546771E-02  0.1113641E+00
         21   -1    0    0  503  502  0.00000000000E+00  0.00000000000E+00  0.13650364431E+04  0.13650364431E+04  0.00000000000E+00 0. -1.
         21   -1    0    0  501  503 -0.00000000000E+00 -0.00000000000E+00 -0.11003468573E+03  0.11003468573E+03  0.00000000000E+00 0.  1.
          6    1    1    2  501    0  0.11300256075E+03 -0.13977051244E+03  0.63076343017E+02  0.25731886820E+03  0.17300000000E+03 0.  1.
         -6    1    1    2    0  502 -0.11300256075E+03  0.13977051244E+03  0.11919254144E+04  0.12177522607E+04  0.17300000000E+03 0. -1.
<mgrwt>
<rscale>  2 0.24946818E+03</rscale>
<asrwt>0</asrwt>
<pdfrwt beam="1">  1       21 0.21000559E+00 0.24946818E+03</pdfrwt>
<pdfrwt beam="2">  1       21 0.16928414E-01 0.24946818E+03</pdfrwt>
<totfact> 0.34691441E+03</totfact>
</mgrwt>
</event>
<event>
 4    1  0.4017302E+000  0.3053329E+03  0.7546771E-02  0.1082605E+00
         21   -1    0    0  503  502  0.00000000000E+00  0.00000000000E+00  0.56737977546E+03  0.56737977546E+03  0.00000000000E+00 0. -1.
         21   -1    0    0  501  503 -0.00000000000E+00 -0.00000000000E+00 -0.37637917695E+03  0.37637917695E+03  0.00000000000E+00 0.  1.
          6    1    1    2  501    0 -0.22620602875E+03 -0.11013623636E+03 -0.25870371912E+03  0.40019466799E+03  0.17300000000E+03 0.  1.
         -6    1    1    2    0  502  0.22620602875E+03  0.11013623636E+03  0.44970431763E+03  0.54356428442E+03  0.17300000000E+03 0. -1.
<mgrwt>
<rscale>  2 0.30533286E+03</rscale>
<asrwt>0</asrwt>
<pdfrwt beam="1">  1       21 0.87289196E-01 0.30533286E+03</pdfrwt>
<pdfrwt beam="2">  1       21 0.57904489E-01 0.30533286E+03</pdfrwt>
<totfact> 0.29183809E+03</totfact>
</mgrwt>
</event>
<event>
 4    1  0.4017302E+000  0.2404488E+03  0.7546771E-02  0.1119494E+00
         21   -1    0    0  501  502  0.00000000000E+00  0.00000000000E+00  0.54163985359E+03  0.54163985359E+03  0.00000000000E+00 0.  1.
         21   -1    0    0  502  503 -0.00000000000E+00 -0.00000000000E+00 -0.13960136538E+03  0.13960136538E+03  0.00000000000E+00 0. -1.
          6    1    1    2  501    0  0.21597981099E+02 -0.16559034732E+03  0.36627504593E+03  0.43814728709E+03  0.17300000000E+03 0.  1.
         -6    1    1    2    0  503 -0.21597981099E+02  0.16559034732E+03  0.35763442279E+02  0.24309393188E+03  0.17300000000E+03 0.  1.
<mgrwt>
<rscale>  2 0.24044882E+03</rscale>
<asrwt>0</asrwt>
<pdfrwt beam="1">  1       21 0.83329207E-01 0.24044882E+03</pdfrwt>
<pdfrwt beam="2">  1       21 0.21477133E-01 0.24044882E+03</pdfrwt>
<totfact> 0.24674948E+04</totfact>
</mgrwt>
</event>
<event>
 4    1  0.4017302E+000  0.1741877E+03  0.7546771E-02  0.1173550E+00
         21   -1    0    0  501  502  0.00000000000E+00  0.00000000000E+00  0.50652051964E+02  0.50652051964E+02  0.00000000000E+00 0. -1.
         21   -1    0    0  502  503 -0.00000000000E+00 -0.00000000000E+00 -0.12411596543E+04  0.12411596543E+04  0.00000000000E+00 0. -1.
          6    1    1    2  501    0 -0.84647594614E+01 -0.18457776579E+02 -0.13066170993E+03  0.21774715638E+03  0.17300000000E+03 0. -1.
         -6    1    1    2    0  503  0.84647594614E+01  0.18457776579E+02 -0.10598458924E+04  0.10740645499E+04  0.17300000000E+03 0. -1.
<mgrwt>
<rscale>  2 0.17418766E+03</rscale>
<asrwt>0</asrwt>
<pdfrwt beam="1">  1       21 0.77926236E-02 0.17418766E+03</pdfrwt>
<pdfrwt beam="2">  1       21 0.19094763E+00 0.17418766E+03</pdfrwt>
<totfact> 0.19587185E+04</totfact>
</mgrwt>
</event>
<event>
 4    1  0.4017302E+000  0.1923991E+03  0.7546771E-02  0.1156315E+00
         21   -1    0    0  503  502  0.00000000000E+00  0.00000000000E+00  0.21195867863E+03  0.21195867863E+03  0.00000000000E+00 0.  1.
         21   -1    0    0  501  503 -0.00000000000E+00 -0.00000000000E+00 -0.17534020156E+03  0.17534020156E+03  0.00000000000E+00 0.  1.
          6    1    1    2  501    0 -0.10888745530E+02  0.83485515391E+02  0.30508077042E+02  0.19480282037E+03  0.17300000000E+03 0.  1.
         -6    1    1    2    0  502  0.10888745530E+02 -0.83485515391E+02  0.61104000321E+01  0.19249605982E+03  0.17300000000E+03 0.  1.
<mgrwt>
<rscale>  2 0.19239905E+03</rscale>
<asrwt>0</asrwt>
<pdfrwt beam="1">  1       21 0.32609027E-01 0.19239905E+03</pdfrwt>
<pdfrwt beam="2">  1       21 0.26975416E-01 0.19239905E+03</pdfrwt>
<totfact> 0.11850952E+05</totfact>
</mgrwt>
</event>
<event>
 4    1  0.4017302E+000  0.1736814E+03  0.7546771E-02  0.1174062E+00
         21   -1    0    0  503  502  0.00000000000E+00  0.00000000000E+00  0.52274501596E+03  0.52274501596E+03  0.00000000000E+00 0. -1.
         21   -1    0    0  501  503 -0.00000000000E+00 -0.00000000000E+00 -0.95087599622E+02  0.95087599622E+02  0.00000000000E+00 0. -1.
          6    1    1    2  501    0 -0.14619072487E+02 -0.47448437561E+01  0.20136972537E+02  0.17484486977E+03  0.17300000000E+03 0. -1.
         -6    1    1    2    0  502  0.14619072487E+02  0.47448437561E+01  0.40752044380E+03  0.44298774581E+03  0.17300000000E+03 0. -1.
<mgrwt>
<rscale>  2 0.17368141E+03</rscale>
<asrwt>0</asrwt>
<pdfrwt beam="1">  1       21 0.80422308E-01 0.17368141E+03</pdfrwt>
<pdfrwt beam="2">  1       21 0.14628862E-01 0.17368141E+03</pdfrwt>
<totfact> 0.56305515E+04</totfact>
</mgrwt>
</event>
<event>
 4    1  0.4017302E+000  0.2234017E+03  0.7546771E-02  0.1131372E+00
         21   -1    0    0  501  502  0.00000000000E+00  0.00000000000E+00  0.18351812090E+04  0.18351812090E+04  0.00000000000E+00 0. -1.
         21   -1    0    0  502  503 -0.00000000000E+00 -0.00000000000E+00 -0.49257235377E+02  0.49257235377E+02  0.00000000000E+00 0. -1.
          6    1    1    2  501    0 -0.13568713591E+03 -0.39601914066E+02  0.15235398355E+04  0.15398317898E+04  0.17300000000E+03 0. -1.
         -6    1    1    2    0  503  0.13568713591E+03  0.39601914066E+02  0.26238413807E+03  0.34460665455E+03  0.17300000000E+03 0. -1.
<mgrwt>
<rscale>  2 0.22340168E+03</rscale>
<asrwt>0</asrwt>
<pdfrwt beam="1">  1       21 0.28233552E+00 0.22340168E+03</pdfrwt>
<pdfrwt beam="2">  1       21 0.75780376E-02 0.22340168E+03</pdfrwt>
<totfact> 0.55094579E+03</totfact>
</mgrwt>
</event>
<event>
 4    1  0.4017302E+000  0.2232678E+03  0.7546771E-02  0.1131470E+00
         21   -1    0    0  503  502  0.00000000000E+00  0.00000000000E+00  0.18581660355E+03  0.18581660355E+03  0.00000000000E+00 0.  1.
         21   -1    0    0  501  503 -0.00000000000E+00 -0.00000000000E+00 -0.27248682067E+03  0.27248682067E+03  0.00000000000E+00 0.  1.
          6    1    1    2  501    0 -0.12591456649E+03  0.63757434420E+02 -0.14819001782E+02  0.22375900275E+03  0.17300000000E+03 0.  1.
         -6    1    1    2    0  502  0.12591456649E+03 -0.63757434420E+02 -0.71851215339E+02  0.23454442147E+03  0.17300000000E+03 0.  1.
<mgrwt>
<rscale>  2 0.22326775E+03</rscale>
<asrwt>0</asrwt>
<pdfrwt beam="1">  1       21 0.28587170E-01 0.22326775E+03</pdfrwt>
<pdfrwt beam="2">  1       21 0.41921049E-01 0.22326775E+03</pdfrwt>
<totfact> 0.63239902E+04</totfact>
</mgrwt>
</event>
<event>
 4    1  0.4017302E+000  0.1914734E+03  0.7546771E-02  0.1157139E+00
         21   -1    0    0  501  502  0.00000000000E+00  0.00000000000E+00  0.28438579520E+03  0.28438579520E+03  0.00000000000E+00 0. -1.
         21   -1    0    0  502  503 -0.00000000000E+00 -0.00000000000E+00 -0.13972462020E+03  0.13972462020E+03  0.00000000000E+00 0. -1.
          6    1    1    2  501    0 -0.78033794536E+02 -0.25373126318E+02  0.13130779666E+03  0.23217193218E+03  0.17300000000E+03 0. -1.
         -6    1    1    2    0  503  0.78033794536E+02  0.25373126318E+02  0.13353378338E+02  0.19193848322E+03  0.17300000000E+03 0. -1.
<mgrwt>
<rscale>  2 0.19147341E+03</rscale>
<asrwt>0</asrwt>
<pdfrwt beam="1">  1       21 0.43751661E-01 0.19147341E+03</pdfrwt>
<pdfrwt beam="2">  1       21 0.21496095E-01 0.19147341E+03</pdfrwt>
<totfact> 0.10127038E+05</totfact>
</mgrwt>
</event>
<event>
 4    1  0.4017302E+000  0.2133651E+03  0.7546771E-02  0.1138929E+00
         21   -1    0    0  503  502  0.00000000000E+00  0.00000000000E+00  0.49701774303E+02  0.49701774303E+02  0.00000000000E+00 0.  1.
         21   -1    0    0  501  503 -0.00000000000E+00 -0.00000000000E+00 -0.10732445633E+04  0.10732445633E+04  0.00000000000E+00 0. -1.
          6    1    1    2  501    0  0.11635306453E+03 -0.45361251903E+02 -0.72671627658E+03  0.75739106507E+03  0.17300000000E+03 0. -1.
         -6    1    1    2    0  502 -0.11635306453E+03  0.45361251903E+02 -0.29682651239E+03  0.36555527251E+03  0.17300000000E+03 0.  1.
<mgrwt>
<rscale>  2 0.21336513E+03</rscale>
<asrwt>0</asrwt>
<pdfrwt beam="1">  1       21 0.76464265E-02 0.21336513E+03</pdfrwt>
<pdfrwt beam="2">  1       21 0.16511455E+00 0.21336513E+03</pdfrwt>
<totfact> 0.29606899E+04</totfact>
</mgrwt>
</event>
<event>
 4    1  0.4017302E+000  0.2155978E+03  0.7546771E-02  0.1137208E+00
         21   -1    0    0  503  502  0.00000000000E+00  0.00000000000E+00  0.17747402164E+03  0.17747402164E+03  0.00000000000E+00 0.  1.
         21   -1    0    0  501  503 -0.00000000000E+00 -0.00000000000E+00 -0.56725962373E+03  0.56725962373E+03  0.00000000000E+00 0.  1.
          6    1    1    2  501    0 -0.12841006769E+03 -0.80177087028E+01 -0.46809104493E+03  0.51535585325E+03  0.17300000000E+03 0.  1.
         -6    1    1    2    0  502  0.12841006769E+03  0.80177087028E+01  0.78305442837E+02  0.22937779212E+03  0.17300000000E+03 0.  1.
<mgrwt>
<rscale>  2 0.21559784E+03</rscale>
<asrwt>0</asrwt>
<pdfrwt beam="1">  1       21 0.27303696E-01 0.21559784E+03</pdfrwt>
<pdfrwt beam="2">  1       21 0.87270711E-01 0.21559784E+03</pdfrwt>
<totfact> 0.14216981E+04</totfact>
</mgrwt>
</event>
<event>
 4    1  0.4017302E+000  0.1857087E+03  0.7546771E-02  0.1162390E+00
         21   -1    0    0  503  502  0.00000000000E+00  0.00000000000E+00  0.88442044305E+02  0.88442044305E+02  0.00000000000E+00 0. -1.
         21   -1    0    0  501  503 -0.00000000000E+00 -0.00000000000E+00 -0.56204482245E+03  0.56204482245E+03  0.00000000000E+00 0. -1.
          6    1    1    2  501    0  0.66622651932E+02 -0.10961322700E+02 -0.56827092415E+02  0.19420877112E+03  0.17300000000E+03 0. -1.
         -6    1    1    2    0  502 -0.66622651932E+02  0.10961322700E+02 -0.41677568573E+03  0.45627809564E+03  0.17300000000E+03 0. -1.
<mgrwt>
<rscale>  2 0.18570872E+03</rscale>
<asrwt>0</asrwt>
<pdfrwt beam="1">  1       21 0.13606469E-01 0.18570872E+03</pdfrwt>
<pdfrwt beam="2">  1       21 0.86468431E-01 0.18570872E+03</pdfrwt>
<totfact> 0.54118348E+04</totfact>
</mgrwt>
</event>
<event>
 4    1  0.4017302E+000  0.2168946E+03  0.7546771E-02  0.1136220E+00
         21   -1    0    0  501  502  0.00000000000E+00  0.00000000000E+00  0.53570868160E+03  0.53570868160E+03  0.00000000000E+00 0.  1.
         21   -1    0    0  502  503 -0.00000000000E+00 -0.00000000000E+00 -0.99978768119E+02  0.99978768119E+02  0.00000000000E+00 0.  1.
          6    1    1    2  501    0 -0.83415238942E+02 -0.10077780780E+03  0.32872970080E+03  0.39383560634E+03  0.17300000000E+03 0.  1.
         -6    1    1    2    0  503  0.83415238942E+02  0.10077780780E+03  0.10700021268E+03  0.24185184338E+03  0.17300000000E+03 0.  1.
<mgrwt>
<rscale>  2 0.21689460E+03</rscale>
<asrwt>0</asrwt>
<pdfrwt beam="1">  1       21 0.82416719E-01 0.21689460E+03</pdfrwt>
<pdfrwt beam="2">  1       21 0.15381349E-01 0.21689460E+03</pdfrwt>
<totfact> 0.47602396E+04</totfact>
</mgrwt>
</event>
<event>
 4    1  0.4017302E+000  0.1736920E+03  0.7546771E-02  0.1174052E+00
         21   -1    0    0  501  502  0.00000000000E+00  0.00000000000E+00  0.14209110971E+04  0.14209110971E+04  0.00000000000E+00 0. -1.
         21   -1    0    0  502  503 -0.00000000000E+00 -0.00000000000E+00 -0.21279395406E+02  0.21279395406E+02  0.00000000000E+00 0. -1.
          6    1    1    2  501    0 -0.93292519809E+01 -0.12363816020E+02  0.73381841609E+03  0.75409440170E+03  0.17300000000E+03 0. -1.
         -6    1    1    2    0  503  0.93292519809E+01  0.12363816020E+02  0.66581328558E+03  0.68809609077E+03  0.17300000000E+03 0. -1.
<mgrwt>
<rscale>  2 0.17369197E+03</rscale>
<asrwt>0</asrwt>
<pdfrwt beam="1">  1       21 0.21860163E+00 0.17369197E+03</pdfrwt>
<pdfrwt beam="2">  1       21 0.32737543E-02 0.17369197E+03</pdfrwt>
<totfact> 0.56918965E+04</totfact>
</mgrwt>
</event>
<event>
 4    1  0.4017302E+000  0.2418950E+03  0.7546771E-02  0.1118537E+00
         21   -1    0    0  503  502  0.00000000000E+00  0.00000000000E+00  0.19238136923E+04  0.19238136923E+04  0.00000000000E+00 0. -1.
         21   -1    0    0  501  503 -0.00000000000E+00 -0.00000000000E+00 -0.32928278295E+02  0.32928278295E+02  0.00000000000E+00 0. -1.
          6    1    1    2  501    0 -0.13893594068E+03  0.96337849374E+02  0.12157278191E+04  0.12395593197E+04  0.17300000000E+03 0. -1.
         -6    1    1    2    0  502  0.13893594068E+03 -0.96337849374E+02  0.67515759487E+03  0.71718265090E+03  0.17300000000E+03 0. -1.
<mgrwt>
<rscale>  2 0.24189497E+03</rscale>
<asrwt>0</asrwt>
<pdfrwt beam="1">  1       21 0.29597125E+00 0.24189497E+03</pdfrwt>
<pdfrwt beam="2">  1       21 0.50658905E-02 0.24189497E+03</pdfrwt>
<totfact> 0.90289814E+03</totfact>
</mgrwt>
</event>
<event>
 4    1  0.4017302E+000  0.2016960E+03  0.7546771E-02  0.1148316E+00
         21   -1    0    0  503  502  0.00000000000E+00  0.00000000000E+00  0.21626691075E+03  0.21626691075E+03  0.00000000000E+00 0. -1.
         21   -1    0    0  501  503 -0.00000000000E+00 -0.00000000000E+00 -0.18826255309E+03  0.18826255309E+03  0.00000000000E+00 0.  1.
          6    1    1    2  501    0  0.36381385588E+02 -0.97101337596E+02  0.19820082042E+02  0.20266748785E+03  0.17300000000E+03 0.  1.
         -6    1    1    2    0  502 -0.36381385588E+02  0.97101337596E+02  0.81842756173E+01  0.20186197598E+03  0.17300000000E+03 0. -1.
<mgrwt>
<rscale>  2 0.20169600E+03</rscale>
<asrwt>0</asrwt>
<pdfrwt beam="1">  1       21 0.33271832E-01 0.20169600E+03</pdfrwt>
<pdfrwt beam="2">  1       21 0.28963470E-01 0.20169600E+03</pdfrwt>
<totfact> 0.98895219E+04</totfact>
</mgrwt>
</event>
<event>
 4    1  0.4017302E+000  0.1762530E+03  0.7546771E-02  0.1171479E+00
         21   -1    0    0  501  502  0.00000000000E+00  0.00000000000E+00  0.20517435582E+03  0.20517435582E+03  0.00000000000E+00 0. -1.
         21   -1    0    0  502  503 -0.00000000000E+00 -0.00000000000E+00 -0.18958533796E+03  0.18958533796E+03  0.00000000000E+00 0. -1.
          6    1    1    2  501    0  0.33701608415E+02  0.57777496820E+00 -0.80778350847E+02  0.19388211418E+03  0.17300000000E+03 0. -1.
         -6    1    1    2    0  503 -0.33701608415E+02 -0.57777496820E+00  0.96367368710E+02  0.20087757960E+03  0.17300000000E+03 0. -1.
<mgrwt>
<rscale>  2 0.17625303E+03</rscale>
<asrwt>0</asrwt>
<pdfrwt beam="1">  1       21 0.31565285E-01 0.17625303E+03</pdfrwt>
<pdfrwt beam="2">  1       21 0.29166975E-01 0.17625303E+03</pdfrwt>
<totfact> 0.10925269E+05</totfact>
</mgrwt>
</event>
<event>
 4    1  0.4017302E+000  0.3475573E+03  0.7546771E-02  0.1063622E+00
         21   -1    0    0  501  502  0.00000000000E+00  0.00000000000E+00  0.13144737219E+03  0.13144737219E+03  0.00000000000E+00 0.  1.
         21   -1    0    0  502  503 -0.00000000000E+00 -0.00000000000E+00 -0.95706432700E+03  0.95706432700E+03  0.00000000000E+00 0.  1.
          6    1    1    2  501    0 -0.24284608969E+03 -0.17858563987E+03 -0.30422377147E+03  0.46189626235E+03  0.17300000000E+03 0.  1.
         -6    1    1    2    0  503  0.24284608969E+03  0.17858563987E+03 -0.52139318335E+03  0.62661543684E+03  0.17300000000E+03 0.  1.
<mgrwt>
<rscale>  2 0.34755727E+03</rscale>
<asrwt>0</asrwt>
<pdfrwt beam="1">  1       21 0.20222671E-01 0.34755727E+03</pdfrwt>
<pdfrwt beam="2">  1       21 0.14724067E+00 0.34755727E+03</pdfrwt>
<totfact> 0.64642694E+03</totfact>
</mgrwt>
</event>
<event>
 4    1  0.4017302E+000  0.2439286E+03  0.7546771E-02  0.1117203E+00
         21   -1    0    0  503  502  0.00000000000E+00  0.00000000000E+00  0.21900967048E+03  0.21900967048E+03  0.00000000000E+00 0.  1.
         21   -1    0    0  501  503 -0.00000000000E+00 -0.00000000000E+00 -0.27998070776E+03  0.27998070776E+03  0.00000000000E+00 0.  1.
          6    1    1    2  501    0  0.16311697089E+03  0.54451989903E+02  0.12466327873E+02  0.24424695439E+03  0.17300000000E+03 0.  1.
         -6    1    1    2    0  502 -0.16311697089E+03 -0.54451989903E+02 -0.73437365149E+02  0.25474342386E+03  0.17300000000E+03 0.  1.
<mgrwt>
<rscale>  2 0.24392861E+03</rscale>
<asrwt>0</asrwt>
<pdfrwt beam="1">  1       21 0.33693796E-01 0.24392861E+03</pdfrwt>
<pdfrwt beam="2">  1       21 0.43073955E-01 0.24392861E+03</pdfrwt>
<totfact> 0.42935072E+04</totfact>
</mgrwt>
</event>
<event>
 4    1  0.4017302E+000  0.1760312E+03  0.7546771E-02  0.1171700E+00
         21   -1    0    0  501  502  0.00000000000E+00  0.00000000000E+00  0.21325992892E+03  0.21325992892E+03  0.00000000000E+00 0.  1.
         21   -1    0    0  502  503 -0.00000000000E+00 -0.00000000000E+00 -0.19898295777E+03  0.19898295777E+03  0.00000000000E+00 0.  1.
          6    1    1    2  501    0 -0.32250524236E+02  0.42300682700E+01  0.11419851097E+03  0.20982919172E+03  0.17300000000E+03 0.  1.
         -6    1    1    2    0  503  0.32250524236E+02 -0.42300682700E+01 -0.99921539816E+02  0.20241369497E+03  0.17300000000E+03 0.  1.
<mgrwt>
<rscale>  2 0.17603122E+03</rscale>
<asrwt>0</asrwt>
<pdfrwt beam="1">  1       21 0.32809220E-01 0.17603122E+03</pdfrwt>
<pdfrwt beam="2">  1       21 0.30612763E-01 0.17603122E+03</pdfrwt>
<totfact> 0.92197872E+04</totfact>
</mgrwt>
</event>
<event>
 4    1  0.4017302E+000  0.1778078E+03  0.7546771E-02  0.1169942E+00
         21   -1    0    0  501  502  0.00000000000E+00  0.00000000000E+00  0.15961204192E+04  0.15961204192E+04  0.00000000000E+00 0.  1.
         21   -1    0    0  502  503 -0.00000000000E+00 -0.00000000000E+00 -0.44620704024E+02  0.44620704024E+02  0.00000000000E+00 0.  1.
          6    1    1    2  501    0  0.37803380094E+02 -0.16047846566E+02  0.13875093043E+04  0.13988558534E+04  0.17300000000E+03 0.  1.
         -6    1    1    2    0  503 -0.37803380094E+02  0.16047846566E+02  0.16399041089E+03  0.24188526989E+03  0.17300000000E+03 0.  1.
<mgrwt>
<rscale>  2 0.17780784E+03</rscale>
<asrwt>0</asrwt>
<pdfrwt beam="1">  1       21 0.24555694E+00 0.17780784E+03</pdfrwt>
<pdfrwt beam="2">  1       21 0.68647249E-02 0.17780784E+03</pdfrwt>
<totfact> 0.11207891E+04</totfact>
</mgrwt>
</event>
<event>
 4    1  0.4017302E+000  0.1941948E+03  0.7546771E-02  0.1154731E+00
         21   -1    0    0  503  502  0.00000000000E+00  0.00000000000E+00  0.42255025716E+02  0.42255025716E+02  0.00000000000E+00 0. -1.
         21   -1    0    0  501  503 -0.00000000000E+00 -0.00000000000E+00 -0.93951490360E+03  0.93951490360E+03  0.00000000000E+00 0. -1.
          6    1    1    2  501    0  0.51646152313E+02  0.71521232158E+02 -0.55846849368E+03  0.59126869538E+03  0.17300000000E+03 0. -1.
         -6    1    1    2    0  502 -0.51646152313E+02 -0.71521232158E+02 -0.33879138421E+03  0.39050123394E+03  0.17300000000E+03 0. -1.
<mgrwt>
<rscale>  2 0.19419478E+03</rscale>
<asrwt>0</asrwt>
<pdfrwt beam="1">  1       21 0.65007739E-02 0.19419478E+03</pdfrwt>
<pdfrwt beam="2">  1       21 0.14454074E+00 0.19419478E+03</pdfrwt>
<totfact> 0.56555060E+04</totfact>
</mgrwt>
</event>
<event>
 4    1  0.4017302E+000  0.1742850E+03  0.7546771E-02  0.1173451E+00
         21   -1    0    0  503  502  0.00000000000E+00  0.00000000000E+00  0.46963206661E+03  0.46963206661E+03  0.00000000000E+00 0. -1.
         21   -1    0    0  501  503 -0.00000000000E+00 -0.00000000000E+00 -0.67142456200E+02  0.67142456200E+02  0.00000000000E+00 0. -1.
          6    1    1    2  501    0 -0.17081763497E+02  0.12429268688E+02  0.25265470961E+03  0.30693594715E+03  0.17300000000E+03 0.  1.
         -6    1    1    2    0  502  0.17081763497E+02 -0.12429268688E+02  0.14983490080E+03  0.22983857566E+03  0.17300000000E+03 0.  1.
<mgrwt>
<rscale>  2 0.17428503E+03</rscale>
<asrwt>0</asrwt>
<pdfrwt beam="1">  1       21 0.72251085E-01 0.17428503E+03</pdfrwt>
<pdfrwt beam="2">  1       21 0.10329609E-01 0.17428503E+03</pdfrwt>
<totfact> 0.13324631E+05</totfact>
</mgrwt>
</event>
<event>
 4    1  0.4017302E+000  0.1771424E+03  0.7546771E-02  0.1170598E+00
         21   -1    0    0  503  502  0.00000000000E+00  0.00000000000E+00  0.29163784011E+03  0.29163784011E+03  0.00000000000E+00 0. -1.
         21   -1    0    0  501  503 -0.00000000000E+00 -0.00000000000E+00 -0.20839284305E+03  0.20839284305E+03  0.00000000000E+00 0. -1.
          6    1    1    2  501    0 -0.38078756044E+02 -0.65524163720E+00 -0.13225608544E+03  0.22106807354E+03  0.17300000000E+03 0. -1.
         -6    1    1    2    0  502  0.38078756044E+02  0.65524163720E+00  0.21550108251E+03  0.27896260962E+03  0.17300000000E+03 0. -1.
<mgrwt>
<rscale>  2 0.17714237E+03</rscale>
<asrwt>0</asrwt>
<pdfrwt beam="1">  1       21 0.44867360E-01 0.17714237E+03</pdfrwt>
<pdfrwt beam="2">  1       21 0.32060438E-01 0.17714237E+03</pdfrwt>
<totfact> 0.44950373E+04</totfact>
</mgrwt>
</event>
<event>
 4    1  0.4017302E+000  0.2093047E+03  0.7546771E-02  0.1142118E+00
         21   -1    0    0  501  502  0.00000000000E+00  0.00000000000E+00  0.15901430622E+03  0.15901430622E+03  0.00000000000E+00 0. -1.
         21   -1    0    0  502  503 -0.00000000000E+00 -0.00000000000E+00 -0.48161696233E+03  0.48161696233E+03  0.00000000000E+00 0. -1.
          6    1    1    2  501    0  0.74402147205E+02 -0.91344234636E+02  0.48246936089E+02  0.21479342530E+03  0.17300000000E+03 0. -1.
         -6    1    1    2    0  503 -0.74402147205E+02  0.91344234636E+02 -0.37084959219E+03  0.42583784325E+03  0.17300000000E+03 0. -1.
<mgrwt>
<rscale>  2 0.20930468E+03</rscale>
<asrwt>0</asrwt>
<pdfrwt beam="1">  1       21 0.24463739E-01 0.20930468E+03</pdfrwt>
<pdfrwt beam="2">  1       21 0.74094918E-01 0.20930468E+03</pdfrwt>
<totfact> 0.25543439E+04</totfact>
</mgrwt>
</event>
<event>
 4    1  0.4017302E+000  0.2645479E+03  0.7546771E-02  0.1104441E+00
         21   -1    0    0  501  502  0.00000000000E+00  0.00000000000E+00  0.64408977416E+03  0.64408977416E+03  0.00000000000E+00 0. -1.
         21   -1    0    0  502  503 -0.00000000000E+00 -0.00000000000E+00 -0.13267047940E+03  0.13267047940E+03  0.00000000000E+00 0. -1.
          6    1    1    2  501    0 -0.14386534832E+03 -0.13913794519E+03  0.90480388519E+02  0.27959310961E+03  0.17300000000E+03 0. -1.
         -6    1    1    2    0  503  0.14386534832E+03  0.13913794519E+03  0.42093890624E+03  0.49716714395E+03  0.17300000000E+03 0. -1.
<mgrwt>
<rscale>  2 0.26454793E+03</rscale>
<asrwt>0</asrwt>
<pdfrwt beam="1">  1       21 0.99090733E-01 0.26454793E+03</pdfrwt>
<pdfrwt beam="2">  1       21 0.20410843E-01 0.26454793E+03</pdfrwt>
<totfact> 0.17909571E+04</totfact>
</mgrwt>
</event>
<event>
 4    1  0.4017302E+000  0.2101885E+03  0.7546771E-02  0.1141417E+00
         21   -1    0    0  503  502  0.00000000000E+00  0.00000000000E+00  0.66173212020E+03  0.66173212020E+03  0.00000000000E+00 0.  1.
         21   -1    0    0  501  503 -0.00000000000E+00 -0.00000000000E+00 -0.18398284098E+03  0.18398284098E+03  0.00000000000E+00 0.  1.
          6    1    1    2  501    0 -0.11614144272E+03 -0.27593286744E+02 -0.98650335611E+02  0.23218766743E+03  0.17300000000E+03 0.  1.
         -6    1    1    2    0  502  0.11614144272E+03  0.27593286744E+02  0.57639961483E+03  0.61352729374E+03  0.17300000000E+03 0.  1.
<mgrwt>
<rscale>  2 0.21018854E+03</rscale>
<asrwt>0</asrwt>
<pdfrwt beam="1">  1       21 0.10180494E+00 0.21018854E+03</pdfrwt>
<pdfrwt beam="2">  1       21 0.28305053E-01 0.21018854E+03</pdfrwt>
<totfact> 0.92705042E+03</totfact>
</mgrwt>
</event>
<event>
 4    1  0.4017302E+000  0.1936079E+03  0.7546771E-02  0.1155247E+00
         21   -1    0    0  503  502  0.00000000000E+00  0.00000000000E+00  0.27615575312E+03  0.27615575312E+03  0.00000000000E+00 0.  1.
         21   -1    0    0  501  503 -0.00000000000E+00 -0.00000000000E+00 -0.14151724591E+03  0.14151724591E+03  0.00000000000E+00 0.  1.
          6    1    1    2  501    0  0.15431091853E+02 -0.85538958805E+02  0.25106294689E+02  0.19522898889E+03  0.17300000000E+03 0.  1.
         -6    1    1    2    0  502 -0.15431091853E+02  0.85538958805E+02  0.10953221252E+03  0.22244401014E+03  0.17300000000E+03 0.  1.
<mgrwt>
<rscale>  2 0.19360793E+03</rscale>
<asrwt>0</asrwt>
<pdfrwt beam="1">  1       21 0.42485500E-01 0.19360793E+03</pdfrwt>
<pdfrwt beam="2">  1       21 0.21771884E-01 0.19360793E+03</pdfrwt>
<totfact> 0.10489490E+05</totfact>
</mgrwt>
</event>
<event>
 4    1  0.4017302E+000  0.1767860E+03  0.7546771E-02  0.1170950E+00
         21   -1    0    0  503  502  0.00000000000E+00  0.00000000000E+00  0.20741565298E+03  0.20741565298E+03  0.00000000000E+00 0.  1.
         21   -1    0    0  501  503 -0.00000000000E+00 -0.00000000000E+00 -0.19118510942E+03  0.19118510942E+03  0.00000000000E+00 0. -1.
          6    1    1    2  501    0 -0.33853316852E+02 -0.13350780044E+02  0.99851016746E+02  0.20303575039E+03  0.17300000000E+03 0.  1.
         -6    1    1    2    0  502  0.33853316852E+02  0.13350780044E+02 -0.83620473186E+02  0.19556501202E+03  0.17300000000E+03 0. -1.
<mgrwt>
<rscale>  2 0.17678600E+03</rscale>
<asrwt>0</asrwt>
<pdfrwt beam="1">  1       21 0.31910101E-01 0.17678600E+03</pdfrwt>
<pdfrwt beam="2">  1       21 0.29413094E-01 0.17678600E+03</pdfrwt>
<totfact> 0.10520365E+05</totfact>
</mgrwt>
</event>
<event>
 4    1  0.4017302E+000  0.2014421E+03  0.7546771E-02  0.1148528E+00
         21   -1    0    0  501  502  0.00000000000E+00  0.00000000000E+00  0.24014677285E+03  0.24014677285E+03  0.00000000000E+00 0. -1.
         21   -1    0    0  502  503 -0.00000000000E+00 -0.00000000000E+00 -0.19740475090E+03  0.19740475090E+03  0.00000000000E+00 0. -1.
          6    1    1    2  501    0 -0.38281481605E+02  0.95835497893E+02  0.10439494732E+03  0.22688591740E+03  0.17300000000E+03 0. -1.
         -6    1    1    2    0  503  0.38281481605E+02 -0.95835497893E+02 -0.61652925369E+02  0.21066560635E+03  0.17300000000E+03 0. -1.
<mgrwt>
<rscale>  2 0.20144209E+03</rscale>
<asrwt>0</asrwt>
<pdfrwt beam="1">  1       21 0.36945657E-01 0.20144209E+03</pdfrwt>
<pdfrwt beam="2">  1       21 0.30369962E-01 0.20144209E+03</pdfrwt>
<totfact> 0.73229621E+04</totfact>
</mgrwt>
</event>
<event>
 4    1  0.4017302E+000  0.1894911E+03  0.7546771E-02  0.1158921E+00
         21   -1    0    0  503  502  0.00000000000E+00  0.00000000000E+00  0.12900219412E+03  0.12900219412E+03  0.00000000000E+00 0. -1.
         21   -1    0    0  501  503 -0.00000000000E+00 -0.00000000000E+00 -0.29137368396E+03  0.29137368396E+03  0.00000000000E+00 0. -1.
          6    1    1    2  501    0  0.12860439128E+02  0.76239718899E+02 -0.12563480986E+03  0.22735652856E+03  0.17300000000E+03 0. -1.
         -6    1    1    2    0  502 -0.12860439128E+02 -0.76239718899E+02 -0.36736679973E+02  0.19301934952E+03  0.17300000000E+03 0. -1.
<mgrwt>
<rscale>  2 0.18949112E+03</rscale>
<asrwt>0</asrwt>
<pdfrwt beam="1">  1       21 0.19846492E-01 0.18949112E+03</pdfrwt>
<pdfrwt beam="2">  1       21 0.44826720E-01 0.18949112E+03</pdfrwt>
<totfact> 0.11198052E+05</totfact>
</mgrwt>
</event>
<event>
 4    1  0.4017302E+000  0.1789436E+03  0.7546771E-02  0.1168829E+00
         21   -1    0    0  501  502  0.00000000000E+00  0.00000000000E+00  0.12171366320E+04  0.12171366320E+04  0.00000000000E+00 0.  1.
         21   -1    0    0  502  503 -0.00000000000E+00 -0.00000000000E+00 -0.26582659408E+02  0.26582659408E+02  0.00000000000E+00 0.  1.
          6    1    1    2  501    0  0.20918803822E+02  0.40672145617E+02  0.65845084443E+03  0.68233300837E+03  0.17300000000E+03 0.  1.
         -6    1    1    2    0  503 -0.20918803822E+02 -0.40672145617E+02  0.53210312819E+03  0.56138628306E+03  0.17300000000E+03 0.  1.
<mgrwt>
<rscale>  2 0.17894362E+03</rscale>
<asrwt>0</asrwt>
<pdfrwt beam="1">  1       21 0.18725175E+00 0.17894362E+03</pdfrwt>
<pdfrwt beam="2">  1       21 0.40896408E-02 0.17894362E+03</pdfrwt>
<totfact> 0.61917781E+04</totfact>
</mgrwt>
</event>
<event>
 4    1  0.4017302E+000  0.2036687E+03  0.7546771E-02  0.1146680E+00
         21   -1    0    0  501  502  0.00000000000E+00  0.00000000000E+00  0.14150299060E+03  0.14150299060E+03  0.00000000000E+00 0.  1.
         21   -1    0    0  502  503 -0.00000000000E+00 -0.00000000000E+00 -0.51139499136E+03  0.51139499136E+03  0.00000000000E+00 0. -1.
          6    1    1    2  501    0  0.10483122922E+03 -0.23714277575E+02  0.28316155601E+02  0.20562771761E+03  0.17300000000E+03 0.  1.
         -6    1    1    2    0  503 -0.10483122922E+03  0.23714277575E+02 -0.39820815636E+03  0.44727026435E+03  0.17300000000E+03 0. -1.
<mgrwt>
<rscale>  2 0.20366873E+03</rscale>
<asrwt>0</asrwt>
<pdfrwt beam="1">  1       21 0.21769691E-01 0.20366873E+03</pdfrwt>
<pdfrwt beam="2">  1       21 0.78676152E-01 0.20366873E+03</pdfrwt>
<totfact> 0.27943941E+04</totfact>
</mgrwt>
</event>
<event>
 4    1  0.4017302E+000  0.2379212E+03  0.7546771E-02  0.1121185E+00
         21   -1    0    0  501  502  0.00000000000E+00  0.00000000000E+00  0.58035544184E+03  0.58035544184E+03  0.00000000000E+00 0.  1.
         21   -1    0    0  502  503 -0.00000000000E+00 -0.00000000000E+00 -0.16904064885E+03  0.16904064885E+03  0.00000000000E+00 0.  1.
          6    1    1    2  501    0  0.15814972746E+03 -0.40818590444E+02  0.44935319680E+03  0.50845333030E+03  0.17300000000E+03 0.  1.
         -6    1    1    2    0  503 -0.15814972746E+03  0.40818590444E+02 -0.38038403800E+02  0.24094276039E+03  0.17300000000E+03 0.  1.
<mgrwt>
<rscale>  2 0.23792119E+03</rscale>
<asrwt>0</asrwt>
<pdfrwt beam="1">  1       21 0.89285452E-01 0.23792119E+03</pdfrwt>
<pdfrwt beam="2">  1       21 0.26006254E-01 0.23792119E+03</pdfrwt>
<totfact> 0.14622795E+04</totfact>
</mgrwt>
</event>
<event>
 4    1  0.4017302E+000  0.1931890E+03  0.7546771E-02  0.1155616E+00
         21   -1    0    0  501  502  0.00000000000E+00  0.00000000000E+00  0.13729197813E+03  0.13729197813E+03  0.00000000000E+00 0. -1.
         21   -1    0    0  502  503 -0.00000000000E+00 -0.00000000000E+00 -0.32976885102E+03  0.32976885102E+03  0.00000000000E+00 0.  1.
          6    1    1    2  501    0 -0.61356609690E+02  0.60235837336E+02  0.16364776205E+01  0.19319593089E+03  0.17300000000E+03 0. -1.
         -6    1    1    2    0  503  0.61356609690E+02 -0.60235837336E+02 -0.19411335051E+03  0.27386489826E+03  0.17300000000E+03 0.  1.
<mgrwt>
<rscale>  2 0.19318900E+03</rscale>
<asrwt>0</asrwt>
<pdfrwt beam="1">  1       21 0.21121843E-01 0.19318900E+03</pdfrwt>
<pdfrwt beam="2">  1       21 0.50733670E-01 0.19318900E+03</pdfrwt>
<totfact> 0.77020807E+04</totfact>
</mgrwt>
</event>
<event>
 4    1  0.4017302E+000  0.1825913E+03  0.7546771E-02  0.1165318E+00
         21   -1    0    0  503  502  0.00000000000E+00  0.00000000000E+00  0.12493620078E+03  0.12493620078E+03  0.00000000000E+00 0.  1.
         21   -1    0    0  501  503 -0.00000000000E+00 -0.00000000000E+00 -0.34574335734E+03  0.34574335734E+03  0.00000000000E+00 0.  1.
          6    1    1    2  501    0 -0.12743458234E+02 -0.56992885767E+02 -0.22282024817E+03  0.28807715590E+03  0.17300000000E+03 0.  1.
         -6    1    1    2    0  502  0.12743458234E+02  0.56992885767E+02  0.20130916114E+01  0.18260240221E+03  0.17300000000E+03 0.  1.
<mgrwt>
<rscale>  2 0.18259131E+03</rscale>
<asrwt>0</asrwt>
<pdfrwt beam="1">  1       21 0.19220954E-01 0.18259131E+03</pdfrwt>
<pdfrwt beam="2">  1       21 0.53191286E-01 0.18259131E+03</pdfrwt>
<totfact> 0.83542318E+04</totfact>
</mgrwt>
</event>
<event>
 4    1  0.4017302E+000  0.2286869E+03  0.7546771E-02  0.1127567E+00
         21   -1    0    0  501  502  0.00000000000E+00  0.00000000000E+00  0.14338665894E+04  0.14338665894E+04  0.00000000000E+00 0. -1.
         21   -1    0    0  502  503 -0.00000000000E+00 -0.00000000000E+00 -0.11677468256E+03  0.11677468256E+03  0.00000000000E+00 0.  1.
          6    1    1    2  501    0 -0.10067063429E+03 -0.11060794927E+03  0.13014835052E+04  0.13214223433E+04  0.17300000000E+03 0. -1.
         -6    1    1    2    0  503  0.10067063429E+03  0.11060794927E+03  0.15608401631E+02  0.22921892865E+03  0.17300000000E+03 0.  1.
<mgrwt>
<rscale>  2 0.22868689E+03</rscale>
<asrwt>0</asrwt>
<pdfrwt beam="1">  1       21 0.22059485E+00 0.22868689E+03</pdfrwt>
<pdfrwt beam="2">  1       21 0.17965337E-01 0.22868689E+03</pdfrwt>
<totfact> 0.27133231E+03</totfact>
</mgrwt>
</event>
<event>
 4    1  0.4017302E+000  0.2626397E+03  0.7546771E-02  0.1105568E+00
         21   -1    0    0  503  502  0.00000000000E+00  0.00000000000E+00  0.13527065209E+04  0.13527065209E+04  0.00000000000E+00 0.  1.
         21   -1    0    0  501  503 -0.00000000000E+00 -0.00000000000E+00 -0.86463133159E+02  0.86463133159E+02  0.00000000000E+00 0. -1.
          6    1    1    2  501    0 -0.16990677009E+02  0.19688051387E+03  0.10940072969E+04  0.11250918121E+04  0.17300000000E+03 0.  1.
         -6    1    1    2    0  502  0.16990677009E+02 -0.19688051387E+03  0.17223609080E+03  0.31407784198E+03  0.17300000000E+03 0. -1.
<mgrwt>
<rscale>  2 0.26263971E+03</rscale>
<asrwt>0</asrwt>
<pdfrwt beam="1">  1       21 0.20810868E+00 0.26263971E+03</pdfrwt>
<pdfrwt beam="2">  1       21 0.13302022E-01 0.26263971E+03</pdfrwt>
<totfact> 0.54955780E+03</totfact>
</mgrwt>
</event>
<event>
 4    1  0.4017302E+000  0.1932957E+03  0.7546771E-02  0.1155522E+00
         21   -1    0    0  503  502  0.00000000000E+00  0.00000000000E+00  0.33831029989E+03  0.33831029989E+03  0.00000000000E+00 0.  1.
         21   -1    0    0  501  503 -0.00000000000E+00 -0.00000000000E+00 -0.12736063378E+03  0.12736063378E+03  0.00000000000E+00 0.  1.
          6    1    1    2  501    0  0.31317045318E+02  0.80333393969E+02  0.20609284789E+02  0.19439123986E+03  0.17300000000E+03 0.  1.
         -6    1    1    2    0  502 -0.31317045318E+02 -0.80333393969E+02  0.19034038132E+03  0.27127969381E+03  0.17300000000E+03 0.  1.
<mgrwt>
<rscale>  2 0.19329566E+03</rscale>
<asrwt>0</asrwt>
<pdfrwt beam="1">  1       21 0.52047738E-01 0.19329566E+03</pdfrwt>
<pdfrwt beam="2">  1       21 0.19593944E-01 0.19329566E+03</pdfrwt>
<totfact> 0.84013288E+04</totfact>
</mgrwt>
</event>
<event>
 4    1  0.4017302E+000  0.1836693E+03  0.7546771E-02  0.1164298E+00
         21   -1    0    0  501  502  0.00000000000E+00  0.00000000000E+00  0.18225182728E+03  0.18225182728E+03  0.00000000000E+00 0. -1.
         21   -1    0    0  502  503 -0.00000000000E+00 -0.00000000000E+00 -0.18616480627E+03  0.18616480627E+03  0.00000000000E+00 0. -1.
          6    1    1    2  501    0  0.50043176097E+02 -0.36070800029E+02  0.11988974573E+02  0.18406020102E+03  0.17300000000E+03 0. -1.
         -6    1    1    2    0  503 -0.50043176097E+02  0.36070800029E+02 -0.15901953565E+02  0.18435643253E+03  0.17300000000E+03 0. -1.
<mgrwt>
<rscale>  2 0.18366933E+03</rscale>
<asrwt>0</asrwt>
<pdfrwt beam="1">  1       21 0.28038743E-01 0.18366933E+03</pdfrwt>
<pdfrwt beam="2">  1       21 0.28640740E-01 0.18366933E+03</pdfrwt>
<totfact> 0.14211210E+05</totfact>
</mgrwt>
</event>
<event>
 4    1  0.4017302E+000  0.3098822E+03  0.7546771E-02  0.1080402E+00
         21   -1    0    0  503  502  0.00000000000E+00  0.00000000000E+00  0.56548446084E+03  0.56548446084E+03  0.00000000000E+00 0.  1.
         21   -1    0    0  501  503 -0.00000000000E+00 -0.00000000000E+00 -0.52294961836E+03  0.52294961836E+03  0.00000000000E+00 0.  1.
          6    1    1    2  501    0  0.25438836035E+03  0.37209142830E+02 -0.42594433496E+03  0.52674048133E+03  0.17300000000E+03 0.  1.
         -6    1    1    2    0  502 -0.25438836035E+03 -0.37209142830E+02  0.46847917744E+03  0.56169359787E+03  0.17300000000E+03 0.  1.
<mgrwt>
<rscale>  2 0.30988217E+03</rscale>
<asrwt>0</asrwt>
<pdfrwt beam="1">  1       21 0.86997609E-01 0.30988217E+03</pdfrwt>
<pdfrwt beam="2">  1       21 0.80453788E-01 0.30988217E+03</pdfrwt>
<totfact> 0.14123000E+03</totfact>
</mgrwt>
</event>
<event>
 4    1  0.4017302E+000  0.2113054E+03  0.7546771E-02  0.1140536E+00
         21   -1    0    0  501  502  0.00000000000E+00  0.00000000000E+00  0.24298800985E+04  0.24298800985E+04  0.00000000000E+00 0. -1.
         21   -1    0    0  502  503 -0.00000000000E+00 -0.00000000000E+00 -0.29575212868E+02  0.29575212868E+02  0.00000000000E+00 0. -1.
          6    1    1    2  501    0 -0.11618721720E+03  0.34949905923E+02  0.19568996202E+04  0.19682749018E+04  0.17300000000E+03 0. -1.
         -6    1    1    2    0  503  0.11618721720E+03 -0.34949905923E+02  0.44340526539E+03  0.49118040957E+03  0.17300000000E+03 0. -1.
<mgrwt>
<rscale>  2 0.21130538E+03</rscale>
<asrwt>0</asrwt>
<pdfrwt beam="1">  1       21 0.37382755E+00 0.21130538E+03</pdfrwt>
<pdfrwt beam="2">  1       21 0.45500346E-02 0.21130538E+03</pdfrwt>
<totfact> 0.38823764E+03</totfact>
</mgrwt>
</event>
<event>
 4    1  0.4017302E+000  0.2073869E+03  0.7546771E-02  0.1143652E+00
         21   -1    0    0  501  502  0.00000000000E+00  0.00000000000E+00  0.16074450618E+04  0.16074450618E+04  0.00000000000E+00 0. -1.
         21   -1    0    0  502  503 -0.00000000000E+00 -0.00000000000E+00 -0.29441716586E+02  0.29441716586E+02  0.00000000000E+00 0. -1.
          6    1    1    2  501    0 -0.11182204986E+03 -0.24003439873E+02  0.54182344389E+03  0.58015685837E+03  0.17300000000E+03 0. -1.
         -6    1    1    2    0  503  0.11182204986E+03  0.24003439873E+02  0.10361799014E+04  0.10567299201E+04  0.17300000000E+03 0. -1.
<mgrwt>
<rscale>  2 0.20738692E+03</rscale>
<asrwt>0</asrwt>
<pdfrwt beam="1">  1       21 0.24729917E+00 0.20738692E+03</pdfrwt>
<pdfrwt beam="2">  1       21 0.45294961E-02 0.20738692E+03</pdfrwt>
<totfact> 0.21658653E+04</totfact>
</mgrwt>
</event>
<event>
 4    1  0.4017302E+000  0.2552705E+03  0.7546771E-02  0.1110019E+00
         21   -1    0    0  501  502  0.00000000000E+00  0.00000000000E+00  0.26534512141E+03  0.26534512141E+03  0.00000000000E+00 0. -1.
         21   -1    0    0  502  503 -0.00000000000E+00 -0.00000000000E+00 -0.27153564824E+03  0.27153564824E+03  0.00000000000E+00 0. -1.
          6    1    1    2  501    0  0.34224495876E+02 -0.18456091518E+03  0.79901892394E+02  0.26748338255E+03  0.17300000000E+03 0. -1.
         -6    1    1    2    0  503 -0.34224495876E+02  0.18456091518E+03 -0.86092419222E+02  0.26939738710E+03  0.17300000000E+03 0. -1.
<mgrwt>
<rscale>  2 0.25527054E+03</rscale>
<asrwt>0</asrwt>
<pdfrwt beam="1">  1       21 0.40822326E-01 0.25527054E+03</pdfrwt>
<pdfrwt beam="2">  1       21 0.41774715E-01 0.25527054E+03</pdfrwt>
<totfact> 0.30921711E+04</totfact>
</mgrwt>
</event>
<event>
 4    1  0.4017302E+000  0.2866265E+03  0.7546771E-02  0.1092124E+00
         21   -1    0    0  503  502  0.00000000000E+00  0.00000000000E+00  0.27018427847E+03  0.27018427847E+03  0.00000000000E+00 0. -1.
         21   -1    0    0  501  503 -0.00000000000E+00 -0.00000000000E+00 -0.37520653084E+03  0.37520653084E+03  0.00000000000E+00 0.  1.
          6    1    1    2  501    0 -0.10514862355E+02  0.22828744988E+03 -0.19302082932E+03  0.34556007098E+03  0.17300000000E+03 0.  1.
         -6    1    1    2    0  502  0.10514862355E+02 -0.22828744988E+03  0.87998576950E+02  0.29983073833E+03  0.17300000000E+03 0. -1.
<mgrwt>
<rscale>  2 0.28662645E+03</rscale>
<asrwt>0</asrwt>
<pdfrwt beam="1">  1       21 0.41566812E-01 0.28662645E+03</pdfrwt>
<pdfrwt beam="2">  1       21 0.57724082E-01 0.28662645E+03</pdfrwt>
<totfact> 0.14914630E+04</totfact>
</mgrwt>
</event>
<event>
 4    1  0.4017302E+000  0.2158355E+03  0.7546771E-02  0.1137026E+00
         21   -1    0    0  503  502  0.00000000000E+00  0.00000000000E+00  0.10138307709E+04  0.10138307709E+04  0.00000000000E+00 0.  1.
         21   -1    0    0  501  503 -0.00000000000E+00 -0.00000000000E+00 -0.20675202636E+03  0.20675202636E+03  0.00000000000E+00 0. -1.
          6    1    1    2  501    0 -0.96077201211E+02  0.86169294188E+02 -0.13467941133E+03  0.25440817536E+03  0.17300000000E+03 0. -1.
         -6    1    1    2    0  502  0.96077201211E+02 -0.86169294188E+02  0.94175815586E+03  0.96617462189E+03  0.17300000000E+03 0.  1.
<mgrwt>
<rscale>  2 0.21583553E+03</rscale>
<asrwt>0</asrwt>
<pdfrwt beam="1">  1       21 0.15597396E+00 0.21583553E+03</pdfrwt>
<pdfrwt beam="2">  1       21 0.31808005E-01 0.21583553E+03</pdfrwt>
<totfact> 0.25083148E+03</totfact>
</mgrwt>
</event>
<event>
 4    1  0.4017302E+000  0.2243473E+03  0.7546771E-02  0.1130683E+00
         21   -1    0    0  503  502  0.00000000000E+00  0.00000000000E+00  0.11200303705E+03  0.11200303705E+03  0.00000000000E+00 0. -1.
         21   -1    0    0  501  503 -0.00000000000E+00 -0.00000000000E+00 -0.71594339790E+03  0.71594339790E+03  0.00000000000E+00 0. -1.
          6    1    1    2  501    0 -0.88740749846E+02 -0.11192769031E+03 -0.55457090136E+03  0.59823123721E+03  0.17300000000E+03 0. -1.
         -6    1    1    2    0  502  0.88740749846E+02  0.11192769031E+03 -0.49369459497E+02  0.22971519774E+03  0.17300000000E+03 0. -1.
<mgrwt>
<rscale>  2 0.22434734E+03</rscale>
<asrwt>0</asrwt>
<pdfrwt beam="1">  1       21 0.17231236E-01 0.22434734E+03</pdfrwt>
<pdfrwt beam="2">  1       21 0.11014514E+00 0.22434734E+03</pdfrwt>
<totfact> 0.19432916E+04</totfact>
</mgrwt>
</event>
<event>
 4    1  0.4017302E+000  0.2464136E+03  0.7546771E-02  0.1115593E+00
         21   -1    0    0  501  502  0.00000000000E+00  0.00000000000E+00  0.42126817661E+03  0.42126817661E+03  0.00000000000E+00 0.  1.
         21   -1    0    0  502  503 -0.00000000000E+00 -0.00000000000E+00 -0.14486200393E+03  0.14486200393E+03  0.00000000000E+00 0.  1.
          6    1    1    2  501    0  0.14601898525E+03 -0.97309273205E+02  0.11815508796E+03  0.27327689898E+03  0.17300000000E+03 0.  1.
         -6    1    1    2    0  503 -0.14601898525E+03  0.97309273205E+02  0.15825108472E+03  0.29285328156E+03  0.17300000000E+03 0.  1.
<mgrwt>
<rscale>  2 0.24641355E+03</rscale>
<asrwt>0</asrwt>
<pdfrwt beam="1">  1       21 0.64810488E-01 0.24641355E+03</pdfrwt>
<pdfrwt beam="2">  1       21 0.22286462E-01 0.24641355E+03</pdfrwt>
<totfact> 0.40275450E+04</totfact>
</mgrwt>
</event>
<event>
 4    1  0.4017302E+000  0.1999232E+03  0.7546771E-02  0.1149804E+00
         21   -1    0    0  503  502  0.00000000000E+00  0.00000000000E+00  0.13917452045E+03  0.13917452045E+03  0.00000000000E+00 0. -1.
         21   -1    0    0  501  503 -0.00000000000E+00 -0.00000000000E+00 -0.37019393770E+03  0.37019393770E+03  0.00000000000E+00 0. -1.
          6    1    1    2  501    0 -0.43685631479E+02  0.90176808108E+02 -0.23610802633E+03  0.30938049585E+03  0.17300000000E+03 0. -1.
         -6    1    1    2    0  502  0.43685631479E+02 -0.90176808108E+02  0.50886090766E+01  0.19998796229E+03  0.17300000000E+03 0. -1.
<mgrwt>
<rscale>  2 0.19992321E+03</rscale>
<asrwt>0</asrwt>
<pdfrwt beam="1">  1       21 0.21411465E-01 0.19992321E+03</pdfrwt>
<pdfrwt beam="2">  1       21 0.56952912E-01 0.19992321E+03</pdfrwt>
<totfact> 0.58640972E+04</totfact>
</mgrwt>
</event>
<event>
 4    1  0.4017302E+000  0.2203104E+03  0.7546771E-02  0.1133652E+00
         21   -1    0    0  503  502  0.00000000000E+00  0.00000000000E+00  0.53898268959E+03  0.53898268959E+03  0.00000000000E+00 0.  1.
         21   -1    0    0  501  503 -0.00000000000E+00 -0.00000000000E+00 -0.93260942774E+02  0.93260942774E+02  0.00000000000E+00 0.  1.
          6    1    1    2  501    0 -0.32699735064E+02 -0.13243264779E+03  0.16422556376E+03  0.27478485160E+03  0.17300000000E+03 0.  1.
         -6    1    1    2    0  502  0.32699735064E+02  0.13243264779E+03  0.28149618305E+03  0.35745878077E+03  0.17300000000E+03 0.  1.
<mgrwt>
<rscale>  2 0.22031041E+03</rscale>
<asrwt>0</asrwt>
<pdfrwt beam="1">  1       21 0.82920412E-01 0.22031041E+03</pdfrwt>
<pdfrwt beam="2">  1       21 0.14347838E-01 0.22031041E+03</pdfrwt>
<totfact> 0.53214138E+04</totfact>
</mgrwt>
</event>
<event>
 4    1  0.4017302E+000  0.2718205E+03  0.7546771E-02  0.1100242E+00
         21   -1    0    0  503  502  0.00000000000E+00  0.00000000000E+00  0.51885393582E+03  0.51885393582E+03  0.00000000000E+00 0.  1.
         21   -1    0    0  501  503 -0.00000000000E+00 -0.00000000000E+00 -0.29585507514E+03  0.29585507514E+03  0.00000000000E+00 0. -1.
          6    1    1    2  501    0  0.20228200887E+03  0.55130370914E+02 -0.18187304334E+03  0.32705377662E+03  0.17300000000E+03 0. -1.
         -6    1    1    2    0  502 -0.20228200887E+03 -0.55130370914E+02  0.40487190402E+03  0.48765523434E+03  0.17300000000E+03 0.  1.
<mgrwt>
<rscale>  2 0.27182047E+03</rscale>
<asrwt>0</asrwt>
<pdfrwt beam="1">  1       21 0.79823682E-01 0.27182047E+03</pdfrwt>
<pdfrwt beam="2">  1       21 0.45516165E-01 0.27182047E+03</pdfrwt>
<totfact> 0.60764431E+03</totfact>
</mgrwt>
</event>
<event>
 4    1  0.4017302E+000  0.2023463E+03  0.7546771E-02  0.1147774E+00
         21   -1    0    0  501  502  0.00000000000E+00  0.00000000000E+00  0.82388413970E+02  0.82388413970E+02  0.00000000000E+00 0. -1.
         21   -1    0    0  502  503 -0.00000000000E+00 -0.00000000000E+00 -0.61814007057E+03  0.61814007057E+03  0.00000000000E+00 0. -1.
          6    1    1    2  501    0 -0.90871758636E+02  0.52510535054E+02 -0.11279371105E+03  0.23166021251E+03  0.17300000000E+03 0. -1.
         -6    1    1    2    0  503  0.90871758636E+02 -0.52510535054E+02 -0.42295794555E+03  0.46886827203E+03  0.17300000000E+03 0. -1.
<mgrwt>
<rscale>  2 0.20234632E+03</rscale>
<asrwt>0</asrwt>
<pdfrwt beam="1">  1       21 0.12675141E-01 0.20234632E+03</pdfrwt>
<pdfrwt beam="2">  1       21 0.95098471E-01 0.20234632E+03</pdfrwt>
<totfact> 0.48916395E+04</totfact>
</mgrwt>
</event>
<event>
 4    1  0.4017302E+000  0.2343060E+03  0.7546771E-02  0.1123645E+00
         21   -1    0    0  501  502  0.00000000000E+00  0.00000000000E+00  0.26637638584E+03  0.26637638584E+03  0.00000000000E+00 0. -1.
         21   -1    0    0  502  503 -0.00000000000E+00 -0.00000000000E+00 -0.39034833966E+03  0.39034833966E+03  0.00000000000E+00 0. -1.
          6    1    1    2  501    0  0.13762213192E+03  0.77655983830E+02  0.16361077625E+03  0.28577576721E+03  0.17300000000E+03 0. -1.
         -6    1    1    2    0  503 -0.13762213192E+03 -0.77655983830E+02 -0.28758273007E+03  0.37094895828E+03  0.17300000000E+03 0. -1.
<mgrwt>
<rscale>  2 0.23430600E+03</rscale>
<asrwt>0</asrwt>
<pdfrwt beam="1">  1       21 0.40980983E-01 0.23430600E+03</pdfrwt>
<pdfrwt beam="2">  1       21 0.60053591E-01 0.23430600E+03</pdfrwt>
<totfact> 0.14464677E+04</totfact>
</mgrwt>
</event>
<event>
 4    1  0.4017302E+000  0.3430282E+03  0.7546771E-02  0.1065513E+00
         21   -1    0    0  503  502  0.00000000000E+00  0.00000000000E+00  0.64310774145E+03  0.64310774145E+03  0.00000000000E+00 0. -1.
         21   -1    0    0  501  503 -0.00000000000E+00 -0.00000000000E+00 -0.18364064727E+03  0.18364064727E+03  0.00000000000E+00 0.  1.
          6    1    1    2  501    0 -0.18133156424E+03  0.23421831628E+03  0.25474522755E+03  0.42727448652E+03  0.17300000000E+03 0. -1.
         -6    1    1    2    0  502  0.18133156424E+03 -0.23421831628E+03  0.20472186663E+03  0.39947390221E+03  0.17300000000E+03 0.  1.
<mgrwt>
<rscale>  2 0.34302821E+03</rscale>
<asrwt>0</asrwt>
<pdfrwt beam="1">  1       21 0.98939651E-01 0.34302821E+03</pdfrwt>
<pdfrwt beam="2">  1       21 0.28252408E-01 0.34302821E+03</pdfrwt>
<totfact> 0.92959272E+03</totfact>
</mgrwt>
</event>
<event>
 4    1  0.4017302E+000  0.1886453E+03  0.7546771E-02  0.1159689E+00
         21   -1    0    0  503  502  0.00000000000E+00  0.00000000000E+00  0.40675640097E+03  0.40675640097E+03  0.00000000000E+00 0.  1.
         21   -1    0    0  501  503 -0.00000000000E+00 -0.00000000000E+00 -0.87929732763E+02  0.87929732763E+02  0.00000000000E+00 0.  1.
          6    1    1    2  501    0 -0.64580674277E+02 -0.38566611089E+02  0.14191841664E+03  0.23606754110E+03  0.17300000000E+03 0. -1.
         -6    1    1    2    0  502  0.64580674277E+02  0.38566611089E+02  0.17690825157E+03  0.25861859263E+03  0.17300000000E+03 0. -1.
<mgrwt>
<rscale>  2 0.18864529E+03</rscale>
<asrwt>0</asrwt>
<pdfrwt beam="1">  1       21 0.62577907E-01 0.18864529E+03</pdfrwt>
<pdfrwt beam="2">  1       21 0.13527651E-01 0.18864529E+03</pdfrwt>
<totfact> 0.11213658E+05</totfact>
</mgrwt>
</event>
<event>
 4    1  0.4017302E+000  0.2640902E+03  0.7546771E-02  0.1104710E+00
         21   -1    0    0  503  502  0.00000000000E+00  0.00000000000E+00  0.10105992570E+04  0.10105992570E+04  0.00000000000E+00 0. -1.
         21   -1    0    0  501  503 -0.00000000000E+00 -0.00000000000E+00 -0.69808113681E+02  0.69808113681E+02  0.00000000000E+00 0. -1.
          6    1    1    2  501    0  0.18874272715E+03 -0.64736403973E+02  0.52807932373E+03  0.59043322332E+03  0.17300000000E+03 0. -1.
         -6    1    1    2    0  502 -0.18874272715E+03  0.64736403973E+02  0.41271181960E+03  0.48997414737E+03  0.17300000000E+03 0. -1.
<mgrwt>
<rscale>  2 0.26409017E+03</rscale>
<asrwt>0</asrwt>
<pdfrwt beam="1">  1       21 0.15547680E+00 0.26409017E+03</pdfrwt>
<pdfrwt beam="2">  1       21 0.10739710E-01 0.26409017E+03</pdfrwt>
<totfact> 0.18614406E+04</totfact>
</mgrwt>
</event>
<event>
 4    1  0.4017302E+000  0.3820475E+03  0.7546771E-02  0.1050180E+00
         21   -1    0    0  501  502  0.00000000000E+00  0.00000000000E+00  0.40344797982E+03  0.40344797982E+03  0.00000000000E+00 0. -1.
         21   -1    0    0  502  503 -0.00000000000E+00 -0.00000000000E+00 -0.75619991048E+03  0.75619991048E+03  0.00000000000E+00 0. -1.
          6    1    1    2  501    0  0.13591092895E+03  0.31234513320E+03  0.24237525652E+03  0.45244450247E+03  0.17300000000E+03 0. -1.
         -6    1    1    2    0  503 -0.13591092895E+03 -0.31234513320E+03 -0.59512718718E+03  0.70720338783E+03  0.17300000000E+03 0. -1.
<mgrwt>
<rscale>  2 0.38204746E+03</rscale>
<asrwt>0</asrwt>
<pdfrwt beam="1">  1       21 0.62068920E-01 0.38204746E+03</pdfrwt>
<pdfrwt beam="2">  1       21 0.11633845E+00 0.38204746E+03</pdfrwt>
<totfact> 0.12053047E+03</totfact>
</mgrwt>
</event>
<event>
 4    1  0.4017302E+000  0.1818310E+03  0.7546771E-02  0.1166043E+00
         21   -1    0    0  501  502  0.00000000000E+00  0.00000000000E+00  0.13117302695E+04  0.13117302695E+04  0.00000000000E+00 0.  1.
         21   -1    0    0  502  503 -0.00000000000E+00 -0.00000000000E+00 -0.25499614457E+02  0.25499614457E+02  0.00000000000E+00 0.  1.
          6    1    1    2  501    0 -0.18068838219E+02 -0.52981392687E+02  0.71495094995E+03  0.73771089982E+03  0.17300000000E+03 0.  1.
         -6    1    1    2    0  503  0.18068838219E+02  0.52981392687E+02  0.57127970513E+03  0.59951898417E+03  0.17300000000E+03 0.  1.
<mgrwt>
<rscale>  2 0.18183100E+03</rscale>
<asrwt>0</asrwt>
<pdfrwt beam="1">  1       21 0.20180460E+00 0.18183100E+03</pdfrwt>
<pdfrwt beam="2">  1       21 0.39230186E-02 0.18183100E+03</pdfrwt>
<totfact> 0.53303837E+04</totfact>
</mgrwt>
</event>
<event>
 4    1  0.4017302E+000  0.1786992E+03  0.7546771E-02  0.1169068E+00
         21   -1    0    0  501  502  0.00000000000E+00  0.00000000000E+00  0.11989185271E+03  0.11989185271E+03  0.00000000000E+00 0.  1.
         21   -1    0    0  502  503 -0.00000000000E+00 -0.00000000000E+00 -0.33242577902E+03  0.33242577902E+03  0.00000000000E+00 0.  1.
          6    1    1    2  501    0  0.43951702879E+02 -0.85245361065E+01 -0.54389627818E+01  0.17878199635E+03  0.17300000000E+03 0.  1.
         -6    1    1    2    0  503 -0.43951702879E+02  0.85245361065E+01 -0.20709496353E+03  0.27353563538E+03  0.17300000000E+03 0.  1.
<mgrwt>
<rscale>  2 0.17869924E+03</rscale>
<asrwt>0</asrwt>
<pdfrwt beam="1">  1       21 0.18444900E-01 0.17869924E+03</pdfrwt>
<pdfrwt beam="2">  1       21 0.51142428E-01 0.17869924E+03</pdfrwt>
<totfact> 0.98062803E+04</totfact>
</mgrwt>
</event>
<event>
 4    1  0.4017302E+000  0.1942115E+03  0.7546771E-02  0.1154717E+00
         21   -1    0    0  503  502  0.00000000000E+00  0.00000000000E+00  0.11372938607E+04  0.11372938607E+04  0.00000000000E+00 0.  1.
         21   -1    0    0  501  503 -0.00000000000E+00 -0.00000000000E+00 -0.33586391118E+02  0.33586391118E+02  0.00000000000E+00 0.  1.
          6    1    1    2  501    0 -0.75833275409E+02 -0.45148817325E+02  0.48626087986E+03  0.52361029845E+03  0.17300000000E+03 0.  1.
         -6    1    1    2    0  502  0.75833275409E+02  0.45148817325E+02  0.61744658969E+03  0.64726995333E+03  0.17300000000E+03 0.  1.
<mgrwt>
<rscale>  2 0.19421149E+03</rscale>
<asrwt>0</asrwt>
<pdfrwt beam="1">  1       21 0.17496826E+00 0.19421149E+03</pdfrwt>
<pdfrwt beam="2">  1       21 0.51671380E-02 0.19421149E+03</pdfrwt>
<totfact> 0.50075241E+04</totfact>
</mgrwt>
</event>
<event>
 4    1  0.4017302E+000  0.2123533E+03  0.7546771E-02  0.1139716E+00
         21   -1    0    0  501  502  0.00000000000E+00  0.00000000000E+00  0.62445198353E+03  0.62445198353E+03  0.00000000000E+00 0. -1.
         21   -1    0    0  502  503 -0.00000000000E+00 -0.00000000000E+00 -0.10129350413E+03  0.10129350413E+03  0.00000000000E+00 0. -1.
          6    1    1    2  501    0  0.12054177091E+03  0.25191795626E+02  0.45600768563E+03  0.50302778696E+03  0.17300000000E+03 0. -1.
         -6    1    1    2    0  503 -0.12054177091E+03 -0.25191795626E+02  0.67150793777E+02  0.22271770070E+03  0.17300000000E+03 0. -1.
<mgrwt>
<rscale>  2 0.21235335E+03</rscale>
<asrwt>0</asrwt>
<pdfrwt beam="1">  1       21 0.96069534E-01 0.21235335E+03</pdfrwt>
<pdfrwt beam="2">  1       21 0.15583616E-01 0.21235335E+03</pdfrwt>
<totfact> 0.32660502E+04</totfact>
</mgrwt>
</event>
<event>
 4    1  0.4017302E+000  0.2839074E+03  0.7546771E-02  0.1093574E+00
         21   -1    0    0  501  502  0.00000000000E+00  0.00000000000E+00  0.13435128521E+04  0.13435128521E+04  0.00000000000E+00 0.  1.
         21   -1    0    0  502  503 -0.00000000000E+00 -0.00000000000E+00 -0.79659358446E+03  0.79659358446E+03  0.00000000000E+00 0. -1.
          6    1    1    2  501    0  0.14437339402E+02  0.22464638077E+03  0.13024292511E+04  0.13330136486E+04  0.17300000000E+03 0.  1.
         -6    1    1    2    0  503 -0.14437339402E+02 -0.22464638077E+03 -0.75550998351E+03  0.80709278794E+03  0.17300000000E+03 0. -1.
<mgrwt>
<rscale>  2 0.28390744E+03</rscale>
<asrwt>0</asrwt>
<pdfrwt beam="1">  1       21 0.20669428E+00 0.28390744E+03</pdfrwt>
<pdfrwt beam="2">  1       21 0.12255286E+00 0.28390744E+03</pdfrwt>
<totfact> 0.54337721E+01</totfact>
</mgrwt>
</event>
<event>
 4    1  0.4017302E+000  0.2518252E+03  0.7546771E-02  0.1112157E+00
         21   -1    0    0  503  502  0.00000000000E+00  0.00000000000E+00  0.32204641366E+03  0.32204641366E+03  0.00000000000E+00 0.  1.
         21   -1    0    0  501  503 -0.00000000000E+00 -0.00000000000E+00 -0.26485676073E+03  0.26485676073E+03  0.00000000000E+00 0. -1.
          6    1    1    2  501    0  0.15080663571E+03  0.10365470100E+03 -0.12003215381E+03  0.27896891648E+03  0.17300000000E+03 0. -1.
         -6    1    1    2    0  502 -0.15080663571E+03 -0.10365470100E+03  0.17722180674E+03  0.30793425792E+03  0.17300000000E+03 0.  1.
<mgrwt>
<rscale>  2 0.25182521E+03</rscale>
<asrwt>0</asrwt>
<pdfrwt beam="1">  1       21 0.49545602E-01 0.25182521E+03</pdfrwt>
<pdfrwt beam="2">  1       21 0.40747194E-01 0.25182521E+03</pdfrwt>
<totfact> 0.21833672E+04</totfact>
</mgrwt>
</event>
<event>
 4    1  0.4017302E+000  0.2419477E+03  0.7546771E-02  0.1118502E+00
         21   -1    0    0  501  502  0.00000000000E+00  0.00000000000E+00  0.90021377999E+03  0.90021377999E+03  0.00000000000E+00 0. -1.
         21   -1    0    0  502  503 -0.00000000000E+00 -0.00000000000E+00 -0.18040778913E+03  0.18040778913E+03  0.00000000000E+00 0.  1.
          6    1    1    2  501    0 -0.13612614491E+03 -0.10039606317E+03  0.79200045284E+03  0.82813248585E+03  0.17300000000E+03 0. -1.
         -6    1    1    2    0  503  0.13612614491E+03  0.10039606317E+03 -0.72194461980E+02  0.25248908327E+03  0.17300000000E+03 0.  1.
<mgrwt>
<rscale>  2 0.24194772E+03</rscale>
<asrwt>0</asrwt>
<pdfrwt beam="1">  1       21 0.13849443E+00 0.24194772E+03</pdfrwt>
<pdfrwt beam="2">  1       21 0.27755045E-01 0.24194772E+03</pdfrwt>
<totfact> 0.43894035E+03</totfact>
</mgrwt>
</event>
<event>
 4    1  0.4017302E+000  0.1927721E+03  0.7546771E-02  0.1155985E+00
         21   -1    0    0  503  502  0.00000000000E+00  0.00000000000E+00  0.36403785931E+02  0.36403785931E+02  0.00000000000E+00 0. -1.
         21   -1    0    0  501  503 -0.00000000000E+00 -0.00000000000E+00 -0.10525291588E+04  0.10525291588E+04  0.00000000000E+00 0.  1.
          6    1    1    2  501    0  0.20633614304E+02 -0.82500407741E+02 -0.60259244927E+03  0.63267584373E+03  0.17300000000E+03 0. -1.
         -6    1    1    2    0  502 -0.20633614304E+02  0.82500407741E+02 -0.41353292360E+03  0.45625710100E+03  0.17300000000E+03 0. -1.
<mgrwt>
<rscale>  2 0.19277205E+03</rscale>
<asrwt>0</asrwt>
<pdfrwt beam="1">  1       21 0.56005830E-02 0.19277205E+03</pdfrwt>
<pdfrwt beam="2">  1       21 0.16192755E+00 0.19277205E+03</pdfrwt>
<totfact> 0.54048095E+04</totfact>
</mgrwt>
</event>
<event>
 4    1  0.4017302E+000  0.2109437E+03  0.7546771E-02  0.1140821E+00
         21   -1    0    0  503  502  0.00000000000E+00  0.00000000000E+00  0.71215135687E+02  0.71215135687E+02  0.00000000000E+00 0.  1.
         21   -1    0    0  501  503 -0.00000000000E+00 -0.00000000000E+00 -0.90755179325E+03  0.90755179325E+03  0.00000000000E+00 0. -1.
          6    1    1    2  501    0 -0.12058786628E+03 -0.51770401138E+01 -0.69131411018E+03  0.72278104165E+03  0.17300000000E+03 0. -1.
         -6    1    1    2    0  502  0.12058786628E+03  0.51770401138E+01 -0.14502254738E+03  0.25598588728E+03  0.17300000000E+03 0.  1.
<mgrwt>
<rscale>  2 0.21094368E+03</rscale>
<asrwt>0</asrwt>
<pdfrwt beam="1">  1       21 0.10956176E-01 0.21094368E+03</pdfrwt>
<pdfrwt beam="2">  1       21 0.13962334E+00 0.21094368E+03</pdfrwt>
<totfact> 0.24586552E+04</totfact>
</mgrwt>
</event>
<event>
 4    1  0.4017302E+000  0.2725992E+03  0.7546771E-02  0.1099801E+00
         21   -1    0    0  503  502  0.00000000000E+00  0.00000000000E+00  0.46332654712E+03  0.46332654712E+03  0.00000000000E+00 0. -1.
         21   -1    0    0  501  503 -0.00000000000E+00 -0.00000000000E+00 -0.21892246242E+03  0.21892246242E+03  0.00000000000E+00 0.  1.
          6    1    1    2  501    0 -0.18701754515E+03  0.96983199881E+02 -0.54193377361E+02  0.27793385077E+03  0.17300000000E+03 0. -1.
         -6    1    1    2    0  502  0.18701754515E+03 -0.96983199881E+02  0.29859746206E+03  0.40431515876E+03  0.17300000000E+03 0. -1.
<mgrwt>
<rscale>  2 0.27259916E+03</rscale>
<asrwt>0</asrwt>
<pdfrwt beam="1">  1       21 0.71281007E-01 0.27259916E+03</pdfrwt>
<pdfrwt beam="2">  1       21 0.33680379E-01 0.27259916E+03</pdfrwt>
<totfact> 0.14457509E+04</totfact>
</mgrwt>
</event>
<event>
 4    1  0.4017302E+000  0.1797394E+03  0.7546771E-02  0.1168055E+00
         21   -1    0    0  503  502  0.00000000000E+00  0.00000000000E+00  0.16515209588E+03  0.16515209588E+03  0.00000000000E+00 0.  1.
         21   -1    0    0  501  503 -0.00000000000E+00 -0.00000000000E+00 -0.33650655345E+03  0.33650655345E+03  0.00000000000E+00 0.  1.
          6    1    1    2  501    0  0.14886216608E+02  0.46429186138E+02 -0.24797914105E+03  0.30626773119E+03  0.17300000000E+03 0.  1.
         -6    1    1    2    0  502 -0.14886216608E+02 -0.46429186138E+02  0.76624683483E+02  0.19539091813E+03  0.17300000000E+03 0.  1.
<mgrwt>
<rscale>  2 0.17973945E+03</rscale>
<asrwt>0</asrwt>
<pdfrwt beam="1">  1       21 0.25408015E-01 0.17973945E+03</pdfrwt>
<pdfrwt beam="2">  1       21 0.51770239E-01 0.17973945E+03</pdfrwt>
<totfact> 0.52345933E+04</totfact>
</mgrwt>
</event>
<event>
 4    1  0.4017302E+000  0.2066023E+03  0.7546771E-02  0.1144285E+00
         21   -1    0    0  501  502  0.00000000000E+00  0.00000000000E+00  0.48625601818E+03  0.48625601818E+03  0.00000000000E+00 0.  1.
         21   -1    0    0  502  503 -0.00000000000E+00 -0.00000000000E+00 -0.87786698938E+02  0.87786698938E+02  0.00000000000E+00 0. -1.
          6    1    1    2  501    0 -0.88163928792E+02  0.70587788639E+02  0.19712945689E+03  0.28556004101E+03  0.17300000000E+03 0.  1.
         -6    1    1    2    0  503  0.88163928792E+02 -0.70587788639E+02  0.20133986234E+03  0.28848267611E+03  0.17300000000E+03 0.  1.
<mgrwt>
<rscale>  2 0.20660231E+03</rscale>
<asrwt>0</asrwt>
<pdfrwt beam="1">  1       21 0.74808617E-01 0.20660231E+03</pdfrwt>
<pdfrwt beam="2">  1       21 0.13505646E-01 0.20660231E+03</pdfrwt>
<totfact> 0.75403183E+04</totfact>
</mgrwt>
</event>
<event>
 4    1  0.4017302E+000  0.1848192E+03  0.7546771E-02  0.1163219E+00
         21   -1    0    0  503  502  0.00000000000E+00  0.00000000000E+00  0.51917748895E+03  0.51917748895E+03  0.00000000000E+00 0. -1.
         21   -1    0    0  501  503 -0.00000000000E+00 -0.00000000000E+00 -0.13491755740E+03  0.13491755740E+03  0.00000000000E+00 0. -1.
          6    1    1    2  501    0  0.23241262026E+02  0.60737053589E+02 -0.41965718805E+02  0.18952379137E+03  0.17300000000E+03 0. -1.
         -6    1    1    2    0  502 -0.23241262026E+02 -0.60737053589E+02  0.42622565035E+03  0.46457125498E+03  0.17300000000E+03 0. -1.
<mgrwt>
<rscale>  2 0.18481923E+03</rscale>
<asrwt>0</asrwt>
<pdfrwt beam="1">  1       21 0.79873459E-01 0.18481923E+03</pdfrwt>
<pdfrwt beam="2">  1       21 0.20756548E-01 0.18481923E+03</pdfrwt>
<totfact> 0.29850677E+04</totfact>
</mgrwt>
</event>
<event>
 4    1  0.4017302E+000  0.1929174E+03  0.7546771E-02  0.1155856E+00
         21   -1    0    0  501  502  0.00000000000E+00  0.00000000000E+00  0.32879318950E+02  0.32879318950E+02  0.00000000000E+00 0.  1.
         21   -1    0    0  502  503 -0.00000000000E+00 -0.00000000000E+00 -0.11354252096E+04  0.11354252096E+04  0.00000000000E+00 0.  1.
          6    1    1    2  501    0 -0.18753417012E+02  0.83285340673E+02 -0.51886982829E+03  0.55357297381E+03  0.17300000000E+03 0.  1.
         -6    1    1    2    0  503  0.18753417012E+02 -0.83285340673E+02 -0.58367606231E+03  0.61473155470E+03  0.17300000000E+03 0.  1.
<mgrwt>
<rscale>  2 0.19291744E+03</rscale>
<asrwt>0</asrwt>
<pdfrwt beam="1">  1       21 0.50583569E-02 0.19291744E+03</pdfrwt>
<pdfrwt beam="2">  1       21 0.17468080E+00 0.19291744E+03</pdfrwt>
<totfact> 0.52197251E+04</totfact>
</mgrwt>
</event>
<event>
 4    1  0.4017302E+000  0.2179398E+03  0.7546771E-02  0.1135428E+00
         21   -1    0    0  501  502  0.00000000000E+00  0.00000000000E+00  0.10220627275E+04  0.10220627275E+04  0.00000000000E+00 0.  1.
         21   -1    0    0  502  503 -0.00000000000E+00 -0.00000000000E+00 -0.49912042398E+02  0.49912042398E+02  0.00000000000E+00 0.  1.
          6    1    1    2  501    0  0.12526585246E+03  0.43326684768E+02  0.62677947254E+03  0.66358891085E+03  0.17300000000E+03 0.  1.
         -6    1    1    2    0  503 -0.12526585246E+03 -0.43326684768E+02  0.34537121256E+03  0.40838585905E+03  0.17300000000E+03 0.  1.
<mgrwt>
<rscale>  2 0.21793975E+03</rscale>
<asrwt>0</asrwt>
<pdfrwt beam="1">  1       21 0.15724040E+00 0.21793975E+03</pdfrwt>
<pdfrwt beam="2">  1       21 0.76787765E-02 0.21793975E+03</pdfrwt>
<totfact> 0.33469378E+04</totfact>
</mgrwt>
</event>
<event>
 4    1  0.4017302E+000  0.1755458E+03  0.7546771E-02  0.1172185E+00
         21   -1    0    0  503  502  0.00000000000E+00  0.00000000000E+00  0.46817618332E+03  0.46817618332E+03  0.00000000000E+00 0.  1.
         21   -1    0    0  501  503 -0.00000000000E+00 -0.00000000000E+00 -0.74251207669E+02  0.74251207669E+02  0.00000000000E+00 0.  1.
          6    1    1    2  501    0  0.27382134033E+02 -0.11728111321E+02  0.10558248025E+03  0.20485114106E+03  0.17300000000E+03 0.  1.
         -6    1    1    2    0  502 -0.27382134033E+02  0.11728111321E+02  0.28834249540E+03  0.33757624993E+03  0.17300000000E+03 0.  1.
<mgrwt>
<rscale>  2 0.17554581E+03</rscale>
<asrwt>0</asrwt>
<pdfrwt beam="1">  1       21 0.72027104E-01 0.17554581E+03</pdfrwt>
<pdfrwt beam="2">  1       21 0.11423263E-01 0.17554581E+03</pdfrwt>
<totfact> 0.11219155E+05</totfact>
</mgrwt>
</event>
<event>
 4    1  0.4017302E+000  0.2246018E+03  0.7546771E-02  0.1130498E+00
         21   -1    0    0  501  502  0.00000000000E+00  0.00000000000E+00  0.33096189609E+03  0.33096189609E+03  0.00000000000E+00 0. -1.
         21   -1    0    0  502  503 -0.00000000000E+00 -0.00000000000E+00 -0.19128638696E+03  0.19128638696E+03  0.00000000000E+00 0. -1.
          6    1    1    2  501    0 -0.14051704522E+03  0.27783715249E+02  0.18753849741E+03  0.29260325159E+03  0.17300000000E+03 0. -1.
         -6    1    1    2    0  503  0.14051704522E+03 -0.27783715249E+02 -0.47862988276E+02  0.22964503147E+03  0.17300000000E+03 0. -1.
<mgrwt>
<rscale>  2 0.22460181E+03</rscale>
<asrwt>0</asrwt>
<pdfrwt beam="1">  1       21 0.50917215E-01 0.22460181E+03</pdfrwt>
<pdfrwt beam="2">  1       21 0.29428675E-01 0.22460181E+03</pdfrwt>
<totfact> 0.39945414E+04</totfact>
</mgrwt>
</event>
<event>
 4    1  0.4017302E+000  0.1778821E+03  0.7546771E-02  0.1169869E+00
         21   -1    0    0  503  502  0.00000000000E+00  0.00000000000E+00  0.22558212527E+04  0.22558212527E+04  0.00000000000E+00 0.  1.
         21   -1    0    0  501  503 -0.00000000000E+00 -0.00000000000E+00 -0.20367857495E+02  0.20367857495E+02  0.00000000000E+00 0.  1.
          6    1    1    2  501    0  0.17137242014E+02  0.37674215241E+02  0.17527436699E+04  0.17617469750E+04  0.17300000000E+03 0.  1.
         -6    1    1    2    0  502 -0.17137242014E+02 -0.37674215241E+02  0.48270972532E+03  0.51444213520E+03  0.17300000000E+03 0.  1.
<mgrwt>
<rscale>  2 0.17788207E+03</rscale>
<asrwt>0</asrwt>
<pdfrwt beam="1">  1       21 0.34704923E+00 0.17788207E+03</pdfrwt>
<pdfrwt beam="2">  1       21 0.31335183E-02 0.17788207E+03</pdfrwt>
<totfact> 0.10911313E+04</totfact>
</mgrwt>
</event>
<event>
 4    1  0.4017302E+000  0.1758710E+03  0.7546771E-02  0.1171860E+00
         21   -1    0    0  501  502  0.00000000000E+00  0.00000000000E+00  0.35174288804E+02  0.35174288804E+02  0.00000000000E+00 0. -1.
         21   -1    0    0  502  503 -0.00000000000E+00 -0.00000000000E+00 -0.18106491269E+04  0.18106491269E+04  0.00000000000E+00 0. -1.
          6    1    1    2  501    0  0.31017356289E+02  0.62885445372E+01 -0.22584582511E+03  0.28624632557E+03  0.17300000000E+03 0. -1.
         -6    1    1    2    0  503 -0.31017356289E+02 -0.62885445372E+01 -0.15496290130E+04  0.15595770901E+04  0.17300000000E+03 0. -1.
<mgrwt>
<rscale>  2 0.17587104E+03</rscale>
<asrwt>0</asrwt>
<pdfrwt beam="1">  1       21 0.54114268E-02 0.17587104E+03</pdfrwt>
<pdfrwt beam="2">  1       21 0.27856152E+00 0.17587104E+03</pdfrwt>
<totfact> 0.10858105E+04</totfact>
</mgrwt>
</event>
<event>
 4    1  0.4017302E+000  0.1887289E+03  0.7546771E-02  0.1159613E+00
         21   -1    0    0  503  502  0.00000000000E+00  0.00000000000E+00  0.27906482068E+03  0.27906482068E+03  0.00000000000E+00 0. -1.
         21   -1    0    0  501  503 -0.00000000000E+00 -0.00000000000E+00 -0.22212727924E+03  0.22212727924E+03  0.00000000000E+00 0. -1.
          6    1    1    2  501    0  0.74639607341E+02 -0.10886444728E+02 -0.13497569586E+03  0.23202806756E+03  0.17300000000E+03 0. -1.
         -6    1    1    2    0  502 -0.74639607341E+02  0.10886444728E+02  0.19191323730E+03  0.26916403236E+03  0.17300000000E+03 0. -1.
<mgrwt>
<rscale>  2 0.18872887E+03</rscale>
<asrwt>0</asrwt>
<pdfrwt beam="1">  1       21 0.42933049E-01 0.18872887E+03</pdfrwt>
<pdfrwt beam="2">  1       21 0.34173428E-01 0.18872887E+03</pdfrwt>
<totfact> 0.43132257E+04</totfact>
</mgrwt>
</event>
<event>
 4    1  0.4017302E+000  0.1827654E+03  0.7546771E-02  0.1165153E+00
         21   -1    0    0  503  502  0.00000000000E+00  0.00000000000E+00  0.44944276422E+03  0.44944276422E+03  0.00000000000E+00 0. -1.
         21   -1    0    0  501  503 -0.00000000000E+00 -0.00000000000E+00 -0.77740890797E+02  0.77740890797E+02  0.00000000000E+00 0. -1.
          6    1    1    2  501    0  0.40385702058E+02  0.42932145682E+02  0.13056766299E+03  0.22461319793E+03  0.17300000000E+03 0. -1.
         -6    1    1    2    0  502 -0.40385702058E+02 -0.42932145682E+02  0.24113421043E+03  0.30257045709E+03  0.17300000000E+03 0. -1.
<mgrwt>
<rscale>  2 0.18276535E+03</rscale>
<asrwt>0</asrwt>
<pdfrwt beam="1">  1       21 0.69145039E-01 0.18276535E+03</pdfrwt>
<pdfrwt beam="2">  1       21 0.11960137E-01 0.18276535E+03</pdfrwt>
<totfact> 0.11279503E+05</totfact>
</mgrwt>
</event>
<event>
 4    1  0.4017302E+000  0.1764994E+03  0.7546771E-02  0.1171235E+00
         21   -1    0    0  503  502  0.00000000000E+00  0.00000000000E+00  0.63794877540E+02  0.63794877540E+02  0.00000000000E+00 0. -1.
         21   -1    0    0  501  503 -0.00000000000E+00 -0.00000000000E+00 -0.63695447296E+03  0.63695447296E+03  0.00000000000E+00 0. -1.
          6    1    1    2  501    0  0.33216437380E+02 -0.10941137004E+02 -0.45583599146E+03  0.48881335017E+03  0.17300000000E+03 0. -1.
         -6    1    1    2    0  502 -0.33216437380E+02  0.10941137004E+02 -0.11732360396E+03  0.21193600033E+03  0.17300000000E+03 0. -1.
<mgrwt>
<rscale>  2 0.17649941E+03</rscale>
<asrwt>0</asrwt>
<pdfrwt beam="1">  1       21 0.98145961E-02 0.17649941E+03</pdfrwt>
<pdfrwt beam="2">  1       21 0.97993000E-01 0.17649941E+03</pdfrwt>
<totfact> 0.72763802E+04</totfact>
</mgrwt>
</event>
<event>
 4    1  0.4017302E+000  0.1798657E+03  0.7546771E-02  0.1167933E+00
         21   -1    0    0  503  502  0.00000000000E+00  0.00000000000E+00  0.26180611030E+02  0.26180611030E+02  0.00000000000E+00 0.  1.
         21   -1    0    0  501  503 -0.00000000000E+00 -0.00000000000E+00 -0.14927878620E+04  0.14927878620E+04  0.00000000000E+00 0.  1.
          6    1    1    2  501    0  0.32100941495E+01 -0.49116012048E+02 -0.10484777979E+04  0.10637938616E+04  0.17300000000E+03 0.  1.
         -6    1    1    2    0  502 -0.32100941495E+01  0.49116012048E+02 -0.41812945310E+03  0.45517461144E+03  0.17300000000E+03 0.  1.
<mgrwt>
<rscale>  2 0.17986575E+03</rscale>
<asrwt>0</asrwt>
<pdfrwt beam="1">  1       21 0.40277851E-02 0.17986575E+03</pdfrwt>
<pdfrwt beam="2">  1       21 0.22965974E+00 0.17986575E+03</pdfrwt>
<totfact> 0.34374187E+04</totfact>
</mgrwt>
</event>
<event>
 4    1  0.4017302E+000  0.1872103E+03  0.7546771E-02  0.1161002E+00
         21   -1    0    0  501  502  0.00000000000E+00  0.00000000000E+00  0.72854298649E+02  0.72854298649E+02  0.00000000000E+00 0.  1.
         21   -1    0    0  502  503 -0.00000000000E+00 -0.00000000000E+00 -0.48118540692E+03  0.48118540692E+03  0.00000000000E+00 0.  1.
          6    1    1    2  501    0  0.68434523990E+02  0.20866123189E+02 -0.19978996993E+03  0.27379501686E+03  0.17300000000E+03 0.  1.
         -6    1    1    2    0  503 -0.68434523990E+02 -0.20866123189E+02 -0.20854113834E+03  0.28024468871E+03  0.17300000000E+03 0.  1.
<mgrwt>
<rscale>  2 0.18721025E+03</rscale>
<asrwt>0</asrwt>
<pdfrwt beam="1">  1       21 0.11208354E-01 0.18721025E+03</pdfrwt>
<pdfrwt beam="2">  1       21 0.74028525E-01 0.18721025E+03</pdfrwt>
<totfact> 0.10871779E+05</totfact>
</mgrwt>
</event>
<event>
 4    1  0.4017302E+000  0.1971687E+03  0.7546771E-02  0.1152150E+00
         21   -1    0    0  501  502  0.00000000000E+00  0.00000000000E+00  0.51942844846E+03  0.51942844846E+03  0.00000000000E+00 0.  1.
         21   -1    0    0  502  503 -0.00000000000E+00 -0.00000000000E+00 -0.11863356780E+03  0.11863356780E+03  0.00000000000E+00 0. -1.
          6    1    1    2  501    0  0.16168716634E+02  0.93193733794E+02  0.39422708075E+03  0.44078395004E+03  0.17300000000E+03 0.  1.
         -6    1    1    2    0  503 -0.16168716634E+02 -0.93193733794E+02  0.65677999136E+01  0.19727806622E+03  0.17300000000E+03 0. -1.
<mgrwt>
<rscale>  2 0.19716871E+03</rscale>
<asrwt>0</asrwt>
<pdfrwt beam="1">  1       21 0.79912068E-01 0.19716871E+03</pdfrwt>
<pdfrwt beam="2">  1       21 0.18251318E-01 0.19716871E+03</pdfrwt>
<totfact> 0.37639487E+04</totfact>
</mgrwt>
</event>
<event>
 4    1  0.4017302E+000  0.2179970E+03  0.7546771E-02  0.1135385E+00
         21   -1    0    0  501  502  0.00000000000E+00  0.00000000000E+00  0.10466199890E+04  0.10466199890E+04  0.00000000000E+00 0.  1.
         21   -1    0    0  502  503 -0.00000000000E+00 -0.00000000000E+00 -0.45415381877E+02  0.45415381877E+02  0.00000000000E+00 0. -1.
          6    1    1    2  501    0  0.10206188131E+03 -0.84717585610E+02  0.50850203880E+03  0.55326035497E+03  0.17300000000E+03 0.  1.
         -6    1    1    2    0  503 -0.10206188131E+03  0.84717585610E+02  0.49270256835E+03  0.53877501593E+03  0.17300000000E+03 0.  1.
<mgrwt>
<rscale>  2 0.21799701E+03</rscale>
<asrwt>0</asrwt>
<pdfrwt beam="1">  1       21 0.16101844E+00 0.21799701E+03</pdfrwt>
<pdfrwt beam="2">  1       21 0.69869826E-02 0.21799701E+03</pdfrwt>
<totfact> 0.36977075E+04</totfact>
</mgrwt>
</event>
<event>
 4    1  0.4017302E+000  0.1788540E+03  0.7546771E-02  0.1168917E+00
         21   -1    0    0  503  502  0.00000000000E+00  0.00000000000E+00  0.29178690808E+02  0.29178690808E+02  0.00000000000E+00 0.  1.
         21   -1    0    0  501  503 -0.00000000000E+00 -0.00000000000E+00 -0.11008357659E+04  0.11008357659E+04  0.00000000000E+00 0.  1.
          6    1    1    2  501    0  0.43194040313E+02  0.13929203213E+02 -0.57207564060E+03  0.59938242082E+03  0.17300000000E+03 0.  1.
         -6    1    1    2    0  502 -0.43194040313E+02 -0.13929203213E+02 -0.49958143451E+03  0.53063203590E+03  0.17300000000E+03 0.  1.
<mgrwt>
<rscale>  2 0.17885398E+03</rscale>
<asrwt>0</asrwt>
<pdfrwt beam="1">  1       21 0.44890301E-02 0.17885398E+03</pdfrwt>
<pdfrwt beam="2">  1       21 0.16935932E+00 0.17885398E+03</pdfrwt>
<totfact> 0.70128503E+04</totfact>
</mgrwt>
</event>
<event>
 4    1  0.4017302E+000  0.1731702E+03  0.7546771E-02  0.1174582E+00
         21   -1    0    0  503  502  0.00000000000E+00  0.00000000000E+00  0.13620807147E+04  0.13620807147E+04  0.00000000000E+00 0. -1.
         21   -1    0    0  501  503 -0.00000000000E+00 -0.00000000000E+00 -0.25519240219E+02  0.25519240219E+02  0.00000000000E+00 0. -1.
          6    1    1    2  501    0 -0.76371288492E+01  0.77310566008E+00  0.92533170384E+03  0.94139613636E+03  0.17300000000E+03 0. -1.
         -6    1    1    2    0  502  0.76371288492E+01 -0.77310566008E+00  0.41122977062E+03  0.44620381853E+03  0.17300000000E+03 0. -1.
<mgrwt>
<rscale>  2 0.17317022E+03</rscale>
<asrwt>0</asrwt>
<pdfrwt beam="1">  1       21 0.20955082E+00 0.17317022E+03</pdfrwt>
<pdfrwt beam="2">  1       21 0.39260380E-02 0.17317022E+03</pdfrwt>
<totfact> 0.47865610E+04</totfact>
</mgrwt>
</event>
<event>
 4    1  0.4017302E+000  0.1733451E+03  0.7546771E-02  0.1174404E+00
         21   -1    0    0  503  502  0.00000000000E+00  0.00000000000E+00  0.52899477567E+03  0.52899477567E+03  0.00000000000E+00 0. -1.
         21   -1    0    0  501  503 -0.00000000000E+00 -0.00000000000E+00 -0.57499514297E+02  0.57499514297E+02  0.00000000000E+00 0. -1.
          6    1    1    2  501    0  0.20449374422E+01  0.10739479339E+02  0.26802144184E+03  0.31919274972E+03  0.17300000000E+03 0. -1.
         -6    1    1    2    0  502 -0.20449374422E+01 -0.10739479339E+02  0.20347381954E+03  0.26730154025E+03  0.17300000000E+03 0. -1.
<mgrwt>
<rscale>  2 0.17334508E+03</rscale>
<asrwt>0</asrwt>
<pdfrwt beam="1">  1       21 0.81383809E-01 0.17334508E+03</pdfrwt>
<pdfrwt beam="2">  1       21 0.88460795E-02 0.17334508E+03</pdfrwt>
<totfact> 0.13413497E+05</totfact>
</mgrwt>
</event>
<event>
 4    1  0.4017302E+000  0.4185221E+03  0.7546771E-02  0.1037548E+00
         21   -1    0    0  503  502  0.00000000000E+00  0.00000000000E+00  0.31499711578E+03  0.31499711578E+03  0.00000000000E+00 0. -1.
         21   -1    0    0  501  503 -0.00000000000E+00 -0.00000000000E+00 -0.64972168481E+03  0.64972168481E+03  0.00000000000E+00 0.  1.
          6    1    1    2  501    0 -0.33210623917E+03 -0.18691489353E+03 -0.35049366222E+03  0.54589975158E+03  0.17300000000E+03 0.  1.
         -6    1    1    2    0  502  0.33210623917E+03  0.18691489353E+03  0.15769093187E+02  0.41881904901E+03  0.17300000000E+03 0. -1.
<mgrwt>
<rscale>  2 0.41852208E+03</rscale>
<asrwt>0</asrwt>
<pdfrwt beam="1">  1       21 0.48461095E-01 0.41852208E+03</pdfrwt>
<pdfrwt beam="2">  1       21 0.99957182E-01 0.41852208E+03</pdfrwt>
<totfact> 0.29379687E+03</totfact>
</mgrwt>
</event>
<event>
 4    1  0.4017302E+000  0.1988914E+03  0.7546771E-02  0.1150678E+00
         21   -1    0    0  503  502  0.00000000000E+00  0.00000000000E+00  0.27202523700E+03  0.27202523700E+03  0.00000000000E+00 0.  1.
         21   -1    0    0  501  503 -0.00000000000E+00 -0.00000000000E+00 -0.26392639376E+03  0.26392639376E+03  0.00000000000E+00 0.  1.
          6    1    1    2  501    0  0.95652929960E+02 -0.21892749901E+02 -0.17551735474E+03  0.26526235564E+03  0.17300000000E+03 0.  1.
         -6    1    1    2    0  502 -0.95652929960E+02  0.21892749901E+02  0.18361619797E+03  0.27068927512E+03  0.17300000000E+03 0.  1.
<mgrwt>
<rscale>  2 0.19889137E+03</rscale>
<asrwt>0</asrwt>
<pdfrwt beam="1">  1       21 0.41850036E-01 0.19889137E+03</pdfrwt>
<pdfrwt beam="2">  1       21 0.40604061E-01 0.19889137E+03</pdfrwt>
<totfact> 0.32008582E+04</totfact>
</mgrwt>
</event>
<event>
 4    1  0.4017302E+000  0.1983016E+03  0.7546771E-02  0.1151180E+00
         21   -1    0    0  503  502  0.00000000000E+00  0.00000000000E+00  0.47241522748E+02  0.47241522748E+02  0.00000000000E+00 0. -1.
         21   -1    0    0  501  503 -0.00000000000E+00 -0.00000000000E+00 -0.10499816332E+04  0.10499816332E+04  0.00000000000E+00 0.  1.
          6    1    1    2  501    0  0.77298823403E+02 -0.58475878286E+02 -0.75111213337E+03  0.77684810184E+03  0.17300000000E+03 0. -1.
         -6    1    1    2    0  502 -0.77298823403E+02  0.58475878286E+02 -0.25162797706E+03  0.32037505409E+03  0.17300000000E+03 0. -1.
<mgrwt>
<rscale>  2 0.19830163E+03</rscale>
<asrwt>0</asrwt>
<pdfrwt beam="1">  1       21 0.72679267E-02 0.19830163E+03</pdfrwt>
<pdfrwt beam="2">  1       21 0.16153563E+00 0.19830163E+03</pdfrwt>
<totfact> 0.34646608E+04</totfact>
</mgrwt>
</event>
<event>
 4    1  0.4017302E+000  0.2400743E+03  0.7546771E-02  0.1119743E+00
         21   -1    0    0  501  502  0.00000000000E+00  0.00000000000E+00  0.38380777883E+03  0.38380777883E+03  0.00000000000E+00 0. -1.
         21   -1    0    0  502  503 -0.00000000000E+00 -0.00000000000E+00 -0.17727308411E+03  0.17727308411E+03  0.00000000000E+00 0. -1.
          6    1    1    2  501    0  0.15183625814E+03  0.68208495659E+02  0.21296552323E+03  0.32092049210E+03  0.17300000000E+03 0. -1.
         -6    1    1    2    0  503 -0.15183625814E+03 -0.68208495659E+02 -0.64308285169E+01  0.24016037084E+03  0.17300000000E+03 0. -1.
<mgrwt>
<rscale>  2 0.24007426E+03</rscale>
<asrwt>0</asrwt>
<pdfrwt beam="1">  1       21 0.59047350E-01 0.24007426E+03</pdfrwt>
<pdfrwt beam="2">  1       21 0.27272782E-01 0.24007426E+03</pdfrwt>
<totfact> 0.33569131E+04</totfact>
</mgrwt>
</event>
<event>
 4    1  0.4017302E+000  0.1949907E+03  0.7546771E-02  0.1154035E+00
         21   -1    0    0  501  502  0.00000000000E+00  0.00000000000E+00  0.84604070440E+03  0.84604070440E+03  0.00000000000E+00 0.  1.
         21   -1    0    0  502  503 -0.00000000000E+00 -0.00000000000E+00 -0.45078443670E+02  0.45078443670E+02  0.00000000000E+00 0.  1.
          6    1    1    2  501    0 -0.19888744374E+02 -0.87731532728E+02  0.42514002490E+03  0.46772366282E+03  0.17300000000E+03 0.  1.
         -6    1    1    2    0  503  0.19888744374E+02  0.87731532728E+02  0.37582223583E+03  0.42339548525E+03  0.17300000000E+03 0.  1.
<mgrwt>
<rscale>  2 0.19499073E+03</rscale>
<asrwt>0</asrwt>
<pdfrwt beam="1">  1       21 0.13016010E+00 0.19499073E+03</pdfrwt>
<pdfrwt beam="2">  1       21 0.69351458E-02 0.19499073E+03</pdfrwt>
<totfact> 0.66161479E+04</totfact>
</mgrwt>
</event>
<event>
 4    1  0.4017302E+000  0.1925791E+03  0.7546771E-02  0.1156155E+00
         21   -1    0    0  503  502  0.00000000000E+00  0.00000000000E+00  0.14939420262E+04  0.14939420262E+04  0.00000000000E+00 0.  1.
         21   -1    0    0  501  503 -0.00000000000E+00 -0.00000000000E+00 -0.24826762364E+02  0.24826762364E+02  0.00000000000E+00 0.  1.
          6    1    1    2  501    0  0.80219134787E+02 -0.26881457536E+02  0.72770380130E+03  0.75275463782E+03  0.17300000000E+03 0.  1.
         -6    1    1    2    0  502 -0.80219134787E+02  0.26881457536E+02  0.74141146249E+03  0.76601415069E+03  0.17300000000E+03 0.  1.
<mgrwt>
<rscale>  2 0.19257913E+03</rscale>
<asrwt>0</asrwt>
<pdfrwt beam="1">  1       21 0.22983716E+00 0.19257913E+03</pdfrwt>
<pdfrwt beam="2">  1       21 0.38195031E-02 0.19257913E+03</pdfrwt>
<totfact> 0.37110687E+04</totfact>
</mgrwt>
</event>
<event>
 4    1  0.4017302E+000  0.2285119E+03  0.7546771E-02  0.1127692E+00
         21   -1    0    0  503  502  0.00000000000E+00  0.00000000000E+00  0.35565480371E+03  0.35565480371E+03  0.00000000000E+00 0.  1.
         21   -1    0    0  501  503 -0.00000000000E+00 -0.00000000000E+00 -0.15626370371E+03  0.15626370371E+03  0.00000000000E+00 0. -1.
          6    1    1    2  501    0 -0.63450472972E+02  0.13513970717E+03  0.16261470905E+03  0.28046612375E+03  0.17300000000E+03 0.  1.
         -6    1    1    2    0  502  0.63450472972E+02 -0.13513970717E+03  0.36776390954E+02  0.23145238367E+03  0.17300000000E+03 0. -1.
<mgrwt>
<rscale>  2 0.22851193E+03</rscale>
<asrwt>0</asrwt>
<pdfrwt beam="1">  1       21 0.54716123E-01 0.22851193E+03</pdfrwt>
<pdfrwt beam="2">  1       21 0.24040570E-01 0.22851193E+03</pdfrwt>
<totfact> 0.50610431E+04</totfact>
</mgrwt>
</event>
<event>
 4    1  0.4017302E+000  0.1801554E+03  0.7546771E-02  0.1167653E+00
         21   -1    0    0  501  502  0.00000000000E+00  0.00000000000E+00  0.70154497982E+02  0.70154497982E+02  0.00000000000E+00 0. -1.
         21   -1    0    0  502  503 -0.00000000000E+00 -0.00000000000E+00 -0.46390559440E+03  0.46390559440E+03  0.00000000000E+00 0. -1.
          6    1    1    2  501    0 -0.47718804760E+02 -0.15807314320E+02 -0.18290294558E+03  0.25672834478E+03  0.17300000000E+03 0.  1.
         -6    1    1    2    0  503  0.47718804760E+02  0.15807314320E+02 -0.21084815084E+03  0.27733174760E+03  0.17300000000E+03 0.  1.
<mgrwt>
<rscale>  2 0.18015536E+03</rscale>
<asrwt>0</asrwt>
<pdfrwt beam="1">  1       21 0.10792999E-01 0.18015536E+03</pdfrwt>
<pdfrwt beam="2">  1       21 0.71370093E-01 0.18015536E+03</pdfrwt>
<totfact> 0.12640640E+05</totfact>
</mgrwt>
</event>
<event>
 4    1  0.4017302E+000  0.2901599E+03  0.7546771E-02  0.1090266E+00
         21   -1    0    0  501  502  0.00000000000E+00  0.00000000000E+00  0.35087142555E+03  0.35087142555E+03  0.00000000000E+00 0. -1.
         21   -1    0    0  502  503 -0.00000000000E+00 -0.00000000000E+00 -0.34378959104E+03  0.34378959104E+03  0.00000000000E+00 0.  1.
          6    1    1    2  501    0 -0.70099311850E+02 -0.22214821706E+03  0.19442566512E+03  0.34927651384E+03  0.17300000000E+03 0. -1.
         -6    1    1    2    0  503  0.70099311850E+02  0.22214821706E+03 -0.18734383061E+03  0.34538450274E+03  0.17300000000E+03 0.  1.
<mgrwt>
<rscale>  2 0.29015986E+03</rscale>
<asrwt>0</asrwt>
<pdfrwt beam="1">  1       21 0.53980220E-01 0.29015986E+03</pdfrwt>
<pdfrwt beam="2">  1       21 0.52890706E-01 0.29015986E+03</pdfrwt>
<totfact> 0.10398801E+04</totfact>
</mgrwt>
</event>
<event>
 4    1  0.4017302E+000  0.2501662E+03  0.7546771E-02  0.1113200E+00
         21   -1    0    0  501  502  0.00000000000E+00  0.00000000000E+00  0.96660672085E+03  0.96660672085E+03  0.00000000000E+00 0.  1.
         21   -1    0    0  502  503 -0.00000000000E+00 -0.00000000000E+00 -0.99138172814E+02  0.99138172814E+02  0.00000000000E+00 0.  1.
          6    1    1    2  501    0  0.11740993380E+02 -0.18032263915E+03  0.74759569122E+03  0.78834156470E+03  0.17300000000E+03 0.  1.
         -6    1    1    2    0  503 -0.11740993380E+02  0.18032263915E+03  0.11987285682E+03  0.27740332896E+03  0.17300000000E+03 0.  1.
<mgrwt>
<rscale>  2 0.25016616E+03</rscale>
<asrwt>0</asrwt>
<pdfrwt beam="1">  1       21 0.14870872E+00 0.25016616E+03</pdfrwt>
<pdfrwt beam="2">  1       21 0.15252027E-01 0.25016616E+03</pdfrwt>
<totfact> 0.11196553E+04</totfact>
</mgrwt>
</event>
<event>
 4    1  0.4017302E+000  0.1742044E+03  0.7546771E-02  0.1173533E+00
         21   -1    0    0  501  502  0.00000000000E+00  0.00000000000E+00  0.60766352856E+02  0.60766352856E+02  0.00000000000E+00 0.  1.
         21   -1    0    0  502  503 -0.00000000000E+00 -0.00000000000E+00 -0.75859247120E+03  0.75859247120E+03  0.00000000000E+00 0.  1.
          6    1    1    2  501    0  0.13966532252E+02  0.14937001057E+02 -0.10944659310E+03  0.20573219186E+03  0.17300000000E+03 0.  1.
         -6    1    1    2    0  503 -0.13966532252E+02 -0.14937001057E+02 -0.58837952524E+03  0.61362663220E+03  0.17300000000E+03 0.  1.
<mgrwt>
<rscale>  2 0.17420441E+03</rscale>
<asrwt>0</asrwt>
<pdfrwt beam="1">  1       21 0.93486697E-02 0.17420441E+03</pdfrwt>
<pdfrwt beam="2">  1       21 0.11670653E+00 0.17420441E+03</pdfrwt>
<totfact> 0.52171653E+04</totfact>
</mgrwt>
</event>
<event>
 4    1  0.4017302E+000  0.1992358E+03  0.7546771E-02  0.1150385E+00
         21   -1    0    0  503  502  0.00000000000E+00  0.00000000000E+00  0.42198005811E+02  0.42198005811E+02  0.00000000000E+00 0. -1.
         21   -1    0    0  501  503 -0.00000000000E+00 -0.00000000000E+00 -0.10588943365E+04  0.10588943365E+04  0.00000000000E+00 0. -1.
          6    1    1    2  501    0 -0.94265964964E+02 -0.29662216641E+02 -0.32439884280E+03  0.38069611037E+03  0.17300000000E+03 0. -1.
         -6    1    1    2    0  502  0.94265964964E+02  0.29662216641E+02 -0.69229748789E+03  0.72039623194E+03  0.17300000000E+03 0. -1.
<mgrwt>
<rscale>  2 0.19923584E+03</rscale>
<asrwt>0</asrwt>
<pdfrwt beam="1">  1       21 0.64920011E-02 0.19923584E+03</pdfrwt>
<pdfrwt beam="2">  1       21 0.16290681E+00 0.19923584E+03</pdfrwt>
<totfact> 0.41124929E+04</totfact>
</mgrwt>
</event>
<event>
 4    1  0.4017302E+000  0.1792531E+03  0.7546771E-02  0.1168528E+00
         21   -1    0    0  501  502  0.00000000000E+00  0.00000000000E+00  0.64152104108E+03  0.64152104108E+03  0.00000000000E+00 0. -1.
         21   -1    0    0  502  503 -0.00000000000E+00 -0.00000000000E+00 -0.69405670964E+02  0.69405670964E+02  0.00000000000E+00 0. -1.
          6    1    1    2  501    0  0.16302369123E+02 -0.44010135385E+02  0.47359581249E+03  0.50638389870E+03  0.17300000000E+03 0. -1.
         -6    1    1    2    0  503 -0.16302369123E+02  0.44010135385E+02  0.98519557627E+02  0.20454281334E+03  0.17300000000E+03 0. -1.
<mgrwt>
<rscale>  2 0.17925306E+03</rscale>
<asrwt>0</asrwt>
<pdfrwt beam="1">  1       21 0.98695540E-01 0.17925306E+03</pdfrwt>
<pdfrwt beam="2">  1       21 0.10677796E-01 0.17925306E+03</pdfrwt>
<totfact> 0.61573453E+04</totfact>
</mgrwt>
</event>
<event>
 4    1  0.4017302E+000  0.2035669E+03  0.7546771E-02  0.1146764E+00
         21   -1    0    0  501  502  0.00000000000E+00  0.00000000000E+00  0.10831278162E+03  0.10831278162E+03  0.00000000000E+00 0.  1.
         21   -1    0    0  502  503 -0.00000000000E+00 -0.00000000000E+00 -0.39451081545E+03  0.39451081545E+03  0.00000000000E+00 0.  1.
          6    1    1    2  501    0 -0.83595060987E+02  0.67248279035E+02 -0.18680048627E+03  0.27628587898E+03  0.17300000000E+03 0.  1.
         -6    1    1    2    0  503  0.83595060987E+02 -0.67248279035E+02 -0.99397547565E+02  0.22653771809E+03  0.17300000000E+03 0.  1.
<mgrwt>
<rscale>  2 0.20356686E+03</rscale>
<asrwt>0</asrwt>
<pdfrwt beam="1">  1       21 0.16663505E-01 0.20356686E+03</pdfrwt>
<pdfrwt beam="2">  1       21 0.60693972E-01 0.20356686E+03</pdfrwt>
<totfact> 0.81430402E+04</totfact>
</mgrwt>
</event>
<event>
 4    1  0.4017302E+000  0.1825966E+03  0.7546771E-02  0.1165313E+00
         21   -1    0    0  501  502  0.00000000000E+00  0.00000000000E+00  0.27462331327E+03  0.27462331327E+03  0.00000000000E+00 0. -1.
         21   -1    0    0  502  503 -0.00000000000E+00 -0.00000000000E+00 -0.15247259349E+03  0.15247259349E+03  0.00000000000E+00 0. -1.
          6    1    1    2  501    0  0.29229814386E+02 -0.50578079869E+02 -0.35314401781E+02  0.18598019030E+03  0.17300000000E+03 0. -1.
         -6    1    1    2    0  503 -0.29229814386E+02  0.50578079869E+02  0.15746512156E+03  0.24111571645E+03  0.17300000000E+03 0. -1.
<mgrwt>
<rscale>  2 0.18259662E+03</rscale>
<asrwt>0</asrwt>
<pdfrwt beam="1">  1       21 0.42249740E-01 0.18259662E+03</pdfrwt>
<pdfrwt beam="2">  1       21 0.23457322E-01 0.18259662E+03</pdfrwt>
<totfact> 0.92532714E+04</totfact>
</mgrwt>
</event>
<event>
 4    1  0.4017302E+000  0.1775746E+03  0.7546771E-02  0.1170171E+00
         21   -1    0    0  503  502  0.00000000000E+00  0.00000000000E+00  0.80233664483E+02  0.80233664483E+02  0.00000000000E+00 0.  1.
         21   -1    0    0  501  503 -0.00000000000E+00 -0.00000000000E+00 -0.62217651229E+03  0.62217651229E+03  0.00000000000E+00 0.  1.
          6    1    1    2  501    0  0.38150652698E+02  0.12175843256E+02 -0.48411806669E+03  0.51565785745E+03  0.17300000000E+03 0.  1.
         -6    1    1    2    0  502 -0.38150652698E+02 -0.12175843256E+02 -0.57824781122E+02  0.18675231932E+03  0.17300000000E+03 0.  1.
<mgrwt>
<rscale>  2 0.17757456E+03</rscale>
<asrwt>0</asrwt>
<pdfrwt beam="1">  1       21 0.12343641E-01 0.17757456E+03</pdfrwt>
<pdfrwt beam="2">  1       21 0.95719461E-01 0.17757456E+03</pdfrwt>
<totfact> 0.51154514E+04</totfact>
</mgrwt>
</event>
<event>
 4    1  0.4017302E+000  0.2027874E+03  0.7546771E-02  0.1147408E+00
         21   -1    0    0  501  502  0.00000000000E+00  0.00000000000E+00  0.86735228173E+02  0.86735228173E+02  0.00000000000E+00 0.  1.
         21   -1    0    0  502  503 -0.00000000000E+00 -0.00000000000E+00 -0.12440551494E+04  0.12440551494E+04  0.00000000000E+00 0.  1.
          6    1    1    2  501    0  0.96301406623E+02  0.43815381772E+02 -0.55195229396E+02  0.21016484469E+03  0.17300000000E+03 0.  1.
         -6    1    1    2    0  503 -0.96301406623E+02 -0.43815381772E+02 -0.11021246919E+04  0.11206255329E+04  0.17300000000E+03 0.  1.
<mgrwt>
<rscale>  2 0.20278745E+03</rscale>
<asrwt>0</asrwt>
<pdfrwt beam="1">  1       21 0.13343882E-01 0.20278745E+03</pdfrwt>
<pdfrwt beam="2">  1       21 0.19139309E+00 0.20278745E+03</pdfrwt>
<totfact> 0.73418103E+03</totfact>
</mgrwt>
</event>
<event>
 4    1  0.4017302E+000  0.2265697E+03  0.7546771E-02  0.1129078E+00
         21   -1    0    0  503  502  0.00000000000E+00  0.00000000000E+00  0.23956760623E+03  0.23956760623E+03  0.00000000000E+00 0. -1.
         21   -1    0    0  501  503 -0.00000000000E+00 -0.00000000000E+00 -0.25544696510E+03  0.25544696510E+03  0.00000000000E+00 0.  1.
          6    1    1    2  501    0  0.10492583698E+02  0.14592720453E+03 -0.10730332678E+03  0.25069472924E+03  0.17300000000E+03 0.  1.
         -6    1    1    2    0  502 -0.10492583698E+02 -0.14592720453E+03  0.91423967908E+02  0.24431984210E+03  0.17300000000E+03 0. -1.
<mgrwt>
<rscale>  2 0.22656973E+03</rscale>
<asrwt>0</asrwt>
<pdfrwt beam="1">  1       21 0.36856555E-01 0.22656973E+03</pdfrwt>
<pdfrwt beam="2">  1       21 0.39299533E-01 0.22656973E+03</pdfrwt>
<totfact> 0.43598527E+04</totfact>
</mgrwt>
</event>
<event>
 4    1  0.4017302E+000  0.1740154E+03  0.7546771E-02  0.1173724E+00
         21   -1    0    0  501  502  0.00000000000E+00  0.00000000000E+00  0.24001410829E+03  0.24001410829E+03  0.00000000000E+00 0. -1.
         21   -1    0    0  502  503 -0.00000000000E+00 -0.00000000000E+00 -0.21817488749E+03  0.21817488749E+03  0.00000000000E+00 0. -1.
          6    1    1    2  501    0 -0.13395258329E+01 -0.18723241491E+02  0.15969455007E+03  0.23618573925E+03  0.17300000000E+03 0. -1.
         -6    1    1    2    0  503  0.13395258329E+01  0.18723241491E+02 -0.13785532928E+03  0.22200325653E+03  0.17300000000E+03 0. -1.
<mgrwt>
<rscale>  2 0.17401538E+03</rscale>
<asrwt>0</asrwt>
<pdfrwt beam="1">  1       21 0.36925248E-01 0.17401538E+03</pdfrwt>
<pdfrwt beam="2">  1       21 0.33565367E-01 0.17401538E+03</pdfrwt>
<totfact> 0.60979559E+04</totfact>
</mgrwt>
</event>
<event>
 4    1  0.4017302E+000  0.1763330E+03  0.7546771E-02  0.1171400E+00
         21   -1    0    0  503  502  0.00000000000E+00  0.00000000000E+00  0.39788740296E+03  0.39788740296E+03  0.00000000000E+00 0. -1.
         21   -1    0    0  501  503 -0.00000000000E+00 -0.00000000000E+00 -0.98848033893E+02  0.98848033893E+02  0.00000000000E+00 0. -1.
          6    1    1    2  501    0 -0.28711780893E+02  0.18438375057E+02  0.35857285259E+02  0.17994189324E+03  0.17300000000E+03 0. -1.
         -6    1    1    2    0  502  0.28711780893E+02 -0.18438375057E+02  0.26318208381E+03  0.31679354361E+03  0.17300000000E+03 0. -1.
<mgrwt>
<rscale>  2 0.17633304E+03</rscale>
<asrwt>0</asrwt>
<pdfrwt beam="1">  1       21 0.61213446E-01 0.17633304E+03</pdfrwt>
<pdfrwt beam="2">  1       21 0.15207390E-01 0.17633304E+03</pdfrwt>
<totfact> 0.95567880E+04</totfact>
</mgrwt>
</event>
<event>
 4    1  0.4017302E+000  0.1904833E+03  0.7546771E-02  0.1158026E+00
         21   -1    0    0  503  502  0.00000000000E+00  0.00000000000E+00  0.56769545161E+02  0.56769545161E+02  0.00000000000E+00 0. -1.
         21   -1    0    0  501  503 -0.00000000000E+00 -0.00000000000E+00 -0.73441228658E+03  0.73441228658E+03  0.00000000000E+00 0. -1.
          6    1    1    2  501    0 -0.30748029321E+02 -0.73548917304E+02 -0.48130065011E+03  0.51762360876E+03  0.17300000000E+03 0.  1.
         -6    1    1    2    0  502  0.30748029321E+02  0.73548917304E+02 -0.19634209131E+03  0.27355822299E+03  0.17300000000E+03 0.  1.
<mgrwt>
<rscale>  2 0.19048329E+03</rscale>
<asrwt>0</asrwt>
<pdfrwt beam="1">  1       21 0.87337770E-02 0.19048329E+03</pdfrwt>
<pdfrwt beam="2">  1       21 0.11298650E+00 0.19048329E+03</pdfrwt>
<totfact> 0.63080410E+04</totfact>
</mgrwt>
</event>
<event>
 4    1  0.4017302E+000  0.2605634E+03  0.7546771E-02  0.1106805E+00
         21   -1    0    0  503  502  0.00000000000E+00  0.00000000000E+00  0.13334066465E+04  0.13334066465E+04  0.00000000000E+00 0.  1.
         21   -1    0    0  501  503 -0.00000000000E+00 -0.00000000000E+00 -0.57698661892E+02  0.57698661892E+02  0.00000000000E+00 0. -1.
          6    1    1    2  501    0  0.16717957752E+03 -0.10007642362E+03  0.39939727912E+03  0.47687680618E+03  0.17300000000E+03 0. -1.
         -6    1    1    2    0  502 -0.16717957752E+03  0.10007642362E+03  0.87631070553E+03  0.91422850225E+03  0.17300000000E+03 0.  1.
<mgrwt>
<rscale>  2 0.26056343E+03</rscale>
<asrwt>0</asrwt>
<pdfrwt beam="1">  1       21 0.20513946E+00 0.26056343E+03</pdfrwt>
<pdfrwt beam="2">  1       21 0.88767183E-02 0.26056343E+03</pdfrwt>
<totfact> 0.11856872E+04</totfact>
</mgrwt>
</event>
<event>
 4    1  0.4017302E+000  0.2498233E+03  0.7546771E-02  0.1113417E+00
         21   -1    0    0  501  502  0.00000000000E+00  0.00000000000E+00  0.51310402365E+03  0.51310402365E+03  0.00000000000E+00 0. -1.
         21   -1    0    0  502  503 -0.00000000000E+00 -0.00000000000E+00 -0.16585384835E+03  0.16585384835E+03  0.00000000000E+00 0.  1.
          6    1    1    2  501    0 -0.95057028114E+02  0.15312369922E+03  0.34891257595E+03  0.42912899170E+03  0.17300000000E+03 0. -1.
         -6    1    1    2    0  503  0.95057028114E+02 -0.15312369922E+03 -0.16624006524E+01  0.24982888030E+03  0.17300000000E+03 0.  1.
<mgrwt>
<rscale>  2 0.24982335E+03</rscale>
<asrwt>0</asrwt>
<pdfrwt beam="1">  1       21 0.78939080E-01 0.24982335E+03</pdfrwt>
<pdfrwt beam="2">  1       21 0.25515977E-01 0.24982335E+03</pdfrwt>
<totfact> 0.20005657E+04</totfact>
</mgrwt>
</event>
<event>
 4    1  0.4017302E+000  0.1734397E+03  0.7546771E-02  0.1174308E+00
         21   -1    0    0  501  502  0.00000000000E+00  0.00000000000E+00  0.29242400279E+02  0.29242400279E+02  0.00000000000E+00 0. -1.
         21   -1    0    0  502  503 -0.00000000000E+00 -0.00000000000E+00 -0.12401047400E+04  0.12401047400E+04  0.00000000000E+00 0. -1.
          6    1    1    2  501    0  0.12055624668E+02  0.26432553055E+01 -0.34337749087E+03  0.38469393824E+03  0.17300000000E+03 0. -1.
         -6    1    1    2    0  503 -0.12055624668E+02 -0.26432553055E+01 -0.86748484880E+03  0.88465320199E+03  0.17300000000E+03 0. -1.
<mgrwt>
<rscale>  2 0.17343969E+03</rscale>
<asrwt>0</asrwt>
<pdfrwt beam="1">  1       21 0.44988313E-02 0.17343969E+03</pdfrwt>
<pdfrwt beam="2">  1       21 0.19078533E+00 0.17343969E+03</pdfrwt>
<totfact> 0.50185379E+04</totfact>
</mgrwt>
</event>
<event>
 4    1  0.4017302E+000  0.2945310E+03  0.7546771E-02  0.1088007E+00
         21   -1    0    0  503  502  0.00000000000E+00  0.00000000000E+00  0.38649511487E+03  0.38649511487E+03  0.00000000000E+00 0. -1.
         21   -1    0    0  501  503 -0.00000000000E+00 -0.00000000000E+00 -0.22886532973E+03  0.22886532973E+03  0.00000000000E+00 0.  1.
          6    1    1    2  501    0  0.15472385145E+03 -0.18132852003E+03  0.12155470831E+03  0.31862838777E+03  0.17300000000E+03 0. -1.
         -6    1    1    2    0  502 -0.15472385145E+03  0.18132852003E+03  0.36075076834E+02  0.29673205683E+03  0.17300000000E+03 0.  1.
<mgrwt>
<rscale>  2 0.29453099E+03</rscale>
<asrwt>0</asrwt>
<pdfrwt beam="1">  1       21 0.59460787E-01 0.29453099E+03</pdfrwt>
<pdfrwt beam="2">  1       21 0.35210051E-01 0.29453099E+03</pdfrwt>
<totfact> 0.19521412E+04</totfact>
</mgrwt>
</event>
<event>
 4    1  0.4017302E+000  0.1884760E+03  0.7546771E-02  0.1159843E+00
         21   -1    0    0  503  502  0.00000000000E+00  0.00000000000E+00  0.30696634292E+02  0.30696634292E+02  0.00000000000E+00 0.  1.
         21   -1    0    0  501  503 -0.00000000000E+00 -0.00000000000E+00 -0.12133738892E+04  0.12133738892E+04  0.00000000000E+00 0.  1.
          6    1    1    2  501    0 -0.71555948154E+02  0.21769969157E+02 -0.72513794957E+03  0.74923176066E+03  0.17300000000E+03 0. -1.
         -6    1    1    2    0  502  0.71555948154E+02 -0.21769969157E+02 -0.45753930533E+03  0.49483876282E+03  0.17300000000E+03 0. -1.
<mgrwt>
<rscale>  2 0.18847595E+03</rscale>
<asrwt>0</asrwt>
<pdfrwt beam="1">  1       21 0.47225587E-02 0.18847595E+03</pdfrwt>
<pdfrwt beam="2">  1       21 0.18667292E+00 0.18847595E+03</pdfrwt>
<totfact> 0.48743650E+04</totfact>
</mgrwt>
</event>
<event>
 4    1  0.4017302E+000  0.1896293E+03  0.7546771E-02  0.1158796E+00
         21   -1    0    0  503  502  0.00000000000E+00  0.00000000000E+00  0.92938100687E+03  0.92938100687E+03  0.00000000000E+00 0.  1.
         21   -1    0    0  501  503 -0.00000000000E+00 -0.00000000000E+00 -0.54494770079E+02  0.54494770079E+02  0.00000000000E+00 0.  1.
          6    1    1    2  501    0 -0.41562522658E+02  0.65595966304E+02  0.17252940740E+03  0.25637018255E+03  0.17300000000E+03 0.  1.
         -6    1    1    2    0  502  0.41562522658E+02 -0.65595966304E+02  0.70235682939E+03  0.72750559440E+03  0.17300000000E+03 0.  1.
<mgrwt>
<rscale>  2 0.18962931E+03</rscale>
<asrwt>0</asrwt>
<pdfrwt beam="1">  1       21 0.14298168E+00 0.18962931E+03</pdfrwt>
<pdfrwt beam="2">  1       21 0.83838115E-02 0.18962931E+03</pdfrwt>
<totfact> 0.37534969E+04</totfact>
</mgrwt>
</event>
<event>
 4    1  0.4017302E+000  0.2668266E+03  0.7546771E-02  0.1103110E+00
         21   -1    0    0  503  502  0.00000000000E+00  0.00000000000E+00  0.23900879014E+03  0.23900879014E+03  0.00000000000E+00 0.  1.
         21   -1    0    0  501  503 -0.00000000000E+00 -0.00000000000E+00 -0.35624554740E+03  0.35624554740E+03  0.00000000000E+00 0.  1.
          6    1    1    2  501    0  0.61048651989E+02  0.19375371886E+03 -0.17908543573E+03  0.32135344213E+03  0.17300000000E+03 0.  1.
         -6    1    1    2    0  502 -0.61048651989E+02 -0.19375371886E+03  0.61848678469E+02  0.27390089541E+03  0.17300000000E+03 0.  1.
<mgrwt>
<rscale>  2 0.26682661E+03</rscale>
<asrwt>0</asrwt>
<pdfrwt beam="1">  1       21 0.36770583E-01 0.26682661E+03</pdfrwt>
<pdfrwt beam="2">  1       21 0.54807007E-01 0.26682661E+03</pdfrwt>
<totfact> 0.21569435E+04</totfact>
</mgrwt>
</event>
<event>
 4    1  0.4017302E+000  0.1821075E+03  0.7546771E-02  0.1165779E+00
         21   -1    0    0  503  502  0.00000000000E+00  0.00000000000E+00  0.71324910542E+03  0.71324910542E+03  0.00000000000E+00 0. -1.
         21   -1    0    0  501  503 -0.00000000000E+00 -0.00000000000E+00 -0.10379485336E+03  0.10379485336E+03  0.00000000000E+00 0. -1.
          6    1    1    2  501    0 -0.52964448444E+02  0.20710227875E+02  0.11976096637E+01  0.18211145106E+03  0.17300000000E+03 0. -1.
         -6    1    1    2    0  502  0.52964448444E+02 -0.20710227875E+02  0.60825664240E+03  0.63493250772E+03  0.17300000000E+03 0. -1.
<mgrwt>
<rscale>  2 0.18210751E+03</rscale>
<asrwt>0</asrwt>
<pdfrwt beam="1">  1       21 0.10973063E+00 0.18210751E+03</pdfrwt>
<pdfrwt beam="2">  1       21 0.15968439E-01 0.18210751E+03</pdfrwt>
<totfact> 0.23138506E+04</totfact>
</mgrwt>
</event>
<event>
 4    1  0.4017302E+000  0.3033485E+03  0.7546771E-02  0.1083579E+00
         21   -1    0    0  501  502  0.00000000000E+00  0.00000000000E+00  0.38804868684E+03  0.38804868684E+03  0.00000000000E+00 0.  1.
         21   -1    0    0  502  503 -0.00000000000E+00 -0.00000000000E+00 -0.39654838487E+03  0.39654838487E+03  0.00000000000E+00 0. -1.
          6    1    1    2  501    0 -0.14309428159E+03 -0.20399835512E+03 -0.25298070418E+03  0.39499308728E+03  0.17300000000E+03 0. -1.
         -6    1    1    2    0  503  0.14309428159E+03  0.20399835512E+03  0.24448100615E+03  0.38960398443E+03  0.17300000000E+03 0.  1.
<mgrwt>
<rscale>  2 0.30334848E+03</rscale>
<asrwt>0</asrwt>
<pdfrwt beam="1">  1       21 0.59699798E-01 0.30334848E+03</pdfrwt>
<pdfrwt beam="2">  1       21 0.61007444E-01 0.30334848E+03</pdfrwt>
<totfact> 0.61222190E+03</totfact>
</mgrwt>
</event>
<event>
 4    1  0.4017302E+000  0.2257829E+03  0.7546771E-02  0.1129644E+00
         21   -1    0    0  503  502  0.00000000000E+00  0.00000000000E+00  0.41736617863E+03  0.41736617863E+03  0.00000000000E+00 0.  1.
         21   -1    0    0  501  503 -0.00000000000E+00 -0.00000000000E+00 -0.14091776979E+03  0.14091776979E+03  0.00000000000E+00 0.  1.
          6    1    1    2  501    0  0.14409277879E+03  0.16917599814E+02  0.24011648880E+03  0.32959651436E+03  0.17300000000E+03 0.  1.
         -6    1    1    2    0  502 -0.14409277879E+03 -0.16917599814E+02  0.36331920037E+02  0.22868743406E+03  0.17300000000E+03 0.  1.
<mgrwt>
<rscale>  2 0.22578294E+03</rscale>
<asrwt>0</asrwt>
<pdfrwt beam="1">  1       21 0.64210181E-01 0.22578294E+03</pdfrwt>
<pdfrwt beam="2">  1       21 0.21679657E-01 0.22578294E+03</pdfrwt>
<totfact> 0.43702243E+04</totfact>
</mgrwt>
</event>
<event>
 4    1  0.4017302E+000  0.4137412E+03  0.7546771E-02  0.1039123E+00
         21   -1    0    0  503  502  0.00000000000E+00  0.00000000000E+00  0.12558447061E+03  0.12558447061E+03  0.00000000000E+00 0. -1.
         21   -1    0    0  501  503 -0.00000000000E+00 -0.00000000000E+00 -0.13704257085E+04  0.13704257085E+04  0.00000000000E+00 0.  1.
          6    1    1    2  501    0 -0.34838656883E+03  0.14099506085E+03 -0.56766061876E+03  0.70243888462E+03  0.17300000000E+03 0.  1.
         -6    1    1    2    0  502  0.34838656883E+03 -0.14099506085E+03 -0.67718061912E+03  0.79357129449E+03  0.17300000000E+03 0. -1.
<mgrwt>
<rscale>  2 0.41374123E+03</rscale>
<asrwt>0</asrwt>
<pdfrwt beam="1">  1       21 0.19320686E-01 0.41374123E+03</pdfrwt>
<pdfrwt beam="2">  1       21 0.21083475E+00 0.41374123E+03</pdfrwt>
<totfact> 0.24255823E+03</totfact>
</mgrwt>
</event>
<event>
 4    1  0.4017302E+000  0.1775671E+03  0.7546771E-02  0.1170179E+00
         21   -1    0    0  503  502  0.00000000000E+00  0.00000000000E+00  0.17068035498E+04  0.17068035498E+04  0.00000000000E+00 0. -1.
         21   -1    0    0  501  503 -0.00000000000E+00 -0.00000000000E+00 -0.18835282259E+02  0.18835282259E+02  0.00000000000E+00 0.  1.
          6    1    1    2  501    0  0.44301906558E+01  0.39767502525E+02  0.96361751985E+03  0.97984121438E+03  0.17300000000E+03 0. -1.
         -6    1    1    2    0  502 -0.44301906558E+01 -0.39767502525E+02  0.72435074767E+03  0.74579761765E+03  0.17300000000E+03 0.  1.
<mgrwt>
<rscale>  2 0.17756712E+03</rscale>
<asrwt>0</asrwt>
<pdfrwt beam="1">  1       21 0.26258504E+00 0.17756712E+03</pdfrwt>
<pdfrwt beam="2">  1       21 0.28977371E-02 0.17756712E+03</pdfrwt>
<totfact> 0.38101338E+04</totfact>
</mgrwt>
</event>
<event>
 4    1  0.4017302E+000  0.1794601E+03  0.7546771E-02  0.1168327E+00
         21   -1    0    0  503  502  0.00000000000E+00  0.00000000000E+00  0.26642165035E+02  0.26642165035E+02  0.00000000000E+00 0.  1.
         21   -1    0    0  501  503 -0.00000000000E+00 -0.00000000000E+00 -0.13177334323E+04  0.13177334323E+04  0.00000000000E+00 0. -1.
          6    1    1    2  501    0 -0.38225287887E+02 -0.28561645953E+02 -0.83878283947E+03  0.85776604738E+03  0.17300000000E+03 0. -1.
         -6    1    1    2    0  502  0.38225287887E+02  0.28561645953E+02 -0.45230842783E+03  0.48660954999E+03  0.17300000000E+03 0.  1.
<mgrwt>
<rscale>  2 0.17946014E+03</rscale>
<asrwt>0</asrwt>
<pdfrwt beam="1">  1       21 0.40987951E-02 0.17946014E+03</pdfrwt>
<pdfrwt beam="2">  1       21 0.20272820E+00 0.17946014E+03</pdfrwt>
<totfact> 0.48945199E+04</totfact>
</mgrwt>
</event>
<event>
 4    1  0.4017302E+000  0.2964514E+03  0.7546771E-02  0.1087028E+00
         21   -1    0    0  503  502  0.00000000000E+00  0.00000000000E+00  0.77206393786E+03  0.77206393786E+03  0.00000000000E+00 0.  1.
         21   -1    0    0  501  503 -0.00000000000E+00 -0.00000000000E+00 -0.47905725465E+03  0.47905725465E+03  0.00000000000E+00 0. -1.
          6    1    1    2  501    0  0.12828396538E+03 -0.20370972791E+03 -0.39970425082E+03  0.49764135393E+03  0.17300000000E+03 0. -1.
         -6    1    1    2    0  502 -0.12828396538E+03  0.20370972791E+03  0.69271093403E+03  0.75347983857E+03  0.17300000000E+03 0.  1.
<mgrwt>
<rscale>  2 0.29645139E+03</rscale>
<asrwt>0</asrwt>
<pdfrwt beam="1">  1       21 0.11877907E+00 0.29645139E+03</pdfrwt>
<pdfrwt beam="2">  1       21 0.73701116E-01 0.29645139E+03</pdfrwt>
<totfact> 0.82041091E+02</totfact>
</mgrwt>
</event>
<event>
 4    1  0.4017302E+000  0.2567668E+03  0.7546771E-02  0.1109102E+00
         21   -1    0    0  503  502  0.00000000000E+00  0.00000000000E+00  0.10968521893E+04  0.10968521893E+04  0.00000000000E+00 0.  1.
         21   -1    0    0  501  503 -0.00000000000E+00 -0.00000000000E+00 -0.61505399071E+02  0.61505399071E+02  0.00000000000E+00 0.  1.
          6    1    1    2  501    0 -0.18904446335E+03  0.16197407037E+02  0.43036085146E+03  0.50113833179E+03  0.17300000000E+03 0.  1.
         -6    1    1    2    0  502  0.18904446335E+03 -0.16197407037E+02  0.60498593881E+03  0.65721925662E+03  0.17300000000E+03 0.  1.
<mgrwt>
<rscale>  2 0.25676675E+03</rscale>
<asrwt>0</asrwt>
<pdfrwt beam="1">  1       21 0.16874648E+00 0.25676675E+03</pdfrwt>
<pdfrwt beam="2">  1       21 0.94623699E-02 0.25676675E+03</pdfrwt>
<totfact> 0.18703264E+04</totfact>
</mgrwt>
</event>
<event>
 4    1  0.4017302E+000  0.2813918E+03  0.7546771E-02  0.1094931E+00
         21   -1    0    0  503  502  0.00000000000E+00  0.00000000000E+00  0.14810380682E+03  0.14810380682E+03  0.00000000000E+00 0.  1.
         21   -1    0    0  501  503 -0.00000000000E+00 -0.00000000000E+00 -0.54738978578E+03  0.54738978578E+03  0.00000000000E+00 0.  1.
          6    1    1    2  501    0  0.14224136873E+03  0.17035180533E+03 -0.14655860291E+03  0.31727081279E+03  0.17300000000E+03 0.  1.
         -6    1    1    2    0  502 -0.14224136873E+03 -0.17035180533E+03 -0.25272737606E+03  0.37822277981E+03  0.17300000000E+03 0.  1.
<mgrwt>
<rscale>  2 0.28139180E+03</rscale>
<asrwt>0</asrwt>
<pdfrwt beam="1">  1       21 0.22785200E-01 0.28139180E+03</pdfrwt>
<pdfrwt beam="2">  1       21 0.84213816E-01 0.28139180E+03</pdfrwt>
<totfact> 0.21125258E+04</totfact>
</mgrwt>
</event>
<event>
 4    1  0.4017302E+000  0.2505535E+03  0.7546771E-02  0.1112956E+00
         21   -1    0    0  503  502  0.00000000000E+00  0.00000000000E+00  0.22117604897E+03  0.22117604897E+03  0.00000000000E+00 0.  1.
         21   -1    0    0  501  503 -0.00000000000E+00 -0.00000000000E+00 -0.28897198652E+03  0.28897198652E+03  0.00000000000E+00 0.  1.
          6    1    1    2  501    0  0.14037187183E+03 -0.11464644335E+03 -0.67913369169E+02  0.25959448200E+03  0.17300000000E+03 0.  1.
         -6    1    1    2    0  502 -0.14037187183E+03  0.11464644335E+03  0.11743162172E+00  0.25055355349E+03  0.17300000000E+03 0.  1.
<mgrwt>
<rscale>  2 0.25055353E+03</rscale>
<asrwt>0</asrwt>
<pdfrwt beam="1">  1       21 0.34027085E-01 0.25055353E+03</pdfrwt>
<pdfrwt beam="2">  1       21 0.44457228E-01 0.25055353E+03</pdfrwt>
<totfact> 0.39342333E+04</totfact>
</mgrwt>
</event>
<event>
 4    1  0.4017302E+000  0.1990357E+03  0.7546771E-02  0.1150555E+00
         21   -1    0    0  501  502  0.00000000000E+00  0.00000000000E+00  0.14104481663E+03  0.14104481663E+03  0.00000000000E+00 0.  1.
         21   -1    0    0  502  503 -0.00000000000E+00 -0.00000000000E+00 -0.51882009135E+03  0.51882009135E+03  0.00000000000E+00 0.  1.
          6    1    1    2  501    0 -0.97507498036E+02  0.13359822417E+02  0.34551874804E+02  0.20201244784E+03  0.17300000000E+03 0.  1.
         -6    1    1    2    0  503  0.97507498036E+02 -0.13359822417E+02 -0.41232714952E+03  0.45785246014E+03  0.17300000000E+03 0.  1.
<mgrwt>
<rscale>  2 0.19903567E+03</rscale>
<asrwt>0</asrwt>
<pdfrwt beam="1">  1       21 0.21699203E-01 0.19903567E+03</pdfrwt>
<pdfrwt beam="2">  1       21 0.79818474E-01 0.19903567E+03</pdfrwt>
<totfact> 0.27286440E+04</totfact>
</mgrwt>
</event>
<event>
 4    1  0.4017302E+000  0.1750104E+03  0.7546771E-02  0.1172721E+00
         21   -1    0    0  501  502  0.00000000000E+00  0.00000000000E+00  0.45243908747E+03  0.45243908747E+03  0.00000000000E+00 0. -1.
         21   -1    0    0  502  503 -0.00000000000E+00 -0.00000000000E+00 -0.13501071651E+03  0.13501071651E+03  0.00000000000E+00 0. -1.
          6    1    1    2  501    0 -0.14083895973E+02  0.22389467801E+02  0.36611445621E+03  0.40579359217E+03  0.17300000000E+03 0. -1.
         -6    1    1    2    0  503  0.14083895973E+02 -0.22389467801E+02 -0.48686085259E+02  0.18165621182E+03  0.17300000000E+03 0. -1.
<mgrwt>
<rscale>  2 0.17501041E+03</rscale>
<asrwt>0</asrwt>
<pdfrwt beam="1">  1       21 0.69606013E-01 0.17501041E+03</pdfrwt>
<pdfrwt beam="2">  1       21 0.20770880E-01 0.17501041E+03</pdfrwt>
<totfact> 0.40712847E+04</totfact>
</mgrwt>
</event>
<event>
 4    1  0.4017302E+000  0.2120799E+03  0.7546771E-02  0.1139929E+00
         21   -1    0    0  501  502  0.00000000000E+00  0.00000000000E+00  0.44561344483E+03  0.44561344483E+03  0.00000000000E+00 0. -1.
         21   -1    0    0  502  503 -0.00000000000E+00 -0.00000000000E+00 -0.10163269568E+03  0.10163269568E+03  0.00000000000E+00 0. -1.
          6    1    1    2  501    0  0.96399080712E+02 -0.75869060270E+02  0.19466478667E+03  0.28787545265E+03  0.17300000000E+03 0. -1.
         -6    1    1    2    0  503 -0.96399080712E+02  0.75869060270E+02  0.14931596248E+03  0.25937068786E+03  0.17300000000E+03 0. -1.
<mgrwt>
<rscale>  2 0.21207993E+03</rscale>
<asrwt>0</asrwt>
<pdfrwt beam="1">  1       21 0.68555914E-01 0.21207993E+03</pdfrwt>
<pdfrwt beam="2">  1       21 0.15635800E-01 0.21207993E+03</pdfrwt>
<totfact> 0.69937248E+04</totfact>
</mgrwt>
</event>
<event>
 4    1  0.4017302E+000  0.1920560E+03  0.7546771E-02  0.1156620E+00
         21   -1    0    0  503  502  0.00000000000E+00  0.00000000000E+00  0.82917588371E+02  0.82917588371E+02  0.00000000000E+00 0.  1.
         21   -1    0    0  501  503 -0.00000000000E+00 -0.00000000000E+00 -0.95726034269E+03  0.95726034269E+03  0.00000000000E+00 0.  1.
          6    1    1    2  501    0 -0.80536395141E+02  0.21688403255E+02 -0.81768792668E+03  0.83993990452E+03  0.17300000000E+03 0.  1.
         -6    1    1    2    0  502  0.80536395141E+02 -0.21688403255E+02 -0.56654827648E+02  0.20023802654E+03  0.17300000000E+03 0.  1.
<mgrwt>
<rscale>  2 0.19205598E+03</rscale>
<asrwt>0</asrwt>
<pdfrwt beam="1">  1       21 0.12756551E-01 0.19205598E+03</pdfrwt>
<pdfrwt beam="2">  1       21 0.14727083E+00 0.19205598E+03</pdfrwt>
<totfact> 0.16502789E+04</totfact>
</mgrwt>
</event>
<event>
 4    1  0.4017302E+000  0.3183381E+03  0.7546771E-02  0.1076417E+00
         21   -1    0    0  503  502  0.00000000000E+00  0.00000000000E+00  0.19574985006E+03  0.19574985006E+03  0.00000000000E+00 0. -1.
         21   -1    0    0  501  503 -0.00000000000E+00 -0.00000000000E+00 -0.55820388637E+03  0.55820388637E+03  0.00000000000E+00 0.  1.
          6    1    1    2  501    0 -0.26699421959E+03  0.11146136143E+02 -0.28277741451E+03  0.42579597908E+03  0.17300000000E+03 0.  1.
         -6    1    1    2    0  502  0.26699421959E+03 -0.11146136143E+02 -0.79676621799E+02  0.32815775734E+03  0.17300000000E+03 0. -1.
<mgrwt>
<rscale>  2 0.31833811E+03</rscale>
<asrwt>0</asrwt>
<pdfrwt beam="1">  1       21 0.30115362E-01 0.31833811E+03</pdfrwt>
<pdfrwt beam="2">  1       21 0.85877520E-01 0.31833811E+03</pdfrwt>
<totfact> 0.11572264E+04</totfact>
</mgrwt>
</event>
<event>
 4    1  0.4017302E+000  0.2792822E+03  0.7546771E-02  0.1096082E+00
         21   -1    0    0  503  502  0.00000000000E+00  0.00000000000E+00  0.20054692697E+03  0.20054692697E+03  0.00000000000E+00 0. -1.
         21   -1    0    0  501  503 -0.00000000000E+00 -0.00000000000E+00 -0.43291638127E+03  0.43291638127E+03  0.00000000000E+00 0.  1.
          6    1    1    2  501    0  0.11484943436E+03  0.18675967480E+03 -0.21714539382E+03  0.35376643532E+03  0.17300000000E+03 0.  1.
         -6    1    1    2    0  502 -0.11484943436E+03 -0.18675967480E+03 -0.15224060479E+02  0.27969687292E+03  0.17300000000E+03 0. -1.
<mgrwt>
<rscale>  2 0.27928224E+03</rscale>
<asrwt>0</asrwt>
<pdfrwt beam="1">  1       21 0.30853373E-01 0.27928224E+03</pdfrwt>
<pdfrwt beam="2">  1       21 0.66602521E-01 0.27928224E+03</pdfrwt>
<totfact> 0.19938005E+04</totfact>
</mgrwt>
</event>
<event>
 4    1  0.4017302E+000  0.2243987E+03  0.7546771E-02  0.1130646E+00
         21   -1    0    0  503  502  0.00000000000E+00  0.00000000000E+00  0.22772102870E+03  0.22772102870E+03  0.00000000000E+00 0.  1.
         21   -1    0    0  501  503 -0.00000000000E+00 -0.00000000000E+00 -0.22115183124E+03  0.22115183124E+03  0.00000000000E+00 0.  1.
          6    1    1    2  501    0  0.14157008959E+03  0.19587349349E+02  0.57684085041E+01  0.22447278022E+03  0.17300000000E+03 0. -1.
         -6    1    1    2    0  502 -0.14157008959E+03 -0.19587349349E+02  0.80078895639E+00  0.22440007973E+03  0.17300000000E+03 0. -1.
<mgrwt>
<rscale>  2 0.22439865E+03</rscale>
<asrwt>0</asrwt>
<pdfrwt beam="1">  1       21 0.35034004E-01 0.22439865E+03</pdfrwt>
<pdfrwt beam="2">  1       21 0.34023359E-01 0.22439865E+03</pdfrwt>
<totfact> 0.64468304E+04</totfact>
</mgrwt>
</event>
<event>
 4    1  0.4017302E+000  0.2096170E+03  0.7546771E-02  0.1141870E+00
         21   -1    0    0  503  502  0.00000000000E+00  0.00000000000E+00  0.16654532784E+03  0.16654532784E+03  0.00000000000E+00 0. -1.
         21   -1    0    0  501  503 -0.00000000000E+00 -0.00000000000E+00 -0.57602738644E+03  0.57602738644E+03  0.00000000000E+00 0. -1.
          6    1    1    2  501    0 -0.42763604724E+02  0.11037010197E+03 -0.47808128490E+03  0.52201628353E+03  0.17300000000E+03 0. -1.
         -6    1    1    2    0  502  0.42763604724E+02 -0.11037010197E+03  0.68599226301E+02  0.22055643075E+03  0.17300000000E+03 0. -1.
<mgrwt>
<rscale>  2 0.20961700E+03</rscale>
<asrwt>0</asrwt>
<pdfrwt beam="1">  1       21 0.25622358E-01 0.20961700E+03</pdfrwt>
<pdfrwt beam="2">  1       21 0.88619597E-01 0.20961700E+03</pdfrwt>
<totfact> 0.15565168E+04</totfact>
</mgrwt>
</event>
<event>
 4    1  0.4017302E+000  0.2068236E+03  0.7546771E-02  0.1144106E+00
         21   -1    0    0  503  502  0.00000000000E+00  0.00000000000E+00  0.88010798990E+03  0.88010798990E+03  0.00000000000E+00 0.  1.
         21   -1    0    0  501  503 -0.00000000000E+00 -0.00000000000E+00 -0.59527784104E+02  0.59527784104E+02  0.00000000000E+00 0. -1.
          6    1    1    2  501    0 -0.11296419948E+03  0.92776405930E+01  0.20902246729E+03  0.29405165671E+03  0.17300000000E+03 0. -1.
         -6    1    1    2    0  502  0.11296419948E+03 -0.92776405930E+01  0.61155773850E+03  0.64558411729E+03  0.17300000000E+03 0.  1.
<mgrwt>
<rscale>  2 0.20682356E+03</rscale>
<asrwt>0</asrwt>
<pdfrwt beam="1">  1       21 0.13540122E+00 0.20682356E+03</pdfrwt>
<pdfrwt beam="2">  1       21 0.91581212E-02 0.20682356E+03</pdfrwt>
<totfact> 0.36634740E+04</totfact>
</mgrwt>
</event>
<event>
 4    1  0.4017302E+000  0.1881185E+03  0.7546771E-02  0.1160169E+00
         21   -1    0    0  503  502  0.00000000000E+00  0.00000000000E+00  0.12815429064E+03  0.12815429064E+03  0.00000000000E+00 0.  1.
         21   -1    0    0  501  503 -0.00000000000E+00 -0.00000000000E+00 -0.71339767542E+03  0.71339767542E+03  0.00000000000E+00 0.  1.
          6    1    1    2  501    0  0.69694816742E+02  0.24539767651E+02 -0.62204449443E+03  0.64986761785E+03  0.17300000000E+03 0.  1.
         -6    1    1    2    0  502 -0.69694816742E+02 -0.24539767651E+02  0.36801109652E+02  0.19168434821E+03  0.17300000000E+03 0.  1.
<mgrwt>
<rscale>  2 0.18811849E+03</rscale>
<asrwt>0</asrwt>
<pdfrwt beam="1">  1       21 0.19716044E-01 0.18811849E+03</pdfrwt>
<pdfrwt beam="2">  1       21 0.10975349E+00 0.18811849E+03</pdfrwt>
<totfact> 0.15614099E+04</totfact>
</mgrwt>
</event>
<event>
 4    1  0.4017302E+000  0.2260791E+03  0.7546771E-02  0.1129430E+00
         21   -1    0    0  503  502  0.00000000000E+00  0.00000000000E+00  0.13960481691E+03  0.13960481691E+03  0.00000000000E+00 0. -1.
         21   -1    0    0  501  503 -0.00000000000E+00 -0.00000000000E+00 -0.36909399563E+03  0.36909399563E+03  0.00000000000E+00 0.  1.
          6    1    1    2  501    0  0.13153633234E+03 -0.62297444253E+02 -0.13758525375E+03  0.26465350996E+03  0.17300000000E+03 0.  1.
         -6    1    1    2    0  502 -0.13153633234E+03  0.62297444253E+02 -0.91903924970E+02  0.24404530258E+03  0.17300000000E+03 0. -1.
<mgrwt>
<rscale>  2 0.22607914E+03</rscale>
<asrwt>0</asrwt>
<pdfrwt beam="1">  1       21 0.21477664E-01 0.22607914E+03</pdfrwt>
<pdfrwt beam="2">  1       21 0.56783691E-01 0.22607914E+03</pdfrwt>
<totfact> 0.57988039E+04</totfact>
</mgrwt>
</event>
<event>
 4    1  0.4017302E+000  0.1884256E+03  0.7546771E-02  0.1159889E+00
         21   -1    0    0  501  502  0.00000000000E+00  0.00000000000E+00  0.27463208390E+02  0.27463208390E+02  0.00000000000E+00 0. -1.
         21   -1    0    0  502  503 -0.00000000000E+00 -0.00000000000E+00 -0.14245218508E+04  0.14245218508E+04  0.00000000000E+00 0. -1.
          6    1    1    2  501    0 -0.72509835512E+02 -0.17819462974E+02 -0.47775930476E+03  0.51357391172E+03  0.17300000000E+03 0. -1.
         -6    1    1    2    0  503  0.72509835512E+02  0.17819462974E+02 -0.91929933767E+03  0.93841114750E+03  0.17300000000E+03 0. -1.
<mgrwt>
<rscale>  2 0.18842561E+03</rscale>
<asrwt>0</asrwt>
<pdfrwt beam="1">  1       21 0.42251098E-02 0.18842561E+03</pdfrwt>
<pdfrwt beam="2">  1       21 0.21915716E+00 0.18842561E+03</pdfrwt>
<totfact> 0.36502140E+04</totfact>
</mgrwt>
</event>
<event>
 4    1  0.4017302E+000  0.2028562E+03  0.7546771E-02  0.1147351E+00
         21   -1    0    0  501  502  0.00000000000E+00  0.00000000000E+00  0.44651381885E+03  0.44651381885E+03  0.00000000000E+00 0.  1.
         21   -1    0    0  502  503 -0.00000000000E+00 -0.00000000000E+00 -0.12813649502E+03  0.12813649502E+03  0.00000000000E+00 0.  1.
          6    1    1    2  501    0  0.41853379075E+02  0.97313616505E+02  0.31143525400E+03  0.37167534588E+03  0.17300000000E+03 0.  1.
         -6    1    1    2    0  503 -0.41853379075E+02 -0.97313616505E+02  0.69420698176E+01  0.20297496799E+03  0.17300000000E+03 0.  1.
<mgrwt>
<rscale>  2 0.20285622E+03</rscale>
<asrwt>0</asrwt>
<pdfrwt beam="1">  1       21 0.68694433E-01 0.20285622E+03</pdfrwt>
<pdfrwt beam="2">  1       21 0.19713307E-01 0.20285622E+03</pdfrwt>
<totfact> 0.45562738E+04</totfact>
</mgrwt>
</event>
<event>
 4    1  0.4017302E+000  0.2529819E+03  0.7546771E-02  0.1111435E+00
         21   -1    0    0  501  502  0.00000000000E+00  0.00000000000E+00  0.11044477879E+03  0.11044477879E+03  0.00000000000E+00 0.  1.
         21   -1    0    0  502  503 -0.00000000000E+00 -0.00000000000E+00 -0.67822846310E+03  0.67822846310E+03  0.00000000000E+00 0. -1.
          6    1    1    2  501    0 -0.97950664658E+02 -0.15644976555E+03 -0.13341911667E+03  0.28600790643E+03  0.17300000000E+03 0. -1.
         -6    1    1    2    0  503  0.97950664658E+02  0.15644976555E+03 -0.43436456765E+03  0.50266533546E+03  0.17300000000E+03 0. -1.
<mgrwt>
<rscale>  2 0.25298194E+03</rscale>
<asrwt>0</asrwt>
<pdfrwt beam="1">  1       21 0.16991505E-01 0.25298194E+03</pdfrwt>
<pdfrwt beam="2">  1       21 0.10434284E+00 0.25298194E+03</pdfrwt>
<totfact> 0.22402488E+04</totfact>
</mgrwt>
</event>
<event>
 4    1  0.4017302E+000  0.2341389E+03  0.7546771E-02  0.1123760E+00
         21   -1    0    0  501  502  0.00000000000E+00  0.00000000000E+00  0.13573434075E+03  0.13573434075E+03  0.00000000000E+00 0. -1.
         21   -1    0    0  502  503 -0.00000000000E+00 -0.00000000000E+00 -0.61231324910E+03  0.61231324910E+03  0.00000000000E+00 0.  1.
          6    1    1    2  501    0  0.10535583475E+03  0.11743999554E+03 -0.20071161934E+02  0.23499756596E+03  0.17300000000E+03 0. -1.
         -6    1    1    2    0  503 -0.10535583475E+03 -0.11743999554E+03 -0.45650774642E+03  0.51305002388E+03  0.17300000000E+03 0.  1.
<mgrwt>
<rscale>  2 0.23413886E+03</rscale>
<asrwt>0</asrwt>
<pdfrwt beam="1">  1       21 0.20882206E-01 0.23413886E+03</pdfrwt>
<pdfrwt beam="2">  1       21 0.94202039E-01 0.23413886E+03</pdfrwt>
<totfact> 0.19635635E+04</totfact>
</mgrwt>
</event>
<event>
 4    1  0.4017302E+000  0.2718049E+03  0.7546771E-02  0.1100251E+00
         21   -1    0    0  501  502  0.00000000000E+00  0.00000000000E+00  0.38608204215E+03  0.38608204215E+03  0.00000000000E+00 0. -1.
         21   -1    0    0  502  503 -0.00000000000E+00 -0.00000000000E+00 -0.20520469023E+03  0.20520469023E+03  0.00000000000E+00 0.  1.
          6    1    1    2  501    0 -0.14801611604E+03 -0.14845925462E+03  0.16725037101E+03  0.31914041971E+03  0.17300000000E+03 0.  1.
         -6    1    1    2    0  503  0.14801611604E+03  0.14845925462E+03  0.13626980900E+02  0.27214631267E+03  0.17300000000E+03 0. -1.
<mgrwt>
<rscale>  2 0.27180493E+03</rscale>
<asrwt>0</asrwt>
<pdfrwt beam="1">  1       21 0.59397237E-01 0.27180493E+03</pdfrwt>
<pdfrwt beam="2">  1       21 0.31569952E-01 0.27180493E+03</pdfrwt>
<totfact> 0.24546875E+04</totfact>
</mgrwt>
</event>
<event>
 4    1  0.4017302E+000  0.2741340E+03  0.7546771E-02  0.1098937E+00
         21   -1    0    0  503  502  0.00000000000E+00  0.00000000000E+00  0.89027342380E+03  0.89027342380E+03  0.00000000000E+00 0.  1.
         21   -1    0    0  501  503 -0.00000000000E+00 -0.00000000000E+00 -0.10416129483E+03  0.10416129483E+03  0.00000000000E+00 0. -1.
          6    1    1    2  501    0  0.14672055695E+03  0.15392703787E+03  0.60956342552E+03  0.66836892847E+03  0.17300000000E+03 0.  1.
         -6    1    1    2    0  502 -0.14672055695E+03 -0.15392703787E+03  0.17654870345E+03  0.32606579015E+03  0.17300000000E+03 0. -1.
<mgrwt>
<rscale>  2 0.27413401E+03</rscale>
<asrwt>0</asrwt>
<pdfrwt beam="1">  1       21 0.13696514E+00 0.27413401E+03</pdfrwt>
<pdfrwt beam="2">  1       21 0.16024815E-01 0.27413401E+03</pdfrwt>
<totfact> 0.12522575E+04</totfact>
</mgrwt>
</event>
<event>
 4    1  0.4017302E+000  0.1934217E+03  0.7546771E-02  0.1155411E+00
         21   -1    0    0  501  502  0.00000000000E+00  0.00000000000E+00  0.98958108765E+03  0.98958108765E+03  0.00000000000E+00 0.  1.
         21   -1    0    0  502  503 -0.00000000000E+00 -0.00000000000E+00 -0.43021666344E+02  0.43021666344E+02  0.00000000000E+00 0.  1.
          6    1    1    2  501    0  0.82167415763E+02 -0.27045977804E+02  0.65305093873E+03  0.68109287011E+03  0.17300000000E+03 0.  1.
         -6    1    1    2    0  503 -0.82167415763E+02  0.27045977804E+02  0.29350848257E+03  0.35150988389E+03  0.17300000000E+03 0.  1.
<mgrwt>
<rscale>  2 0.19342174E+03</rscale>
<asrwt>0</asrwt>
<pdfrwt beam="1">  1       21 0.15224323E+00 0.19342174E+03</pdfrwt>
<pdfrwt beam="2">  1       21 0.66187186E-02 0.19342174E+03</pdfrwt>
<totfact> 0.47867282E+04</totfact>
</mgrwt>
</event>
<event>
 4    1  0.4017302E+000  0.1824273E+03  0.7546771E-02  0.1165474E+00
         21   -1    0    0  501  502  0.00000000000E+00  0.00000000000E+00  0.38878990201E+02  0.38878990201E+02  0.00000000000E+00 0.  1.
         21   -1    0    0  502  503 -0.00000000000E+00 -0.00000000000E+00 -0.85620061991E+03  0.85620061991E+03  0.00000000000E+00 0.  1.
          6    1    1    2  501    0 -0.20772349658E+02  0.54029863754E+02 -0.41581179925E+03  0.45406956415E+03  0.17300000000E+03 0.  1.
         -6    1    1    2    0  503  0.20772349658E+02 -0.54029863754E+02 -0.40150983046E+03  0.44101004597E+03  0.17300000000E+03 0.  1.
<mgrwt>
<rscale>  2 0.18242729E+03</rscale>
<asrwt>0</asrwt>
<pdfrwt beam="1">  1       21 0.59813833E-02 0.18242729E+03</pdfrwt>
<pdfrwt beam="2">  1       21 0.13172317E+00 0.18242729E+03</pdfrwt>
<totfact> 0.83280279E+04</totfact>
</mgrwt>
</event>
<event>
 4    1  0.4017302E+000  0.1941138E+03  0.7546771E-02  0.1154802E+00
         21   -1    0    0  501  502  0.00000000000E+00  0.00000000000E+00  0.57649872596E+02  0.57649872596E+02  0.00000000000E+00 0.  1.
         21   -1    0    0  502  503 -0.00000000000E+00 -0.00000000000E+00 -0.69913773089E+03  0.69913773089E+03  0.00000000000E+00 0.  1.
          6    1    1    2  501    0  0.87541843336E+02  0.93597165598E+01 -0.41731120527E+03  0.46024865092E+03  0.17300000000E+03 0.  1.
         -6    1    1    2    0  503 -0.87541843336E+02 -0.93597165598E+01 -0.22417665303E+03  0.29653895257E+03  0.17300000000E+03 0.  1.
<mgrwt>
<rscale>  2 0.19411383E+03</rscale>
<asrwt>0</asrwt>
<pdfrwt beam="1">  1       21 0.88692111E-02 0.19411383E+03</pdfrwt>
<pdfrwt beam="2">  1       21 0.10755965E+00 0.19411383E+03</pdfrwt>
<totfact> 0.69055557E+04</totfact>
</mgrwt>
</event>
<event>
 4    1  0.4017302E+000  0.2554031E+03  0.7546771E-02  0.1109937E+00
         21   -1    0    0  501  502  0.00000000000E+00  0.00000000000E+00  0.36029710051E+03  0.36029710051E+03  0.00000000000E+00 0.  1.
         21   -1    0    0  502  503 -0.00000000000E+00 -0.00000000000E+00 -0.40899790917E+03  0.40899790917E+03  0.00000000000E+00 0. -1.
          6    1    1    2  501    0 -0.56021441693E+02 -0.17934134044E+03  0.26280898147E+03  0.36646866041E+03  0.17300000000E+03 0.  1.
         -6    1    1    2    0  503  0.56021441693E+02  0.17934134044E+03 -0.31150979013E+03  0.40282634927E+03  0.17300000000E+03 0.  1.
<mgrwt>
<rscale>  2 0.25540305E+03</rscale>
<asrwt>0</asrwt>
<pdfrwt beam="1">  1       21 0.55430323E-01 0.25540305E+03</pdfrwt>
<pdfrwt beam="2">  1       21 0.62922755E-01 0.25540305E+03</pdfrwt>
<totfact> 0.68855021E+03</totfact>
</mgrwt>
</event>
<event>
 4    1  0.4017302E+000  0.1928955E+03  0.7546771E-02  0.1155875E+00
         21   -1    0    0  503  502  0.00000000000E+00  0.00000000000E+00  0.51835994773E+02  0.51835994773E+02  0.00000000000E+00 0. -1.
         21   -1    0    0  501  503 -0.00000000000E+00 -0.00000000000E+00 -0.72430379019E+03  0.72430379019E+03  0.00000000000E+00 0. -1.
          6    1    1    2  501    0  0.81734432455E+02 -0.24478051764E+02 -0.37296271820E+03  0.41989270253E+03  0.17300000000E+03 0. -1.
         -6    1    1    2    0  502 -0.81734432455E+02  0.24478051764E+02 -0.29950507721E+03  0.35624708244E+03  0.17300000000E+03 0. -1.
<mgrwt>
<rscale>  2 0.19289555E+03</rscale>
<asrwt>0</asrwt>
<pdfrwt beam="1">  1       21 0.79747684E-02 0.19289555E+03</pdfrwt>
<pdfrwt beam="2">  1       21 0.11143135E+00 0.19289555E+03</pdfrwt>
<totfact> 0.76371917E+04</totfact>
</mgrwt>
</event>
<event>
 4    1  0.4017302E+000  0.2222254E+03  0.7546771E-02  0.1132235E+00
         21   -1    0    0  501  502  0.00000000000E+00  0.00000000000E+00  0.83981048414E+03  0.83981048414E+03  0.00000000000E+00 0. -1.
         21   -1    0    0  502  503 -0.00000000000E+00 -0.00000000000E+00 -0.84221780918E+02  0.84221780918E+02  0.00000000000E+00 0.  1.
          6    1    1    2  501    0 -0.13768861792E+03  0.22293188006E+02  0.63160772346E+03  0.66956139230E+03  0.17300000000E+03 0. -1.
         -6    1    1    2    0  503  0.13768861792E+03 -0.22293188006E+02  0.12398097976E+03  0.25447087275E+03  0.17300000000E+03 0.  1.
<mgrwt>
<rscale>  2 0.22222543E+03</rscale>
<asrwt>0</asrwt>
<pdfrwt beam="1">  1       21 0.12920161E+00 0.22222543E+03</pdfrwt>
<pdfrwt beam="2">  1       21 0.12957198E-01 0.22222543E+03</pdfrwt>
<totfact> 0.22044596E+04</totfact>
</mgrwt>
</event>
<event>
 4    1  0.4017302E+000  0.2108243E+03  0.7546771E-02  0.1140915E+00
         21   -1    0    0  501  502  0.00000000000E+00  0.00000000000E+00  0.11624726504E+03  0.11624726504E+03  0.00000000000E+00 0.  1.
         21   -1    0    0  502  503 -0.00000000000E+00 -0.00000000000E+00 -0.38234887862E+03  0.38234887862E+03  0.00000000000E+00 0.  1.
          6    1    1    2  501    0 -0.82507012621E+02 -0.87809419137E+02 -0.13344336814E+03  0.24950758249E+03  0.17300000000E+03 0. -1.
         -6    1    1    2    0  503  0.82507012621E+02  0.87809419137E+02 -0.13265824544E+03  0.24908856116E+03  0.17300000000E+03 0. -1.
<mgrwt>
<rscale>  2 0.21082434E+03</rscale>
<asrwt>0</asrwt>
<pdfrwt beam="1">  1       21 0.17884195E-01 0.21082434E+03</pdfrwt>
<pdfrwt beam="2">  1       21 0.58822905E-01 0.21082434E+03</pdfrwt>
<totfact> 0.76211314E+04</totfact>
</mgrwt>
</event>
<event>
 4    1  0.4017302E+000  0.1792415E+03  0.7546771E-02  0.1168539E+00
         21   -1    0    0  503  502  0.00000000000E+00  0.00000000000E+00  0.24811960738E+02  0.24811960738E+02  0.00000000000E+00 0. -1.
         21   -1    0    0  501  503 -0.00000000000E+00 -0.00000000000E+00 -0.14116944413E+04  0.14116944413E+04  0.00000000000E+00 0.  1.
          6    1    1    2  501    0 -0.41094973398E+02  0.22577094832E+02 -0.48679399549E+03  0.51874455765E+03  0.17300000000E+03 0. -1.
         -6    1    1    2    0  502  0.41094973398E+02 -0.22577094832E+02 -0.90008848508E+03  0.91776184440E+03  0.17300000000E+03 0.  1.
<mgrwt>
<rscale>  2 0.17924152E+03</rscale>
<asrwt>0</asrwt>
<pdfrwt beam="1">  1       21 0.38172251E-02 0.17924152E+03</pdfrwt>
<pdfrwt beam="2">  1       21 0.21718374E+00 0.17924152E+03</pdfrwt>
<totfact> 0.44794164E+04</totfact>
</mgrwt>
</event>
<event>
 4    1  0.4017302E+000  0.1927746E+03  0.7546771E-02  0.1155982E+00
         21   -1    0    0  503  502  0.00000000000E+00  0.00000000000E+00  0.13818403456E+03  0.13818403456E+03  0.00000000000E+00 0. -1.
         21   -1    0    0  501  503 -0.00000000000E+00 -0.00000000000E+00 -0.37307231515E+03  0.37307231515E+03  0.00000000000E+00 0. -1.
          6    1    1    2  501    0 -0.67992631991E+01  0.84774995834E+02 -0.25250292648E+03  0.31767870212E+03  0.17300000000E+03 0. -1.
         -6    1    1    2    0  502  0.67992631991E+01 -0.84774995834E+02  0.17614645891E+02  0.19357764760E+03  0.17300000000E+03 0. -1.
<mgrwt>
<rscale>  2 0.19277456E+03</rscale>
<asrwt>0</asrwt>
<pdfrwt beam="1">  1       21 0.21259082E-01 0.19277456E+03</pdfrwt>
<pdfrwt beam="2">  1       21 0.57395741E-01 0.19277456E+03</pdfrwt>
<totfact> 0.58662594E+04</totfact>
</mgrwt>
</event>
<event>
 4    1  0.4017302E+000  0.2645881E+03  0.7546771E-02  0.1104418E+00
         21   -1    0    0  501  502  0.00000000000E+00  0.00000000000E+00  0.13244958944E+03  0.13244958944E+03  0.00000000000E+00 0.  1.
         21   -1    0    0  502  503 -0.00000000000E+00 -0.00000000000E+00 -0.68459861854E+03  0.68459861854E+03  0.00000000000E+00 0.  1.
          6    1    1    2  501    0  0.90254966838E+02  0.17869499386E+03 -0.81034810763E+02  0.27671917250E+03  0.17300000000E+03 0.  1.
         -6    1    1    2    0  503 -0.90254966838E+02 -0.17869499386E+03 -0.47111421834E+03  0.54032903549E+03  0.17300000000E+03 0.  1.
<mgrwt>
<rscale>  2 0.26458809E+03</rscale>
<asrwt>0</asrwt>
<pdfrwt beam="1">  1       21 0.20376860E-01 0.26458809E+03</pdfrwt>
<pdfrwt beam="2">  1       21 0.10532286E+00 0.26458809E+03</pdfrwt>
<totfact> 0.15509940E+04</totfact>
</mgrwt>
</event>
<event>
 4    1  0.4017302E+000  0.2202851E+03  0.7546771E-02  0.1133671E+00
         21   -1    0    0  503  502  0.00000000000E+00  0.00000000000E+00  0.14190612733E+04  0.14190612733E+04  0.00000000000E+00 0. -1.
         21   -1    0    0  501  503 -0.00000000000E+00 -0.00000000000E+00 -0.38157435636E+02  0.38157435636E+02  0.00000000000E+00 0. -1.
          6    1    1    2  501    0  0.13016805199E+03  0.40654712383E+02  0.45567349660E+03  0.50612633097E+03  0.17300000000E+03 0. -1.
         -6    1    1    2    0  502 -0.13016805199E+03 -0.40654712383E+02  0.92523034107E+03  0.95109237797E+03  0.17300000000E+03 0. -1.
<mgrwt>
<rscale>  2 0.22028510E+03</rscale>
<asrwt>0</asrwt>
<pdfrwt beam="1">  1       21 0.21831708E+00 0.22028510E+03</pdfrwt>
<pdfrwt beam="2">  1       21 0.58703758E-02 0.22028510E+03</pdfrwt>
<totfact> 0.20646064E+04</totfact>
</mgrwt>
</event>
<event>
 4    1  0.4017302E+000  0.1785188E+03  0.7546771E-02  0.1169244E+00
         21   -1    0    0  503  502  0.00000000000E+00  0.00000000000E+00  0.19450845402E+03  0.19450845402E+03  0.00000000000E+00 0.  1.
         21   -1    0    0  501  503 -0.00000000000E+00 -0.00000000000E+00 -0.21652366511E+03  0.21652366511E+03  0.00000000000E+00 0.  1.
          6    1    1    2  501    0 -0.19806169820E+02 -0.39340405207E+02  0.90364044817E+02  0.20008651239E+03  0.17300000000E+03 0.  1.
         -6    1    1    2    0  502  0.19806169820E+02  0.39340405207E+02 -0.11237925590E+03  0.21094560674E+03  0.17300000000E+03 0.  1.
<mgrwt>
<rscale>  2 0.17851877E+03</rscale>
<asrwt>0</asrwt>
<pdfrwt beam="1">  1       21 0.29924378E-01 0.17851877E+03</pdfrwt>
<pdfrwt beam="2">  1       21 0.33311333E-01 0.17851877E+03</pdfrwt>
<totfact> 0.93442605E+04</totfact>
</mgrwt>
</event>
<event>
 4    1  0.4017302E+000  0.2005787E+03  0.7546771E-02  0.1149252E+00
         21   -1    0    0  501  502  0.00000000000E+00  0.00000000000E+00  0.13649733993E+04  0.13649733993E+04  0.00000000000E+00 0.  1.
         21   -1    0    0  502  503 -0.00000000000E+00 -0.00000000000E+00 -0.29495629583E+02  0.29495629583E+02  0.00000000000E+00 0. -1.
          6    1    1    2  501    0  0.85189846330E+02  0.55186013526E+02  0.68643345527E+03  0.71513823456E+03  0.17300000000E+03 0. -1.
         -6    1    1    2    0  503 -0.85189846330E+02 -0.55186013526E+02  0.64904431440E+03  0.67933079428E+03  0.17300000000E+03 0. -1.
<mgrwt>
<rscale>  2 0.20057868E+03</rscale>
<asrwt>0</asrwt>
<pdfrwt beam="1">  1       21 0.20999586E+00 0.20057868E+03</pdfrwt>
<pdfrwt beam="2">  1       21 0.45377902E-02 0.20057868E+03</pdfrwt>
<totfact> 0.36574106E+04</totfact>
</mgrwt>
</event>
<event>
 4    1  0.4017302E+000  0.2135707E+03  0.7546771E-02  0.1138769E+00
         21   -1    0    0  503  502  0.00000000000E+00  0.00000000000E+00  0.48204576032E+03  0.48204576032E+03  0.00000000000E+00 0.  1.
         21   -1    0    0  501  503 -0.00000000000E+00 -0.00000000000E+00 -0.96450321686E+02  0.96450321686E+02  0.00000000000E+00 0. -1.
          6    1    1    2  501    0 -0.13818043090E+02 -0.12446889554E+03  0.23261470835E+03  0.31578797762E+03  0.17300000000E+03 0.  1.
         -6    1    1    2    0  502  0.13818043090E+02  0.12446889554E+03  0.15298073029E+03  0.26270810439E+03  0.17300000000E+03 0. -1.
<mgrwt>
<rscale>  2 0.21357070E+03</rscale>
<asrwt>0</asrwt>
<pdfrwt beam="1">  1       21 0.74160885E-01 0.21357070E+03</pdfrwt>
<pdfrwt beam="2">  1       21 0.14838511E-01 0.21357070E+03</pdfrwt>
<totfact> 0.64603975E+04</totfact>
</mgrwt>
</event>
<event>
 4    1  0.4017302E+000  0.1805412E+03  0.7546771E-02  0.1167280E+00
         21   -1    0    0  503  502  0.00000000000E+00  0.00000000000E+00  0.41947461326E+03  0.41947461326E+03  0.00000000000E+00 0. -1.
         21   -1    0    0  501  503 -0.00000000000E+00 -0.00000000000E+00 -0.94952799221E+02  0.94952799221E+02  0.00000000000E+00 0. -1.
          6    1    1    2  501    0  0.20636284881E+02  0.47331543237E+02  0.52635460699E+02  0.18805749908E+03  0.17300000000E+03 0. -1.
         -6    1    1    2    0  502 -0.20636284881E+02 -0.47331543237E+02  0.27188635334E+03  0.32636991340E+03  0.17300000000E+03 0. -1.
<mgrwt>
<rscale>  2 0.18054122E+03</rscale>
<asrwt>0</asrwt>
<pdfrwt beam="1">  1       21 0.64534555E-01 0.18054122E+03</pdfrwt>
<pdfrwt beam="2">  1       21 0.14608123E-01 0.18054122E+03</pdfrwt>
<totfact> 0.91567108E+04</totfact>
</mgrwt>
</event>
<event>
 4    1  0.4017302E+000  0.2988809E+03  0.7546771E-02  0.1085801E+00
         21   -1    0    0  501  502  0.00000000000E+00  0.00000000000E+00  0.32561364016E+03  0.32561364016E+03  0.00000000000E+00 0.  1.
         21   -1    0    0  502  503 -0.00000000000E+00 -0.00000000000E+00 -0.27771336881E+03  0.27771336881E+03  0.00000000000E+00 0. -1.
          6    1    1    2  501    0 -0.21259900192E+03  0.11917412261E+03  0.57182880349E+02  0.30430196996E+03  0.17300000000E+03 0.  1.
         -6    1    1    2    0  503  0.21259900192E+03 -0.11917412261E+03 -0.92826089991E+01  0.29902503900E+03  0.17300000000E+03 0. -1.
<mgrwt>
<rscale>  2 0.29888092E+03</rscale>
<asrwt>0</asrwt>
<pdfrwt beam="1">  1       21 0.50094406E-01 0.29888092E+03</pdfrwt>
<pdfrwt beam="2">  1       21 0.42725134E-01 0.29888092E+03</pdfrwt>
<totfact> 0.18967144E+04</totfact>
</mgrwt>
</event>
<event>
 4    1  0.4017302E+000  0.1850146E+03  0.7546771E-02  0.1163036E+00
         21   -1    0    0  501  502  0.00000000000E+00  0.00000000000E+00  0.64280000473E+03  0.64280000473E+03  0.00000000000E+00 0.  1.
         21   -1    0    0  502  503 -0.00000000000E+00 -0.00000000000E+00 -0.11835030412E+03  0.11835030412E+03  0.00000000000E+00 0.  1.
          6    1    1    2  501    0  0.22330247451E+02  0.61666683070E+02  0.54447904487E+03  0.57505464962E+03  0.17300000000E+03 0.  1.
         -6    1    1    2    0  503 -0.22330247451E+02 -0.61666683070E+02 -0.20029344251E+02  0.18609565923E+03  0.17300000000E+03 0.  1.
<mgrwt>
<rscale>  2 0.18501465E+03</rscale>
<asrwt>0</asrwt>
<pdfrwt beam="1">  1       21 0.98892307E-01 0.18501465E+03</pdfrwt>
<pdfrwt beam="2">  1       21 0.18207739E-01 0.18501465E+03</pdfrwt>
<totfact> 0.23272843E+04</totfact>
</mgrwt>
</event>
<event>
 4    1  0.4017302E+000  0.2122849E+03  0.7546771E-02  0.1139769E+00
         21   -1    0    0  501  502  0.00000000000E+00  0.00000000000E+00  0.78317563560E+03  0.78317563560E+03  0.00000000000E+00 0. -1.
         21   -1    0    0  502  503 -0.00000000000E+00 -0.00000000000E+00 -0.62938964232E+02  0.62938964232E+02  0.00000000000E+00 0. -1.
          6    1    1    2  501    0 -0.12010182407E+03  0.26672577280E+02  0.48401109034E+03  0.52851831576E+03  0.17300000000E+03 0. -1.
         -6    1    1    2    0  503  0.12010182407E+03 -0.26672577280E+02  0.23622558103E+03  0.31759628408E+03  0.17300000000E+03 0. -1.
<mgrwt>
<rscale>  2 0.21228489E+03</rscale>
<asrwt>0</asrwt>
<pdfrwt beam="1">  1       21 0.12048855E+00 0.21228489E+03</pdfrwt>
<pdfrwt beam="2">  1       21 0.96829181E-02 0.21228489E+03</pdfrwt>
<totfact> 0.44433491E+04</totfact>
</mgrwt>
</event>
<event>
 4    1  0.4017302E+000  0.1781344E+03  0.7546771E-02  0.1169621E+00
         21   -1    0    0  501  502  0.00000000000E+00  0.00000000000E+00  0.60454866105E+03  0.60454866105E+03  0.00000000000E+00 0. -1.
         21   -1    0    0  502  503 -0.00000000000E+00 -0.00000000000E+00 -0.58135965804E+02  0.58135965804E+02  0.00000000000E+00 0. -1.
          6    1    1    2  501    0  0.13812995578E+02 -0.40150680205E+02  0.37647767520E+03  0.41649407666E+03  0.17300000000E+03 0.  1.
         -6    1    1    2    0  503 -0.13812995578E+02  0.40150680205E+02  0.16993502005E+03  0.24619055020E+03  0.17300000000E+03 0.  1.
<mgrwt>
<rscale>  2 0.17813443E+03</rscale>
<asrwt>0</asrwt>
<pdfrwt beam="1">  1       21 0.93007481E-01 0.17813443E+03</pdfrwt>
<pdfrwt beam="2">  1       21 0.89439952E-02 0.17813443E+03</pdfrwt>
<totfact> 0.96702033E+04</totfact>
</mgrwt>
</event>
<event>
 4    1  0.4017302E+000  0.1836835E+03  0.7546771E-02  0.1164285E+00
         21   -1    0    0  503  502  0.00000000000E+00  0.00000000000E+00  0.41658027491E+03  0.41658027491E+03  0.00000000000E+00 0. -1.
         21   -1    0    0  501  503 -0.00000000000E+00 -0.00000000000E+00 -0.28267291278E+03  0.28267291278E+03  0.00000000000E+00 0.  1.
          6    1    1    2  501    0  0.60479088538E+02 -0.12365422202E+02 -0.22836769249E+03  0.29307239172E+03  0.17300000000E+03 0.  1.
         -6    1    1    2    0  502 -0.60479088538E+02  0.12365422202E+02  0.36227505462E+03  0.40618079597E+03  0.17300000000E+03 0. -1.
<mgrwt>
<rscale>  2 0.18368349E+03</rscale>
<asrwt>0</asrwt>
<pdfrwt beam="1">  1       21 0.64089273E-01 0.18368349E+03</pdfrwt>
<pdfrwt beam="2">  1       21 0.43488140E-01 0.18368349E+03</pdfrwt>
<totfact> 0.11490776E+04</totfact>
</mgrwt>
</event>
<event>
 4    1  0.4017302E+000  0.2029444E+03  0.7546771E-02  0.1147278E+00
         21   -1    0    0  503  502  0.00000000000E+00  0.00000000000E+00  0.40127878474E+03  0.40127878474E+03  0.00000000000E+00 0. -1.
         21   -1    0    0  501  503 -0.00000000000E+00 -0.00000000000E+00 -0.11405004918E+03  0.11405004918E+03  0.00000000000E+00 0. -1.
          6    1    1    2  501    0  0.10587012375E+03  0.69952580996E+01  0.62108252589E+02  0.21223536882E+03  0.17300000000E+03 0. -1.
         -6    1    1    2    0  502 -0.10587012375E+03 -0.69952580996E+01  0.22512048297E+03  0.30309346511E+03  0.17300000000E+03 0. -1.
<mgrwt>
<rscale>  2 0.20294437E+03</rscale>
<asrwt>0</asrwt>
<pdfrwt beam="1">  1       21 0.61735197E-01 0.20294437E+03</pdfrwt>
<pdfrwt beam="2">  1       21 0.17546162E-01 0.20294437E+03</pdfrwt>
<totfact> 0.71392974E+04</totfact>
</mgrwt>
</event>
<event>
 4    1  0.4017302E+000  0.2350477E+03  0.7546771E-02  0.1123137E+00
         21   -1    0    0  501  502  0.00000000000E+00  0.00000000000E+00  0.17459835226E+02  0.17459835226E+02  0.00000000000E+00 0.  1.
         21   -1    0    0  502  503 -0.00000000000E+00 -0.00000000000E+00 -0.37219338317E+04  0.37219338317E+04  0.00000000000E+00 0.  1.
          6    1    1    2  501    0 -0.15206868242E+03 -0.46834976762E+02 -0.25759699009E+04  0.25866712836E+04  0.17300000000E+03 0.  1.
         -6    1    1    2    0  503  0.15206868242E+03  0.46834976762E+02 -0.11285040956E+04  0.11527223833E+04  0.17300000000E+03 0.  1.
<mgrwt>
<rscale>  2 0.23504765E+03</rscale>
<asrwt>0</asrwt>
<pdfrwt beam="1">  1       21 0.26861276E-02 0.23504765E+03</pdfrwt>
<pdfrwt beam="2">  1       21 0.57260539E+00 0.23504765E+03</pdfrwt>
<totfact> 0.39569911E+02</totfact>
</mgrwt>
</event>
<event>
 4    1  0.4017302E+000  0.2020881E+03  0.7546771E-02  0.1147989E+00
         21   -1    0    0  503  502  0.00000000000E+00  0.00000000000E+00  0.11890779882E+03  0.11890779882E+03  0.00000000000E+00 0. -1.
         21   -1    0    0  501  503 -0.00000000000E+00 -0.00000000000E+00 -0.34914630283E+03  0.34914630283E+03  0.00000000000E+00 0. -1.
          6    1    1    2  501    0 -0.10261658221E+03  0.19505048634E+02 -0.85243016009E+02  0.21933075855E+03  0.17300000000E+03 0. -1.
         -6    1    1    2    0  502  0.10261658221E+03 -0.19505048634E+02 -0.14499548800E+03  0.24872334311E+03  0.17300000000E+03 0. -1.
<mgrwt>
<rscale>  2 0.20208812E+03</rscale>
<asrwt>0</asrwt>
<pdfrwt beam="1">  1       21 0.18293507E-01 0.20208812E+03</pdfrwt>
<pdfrwt beam="2">  1       21 0.53714816E-01 0.20208812E+03</pdfrwt>
<totfact> 0.88988746E+04</totfact>
</mgrwt>
</event>
<event>
 4    1  0.4017302E+000  0.2271858E+03  0.7546771E-02  0.1128636E+00
         21   -1    0    0  503  502  0.00000000000E+00  0.00000000000E+00  0.98577494593E+02  0.98577494593E+02  0.00000000000E+00 0. -1.
         21   -1    0    0  501  503 -0.00000000000E+00 -0.00000000000E+00 -0.61662903836E+03  0.61662903836E+03  0.00000000000E+00 0. -1.
          6    1    1    2  501    0  0.14460863290E+03 -0.27797768313E+02 -0.12011323015E+03  0.25698358058E+03  0.17300000000E+03 0. -1.
         -6    1    1    2    0  502 -0.14460863290E+03  0.27797768313E+02 -0.39793831362E+03  0.45822295237E+03  0.17300000000E+03 0. -1.
<mgrwt>
<rscale>  2 0.22718577E+03</rscale>
<asrwt>0</asrwt>
<pdfrwt beam="1">  1       21 0.15165768E-01 0.22718577E+03</pdfrwt>
<pdfrwt beam="2">  1       21 0.94866006E-01 0.22718577E+03</pdfrwt>
<totfact> 0.35092189E+04</totfact>
</mgrwt>
</event>
<event>
 4    1  0.4017302E+000  0.2436201E+03  0.7546771E-02  0.1117404E+00
         21   -1    0    0  503  502  0.00000000000E+00  0.00000000000E+00  0.95054788359E+02  0.95054788359E+02  0.00000000000E+00 0. -1.
         21   -1    0    0  501  503 -0.00000000000E+00 -0.00000000000E+00 -0.74764077498E+03  0.74764077498E+03  0.00000000000E+00 0.  1.
          6    1    1    2  501    0 -0.15559399724E+02 -0.17082051558E+03 -0.49737274550E+03  0.55383245791E+03  0.17300000000E+03 0.  1.
         -6    1    1    2    0  502  0.15559399724E+02  0.17082051558E+03 -0.15521324112E+03  0.28886310543E+03  0.17300000000E+03 0. -1.
<mgrwt>
<rscale>  2 0.24362008E+03</rscale>
<asrwt>0</asrwt>
<pdfrwt beam="1">  1       21 0.14623814E-01 0.24362008E+03</pdfrwt>
<pdfrwt beam="2">  1       21 0.11502166E+00 0.24362008E+03</pdfrwt>
<totfact> 0.23389212E+04</totfact>
</mgrwt>
</event>
<event>
 4    1  0.4017302E+000  0.1845402E+03  0.7546771E-02  0.1163480E+00
         21   -1    0    0  501  502  0.00000000000E+00  0.00000000000E+00  0.12091202543E+03  0.12091202543E+03  0.00000000000E+00 0.  1.
         21   -1    0    0  502  503 -0.00000000000E+00 -0.00000000000E+00 -0.34598153594E+03  0.34598153594E+03  0.00000000000E+00 0.  1.
          6    1    1    2  501    0 -0.57372139019E+02  0.28888430568E+02 -0.11872439464E+02  0.18492176339E+03  0.17300000000E+03 0.  1.
         -6    1    1    2    0  503  0.57372139019E+02 -0.28888430568E+02 -0.21319707104E+03  0.28197179798E+03  0.17300000000E+03 0.  1.
<mgrwt>
<rscale>  2 0.18454025E+03</rscale>
<asrwt>0</asrwt>
<pdfrwt beam="1">  1       21 0.18601850E-01 0.18454025E+03</pdfrwt>
<pdfrwt beam="2">  1       21 0.53227928E-01 0.18454025E+03</pdfrwt>
<totfact> 0.88578039E+04</totfact>
</mgrwt>
</event>
<event>
 4    1  0.4017302E+000  0.2086785E+03  0.7546771E-02  0.1142617E+00
         21   -1    0    0  503  502  0.00000000000E+00  0.00000000000E+00  0.41954906912E+03  0.41954906912E+03  0.00000000000E+00 0. -1.
         21   -1    0    0  501  503 -0.00000000000E+00 -0.00000000000E+00 -0.49134932310E+03  0.49134932310E+03  0.00000000000E+00 0. -1.
          6    1    1    2  501    0 -0.11506312625E+03  0.19446951049E+02 -0.44039364903E+03  0.48733281547E+03  0.17300000000E+03 0. -1.
         -6    1    1    2    0  502  0.11506312625E+03 -0.19446951049E+02  0.36859339505E+03  0.42356557674E+03  0.17300000000E+03 0. -1.
<mgrwt>
<rscale>  2 0.20867848E+03</rscale>
<asrwt>0</asrwt>
<pdfrwt beam="1">  1       21 0.64546010E-01 0.20867848E+03</pdfrwt>
<pdfrwt beam="2">  1       21 0.75592204E-01 0.20867848E+03</pdfrwt>
<totfact> 0.34120570E+03</totfact>
</mgrwt>
</event>
<event>
 4    1  0.4017302E+000  0.1731987E+03  0.7546771E-02  0.1174553E+00
         21   -1    0    0  503  502  0.00000000000E+00  0.00000000000E+00  0.83646235980E+02  0.83646235980E+02  0.00000000000E+00 0.  1.
         21   -1    0    0  501  503 -0.00000000000E+00 -0.00000000000E+00 -0.35866560947E+03  0.35866560947E+03  0.00000000000E+00 0.  1.
          6    1    1    2  501    0  0.55375974033E+01  0.61759190175E+01 -0.13521806729E+03  0.21973104624E+03  0.17300000000E+03 0.  1.
         -6    1    1    2    0  502 -0.55375974033E+01 -0.61759190175E+01 -0.13980130620E+03  0.22258079921E+03  0.17300000000E+03 0.  1.
<mgrwt>
<rscale>  2 0.17319875E+03</rscale>
<asrwt>0</asrwt>
<pdfrwt beam="1">  1       21 0.12868652E-01 0.17319875E+03</pdfrwt>
<pdfrwt beam="2">  1       21 0.55179323E-01 0.17319875E+03</pdfrwt>
<totfact> 0.16137569E+05</totfact>
</mgrwt>
</event>
