<event>
 8    1  0.2458065E-006  0.9118800E+02  0.7816164E-02  0.1184000E+00
        -11   -1    0    0    0    0  0.00000000000E+00  0.00000000000E+00  0.45593999997E+02  0.45594000000E+02  0.51100000000E-03 0. -1.
         11   -1    0    0    0    0 -0.00000000000E+00 -0.00000000000E+00 -0.45593999997E+02  0.45594000000E+02  0.51100000000E-03 0.  1.
         23    2    1    2    0    0  0.35527136788E-14  0.17763568394E-14  0.00000000000E+00  0.91188000000E+02  0.91188000000E+02 0.  0.
    9900012    2    3    3    0    0  0.26145111701E+02  0.12317482395E+02 -0.22814295443E+02  0.54367091334E+02  0.40000016314E+02 0.  0.
         12    1    3    3    0    0 -0.26145111701E+02 -0.12317482395E+02  0.22814295443E+02  0.36820908666E+02  0.00000000000E+00 0. -1.
         11    1    4    4    0    0  0.74760264986E+01 -0.74092052181E+01 -0.31170009663E+00  0.10530168630E+02  0.51100000000E-03 0. -1.
        -11    1    4    4    0    0  0.19218014186E+02  0.44441944256E+01 -0.20440904516E+02  0.28406223104E+02  0.51100000000E-03 0.  1.
         12    1    4    4    0    0 -0.54892898284E+00  0.15282493187E+02 -0.20616908306E+01  0.15430699600E+02  0.00000000000E+00 0. -1.
</event>
<event>
 8    1  0.2458065E-006  0.9118800E+02  0.7816164E-02  0.1184000E+00
        -11   -1    0    0    0    0  0.00000000000E+00  0.00000000000E+00  0.45593999997E+02  0.45594000000E+02  0.51100000000E-03 0. -1.
         11   -1    0    0    0    0 -0.00000000000E+00 -0.00000000000E+00 -0.45593999997E+02  0.45594000000E+02  0.51100000000E-03 0.  1.
         23    2    1    2    0    0 -0.35527136788E-14  0.88817841970E-15  0.35527136788E-14  0.91188000000E+02  0.91188000000E+02 0.  0.
    9900012    2    3    3    0    0 -0.21152531213E+02 -0.21204038952E+01 -0.30064169604E+02  0.54367082258E+02  0.39999995623E+02 0.  0.
         12    1    3    3    0    0  0.21152531213E+02  0.21204038952E+01  0.30064169604E+02  0.36820917742E+02  0.00000000000E+00 0. -1.
         11    1    4    4    0    0 -0.19350839660E+02 -0.15134356540E+02 -0.16192322710E+02  0.29422696315E+02  0.51100000000E-03 0.  1.
        -11    1    4    4    0    0  0.37912470850E+01 -0.52661254790E+00 -0.85322260034E+01  0.93514574303E+01  0.51100000000E-03 0. -1.
        -12    1    4    4    0    0 -0.55929386376E+01  0.13540565192E+02 -0.53396208908E+01  0.15592928512E+02  0.00000000000E+00 0.  1.
</event>
<event>
 8    1  0.2458065E-006  0.9118800E+02  0.7816164E-02  0.1184000E+00
        -11   -1    0    0    0    0  0.00000000000E+00  0.00000000000E+00  0.45593999997E+02  0.45594000000E+02  0.51100000000E-03 0.  1.
         11   -1    0    0    0    0 -0.00000000000E+00 -0.00000000000E+00 -0.45593999997E+02  0.45594000000E+02  0.51100000000E-03 0. -1.
         23    2    1    2    0    0  0.00000000000E+00  0.00000000000E+00  0.35527136788E-14  0.91188000000E+02  0.91188000000E+02 0.  0.
    9900012    2    3    3    0    0  0.20360619233E+02 -0.13884661463E+02  0.27357644692E+02  0.54367090688E+02  0.40000014841E+02 0.  0.
         12    1    3    3    0    0 -0.20360619233E+02  0.13884661463E+02 -0.27357644692E+02  0.36820909312E+02  0.00000000000E+00 0. -1.
         11    1    4    4    0    0  0.10431190344E+02 -0.13353381308E+02 -0.67436794249E-01  0.16944824353E+02  0.51100000000E-03 0. -1.
        -11    1    4    4    0    0  0.78011226968E+01 -0.89368492113E+01  0.41223142343E+01  0.12558593236E+02  0.51100000000E-03 0.  1.
         12    1    4    4    0    0  0.21283061918E+01  0.84055690567E+01  0.23302767252E+02  0.24863673100E+02  0.00000000000E+00 0. -1.
</event>
<event>
 8    1  0.2458065E-006  0.9118800E+02  0.7816164E-02  0.1184000E+00
        -11   -1    0    0    0    0  0.00000000000E+00  0.00000000000E+00  0.45593999997E+02  0.45594000000E+02  0.51100000000E-03 0. -1.
         11   -1    0    0    0    0 -0.00000000000E+00 -0.00000000000E+00 -0.45593999997E+02  0.45594000000E+02  0.51100000000E-03 0.  1.
         23    2    1    2    0    0  0.00000000000E+00  0.35527136788E-14  0.88817841970E-15  0.91188000000E+02  0.91188000000E+02 0.  0.
    9900012    2    3    3    0    0 -0.22692252298E+02  0.28285108910E+02  0.63870209336E+01  0.54367085606E+02  0.40000003257E+02 0.  0.
        -12    1    3    3    0    0  0.22692252298E+02 -0.28285108910E+02 -0.63870209336E+01  0.36820914394E+02  0.00000000000E+00 0.  1.
         11    1    4    4    0    0 -0.62090564109E+01  0.13596267407E+02  0.58179577020E+01  0.16039311113E+02  0.51100000000E-03 0. -1.
        -11    1    4    4    0    0 -0.17246570777E+02  0.16366767298E+02  0.12080729745E+02  0.26669445191E+02  0.51100000000E-03 0.  1.
        -12    1    4    4    0    0  0.76337489037E+00 -0.16779257943E+01 -0.11511666514E+02  0.11658329302E+02  0.00000000000E+00 0.  1.
</event>
<event>
 8    1  0.2458065E-006  0.9118800E+02  0.7816164E-02  0.1184000E+00
        -11   -1    0    0    0    0  0.00000000000E+00  0.00000000000E+00  0.45593999997E+02  0.45594000000E+02  0.51100000000E-03 0. -1.
         11   -1    0    0    0    0 -0.00000000000E+00 -0.00000000000E+00 -0.45593999997E+02  0.45594000000E+02  0.51100000000E-03 0.  1.
         23    2    1    2    0    0  0.00000000000E+00  0.44408920985E-15  0.00000000000E+00  0.91188000000E+02  0.91188000000E+02 0.  0.
    9900012    2    3    3    0    0  0.28383991492E+02  0.21260888250E+01  0.23358259104E+02  0.54367088889E+02  0.40000010740E+02 0.  0.
        -12    1    3    3    0    0 -0.28383991492E+02 -0.21260888250E+01 -0.23358259104E+02  0.36820911111E+02  0.00000000000E+00 0.  1.
         11    1    4    4    0    0  0.20023074237E+02 -0.95507912904E+01  0.22499084706E+02  0.31596675918E+02  0.51100000000E-03 0. -1.
        -11    1    4    4    0    0  0.88563414760E+01  0.11729175681E+02  0.72305881401E+01  0.16379552852E+02  0.51100000000E-03 0.  1.
        -12    1    4    4    0    0 -0.49542422103E+00 -0.52295566125E-01 -0.63714137427E+01  0.63908601194E+01  0.00000000000E+00 0.  1.
</event>
<event>
 8    1  0.2458065E-006  0.9118800E+02  0.7816164E-02  0.1184000E+00
        -11   -1    0    0    0    0  0.00000000000E+00  0.00000000000E+00  0.45593999997E+02  0.45594000000E+02  0.51100000000E-03 0.  1.
         11   -1    0    0    0    0 -0.00000000000E+00 -0.00000000000E+00 -0.45593999997E+02  0.45594000000E+02  0.51100000000E-03 0. -1.
         23    2    1    2    0    0  0.00000000000E+00  0.17763568394E-14  0.00000000000E+00  0.91188000000E+02  0.91188000000E+02 0.  0.
    9900012    2    3    3    0    0  0.32161875652E+02  0.83949735191E+01 -0.15840417458E+02  0.54367073191E+02  0.39999974952E+02 0.  0.
        -12    1    3    3    0    0 -0.32161875652E+02 -0.83949735191E+01  0.15840417458E+02  0.36820926809E+02  0.00000000000E+00 0.  1.
         11    1    4    4    0    0  0.43257132034E+01  0.16114161278E+02  0.11236736262E+01  0.16722458883E+02  0.51100000000E-03 0. -1.
        -11    1    4    4    0    0  0.27212349458E+02 -0.10933611868E+02 -0.11975881783E+02  0.31677714189E+02  0.51100000000E-03 0.  1.
        -12    1    4    4    0    0  0.62381299122E+00  0.32144241092E+01 -0.49882093010E+01  0.59669001192E+01  0.00000000000E+00 0.  1.
</event>
<event>
 8    1  0.2458065E-006  0.9118800E+02  0.7816164E-02  0.1184000E+00
        -11   -1    0    0    0    0  0.00000000000E+00  0.00000000000E+00  0.45593999997E+02  0.45594000000E+02  0.51100000000E-03 0. -1.
         11   -1    0    0    0    0 -0.00000000000E+00 -0.00000000000E+00 -0.45593999997E+02  0.45594000000E+02  0.51100000000E-03 0.  1.
         23    2    1    2    0    0  0.00000000000E+00  0.00000000000E+00 -0.17763568394E-14  0.91188000000E+02  0.91188000000E+02 0.  0.
    9900012    2    3    3    0    0  0.18215272280E+02  0.27990754879E+02 -0.15508364479E+02  0.54366975140E+02  0.39999751426E+02 0.  0.
         12    1    3    3    0    0 -0.18215272280E+02 -0.27990754879E+02  0.15508364479E+02  0.36821024860E+02  0.00000000000E+00 0. -1.
         11    1    4    4    0    0  0.22929859733E+02  0.75768674797E+01  0.52437581393E+00  0.24154965503E+02  0.51100000000E-03 0. -1.
        -11    1    4    4    0    0  0.32868259774E+01  0.15425359233E+02 -0.73739548439E+01  0.17410345854E+02  0.51100000000E-03 0.  1.
         12    1    4    4    0    0 -0.80014134305E+01  0.49885281666E+01 -0.86587854489E+01  0.12801663783E+02  0.00000000000E+00 0. -1.
</event>
<event>
 8    1  0.2458065E-006  0.9118800E+02  0.7816164E-02  0.1184000E+00
        -11   -1    0    0    0    0  0.00000000000E+00  0.00000000000E+00  0.45593999997E+02  0.45594000000E+02  0.51100000000E-03 0. -1.
         11   -1    0    0    0    0 -0.00000000000E+00 -0.00000000000E+00 -0.45593999997E+02  0.45594000000E+02  0.51100000000E-03 0.  1.
         23    2    1    2    0    0  0.00000000000E+00 -0.35527136788E-14  0.71054273576E-14  0.91188000000E+02  0.91188000000E+02 0.  0.
    9900012    2    3    3    0    0 -0.17674183741E+02  0.26248520965E+02 -0.18826004514E+02  0.54367081085E+02  0.39999992950E+02 0.  0.
         12    1    3    3    0    0  0.17674183741E+02 -0.26248520965E+02  0.18826004514E+02  0.36820918915E+02  0.00000000000E+00 0. -1.
         11    1    4    4    0    0  0.34928642769E+01  0.46674124077E+01  0.33777169985E+01  0.67374929925E+01  0.51100000000E-03 0. -1.
        -11    1    4    4    0    0 -0.20276095157E+02  0.23685523853E+02 -0.27681648907E+02  0.41694097441E+02  0.51100000000E-03 0.  1.
         12    1    4    4    0    0 -0.89095286094E+00 -0.21044152955E+01  0.54779273940E+01  0.59354906512E+01  0.00000000000E+00 0. -1.
</event>
<event>
 8    1  0.2458065E-006  0.9118800E+02  0.7816164E-02  0.1184000E+00
        -11   -1    0    0    0    0  0.00000000000E+00  0.00000000000E+00  0.45593999997E+02  0.45594000000E+02  0.51100000000E-03 0.  1.
         11   -1    0    0    0    0 -0.00000000000E+00 -0.00000000000E+00 -0.45593999997E+02  0.45594000000E+02  0.51100000000E-03 0. -1.
         23    2    1    2    0    0  0.00000000000E+00  0.44408920985E-15 -0.17763568394E-14  0.91188000000E+02  0.91188000000E+02 0.  0.
    9900012    2    3    3    0    0 -0.35410998256E+02  0.13864241450E+01 -0.99959752342E+01  0.54367075375E+02  0.39999979932E+02 0.  0.
        -12    1    3    3    0    0  0.35410998256E+02 -0.13864241450E+01  0.99959752342E+01  0.36820924625E+02  0.00000000000E+00 0.  1.
         11    1    4    4    0    0 -0.89479726017E+01 -0.35725753139E+01 -0.78604730025E+01  0.12434490104E+02  0.51100000000E-03 0. -1.
        -11    1    4    4    0    0 -0.78670150934E+01  0.42319703278E+01 -0.16271511731E+02  0.18562370366E+02  0.51100000000E-03 0.  1.
        -12    1    4    4    0    0 -0.18596010561E+02  0.72702913111E+00  0.14136009500E+02  0.23370214905E+02  0.00000000000E+00 0.  1.
</event>
<event>
 8    1  0.2458065E-006  0.9118800E+02  0.7816164E-02  0.1184000E+00
        -11   -1    0    0    0    0  0.00000000000E+00  0.00000000000E+00  0.45593999997E+02  0.45594000000E+02  0.51100000000E-03 0.  1.
         11   -1    0    0    0    0 -0.00000000000E+00 -0.00000000000E+00 -0.45593999997E+02  0.45594000000E+02  0.51100000000E-03 0. -1.
         23    2    1    2    0    0  0.35527136788E-14  0.35527136788E-14  0.35527136788E-14  0.91188000000E+02  0.91188000000E+02 0.  0.
    9900012    2    3    3    0    0 -0.26736213009E+02 -0.21978797572E+02 -0.12565301940E+02  0.54367089614E+02  0.40000012393E+02 0.  0.
        -12    1    3    3    0    0  0.26736213009E+02  0.21978797572E+02  0.12565301940E+02  0.36820910386E+02  0.00000000000E+00 0.  1.
         11    1    4    4    0    0 -0.11784067060E+02 -0.17454766048E+02 -0.16777821610E+02  0.26926351266E+02  0.51100000000E-03 0. -1.
        -11    1    4    4    0    0 -0.94935148238E+01 -0.10858659885E+02 -0.47476398510E+01  0.15184775356E+02  0.51100000000E-03 0.  1.
        -12    1    4    4    0    0 -0.54586311257E+01  0.63346283604E+01  0.89601595204E+01  0.12255962992E+02  0.00000000000E+00 0.  1.
</event>
<event>
 8    1  0.2458065E-006  0.9118800E+02  0.7816164E-02  0.1184000E+00
        -11   -1    0    0    0    0  0.00000000000E+00  0.00000000000E+00  0.45593999997E+02  0.45594000000E+02  0.51100000000E-03 0.  1.
         11   -1    0    0    0    0 -0.00000000000E+00 -0.00000000000E+00 -0.45593999997E+02  0.45594000000E+02  0.51100000000E-03 0. -1.
         23    2    1    2    0    0  0.00000000000E+00  0.00000000000E+00  0.00000000000E+00  0.91188000000E+02  0.91188000000E+02 0.  0.
    9900012    2    3    3    0    0 -0.22469697607E+02  0.20445705844E+02  0.20805413370E+02  0.54367089860E+02  0.40000012954E+02 0.  0.
        -12    1    3    3    0    0  0.22469697607E+02 -0.20445705844E+02 -0.20805413370E+02  0.36820910140E+02  0.00000000000E+00 0.  1.
         11    1    4    4    0    0 -0.24027938147E+02  0.16258823990E+02  0.10246110258E+02  0.30768066966E+02  0.51100000000E-03 0. -1.
        -11    1    4    4    0    0  0.10929985711E+02  0.36084704608E+01  0.74374769469E+01  0.13704076412E+02  0.51100000000E-03 0.  1.
         12    1    4    4    0    0 -0.93717451709E+01  0.57841139357E+00  0.31218261650E+01  0.98949464825E+01  0.00000000000E+00 0. -1.
</event>
<event>
 8    1  0.2458065E-006  0.9118800E+02  0.7816164E-02  0.1184000E+00
        -11   -1    0    0    0    0  0.00000000000E+00  0.00000000000E+00  0.45593999997E+02  0.45594000000E+02  0.51100000000E-03 0.  1.
         11   -1    0    0    0    0 -0.00000000000E+00 -0.00000000000E+00 -0.45593999997E+02  0.45594000000E+02  0.51100000000E-03 0. -1.
         23    2    1    2    0    0  0.00000000000E+00  0.88817841970E-15  0.00000000000E+00  0.91188000000E+02  0.91188000000E+02 0.  0.
    9900012    2    3    3    0    0 -0.31723438782E+02 -0.82092253780E+00 -0.18674295183E+02  0.54367084985E+02  0.40000001841E+02 0.  0.
        -12    1    3    3    0    0  0.31723438782E+02  0.82092253780E+00  0.18674295183E+02  0.36820915015E+02  0.00000000000E+00 0.  1.
         11    1    4    4    0    0 -0.67133384039E+01  0.45758667414E+01 -0.14489775333E+02  0.16612075681E+02  0.51100000000E-03 0. -1.
        -11    1    4    4    0    0 -0.94553466123E+01  0.10566374424E+02  0.26865310336E+01  0.14431538285E+02  0.51100000000E-03 0.  1.
        -12    1    4    4    0    0 -0.15554753766E+02 -0.15963163703E+02 -0.68710508830E+01  0.23323471019E+02  0.00000000000E+00 0.  1.
</event>
<event>
 8    1  0.2458065E-006  0.9118800E+02  0.7816164E-02  0.1184000E+00
        -11   -1    0    0    0    0  0.00000000000E+00  0.00000000000E+00  0.45593999997E+02  0.45594000000E+02  0.51100000000E-03 0. -1.
         11   -1    0    0    0    0 -0.00000000000E+00 -0.00000000000E+00 -0.45593999997E+02  0.45594000000E+02  0.51100000000E-03 0.  1.
         23    2    1    2    0    0 -0.26645352591E-14  0.35527136788E-14 -0.35527136788E-14  0.91188000000E+02  0.91188000000E+02 0.  0.
    9900012    2    3    3    0    0 -0.49532057768E+01 -0.21776324951E+02 -0.29275199786E+02  0.54367083412E+02  0.39999998254E+02 0.  0.
         12    1    3    3    0    0  0.49532057768E+01  0.21776324951E+02  0.29275199786E+02  0.36820916588E+02  0.00000000000E+00 0. -1.
         11    1    4    4    0    0 -0.53787597822E+01  0.26821213412E+00 -0.42741538550E+01  0.68754189676E+01  0.51100000000E-03 0. -1.
        -11    1    4    4    0    0  0.10293611402E+02 -0.27252960190E+02 -0.16650616740E+02  0.33554810578E+02  0.51100000000E-03 0.  1.
        -12    1    4    4    0    0 -0.98680573964E+01  0.52084231047E+01 -0.83504291914E+01  0.13936853867E+02  0.00000000000E+00 0.  1.
</event>
<event>
 8    1  0.2458065E-006  0.9118800E+02  0.7816164E-02  0.1184000E+00
        -11   -1    0    0    0    0  0.00000000000E+00  0.00000000000E+00  0.45593999997E+02  0.45594000000E+02  0.51100000000E-03 0. -1.
         11   -1    0    0    0    0 -0.00000000000E+00 -0.00000000000E+00 -0.45593999997E+02  0.45594000000E+02  0.51100000000E-03 0.  1.
         23    2    1    2    0    0  0.44408920985E-15  0.00000000000E+00  0.00000000000E+00  0.91188000000E+02  0.91188000000E+02 0.  0.
    9900012    2    3    3    0    0  0.15761161292E+01  0.36375262441E+02 -0.54897442556E+01  0.54367066393E+02  0.39999959456E+02 0.  0.
         12    1    3    3    0    0 -0.15761161292E+01 -0.36375262441E+02  0.54897442556E+01  0.36820933607E+02  0.00000000000E+00 0. -1.
         11    1    4    4    0    0 -0.40704323852E+01  0.28756097633E+02 -0.91139721683E+01  0.30439219107E+02  0.51100000000E-03 0. -1.
        -11    1    4    4    0    0 -0.61517731875E+01  0.85594543764E+01 -0.21513620749E+01  0.10758110039E+02  0.51100000000E-03 0.  1.
         12    1    4    4    0    0  0.11798321702E+02 -0.94028956845E+00  0.57755899876E+01  0.13169737247E+02  0.00000000000E+00 0. -1.
</event>
<event>
 8    1  0.2458065E-006  0.9118800E+02  0.7816164E-02  0.1184000E+00
        -11   -1    0    0    0    0  0.00000000000E+00  0.00000000000E+00  0.45593999997E+02  0.45594000000E+02  0.51100000000E-03 0. -1.
         11   -1    0    0    0    0 -0.00000000000E+00 -0.00000000000E+00 -0.45593999997E+02  0.45594000000E+02  0.51100000000E-03 0.  1.
         23    2    1    2    0    0  0.00000000000E+00  0.00000000000E+00 -0.66613381478E-15  0.91188000000E+02  0.91188000000E+02 0.  0.
    9900012    2    3    3    0    0  0.26394663873E+02  0.25625222855E+02  0.15631870890E+01  0.54367165120E+02  0.40000184524E+02 0.  0.
         12    1    3    3    0    0 -0.26394663873E+02 -0.25625222855E+02 -0.15631870890E+01  0.36820834880E+02  0.00000000000E+00 0. -1.
         11    1    4    4    0    0  0.13081468740E+02  0.20152333092E+02  0.14183743373E+02  0.27900177953E+02  0.51100000000E-03 0. -1.
        -11    1    4    4    0    0  0.12532416983E+02  0.94153739690E+01 -0.15083181568E+02  0.21753461998E+02  0.51100000000E-03 0.  1.
         12    1    4    4    0    0  0.78077814969E+00 -0.39424842057E+01  0.24626252840E+01  0.47135251692E+01  0.00000000000E+00 0. -1.
</event>
<event>
 8    1  0.2458065E-006  0.9118800E+02  0.7816164E-02  0.1184000E+00
        -11   -1    0    0    0    0  0.00000000000E+00  0.00000000000E+00  0.45593999997E+02  0.45594000000E+02  0.51100000000E-03 0.  1.
         11   -1    0    0    0    0 -0.00000000000E+00 -0.00000000000E+00 -0.45593999997E+02  0.45594000000E+02  0.51100000000E-03 0. -1.
         23    2    1    2    0    0 -0.17763568394E-14  0.35527136788E-14  0.35527136788E-14  0.91188000000E+02  0.91188000000E+02 0.  0.
    9900012    2    3    3    0    0 -0.57338851878E+01  0.23992797554E+02 -0.27335894113E+02  0.54367042914E+02  0.39999905931E+02 0.  0.
        -12    1    3    3    0    0  0.57338851878E+01 -0.23992797554E+02  0.27335894113E+02  0.36820957086E+02  0.00000000000E+00 0.  1.
         11    1    4    4    0    0  0.30111741031E+00 -0.37367274127E+00  0.39764466315E+00  0.62323715520E+00  0.51100000000E-03 0. -1.
        -11    1    4    4    0    0 -0.38192313285E+01  0.13352018926E+02  0.81775026754E+01  0.16116280204E+02  0.51100000000E-03 0.  1.
         12    1    4    4    0    0 -0.22157712696E+01  0.11014451369E+02 -0.35911041451E+02  0.37627525555E+02  0.00000000000E+00 0. -1.
</event>
<event>
 8    1  0.2458065E-006  0.9118800E+02  0.7816164E-02  0.1184000E+00
        -11   -1    0    0    0    0  0.00000000000E+00  0.00000000000E+00  0.45593999997E+02  0.45594000000E+02  0.51100000000E-03 0. -1.
         11   -1    0    0    0    0 -0.00000000000E+00 -0.00000000000E+00 -0.45593999997E+02  0.45594000000E+02  0.51100000000E-03 0.  1.
         23    2    1    2    0    0  0.00000000000E+00  0.00000000000E+00  0.00000000000E+00  0.91188000000E+02  0.91188000000E+02 0.  0.
    9900012    2    3    3    0    0  0.35206683768E+01 -0.31382380217E+02 -0.18934789156E+02  0.54367148105E+02  0.40000145734E+02 0.  0.
         12    1    3    3    0    0 -0.35206683768E+01  0.31382380217E+02  0.18934789156E+02  0.36820851895E+02  0.00000000000E+00 0. -1.
         11    1    4    4    0    0 -0.45134524599E+01 -0.26426790386E+02 -0.50235369027E+01  0.27276041254E+02  0.51100000000E-03 0.  1.
        -11    1    4    4    0    0  0.17584089412E+01  0.65207280333E+01  0.14580820066E+01  0.69092618627E+01  0.51100000000E-03 0. -1.
         12    1    4    4    0    0  0.62757118956E+01 -0.11476317864E+02 -0.15369334260E+02  0.20181844988E+02  0.00000000000E+00 0. -1.
</event>
<event>
 8    1  0.2458065E-006  0.9118800E+02  0.7816164E-02  0.1184000E+00
        -11   -1    0    0    0    0  0.00000000000E+00  0.00000000000E+00  0.45593999997E+02  0.45594000000E+02  0.51100000000E-03 0.  1.
         11   -1    0    0    0    0 -0.00000000000E+00 -0.00000000000E+00 -0.45593999997E+02  0.45594000000E+02  0.51100000000E-03 0. -1.
         23    2    1    2    0    0  0.00000000000E+00  0.00000000000E+00  0.00000000000E+00  0.91188000000E+02  0.91188000000E+02 0.  0.
    9900012    2    3    3    0    0 -0.35844288736E+02 -0.57031281093E+01 -0.62001577091E+01  0.54367073058E+02  0.39999974651E+02 0.  0.
        -12    1    3    3    0    0  0.35844288736E+02  0.57031281093E+01  0.62001577091E+01  0.36820926942E+02  0.00000000000E+00 0.  1.
         11    1    4    4    0    0 -0.30501158043E+02  0.43719944150E+01 -0.12851019613E+02  0.33385381269E+02  0.51100000000E-03 0. -1.
        -11    1    4    4    0    0 -0.91226916530E+01 -0.20089223772E+00  0.45726359136E+01  0.10206510674E+02  0.51100000000E-03 0.  1.
        -12    1    4    4    0    0  0.37795609594E+01 -0.98742302866E+01  0.20782259900E+01  0.10775181115E+02  0.00000000000E+00 0.  1.
</event>
<event>
 8    1  0.2458065E-006  0.9118800E+02  0.7816164E-02  0.1184000E+00
        -11   -1    0    0    0    0  0.00000000000E+00  0.00000000000E+00  0.45593999997E+02  0.45594000000E+02  0.51100000000E-03 0. -1.
         11   -1    0    0    0    0 -0.00000000000E+00 -0.00000000000E+00 -0.45593999997E+02  0.45594000000E+02  0.51100000000E-03 0.  1.
         23    2    1    2    0    0  0.00000000000E+00  0.00000000000E+00  0.00000000000E+00  0.91188000000E+02  0.91188000000E+02 0.  0.
    9900012    2    3    3    0    0  0.24502509352E+02  0.11234718867E+02  0.25083617306E+02  0.54367085702E+02  0.40000003475E+02 0.  0.
        -12    1    3    3    0    0 -0.24502509352E+02 -0.11234718867E+02 -0.25083617306E+02  0.36820914298E+02  0.00000000000E+00 0.  1.
         11    1    4    4    0    0  0.24937158579E+02  0.18599744811E+01  0.97068889743E+01  0.26824337399E+02  0.51100000000E-03 0. -1.
        -11    1    4    4    0    0  0.55005201903E+01  0.33959398989E+01  0.17666959550E+02  0.18812484954E+02  0.51100000000E-03 0.  1.
        -12    1    4    4    0    0 -0.59351694174E+01  0.59788044872E+01 -0.22902312176E+01  0.87302633488E+01  0.00000000000E+00 0.  1.
</event>
<event>
 8    1  0.2458065E-006  0.9118800E+02  0.7816164E-02  0.1184000E+00
        -11   -1    0    0    0    0  0.00000000000E+00  0.00000000000E+00  0.45593999997E+02  0.45594000000E+02  0.51100000000E-03 0. -1.
         11   -1    0    0    0    0 -0.00000000000E+00 -0.00000000000E+00 -0.45593999997E+02  0.45594000000E+02  0.51100000000E-03 0.  1.
         23    2    1    2    0    0  0.00000000000E+00  0.44408920985E-15  0.71054273576E-14  0.91188000000E+02  0.91188000000E+02 0.  0.
    9900012    2    3    3    0    0  0.17506429704E+02 -0.35227505271E+00  0.32391071868E+02  0.54367072316E+02  0.39999972959E+02 0.  0.
        -12    1    3    3    0    0 -0.17506429704E+02  0.35227505271E+00 -0.32391071868E+02  0.36820927684E+02  0.00000000000E+00 0.  1.
         11    1    4    4    0    0  0.79634074289E+01  0.10996992055E+02  0.37857583670E+01  0.14095448159E+02  0.51100000000E-03 0. -1.
        -11    1    4    4    0    0  0.75032172547E+00 -0.10441346675E+02  0.14402597457E+00  0.10469262000E+02  0.51100000000E-03 0.  1.
        -12    1    4    4    0    0  0.87927005500E+01 -0.90792043257E+00  0.28461287527E+02  0.29802362157E+02  0.00000000000E+00 0.  1.
</event>
<event>
 8    1  0.2458065E-006  0.9118800E+02  0.7816164E-02  0.1184000E+00
        -11   -1    0    0    0    0  0.00000000000E+00  0.00000000000E+00  0.45593999997E+02  0.45594000000E+02  0.51100000000E-03 0. -1.
         11   -1    0    0    0    0 -0.00000000000E+00 -0.00000000000E+00 -0.45593999997E+02  0.45594000000E+02  0.51100000000E-03 0.  1.
         23    2    1    2    0    0  0.00000000000E+00 -0.35527136788E-14  0.00000000000E+00  0.91188000000E+02  0.91188000000E+02 0.  0.
    9900012    2    3    3    0    0 -0.24183529131E+01  0.20903831931E+02  0.30215242686E+02  0.54367088676E+02  0.40000010254E+02 0.  0.
        -12    1    3    3    0    0  0.24183529131E+01 -0.20903831931E+02 -0.30215242686E+02  0.36820911324E+02  0.00000000000E+00 0.  1.
         11    1    4    4    0    0 -0.19872484060E+01 -0.15048295547E+01 -0.50376602343E+01  0.56206484602E+01  0.51100000000E-03 0. -1.
        -11    1    4    4    0    0  0.40013405771E+01  0.20546876304E+01 -0.28472673874E+01  0.53234762617E+01  0.51100000000E-03 0.  1.
         12    1    4    4    0    0 -0.44324450842E+01  0.20353973855E+02  0.38100170307E+02  0.43422963954E+02  0.00000000000E+00 0. -1.
</event>
<event>
 8    1  0.2458065E-006  0.9118800E+02  0.7816164E-02  0.1184000E+00
        -11   -1    0    0    0    0  0.00000000000E+00  0.00000000000E+00  0.45593999997E+02  0.45594000000E+02  0.51100000000E-03 0.  1.
         11   -1    0    0    0    0 -0.00000000000E+00 -0.00000000000E+00 -0.45593999997E+02  0.45594000000E+02  0.51100000000E-03 0. -1.
         23    2    1    2    0    0  0.00000000000E+00  0.00000000000E+00  0.00000000000E+00  0.91188000000E+02  0.91188000000E+02 0.  0.
    9900012    2    3    3    0    0 -0.35233894337E+02  0.67565831728E+01  0.82886468395E+01  0.54367076699E+02  0.39999982951E+02 0.  0.
        -12    1    3    3    0    0  0.35233894337E+02 -0.67565831728E+01 -0.82886468395E+01  0.36820923301E+02  0.00000000000E+00 0.  1.
         11    1    4    4    0    0 -0.13216998549E+02 -0.43185640675E+01  0.94815275449E+01  0.16829688384E+02  0.51100000000E-03 0. -1.
        -11    1    4    4    0    0 -0.57868280185E+00 -0.70721510282E+01  0.51185524434E+01  0.87492727314E+01  0.51100000000E-03 0.  1.
         12    1    4    4    0    0 -0.21438212986E+02  0.18147298269E+02 -0.63114331488E+01  0.28788115584E+02  0.00000000000E+00 0. -1.
</event>
<event>
 8    1  0.2458065E-006  0.9118800E+02  0.7816164E-02  0.1184000E+00
        -11   -1    0    0    0    0  0.00000000000E+00  0.00000000000E+00  0.45593999997E+02  0.45594000000E+02  0.51100000000E-03 0.  1.
         11   -1    0    0    0    0 -0.00000000000E+00 -0.00000000000E+00 -0.45593999997E+02  0.45594000000E+02  0.51100000000E-03 0. -1.
         23    2    1    2    0    0  0.00000000000E+00  0.00000000000E+00  0.17763568394E-14  0.91188000000E+02  0.91188000000E+02 0.  0.
    9900012    2    3    3    0    0  0.33582471469E+02  0.29477554494E+01  0.14809058942E+02  0.54367083677E+02  0.39999998858E+02 0.  0.
         12    1    3    3    0    0 -0.33582471469E+02 -0.29477554494E+01 -0.14809058942E+02  0.36820916323E+02  0.00000000000E+00 0. -1.
         11    1    4    4    0    0  0.19003504299E+02 -0.13964931746E+02  0.10553785565E+02  0.25836696467E+02  0.51100000000E-03 0. -1.
        -11    1    4    4    0    0  0.12461465225E+02  0.20374816987E+02  0.50078208370E+01  0.24402859517E+02  0.51100000000E-03 0.  1.
        -12    1    4    4    0    0  0.21175019447E+01 -0.34621297912E+01 -0.75254745932E+00  0.41275276929E+01  0.00000000000E+00 0.  1.
</event>
<event>
 8    1  0.2458065E-006  0.9118800E+02  0.7816164E-02  0.1184000E+00
        -11   -1    0    0    0    0  0.00000000000E+00  0.00000000000E+00  0.45593999997E+02  0.45594000000E+02  0.51100000000E-03 0.  1.
         11   -1    0    0    0    0 -0.00000000000E+00 -0.00000000000E+00 -0.45593999997E+02  0.45594000000E+02  0.51100000000E-03 0. -1.
         23    2    1    2    0    0 -0.22204460493E-15  0.00000000000E+00  0.00000000000E+00  0.91188000000E+02  0.91188000000E+02 0.  0.
    9900012    2    3    3    0    0 -0.18288769582E+01  0.19329846473E+02 -0.31285651526E+02  0.54367085467E+02  0.40000002940E+02 0.  0.
        -12    1    3    3    0    0  0.18288769582E+01 -0.19329846473E+02  0.31285651526E+02  0.36820914533E+02  0.00000000000E+00 0.  1.
         11    1    4    4    0    0 -0.13617585438E+01  0.75320918954E+01 -0.15251393525E+02  0.17064342923E+02  0.51100000000E-03 0. -1.
        -11    1    4    4    0    0  0.12650800256E+02  0.80102373924E+01 -0.18103068608E+02  0.23493142478E+02  0.51100000000E-03 0.  1.
        -12    1    4    4    0    0 -0.13117918670E+02  0.37875171850E+01  0.20688106075E+01  0.13809600067E+02  0.00000000000E+00 0.  1.
</event>
<event>
 8    1  0.2458065E-006  0.9118800E+02  0.7816164E-02  0.1184000E+00
        -11   -1    0    0    0    0  0.00000000000E+00  0.00000000000E+00  0.45593999997E+02  0.45594000000E+02  0.51100000000E-03 0.  1.
         11   -1    0    0    0    0 -0.00000000000E+00 -0.00000000000E+00 -0.45593999997E+02  0.45594000000E+02  0.51100000000E-03 0. -1.
         23    2    1    2    0    0  0.00000000000E+00  0.00000000000E+00  0.00000000000E+00  0.91188000000E+02  0.91188000000E+02 0.  0.
    9900012    2    3    3    0    0 -0.33159311479E+02  0.11234167952E+02  0.11403219648E+02  0.54367083585E+02  0.39999998648E+02 0.  0.
         12    1    3    3    0    0  0.33159311479E+02 -0.11234167952E+02 -0.11403219648E+02  0.36820916415E+02  0.00000000000E+00 0. -1.
         11    1    4    4    0    0 -0.23658491545E+02  0.35170179172E+01 -0.53939086449E+01  0.24519133100E+02  0.51100000000E-03 0. -1.
        -11    1    4    4    0    0 -0.13258271617E+02  0.31880734631E+01  0.18211710436E+01  0.13757261461E+02  0.51100000000E-03 0.  1.
        -12    1    4    4    0    0  0.37574516832E+01  0.45290765713E+01  0.14975957250E+02  0.16090689025E+02  0.00000000000E+00 0.  1.
</event>
<event>
 8    1  0.2458065E-006  0.9118800E+02  0.7816164E-02  0.1184000E+00
        -11   -1    0    0    0    0  0.00000000000E+00  0.00000000000E+00  0.45593999997E+02  0.45594000000E+02  0.51100000000E-03 0.  1.
         11   -1    0    0    0    0 -0.00000000000E+00 -0.00000000000E+00 -0.45593999997E+02  0.45594000000E+02  0.51100000000E-03 0. -1.
         23    2    1    2    0    0  0.00000000000E+00 -0.35527136788E-14 -0.44408920985E-15  0.91188000000E+02  0.91188000000E+02 0.  0.
    9900012    2    3    3    0    0  0.21309838669E+02 -0.29930885186E+02  0.24113201265E+01  0.54367060620E+02  0.39999946295E+02 0.  0.
         12    1    3    3    0    0 -0.21309838669E+02  0.29930885186E+02 -0.24113201265E+01  0.36820939380E+02  0.00000000000E+00 0. -1.
         11    1    4    4    0    0 -0.10524753032E+01 -0.43171396528E+01 -0.27347195501E+01  0.52176709675E+01  0.51100000000E-03 0. -1.
        -11    1    4    4    0    0  0.15540728001E+02  0.54322892410E+01 -0.19572403765E+01  0.16578744927E+02  0.51100000000E-03 0.  1.
        -12    1    4    4    0    0  0.68215859709E+01 -0.31046034774E+02  0.71032800531E+01  0.32570644726E+02  0.00000000000E+00 0.  1.
</event>
<event>
 8    1  0.2458065E-006  0.9118800E+02  0.7816164E-02  0.1184000E+00
        -11   -1    0    0    0    0  0.00000000000E+00  0.00000000000E+00  0.45593999997E+02  0.45594000000E+02  0.51100000000E-03 0. -1.
         11   -1    0    0    0    0 -0.00000000000E+00 -0.00000000000E+00 -0.45593999997E+02  0.45594000000E+02  0.51100000000E-03 0.  1.
         23    2    1    2    0    0 -0.22204460493E-15 -0.35527136788E-14  0.00000000000E+00  0.91188000000E+02  0.91188000000E+02 0.  0.
    9900012    2    3    3    0    0  0.12707729612E+01  0.23336300744E+02  0.28453090702E+02  0.54367134083E+02  0.40000113770E+02 0.  0.
        -12    1    3    3    0    0 -0.12707729612E+01 -0.23336300744E+02 -0.28453090702E+02  0.36820865917E+02  0.00000000000E+00 0.  1.
         11    1    4    4    0    0  0.10581902236E+02  0.59617076342E+01  0.14835973904E+02  0.19173542573E+02  0.51100000000E-03 0. -1.
        -11    1    4    4    0    0 -0.11355195954E+02  0.35005104153E+01  0.17024996314E+02  0.20761612367E+02  0.51100000000E-03 0.  1.
        -12    1    4    4    0    0  0.20440666789E+01  0.13874082695E+02 -0.34078795159E+01  0.14431979144E+02  0.00000000000E+00 0.  1.
</event>
<event>
 8    1  0.2458065E-006  0.9118800E+02  0.7816164E-02  0.1184000E+00
        -11   -1    0    0    0    0  0.00000000000E+00  0.00000000000E+00  0.45593999997E+02  0.45594000000E+02  0.51100000000E-03 0. -1.
         11   -1    0    0    0    0 -0.00000000000E+00 -0.00000000000E+00 -0.45593999997E+02  0.45594000000E+02  0.51100000000E-03 0.  1.
         23    2    1    2    0    0 -0.44408920985E-14  0.35527136788E-14  0.00000000000E+00  0.91188000000E+02  0.91188000000E+02 0.  0.
    9900012    2    3    3    0    0 -0.53278635971E+01  0.91174385963E+01 -0.35274145714E+02  0.54367093263E+02  0.40000020712E+02 0.  0.
         12    1    3    3    0    0  0.53278635971E+01 -0.91174385963E+01  0.35274145714E+02  0.36820906737E+02  0.00000000000E+00 0. -1.
         11    1    4    4    0    0 -0.40118994697E+01 -0.98054794411E+00  0.86904751377E+00  0.42204330901E+01  0.51100000000E-03 0. -1.
        -11    1    4    4    0    0  0.11708921259E+02 -0.41903508328E+01 -0.24767298907E+02  0.27714201640E+02  0.51100000000E-03 0.  1.
        -12    1    4    4    0    0 -0.13024885386E+02  0.14288337373E+02 -0.11375894321E+02  0.22432458533E+02  0.00000000000E+00 0.  1.
</event>
<event>
 8    1  0.2458065E-006  0.9118800E+02  0.7816164E-02  0.1184000E+00
        -11   -1    0    0    0    0  0.00000000000E+00  0.00000000000E+00  0.45593999997E+02  0.45594000000E+02  0.51100000000E-03 0.  1.
         11   -1    0    0    0    0 -0.00000000000E+00 -0.00000000000E+00 -0.45593999997E+02  0.45594000000E+02  0.51100000000E-03 0. -1.
         23    2    1    2    0    0 -0.88817841970E-15  0.00000000000E+00 -0.35527136788E-14  0.91188000000E+02  0.91188000000E+02 0.  0.
    9900012    2    3    3    0    0 -0.47632994156E+01 -0.24442685941E+02  0.27122810332E+02  0.54367071744E+02  0.39999971655E+02 0.  0.
         12    1    3    3    0    0  0.47632994156E+01  0.24442685941E+02 -0.27122810332E+02  0.36820928256E+02  0.00000000000E+00 0. -1.
         11    1    4    4    0    0 -0.12687706229E+02 -0.29608913285E+01  0.68157948809E+01  0.14703735135E+02  0.51100000000E-03 0. -1.
        -11    1    4    4    0    0 -0.62202149926E+01 -0.67246761697E+01  0.16497650222E+02  0.18870209518E+02  0.51100000000E-03 0.  1.
        -12    1    4    4    0    0  0.14144621806E+02 -0.14757118443E+02  0.38093652295E+01  0.20793127091E+02  0.00000000000E+00 0.  1.
</event>
<event>
 8    1  0.2458065E-006  0.9118800E+02  0.7816164E-02  0.1184000E+00
        -11   -1    0    0    0    0  0.00000000000E+00  0.00000000000E+00  0.45593999997E+02  0.45594000000E+02  0.51100000000E-03 0.  1.
         11   -1    0    0    0    0 -0.00000000000E+00 -0.00000000000E+00 -0.45593999997E+02  0.45594000000E+02  0.51100000000E-03 0. -1.
         23    2    1    2    0    0 -0.17763568394E-14  0.00000000000E+00  0.00000000000E+00  0.91188000000E+02  0.91188000000E+02 0.  0.
    9900012    2    3    3    0    0 -0.12384188312E+02  0.28349520099E+02  0.19967899795E+02  0.54367076163E+02  0.39999981729E+02 0.  0.
         12    1    3    3    0    0  0.12384188312E+02 -0.28349520099E+02 -0.19967899795E+02  0.36820923837E+02  0.00000000000E+00 0. -1.
         11    1    4    4    0    0  0.98648091551E+01  0.91048607601E+01  0.14403090382E+02  0.19689133092E+02  0.51100000000E-03 0. -1.
        -11    1    4    4    0    0  0.40836516429E+00 -0.20379777087E+01  0.27756160958E+01  0.34675870892E+01  0.51100000000E-03 0.  1.
         12    1    4    4    0    0 -0.22657362631E+02  0.21282637048E+02  0.27891933172E+01  0.31210355981E+02  0.00000000000E+00 0. -1.
</event>
<event>
 8    1  0.2458065E-006  0.9118800E+02  0.7816164E-02  0.1184000E+00
        -11   -1    0    0    0    0  0.00000000000E+00  0.00000000000E+00  0.45593999997E+02  0.45594000000E+02  0.51100000000E-03 0.  1.
         11   -1    0    0    0    0 -0.00000000000E+00 -0.00000000000E+00 -0.45593999997E+02  0.45594000000E+02  0.51100000000E-03 0. -1.
         23    2    1    2    0    0 -0.35527136788E-14 -0.17763568394E-14  0.00000000000E+00  0.91188000000E+02  0.91188000000E+02 0.  0.
    9900012    2    3    3    0    0  0.31523903249E+02  0.14288080161E+02 -0.12564795569E+02  0.54367084769E+02  0.40000001349E+02 0.  0.
        -12    1    3    3    0    0 -0.31523903249E+02 -0.14288080161E+02  0.12564795569E+02  0.36820915231E+02  0.00000000000E+00 0.  1.
         11    1    4    4    0    0  0.25227235526E+02  0.15846465879E+02  0.36527683336E+01  0.30014440023E+02  0.51100000000E-03 0. -1.
        -11    1    4    4    0    0  0.90737930535E+01  0.46235864401E+01 -0.52432178458E+01  0.11454370589E+02  0.51100000000E-03 0.  1.
        -12    1    4    4    0    0 -0.27771253306E+01 -0.61819721584E+01 -0.10974346056E+02  0.12898274157E+02  0.00000000000E+00 0.  1.
</event>
<event>
 8    1  0.2458065E-006  0.9118800E+02  0.7816164E-02  0.1184000E+00
        -11   -1    0    0    0    0  0.00000000000E+00  0.00000000000E+00  0.45593999997E+02  0.45594000000E+02  0.51100000000E-03 0.  1.
         11   -1    0    0    0    0 -0.00000000000E+00 -0.00000000000E+00 -0.45593999997E+02  0.45594000000E+02  0.51100000000E-03 0. -1.
         23    2    1    2    0    0  0.44408920985E-15  0.00000000000E+00  0.00000000000E+00  0.91188000000E+02  0.91188000000E+02 0.  0.
    9900012    2    3    3    0    0 -0.28980035842E+01  0.30591092117E+02 -0.20287137365E+02  0.54367064595E+02  0.39999955356E+02 0.  0.
        -12    1    3    3    0    0  0.28980035842E+01 -0.30591092117E+02  0.20287137365E+02  0.36820935405E+02  0.00000000000E+00 0.  1.
         11    1    4    4    0    0  0.64213779163E+01  0.76926643838E+01  0.19547554981E+01  0.10209419620E+02  0.51100000000E-03 0. -1.
        -11    1    4    4    0    0  0.63513902669E+00 -0.67803288955E+01 -0.32792130564E+01  0.75584059196E+01  0.51100000000E-03 0.  1.
         12    1    4    4    0    0 -0.99545205272E+01  0.29678756628E+02 -0.18962679807E+02  0.36599239055E+02  0.00000000000E+00 0. -1.
</event>
<event>
 8    1  0.2458065E-006  0.9118800E+02  0.7816164E-02  0.1184000E+00
        -11   -1    0    0    0    0  0.00000000000E+00  0.00000000000E+00  0.45593999997E+02  0.45594000000E+02  0.51100000000E-03 0. -1.
         11   -1    0    0    0    0 -0.00000000000E+00 -0.00000000000E+00 -0.45593999997E+02  0.45594000000E+02  0.51100000000E-03 0.  1.
         23    2    1    2    0    0  0.00000000000E+00  0.35527136788E-14  0.35527136788E-14  0.91188000000E+02  0.91188000000E+02 0.  0.
    9900012    2    3    3    0    0  0.11739307813E+02  0.24826732252E+02  0.24527625534E+02  0.54367049488E+02  0.39999920918E+02 0.  0.
        -12    1    3    3    0    0 -0.11739307813E+02 -0.24826732252E+02 -0.24527625534E+02  0.36820950512E+02  0.00000000000E+00 0.  1.
         11    1    4    4    0    0 -0.37790846843E+01  0.65281302510E+01  0.41825316268E+01  0.86250528518E+01  0.51100000000E-03 0.  1.
        -11    1    4    4    0    0  0.29115339854E+01  0.18876655949E+02  0.25710531328E+02  0.32028683885E+02  0.51100000000E-03 0. -1.
        -12    1    4    4    0    0  0.12606858512E+02 -0.57805394837E+00 -0.53654374203E+01  0.13713312751E+02  0.00000000000E+00 0.  1.
</event>
<event>
 8    1  0.2458065E-006  0.9118800E+02  0.7816164E-02  0.1184000E+00
        -11   -1    0    0    0    0  0.00000000000E+00  0.00000000000E+00  0.45593999997E+02  0.45594000000E+02  0.51100000000E-03 0. -1.
         11   -1    0    0    0    0 -0.00000000000E+00 -0.00000000000E+00 -0.45593999997E+02  0.45594000000E+02  0.51100000000E-03 0.  1.
         23    2    1    2    0    0  0.00000000000E+00  0.35527136788E-14  0.17763568394E-14  0.91188000000E+02  0.91188000000E+02 0.  0.
    9900012    2    3    3    0    0  0.23135827977E+02  0.26952389134E+02  0.96994705899E+01  0.54367115356E+02  0.40000071078E+02 0.  0.
        -12    1    3    3    0    0 -0.23135827977E+02 -0.26952389134E+02 -0.96994705899E+01  0.36820884644E+02  0.00000000000E+00 0.  1.
         11    1    4    4    0    0  0.15335605964E+02  0.18956140657E+02  0.19324549137E+01  0.24459159043E+02  0.51100000000E-03 0.  1.
        -11    1    4    4    0    0  0.15425247506E+02  0.39605933163E+01  0.12337026505E+02  0.20145142921E+02  0.51100000000E-03 0. -1.
        -12    1    4    4    0    0 -0.76250254930E+01  0.40356551617E+01 -0.45700108290E+01  0.97628133921E+01  0.00000000000E+00 0.  1.
</event>
<event>
 8    1  0.2458065E-006  0.9118800E+02  0.7816164E-02  0.1184000E+00
        -11   -1    0    0    0    0  0.00000000000E+00  0.00000000000E+00  0.45593999997E+02  0.45594000000E+02  0.51100000000E-03 0. -1.
         11   -1    0    0    0    0 -0.00000000000E+00 -0.00000000000E+00 -0.45593999997E+02  0.45594000000E+02  0.51100000000E-03 0.  1.
         23    2    1    2    0    0  0.00000000000E+00 -0.71054273576E-14  0.00000000000E+00  0.91188000000E+02  0.91188000000E+02 0.  0.
    9900012    2    3    3    0    0 -0.16050664865E+02  0.29613148196E+02  0.14873394289E+02  0.54367078687E+02  0.39999987482E+02 0.  0.
        -12    1    3    3    0    0  0.16050664865E+02 -0.29613148196E+02 -0.14873394289E+02  0.36820921313E+02  0.00000000000E+00 0.  1.
         11    1    4    4    0    0 -0.26781402022E+01  0.12202437721E+02  0.24939487220E+01  0.12739376035E+02  0.51100000000E-03 0. -1.
        -11    1    4    4    0    0  0.97554245810E+01  0.42764143252E+01  0.10511650377E+02  0.14964986540E+02  0.51100000000E-03 0.  1.
        -12    1    4    4    0    0 -0.23127949244E+02  0.13134296150E+02  0.18677951904E+01  0.26662716112E+02  0.00000000000E+00 0.  1.
</event>
<event>
 8    1  0.2458065E-006  0.9118800E+02  0.7816164E-02  0.1184000E+00
        -11   -1    0    0    0    0  0.00000000000E+00  0.00000000000E+00  0.45593999997E+02  0.45594000000E+02  0.51100000000E-03 0.  1.
         11   -1    0    0    0    0 -0.00000000000E+00 -0.00000000000E+00 -0.45593999997E+02  0.45594000000E+02  0.51100000000E-03 0. -1.
         23    2    1    2    0    0  0.00000000000E+00  0.44408920985E-15  0.00000000000E+00  0.91188000000E+02  0.91188000000E+02 0.  0.
    9900012    2    3    3    0    0  0.10807351725E+02 -0.29515301394E+01  0.35075207629E+02  0.54367074269E+02  0.39999977411E+02 0.  0.
         12    1    3    3    0    0 -0.10807351725E+02  0.29515301394E+01 -0.35075207629E+02  0.36820925731E+02  0.00000000000E+00 0. -1.
         11    1    4    4    0    0 -0.52374361428E+01 -0.69377140733E+01  0.18155594204E+02  0.20129287495E+02  0.51100000000E-03 0. -1.
        -11    1    4    4    0    0  0.21219710306E+02  0.22744514892E+01  0.18831216348E+02  0.28461622308E+02  0.51100000000E-03 0.  1.
        -12    1    4    4    0    0 -0.51749224377E+01  0.17117324447E+01 -0.19116029226E+01  0.57761644655E+01  0.00000000000E+00 0.  1.
</event>
<event>
 8    1  0.2458065E-006  0.9118800E+02  0.7816164E-02  0.1184000E+00
        -11   -1    0    0    0    0  0.00000000000E+00  0.00000000000E+00  0.45593999997E+02  0.45594000000E+02  0.51100000000E-03 0.  1.
         11   -1    0    0    0    0 -0.00000000000E+00 -0.00000000000E+00 -0.45593999997E+02  0.45594000000E+02  0.51100000000E-03 0. -1.
         23    2    1    2    0    0 -0.35527136788E-14  0.17763568394E-14  0.71054273576E-14  0.91188000000E+02  0.91188000000E+02 0.  0.
    9900012    2    3    3    0    0  0.21488267639E+02 -0.92815744305E+01 -0.28423354799E+02  0.54367077034E+02  0.39999983715E+02 0.  0.
        -12    1    3    3    0    0 -0.21488267639E+02  0.92815744305E+01  0.28423354799E+02  0.36820922966E+02  0.00000000000E+00 0.  1.
         11    1    4    4    0    0  0.40995885571E+01  0.20164251475E+01 -0.71567507795E+01  0.84906818745E+01  0.51100000000E-03 0. -1.
        -11    1    4    4    0    0  0.98522046192E+00 -0.10810313802E+02  0.71946107082E+01  0.13022901649E+02  0.51100000000E-03 0.  1.
        -12    1    4    4    0    0  0.16403458620E+02 -0.48768577593E+00 -0.28461214727E+02  0.32853493511E+02  0.00000000000E+00 0.  1.
</event>
<event>
 8    1  0.2458065E-006  0.9118800E+02  0.7816164E-02  0.1184000E+00
        -11   -1    0    0    0    0  0.00000000000E+00  0.00000000000E+00  0.45593999997E+02  0.45594000000E+02  0.51100000000E-03 0.  1.
         11   -1    0    0    0    0 -0.00000000000E+00 -0.00000000000E+00 -0.45593999997E+02  0.45594000000E+02  0.51100000000E-03 0. -1.
         23    2    1    2    0    0 -0.35527136788E-14  0.00000000000E+00  0.00000000000E+00  0.91188000000E+02  0.91188000000E+02 0.  0.
    9900012    2    3    3    0    0  0.24944687283E+02  0.23962296750E+02 -0.12623344247E+02  0.54367110424E+02  0.40000059834E+02 0.  0.
        -12    1    3    3    0    0 -0.24944687283E+02 -0.23962296750E+02  0.12623344247E+02  0.36820889576E+02  0.00000000000E+00 0.  1.
         11    1    4    4    0    0 -0.11438009388E+01  0.16441658388E+01 -0.57913104133E+01  0.61278738937E+01  0.51100000000E-03 0. -1.
        -11    1    4    4    0    0 -0.40555777855E+01 -0.54123123372E+01 -0.36727390836E+00  0.67731622153E+01  0.51100000000E-03 0.  1.
         12    1    4    4    0    0  0.30144066007E+02  0.27730443249E+02 -0.64647599250E+01  0.41466074315E+02  0.00000000000E+00 0. -1.
</event>
<event>
 8    1  0.2458065E-006  0.9118800E+02  0.7816164E-02  0.1184000E+00
        -11   -1    0    0    0    0  0.00000000000E+00  0.00000000000E+00  0.45593999997E+02  0.45594000000E+02  0.51100000000E-03 0. -1.
         11   -1    0    0    0    0 -0.00000000000E+00 -0.00000000000E+00 -0.45593999997E+02  0.45594000000E+02  0.51100000000E-03 0.  1.
         23    2    1    2    0    0  0.35527136788E-14  0.00000000000E+00  0.17763568394E-14  0.91188000000E+02  0.91188000000E+02 0.  0.
    9900012    2    3    3    0    0 -0.28998912305E+02 -0.16989047549E+02  0.15040538756E+02  0.54367048660E+02  0.39999919031E+02 0.  0.
        -12    1    3    3    0    0  0.28998912305E+02  0.16989047549E+02 -0.15040538756E+02  0.36820951340E+02  0.00000000000E+00 0.  1.
         11    1    4    4    0    0 -0.15365594032E+02 -0.89475935339E+00  0.14364238733E+02  0.21053109720E+02  0.51100000000E-03 0. -1.
        -11    1    4    4    0    0  0.24174917239E+01 -0.77937209191E+01 -0.95415882551E+01  0.12555009307E+02  0.51100000000E-03 0.  1.
        -12    1    4    4    0    0 -0.16050809997E+02 -0.83005672770E+01  0.10217888278E+02  0.20758929634E+02  0.00000000000E+00 0.  1.
</event>
<event>
 8    1  0.2458065E-006  0.9118800E+02  0.7816164E-02  0.1184000E+00
        -11   -1    0    0    0    0  0.00000000000E+00  0.00000000000E+00  0.45593999997E+02  0.45594000000E+02  0.51100000000E-03 0. -1.
         11   -1    0    0    0    0 -0.00000000000E+00 -0.00000000000E+00 -0.45593999997E+02  0.45594000000E+02  0.51100000000E-03 0.  1.
         23    2    1    2    0    0  0.00000000000E+00 -0.17763568394E-14  0.00000000000E+00  0.91188000000E+02  0.91188000000E+02 0.  0.
    9900012    2    3    3    0    0 -0.12888188602E+02 -0.11446695447E+02  0.32536861198E+02  0.54367087753E+02  0.40000008150E+02 0.  0.
        -12    1    3    3    0    0  0.12888188602E+02  0.11446695447E+02 -0.32536861198E+02  0.36820912247E+02  0.00000000000E+00 0.  1.
         11    1    4    4    0    0  0.39679790969E+01  0.63969265228E-01 -0.76445510046E+01  0.86132520283E+01  0.51100000000E-03 0. -1.
        -11    1    4    4    0    0 -0.80055690825E+01 -0.91578971734E+00  0.15763079546E+02  0.17703177234E+02  0.51100000000E-03 0.  1.
         12    1    4    4    0    0 -0.88505986167E+01 -0.10594874995E+02  0.24418332656E+02  0.28050658490E+02  0.00000000000E+00 0. -1.
</event>
<event>
 8    1  0.2458065E-006  0.9118800E+02  0.7816164E-02  0.1184000E+00
        -11   -1    0    0    0    0  0.00000000000E+00  0.00000000000E+00  0.45593999997E+02  0.45594000000E+02  0.51100000000E-03 0.  1.
         11   -1    0    0    0    0 -0.00000000000E+00 -0.00000000000E+00 -0.45593999997E+02  0.45594000000E+02  0.51100000000E-03 0. -1.
         23    2    1    2    0    0 -0.71054273576E-14  0.44408920985E-15 -0.12490009027E-15  0.91188000000E+02  0.91188000000E+02 0.  0.
    9900012    2    3    3    0    0 -0.36754597199E+02  0.22058420132E+01 -0.11841299524E+00  0.54367079644E+02  0.39999989664E+02 0.  0.
        -12    1    3    3    0    0  0.36754597199E+02 -0.22058420132E+01  0.11841299524E+00  0.36820920356E+02  0.00000000000E+00 0.  1.
         11    1    4    4    0    0 -0.26339180971E+02 -0.97864975923E+01 -0.78175505157E+01  0.29165769074E+02  0.51100000000E-03 0. -1.
        -11    1    4    4    0    0  0.35829709357E+01  0.52371899510E+01  0.72734666988E+01  0.96524171785E+01  0.51100000000E-03 0.  1.
         12    1    4    4    0    0 -0.13998387164E+02  0.67551496546E+01  0.42567082164E+00  0.15548893391E+02  0.00000000000E+00 0. -1.
</event>
<event>
 8    1  0.2458065E-006  0.9118800E+02  0.7816164E-02  0.1184000E+00
        -11   -1    0    0    0    0  0.00000000000E+00  0.00000000000E+00  0.45593999997E+02  0.45594000000E+02  0.51100000000E-03 0.  1.
         11   -1    0    0    0    0 -0.00000000000E+00 -0.00000000000E+00 -0.45593999997E+02  0.45594000000E+02  0.51100000000E-03 0. -1.
         23    2    1    2    0    0  0.00000000000E+00 -0.66613381478E-15 -0.35527136788E-14  0.91188000000E+02  0.91188000000E+02 0.  0.
    9900012    2    3    3    0    0  0.34901992493E+02 -0.16072874460E+01  0.11620983246E+02  0.54367086044E+02  0.40000004255E+02 0.  0.
         12    1    3    3    0    0 -0.34901992493E+02  0.16072874460E+01 -0.11620983246E+02  0.36820913956E+02  0.00000000000E+00 0. -1.
         11    1    4    4    0    0  0.33232337011E+01 -0.63145802051E+01  0.12254946845E+02  0.14181027037E+02  0.51100000000E-03 0. -1.
        -11    1    4    4    0    0  0.34281900434E+01  0.42857767554E+01  0.89048910886E+01  0.10460279869E+02  0.51100000000E-03 0.  1.
        -12    1    4    4    0    0  0.28150568749E+02  0.42151600361E+00 -0.95388546873E+01  0.29725779138E+02  0.00000000000E+00 0.  1.
</event>
<event>
 8    1  0.2458065E-006  0.9118800E+02  0.7816164E-02  0.1184000E+00
        -11   -1    0    0    0    0  0.00000000000E+00  0.00000000000E+00  0.45593999997E+02  0.45594000000E+02  0.51100000000E-03 0.  1.
         11   -1    0    0    0    0 -0.00000000000E+00 -0.00000000000E+00 -0.45593999997E+02  0.45594000000E+02  0.51100000000E-03 0. -1.
         23    2    1    2    0    0  0.00000000000E+00  0.35527136788E-14  0.00000000000E+00  0.91188000000E+02  0.91188000000E+02 0.  0.
    9900012    2    3    3    0    0 -0.18233328866E+02 -0.30399845861E+02  0.99585682498E+01  0.54367109306E+02  0.40000057286E+02 0.  0.
        -12    1    3    3    0    0  0.18233328866E+02  0.30399845861E+02 -0.99585682498E+01  0.36820890694E+02  0.00000000000E+00 0.  1.
         11    1    4    4    0    0 -0.14044453528E+02 -0.24650757491E+02 -0.37053204244E+00  0.28373294029E+02  0.51100000000E-03 0. -1.
        -11    1    4    4    0    0  0.83774153487E+01  0.21288602780E+01  0.60726076499E+01  0.10563602508E+02  0.51100000000E-03 0.  1.
        -12    1    4    4    0    0 -0.12566290687E+02 -0.78779486473E+01  0.42564926423E+01  0.15430212770E+02  0.00000000000E+00 0.  1.
</event>
<event>
 8    1  0.2458065E-006  0.9118800E+02  0.7816164E-02  0.1184000E+00
        -11   -1    0    0    0    0  0.00000000000E+00  0.00000000000E+00  0.45593999997E+02  0.45594000000E+02  0.51100000000E-03 0.  1.
         11   -1    0    0    0    0 -0.00000000000E+00 -0.00000000000E+00 -0.45593999997E+02  0.45594000000E+02  0.51100000000E-03 0. -1.
         23    2    1    2    0    0 -0.88817841970E-15  0.35527136788E-14  0.00000000000E+00  0.91188000000E+02  0.91188000000E+02 0.  0.
    9900012    2    3    3    0    0 -0.73174197186E+01  0.23094232077E+02 -0.27728888228E+02  0.54367089787E+02  0.40000012787E+02 0.  0.
        -12    1    3    3    0    0  0.73174197186E+01 -0.23094232077E+02  0.27728888228E+02  0.36820910213E+02  0.00000000000E+00 0.  1.
         11    1    4    4    0    0 -0.63130421874E+01 -0.22462729252E+01 -0.29396405259E+01  0.73172214943E+01  0.51100000000E-03 0. -1.
        -11    1    4    4    0    0  0.47581626377E+01 -0.58172225168E+01 -0.13477606307E+01  0.76352241929E+01  0.51100000000E-03 0.  1.
        -12    1    4    4    0    0 -0.57625401690E+01  0.31157727519E+02 -0.23441487072E+02  0.39414644099E+02  0.00000000000E+00 0.  1.
</event>
<event>
 8    1  0.2458065E-006  0.9118800E+02  0.7816164E-02  0.1184000E+00
        -11   -1    0    0    0    0  0.00000000000E+00  0.00000000000E+00  0.45593999997E+02  0.45594000000E+02  0.51100000000E-03 0. -1.
         11   -1    0    0    0    0 -0.00000000000E+00 -0.00000000000E+00 -0.45593999997E+02  0.45594000000E+02  0.51100000000E-03 0.  1.
         23    2    1    2    0    0 -0.35527136788E-14  0.00000000000E+00 -0.35527136788E-14  0.91188000000E+02  0.91188000000E+02 0.  0.
    9900012    2    3    3    0    0 -0.25795437838E+02  0.11237769050E+02  0.23750545693E+02  0.54367075416E+02  0.39999980027E+02 0.  0.
        -12    1    3    3    0    0  0.25795437838E+02 -0.11237769050E+02 -0.23750545693E+02  0.36820924584E+02  0.00000000000E+00 0.  1.
         11    1    4    4    0    0 -0.19952181135E+02  0.19569055601E+02  0.46097525169E+01  0.28324676303E+02  0.51100000000E-03 0. -1.
        -11    1    4    4    0    0  0.16966008958E+01  0.32383863142E+01  0.25556122651E+01  0.44605778583E+01  0.51100000000E-03 0.  1.
        -12    1    4    4    0    0 -0.75398575991E+01 -0.11569672865E+02  0.16585180911E+02  0.21581821255E+02  0.00000000000E+00 0.  1.
</event>
<event>
 8    1  0.2458065E-006  0.9118800E+02  0.7816164E-02  0.1184000E+00
        -11   -1    0    0    0    0  0.00000000000E+00  0.00000000000E+00  0.45593999997E+02  0.45594000000E+02  0.51100000000E-03 0.  1.
         11   -1    0    0    0    0 -0.00000000000E+00 -0.00000000000E+00 -0.45593999997E+02  0.45594000000E+02  0.51100000000E-03 0. -1.
         23    2    1    2    0    0  0.35527136788E-14  0.35527136788E-14 -0.35527136788E-14  0.91188000000E+02  0.91188000000E+02 0.  0.
    9900012    2    3    3    0    0 -0.12093756421E+02 -0.21512387558E+02  0.27326509167E+02  0.54367083850E+02  0.39999999254E+02 0.  0.
         12    1    3    3    0    0  0.12093756421E+02  0.21512387558E+02 -0.27326509167E+02  0.36820916150E+02  0.00000000000E+00 0. -1.
         11    1    4    4    0    0 -0.12015275353E+01 -0.10333186253E+02  0.11307082979E+02  0.15364521870E+02  0.51100000000E-03 0.  1.
        -11    1    4    4    0    0  0.51288621154E+01  0.75039245618E+01 -0.90373865756E+00  0.91340491705E+01  0.51100000000E-03 0. -1.
         12    1    4    4    0    0 -0.16021091001E+02 -0.18683125868E+02  0.16923164846E+02  0.29868512810E+02  0.00000000000E+00 0. -1.
</event>
<event>
 8    1  0.2458065E-006  0.9118800E+02  0.7816164E-02  0.1184000E+00
        -11   -1    0    0    0    0  0.00000000000E+00  0.00000000000E+00  0.45593999997E+02  0.45594000000E+02  0.51100000000E-03 0. -1.
         11   -1    0    0    0    0 -0.00000000000E+00 -0.00000000000E+00 -0.45593999997E+02  0.45594000000E+02  0.51100000000E-03 0.  1.
         23    2    1    2    0    0  0.00000000000E+00 -0.17763568394E-14 -0.15543122345E-14  0.91188000000E+02  0.91188000000E+02 0.  0.
    9900012    2    3    3    0    0 -0.34849495089E+02  0.11881813131E+02  0.34202424463E+00  0.54367057972E+02  0.39999940260E+02 0.  0.
        -12    1    3    3    0    0  0.34849495089E+02 -0.11881813131E+02 -0.34202424463E+00  0.36820942028E+02  0.00000000000E+00 0.  1.
         11    1    4    4    0    0 -0.82658681322E+00 -0.60098251905E+01  0.69024759305E+00  0.61055455596E+01  0.51100000000E-03 0. -1.
        -11    1    4    4    0    0 -0.16294765036E+02  0.17515748484E+02 -0.12277889525E+02  0.26889912309E+02  0.51100000000E-03 0.  1.
        -12    1    4    4    0    0 -0.17728143240E+02  0.37588983706E+00  0.11929666177E+02  0.21371600104E+02  0.00000000000E+00 0.  1.
</event>
<event>
 8    1  0.2458065E-006  0.9118800E+02  0.7816164E-02  0.1184000E+00
        -11   -1    0    0    0    0  0.00000000000E+00  0.00000000000E+00  0.45593999997E+02  0.45594000000E+02  0.51100000000E-03 0.  1.
         11   -1    0    0    0    0 -0.00000000000E+00 -0.00000000000E+00 -0.45593999997E+02  0.45594000000E+02  0.51100000000E-03 0. -1.
         23    2    1    2    0    0  0.00000000000E+00  0.00000000000E+00  0.88817841970E-15  0.91188000000E+02  0.91188000000E+02 0.  0.
    9900012    2    3    3    0    0 -0.73817713432E+01 -0.35579820088E+02 -0.59468958356E+01  0.54367085892E+02  0.40000003907E+02 0.  0.
        -12    1    3    3    0    0  0.73817713432E+01  0.35579820088E+02  0.59468958356E+01  0.36820914108E+02  0.00000000000E+00 0.  1.
         11    1    4    4    0    0  0.11349487140E+02 -0.14031337333E+02 -0.57227731785E+01  0.18932496371E+02  0.51100000000E-03 0. -1.
        -11    1    4    4    0    0  0.16494891131E+01 -0.12417645586E+02 -0.31349581661E+01  0.12913043762E+02  0.51100000000E-03 0.  1.
        -12    1    4    4    0    0 -0.20380747597E+02 -0.91308371689E+01  0.29108355091E+01  0.22521545759E+02  0.00000000000E+00 0.  1.
</event>
<event>
 8    1  0.2458065E-006  0.9118800E+02  0.7816164E-02  0.1184000E+00
        -11   -1    0    0    0    0  0.00000000000E+00  0.00000000000E+00  0.45593999997E+02  0.45594000000E+02  0.51100000000E-03 0.  1.
         11   -1    0    0    0    0 -0.00000000000E+00 -0.00000000000E+00 -0.45593999997E+02  0.45594000000E+02  0.51100000000E-03 0. -1.
         23    2    1    2    0    0 -0.35527136788E-14 -0.35527136788E-14  0.00000000000E+00  0.91188000000E+02  0.91188000000E+02 0.  0.
    9900012    2    3    3    0    0 -0.17732477897E+02 -0.31121187667E+02 -0.85320309878E+01  0.54367290515E+02  0.40000470385E+02 0.  0.
        -12    1    3    3    0    0  0.17732477897E+02  0.31121187667E+02  0.85320309878E+01  0.36820709485E+02  0.00000000000E+00 0.  1.
         11    1    4    4    0    0 -0.12454541301E+02 -0.20340219390E+02 -0.13148337129E+02  0.27234516581E+02  0.51100000000E-03 0. -1.
        -11    1    4    4    0    0  0.14528633299E+00 -0.11592291295E+02 -0.75176432959E+01  0.13817282170E+02  0.51100000000E-03 0.  1.
        -12    1    4    4    0    0 -0.54232229289E+01  0.81132301817E+00  0.12133949437E+02  0.13315491764E+02  0.00000000000E+00 0.  1.
</event>
<event>
 8    1  0.2458065E-006  0.9118800E+02  0.7816164E-02  0.1184000E+00
        -11   -1    0    0    0    0  0.00000000000E+00  0.00000000000E+00  0.45593999997E+02  0.45594000000E+02  0.51100000000E-03 0. -1.
         11   -1    0    0    0    0 -0.00000000000E+00 -0.00000000000E+00 -0.45593999997E+02  0.45594000000E+02  0.51100000000E-03 0.  1.
         23    2    1    2    0    0  0.00000000000E+00  0.00000000000E+00 -0.35527136788E-14  0.91188000000E+02  0.91188000000E+02 0.  0.
    9900012    2    3    3    0    0 -0.18787789153E+02  0.98648801467E+01  0.30091235507E+02  0.54367091050E+02  0.40000015667E+02 0.  0.
        -12    1    3    3    0    0  0.18787789153E+02 -0.98648801467E+01 -0.30091235507E+02  0.36820908950E+02  0.00000000000E+00 0.  1.
         11    1    4    4    0    0 -0.76827019851E+01  0.75515928029E+01  0.24972428949E+01  0.11058331067E+02  0.51100000000E-03 0. -1.
        -11    1    4    4    0    0  0.40146252045E+01  0.92333101213E+01 -0.11171541836E+01  0.10130116735E+02  0.51100000000E-03 0.  1.
         12    1    4    4    0    0 -0.15119712372E+02 -0.69200227775E+01  0.28711146796E+02  0.33178643248E+02  0.00000000000E+00 0. -1.
</event>
<event>
 8    1  0.2458065E-006  0.9118800E+02  0.7816164E-02  0.1184000E+00
        -11   -1    0    0    0    0  0.00000000000E+00  0.00000000000E+00  0.45593999997E+02  0.45594000000E+02  0.51100000000E-03 0. -1.
         11   -1    0    0    0    0 -0.00000000000E+00 -0.00000000000E+00 -0.45593999997E+02  0.45594000000E+02  0.51100000000E-03 0.  1.
         23    2    1    2    0    0  0.00000000000E+00  0.00000000000E+00  0.00000000000E+00  0.91188000000E+02  0.91188000000E+02 0.  0.
    9900012    2    3    3    0    0 -0.36268538802E+02  0.52965266218E+01 -0.35096384868E+01  0.54367113762E+02  0.40000067442E+02 0.  0.
        -12    1    3    3    0    0  0.36268538802E+02 -0.52965266218E+01  0.35096384868E+01  0.36820886238E+02  0.00000000000E+00 0.  1.
         11    1    4    4    0    0 -0.34067234400E+01  0.90336816833E+01  0.54580507857E+01  0.11090693756E+02  0.51100000000E-03 0. -1.
        -11    1    4    4    0    0  0.38717353163E+01  0.24142102789E+01 -0.32339954009E+01  0.55926265872E+01  0.51100000000E-03 0.  1.
         12    1    4    4    0    0 -0.36733550678E+02 -0.61513653404E+01 -0.57336938717E+01  0.37683793418E+02  0.00000000000E+00 0. -1.
</event>
<event>
 8    1  0.2458065E-006  0.9118800E+02  0.7816164E-02  0.1184000E+00
        -11   -1    0    0    0    0  0.00000000000E+00  0.00000000000E+00  0.45593999997E+02  0.45594000000E+02  0.51100000000E-03 0.  1.
         11   -1    0    0    0    0 -0.00000000000E+00 -0.00000000000E+00 -0.45593999997E+02  0.45594000000E+02  0.51100000000E-03 0. -1.
         23    2    1    2    0    0  0.00000000000E+00 -0.99920072216E-15  0.00000000000E+00  0.91188000000E+02  0.91188000000E+02 0.  0.
    9900012    2    3    3    0    0  0.18987615141E+02 -0.47613009604E+00  0.31544003934E+02  0.54367076426E+02  0.39999982329E+02 0.  0.
         12    1    3    3    0    0 -0.18987615141E+02  0.47613009604E+00 -0.31544003934E+02  0.36820923574E+02  0.00000000000E+00 0. -1.
         11    1    4    4    0    0  0.87365726377E+01  0.69311425921E+01 -0.48318381052E+01  0.12153810054E+02  0.51100000000E-03 0. -1.
        -11    1    4    4    0    0 -0.43735651635E+01 -0.43006815001E+01  0.74343919912E+01  0.96381594791E+01  0.51100000000E-03 0.  1.
        -12    1    4    4    0    0  0.14624607667E+02 -0.31065911880E+01  0.28941450048E+02  0.32575106893E+02  0.00000000000E+00 0.  1.
</event>
<event>
 8    1  0.2458065E-006  0.9118800E+02  0.7816164E-02  0.1184000E+00
        -11   -1    0    0    0    0  0.00000000000E+00  0.00000000000E+00  0.45593999997E+02  0.45594000000E+02  0.51100000000E-03 0. -1.
         11   -1    0    0    0    0 -0.00000000000E+00 -0.00000000000E+00 -0.45593999997E+02  0.45594000000E+02  0.51100000000E-03 0.  1.
         23    2    1    2    0    0 -0.35527136788E-14  0.00000000000E+00  0.00000000000E+00  0.91188000000E+02  0.91188000000E+02 0.  0.
    9900012    2    3    3    0    0  0.12070208319E+02  0.19343275947E+01 -0.34732523832E+02  0.54367085239E+02  0.40000002420E+02 0.  0.
         12    1    3    3    0    0 -0.12070208319E+02 -0.19343275947E+01  0.34732523832E+02  0.36820914761E+02  0.00000000000E+00 0. -1.
         11    1    4    4    0    0 -0.72993931280E+01  0.33458367138E+01 -0.45449873316E+01  0.92267368802E+01  0.51100000000E-03 0. -1.
        -11    1    4    4    0    0  0.20645433638E+02 -0.10415848728E+02 -0.15408965188E+02  0.27787767871E+02  0.51100000000E-03 0.  1.
        -12    1    4    4    0    0 -0.12758321916E+01  0.90043396085E+01 -0.14778571312E+02  0.17352580488E+02  0.00000000000E+00 0.  1.
</event>
<event>
 8    1  0.2458065E-006  0.9118800E+02  0.7816164E-02  0.1184000E+00
        -11   -1    0    0    0    0  0.00000000000E+00  0.00000000000E+00  0.45593999997E+02  0.45594000000E+02  0.51100000000E-03 0.  1.
         11   -1    0    0    0    0 -0.00000000000E+00 -0.00000000000E+00 -0.45593999997E+02  0.45594000000E+02  0.51100000000E-03 0. -1.
         23    2    1    2    0    0  0.35527136788E-14  0.88817841970E-15  0.35527136788E-14  0.91188000000E+02  0.91188000000E+02 0.  0.
    9900012    2    3    3    0    0 -0.25091459879E+02 -0.64360792698E+01 -0.26168291268E+02  0.54367028487E+02  0.39999873042E+02 0.  0.
        -12    1    3    3    0    0  0.25091459879E+02  0.64360792698E+01  0.26168291268E+02  0.36820971513E+02  0.00000000000E+00 0.  1.
         11    1    4    4    0    0 -0.69383279484E+01 -0.96171839339E+01  0.40118064609E+01  0.12518994084E+02  0.51100000000E-03 0. -1.
        -11    1    4    4    0    0  0.46904117933E+01 -0.22861583739E+01 -0.79385962226E+01  0.94998838492E+01  0.51100000000E-03 0.  1.
         12    1    4    4    0    0 -0.22843543724E+02  0.54672630379E+01 -0.22241501507E+02  0.32348150554E+02  0.00000000000E+00 0. -1.
</event>
<event>
 8    1  0.2458065E-006  0.9118800E+02  0.7816164E-02  0.1184000E+00
        -11   -1    0    0    0    0  0.00000000000E+00  0.00000000000E+00  0.45593999997E+02  0.45594000000E+02  0.51100000000E-03 0.  1.
         11   -1    0    0    0    0 -0.00000000000E+00 -0.00000000000E+00 -0.45593999997E+02  0.45594000000E+02  0.51100000000E-03 0. -1.
         23    2    1    2    0    0 -0.35527136788E-14  0.35527136788E-14  0.35527136788E-14  0.91188000000E+02  0.91188000000E+02 0.  0.
    9900012    2    3    3    0    0  0.17888888974E+02 -0.25186955294E+02 -0.20034584791E+02  0.54367086738E+02  0.40000005837E+02 0.  0.
        -12    1    3    3    0    0 -0.17888888974E+02  0.25186955294E+02  0.20034584791E+02  0.36820913262E+02  0.00000000000E+00 0.  1.
         11    1    4    4    0    0  0.12327313602E+02 -0.66259660947E+01 -0.94570935922E+00  0.14027132771E+02  0.51100000000E-03 0. -1.
        -11    1    4    4    0    0  0.87064409272E+01  0.42684276980E+01 -0.13509535875E+02  0.16629165597E+02  0.51100000000E-03 0.  1.
         12    1    4    4    0    0 -0.31448655546E+01 -0.22829416897E+02 -0.55793395559E+01  0.23710788370E+02  0.00000000000E+00 0. -1.
</event>
<event>
 8    1  0.2458065E-006  0.9118800E+02  0.7816164E-02  0.1184000E+00
        -11   -1    0    0    0    0  0.00000000000E+00  0.00000000000E+00  0.45593999997E+02  0.45594000000E+02  0.51100000000E-03 0. -1.
         11   -1    0    0    0    0 -0.00000000000E+00 -0.00000000000E+00 -0.45593999997E+02  0.45594000000E+02  0.51100000000E-03 0.  1.
         23    2    1    2    0    0  0.00000000000E+00  0.35527136788E-14  0.17763568394E-14  0.91188000000E+02  0.91188000000E+02 0.  0.
    9900012    2    3    3    0    0  0.28832212969E+02 -0.19523543366E+02 -0.11971400167E+02  0.54367086483E+02  0.40000005256E+02 0.  0.
         12    1    3    3    0    0 -0.28832212969E+02  0.19523543366E+02  0.11971400167E+02  0.36820913517E+02  0.00000000000E+00 0. -1.
         11    1    4    4    0    0 -0.20061014865E+01 -0.67622370827E+01 -0.81504237392E+01  0.10778761567E+02  0.51100000000E-03 0. -1.
        -11    1    4    4    0    0  0.27624911837E+02 -0.15145569040E+02 -0.12607687604E+02  0.33933431930E+02  0.51100000000E-03 0.  1.
        -12    1    4    4    0    0  0.32134026178E+01  0.23842627566E+01  0.87867111761E+01  0.96548929859E+01  0.00000000000E+00 0.  1.
</event>
<event>
 8    1  0.2458065E-006  0.9118800E+02  0.7816164E-02  0.1184000E+00
        -11   -1    0    0    0    0  0.00000000000E+00  0.00000000000E+00  0.45593999997E+02  0.45594000000E+02  0.51100000000E-03 0.  1.
         11   -1    0    0    0    0 -0.00000000000E+00 -0.00000000000E+00 -0.45593999997E+02  0.45594000000E+02  0.51100000000E-03 0. -1.
         23    2    1    2    0    0  0.00000000000E+00  0.88817841970E-15 -0.66613381478E-15  0.91188000000E+02  0.91188000000E+02 0.  0.
    9900012    2    3    3    0    0 -0.36577338793E+02 -0.40464879680E+01  0.12264590963E+01  0.54367082304E+02  0.39999995729E+02 0.  0.
        -12    1    3    3    0    0  0.36577338793E+02  0.40464879680E+01 -0.12264590963E+01  0.36820917696E+02  0.00000000000E+00 0.  1.
         11    1    4    4    0    0 -0.35272288620E+02 -0.44775850080E+01 -0.12951857124E+02  0.37840900032E+02  0.51100000000E-03 0. -1.
        -11    1    4    4    0    0 -0.26477746265E+01  0.38642643442E+01  0.92843699506E+01  0.10399171844E+02  0.51100000000E-03 0.  1.
        -12    1    4    4    0    0  0.13427244536E+01 -0.34331673042E+01  0.48939462698E+01  0.61270104283E+01  0.00000000000E+00 0.  1.
</event>
<event>
 8    1  0.2458065E-006  0.9118800E+02  0.7816164E-02  0.1184000E+00
        -11   -1    0    0    0    0  0.00000000000E+00  0.00000000000E+00  0.45593999997E+02  0.45594000000E+02  0.51100000000E-03 0.  1.
         11   -1    0    0    0    0 -0.00000000000E+00 -0.00000000000E+00 -0.45593999997E+02  0.45594000000E+02  0.51100000000E-03 0. -1.
         23    2    1    2    0    0  0.17763568394E-14  0.00000000000E+00 -0.35527136788E-14  0.91188000000E+02  0.91188000000E+02 0.  0.
    9900012    2    3    3    0    0  0.12734861016E+02 -0.17795833837E+02 -0.29612675943E+02  0.54367096106E+02  0.40000027193E+02 0.  0.
        -12    1    3    3    0    0 -0.12734861016E+02  0.17795833837E+02  0.29612675943E+02  0.36820903894E+02  0.00000000000E+00 0.  1.
         11    1    4    4    0    0  0.27276215569E+01 -0.12007385422E+02  0.43471297722E+01  0.13058130094E+02  0.51100000000E-03 0. -1.
        -11    1    4    4    0    0 -0.58549986784E+00  0.32945834697E+01 -0.23835435887E+02  0.24069173117E+02  0.51100000000E-03 0.  1.
        -12    1    4    4    0    0  0.10592739326E+02 -0.90830318853E+01 -0.10124369828E+02  0.17239792896E+02  0.00000000000E+00 0.  1.
</event>
<event>
 8    1  0.2458065E-006  0.9118800E+02  0.7816164E-02  0.1184000E+00
        -11   -1    0    0    0    0  0.00000000000E+00  0.00000000000E+00  0.45593999997E+02  0.45594000000E+02  0.51100000000E-03 0. -1.
         11   -1    0    0    0    0 -0.00000000000E+00 -0.00000000000E+00 -0.45593999997E+02  0.45594000000E+02  0.51100000000E-03 0.  1.
         23    2    1    2    0    0  0.00000000000E+00  0.35527136788E-14  0.00000000000E+00  0.91188000000E+02  0.91188000000E+02 0.  0.
    9900012    2    3    3    0    0  0.77753071749E+01  0.31097123831E+02  0.18118919931E+02  0.54367057974E+02  0.39999940263E+02 0.  0.
        -12    1    3    3    0    0 -0.77753071749E+01 -0.31097123831E+02 -0.18118919931E+02  0.36820942026E+02  0.00000000000E+00 0.  1.
         11    1    4    4    0    0  0.80373724923E+01  0.96604406248E+01  0.86053256267E+01  0.15230728776E+02  0.51100000000E-03 0. -1.
        -11    1    4    4    0    0  0.10573967243E+02 -0.26038050488E+01  0.62751338332E+01  0.12568448149E+02  0.51100000000E-03 0.  1.
         12    1    4    4    0    0 -0.10836032560E+02  0.24040488255E+02  0.32384604714E+01  0.26567881049E+02  0.00000000000E+00 0. -1.
</event>
<event>
 8    1  0.2458065E-006  0.9118800E+02  0.7816164E-02  0.1184000E+00
        -11   -1    0    0    0    0  0.00000000000E+00  0.00000000000E+00  0.45593999997E+02  0.45594000000E+02  0.51100000000E-03 0. -1.
         11   -1    0    0    0    0 -0.00000000000E+00 -0.00000000000E+00 -0.45593999997E+02  0.45594000000E+02  0.51100000000E-03 0.  1.
         23    2    1    2    0    0  0.00000000000E+00  0.17763568394E-14 -0.35527136788E-14  0.91188000000E+02  0.91188000000E+02 0.  0.
    9900012    2    3    3    0    0 -0.18288528111E+02  0.11924131707E+02 -0.29650051511E+02  0.54367072092E+02  0.39999972447E+02 0.  0.
         12    1    3    3    0    0  0.18288528111E+02 -0.11924131707E+02  0.29650051511E+02  0.36820927908E+02  0.00000000000E+00 0. -1.
         11    1    4    4    0    0 -0.11744424889E+02  0.16429222030E+02 -0.40416960319E+01  0.20595780140E+02  0.51100000000E-03 0. -1.
        -11    1    4    4    0    0 -0.55544467759E+01 -0.70855753366E+01 -0.10571680360E+01  0.90650350995E+01  0.51100000000E-03 0.  1.
        -12    1    4    4    0    0 -0.98965644587E+00  0.25804850134E+01 -0.24551187443E+02  0.24706256852E+02  0.00000000000E+00 0.  1.
</event>
<event>
 8    1  0.2458065E-006  0.9118800E+02  0.7816164E-02  0.1184000E+00
        -11   -1    0    0    0    0  0.00000000000E+00  0.00000000000E+00  0.45593999997E+02  0.45594000000E+02  0.51100000000E-03 0.  1.
         11   -1    0    0    0    0 -0.00000000000E+00 -0.00000000000E+00 -0.45593999997E+02  0.45594000000E+02  0.51100000000E-03 0. -1.
         23    2    1    2    0    0  0.00000000000E+00  0.00000000000E+00 -0.88817841970E-15  0.91188000000E+02  0.91188000000E+02 0.  0.
    9900012    2    3    3    0    0 -0.34251301107E+02  0.11144384422E+02 -0.76440140415E+01  0.54367083630E+02  0.39999998751E+02 0.  0.
        -12    1    3    3    0    0  0.34251301107E+02 -0.11144384422E+02  0.76440140415E+01  0.36820916370E+02  0.00000000000E+00 0.  1.
         11    1    4    4    0    0 -0.71852638949E+01 -0.84081485941E+01 -0.27548434002E+01  0.11397988526E+02  0.51100000000E-03 0. -1.
        -11    1    4    4    0    0 -0.57781819448E+01 -0.13173968433E+01 -0.11039548943E+02  0.12529747090E+02  0.51100000000E-03 0.  1.
         12    1    4    4    0    0 -0.21287855268E+02  0.20869929859E+02  0.61503783014E+01  0.30439348013E+02  0.00000000000E+00 0. -1.
</event>
<event>
 8    1  0.2458065E-006  0.9118800E+02  0.7816164E-02  0.1184000E+00
        -11   -1    0    0    0    0  0.00000000000E+00  0.00000000000E+00  0.45593999997E+02  0.45594000000E+02  0.51100000000E-03 0. -1.
         11   -1    0    0    0    0 -0.00000000000E+00 -0.00000000000E+00 -0.45593999997E+02  0.45594000000E+02  0.51100000000E-03 0.  1.
         23    2    1    2    0    0  0.00000000000E+00 -0.71054273576E-14 -0.35527136788E-14  0.91188000000E+02  0.91188000000E+02 0.  0.
    9900012    2    3    3    0    0 -0.57484058462E+01  0.34002696988E+02  0.12905513506E+02  0.54367084055E+02  0.39999999719E+02 0.  0.
        -12    1    3    3    0    0  0.57484058462E+01 -0.34002696988E+02 -0.12905513506E+02  0.36820915945E+02  0.00000000000E+00 0.  1.
         11    1    4    4    0    0 -0.73416981808E+01  0.32818486737E+02  0.24833403579E+02  0.41804922407E+02  0.51100000000E-03 0. -1.
        -11    1    4    4    0    0  0.76631414050E+00 -0.76040160290E+00 -0.11431064204E+01  0.15723042038E+01  0.51100000000E-03 0.  1.
         12    1    4    4    0    0  0.82697819402E+00  0.19446118538E+01 -0.10784783653E+02  0.10989857444E+02  0.00000000000E+00 0. -1.
</event>
<event>
 8    1  0.2458065E-006  0.9118800E+02  0.7816164E-02  0.1184000E+00
        -11   -1    0    0    0    0  0.00000000000E+00  0.00000000000E+00  0.45593999997E+02  0.45594000000E+02  0.51100000000E-03 0. -1.
         11   -1    0    0    0    0 -0.00000000000E+00 -0.00000000000E+00 -0.45593999997E+02  0.45594000000E+02  0.51100000000E-03 0.  1.
         23    2    1    2    0    0  0.00000000000E+00  0.88817841970E-15 -0.88817841970E-15  0.91188000000E+02  0.91188000000E+02 0.  0.
    9900012    2    3    3    0    0  0.36520846843E+02 -0.22345435665E+01 -0.41249523821E+01  0.54367072917E+02  0.39999974328E+02 0.  0.
         12    1    3    3    0    0 -0.36520846843E+02  0.22345435665E+01  0.41249523821E+01  0.36820927083E+02  0.00000000000E+00 0. -1.
         11    1    4    4    0    0 -0.63722495857E+00 -0.18579646204E+01 -0.14191718046E+02  0.14327000716E+02  0.51100000000E-03 0.  1.
        -11    1    4    4    0    0  0.22815117133E+02 -0.44191084015E+01  0.26353597992E+01  0.23388099760E+02  0.51100000000E-03 0. -1.
        -12    1    4    4    0    0  0.14342954669E+02  0.40425294553E+01  0.74314058643E+01  0.16651972441E+02  0.00000000000E+00 0.  1.
</event>
<event>
 8    1  0.2458065E-006  0.9118800E+02  0.7816164E-02  0.1184000E+00
        -11   -1    0    0    0    0  0.00000000000E+00  0.00000000000E+00  0.45593999997E+02  0.45594000000E+02  0.51100000000E-03 0. -1.
         11   -1    0    0    0    0 -0.00000000000E+00 -0.00000000000E+00 -0.45593999997E+02  0.45594000000E+02  0.51100000000E-03 0.  1.
         23    2    1    2    0    0  0.00000000000E+00 -0.17763568394E-14  0.35527136788E-14  0.91188000000E+02  0.91188000000E+02 0.  0.
    9900012    2    3    3    0    0 -0.16030998655E+02  0.10485136955E+02  0.31445965169E+02  0.54367085559E+02  0.40000003148E+02 0.  0.
        -12    1    3    3    0    0  0.16030998655E+02 -0.10485136955E+02 -0.31445965169E+02  0.36820914441E+02  0.00000000000E+00 0.  1.
         11    1    4    4    0    0 -0.14729321808E+01  0.76241512637E+01  0.76605767383E+01  0.10907870916E+02  0.51100000000E-03 0. -1.
        -11    1    4    4    0    0  0.25568194605E+01  0.13538820626E+02  0.22661897689E+01  0.13963259148E+02  0.51100000000E-03 0.  1.
         12    1    4    4    0    0 -0.17114885935E+02 -0.10677834935E+02  0.21519198662E+02  0.29495955495E+02  0.00000000000E+00 0. -1.
</event>
<event>
 8    1  0.2458065E-006  0.9118800E+02  0.7816164E-02  0.1184000E+00
        -11   -1    0    0    0    0  0.00000000000E+00  0.00000000000E+00  0.45593999997E+02  0.45594000000E+02  0.51100000000E-03 0. -1.
         11   -1    0    0    0    0 -0.00000000000E+00 -0.00000000000E+00 -0.45593999997E+02  0.45594000000E+02  0.51100000000E-03 0.  1.
         23    2    1    2    0    0 -0.88817841970E-15 -0.88817841970E-15  0.00000000000E+00  0.91188000000E+02  0.91188000000E+02 0.  0.
    9900012    2    3    3    0    0  0.52818102479E+01  0.34181574680E+01 -0.36279452148E+02  0.54367082465E+02  0.39999996096E+02 0.  0.
         12    1    3    3    0    0 -0.52818102479E+01 -0.34181574680E+01  0.36279452148E+02  0.36820917535E+02  0.00000000000E+00 0. -1.
         11    1    4    4    0    0 -0.93855658592E+01  0.98075394715E+01 -0.19128208628E+01  0.13708959147E+02  0.51100000000E-03 0. -1.
        -11    1    4    4    0    0  0.33574391590E+01 -0.87974037703E+01 -0.10287095606E+02  0.13946004700E+02  0.51100000000E-03 0.  1.
         12    1    4    4    0    0  0.11309936948E+02  0.24080217668E+01 -0.24079535678E+02  0.26712118618E+02  0.00000000000E+00 0. -1.
</event>
<event>
 8    1  0.2458065E-006  0.9118800E+02  0.7816164E-02  0.1184000E+00
        -11   -1    0    0    0    0  0.00000000000E+00  0.00000000000E+00  0.45593999997E+02  0.45594000000E+02  0.51100000000E-03 0.  1.
         11   -1    0    0    0    0 -0.00000000000E+00 -0.00000000000E+00 -0.45593999997E+02  0.45594000000E+02  0.51100000000E-03 0. -1.
         23    2    1    2    0    0 -0.11102230246E-14  0.17763568394E-14  0.00000000000E+00  0.91188000000E+02  0.91188000000E+02 0.  0.
    9900012    2    3    3    0    0  0.11593475036E+01 -0.87498676081E+01 -0.35747408241E+02  0.54367062128E+02  0.39999949734E+02 0.  0.
        -12    1    3    3    0    0 -0.11593475036E+01  0.87498676081E+01  0.35747408241E+02  0.36820937872E+02  0.00000000000E+00 0.  1.
         11    1    4    4    0    0 -0.25727993620E+01 -0.10135295026E+02 -0.14789247050E+02  0.18112573820E+02  0.51100000000E-03 0. -1.
        -11    1    4    4    0    0 -0.72088557085E+01 -0.10296193588E+02 -0.46419777208E+01  0.13398774588E+02  0.51100000000E-03 0.  1.
        -12    1    4    4    0    0  0.10941002574E+02  0.11681621006E+02 -0.16316183470E+02  0.22855713721E+02  0.00000000000E+00 0.  1.
</event>
<event>
 8    1  0.2458065E-006  0.9118800E+02  0.7816164E-02  0.1184000E+00
        -11   -1    0    0    0    0  0.00000000000E+00  0.00000000000E+00  0.45593999997E+02  0.45594000000E+02  0.51100000000E-03 0. -1.
         11   -1    0    0    0    0 -0.00000000000E+00 -0.00000000000E+00 -0.45593999997E+02  0.45594000000E+02  0.51100000000E-03 0.  1.
         23    2    1    2    0    0  0.00000000000E+00  0.00000000000E+00  0.88817841970E-15  0.91188000000E+02  0.91188000000E+02 0.  0.
    9900012    2    3    3    0    0  0.13874729201E+02 -0.33932551342E+02  0.34432501988E+01  0.54367053205E+02  0.39999929391E+02 0.  0.
        -12    1    3    3    0    0 -0.13874729201E+02  0.33932551342E+02 -0.34432501988E+01  0.36820946795E+02  0.00000000000E+00 0.  1.
         11    1    4    4    0    0  0.89026426091E+01 -0.23394841477E+02 -0.90191268537E+01  0.26606771744E+02  0.51100000000E-03 0. -1.
        -11    1    4    4    0    0 -0.46840532462E-01 -0.12375689913E+02 -0.18215417865E+01  0.12509113062E+02  0.51100000000E-03 0.  1.
        -12    1    4    4    0    0  0.50189271240E+01  0.18379800483E+01  0.14283918839E+02  0.15251168399E+02  0.00000000000E+00 0.  1.
</event>
<event>
 8    1  0.2458065E-006  0.9118800E+02  0.7816164E-02  0.1184000E+00
        -11   -1    0    0    0    0  0.00000000000E+00  0.00000000000E+00  0.45593999997E+02  0.45594000000E+02  0.51100000000E-03 0.  1.
         11   -1    0    0    0    0 -0.00000000000E+00 -0.00000000000E+00 -0.45593999997E+02  0.45594000000E+02  0.51100000000E-03 0. -1.
         23    2    1    2    0    0  0.00000000000E+00 -0.11102230246E-14 -0.88817841970E-15  0.91188000000E+02  0.91188000000E+02 0.  0.
    9900012    2    3    3    0    0  0.36368225006E+02 -0.18733631883E+01 -0.54421115415E+01  0.54367165439E+02  0.40000185251E+02 0.  0.
         12    1    3    3    0    0 -0.36368225006E+02  0.18733631883E+01  0.54421115415E+01  0.36820834561E+02  0.00000000000E+00 0. -1.
         11    1    4    4    0    0 -0.17474254307E+01  0.51019821075E+01 -0.54458325085E+01  0.76642552823E+01  0.51100000000E-03 0. -1.
        -11    1    4    4    0    0  0.36457769674E+01  0.63452874327E+01 -0.57456841704E+01  0.93041522530E+01  0.51100000000E-03 0.  1.
        -12    1    4    4    0    0  0.34469873470E+02 -0.13320632728E+02  0.57494051374E+01  0.37398757904E+02  0.00000000000E+00 0.  1.
</event>
<event>
 8    1  0.2458065E-006  0.9118800E+02  0.7816164E-02  0.1184000E+00
        -11   -1    0    0    0    0  0.00000000000E+00  0.00000000000E+00  0.45593999997E+02  0.45594000000E+02  0.51100000000E-03 0.  1.
         11   -1    0    0    0    0 -0.00000000000E+00 -0.00000000000E+00 -0.45593999997E+02  0.45594000000E+02  0.51100000000E-03 0. -1.
         23    2    1    2    0    0  0.00000000000E+00 -0.17763568394E-14  0.00000000000E+00  0.91188000000E+02  0.91188000000E+02 0.  0.
    9900012    2    3    3    0    0 -0.34039780168E+02 -0.99944618216E+01  0.98581839916E+01  0.54367086206E+02  0.40000004624E+02 0.  0.
         12    1    3    3    0    0  0.34039780168E+02  0.99944618216E+01 -0.98581839916E+01  0.36820913794E+02  0.00000000000E+00 0. -1.
         11    1    4    4    0    0 -0.23725230130E+02  0.74336800803E+01  0.13121079010E+02  0.28112432461E+02  0.51100000000E-03 0. -1.
        -11    1    4    4    0    0  0.31294759748E+01 -0.30075146497E+01  0.33251535742E+01  0.54676695948E+01  0.51100000000E-03 0.  1.
         12    1    4    4    0    0 -0.13444026013E+02 -0.14420627252E+02 -0.65880485923E+01  0.20786984150E+02  0.00000000000E+00 0. -1.
</event>
<event>
 8    1  0.2458065E-006  0.9118800E+02  0.7816164E-02  0.1184000E+00
        -11   -1    0    0    0    0  0.00000000000E+00  0.00000000000E+00  0.45593999997E+02  0.45594000000E+02  0.51100000000E-03 0.  1.
         11   -1    0    0    0    0 -0.00000000000E+00 -0.00000000000E+00 -0.45593999997E+02  0.45594000000E+02  0.51100000000E-03 0. -1.
         23    2    1    2    0    0  0.00000000000E+00  0.17763568394E-14  0.00000000000E+00  0.91188000000E+02  0.91188000000E+02 0.  0.
    9900012    2    3    3    0    0 -0.28300410915E+02  0.15565280847E+02 -0.17680194248E+02  0.54367075318E+02  0.39999979803E+02 0.  0.
        -12    1    3    3    0    0  0.28300410915E+02 -0.15565280847E+02  0.17680194248E+02  0.36820924682E+02  0.00000000000E+00 0.  1.
         11    1    4    4    0    0 -0.55160185504E+01 -0.64068418862E+01 -0.16374212914E+02  0.18427938909E+02  0.51100000000E-03 0. -1.
        -11    1    4    4    0    0 -0.47264736968E+01  0.12774473915E+02 -0.63908259603E+01  0.15045577228E+02  0.51100000000E-03 0.  1.
         12    1    4    4    0    0 -0.18057918667E+02  0.91976488182E+01  0.50848446267E+01  0.20893559181E+02  0.00000000000E+00 0. -1.
</event>
<event>
 8    1  0.2458065E-006  0.9118800E+02  0.7816164E-02  0.1184000E+00
        -11   -1    0    0    0    0  0.00000000000E+00  0.00000000000E+00  0.45593999997E+02  0.45594000000E+02  0.51100000000E-03 0. -1.
         11   -1    0    0    0    0 -0.00000000000E+00 -0.00000000000E+00 -0.45593999997E+02  0.45594000000E+02  0.51100000000E-03 0.  1.
         23    2    1    2    0    0  0.35527136788E-14 -0.88817841970E-15  0.00000000000E+00  0.91188000000E+02  0.91188000000E+02 0.  0.
    9900012    2    3    3    0    0  0.29859029952E+02 -0.47922988559E+01  0.21005854897E+02  0.54367167067E+02  0.40000188961E+02 0.  0.
         12    1    3    3    0    0 -0.29859029952E+02  0.47922988559E+01 -0.21005854897E+02  0.36820832933E+02  0.00000000000E+00 0. -1.
         11    1    4    4    0    0  0.17704633497E+02  0.22255381911E+01  0.12103064936E+02  0.21561336893E+02  0.51100000000E-03 0.  1.
        -11    1    4    4    0    0  0.84870410294E+00  0.39243785925E+01 -0.84662497934E+01  0.93700817401E+01  0.51100000000E-03 0. -1.
         12    1    4    4    0    0  0.11305692351E+02 -0.10942215639E+02  0.17369039754E+02  0.23435748433E+02  0.00000000000E+00 0. -1.
</event>
<event>
 8    1  0.2458065E-006  0.9118800E+02  0.7816164E-02  0.1184000E+00
        -11   -1    0    0    0    0  0.00000000000E+00  0.00000000000E+00  0.45593999997E+02  0.45594000000E+02  0.51100000000E-03 0.  1.
         11   -1    0    0    0    0 -0.00000000000E+00 -0.00000000000E+00 -0.45593999997E+02  0.45594000000E+02  0.51100000000E-03 0. -1.
         23    2    1    2    0    0  0.35527136788E-14  0.00000000000E+00 -0.88817841970E-15  0.91188000000E+02  0.91188000000E+02 0.  0.
    9900012    2    3    3    0    0 -0.30943611396E+02  0.18609704047E+02  0.72077831894E+01  0.54367077830E+02  0.39999985529E+02 0.  0.
         12    1    3    3    0    0  0.30943611396E+02 -0.18609704047E+02 -0.72077831894E+01  0.36820922170E+02  0.00000000000E+00 0. -1.
         11    1    4    4    0    0 -0.19940295201E+02  0.59461946632E+01  0.14713787509E+01  0.20859951088E+02  0.51100000000E-03 0. -1.
        -11    1    4    4    0    0 -0.20250703674E+02  0.12430234141E+02  0.40267117130E+01  0.24100127128E+02  0.51100000000E-03 0.  1.
        -12    1    4    4    0    0  0.92473874792E+01  0.23327524261E+00  0.17096927255E+01  0.94069996144E+01  0.00000000000E+00 0.  1.
</event>
<event>
 8    1  0.2458065E-006  0.9118800E+02  0.7816164E-02  0.1184000E+00
        -11   -1    0    0    0    0  0.00000000000E+00  0.00000000000E+00  0.45593999997E+02  0.45594000000E+02  0.51100000000E-03 0.  1.
         11   -1    0    0    0    0 -0.00000000000E+00 -0.00000000000E+00 -0.45593999997E+02  0.45594000000E+02  0.51100000000E-03 0. -1.
         23    2    1    2    0    0  0.00000000000E+00  0.35527136788E-14  0.00000000000E+00  0.91188000000E+02  0.91188000000E+02 0.  0.
    9900012    2    3    3    0    0  0.12602881845E+02  0.31808112063E+02 -0.13608491302E+02  0.54367086658E+02  0.40000005655E+02 0.  0.
        -12    1    3    3    0    0 -0.12602881845E+02 -0.31808112063E+02  0.13608491302E+02  0.36820913342E+02  0.00000000000E+00 0.  1.
         11    1    4    4    0    0  0.19709177955E+02  0.10104164285E+02 -0.28270086621E+01  0.22327960269E+02  0.51100000000E-03 0. -1.
        -11    1    4    4    0    0 -0.53400913013E+01  0.81739410082E+01 -0.14875341703E+02  0.17793416697E+02  0.51100000000E-03 0.  1.
         12    1    4    4    0    0 -0.17662048087E+01  0.13530006770E+02  0.40938590628E+01  0.14245709693E+02  0.00000000000E+00 0. -1.
</event>
<event>
 8    1  0.2458065E-006  0.9118800E+02  0.7816164E-02  0.1184000E+00
        -11   -1    0    0    0    0  0.00000000000E+00  0.00000000000E+00  0.45593999997E+02  0.45594000000E+02  0.51100000000E-03 0.  1.
         11   -1    0    0    0    0 -0.00000000000E+00 -0.00000000000E+00 -0.45593999997E+02  0.45594000000E+02  0.51100000000E-03 0. -1.
         23    2    1    2    0    0  0.35527136788E-14 -0.71054273576E-14  0.44408920985E-15  0.91188000000E+02  0.91188000000E+02 0.  0.
    9900012    2    3    3    0    0 -0.19955462263E+02  0.30827107562E+02  0.26923961829E+01  0.54367081598E+02  0.39999994119E+02 0.  0.
        -12    1    3    3    0    0  0.19955462263E+02 -0.30827107562E+02 -0.26923961829E+01  0.36820918402E+02  0.00000000000E+00 0.  1.
         11    1    4    4    0    0  0.57575115612E+01  0.89442373914E+01  0.90189975134E+01  0.13945990044E+02  0.51100000000E-03 0. -1.
        -11    1    4    4    0    0 -0.19564831344E+02  0.37053299607E+01  0.85794635674E+00  0.19931085466E+02  0.51100000000E-03 0.  1.
         12    1    4    4    0    0 -0.61481424799E+01  0.18177540210E+02 -0.71845476873E+01  0.20490006088E+02  0.00000000000E+00 0. -1.
</event>
<event>
 8    1  0.2458065E-006  0.9118800E+02  0.7816164E-02  0.1184000E+00
        -11   -1    0    0    0    0  0.00000000000E+00  0.00000000000E+00  0.45593999997E+02  0.45594000000E+02  0.51100000000E-03 0. -1.
         11   -1    0    0    0    0 -0.00000000000E+00 -0.00000000000E+00 -0.45593999997E+02  0.45594000000E+02  0.51100000000E-03 0.  1.
         23    2    1    2    0    0  0.00000000000E+00  0.00000000000E+00  0.00000000000E+00  0.91188000000E+02  0.91188000000E+02 0.  0.
    9900012    2    3    3    0    0  0.99095840844E+01 -0.17354184344E+02 -0.30925906344E+02  0.54367092160E+02  0.40000018197E+02 0.  0.
         12    1    3    3    0    0 -0.99095840844E+01  0.17354184344E+02  0.30925906344E+02  0.36820907840E+02  0.00000000000E+00 0. -1.
         11    1    4    4    0    0  0.84251675187E+01  0.64471372381E+01  0.40091567739E+01  0.11341180035E+02  0.51100000000E-03 0. -1.
        -11    1    4    4    0    0 -0.21040774055E+01 -0.10754299460E+02 -0.20468301314E+02  0.23217094081E+02  0.51100000000E-03 0.  1.
        -12    1    4    4    0    0  0.35884939712E+01 -0.13047022122E+02 -0.14466761804E+02  0.19808818044E+02  0.00000000000E+00 0.  1.
</event>
<event>
 8    1  0.2458065E-006  0.9118800E+02  0.7816164E-02  0.1184000E+00
        -11   -1    0    0    0    0  0.00000000000E+00  0.00000000000E+00  0.45593999997E+02  0.45594000000E+02  0.51100000000E-03 0. -1.
         11   -1    0    0    0    0 -0.00000000000E+00 -0.00000000000E+00 -0.45593999997E+02  0.45594000000E+02  0.51100000000E-03 0.  1.
         23    2    1    2    0    0  0.00000000000E+00  0.00000000000E+00 -0.17763568394E-14  0.91188000000E+02  0.91188000000E+02 0.  0.
    9900012    2    3    3    0    0  0.23031415477E+02  0.25861487396E+02  0.12510722798E+02  0.54367070977E+02  0.39999969905E+02 0.  0.
        -12    1    3    3    0    0 -0.23031415477E+02 -0.25861487396E+02 -0.12510722798E+02  0.36820929023E+02  0.00000000000E+00 0.  1.
         11    1    4    4    0    0  0.18052093847E+02 -0.42027099127E+01  0.64601979489E+00  0.18546110231E+02  0.51100000000E-03 0. -1.
        -11    1    4    4    0    0  0.49821613035E+01  0.18543147733E+02 -0.11379201846E+00  0.19201125175E+02  0.51100000000E-03 0.  1.
        -12    1    4    4    0    0 -0.28396735084E-02  0.11521049575E+02  0.11978495022E+02  0.16619835570E+02  0.00000000000E+00 0.  1.
</event>
<event>
 8    1  0.2458065E-006  0.9118800E+02  0.7816164E-02  0.1184000E+00
        -11   -1    0    0    0    0  0.00000000000E+00  0.00000000000E+00  0.45593999997E+02  0.45594000000E+02  0.51100000000E-03 0. -1.
         11   -1    0    0    0    0 -0.00000000000E+00 -0.00000000000E+00 -0.45593999997E+02  0.45594000000E+02  0.51100000000E-03 0.  1.
         23    2    1    2    0    0  0.00000000000E+00  0.00000000000E+00  0.00000000000E+00  0.91188000000E+02  0.91188000000E+02 0.  0.
    9900012    2    3    3    0    0 -0.13640587999E+02  0.29929075824E+02  0.16552397230E+02  0.54366850172E+02  0.39999466533E+02 0.  0.
        -12    1    3    3    0    0  0.13640587999E+02 -0.29929075824E+02 -0.16552397230E+02  0.36821149828E+02  0.00000000000E+00 0.  1.
         11    1    4    4    0    0 -0.33053858237E+01  0.24738016689E+00  0.26323377948E+01  0.42327266528E+01  0.51100000000E-03 0. -1.
        -11    1    4    4    0    0 -0.21713146420E+02  0.10069943310E+02  0.82040725448E+00  0.23948644096E+02  0.51100000000E-03 0.  1.
        -12    1    4    4    0    0  0.11377944245E+02  0.19611752347E+02  0.13099652180E+02  0.26185479423E+02  0.00000000000E+00 0.  1.
</event>
<event>
 8    1  0.2458065E-006  0.9118800E+02  0.7816164E-02  0.1184000E+00
        -11   -1    0    0    0    0  0.00000000000E+00  0.00000000000E+00  0.45593999997E+02  0.45594000000E+02  0.51100000000E-03 0.  1.
         11   -1    0    0    0    0 -0.00000000000E+00 -0.00000000000E+00 -0.45593999997E+02  0.45594000000E+02  0.51100000000E-03 0. -1.
         23    2    1    2    0    0 -0.17763568394E-14  0.00000000000E+00  0.00000000000E+00  0.91188000000E+02  0.91188000000E+02 0.  0.
    9900012    2    3    3    0    0 -0.83056210316E+01  0.35786007234E+02 -0.24811005762E+01  0.54367115783E+02  0.40000072050E+02 0.  0.
        -12    1    3    3    0    0  0.83056210316E+01 -0.35786007234E+02  0.24811005762E+01  0.36820884217E+02  0.00000000000E+00 0.  1.
         11    1    4    4    0    0  0.59165911903E+01  0.70555018613E+01 -0.48073728356E+01  0.10387347673E+02  0.51100000000E-03 0. -1.
        -11    1    4    4    0    0  0.54164598024E+01 -0.22696225312E+01 -0.34794991597E+01  0.68261363808E+01  0.51100000000E-03 0.  1.
        -12    1    4    4    0    0 -0.19638672024E+02  0.31000127904E+02  0.58057714192E+01  0.37153631730E+02  0.00000000000E+00 0.  1.
</event>
<event>
 8    1  0.2458065E-006  0.9118800E+02  0.7816164E-02  0.1184000E+00
        -11   -1    0    0    0    0  0.00000000000E+00  0.00000000000E+00  0.45593999997E+02  0.45594000000E+02  0.51100000000E-03 0.  1.
         11   -1    0    0    0    0 -0.00000000000E+00 -0.00000000000E+00 -0.45593999997E+02  0.45594000000E+02  0.51100000000E-03 0. -1.
         23    2    1    2    0    0 -0.11102230246E-14  0.00000000000E+00  0.00000000000E+00  0.91188000000E+02  0.91188000000E+02 0.  0.
    9900012    2    3    3    0    0  0.19518287937E+01  0.33105697681E+02  0.15999448439E+02  0.54367092829E+02  0.40000019721E+02 0.  0.
         12    1    3    3    0    0 -0.19518287937E+01 -0.33105697681E+02 -0.15999448439E+02  0.36820907171E+02  0.00000000000E+00 0. -1.
         11    1    4    4    0    0 -0.45178609622E+01 -0.48401271697E+01 -0.42234965709E+01  0.78533955865E+01  0.51100000000E-03 0. -1.
        -11    1    4    4    0    0  0.81897517535E+01  0.27105349319E+02  0.21374545253E+02  0.35477361521E+02  0.51100000000E-03 0.  1.
        -12    1    4    4    0    0 -0.17200619976E+01  0.10840475532E+02 -0.11516002426E+01  0.11036335721E+02  0.00000000000E+00 0.  1.
</event>
<event>
 8    1  0.2458065E-006  0.9118800E+02  0.7816164E-02  0.1184000E+00
        -11   -1    0    0    0    0  0.00000000000E+00  0.00000000000E+00  0.45593999997E+02  0.45594000000E+02  0.51100000000E-03 0. -1.
         11   -1    0    0    0    0 -0.00000000000E+00 -0.00000000000E+00 -0.45593999997E+02  0.45594000000E+02  0.51100000000E-03 0.  1.
         23    2    1    2    0    0  0.71054273576E-14  0.35527136788E-14  0.26645352591E-14  0.91188000000E+02  0.91188000000E+02 0.  0.
    9900012    2    3    3    0    0 -0.34333394639E+02 -0.11476885909E+02 -0.67290460224E+01  0.54367069023E+02  0.39999965452E+02 0.  0.
         12    1    3    3    0    0  0.34333394639E+02  0.11476885909E+02  0.67290460224E+01  0.36820930977E+02  0.00000000000E+00 0. -1.
         11    1    4    4    0    0  0.76148105283E+00  0.69811786753E+01  0.85029207708E+01  0.11027981274E+02  0.51100000000E-03 0. -1.
        -11    1    4    4    0    0 -0.77647178441E+01 -0.41023772109E+00 -0.21105561683E+01  0.80568967839E+01  0.51100000000E-03 0.  1.
         12    1    4    4    0    0 -0.27330157848E+02 -0.18047826863E+02 -0.13121410625E+02  0.35282190965E+02  0.00000000000E+00 0. -1.
</event>
<event>
 8    1  0.2458065E-006  0.9118800E+02  0.7816164E-02  0.1184000E+00
        -11   -1    0    0    0    0  0.00000000000E+00  0.00000000000E+00  0.45593999997E+02  0.45594000000E+02  0.51100000000E-03 0. -1.
         11   -1    0    0    0    0 -0.00000000000E+00 -0.00000000000E+00 -0.45593999997E+02  0.45594000000E+02  0.51100000000E-03 0.  1.
         23    2    1    2    0    0 -0.35527136788E-14  0.00000000000E+00  0.17763568394E-14  0.91188000000E+02  0.91188000000E+02 0.  0.
    9900012    2    3    3    0    0 -0.31813482996E+02 -0.17344625912E+02 -0.65458162182E+01  0.54367062229E+02  0.39999949964E+02 0.  0.
         12    1    3    3    0    0  0.31813482996E+02  0.17344625912E+02  0.65458162182E+01  0.36820937771E+02  0.00000000000E+00 0. -1.
         11    1    4    4    0    0 -0.18186960608E+02 -0.13805768835E+02  0.10231692520E+02  0.25021037576E+02  0.51100000000E-03 0. -1.
        -11    1    4    4    0    0 -0.75851200975E+01 -0.13701041896E+01 -0.20517156649E+02  0.21917229515E+02  0.51100000000E-03 0.  1.
        -12    1    4    4    0    0 -0.60414022900E+01 -0.21687528876E+01  0.37396479111E+01  0.74287951389E+01  0.00000000000E+00 0.  1.
</event>
<event>
 8    1  0.2458065E-006  0.9118800E+02  0.7816164E-02  0.1184000E+00
        -11   -1    0    0    0    0  0.00000000000E+00  0.00000000000E+00  0.45593999997E+02  0.45594000000E+02  0.51100000000E-03 0.  1.
         11   -1    0    0    0    0 -0.00000000000E+00 -0.00000000000E+00 -0.45593999997E+02  0.45594000000E+02  0.51100000000E-03 0. -1.
         23    2    1    2    0    0  0.00000000000E+00  0.00000000000E+00  0.00000000000E+00  0.91188000000E+02  0.91188000000E+02 0.  0.
    9900012    2    3    3    0    0  0.91197722740E+01 -0.13785505101E+02 -0.32902422734E+02  0.54367084490E+02  0.40000000711E+02 0.  0.
        -12    1    3    3    0    0 -0.91197722740E+01  0.13785505101E+02  0.32902422734E+02  0.36820915510E+02  0.00000000000E+00 0.  1.
         11    1    4    4    0    0  0.12687610974E+01 -0.25105019705E+02 -0.98450998195E+01  0.26996254552E+02  0.51100000000E-03 0.  1.
        -11    1    4    4    0    0  0.68823342756E+01  0.72040217913E+01 -0.19276132423E+02  0.21698703567E+02  0.51100000000E-03 0. -1.
        -12    1    4    4    0    0  0.96867690096E+00  0.41154928127E+01 -0.37811904923E+01  0.56721263710E+01  0.00000000000E+00 0.  1.
</event>
<event>
 8    1  0.2458065E-006  0.9118800E+02  0.7816164E-02  0.1184000E+00
        -11   -1    0    0    0    0  0.00000000000E+00  0.00000000000E+00  0.45593999997E+02  0.45594000000E+02  0.51100000000E-03 0.  1.
         11   -1    0    0    0    0 -0.00000000000E+00 -0.00000000000E+00 -0.45593999997E+02  0.45594000000E+02  0.51100000000E-03 0. -1.
         23    2    1    2    0    0  0.00000000000E+00  0.44408920985E-15 -0.71054273576E-14  0.91188000000E+02  0.91188000000E+02 0.  0.
    9900012    2    3    3    0    0  0.70353100621E+01  0.24454168089E+01  0.36059725222E+02  0.54367089717E+02  0.40000012627E+02 0.  0.
         12    1    3    3    0    0 -0.70353100621E+01 -0.24454168089E+01 -0.36059725222E+02  0.36820910283E+02  0.00000000000E+00 0. -1.
         11    1    4    4    0    0 -0.56870919016E+01  0.68612213923E+01  0.15268457832E+02  0.17678947314E+02  0.51100000000E-03 0. -1.
        -11    1    4    4    0    0 -0.50373783688E+01  0.69809590215E+01  0.92502491335E+01  0.12636300051E+02  0.51100000000E-03 0.  1.
        -12    1    4    4    0    0  0.17759780333E+02 -0.11396763605E+02  0.11541018256E+02  0.24051842352E+02  0.00000000000E+00 0.  1.
</event>
<event>
 8    1  0.2458065E-006  0.9118800E+02  0.7816164E-02  0.1184000E+00
        -11   -1    0    0    0    0  0.00000000000E+00  0.00000000000E+00  0.45593999997E+02  0.45594000000E+02  0.51100000000E-03 0.  1.
         11   -1    0    0    0    0 -0.00000000000E+00 -0.00000000000E+00 -0.45593999997E+02  0.45594000000E+02  0.51100000000E-03 0. -1.
         23    2    1    2    0    0 -0.88817841970E-15  0.88817841970E-15 -0.71054273576E-14  0.91188000000E+02  0.91188000000E+02 0.  0.
    9900012    2    3    3    0    0  0.22875872617E+01  0.56646910529E+01  0.36310585070E+02  0.54367077030E+02  0.39999983706E+02 0.  0.
         12    1    3    3    0    0 -0.22875872617E+01 -0.56646910529E+01 -0.36310585070E+02  0.36820922970E+02  0.00000000000E+00 0. -1.
         11    1    4    4    0    0 -0.31059801322E+01 -0.42203328713E+01  0.51802478077E+01  0.73683980441E+01  0.51100000000E-03 0. -1.
        -11    1    4    4    0    0  0.12293202476E+02 -0.84086865001E+01  0.87219942031E+01  0.17259838323E+02  0.51100000000E-03 0.  1.
         12    1    4    4    0    0 -0.68996350825E+01  0.18293710424E+02  0.22408343059E+02  0.29738840664E+02  0.00000000000E+00 0. -1.
</event>
<event>
 8    1  0.2458065E-006  0.9118800E+02  0.7816164E-02  0.1184000E+00
        -11   -1    0    0    0    0  0.00000000000E+00  0.00000000000E+00  0.45593999997E+02  0.45594000000E+02  0.51100000000E-03 0.  1.
         11   -1    0    0    0    0 -0.00000000000E+00 -0.00000000000E+00 -0.45593999997E+02  0.45594000000E+02  0.51100000000E-03 0. -1.
         23    2    1    2    0    0  0.00000000000E+00  0.88817841970E-15  0.35527136788E-14  0.91188000000E+02  0.91188000000E+02 0.  0.
    9900012    2    3    3    0    0  0.19180814457E+02  0.38535466027E+01 -0.31193380445E+02  0.54367075946E+02  0.39999981233E+02 0.  0.
        -12    1    3    3    0    0 -0.19180814457E+02 -0.38535466027E+01  0.31193380445E+02  0.36820924054E+02  0.00000000000E+00 0.  1.
         11    1    4    4    0    0  0.20496043075E+02  0.78696052060E+01 -0.28489596801E+02  0.35967702094E+02  0.51100000000E-03 0. -1.
        -11    1    4    4    0    0  0.44962424860E+01 -0.32221992209E+01 -0.85076248903E+01  0.10147829613E+02  0.51100000000E-03 0.  1.
        -12    1    4    4    0    0 -0.58114711042E+01 -0.79385938242E+00  0.58038412459E+01  0.82515442386E+01  0.00000000000E+00 0.  1.
</event>
<event>
 8    1  0.2458065E-006  0.9118800E+02  0.7816164E-02  0.1184000E+00
        -11   -1    0    0    0    0  0.00000000000E+00  0.00000000000E+00  0.45593999997E+02  0.45594000000E+02  0.51100000000E-03 0.  1.
         11   -1    0    0    0    0 -0.00000000000E+00 -0.00000000000E+00 -0.45593999997E+02  0.45594000000E+02  0.51100000000E-03 0. -1.
         23    2    1    2    0    0 -0.88817841970E-15  0.00000000000E+00  0.71054273576E-14  0.91188000000E+02  0.91188000000E+02 0.  0.
    9900012    2    3    3    0    0 -0.58083334417E+01  0.92678907468E+01  0.35158917909E+02  0.54367081424E+02  0.39999993723E+02 0.  0.
         12    1    3    3    0    0  0.58083334417E+01 -0.92678907468E+01 -0.35158917909E+02  0.36820918576E+02  0.00000000000E+00 0. -1.
         11    1    4    4    0    0  0.29742430923E+01 -0.10412882620E+02  0.17619438387E+01  0.10971722417E+02  0.51100000000E-03 0. -1.
        -11    1    4    4    0    0 -0.76076761086E+01  0.18735487105E+01  0.18705343517E+02  0.20279960476E+02  0.51100000000E-03 0.  1.
         12    1    4    4    0    0 -0.11749004254E+01  0.17807224657E+02  0.14691630553E+02  0.23115398532E+02  0.00000000000E+00 0. -1.
</event>
<event>
 8    1  0.2458065E-006  0.9118800E+02  0.7816164E-02  0.1184000E+00
        -11   -1    0    0    0    0  0.00000000000E+00  0.00000000000E+00  0.45593999997E+02  0.45594000000E+02  0.51100000000E-03 0. -1.
         11   -1    0    0    0    0 -0.00000000000E+00 -0.00000000000E+00 -0.45593999997E+02  0.45594000000E+02  0.51100000000E-03 0.  1.
         23    2    1    2    0    0  0.44408920985E-15  0.00000000000E+00  0.00000000000E+00  0.91188000000E+02  0.91188000000E+02 0.  0.
    9900012    2    3    3    0    0 -0.31339066355E+01  0.20648842067E+02 -0.30324588641E+02  0.54367126494E+02  0.40000096468E+02 0.  0.
         12    1    3    3    0    0  0.31339066355E+01 -0.20648842067E+02  0.30324588641E+02  0.36820873506E+02  0.00000000000E+00 0. -1.
         11    1    4    4    0    0 -0.14434453747E+01 -0.24656469868E+01  0.67544027312E+01  0.73338193412E+01  0.51100000000E-03 0. -1.
        -11    1    4    4    0    0 -0.63586453973E+01  0.14876932364E+02 -0.32942170680E+02  0.36700709765E+02  0.51100000000E-03 0.  1.
         12    1    4    4    0    0  0.46681841365E+01  0.82375566895E+01 -0.41368206914E+01  0.10332597388E+02  0.00000000000E+00 0. -1.
</event>
<event>
 8    1  0.2458065E-006  0.9118800E+02  0.7816164E-02  0.1184000E+00
        -11   -1    0    0    0    0  0.00000000000E+00  0.00000000000E+00  0.45593999997E+02  0.45594000000E+02  0.51100000000E-03 0.  1.
         11   -1    0    0    0    0 -0.00000000000E+00 -0.00000000000E+00 -0.45593999997E+02  0.45594000000E+02  0.51100000000E-03 0. -1.
         23    2    1    2    0    0  0.00000000000E+00 -0.17763568394E-14 -0.71054273576E-14  0.91188000000E+02  0.91188000000E+02 0.  0.
    9900012    2    3    3    0    0  0.26301996481E+02 -0.14386274527E+02 -0.21377907439E+02  0.54367152099E+02  0.40000154840E+02 0.  0.
        -12    1    3    3    0    0 -0.26301996481E+02  0.14386274527E+02  0.21377907439E+02  0.36820847901E+02  0.00000000000E+00 0.  1.
         11    1    4    4    0    0  0.46294227250E+01 -0.17748467971E+02 -0.19129459648E+02  0.26502375305E+02  0.51100000000E-03 0. -1.
        -11    1    4    4    0    0  0.45910549810E+01 -0.64405122062E+01 -0.20442545962E+01  0.81692692716E+01  0.51100000000E-03 0.  1.
        -12    1    4    4    0    0  0.17081518775E+02  0.98027056504E+01 -0.20419319479E+00  0.19695507523E+02  0.00000000000E+00 0.  1.
</event>
<event>
 8    1  0.2458065E-006  0.9118800E+02  0.7816164E-02  0.1184000E+00
        -11   -1    0    0    0    0  0.00000000000E+00  0.00000000000E+00  0.45593999997E+02  0.45594000000E+02  0.51100000000E-03 0.  1.
         11   -1    0    0    0    0 -0.00000000000E+00 -0.00000000000E+00 -0.45593999997E+02  0.45594000000E+02  0.51100000000E-03 0. -1.
         23    2    1    2    0    0  0.00000000000E+00  0.35527136788E-14  0.00000000000E+00  0.91188000000E+02  0.91188000000E+02 0.  0.
    9900012    2    3    3    0    0  0.25959661288E+02  0.18934174101E+02 -0.17982579753E+02  0.54367080163E+02  0.39999990847E+02 0.  0.
        -12    1    3    3    0    0 -0.25959661288E+02 -0.18934174101E+02  0.17982579753E+02  0.36820919837E+02  0.00000000000E+00 0.  1.
         11    1    4    4    0    0  0.20227203079E+02  0.23488535988E+02 -0.77965350487E+01  0.31963057211E+02  0.51100000000E-03 0. -1.
        -11    1    4    4    0    0  0.15047845409E+01 -0.10971799899E+02 -0.21431898889E+01  0.11279983719E+02  0.51100000000E-03 0.  1.
         12    1    4    4    0    0  0.42276736683E+01  0.64174380115E+01 -0.80428548158E+01  0.11124039233E+02  0.00000000000E+00 0. -1.
</event>
<event>
 8    1  0.2458065E-006  0.9118800E+02  0.7816164E-02  0.1184000E+00
        -11   -1    0    0    0    0  0.00000000000E+00  0.00000000000E+00  0.45593999997E+02  0.45594000000E+02  0.51100000000E-03 0. -1.
         11   -1    0    0    0    0 -0.00000000000E+00 -0.00000000000E+00 -0.45593999997E+02  0.45594000000E+02  0.51100000000E-03 0.  1.
         23    2    1    2    0    0 -0.17763568394E-14  0.17763568394E-14  0.00000000000E+00  0.91188000000E+02  0.91188000000E+02 0.  0.
    9900012    2    3    3    0    0  0.55568263862E+01 -0.11094218659E+02 -0.34667270322E+02  0.54367086938E+02  0.40000006293E+02 0.  0.
         12    1    3    3    0    0 -0.55568263862E+01  0.11094218659E+02  0.34667270322E+02  0.36820913062E+02  0.00000000000E+00 0. -1.
         11    1    4    4    0    0  0.28625796185E+00  0.46167994003E+01 -0.53447475581E+00  0.46564411141E+01  0.51100000000E-03 0. -1.
        -11    1    4    4    0    0  0.82111113990E+01  0.28915701127E+01 -0.28872393194E+02  0.30156236787E+02  0.51100000000E-03 0.  1.
         12    1    4    4    0    0 -0.29405429746E+01 -0.18602588172E+02 -0.52604023722E+01  0.19554409037E+02  0.00000000000E+00 0. -1.
</event>
<event>
 8    1  0.2458065E-006  0.9118800E+02  0.7816164E-02  0.1184000E+00
        -11   -1    0    0    0    0  0.00000000000E+00  0.00000000000E+00  0.45593999997E+02  0.45594000000E+02  0.51100000000E-03 0. -1.
         11   -1    0    0    0    0 -0.00000000000E+00 -0.00000000000E+00 -0.45593999997E+02  0.45594000000E+02  0.51100000000E-03 0.  1.
         23    2    1    2    0    0  0.00000000000E+00  0.00000000000E+00  0.00000000000E+00  0.91188000000E+02  0.91188000000E+02 0.  0.
    9900012    2    3    3    0    0  0.34980800328E+02 -0.97974860377E+01  0.60109713730E+01  0.54367096954E+02  0.40000029127E+02 0.  0.
        -12    1    3    3    0    0 -0.34980800328E+02  0.97974860377E+01 -0.60109713730E+01  0.36820903046E+02  0.00000000000E+00 0.  1.
         11    1    4    4    0    0  0.15872961834E+02 -0.11777990070E+02  0.10104353347E+02  0.22198421662E+02  0.51100000000E-03 0. -1.
        -11    1    4    4    0    0 -0.17346310123E+01  0.72497968431E+01 -0.72989209312E+01  0.10432772692E+02  0.51100000000E-03 0.  1.
        -12    1    4    4    0    0  0.20842469507E+02 -0.52692928111E+01  0.32055389568E+01  0.21735902601E+02  0.00000000000E+00 0.  1.
</event>
<event>
 8    1  0.2458065E-006  0.9118800E+02  0.7816164E-02  0.1184000E+00
        -11   -1    0    0    0    0  0.00000000000E+00  0.00000000000E+00  0.45593999997E+02  0.45594000000E+02  0.51100000000E-03 0.  1.
         11   -1    0    0    0    0 -0.00000000000E+00 -0.00000000000E+00 -0.45593999997E+02  0.45594000000E+02  0.51100000000E-03 0. -1.
         23    2    1    2    0    0  0.00000000000E+00  0.00000000000E+00  0.71054273576E-14  0.91188000000E+02  0.91188000000E+02 0.  0.
    9900012    2    3    3    0    0 -0.10483083113E+01  0.29942515277E+01  0.36683842065E+02  0.54367234647E+02  0.40000343024E+02 0.  0.
         12    1    3    3    0    0  0.10483083113E+01 -0.29942515277E+01 -0.36683842065E+02  0.36820765353E+02  0.00000000000E+00 0. -1.
         11    1    4    4    0    0 -0.33137279924E+00 -0.15576807342E+02  0.80711770214E+01  0.17546812636E+02  0.51100000000E-03 0. -1.
        -11    1    4    4    0    0 -0.53848070297E+00  0.76996513387E+01  0.23632987258E+02  0.24861469772E+02  0.51100000000E-03 0.  1.
         12    1    4    4    0    0 -0.17845480912E+00  0.10871407531E+02  0.49796777851E+01  0.11958952240E+02  0.00000000000E+00 0. -1.
</event>
<event>
 8    1  0.2458065E-006  0.9118800E+02  0.7816164E-02  0.1184000E+00
        -11   -1    0    0    0    0  0.00000000000E+00  0.00000000000E+00  0.45593999997E+02  0.45594000000E+02  0.51100000000E-03 0.  1.
         11   -1    0    0    0    0 -0.00000000000E+00 -0.00000000000E+00 -0.45593999997E+02  0.45594000000E+02  0.51100000000E-03 0. -1.
         23    2    1    2    0    0  0.00000000000E+00 -0.17763568394E-14 -0.35527136788E-14  0.91188000000E+02  0.91188000000E+02 0.  0.
    9900012    2    3    3    0    0 -0.20269810141E+02 -0.11305764922E+02 -0.28584844955E+02  0.54367097177E+02  0.40000029634E+02 0.  0.
        -12    1    3    3    0    0  0.20269810141E+02  0.11305764922E+02  0.28584844955E+02  0.36820902823E+02  0.00000000000E+00 0.  1.
         11    1    4    4    0    0 -0.15953231951E+02  0.22490427227E+01 -0.11550413700E+02  0.19823618735E+02  0.51100000000E-03 0. -1.
        -11    1    4    4    0    0 -0.14094814385E+01  0.47640306776E+01  0.40875292960E+01  0.64335466291E+01  0.51100000000E-03 0.  1.
         12    1    4    4    0    0 -0.29070967516E+01 -0.18318838322E+02 -0.21121960551E+02  0.28109931813E+02  0.00000000000E+00 0. -1.
</event>
<event>
 8    1  0.2458065E-006  0.9118800E+02  0.7816164E-02  0.1184000E+00
        -11   -1    0    0    0    0  0.00000000000E+00  0.00000000000E+00  0.45593999997E+02  0.45594000000E+02  0.51100000000E-03 0. -1.
         11   -1    0    0    0    0 -0.00000000000E+00 -0.00000000000E+00 -0.45593999997E+02  0.45594000000E+02  0.51100000000E-03 0.  1.
         23    2    1    2    0    0  0.35527136788E-14  0.00000000000E+00  0.00000000000E+00  0.91188000000E+02  0.91188000000E+02 0.  0.
    9900012    2    3    3    0    0 -0.92124463373E+01 -0.26613372593E+02  0.23720004043E+02  0.54367090721E+02  0.40000014917E+02 0.  0.
        -12    1    3    3    0    0  0.92124463373E+01  0.26613372593E+02 -0.23720004043E+02  0.36820909279E+02  0.00000000000E+00 0.  1.
         11    1    4    4    0    0 -0.53917160783E+00 -0.16624271652E+02 -0.16082675609E+00  0.16633790292E+02  0.51100000000E-03 0. -1.
        -11    1    4    4    0    0  0.84973385536E+01 -0.68198814787E+01  0.13760197032E+02  0.17551597321E+02  0.51100000000E-03 0.  1.
         12    1    4    4    0    0 -0.17170613283E+02 -0.31692194628E+01  0.10120633767E+02  0.20181703109E+02  0.00000000000E+00 0. -1.
</event>
<event>
 8    1  0.2458065E-006  0.9118800E+02  0.7816164E-02  0.1184000E+00
        -11   -1    0    0    0    0  0.00000000000E+00  0.00000000000E+00  0.45593999997E+02  0.45594000000E+02  0.51100000000E-03 0.  1.
         11   -1    0    0    0    0 -0.00000000000E+00 -0.00000000000E+00 -0.45593999997E+02  0.45594000000E+02  0.51100000000E-03 0. -1.
         23    2    1    2    0    0  0.35527136788E-14  0.35527136788E-14  0.00000000000E+00  0.91188000000E+02  0.91188000000E+02 0.  0.
    9900012    2    3    3    0    0 -0.28400705172E+02  0.18264393952E+02 -0.14683051891E+02  0.54367079947E+02  0.39999990355E+02 0.  0.
        -12    1    3    3    0    0  0.28400705172E+02 -0.18264393952E+02  0.14683051891E+02  0.36820920053E+02  0.00000000000E+00 0.  1.
         11    1    4    4    0    0 -0.30232794686E+02  0.48246679396E+00 -0.30535407234E+01  0.30390438627E+02  0.51100000000E-03 0. -1.
        -11    1    4    4    0    0  0.34047628416E+01  0.18417121809E+02 -0.11995782773E+02  0.22241438586E+02  0.51100000000E-03 0.  1.
         12    1    4    4    0    0 -0.15726733273E+01 -0.63519465123E+00  0.36627160577E+00  0.17352027341E+01  0.00000000000E+00 0. -1.
</event>
<event>
 8    1  0.2458065E-006  0.9118800E+02  0.7816164E-02  0.1184000E+00
        -11   -1    0    0    0    0  0.00000000000E+00  0.00000000000E+00  0.45593999997E+02  0.45594000000E+02  0.51100000000E-03 0.  1.
         11   -1    0    0    0    0 -0.00000000000E+00 -0.00000000000E+00 -0.45593999997E+02  0.45594000000E+02  0.51100000000E-03 0. -1.
         23    2    1    2    0    0  0.00000000000E+00  0.00000000000E+00 -0.35527136788E-14  0.91188000000E+02  0.91188000000E+02 0.  0.
    9900012    2    3    3    0    0 -0.27579924818E+02  0.17447477939E+02  0.17050285859E+02  0.54367095784E+02  0.40000026459E+02 0.  0.
         12    1    3    3    0    0  0.27579924818E+02 -0.17447477939E+02 -0.17050285859E+02  0.36820904216E+02  0.00000000000E+00 0. -1.
         11    1    4    4    0    0 -0.28127451673E+02  0.85648314976E+01  0.16126642033E+02  0.33534735122E+02  0.51100000000E-03 0.  1.
        -11    1    4    4    0    0 -0.46038667369E+01  0.11292357382E+02 -0.44759035313E+01  0.12990251608E+02  0.51100000000E-03 0. -1.
        -12    1    4    4    0    0  0.51513935917E+01 -0.24097109400E+01  0.53995473571E+01  0.78421090539E+01  0.00000000000E+00 0.  1.
</event>
<event>
 8    1  0.2458065E-006  0.9118800E+02  0.7816164E-02  0.1184000E+00
        -11   -1    0    0    0    0  0.00000000000E+00  0.00000000000E+00  0.45593999997E+02  0.45594000000E+02  0.51100000000E-03 0. -1.
         11   -1    0    0    0    0 -0.00000000000E+00 -0.00000000000E+00 -0.45593999997E+02  0.45594000000E+02  0.51100000000E-03 0.  1.
         23    2    1    2    0    0 -0.71054273576E-14 -0.88817841970E-15  0.00000000000E+00  0.91188000000E+02  0.91188000000E+02 0.  0.
    9900012    2    3    3    0    0  0.27447218977E+02  0.73356683285E+01  0.23422618974E+02  0.54367069282E+02  0.39999966041E+02 0.  0.
        -12    1    3    3    0    0 -0.27447218977E+02 -0.73356683285E+01 -0.23422618974E+02  0.36820930718E+02  0.00000000000E+00 0.  1.
         11    1    4    4    0    0  0.26557937730E+02  0.12165137979E+02  0.10014190611E+02  0.30880392685E+02  0.51100000000E-03 0. -1.
        -11    1    4    4    0    0  0.22255628930E+01  0.59649576699E+01  0.10412706818E+02  0.12204847960E+02  0.51100000000E-03 0.  1.
        -12    1    4    4    0    0 -0.13362816466E+01 -0.10794427320E+02  0.29957215448E+01  0.11281828637E+02  0.00000000000E+00 0.  1.
</event>
<event>
 8    1  0.2458065E-006  0.9118800E+02  0.7816164E-02  0.1184000E+00
        -11   -1    0    0    0    0  0.00000000000E+00  0.00000000000E+00  0.45593999997E+02  0.45594000000E+02  0.51100000000E-03 0.  1.
         11   -1    0    0    0    0 -0.00000000000E+00 -0.00000000000E+00 -0.45593999997E+02  0.45594000000E+02  0.51100000000E-03 0. -1.
         23    2    1    2    0    0 -0.71054273576E-14  0.17763568394E-14 -0.88817841970E-15  0.91188000000E+02  0.91188000000E+02 0.  0.
    9900012    2    3    3    0    0  0.35543898006E+02 -0.64235009776E+01  0.71518884530E+01  0.54367088024E+02  0.40000008769E+02 0.  0.
        -12    1    3    3    0    0 -0.35543898006E+02  0.64235009776E+01 -0.71518884530E+01  0.36820911976E+02  0.00000000000E+00 0.  1.
         11    1    4    4    0    0  0.13713967081E+02  0.25601984495E+01 -0.71798845455E+01  0.15690068564E+02  0.51100000000E-03 0. -1.
        -11    1    4    4    0    0 -0.43108197877E+01  0.38651873892E+01  0.60956466147E+01  0.84071248776E+01  0.51100000000E-03 0.  1.
        -12    1    4    4    0    0  0.26140750713E+02 -0.12848886816E+02  0.82361263838E+01  0.30269894583E+02  0.00000000000E+00 0.  1.
</event>
<event>
 8    1  0.2458065E-006  0.9118800E+02  0.7816164E-02  0.1184000E+00
        -11   -1    0    0    0    0  0.00000000000E+00  0.00000000000E+00  0.45593999997E+02  0.45594000000E+02  0.51100000000E-03 0. -1.
         11   -1    0    0    0    0 -0.00000000000E+00 -0.00000000000E+00 -0.45593999997E+02  0.45594000000E+02  0.51100000000E-03 0.  1.
         23    2    1    2    0    0  0.00000000000E+00 -0.35527136788E-14  0.71054273576E-14  0.91188000000E+02  0.91188000000E+02 0.  0.
    9900012    2    3    3    0    0  0.10424997024E+02 -0.25568627581E+02  0.24358647676E+02  0.54367095666E+02  0.40000026190E+02 0.  0.
        -12    1    3    3    0    0 -0.10424997024E+02  0.25568627581E+02 -0.24358647676E+02  0.36820904334E+02  0.00000000000E+00 0.  1.
         11    1    4    4    0    0 -0.10975467207E+01 -0.80753294766E+01  0.61928015575E+00  0.81730693826E+01  0.51100000000E-03 0. -1.
        -11    1    4    4    0    0 -0.11652048277E+02 -0.62920866905E+01  0.42476643440E+01  0.13906949220E+02  0.51100000000E-03 0.  1.
         12    1    4    4    0    0  0.23174592022E+02 -0.11201211414E+02  0.19491703177E+02  0.32287077063E+02  0.00000000000E+00 0. -1.
</event>
<event>
 8    1  0.2458065E-006  0.9118800E+02  0.7816164E-02  0.1184000E+00
        -11   -1    0    0    0    0  0.00000000000E+00  0.00000000000E+00  0.45593999997E+02  0.45594000000E+02  0.51100000000E-03 0. -1.
         11   -1    0    0    0    0 -0.00000000000E+00 -0.00000000000E+00 -0.45593999997E+02  0.45594000000E+02  0.51100000000E-03 0.  1.
         23    2    1    2    0    0 -0.17763568394E-14  0.00000000000E+00 -0.17763568394E-14  0.91188000000E+02  0.91188000000E+02 0.  0.
    9900012    2    3    3    0    0  0.87786412238E+01  0.33899234647E+02  0.11382279043E+02  0.54367096594E+02  0.40000028306E+02 0.  0.
        -12    1    3    3    0    0 -0.87786412238E+01 -0.33899234647E+02 -0.11382279043E+02  0.36820903406E+02  0.00000000000E+00 0.  1.
         11    1    4    4    0    0 -0.12940593407E+01 -0.36777855111E+01 -0.52425553000E+01  0.65333821392E+01  0.51100000000E-03 0. -1.
        -11    1    4    4    0    0 -0.34735155585E+01 -0.10789718985E+01  0.28430911884E+01  0.46165634903E+01  0.51100000000E-03 0.  1.
         12    1    4    4    0    0  0.13546216123E+02  0.38655992057E+02  0.13781743154E+02  0.43217150965E+02  0.00000000000E+00 0. -1.
</event>
<event>
 8    1  0.2458065E-006  0.9118800E+02  0.7816164E-02  0.1184000E+00
        -11   -1    0    0    0    0  0.00000000000E+00  0.00000000000E+00  0.45593999997E+02  0.45594000000E+02  0.51100000000E-03 0.  1.
         11   -1    0    0    0    0 -0.00000000000E+00 -0.00000000000E+00 -0.45593999997E+02  0.45594000000E+02  0.51100000000E-03 0. -1.
         23    2    1    2    0    0  0.28796409701E-15  0.17763568394E-14  0.00000000000E+00  0.91188000000E+02  0.91188000000E+02 0.  0.
    9900012    2    3    3    0    0  0.30837553456E-01 -0.10879374936E+02  0.35177029240E+02  0.54367012288E+02  0.39999836112E+02 0.  0.
         12    1    3    3    0    0 -0.30837553456E-01  0.10879374936E+02 -0.35177029240E+02  0.36820987712E+02  0.00000000000E+00 0. -1.
         11    1    4    4    0    0 -0.63353584619E+01  0.42174677219E+01 -0.24847103304E+01  0.80060968339E+01  0.51100000000E-03 0. -1.
        -11    1    4    4    0    0  0.42587320681E+00 -0.16751618377E+02  0.36392569712E+02  0.40065162133E+02  0.51100000000E-03 0.  1.
        -12    1    4    4    0    0  0.59403228085E+01  0.16547757183E+01  0.12691698577E+01  0.62957533207E+01  0.00000000000E+00 0.  1.
</event>
<event>
 8    1  0.2458065E-006  0.9118800E+02  0.7816164E-02  0.1184000E+00
        -11   -1    0    0    0    0  0.00000000000E+00  0.00000000000E+00  0.45593999997E+02  0.45594000000E+02  0.51100000000E-03 0. -1.
         11   -1    0    0    0    0 -0.00000000000E+00 -0.00000000000E+00 -0.45593999997E+02  0.45594000000E+02  0.51100000000E-03 0.  1.
         23    2    1    2    0    0  0.00000000000E+00  0.00000000000E+00 -0.35527136788E-14  0.91188000000E+02  0.91188000000E+02 0.  0.
    9900012    2    3    3    0    0 -0.24432730866E+02 -0.21979010385E+02  0.16605766705E+02  0.54366990740E+02  0.39999786989E+02 0.  0.
         12    1    3    3    0    0  0.24432730866E+02  0.21979010385E+02 -0.16605766705E+02  0.36821009260E+02  0.00000000000E+00 0. -1.
         11    1    4    4    0    0 -0.46026822085E+01  0.78936311679E+01 -0.65277712933E+00  0.91607977147E+01  0.51100000000E-03 0. -1.
        -11    1    4    4    0    0 -0.46360133205E+01 -0.10226447925E+02  0.16994434795E+02  0.20368693403E+02  0.51100000000E-03 0.  1.
        -12    1    4    4    0    0 -0.15194035337E+02 -0.19646193628E+02  0.26410903894E+00  0.24837499622E+02  0.00000000000E+00 0.  1.
</event>
<event>
 8    1  0.2458065E-006  0.9118800E+02  0.7816164E-02  0.1184000E+00
        -11   -1    0    0    0    0  0.00000000000E+00  0.00000000000E+00  0.45593999997E+02  0.45594000000E+02  0.51100000000E-03 0.  1.
         11   -1    0    0    0    0 -0.00000000000E+00 -0.00000000000E+00 -0.45593999997E+02  0.45594000000E+02  0.51100000000E-03 0. -1.
         23    2    1    2    0    0  0.00000000000E+00  0.00000000000E+00  0.00000000000E+00  0.91188000000E+02  0.91188000000E+02 0.  0.
    9900012    2    3    3    0    0 -0.17354698914E+02  0.31246205373E+02 -0.88470091721E+01  0.54367075298E+02  0.39999979757E+02 0.  0.
        -12    1    3    3    0    0  0.17354698914E+02 -0.31246205373E+02  0.88470091721E+01  0.36820924702E+02  0.00000000000E+00 0.  1.
         11    1    4    4    0    0 -0.10693220245E+02  0.24913847311E+02 -0.23048607161E+02  0.35584870934E+02  0.51100000000E-03 0. -1.
        -11    1    4    4    0    0 -0.51717661570E+01 -0.18406951098E+00  0.38099433701E+01  0.64262520579E+01  0.51100000000E-03 0.  1.
         12    1    4    4    0    0 -0.14897125120E+01  0.65164275732E+01  0.10391654619E+02  0.12355952307E+02  0.00000000000E+00 0. -1.
</event>
<event>
 8    1  0.2458065E-006  0.9118800E+02  0.7816164E-02  0.1184000E+00
        -11   -1    0    0    0    0  0.00000000000E+00  0.00000000000E+00  0.45593999997E+02  0.45594000000E+02  0.51100000000E-03 0. -1.
         11   -1    0    0    0    0 -0.00000000000E+00 -0.00000000000E+00 -0.45593999997E+02  0.45594000000E+02  0.51100000000E-03 0.  1.
         23    2    1    2    0    0  0.11102230246E-14 -0.35527136788E-14  0.00000000000E+00  0.91188000000E+02  0.91188000000E+02 0.  0.
    9900012    2    3    3    0    0  0.12255174489E+01 -0.30341874616E+02  0.20824251222E+02  0.54367072701E+02  0.39999973837E+02 0.  0.
        -12    1    3    3    0    0 -0.12255174489E+01  0.30341874616E+02 -0.20824251222E+02  0.36820927299E+02  0.00000000000E+00 0.  1.
         11    1    4    4    0    0 -0.12506028960E+02 -0.16684429749E+02  0.10694376914E+02  0.23433750324E+02  0.51100000000E-03 0. -1.
        -11    1    4    4    0    0 -0.14716838285E+01  0.49019446505E+01  0.28682321986E+01  0.58669984535E+01  0.51100000000E-03 0.  1.
         12    1    4    4    0    0  0.15203230238E+02 -0.18559389518E+02  0.72616421088E+01  0.25066323924E+02  0.00000000000E+00 0. -1.
</event>
<event>
 8    1  0.2458065E-006  0.9118800E+02  0.7816164E-02  0.1184000E+00
        -11   -1    0    0    0    0  0.00000000000E+00  0.00000000000E+00  0.45593999997E+02  0.45594000000E+02  0.51100000000E-03 0. -1.
         11   -1    0    0    0    0 -0.00000000000E+00 -0.00000000000E+00 -0.45593999997E+02  0.45594000000E+02  0.51100000000E-03 0.  1.
         23    2    1    2    0    0 -0.44408920985E-14  0.88817841970E-15  0.00000000000E+00  0.91188000000E+02  0.91188000000E+02 0.  0.
    9900012    2    3    3    0    0 -0.72465278117E+01  0.70566259292E+01 -0.35404387717E+02  0.54367098267E+02  0.40000032119E+02 0.  0.
         12    1    3    3    0    0  0.72465278117E+01 -0.70566259292E+01  0.35404387717E+02  0.36820901733E+02  0.00000000000E+00 0. -1.
         11    1    4    4    0    0  0.11609373214E+02  0.27279126544E+01 -0.11179017243E+02  0.16345931624E+02  0.51100000000E-03 0. -1.
        -11    1    4    4    0    0  0.36915994554E+01 -0.34968947334E+01 -0.66990932111E+01  0.84103525151E+01  0.51100000000E-03 0.  1.
        -12    1    4    4    0    0 -0.22547500481E+02  0.78256080083E+01 -0.17526277263E+02  0.29610814128E+02  0.00000000000E+00 0.  1.
</event>
<event>
 8    1  0.2458065E-006  0.9118800E+02  0.7816164E-02  0.1184000E+00
        -11   -1    0    0    0    0  0.00000000000E+00  0.00000000000E+00  0.45593999997E+02  0.45594000000E+02  0.51100000000E-03 0. -1.
         11   -1    0    0    0    0 -0.00000000000E+00 -0.00000000000E+00 -0.45593999997E+02  0.45594000000E+02  0.51100000000E-03 0.  1.
         23    2    1    2    0    0  0.00000000000E+00  0.71054273576E-14  0.17763568394E-14  0.91188000000E+02  0.91188000000E+02 0.  0.
    9900012    2    3    3    0    0 -0.19057810965E+02  0.30174048267E+02  0.90612504698E+01  0.54367087359E+02  0.40000007253E+02 0.  0.
        -12    1    3    3    0    0  0.19057810965E+02 -0.30174048267E+02 -0.90612504698E+01  0.36820912641E+02  0.00000000000E+00 0.  1.
         11    1    4    4    0    0 -0.14495722737E+01  0.21997378957E+02 -0.71988811470E+01  0.23190727259E+02  0.51100000000E-03 0.  1.
        -11    1    4    4    0    0 -0.61332406253E+01 -0.55422010571E+01  0.25818253005E+01  0.86601648523E+01  0.51100000000E-03 0. -1.
        -12    1    4    4    0    0 -0.11474998066E+02  0.13718870367E+02  0.13678306316E+02  0.22516195248E+02  0.00000000000E+00 0.  1.
</event>
<event>
 8    1  0.2458065E-006  0.9118800E+02  0.7816164E-02  0.1184000E+00
        -11   -1    0    0    0    0  0.00000000000E+00  0.00000000000E+00  0.45593999997E+02  0.45594000000E+02  0.51100000000E-03 0. -1.
         11   -1    0    0    0    0 -0.00000000000E+00 -0.00000000000E+00 -0.45593999997E+02  0.45594000000E+02  0.51100000000E-03 0.  1.
         23    2    1    2    0    0  0.17763568394E-14  0.00000000000E+00 -0.15543122345E-14  0.91188000000E+02  0.91188000000E+02 0.  0.
    9900012    2    3    3    0    0 -0.13974834205E+02 -0.34010156550E+02  0.19476022926E+01  0.54367083468E+02  0.39999998381E+02 0.  0.
        -12    1    3    3    0    0  0.13974834205E+02  0.34010156550E+02 -0.19476022926E+01  0.36820916532E+02  0.00000000000E+00 0.  1.
         11    1    4    4    0    0 -0.88492900332E+01 -0.28153712290E+02 -0.81667920661E+01  0.30620874297E+02  0.51100000000E-03 0. -1.
        -11    1    4    4    0    0 -0.84035491255E+01 -0.67380742948E+00 -0.32553469800E+01  0.90371974958E+01  0.51100000000E-03 0.  1.
         12    1    4    4    0    0  0.32780049538E+01 -0.51826368305E+01  0.13369741339E+02  0.14709011675E+02  0.00000000000E+00 0. -1.
</event>
<event>
 8    1  0.2458065E-006  0.9118800E+02  0.7816164E-02  0.1184000E+00
        -11   -1    0    0    0    0  0.00000000000E+00  0.00000000000E+00  0.45593999997E+02  0.45594000000E+02  0.51100000000E-03 0. -1.
         11   -1    0    0    0    0 -0.00000000000E+00 -0.00000000000E+00 -0.45593999997E+02  0.45594000000E+02  0.51100000000E-03 0.  1.
         23    2    1    2    0    0 -0.35527136788E-14 -0.17763568394E-14  0.71054273576E-14  0.91188000000E+02  0.91188000000E+02 0.  0.
    9900012    2    3    3    0    0 -0.14698065986E+02 -0.81139463793E+01  0.32770568894E+02  0.54367089430E+02  0.40000011973E+02 0.  0.
        -12    1    3    3    0    0  0.14698065986E+02  0.81139463793E+01 -0.32770568894E+02  0.36820910570E+02  0.00000000000E+00 0.  1.
         11    1    4    4    0    0 -0.22249924174E+02 -0.17885496353E+01  0.24230040135E+02  0.32944694273E+02  0.51100000000E-03 0. -1.
        -11    1    4    4    0    0 -0.54325492288E+01 -0.13153791906E+01  0.36264567756E+01  0.66628824502E+01  0.51100000000E-03 0.  1.
        -12    1    4    4    0    0  0.12984407418E+02 -0.50100175533E+01  0.49140719839E+01  0.14759512706E+02  0.00000000000E+00 0.  1.
</event>
<event>
 8    1  0.2458065E-006  0.9118800E+02  0.7816164E-02  0.1184000E+00
        -11   -1    0    0    0    0  0.00000000000E+00  0.00000000000E+00  0.45593999997E+02  0.45594000000E+02  0.51100000000E-03 0.  1.
         11   -1    0    0    0    0 -0.00000000000E+00 -0.00000000000E+00 -0.45593999997E+02  0.45594000000E+02  0.51100000000E-03 0. -1.
         23    2    1    2    0    0  0.71054273576E-14 -0.17763568394E-14 -0.44408920985E-15  0.91188000000E+02  0.91188000000E+02 0.  0.
    9900012    2    3    3    0    0 -0.35092722515E+02 -0.10834840355E+02 -0.26242354527E+01  0.54367088133E+02  0.40000009016E+02 0.  0.
        -12    1    3    3    0    0  0.35092722515E+02  0.10834840355E+02  0.26242354527E+01  0.36820911867E+02  0.00000000000E+00 0.  1.
         11    1    4    4    0    0 -0.10508602124E+02 -0.18043102112E+02 -0.96006708962E+01  0.22981669529E+02  0.51100000000E-03 0. -1.
        -11    1    4    4    0    0  0.10299198790E+01  0.44526463492E+01  0.25891528249E+01  0.52526666637E+01  0.51100000000E-03 0.  1.
         12    1    4    4    0    0 -0.25614040269E+02  0.27556154070E+01  0.43872826186E+01  0.26132751940E+02  0.00000000000E+00 0. -1.
</event>
<event>
 8    1  0.2458065E-006  0.9118800E+02  0.7816164E-02  0.1184000E+00
        -11   -1    0    0    0    0  0.00000000000E+00  0.00000000000E+00  0.45593999997E+02  0.45594000000E+02  0.51100000000E-03 0.  1.
         11   -1    0    0    0    0 -0.00000000000E+00 -0.00000000000E+00 -0.45593999997E+02  0.45594000000E+02  0.51100000000E-03 0. -1.
         23    2    1    2    0    0 -0.35527136788E-14  0.00000000000E+00 -0.35527136788E-14  0.91188000000E+02  0.91188000000E+02 0.  0.
    9900012    2    3    3    0    0  0.27190396802E+02  0.13299400185E+02  0.20966339081E+02  0.54367094280E+02  0.40000023031E+02 0.  0.
         12    1    3    3    0    0 -0.27190396802E+02 -0.13299400185E+02 -0.20966339081E+02  0.36820905720E+02  0.00000000000E+00 0. -1.
         11    1    4    4    0    0 -0.33874120571E+01  0.17034124012E+02  0.24011259479E+01  0.17532864779E+02  0.51100000000E-03 0. -1.
        -11    1    4    4    0    0  0.19313551419E+02  0.14399086122E+01  0.10303558239E+02  0.21937409097E+02  0.51100000000E-03 0.  1.
         12    1    4    4    0    0  0.11264257441E+02 -0.51746324393E+01  0.82616548941E+01  0.14896820404E+02  0.00000000000E+00 0. -1.
</event>
<event>
 8    1  0.2458065E-006  0.9118800E+02  0.7816164E-02  0.1184000E+00
        -11   -1    0    0    0    0  0.00000000000E+00  0.00000000000E+00  0.45593999997E+02  0.45594000000E+02  0.51100000000E-03 0.  1.
         11   -1    0    0    0    0 -0.00000000000E+00 -0.00000000000E+00 -0.45593999997E+02  0.45594000000E+02  0.51100000000E-03 0. -1.
         23    2    1    2    0    0 -0.71054273576E-14 -0.77715611724E-15  0.17763568394E-14  0.91188000000E+02  0.91188000000E+02 0.  0.
    9900012    2    3    3    0    0 -0.35133781397E+02  0.68288006059E+00  0.10996888469E+02  0.54367075562E+02  0.39999980360E+02 0.  0.
         12    1    3    3    0    0  0.35133781397E+02 -0.68288006059E+00 -0.10996888469E+02  0.36820924438E+02  0.00000000000E+00 0. -1.
         11    1    4    4    0    0 -0.10037053709E+02 -0.60075463531E+01 -0.48344418629E+01  0.12657206988E+02  0.51100000000E-03 0. -1.
        -11    1    4    4    0    0 -0.23954138339E+02  0.16233370973E+02  0.11043894673E+02  0.30972418157E+02  0.51100000000E-03 0.  1.
         12    1    4    4    0    0 -0.11425893492E+01 -0.95429445592E+01  0.47874356591E+01  0.10737450418E+02  0.00000000000E+00 0. -1.
</event>
<event>
 8    1  0.2458065E-006  0.9118800E+02  0.7816164E-02  0.1184000E+00
        -11   -1    0    0    0    0  0.00000000000E+00  0.00000000000E+00  0.45593999997E+02  0.45594000000E+02  0.51100000000E-03 0. -1.
         11   -1    0    0    0    0 -0.00000000000E+00 -0.00000000000E+00 -0.45593999997E+02  0.45594000000E+02  0.51100000000E-03 0.  1.
         23    2    1    2    0    0  0.00000000000E+00  0.00000000000E+00  0.17763568394E-14  0.91188000000E+02  0.91188000000E+02 0.  0.
    9900012    2    3    3    0    0  0.26824641810E+02 -0.22254886949E+02 -0.11871768534E+02  0.54367078101E+02  0.39999986146E+02 0.  0.
        -12    1    3    3    0    0 -0.26824641810E+02  0.22254886949E+02  0.11871768534E+02  0.36820921899E+02  0.00000000000E+00 0.  1.
         11    1    4    4    0    0  0.85118763159E+01 -0.22262813524E+02  0.45986071607E+01  0.24274103330E+02  0.51100000000E-03 0. -1.
        -11    1    4    4    0    0 -0.18760456352E+01 -0.36134495855E+01 -0.54681480743E+01  0.68174195086E+01  0.51100000000E-03 0.  1.
         12    1    4    4    0    0  0.20188811130E+02  0.36213761601E+01 -0.11002227621E+02  0.23275555262E+02  0.00000000000E+00 0. -1.
</event>
<event>
 8    1  0.2458065E-006  0.9118800E+02  0.7816164E-02  0.1184000E+00
        -11   -1    0    0    0    0  0.00000000000E+00  0.00000000000E+00  0.45593999997E+02  0.45594000000E+02  0.51100000000E-03 0.  1.
         11   -1    0    0    0    0 -0.00000000000E+00 -0.00000000000E+00 -0.45593999997E+02  0.45594000000E+02  0.51100000000E-03 0. -1.
         23    2    1    2    0    0  0.88817841970E-15  0.00000000000E+00  0.35527136788E-14  0.91188000000E+02  0.91188000000E+02 0.  0.
    9900012    2    3    3    0    0  0.67770442553E+01 -0.32070261262E+02  0.16773492735E+02  0.54367081424E+02  0.39999993722E+02 0.  0.
        -12    1    3    3    0    0 -0.67770442553E+01  0.32070261262E+02 -0.16773492735E+02  0.36820918576E+02  0.00000000000E+00 0.  1.
         11    1    4    4    0    0  0.63383901538E+01 -0.26466640192E+01  0.36221826009E+01  0.77653220942E+01  0.51100000000E-03 0. -1.
        -11    1    4    4    0    0 -0.68329289476E+00  0.53743319452E+00  0.16419169551E+02  0.16442166907E+02  0.51100000000E-03 0.  1.
         12    1    4    4    0    0  0.11219469963E+01 -0.29961030437E+02 -0.32678594161E+01  0.30159592422E+02  0.00000000000E+00 0. -1.
</event>
<event>
 8    1  0.2458065E-006  0.9118800E+02  0.7816164E-02  0.1184000E+00
        -11   -1    0    0    0    0  0.00000000000E+00  0.00000000000E+00  0.45593999997E+02  0.45594000000E+02  0.51100000000E-03 0.  1.
         11   -1    0    0    0    0 -0.00000000000E+00 -0.00000000000E+00 -0.45593999997E+02  0.45594000000E+02  0.51100000000E-03 0. -1.
         23    2    1    2    0    0  0.00000000000E+00 -0.35527136788E-14  0.35527136788E-14  0.91188000000E+02  0.91188000000E+02 0.  0.
    9900012    2    3    3    0    0 -0.14355157271E+01  0.29690554552E+02  0.21729938797E+02  0.54367082370E+02  0.39999995878E+02 0.  0.
         12    1    3    3    0    0  0.14355157271E+01 -0.29690554552E+02 -0.21729938797E+02  0.36820917630E+02  0.00000000000E+00 0. -1.
         11    1    4    4    0    0  0.82735902103E+00 -0.78072983066E+01 -0.51077687164E-01  0.78511807385E+01  0.51100000000E-03 0. -1.
        -11    1    4    4    0    0 -0.93415495827E+01  0.16869247042E+02  0.97379104453E+01  0.21602382843E+02  0.51100000000E-03 0.  1.
         12    1    4    4    0    0  0.70786748346E+01  0.20628605817E+02  0.12043106039E+02  0.24913518788E+02  0.00000000000E+00 0. -1.
</event>
<event>
 8    1  0.2458065E-006  0.9118800E+02  0.7816164E-02  0.1184000E+00
        -11   -1    0    0    0    0  0.00000000000E+00  0.00000000000E+00  0.45593999997E+02  0.45594000000E+02  0.51100000000E-03 0.  1.
         11   -1    0    0    0    0 -0.00000000000E+00 -0.00000000000E+00 -0.45593999997E+02  0.45594000000E+02  0.51100000000E-03 0. -1.
         23    2    1    2    0    0  0.00000000000E+00  0.00000000000E+00  0.00000000000E+00  0.91188000000E+02  0.91188000000E+02 0.  0.
    9900012    2    3    3    0    0 -0.23852052478E+02  0.22802487981E+02  0.16337377256E+02  0.54367030959E+02  0.39999878677E+02 0.  0.
         12    1    3    3    0    0  0.23852052478E+02 -0.22802487981E+02 -0.16337377256E+02  0.36820969041E+02  0.00000000000E+00 0. -1.
         11    1    4    4    0    0 -0.27676890358E+02  0.14861691686E+02 -0.20345475228E+01  0.31480462569E+02  0.51100000000E-03 0. -1.
        -11    1    4    4    0    0 -0.18476866990E+01  0.76286897438E+01  0.12112759972E+02  0.14433634599E+02  0.51100000000E-03 0.  1.
         12    1    4    4    0    0  0.56725245792E+01  0.31210655043E+00  0.62591648071E+01  0.84529337915E+01  0.00000000000E+00 0. -1.
</event>
<event>
 8    1  0.2458065E-006  0.9118800E+02  0.7816164E-02  0.1184000E+00
        -11   -1    0    0    0    0  0.00000000000E+00  0.00000000000E+00  0.45593999997E+02  0.45594000000E+02  0.51100000000E-03 0.  1.
         11   -1    0    0    0    0 -0.00000000000E+00 -0.00000000000E+00 -0.45593999997E+02  0.45594000000E+02  0.51100000000E-03 0. -1.
         23    2    1    2    0    0  0.00000000000E+00 -0.35527136788E-14  0.35527136788E-14  0.91188000000E+02  0.91188000000E+02 0.  0.
    9900012    2    3    3    0    0 -0.21646154617E+02 -0.10925126946E+02  0.27710377167E+02  0.54367090027E+02  0.40000013335E+02 0.  0.
         12    1    3    3    0    0  0.21646154617E+02  0.10925126946E+02 -0.27710377167E+02  0.36820909973E+02  0.00000000000E+00 0. -1.
         11    1    4    4    0    0  0.49429388608E-01  0.54220158128E+01 -0.42865958372E+01  0.69119897910E+01  0.51100000000E-03 0. -1.
        -11    1    4    4    0    0 -0.12327438833E+02  0.34478308388E+01  0.15092927460E+02  0.19790142628E+02  0.51100000000E-03 0.  1.
         12    1    4    4    0    0 -0.93681451723E+01 -0.19794973598E+02  0.16904045544E+02  0.27664957608E+02  0.00000000000E+00 0. -1.
</event>
<event>
 8    1  0.2458065E-006  0.9118800E+02  0.7816164E-02  0.1184000E+00
        -11   -1    0    0    0    0  0.00000000000E+00  0.00000000000E+00  0.45593999997E+02  0.45594000000E+02  0.51100000000E-03 0. -1.
         11   -1    0    0    0    0 -0.00000000000E+00 -0.00000000000E+00 -0.45593999997E+02  0.45594000000E+02  0.51100000000E-03 0.  1.
         23    2    1    2    0    0  0.00000000000E+00  0.17763568394E-14 -0.35527136788E-14  0.91188000000E+02  0.91188000000E+02 0.  0.
    9900012    2    3    3    0    0 -0.17079036328E+02 -0.11149571406E+02  0.30655727976E+02  0.54367080916E+02  0.39999992565E+02 0.  0.
        -12    1    3    3    0    0  0.17079036328E+02  0.11149571406E+02 -0.30655727976E+02  0.36820919084E+02  0.00000000000E+00 0.  1.
         11    1    4    4    0    0 -0.72601702457E+01 -0.19613739016E+02  0.25377344216E+02  0.32884927093E+02  0.51100000000E-03 0. -1.
        -11    1    4    4    0    0 -0.30092533239E+01 -0.39250128957E+01 -0.22857432712E+01  0.54484818400E+01  0.51100000000E-03 0.  1.
         12    1    4    4    0    0 -0.68096127583E+01  0.12389180506E+02  0.75641270315E+01  0.16033671983E+02  0.00000000000E+00 0. -1.
</event>
<event>
 8    1  0.2458065E-006  0.9118800E+02  0.7816164E-02  0.1184000E+00
        -11   -1    0    0    0    0  0.00000000000E+00  0.00000000000E+00  0.45593999997E+02  0.45594000000E+02  0.51100000000E-03 0. -1.
         11   -1    0    0    0    0 -0.00000000000E+00 -0.00000000000E+00 -0.45593999997E+02  0.45594000000E+02  0.51100000000E-03 0.  1.
         23    2    1    2    0    0  0.00000000000E+00 -0.55511151231E-15  0.00000000000E+00  0.91188000000E+02  0.91188000000E+02 0.  0.
    9900012    2    3    3    0    0 -0.21151861879E+02 -0.39075882647E+00 -0.30136760589E+02  0.54367105223E+02  0.40000047976E+02 0.  0.
         12    1    3    3    0    0  0.21151861879E+02  0.39075882647E+00  0.30136760589E+02  0.36820894777E+02  0.00000000000E+00 0. -1.
         11    1    4    4    0    0  0.40326922555E+01  0.35925329791E+01 -0.12314022001E+01  0.55394270167E+01  0.51100000000E-03 0. -1.
        -11    1    4    4    0    0 -0.25567213926E+02 -0.31738424855E+01 -0.34557952601E+02  0.43104614512E+02  0.51100000000E-03 0.  1.
        -12    1    4    4    0    0  0.38265979152E+00 -0.80944932005E+00  0.56525942116E+01  0.57230636934E+01  0.00000000000E+00 0.  1.
</event>
<event>
 8    1  0.2458065E-006  0.9118800E+02  0.7816164E-02  0.1184000E+00
        -11   -1    0    0    0    0  0.00000000000E+00  0.00000000000E+00  0.45593999997E+02  0.45594000000E+02  0.51100000000E-03 0.  1.
         11   -1    0    0    0    0 -0.00000000000E+00 -0.00000000000E+00 -0.45593999997E+02  0.45594000000E+02  0.51100000000E-03 0. -1.
         23    2    1    2    0    0  0.35527136788E-14  0.00000000000E+00  0.00000000000E+00  0.91188000000E+02  0.91188000000E+02 0.  0.
    9900012    2    3    3    0    0  0.31773181751E+02 -0.35985810368E+01  0.18256415945E+02  0.54367060478E+02  0.39999945972E+02 0.  0.
        -12    1    3    3    0    0 -0.31773181751E+02  0.35985810368E+01 -0.18256415945E+02  0.36820939522E+02  0.00000000000E+00 0.  1.
         11    1    4    4    0    0  0.13668696217E+02 -0.51279751982E+01  0.11887696101E+02  0.18826755025E+02  0.51100000000E-03 0. -1.
        -11    1    4    4    0    0  0.14343986804E+02 -0.66454266409E+01  0.15907694382E+02  0.22426912259E+02  0.51100000000E-03 0.  1.
        -12    1    4    4    0    0  0.37604987310E+01  0.81748208023E+01 -0.95389745375E+01  0.13113393195E+02  0.00000000000E+00 0.  1.
</event>
<event>
 8    1  0.2458065E-006  0.9118800E+02  0.7816164E-02  0.1184000E+00
        -11   -1    0    0    0    0  0.00000000000E+00  0.00000000000E+00  0.45593999997E+02  0.45594000000E+02  0.51100000000E-03 0.  1.
         11   -1    0    0    0    0 -0.00000000000E+00 -0.00000000000E+00 -0.45593999997E+02  0.45594000000E+02  0.51100000000E-03 0. -1.
         23    2    1    2    0    0 -0.88817841970E-15  0.00000000000E+00 -0.88817841970E-15  0.91188000000E+02  0.91188000000E+02 0.  0.
    9900012    2    3    3    0    0 -0.30549077801E+01  0.36179013064E+02  0.61255803619E+01  0.54367133870E+02  0.40000113282E+02 0.  0.
        -12    1    3    3    0    0  0.30549077801E+01 -0.36179013064E+02 -0.61255803619E+01  0.36820866130E+02  0.00000000000E+00 0.  1.
         11    1    4    4    0    0  0.75727018097E+01  0.11057909861E+02 -0.80372866248E+01  0.15627576899E+02  0.51100000000E-03 0. -1.
        -11    1    4    4    0    0  0.14483389539E+01  0.39037804644E+01  0.13703432953E+02  0.14322055111E+02  0.51100000000E-03 0.  1.
        -12    1    4    4    0    0 -0.12075948544E+02  0.21217322738E+02  0.45943403347E+00  0.24417501859E+02  0.00000000000E+00 0.  1.
</event>
<event>
 8    1  0.2458065E-006  0.9118800E+02  0.7816164E-02  0.1184000E+00
        -11   -1    0    0    0    0  0.00000000000E+00  0.00000000000E+00  0.45593999997E+02  0.45594000000E+02  0.51100000000E-03 0.  1.
         11   -1    0    0    0    0 -0.00000000000E+00 -0.00000000000E+00 -0.45593999997E+02  0.45594000000E+02  0.51100000000E-03 0. -1.
         23    2    1    2    0    0 -0.17763568394E-14 -0.17763568394E-14 -0.71054273576E-14  0.91188000000E+02  0.91188000000E+02 0.  0.
    9900012    2    3    3    0    0 -0.49965211064E+01 -0.13034958582E+02 -0.34072041322E+02  0.54367090611E+02  0.40000014666E+02 0.  0.
        -12    1    3    3    0    0  0.49965211064E+01  0.13034958582E+02  0.34072041322E+02  0.36820909389E+02  0.00000000000E+00 0.  1.
         11    1    4    4    0    0  0.36664217905E+00 -0.58518438899E+01 -0.14660370983E+02  0.15789394575E+02  0.51100000000E-03 0. -1.
        -11    1    4    4    0    0  0.90688310796E+01 -0.10163827342E+02 -0.19565604520E+02  0.23840301254E+02  0.51100000000E-03 0.  1.
         12    1    4    4    0    0 -0.14431994365E+02  0.29807126502E+01  0.15393418117E+00  0.14737394783E+02  0.00000000000E+00 0. -1.
</event>
<event>
 8    1  0.2458065E-006  0.9118800E+02  0.7816164E-02  0.1184000E+00
        -11   -1    0    0    0    0  0.00000000000E+00  0.00000000000E+00  0.45593999997E+02  0.45594000000E+02  0.51100000000E-03 0. -1.
         11   -1    0    0    0    0 -0.00000000000E+00 -0.00000000000E+00 -0.45593999997E+02  0.45594000000E+02  0.51100000000E-03 0.  1.
         23    2    1    2    0    0 -0.44408920985E-15 -0.14210854715E-13 -0.88817841970E-15  0.91188000000E+02  0.91188000000E+02 0.  0.
    9900012    2    3    3    0    0  0.25887394615E+01 -0.36484323723E+02 -0.42391226788E+01  0.54367114478E+02  0.40000069077E+02 0.  0.
        -12    1    3    3    0    0 -0.25887394615E+01  0.36484323723E+02  0.42391226788E+01  0.36820885522E+02  0.00000000000E+00 0.  1.
         11    1    4    4    0    0 -0.86932348305E+01 -0.44523119171E+01  0.62709407624E+01  0.11606899307E+02  0.51100000000E-03 0. -1.
        -11    1    4    4    0    0  0.94565126944E+00 -0.12105275972E+02 -0.15574142713E+02  0.19748060264E+02  0.51100000000E-03 0.  1.
         12    1    4    4    0    0  0.10336323023E+02 -0.19926735834E+02  0.50640792717E+01  0.23012154907E+02  0.00000000000E+00 0. -1.
</event>
<event>
 8    1  0.2458065E-006  0.9118800E+02  0.7816164E-02  0.1184000E+00
        -11   -1    0    0    0    0  0.00000000000E+00  0.00000000000E+00  0.45593999997E+02  0.45594000000E+02  0.51100000000E-03 0.  1.
         11   -1    0    0    0    0 -0.00000000000E+00 -0.00000000000E+00 -0.45593999997E+02  0.45594000000E+02  0.51100000000E-03 0. -1.
         23    2    1    2    0    0  0.11102230246E-14  0.00000000000E+00  0.00000000000E+00  0.91188000000E+02  0.91188000000E+02 0.  0.
    9900012    2    3    3    0    0  0.67520013025E+00  0.34274885292E+02 -0.13437160168E+02  0.54367069398E+02  0.39999966307E+02 0.  0.
        -12    1    3    3    0    0 -0.67520013025E+00 -0.34274885292E+02  0.13437160168E+02  0.36820930602E+02  0.00000000000E+00 0.  1.
         11    1    4    4    0    0 -0.37347328168E+01  0.31775462556E+02 -0.10788830023E+02  0.33764287396E+02  0.51100000000E-03 0. -1.
        -11    1    4    4    0    0  0.11991119916E+02  0.39279528262E+01 -0.65623457378E+00  0.12635126209E+02  0.51100000000E-03 0.  1.
         12    1    4    4    0    0 -0.75811869688E+01 -0.14285300896E+01 -0.19920955713E+01  0.79676557931E+01  0.00000000000E+00 0. -1.
</event>
<event>
 8    1  0.2458065E-006  0.9118800E+02  0.7816164E-02  0.1184000E+00
        -11   -1    0    0    0    0  0.00000000000E+00  0.00000000000E+00  0.45593999997E+02  0.45594000000E+02  0.51100000000E-03 0. -1.
         11   -1    0    0    0    0 -0.00000000000E+00 -0.00000000000E+00 -0.45593999997E+02  0.45594000000E+02  0.51100000000E-03 0.  1.
         23    2    1    2    0    0  0.00000000000E+00  0.00000000000E+00  0.00000000000E+00  0.91188000000E+02  0.91188000000E+02 0.  0.
    9900012    2    3    3    0    0  0.26486991820E+02 -0.74449350944E+01 -0.24470235053E+02  0.54367079347E+02  0.39999988987E+02 0.  0.
         12    1    3    3    0    0 -0.26486991820E+02  0.74449350944E+01  0.24470235053E+02  0.36820920653E+02  0.00000000000E+00 0. -1.
         11    1    4    4    0    0  0.25581281415E+02 -0.89294408753E+01 -0.22605191546E+02  0.35286421726E+02  0.51100000000E-03 0.  1.
        -11    1    4    4    0    0  0.19591682079E+01  0.84112942114E+01  0.43901617536E+01  0.96882264043E+01  0.51100000000E-03 0. -1.
         12    1    4    4    0    0 -0.10534578029E+01 -0.69267884305E+01 -0.62552052601E+01  0.93924312161E+01  0.00000000000E+00 0. -1.
</event>
<event>
 8    1  0.2458065E-006  0.9118800E+02  0.7816164E-02  0.1184000E+00
        -11   -1    0    0    0    0  0.00000000000E+00  0.00000000000E+00  0.45593999997E+02  0.45594000000E+02  0.51100000000E-03 0. -1.
         11   -1    0    0    0    0 -0.00000000000E+00 -0.00000000000E+00 -0.45593999997E+02  0.45594000000E+02  0.51100000000E-03 0.  1.
         23    2    1    2    0    0  0.17763568394E-14  0.00000000000E+00  0.35527136788E-14  0.91188000000E+02  0.91188000000E+02 0.  0.
    9900012    2    3    3    0    0 -0.12095173439E+02  0.21115791855E+02  0.27633513152E+02  0.54367069331E+02  0.39999966154E+02 0.  0.
        -12    1    3    3    0    0  0.12095173439E+02 -0.21115791855E+02 -0.27633513152E+02  0.36820930669E+02  0.00000000000E+00 0.  1.
         11    1    4    4    0    0 -0.70242676451E+01  0.48005591959E+01 -0.13092201747E+01  0.86081218783E+01  0.51100000000E-03 0. -1.
        -11    1    4    4    0    0 -0.12301752765E+02 -0.69974070876E+00  0.11450412897E+01  0.12374727390E+02  0.51100000000E-03 0.  1.
        -12    1    4    4    0    0  0.72308469714E+01  0.17014973368E+02  0.27797692037E+02  0.33384220063E+02  0.00000000000E+00 0.  1.
</event>
<event>
 8    1  0.2458065E-006  0.9118800E+02  0.7816164E-02  0.1184000E+00
        -11   -1    0    0    0    0  0.00000000000E+00  0.00000000000E+00  0.45593999997E+02  0.45594000000E+02  0.51100000000E-03 0. -1.
         11   -1    0    0    0    0 -0.00000000000E+00 -0.00000000000E+00 -0.45593999997E+02  0.45594000000E+02  0.51100000000E-03 0.  1.
         23    2    1    2    0    0 -0.17763568394E-14  0.00000000000E+00 -0.35527136788E-14  0.91188000000E+02  0.91188000000E+02 0.  0.
    9900012    2    3    3    0    0 -0.12526364216E+02 -0.19059078751E+02  0.28907086022E+02  0.54367110472E+02  0.40000059943E+02 0.  0.
        -12    1    3    3    0    0  0.12526364216E+02  0.19059078751E+02 -0.28907086022E+02  0.36820889528E+02  0.00000000000E+00 0.  1.
         11    1    4    4    0    0  0.96771858679E+01 -0.17295688932E+02  0.59491766523E+01  0.20692546606E+02  0.51100000000E-03 0. -1.
        -11    1    4    4    0    0 -0.85221504011E+01 -0.21264570157E+01  0.26300353999E+01  0.91687487349E+01  0.51100000000E-03 0.  1.
         12    1    4    4    0    0 -0.13681399683E+02  0.36306719664E+00  0.20327873970E+02  0.24505815131E+02  0.00000000000E+00 0. -1.
</event>
<event>
 8    1  0.2458065E-006  0.9118800E+02  0.7816164E-02  0.1184000E+00
        -11   -1    0    0    0    0  0.00000000000E+00  0.00000000000E+00  0.45593999997E+02  0.45594000000E+02  0.51100000000E-03 0.  1.
         11   -1    0    0    0    0 -0.00000000000E+00 -0.00000000000E+00 -0.45593999997E+02  0.45594000000E+02  0.51100000000E-03 0. -1.
         23    2    1    2    0    0  0.00000000000E+00  0.00000000000E+00  0.00000000000E+00  0.91188000000E+02  0.91188000000E+02 0.  0.
    9900012    2    3    3    0    0 -0.73939990967E+01  0.10483133972E+02 -0.34513943962E+02  0.54367086808E+02  0.40000005995E+02 0.  0.
        -12    1    3    3    0    0  0.73939990967E+01 -0.10483133972E+02  0.34513943962E+02  0.36820913192E+02  0.00000000000E+00 0.  1.
         11    1    4    4    0    0 -0.78050349801E+01  0.16721420837E+02 -0.78048602464E+00  0.18469803587E+02  0.51100000000E-03 0.  1.
        -11    1    4    4    0    0 -0.28487321162E+01 -0.80420964454E+01 -0.24341053078E+02  0.25792972979E+02  0.51100000000E-03 0. -1.
         12    1    4    4    0    0  0.32597679996E+01  0.18038095811E+01 -0.93924048594E+01  0.10104310242E+02  0.00000000000E+00 0. -1.
</event>
<event>
 8    1  0.2458065E-006  0.9118800E+02  0.7816164E-02  0.1184000E+00
        -11   -1    0    0    0    0  0.00000000000E+00  0.00000000000E+00  0.45593999997E+02  0.45594000000E+02  0.51100000000E-03 0.  1.
         11   -1    0    0    0    0 -0.00000000000E+00 -0.00000000000E+00 -0.45593999997E+02  0.45594000000E+02  0.51100000000E-03 0. -1.
         23    2    1    2    0    0 -0.35527136788E-14 -0.35527136788E-14  0.17763568394E-14  0.91188000000E+02  0.91188000000E+02 0.  0.
    9900012    2    3    3    0    0  0.27713239315E+02  0.21407122328E+02 -0.11379414936E+02  0.54367087410E+02  0.40000007369E+02 0.  0.
        -12    1    3    3    0    0 -0.27713239315E+02 -0.21407122328E+02  0.11379414936E+02  0.36820912590E+02  0.00000000000E+00 0.  1.
         11    1    4    4    0    0  0.29297350203E-01  0.84373907323E+01 -0.18599910898E+02  0.20424179454E+02  0.51100000000E-03 0. -1.
        -11    1    4    4    0    0  0.25369942538E+02  0.14714433340E+02  0.39825301747E+01  0.29597450562E+02  0.51100000000E-03 0.  1.
         12    1    4    4    0    0  0.23139994261E+01 -0.17447017444E+01  0.32379657874E+01  0.43454573938E+01  0.00000000000E+00 0. -1.
</event>
<event>
 8    1  0.2458065E-006  0.9118800E+02  0.7816164E-02  0.1184000E+00
        -11   -1    0    0    0    0  0.00000000000E+00  0.00000000000E+00  0.45593999997E+02  0.45594000000E+02  0.51100000000E-03 0. -1.
         11   -1    0    0    0    0 -0.00000000000E+00 -0.00000000000E+00 -0.45593999997E+02  0.45594000000E+02  0.51100000000E-03 0.  1.
         23    2    1    2    0    0  0.00000000000E+00  0.00000000000E+00 -0.35527136788E-14  0.91188000000E+02  0.91188000000E+02 0.  0.
    9900012    2    3    3    0    0 -0.27249548808E+02 -0.16436459374E+02 -0.18522465116E+02  0.54367125201E+02  0.40000093521E+02 0.  0.
        -12    1    3    3    0    0  0.27249548808E+02  0.16436459374E+02  0.18522465116E+02  0.36820874799E+02  0.00000000000E+00 0.  1.
         11    1    4    4    0    0  0.14988350757E+01 -0.78761937568E+01 -0.30609318786E+01  0.85819717376E+01  0.51100000000E-03 0. -1.
        -11    1    4    4    0    0 -0.24500506155E+02 -0.15893775380E+02 -0.20723144909E+02  0.35809714224E+02  0.51100000000E-03 0.  1.
         12    1    4    4    0    0 -0.42478777291E+01  0.73335097627E+01  0.52616116712E+01  0.99754392394E+01  0.00000000000E+00 0. -1.
</event>
<event>
 8    1  0.2458065E-006  0.9118800E+02  0.7816164E-02  0.1184000E+00
        -11   -1    0    0    0    0  0.00000000000E+00  0.00000000000E+00  0.45593999997E+02  0.45594000000E+02  0.51100000000E-03 0.  1.
         11   -1    0    0    0    0 -0.00000000000E+00 -0.00000000000E+00 -0.45593999997E+02  0.45594000000E+02  0.51100000000E-03 0. -1.
         23    2    1    2    0    0 -0.35527136788E-14 -0.17763568394E-14  0.00000000000E+00  0.91188000000E+02  0.91188000000E+02 0.  0.
    9900012    2    3    3    0    0  0.27009053223E+02 -0.91437360234E+01 -0.23295554815E+02  0.54367085582E+02  0.40000003202E+02 0.  0.
         12    1    3    3    0    0 -0.27009053223E+02  0.91437360234E+01  0.23295554815E+02  0.36820914418E+02  0.00000000000E+00 0. -1.
         11    1    4    4    0    0  0.75879223649E+00  0.14462580139E+01 -0.12262333290E+02  0.12370620270E+02  0.51100000000E-03 0. -1.
        -11    1    4    4    0    0  0.92194286701E+01 -0.18541328657E+02 -0.10443892008E+02  0.23191671219E+02  0.51100000000E-03 0.  1.
         12    1    4    4    0    0  0.17030832316E+02  0.79513346199E+01 -0.58932951699E+00  0.18804794093E+02  0.00000000000E+00 0. -1.
</event>
<event>
 8    1  0.2458065E-006  0.9118800E+02  0.7816164E-02  0.1184000E+00
        -11   -1    0    0    0    0  0.00000000000E+00  0.00000000000E+00  0.45593999997E+02  0.45594000000E+02  0.51100000000E-03 0. -1.
         11   -1    0    0    0    0 -0.00000000000E+00 -0.00000000000E+00 -0.45593999997E+02  0.45594000000E+02  0.51100000000E-03 0.  1.
         23    2    1    2    0    0  0.35527136788E-14  0.00000000000E+00  0.71054273576E-14  0.91188000000E+02  0.91188000000E+02 0.  0.
    9900012    2    3    3    0    0  0.24973643696E+02  0.47739938508E+01  0.26632817224E+02  0.54367070489E+02  0.39999968794E+02 0.  0.
        -12    1    3    3    0    0 -0.24973643696E+02 -0.47739938508E+01 -0.26632817224E+02  0.36820929511E+02  0.00000000000E+00 0.  1.
         11    1    4    4    0    0  0.18771860434E+02  0.12652608130E+02  0.33738340154E+02  0.40629383865E+02  0.51100000000E-03 0. -1.
        -11    1    4    4    0    0  0.30864610816E+01 -0.55379752808E+01 -0.89061952654E+00  0.64022352051E+01  0.51100000000E-03 0.  1.
         12    1    4    4    0    0  0.31153221802E+01 -0.23406389979E+01 -0.62149034032E+01  0.73354514187E+01  0.00000000000E+00 0. -1.
</event>
<event>
 8    1  0.2458065E-006  0.9118800E+02  0.7816164E-02  0.1184000E+00
        -11   -1    0    0    0    0  0.00000000000E+00  0.00000000000E+00  0.45593999997E+02  0.45594000000E+02  0.51100000000E-03 0.  1.
         11   -1    0    0    0    0 -0.00000000000E+00 -0.00000000000E+00 -0.45593999997E+02  0.45594000000E+02  0.51100000000E-03 0. -1.
         23    2    1    2    0    0  0.00000000000E+00  0.00000000000E+00 -0.35527136788E-14  0.91188000000E+02  0.91188000000E+02 0.  0.
    9900012    2    3    3    0    0 -0.21092153349E+01 -0.26945079281E+02 -0.25005888605E+02  0.54367074540E+02  0.39999978029E+02 0.  0.
        -12    1    3    3    0    0  0.21092153349E+01  0.26945079281E+02  0.25005888605E+02  0.36820925460E+02  0.00000000000E+00 0.  1.
         11    1    4    4    0    0  0.91003186662E+00 -0.44083489453E+01 -0.23042032180E+02  0.23477583898E+02  0.51100000000E-03 0. -1.
        -11    1    4    4    0    0  0.24890280108E+01 -0.82004940525E+01 -0.10312782528E+02  0.13408834657E+02  0.51100000000E-03 0.  1.
        -12    1    4    4    0    0 -0.55082752124E+01 -0.14336236283E+02  0.83489261026E+01  0.17480655985E+02  0.00000000000E+00 0.  1.
</event>
<event>
 8    1  0.2458065E-006  0.9118800E+02  0.7816164E-02  0.1184000E+00
        -11   -1    0    0    0    0  0.00000000000E+00  0.00000000000E+00  0.45593999997E+02  0.45594000000E+02  0.51100000000E-03 0.  1.
         11   -1    0    0    0    0 -0.00000000000E+00 -0.00000000000E+00 -0.45593999997E+02  0.45594000000E+02  0.51100000000E-03 0. -1.
         23    2    1    2    0    0  0.00000000000E+00  0.00000000000E+00  0.00000000000E+00  0.91188000000E+02  0.91188000000E+02 0.  0.
    9900012    2    3    3    0    0  0.19150584974E+02 -0.17336470122E+02  0.26238906590E+02  0.54367104843E+02  0.40000047110E+02 0.  0.
         12    1    3    3    0    0 -0.19150584974E+02  0.17336470122E+02 -0.26238906590E+02  0.36820895157E+02  0.00000000000E+00 0. -1.
         11    1    4    4    0    0 -0.55671108639E+01 -0.80626098842E+01  0.81869233935E+01  0.12768089772E+02  0.51100000000E-03 0. -1.
        -11    1    4    4    0    0  0.64626563728E+01 -0.80995926718E+01  0.20668108759E+02  0.23120122162E+02  0.51100000000E-03 0.  1.
         12    1    4    4    0    0  0.18255039465E+02 -0.11742675659E+01 -0.26161255625E+01  0.18478892909E+02  0.00000000000E+00 0. -1.
</event>
<event>
 8    1  0.2458065E-006  0.9118800E+02  0.7816164E-02  0.1184000E+00
        -11   -1    0    0    0    0  0.00000000000E+00  0.00000000000E+00  0.45593999997E+02  0.45594000000E+02  0.51100000000E-03 0.  1.
         11   -1    0    0    0    0 -0.00000000000E+00 -0.00000000000E+00 -0.45593999997E+02  0.45594000000E+02  0.51100000000E-03 0. -1.
         23    2    1    2    0    0  0.35128150389E-15  0.71054273576E-14  0.44408920985E-15  0.91188000000E+02  0.91188000000E+02 0.  0.
    9900012    2    3    3    0    0  0.69354960296E-02  0.36681637590E+02  0.31995651733E+01  0.54367084725E+02  0.40000001248E+02 0.  0.
        -12    1    3    3    0    0 -0.69354960296E-02 -0.36681637590E+02 -0.31995651733E+01  0.36820915275E+02  0.00000000000E+00 0.  1.
         11    1    4    4    0    0 -0.18811748676E+01  0.28578309852E+02  0.27103954940E+01  0.28768122234E+02  0.51100000000E-03 0. -1.
        -11    1    4    4    0    0  0.11399039058E+01  0.10833092202E+02  0.10539871360E+02  0.15157313618E+02  0.51100000000E-03 0.  1.
        -12    1    4    4    0    0  0.74820645778E+00 -0.27297644635E+01 -0.10050701680E+02  0.10441648873E+02  0.00000000000E+00 0.  1.
</event>
<event>
 8    1  0.2458065E-006  0.9118800E+02  0.7816164E-02  0.1184000E+00
        -11   -1    0    0    0    0  0.00000000000E+00  0.00000000000E+00  0.45593999997E+02  0.45594000000E+02  0.51100000000E-03 0. -1.
         11   -1    0    0    0    0 -0.00000000000E+00 -0.00000000000E+00 -0.45593999997E+02  0.45594000000E+02  0.51100000000E-03 0.  1.
         23    2    1    2    0    0  0.00000000000E+00  0.00000000000E+00  0.00000000000E+00  0.91188000000E+02  0.91188000000E+02 0.  0.
    9900012    2    3    3    0    0  0.22527846408E+02  0.64562252995E+01 -0.28400587539E+02  0.54367080926E+02  0.39999992586E+02 0.  0.
         12    1    3    3    0    0 -0.22527846408E+02 -0.64562252995E+01  0.28400587539E+02  0.36820919074E+02  0.00000000000E+00 0. -1.
         11    1    4    4    0    0  0.16406653815E+02  0.12224797021E+02 -0.40456476531E+01  0.20856443053E+02  0.51100000000E-03 0. -1.
        -11    1    4    4    0    0  0.13921069089E+02 -0.42436542270E+01 -0.18974528453E+02  0.23913123929E+02  0.51100000000E-03 0.  1.
         12    1    4    4    0    0 -0.77998764957E+01 -0.15249174949E+01 -0.53804114331E+01  0.95975139439E+01  0.00000000000E+00 0. -1.
</event>
<event>
 8    1  0.2458065E-006  0.9118800E+02  0.7816164E-02  0.1184000E+00
        -11   -1    0    0    0    0  0.00000000000E+00  0.00000000000E+00  0.45593999997E+02  0.45594000000E+02  0.51100000000E-03 0.  1.
         11   -1    0    0    0    0 -0.00000000000E+00 -0.00000000000E+00 -0.45593999997E+02  0.45594000000E+02  0.51100000000E-03 0. -1.
         23    2    1    2    0    0  0.13322676296E-14  0.35527136788E-14  0.00000000000E+00  0.91188000000E+02  0.91188000000E+02 0.  0.
    9900012    2    3    3    0    0  0.15106051049E+01 -0.15359749042E+02  0.33430150652E+02  0.54367098448E+02  0.40000032533E+02 0.  0.
         12    1    3    3    0    0 -0.15106051049E+01  0.15359749042E+02 -0.33430150652E+02  0.36820901552E+02  0.00000000000E+00 0. -1.
         11    1    4    4    0    0 -0.45690836521E+01 -0.89257319124E+00  0.86166469105E+00  0.47345198935E+01  0.51100000000E-03 0. -1.
        -11    1    4    4    0    0  0.11969557291E+02  0.53487182697E+01  0.23810533985E+02  0.27181254897E+02  0.51100000000E-03 0.  1.
        -12    1    4    4    0    0 -0.58898685345E+01 -0.19815894121E+02  0.87579519764E+01  0.22451323658E+02  0.00000000000E+00 0.  1.
</event>
<event>
 8    1  0.2458065E-006  0.9118800E+02  0.7816164E-02  0.1184000E+00
        -11   -1    0    0    0    0  0.00000000000E+00  0.00000000000E+00  0.45593999997E+02  0.45594000000E+02  0.51100000000E-03 0. -1.
         11   -1    0    0    0    0 -0.00000000000E+00 -0.00000000000E+00 -0.45593999997E+02  0.45594000000E+02  0.51100000000E-03 0.  1.
         23    2    1    2    0    0 -0.71054273576E-14  0.35527136788E-14  0.00000000000E+00  0.91188000000E+02  0.91188000000E+02 0.  0.
    9900012    2    3    3    0    0 -0.25354820891E+02  0.25980447400E+02  0.61584143407E+01  0.54367127432E+02  0.40000098606E+02 0.  0.
        -12    1    3    3    0    0  0.25354820891E+02 -0.25980447400E+02 -0.61584143407E+01  0.36820872568E+02  0.00000000000E+00 0.  1.
         11    1    4    4    0    0 -0.65055428705E+00  0.16542487246E+02  0.14550392035E+02  0.22040667272E+02  0.51100000000E-03 0.  1.
        -11    1    4    4    0    0  0.15646354696E+01 -0.18834663976E+01  0.20671735566E+00  0.24572875595E+01  0.51100000000E-03 0. -1.
        -12    1    4    4    0    0 -0.26268902073E+02  0.11321426551E+02 -0.85986950495E+01  0.29869172601E+02  0.00000000000E+00 0.  1.
</event>
<event>
 8    1  0.2458065E-006  0.9118800E+02  0.7816164E-02  0.1184000E+00
        -11   -1    0    0    0    0  0.00000000000E+00  0.00000000000E+00  0.45593999997E+02  0.45594000000E+02  0.51100000000E-03 0.  1.
         11   -1    0    0    0    0 -0.00000000000E+00 -0.00000000000E+00 -0.45593999997E+02  0.45594000000E+02  0.51100000000E-03 0. -1.
         23    2    1    2    0    0 -0.35527136788E-14  0.00000000000E+00  0.17763568394E-14  0.91188000000E+02  0.91188000000E+02 0.  0.
    9900012    2    3    3    0    0 -0.30585178959E+02 -0.15349998280E+02  0.13591151980E+02  0.54366877919E+02  0.39999529789E+02 0.  0.
         12    1    3    3    0    0  0.30585178959E+02  0.15349998280E+02 -0.13591151980E+02  0.36821122081E+02  0.00000000000E+00 0. -1.
         11    1    4    4    0    0 -0.27755109719E+02 -0.58256472567E+00  0.12182424967E+01  0.27787940050E+02  0.51100000000E-03 0. -1.
        -11    1    4    4    0    0  0.13087298717E+01 -0.14710790005E+02  0.13807635420E+01  0.14833294465E+02  0.51100000000E-03 0.  1.
        -12    1    4    4    0    0 -0.41387991124E+01 -0.56643548703E-01  0.10992145942E+02  0.11745643404E+02  0.00000000000E+00 0.  1.
</event>
<event>
 8    1  0.2458065E-006  0.9118800E+02  0.7816164E-02  0.1184000E+00
        -11   -1    0    0    0    0  0.00000000000E+00  0.00000000000E+00  0.45593999997E+02  0.45594000000E+02  0.51100000000E-03 0. -1.
         11   -1    0    0    0    0 -0.00000000000E+00 -0.00000000000E+00 -0.45593999997E+02  0.45594000000E+02  0.51100000000E-03 0.  1.
         23    2    1    2    0    0 -0.13322676296E-14  0.00000000000E+00  0.00000000000E+00  0.91188000000E+02  0.91188000000E+02 0.  0.
    9900012    2    3    3    0    0 -0.36856960494E+01 -0.87196626002E+01  0.35583180000E+02  0.54367087869E+02  0.40000008415E+02 0.  0.
        -12    1    3    3    0    0  0.36856960494E+01  0.87196626002E+01 -0.35583180000E+02  0.36820912131E+02  0.00000000000E+00 0.  1.
         11    1    4    4    0    0 -0.93760258289E+01 -0.19696653224E+01 -0.39305795627E+01  0.10355621555E+02  0.51100000000E-03 0. -1.
        -11    1    4    4    0    0  0.11913873480E+02 -0.49447659216E+01  0.26659463294E+02  0.29616179273E+02  0.51100000000E-03 0.  1.
         12    1    4    4    0    0 -0.62235437009E+01 -0.18052313563E+01  0.12854296269E+02  0.14395287042E+02  0.00000000000E+00 0. -1.
</event>
<event>
 8    1  0.2458065E-006  0.9118800E+02  0.7816164E-02  0.1184000E+00
        -11   -1    0    0    0    0  0.00000000000E+00  0.00000000000E+00  0.45593999997E+02  0.45594000000E+02  0.51100000000E-03 0.  1.
         11   -1    0    0    0    0 -0.00000000000E+00 -0.00000000000E+00 -0.45593999997E+02  0.45594000000E+02  0.51100000000E-03 0. -1.
         23    2    1    2    0    0  0.35735303605E-15 -0.35527136788E-14 -0.71054273576E-14  0.91188000000E+02  0.91188000000E+02 0.  0.
    9900012    2    3    3    0    0 -0.17708809307E-01 -0.16252853489E+02 -0.33039740494E+02  0.54367081868E+02  0.39999994735E+02 0.  0.
        -12    1    3    3    0    0  0.17708809307E-01  0.16252853489E+02  0.33039740494E+02  0.36820918132E+02  0.00000000000E+00 0.  1.
         11    1    4    4    0    0 -0.81639461006E+00 -0.21837398854E+01 -0.68709276708E+01  0.72556782843E+01  0.51100000000E-03 0. -1.
        -11    1    4    4    0    0 -0.14585815721E+02 -0.38148662855E+01 -0.24208169624E+02  0.28519023508E+02  0.51100000000E-03 0.  1.
         12    1    4    4    0    0  0.15384501522E+02 -0.10254247318E+02 -0.19606431988E+01  0.18592380076E+02  0.00000000000E+00 0. -1.
</event>
<event>
 8    1  0.2458065E-006  0.9118800E+02  0.7816164E-02  0.1184000E+00
        -11   -1    0    0    0    0  0.00000000000E+00  0.00000000000E+00  0.45593999997E+02  0.45594000000E+02  0.51100000000E-03 0.  1.
         11   -1    0    0    0    0 -0.00000000000E+00 -0.00000000000E+00 -0.45593999997E+02  0.45594000000E+02  0.51100000000E-03 0. -1.
         23    2    1    2    0    0  0.00000000000E+00 -0.88817841970E-15  0.00000000000E+00  0.91188000000E+02  0.91188000000E+02 0.  0.
    9900012    2    3    3    0    0 -0.19142957245E+02  0.31638326316E+01 -0.31294064209E+02  0.54367067044E+02  0.39999960941E+02 0.  0.
        -12    1    3    3    0    0  0.19142957245E+02 -0.31638326316E+01  0.31294064209E+02  0.36820932956E+02  0.00000000000E+00 0.  1.
         11    1    4    4    0    0 -0.12708818450E+02  0.17902476180E+02 -0.24576598714E+02  0.32954846751E+02  0.51100000000E-03 0. -1.
        -11    1    4    4    0    0 -0.11447382266E+01 -0.10048065914E+02  0.18748185049E+01  0.10285377917E+02  0.51100000000E-03 0.  1.
         12    1    4    4    0    0 -0.52894005684E+01 -0.46905776347E+01 -0.85922840007E+01  0.11126842376E+02  0.00000000000E+00 0. -1.
</event>
<event>
 8    1  0.2458065E-006  0.9118800E+02  0.7816164E-02  0.1184000E+00
        -11   -1    0    0    0    0  0.00000000000E+00  0.00000000000E+00  0.45593999997E+02  0.45594000000E+02  0.51100000000E-03 0. -1.
         11   -1    0    0    0    0 -0.00000000000E+00 -0.00000000000E+00 -0.45593999997E+02  0.45594000000E+02  0.51100000000E-03 0.  1.
         23    2    1    2    0    0  0.00000000000E+00  0.00000000000E+00  0.00000000000E+00  0.91188000000E+02  0.91188000000E+02 0.  0.
    9900012    2    3    3    0    0  0.11028621994E+02  0.34797688259E+02 -0.48237659395E+01  0.54367104722E+02  0.40000046835E+02 0.  0.
         12    1    3    3    0    0 -0.11028621994E+02 -0.34797688259E+02  0.48237659395E+01  0.36820895278E+02  0.00000000000E+00 0. -1.
         11    1    4    4    0    0  0.18891493805E+02  0.27152044246E+02  0.99656947075E+01  0.34546159211E+02  0.51100000000E-03 0. -1.
        -11    1    4    4    0    0 -0.39529971996E+00  0.37158868730E+01 -0.85353964488E+01  0.93175678114E+01  0.51100000000E-03 0.  1.
         12    1    4    4    0    0 -0.74675720912E+01  0.39297571391E+01 -0.62540641982E+01  0.10503377700E+02  0.00000000000E+00 0. -1.
</event>
<event>
 8    1  0.2458065E-006  0.9118800E+02  0.7816164E-02  0.1184000E+00
        -11   -1    0    0    0    0  0.00000000000E+00  0.00000000000E+00  0.45593999997E+02  0.45594000000E+02  0.51100000000E-03 0.  1.
         11   -1    0    0    0    0 -0.00000000000E+00 -0.00000000000E+00 -0.45593999997E+02  0.45594000000E+02  0.51100000000E-03 0. -1.
         23    2    1    2    0    0  0.00000000000E+00 -0.17763568394E-14  0.35527136788E-14  0.91188000000E+02  0.91188000000E+02 0.  0.
    9900012    2    3    3    0    0 -0.22869514000E+02  0.53353491599E+01 -0.28360166543E+02  0.54367086546E+02  0.40000005399E+02 0.  0.
        -12    1    3    3    0    0  0.22869514000E+02 -0.53353491599E+01  0.28360166543E+02  0.36820913454E+02  0.00000000000E+00 0.  1.
         11    1    4    4    0    0 -0.32780061073E+01 -0.86714512272E+01 -0.24352392523E+02  0.26057214208E+02  0.51100000000E-03 0. -1.
        -11    1    4    4    0    0  0.13005079662E+01  0.51796201967E+01 -0.95371995337E+00  0.54248841797E+01  0.51100000000E-03 0.  1.
        -12    1    4    4    0    0 -0.20892015859E+02  0.88271801904E+01 -0.30540540662E+01  0.22884988158E+02  0.00000000000E+00 0.  1.
</event>
<event>
 8    1  0.2458065E-006  0.9118800E+02  0.7816164E-02  0.1184000E+00
        -11   -1    0    0    0    0  0.00000000000E+00  0.00000000000E+00  0.45593999997E+02  0.45594000000E+02  0.51100000000E-03 0. -1.
         11   -1    0    0    0    0 -0.00000000000E+00 -0.00000000000E+00 -0.45593999997E+02  0.45594000000E+02  0.51100000000E-03 0.  1.
         23    2    1    2    0    0 -0.71054273576E-14  0.00000000000E+00  0.00000000000E+00  0.91188000000E+02  0.91188000000E+02 0.  0.
    9900012    2    3    3    0    0  0.32477663085E+02 -0.17173751422E+02 -0.24584631654E+01  0.54367076892E+02  0.39999983391E+02 0.  0.
        -12    1    3    3    0    0 -0.32477663085E+02  0.17173751422E+02  0.24584631654E+01  0.36820923108E+02  0.00000000000E+00 0.  1.
         11    1    4    4    0    0  0.11560180948E+02  0.13597554988E+01 -0.11311057203E+01  0.11694704741E+02  0.51100000000E-03 0. -1.
        -11    1    4    4    0    0 -0.74368964475E+01 -0.11006009669E+02  0.35268445622E+00  0.13287741125E+02  0.51100000000E-03 0.  1.
        -12    1    4    4    0    0  0.28354378585E+02 -0.75274972514E+01 -0.16800419013E+01  0.29384631027E+02  0.00000000000E+00 0.  1.
</event>
<event>
 8    1  0.2458065E-006  0.9118800E+02  0.7816164E-02  0.1184000E+00
        -11   -1    0    0    0    0  0.00000000000E+00  0.00000000000E+00  0.45593999997E+02  0.45594000000E+02  0.51100000000E-03 0. -1.
         11   -1    0    0    0    0 -0.00000000000E+00 -0.00000000000E+00 -0.45593999997E+02  0.45594000000E+02  0.51100000000E-03 0.  1.
         23    2    1    2    0    0  0.00000000000E+00  0.00000000000E+00  0.00000000000E+00  0.91188000000E+02  0.91188000000E+02 0.  0.
    9900012    2    3    3    0    0 -0.30672364755E+02 -0.85074834236E+01  0.18509703351E+02  0.54367077252E+02  0.39999984212E+02 0.  0.
        -12    1    3    3    0    0  0.30672364755E+02  0.85074834236E+01 -0.18509703351E+02  0.36820922748E+02  0.00000000000E+00 0.  1.
         11    1    4    4    0    0 -0.19529206882E+02 -0.36494694550E+00 -0.55780665467E+00  0.19540579731E+02  0.51100000000E-03 0. -1.
        -11    1    4    4    0    0 -0.16280326721E+02  0.32081029279E+01  0.95241236308E+01  0.19132430419E+02  0.51100000000E-03 0.  1.
        -12    1    4    4    0    0  0.51371688480E+01 -0.11350639406E+02  0.95433863746E+01  0.15694067102E+02  0.00000000000E+00 0.  1.
</event>
<event>
 8    1  0.2458065E-006  0.9118800E+02  0.7816164E-02  0.1184000E+00
        -11   -1    0    0    0    0  0.00000000000E+00  0.00000000000E+00  0.45593999997E+02  0.45594000000E+02  0.51100000000E-03 0. -1.
         11   -1    0    0    0    0 -0.00000000000E+00 -0.00000000000E+00 -0.45593999997E+02  0.45594000000E+02  0.51100000000E-03 0.  1.
         23    2    1    2    0    0  0.35527136788E-14  0.35527136788E-14  0.00000000000E+00  0.91188000000E+02  0.91188000000E+02 0.  0.
    9900012    2    3    3    0    0 -0.18655678013E+02 -0.28884596108E+02  0.13169129316E+02  0.54367079569E+02  0.39999989494E+02 0.  0.
         12    1    3    3    0    0  0.18655678013E+02  0.28884596108E+02 -0.13169129316E+02  0.36820920431E+02  0.00000000000E+00 0. -1.
         11    1    4    4    0    0  0.53086203049E+01 -0.26659601047E+01  0.13987541881E+02  0.15196714150E+02  0.51100000000E-03 0. -1.
        -11    1    4    4    0    0 -0.88311376081E+01 -0.17330835853E+02  0.59798494780E+01  0.20349581393E+02  0.51100000000E-03 0.  1.
         12    1    4    4    0    0 -0.15133160709E+02 -0.88878001499E+01 -0.67982620430E+01  0.18820784026E+02  0.00000000000E+00 0. -1.
</event>
<event>
 8    1  0.2458065E-006  0.9118800E+02  0.7816164E-02  0.1184000E+00
        -11   -1    0    0    0    0  0.00000000000E+00  0.00000000000E+00  0.45593999997E+02  0.45594000000E+02  0.51100000000E-03 0.  1.
         11   -1    0    0    0    0 -0.00000000000E+00 -0.00000000000E+00 -0.45593999997E+02  0.45594000000E+02  0.51100000000E-03 0. -1.
         23    2    1    2    0    0 -0.17763568394E-14  0.71054273576E-14 -0.44408920985E-15  0.91188000000E+02  0.91188000000E+02 0.  0.
    9900012    2    3    3    0    0 -0.13727779163E+02 -0.34042026028E+02 -0.29101739770E+01  0.54367074300E+02  0.39999977482E+02 0.  0.
        -12    1    3    3    0    0  0.13727779163E+02  0.34042026028E+02  0.29101739770E+01  0.36820925700E+02  0.00000000000E+00 0.  1.
         11    1    4    4    0    0  0.43415106585E+01 -0.16493594692E+02 -0.30782578250E+01  0.17330985320E+02  0.51100000000E-03 0. -1.
        -11    1    4    4    0    0 -0.81013266587E+00  0.39036135840E+01 -0.74664344836E+01  0.84641690737E+01  0.51100000000E-03 0.  1.
         12    1    4    4    0    0 -0.17259157156E+02 -0.21452044920E+02  0.76345183316E+01  0.28571919906E+02  0.00000000000E+00 0. -1.
</event>
<event>
 8    1  0.2458065E-006  0.9118800E+02  0.7816164E-02  0.1184000E+00
        -11   -1    0    0    0    0  0.00000000000E+00  0.00000000000E+00  0.45593999997E+02  0.45594000000E+02  0.51100000000E-03 0. -1.
         11   -1    0    0    0    0 -0.00000000000E+00 -0.00000000000E+00 -0.45593999997E+02  0.45594000000E+02  0.51100000000E-03 0.  1.
         23    2    1    2    0    0 -0.26645352591E-14 -0.35527136788E-14  0.00000000000E+00  0.91188000000E+02  0.91188000000E+02 0.  0.
    9900012    2    3    3    0    0  0.66321871186E+01  0.28743019234E+02  0.22037055998E+02  0.54367097000E+02  0.40000029231E+02 0.  0.
        -12    1    3    3    0    0 -0.66321871186E+01 -0.28743019234E+02 -0.22037055998E+02  0.36820903000E+02  0.00000000000E+00 0.  1.
         11    1    4    4    0    0 -0.39774546157E+00  0.15968721372E+01  0.11622535898E+02  0.11738464254E+02  0.51100000000E-03 0. -1.
        -11    1    4    4    0    0  0.15523252226E+02  0.32897713846E+01  0.57609337484E+01  0.16881419175E+02  0.51100000000E-03 0.  1.
        -12    1    4    4    0    0 -0.84933196459E+01  0.23856375713E+02  0.46535863511E+01  0.25747213571E+02  0.00000000000E+00 0.  1.
</event>
<event>
 8    1  0.2458065E-006  0.9118800E+02  0.7816164E-02  0.1184000E+00
        -11   -1    0    0    0    0  0.00000000000E+00  0.00000000000E+00  0.45593999997E+02  0.45594000000E+02  0.51100000000E-03 0. -1.
         11   -1    0    0    0    0 -0.00000000000E+00 -0.00000000000E+00 -0.45593999997E+02  0.45594000000E+02  0.51100000000E-03 0.  1.
         23    2    1    2    0    0  0.35527136788E-14  0.00000000000E+00  0.99920072216E-15  0.91188000000E+02  0.91188000000E+02 0.  0.
    9900012    2    3    3    0    0 -0.26579109129E+02 -0.25474652076E+02  0.60799426851E+00  0.54367128235E+02  0.40000100437E+02 0.  0.
        -12    1    3    3    0    0  0.26579109129E+02  0.25474652076E+02 -0.60799426851E+00  0.36820871765E+02  0.00000000000E+00 0.  1.
         11    1    4    4    0    0 -0.13481743538E+02 -0.10566229261E+02 -0.10550646642E+01  0.17161461807E+02  0.51100000000E-03 0. -1.
        -11    1    4    4    0    0 -0.16563629810E+02 -0.91558978628E+01 -0.11699673834E+02  0.22250093623E+02  0.51100000000E-03 0.  1.
         12    1    4    4    0    0  0.34662642189E+01 -0.57525249524E+01  0.13362732766E+02  0.14955572806E+02  0.00000000000E+00 0. -1.
</event>
<event>
 8    1  0.2458065E-006  0.9118800E+02  0.7816164E-02  0.1184000E+00
        -11   -1    0    0    0    0  0.00000000000E+00  0.00000000000E+00  0.45593999997E+02  0.45594000000E+02  0.51100000000E-03 0.  1.
         11   -1    0    0    0    0 -0.00000000000E+00 -0.00000000000E+00 -0.45593999997E+02  0.45594000000E+02  0.51100000000E-03 0. -1.
         23    2    1    2    0    0  0.00000000000E+00  0.00000000000E+00 -0.35527136788E-14  0.91188000000E+02  0.91188000000E+02 0.  0.
    9900012    2    3    3    0    0 -0.80994030652E+01 -0.23964846771E+02 -0.26755662956E+02  0.54367085957E+02  0.40000004055E+02 0.  0.
        -12    1    3    3    0    0  0.80994030652E+01  0.23964846771E+02  0.26755662956E+02  0.36820914043E+02  0.00000000000E+00 0.  1.
         11    1    4    4    0    0 -0.12803254246E+02 -0.75540193221E+01  0.14060790712E+01  0.14931965236E+02  0.51100000000E-03 0. -1.
        -11    1    4    4    0    0  0.42344041039E+01  0.43801243377E+01 -0.10553084279E+02  0.12185370548E+02  0.51100000000E-03 0.  1.
         12    1    4    4    0    0  0.46944707702E+00 -0.20790951787E+02 -0.17608657748E+02  0.27249750172E+02  0.00000000000E+00 0. -1.
</event>
<event>
 8    1  0.2458065E-006  0.9118800E+02  0.7816164E-02  0.1184000E+00
        -11   -1    0    0    0    0  0.00000000000E+00  0.00000000000E+00  0.45593999997E+02  0.45594000000E+02  0.51100000000E-03 0. -1.
         11   -1    0    0    0    0 -0.00000000000E+00 -0.00000000000E+00 -0.45593999997E+02  0.45594000000E+02  0.51100000000E-03 0.  1.
         23    2    1    2    0    0  0.00000000000E+00  0.00000000000E+00  0.00000000000E+00  0.91188000000E+02  0.91188000000E+02 0.  0.
    9900012    2    3    3    0    0  0.94988437332E+01  0.13860583664E+02  0.32763339868E+02  0.54367078623E+02  0.39999987336E+02 0.  0.
        -12    1    3    3    0    0 -0.94988437332E+01 -0.13860583664E+02 -0.32763339868E+02  0.36820921377E+02  0.00000000000E+00 0.  1.
         11    1    4    4    0    0  0.13243495618E+01  0.19541836437E+01  0.25731796806E+02  0.25839854926E+02  0.51100000000E-03 0. -1.
        -11    1    4    4    0    0 -0.57989651606E+00  0.80925249241E+01 -0.75594939770E+01  0.11089237533E+02  0.51100000000E-03 0.  1.
        -12    1    4    4    0    0  0.87543906874E+01  0.38138750962E+01  0.14591037039E+02  0.17437986164E+02  0.00000000000E+00 0.  1.
</event>
<event>
 8    1  0.2458065E-006  0.9118800E+02  0.7816164E-02  0.1184000E+00
        -11   -1    0    0    0    0  0.00000000000E+00  0.00000000000E+00  0.45593999997E+02  0.45594000000E+02  0.51100000000E-03 0.  1.
         11   -1    0    0    0    0 -0.00000000000E+00 -0.00000000000E+00 -0.45593999997E+02  0.45594000000E+02  0.51100000000E-03 0. -1.
         23    2    1    2    0    0 -0.35527136788E-14  0.00000000000E+00 -0.17763568394E-14  0.91188000000E+02  0.91188000000E+02 0.  0.
    9900012    2    3    3    0    0 -0.28434246161E+02 -0.19264587158E+02 -0.13272074978E+02  0.54367100400E+02  0.40000036982E+02 0.  0.
         12    1    3    3    0    0  0.28434246161E+02  0.19264587158E+02  0.13272074978E+02  0.36820899600E+02  0.00000000000E+00 0. -1.
         11    1    4    4    0    0 -0.18875945554E+02 -0.18728271761E+02 -0.13647986674E+02  0.29888409530E+02  0.51100000000E-03 0. -1.
        -11    1    4    4    0    0 -0.12584487509E+02 -0.89502297024E+01  0.12573912164E+01  0.15493771992E+02  0.51100000000E-03 0.  1.
         12    1    4    4    0    0  0.30261869023E+01  0.84139143055E+01 -0.88147952035E+00  0.89849188785E+01  0.00000000000E+00 0. -1.
</event>
<event>
 8    1  0.2458065E-006  0.9118800E+02  0.7816164E-02  0.1184000E+00
        -11   -1    0    0    0    0  0.00000000000E+00  0.00000000000E+00  0.45593999997E+02  0.45594000000E+02  0.51100000000E-03 0. -1.
         11   -1    0    0    0    0 -0.00000000000E+00 -0.00000000000E+00 -0.45593999997E+02  0.45594000000E+02  0.51100000000E-03 0.  1.
         23    2    1    2    0    0  0.17763568394E-14  0.00000000000E+00  0.00000000000E+00  0.91188000000E+02  0.91188000000E+02 0.  0.
    9900012    2    3    3    0    0 -0.12164085476E+02 -0.28394043310E+02  0.20039794968E+02  0.54367081308E+02  0.39999993458E+02 0.  0.
         12    1    3    3    0    0  0.12164085476E+02  0.28394043310E+02 -0.20039794968E+02  0.36820918692E+02  0.00000000000E+00 0. -1.
         11    1    4    4    0    0  0.99550953183E+01 -0.84250140015E+01  0.15324534646E+02  0.20122776799E+02  0.51100000000E-03 0. -1.
        -11    1    4    4    0    0 -0.93670523399E+01 -0.17351298812E+02 -0.15850072400E+01  0.19781847442E+02  0.51100000000E-03 0.  1.
         12    1    4    4    0    0 -0.12752128455E+02 -0.26177304960E+01  0.63002675620E+01  0.14462457067E+02  0.00000000000E+00 0. -1.
</event>
<event>
 8    1  0.2458065E-006  0.9118800E+02  0.7816164E-02  0.1184000E+00
        -11   -1    0    0    0    0  0.00000000000E+00  0.00000000000E+00  0.45593999997E+02  0.45594000000E+02  0.51100000000E-03 0. -1.
         11   -1    0    0    0    0 -0.00000000000E+00 -0.00000000000E+00 -0.45593999997E+02  0.45594000000E+02  0.51100000000E-03 0.  1.
         23    2    1    2    0    0  0.00000000000E+00  0.00000000000E+00 -0.77715611724E-15  0.91188000000E+02  0.91188000000E+02 0.  0.
    9900012    2    3    3    0    0 -0.34210971363E+02 -0.13604178302E+02  0.55999767061E+00  0.54367111550E+02  0.40000062400E+02 0.  0.
        -12    1    3    3    0    0  0.34210971363E+02  0.13604178302E+02 -0.55999767061E+00  0.36820888450E+02  0.00000000000E+00 0.  1.
         11    1    4    4    0    0 -0.36014899019E+02 -0.12963214564E+02 -0.60802090950E+01  0.38756764908E+02  0.51100000000E-03 0. -1.
        -11    1    4    4    0    0 -0.30201320607E+00  0.18709187068E+01 -0.40271205684E+01  0.44507582632E+01  0.51100000000E-03 0.  1.
        -12    1    4    4    0    0  0.21059408624E+01 -0.25118824453E+01  0.10667327334E+02  0.11159588379E+02  0.00000000000E+00 0.  1.
</event>
<event>
 8    1  0.2458065E-006  0.9118800E+02  0.7816164E-02  0.1184000E+00
        -11   -1    0    0    0    0  0.00000000000E+00  0.00000000000E+00  0.45593999997E+02  0.45594000000E+02  0.51100000000E-03 0.  1.
         11   -1    0    0    0    0 -0.00000000000E+00 -0.00000000000E+00 -0.45593999997E+02  0.45594000000E+02  0.51100000000E-03 0. -1.
         23    2    1    2    0    0  0.00000000000E+00  0.00000000000E+00  0.00000000000E+00  0.91188000000E+02  0.91188000000E+02 0.  0.
    9900012    2    3    3    0    0 -0.49806933179E+01  0.21820185844E+02  0.29237869976E+02  0.54367070395E+02  0.39999968581E+02 0.  0.
         12    1    3    3    0    0  0.49806933179E+01 -0.21820185844E+02 -0.29237869976E+02  0.36820929605E+02  0.00000000000E+00 0. -1.
         11    1    4    4    0    0  0.37798456553E+01  0.10390248810E+02 -0.74917128296E+01  0.13355533119E+02  0.51100000000E-03 0. -1.
        -11    1    4    4    0    0 -0.11430030059E+01 -0.22310608402E+01  0.66802633644E+01  0.71351248919E+01  0.51100000000E-03 0.  1.
         12    1    4    4    0    0 -0.76175359673E+01  0.13660997874E+02  0.30049319442E+02  0.33876412384E+02  0.00000000000E+00 0. -1.
</event>
<event>
 8    1  0.2458065E-006  0.9118800E+02  0.7816164E-02  0.1184000E+00
        -11   -1    0    0    0    0  0.00000000000E+00  0.00000000000E+00  0.45593999997E+02  0.45594000000E+02  0.51100000000E-03 0.  1.
         11   -1    0    0    0    0 -0.00000000000E+00 -0.00000000000E+00 -0.45593999997E+02  0.45594000000E+02  0.51100000000E-03 0. -1.
         23    2    1    2    0    0  0.00000000000E+00  0.00000000000E+00  0.00000000000E+00  0.91188000000E+02  0.91188000000E+02 0.  0.
    9900012    2    3    3    0    0 -0.33840182228E+02  0.12542273871E+02  0.73015426951E+01  0.54367094351E+02  0.40000023193E+02 0.  0.
         12    1    3    3    0    0  0.33840182228E+02 -0.12542273871E+02 -0.73015426951E+01  0.36820905649E+02  0.00000000000E+00 0. -1.
         11    1    4    4    0    0 -0.15740558430E+02  0.21886282887E+02 -0.23818987007E+01  0.27063776529E+02  0.51100000000E-03 0. -1.
        -11    1    4    4    0    0 -0.50889916747E+01  0.32422217265E+01  0.65961357438E+01  0.89397340565E+01  0.51100000000E-03 0.  1.
         12    1    4    4    0    0 -0.13010632123E+02 -0.12586230743E+02  0.30873056520E+01  0.18363583766E+02  0.00000000000E+00 0. -1.
</event>
<event>
 8    1  0.2458065E-006  0.9118800E+02  0.7816164E-02  0.1184000E+00
        -11   -1    0    0    0    0  0.00000000000E+00  0.00000000000E+00  0.45593999997E+02  0.45594000000E+02  0.51100000000E-03 0.  1.
         11   -1    0    0    0    0 -0.00000000000E+00 -0.00000000000E+00 -0.45593999997E+02  0.45594000000E+02  0.51100000000E-03 0. -1.
         23    2    1    2    0    0  0.00000000000E+00 -0.35527136788E-14  0.17763568394E-14  0.91188000000E+02  0.91188000000E+02 0.  0.
    9900012    2    3    3    0    0 -0.28183589928E+02  0.19801462162E+02  0.13014076429E+02  0.54367097916E+02  0.40000031320E+02 0.  0.
        -12    1    3    3    0    0  0.28183589928E+02 -0.19801462162E+02 -0.13014076429E+02  0.36820902084E+02  0.00000000000E+00 0.  1.
         11    1    4    4    0    0  0.38467115117E+01  0.11657300407E+01  0.16838356899E+01  0.43579145097E+01  0.51100000000E-03 0. -1.
        -11    1    4    4    0    0  0.13604925014E+01  0.15620383080E+01  0.12320440870E+02  0.12493364920E+02  0.51100000000E-03 0.  1.
         12    1    4    4    0    0 -0.33390793941E+02  0.17073693813E+02 -0.99020013114E+00  0.37515818487E+02  0.00000000000E+00 0. -1.
</event>
<event>
 8    1  0.2458065E-006  0.9118800E+02  0.7816164E-02  0.1184000E+00
        -11   -1    0    0    0    0  0.00000000000E+00  0.00000000000E+00  0.45593999997E+02  0.45594000000E+02  0.51100000000E-03 0. -1.
         11   -1    0    0    0    0 -0.00000000000E+00 -0.00000000000E+00 -0.45593999997E+02  0.45594000000E+02  0.51100000000E-03 0.  1.
         23    2    1    2    0    0  0.00000000000E+00  0.00000000000E+00  0.00000000000E+00  0.91188000000E+02  0.91188000000E+02 0.  0.
    9900012    2    3    3    0    0  0.25433592930E+02  0.10125551057E+02 -0.24624904899E+02  0.54367076942E+02  0.39999983506E+02 0.  0.
         12    1    3    3    0    0 -0.25433592930E+02 -0.10125551057E+02  0.24624904899E+02  0.36820923058E+02  0.00000000000E+00 0. -1.
         11    1    4    4    0    0  0.74834990815E+01 -0.10934539481E+02 -0.24541009695E+01  0.13475515723E+02  0.51100000000E-03 0. -1.
        -11    1    4    4    0    0 -0.24859757841E+01  0.46153917245E+01 -0.11376948771E+02  0.12526646797E+02  0.51100000000E-03 0.  1.
         12    1    4    4    0    0  0.20436069632E+02  0.16444698813E+02 -0.10793855159E+02  0.28364914423E+02  0.00000000000E+00 0. -1.
</event>
<event>
 8    1  0.2458065E-006  0.9118800E+02  0.7816164E-02  0.1184000E+00
        -11   -1    0    0    0    0  0.00000000000E+00  0.00000000000E+00  0.45593999997E+02  0.45594000000E+02  0.51100000000E-03 0. -1.
         11   -1    0    0    0    0 -0.00000000000E+00 -0.00000000000E+00 -0.45593999997E+02  0.45594000000E+02  0.51100000000E-03 0.  1.
         23    2    1    2    0    0  0.35527136788E-14  0.00000000000E+00 -0.35527136788E-14  0.91188000000E+02  0.91188000000E+02 0.  0.
    9900012    2    3    3    0    0 -0.28106637517E+02 -0.40804078392E+01  0.23433895074E+02  0.54367078787E+02  0.39999987711E+02 0.  0.
        -12    1    3    3    0    0  0.28106637517E+02  0.40804078392E+01 -0.23433895074E+02  0.36820921213E+02  0.00000000000E+00 0.  1.
         11    1    4    4    0    0 -0.10110671648E+02 -0.92479544162E+01  0.28164496552E+01  0.13988664374E+02  0.51100000000E-03 0. -1.
        -11    1    4    4    0    0 -0.14524023441E+02  0.14011361012E+02  0.22984767309E+02  0.30587007419E+02  0.51100000000E-03 0.  1.
         12    1    4    4    0    0 -0.34719424275E+01 -0.88438144354E+01 -0.23673218901E+01  0.97914069938E+01  0.00000000000E+00 0. -1.
</event>
<event>
 8    1  0.2458065E-006  0.9118800E+02  0.7816164E-02  0.1184000E+00
        -11   -1    0    0    0    0  0.00000000000E+00  0.00000000000E+00  0.45593999997E+02  0.45594000000E+02  0.51100000000E-03 0. -1.
         11   -1    0    0    0    0 -0.00000000000E+00 -0.00000000000E+00 -0.45593999997E+02  0.45594000000E+02  0.51100000000E-03 0.  1.
         23    2    1    2    0    0  0.00000000000E+00  0.35527136788E-14  0.00000000000E+00  0.91188000000E+02  0.91188000000E+02 0.  0.
    9900012    2    3    3    0    0 -0.32401016237E+02 -0.16121719809E+02  0.67855170161E+01  0.54367096372E+02  0.40000027800E+02 0.  0.
         12    1    3    3    0    0  0.32401016237E+02  0.16121719809E+02 -0.67855170161E+01  0.36820903628E+02  0.00000000000E+00 0. -1.
         11    1    4    4    0    0 -0.41243487240E+00  0.10026656690E+02 -0.17929589691E+01  0.10194049687E+02  0.51100000000E-03 0. -1.
        -11    1    4    4    0    0 -0.17828302611E+02 -0.22491264443E+02  0.60547074782E+01  0.29331976291E+02  0.51100000000E-03 0.  1.
         12    1    4    4    0    0 -0.14160278754E+02 -0.36571120556E+01  0.25237685070E+01  0.14841070394E+02  0.00000000000E+00 0. -1.
</event>
<event>
 8    1  0.2458065E-006  0.9118800E+02  0.7816164E-02  0.1184000E+00
        -11   -1    0    0    0    0  0.00000000000E+00  0.00000000000E+00  0.45593999997E+02  0.45594000000E+02  0.51100000000E-03 0.  1.
         11   -1    0    0    0    0 -0.00000000000E+00 -0.00000000000E+00 -0.45593999997E+02  0.45594000000E+02  0.51100000000E-03 0. -1.
         23    2    1    2    0    0 -0.88817841970E-15  0.17763568394E-14  0.00000000000E+00  0.91188000000E+02  0.91188000000E+02 0.  0.
    9900012    2    3    3    0    0 -0.13940841267E+01  0.88580681279E+01 -0.35712322901E+02  0.54367097669E+02  0.40000030756E+02 0.  0.
        -12    1    3    3    0    0  0.13940841267E+01 -0.88580681279E+01  0.35712322901E+02  0.36820902331E+02  0.00000000000E+00 0.  1.
         11    1    4    4    0    0  0.14842521077E+02  0.12813399342E+02 -0.13872684696E+02  0.24019471592E+02  0.51100000000E-03 0. -1.
        -11    1    4    4    0    0 -0.11667725766E+02 -0.86420340465E+01 -0.15403522136E+02  0.21168114499E+02  0.51100000000E-03 0.  1.
        -12    1    4    4    0    0 -0.45688794377E+01  0.46867028322E+01 -0.64361160685E+01  0.91795115775E+01  0.00000000000E+00 0.  1.
</event>
<event>
 8    1  0.2458065E-006  0.9118800E+02  0.7816164E-02  0.1184000E+00
        -11   -1    0    0    0    0  0.00000000000E+00  0.00000000000E+00  0.45593999997E+02  0.45594000000E+02  0.51100000000E-03 0. -1.
         11   -1    0    0    0    0 -0.00000000000E+00 -0.00000000000E+00 -0.45593999997E+02  0.45594000000E+02  0.51100000000E-03 0.  1.
         23    2    1    2    0    0  0.00000000000E+00  0.00000000000E+00  0.00000000000E+00  0.91188000000E+02  0.91188000000E+02 0.  0.
    9900012    2    3    3    0    0 -0.53329135638E+01  0.26125430908E+02  0.25392998940E+02  0.54367048051E+02  0.39999917643E+02 0.  0.
         12    1    3    3    0    0  0.53329135638E+01 -0.26125430908E+02 -0.25392998940E+02  0.36820951949E+02  0.00000000000E+00 0. -1.
         11    1    4    4    0    0 -0.62988568070E+00 -0.15219542641E+01  0.48174367445E+01  0.50912471754E+01  0.51100000000E-03 0. -1.
        -11    1    4    4    0    0 -0.11089388691E+02  0.66545999753E+01  0.23810325490E+02  0.27095937751E+02  0.51100000000E-03 0.  1.
        -12    1    4    4    0    0  0.63863608078E+01  0.20992785197E+02 -0.32347632946E+01  0.22179863125E+02  0.00000000000E+00 0.  1.
</event>
<event>
 8    1  0.2458065E-006  0.9118800E+02  0.7816164E-02  0.1184000E+00
        -11   -1    0    0    0    0  0.00000000000E+00  0.00000000000E+00  0.45593999997E+02  0.45594000000E+02  0.51100000000E-03 0. -1.
         11   -1    0    0    0    0 -0.00000000000E+00 -0.00000000000E+00 -0.45593999997E+02  0.45594000000E+02  0.51100000000E-03 0.  1.
         23    2    1    2    0    0  0.00000000000E+00  0.17763568394E-14  0.35527136788E-14  0.91188000000E+02  0.91188000000E+02 0.  0.
    9900012    2    3    3    0    0  0.31517481139E+02 -0.11975999908E+02 -0.14798670860E+02  0.54367124801E+02  0.40000092610E+02 0.  0.
        -12    1    3    3    0    0 -0.31517481139E+02  0.11975999908E+02  0.14798670860E+02  0.36820875199E+02  0.00000000000E+00 0.  1.
         11    1    4    4    0    0  0.15520865334E+02 -0.45244079982E+01 -0.19842715239E+02  0.25594938499E+02  0.51100000000E-03 0. -1.
        -11    1    4    4    0    0  0.13294805763E+01 -0.43759072653E+01 -0.77954751174E+01  0.90380039591E+01  0.51100000000E-03 0.  1.
         12    1    4    4    0    0  0.14667135229E+02 -0.30756846445E+01  0.12839519496E+02  0.19734182344E+02  0.00000000000E+00 0. -1.
</event>
<event>
 8    1  0.2458065E-006  0.9118800E+02  0.7816164E-02  0.1184000E+00
        -11   -1    0    0    0    0  0.00000000000E+00  0.00000000000E+00  0.45593999997E+02  0.45594000000E+02  0.51100000000E-03 0. -1.
         11   -1    0    0    0    0 -0.00000000000E+00 -0.00000000000E+00 -0.45593999997E+02  0.45594000000E+02  0.51100000000E-03 0.  1.
         23    2    1    2    0    0 -0.35527136788E-14  0.88817841970E-15  0.00000000000E+00  0.91188000000E+02  0.91188000000E+02 0.  0.
    9900012    2    3    3    0    0  0.29424892189E+02 -0.42285223531E+01  0.21727280009E+02  0.54367090475E+02  0.40000014357E+02 0.  0.
        -12    1    3    3    0    0 -0.29424892189E+02  0.42285223531E+01 -0.21727280009E+02  0.36820909525E+02  0.00000000000E+00 0.  1.
         11    1    4    4    0    0  0.23645819876E+02  0.12608028532E+02  0.96465739254E+01  0.28480582329E+02  0.51100000000E-03 0. -1.
        -11    1    4    4    0    0  0.15528917139E+01 -0.17687744829E+02  0.12251023949E+02  0.21572097206E+02  0.51100000000E-03 0.  1.
        -12    1    4    4    0    0  0.42261805994E+01  0.85119394320E+00 -0.17031786486E+00  0.43144109404E+01  0.00000000000E+00 0.  1.
</event>
<event>
 8    1  0.2458065E-006  0.9118800E+02  0.7816164E-02  0.1184000E+00
        -11   -1    0    0    0    0  0.00000000000E+00  0.00000000000E+00  0.45593999997E+02  0.45594000000E+02  0.51100000000E-03 0.  1.
         11   -1    0    0    0    0 -0.00000000000E+00 -0.00000000000E+00 -0.45593999997E+02  0.45594000000E+02  0.51100000000E-03 0. -1.
         23    2    1    2    0    0  0.25110122315E-15 -0.17763568394E-14  0.00000000000E+00  0.91188000000E+02  0.91188000000E+02 0.  0.
    9900012    2    3    3    0    0  0.29279125208E-02 -0.13153528985E+02  0.34391336824E+02  0.54367090426E+02  0.40000014244E+02 0.  0.
         12    1    3    3    0    0 -0.29279125208E-02  0.13153528985E+02 -0.34391336824E+02  0.36820909574E+02  0.00000000000E+00 0. -1.
         11    1    4    4    0    0 -0.76097711631E+01  0.18848150082E+01 -0.54598785034E+01  0.95536076067E+01  0.51100000000E-03 0. -1.
        -11    1    4    4    0    0  0.63141303077E+01 -0.13437564041E+02  0.20279554138E+02  0.25133576848E+02  0.51100000000E-03 0.  1.
         12    1    4    4    0    0  0.12985687679E+01 -0.16007799517E+01  0.19571661189E+02  0.19679905971E+02  0.00000000000E+00 0. -1.
</event>
<event>
 8    1  0.2458065E-006  0.9118800E+02  0.7816164E-02  0.1184000E+00
        -11   -1    0    0    0    0  0.00000000000E+00  0.00000000000E+00  0.45593999997E+02  0.45594000000E+02  0.51100000000E-03 0.  1.
         11   -1    0    0    0    0 -0.00000000000E+00 -0.00000000000E+00 -0.45593999997E+02  0.45594000000E+02  0.51100000000E-03 0. -1.
         23    2    1    2    0    0  0.71054273576E-14  0.88817841970E-15  0.00000000000E+00  0.91188000000E+02  0.91188000000E+02 0.  0.
    9900012    2    3    3    0    0 -0.35385807421E+02 -0.68138637912E+01 -0.75628427469E+01  0.54367072567E+02  0.39999973532E+02 0.  0.
         12    1    3    3    0    0  0.35385807421E+02  0.68138637912E+01  0.75628427469E+01  0.36820927433E+02  0.00000000000E+00 0. -1.
         11    1    4    4    0    0 -0.17290137858E+02 -0.11857250430E+02  0.37834316356E+01  0.21303934147E+02  0.51100000000E-03 0.  1.
        -11    1    4    4    0    0 -0.35894958195E+01 -0.29739656204E+01 -0.15324770536E+02  0.16018038082E+02  0.51100000000E-03 0. -1.
        -12    1    4    4    0    0 -0.14506173743E+02  0.80173522595E+01  0.39784961536E+01  0.17045100339E+02  0.00000000000E+00 0.  1.
</event>
<event>
 8    1  0.2458065E-006  0.9118800E+02  0.7816164E-02  0.1184000E+00
        -11   -1    0    0    0    0  0.00000000000E+00  0.00000000000E+00  0.45593999997E+02  0.45594000000E+02  0.51100000000E-03 0. -1.
         11   -1    0    0    0    0 -0.00000000000E+00 -0.00000000000E+00 -0.45593999997E+02  0.45594000000E+02  0.51100000000E-03 0.  1.
         23    2    1    2    0    0 -0.35527136788E-14 -0.35527136788E-14 -0.35527136788E-14  0.91188000000E+02  0.91188000000E+02 0.  0.
    9900012    2    3    3    0    0  0.25248098924E+02  0.17678182561E+02 -0.20144368966E+02  0.54367078787E+02  0.39999987711E+02 0.  0.
         12    1    3    3    0    0 -0.25248098924E+02 -0.17678182561E+02  0.20144368966E+02  0.36820921213E+02  0.00000000000E+00 0. -1.
         11    1    4    4    0    0  0.82011615699E+01  0.21491520159E+02 -0.16359425623E+02  0.28227208449E+02  0.51100000000E-03 0. -1.
        -11    1    4    4    0    0  0.20332720234E+02 -0.22360881107E+01  0.56716587586E+00  0.20463168854E+02  0.51100000000E-03 0.  1.
         12    1    4    4    0    0 -0.32857828804E+01 -0.15772494873E+01 -0.43521092187E+01  0.56767014836E+01  0.00000000000E+00 0. -1.
</event>
<event>
 8    1  0.2458065E-006  0.9118800E+02  0.7816164E-02  0.1184000E+00
        -11   -1    0    0    0    0  0.00000000000E+00  0.00000000000E+00  0.45593999997E+02  0.45594000000E+02  0.51100000000E-03 0.  1.
         11   -1    0    0    0    0 -0.00000000000E+00 -0.00000000000E+00 -0.45593999997E+02  0.45594000000E+02  0.51100000000E-03 0. -1.
         23    2    1    2    0    0  0.44408920985E-15  0.00000000000E+00  0.00000000000E+00  0.91188000000E+02  0.91188000000E+02 0.  0.
    9900012    2    3    3    0    0  0.25529112150E+01 -0.82075572397E+01  0.35803612808E+02  0.54367081467E+02  0.39999993821E+02 0.  0.
         12    1    3    3    0    0 -0.25529112150E+01  0.82075572397E+01 -0.35803612808E+02  0.36820918533E+02  0.00000000000E+00 0. -1.
         11    1    4    4    0    0 -0.57153854009E+01 -0.17197977387E+02  0.15307411147E+02  0.23722413300E+02  0.51100000000E-03 0. -1.
        -11    1    4    4    0    0  0.88891917811E+00 -0.57699707243E+01  0.28916914571E+01  0.65149535078E+01  0.51100000000E-03 0.  1.
         12    1    4    4    0    0  0.73793774377E+01  0.14760390872E+02  0.17604510203E+02  0.24129714659E+02  0.00000000000E+00 0. -1.
</event>
<event>
 8    1  0.2458065E-006  0.9118800E+02  0.7816164E-02  0.1184000E+00
        -11   -1    0    0    0    0  0.00000000000E+00  0.00000000000E+00  0.45593999997E+02  0.45594000000E+02  0.51100000000E-03 0. -1.
         11   -1    0    0    0    0 -0.00000000000E+00 -0.00000000000E+00 -0.45593999997E+02  0.45594000000E+02  0.51100000000E-03 0.  1.
         23    2    1    2    0    0 -0.17763568394E-14  0.35527136788E-14 -0.17763568394E-14  0.91188000000E+02  0.91188000000E+02 0.  0.
    9900012    2    3    3    0    0  0.12260871872E+02 -0.31272309306E+02 -0.15082914842E+02  0.54367073497E+02  0.39999975650E+02 0.  0.
         12    1    3    3    0    0 -0.12260871872E+02  0.31272309306E+02  0.15082914842E+02  0.36820926503E+02  0.00000000000E+00 0. -1.
         11    1    4    4    0    0  0.37490530283E+01 -0.33393820601E+02 -0.14404059879E+02  0.36560629018E+02  0.51100000000E-03 0. -1.
        -11    1    4    4    0    0  0.86542686613E+01  0.80102455011E+01  0.48394624414E+00  0.11802313471E+02  0.51100000000E-03 0.  1.
        -12    1    4    4    0    0 -0.14244981717E+00 -0.58887342066E+01 -0.11628012076E+01  0.60041310074E+01  0.00000000000E+00 0.  1.
</event>
<event>
 8    1  0.2458065E-006  0.9118800E+02  0.7816164E-02  0.1184000E+00
        -11   -1    0    0    0    0  0.00000000000E+00  0.00000000000E+00  0.45593999997E+02  0.45594000000E+02  0.51100000000E-03 0.  1.
         11   -1    0    0    0    0 -0.00000000000E+00 -0.00000000000E+00 -0.45593999997E+02  0.45594000000E+02  0.51100000000E-03 0. -1.
         23    2    1    2    0    0  0.00000000000E+00 -0.13322676296E-14 -0.88817841970E-15  0.91188000000E+02  0.91188000000E+02 0.  0.
    9900012    2    3    3    0    0 -0.36605863333E+02 -0.31586017087E+01  0.24114572558E+01  0.54367066807E+02  0.39999960399E+02 0.  0.
         12    1    3    3    0    0  0.36605863333E+02  0.31586017087E+01 -0.24114572558E+01  0.36820933193E+02  0.00000000000E+00 0. -1.
         11    1    4    4    0    0 -0.14949955327E+02 -0.47384268796E+00 -0.10933062242E+02  0.18527210837E+02  0.51100000000E-03 0. -1.
        -11    1    4    4    0    0 -0.20766655956E+02  0.81196856725E+01  0.75087686496E+01  0.23527960003E+02  0.51100000000E-03 0.  1.
        -12    1    4    4    0    0 -0.88925205079E+00 -0.10804444693E+02  0.58357508477E+01  0.12311895967E+02  0.00000000000E+00 0.  1.
</event>
<event>
 8    1  0.2458065E-006  0.9118800E+02  0.7816164E-02  0.1184000E+00
        -11   -1    0    0    0    0  0.00000000000E+00  0.00000000000E+00  0.45593999997E+02  0.45594000000E+02  0.51100000000E-03 0. -1.
         11   -1    0    0    0    0 -0.00000000000E+00 -0.00000000000E+00 -0.45593999997E+02  0.45594000000E+02  0.51100000000E-03 0.  1.
         23    2    1    2    0    0  0.00000000000E+00  0.00000000000E+00  0.17763568394E-14  0.91188000000E+02  0.91188000000E+02 0.  0.
    9900012    2    3    3    0    0 -0.38109338099E+01 -0.33044804044E+02  0.15789219875E+02  0.54367058200E+02  0.39999940777E+02 0.  0.
        -12    1    3    3    0    0  0.38109338099E+01  0.33044804044E+02 -0.15789219875E+02  0.36820941800E+02  0.00000000000E+00 0.  1.
         11    1    4    4    0    0 -0.44657582045E+00 -0.39535359900E+02  0.87155972655E+01  0.40487105951E+02  0.51100000000E-03 0. -1.
        -11    1    4    4    0    0 -0.54586237731E+01  0.40892770722E+01  0.83059859755E+00  0.68708554606E+01  0.51100000000E-03 0.  1.
         12    1    4    4    0    0  0.20942657836E+01  0.24012787833E+01  0.62430240115E+01  0.70090967875E+01  0.00000000000E+00 0. -1.
</event>
<event>
 8    1  0.2458065E-006  0.9118800E+02  0.7816164E-02  0.1184000E+00
        -11   -1    0    0    0    0  0.00000000000E+00  0.00000000000E+00  0.45593999997E+02  0.45594000000E+02  0.51100000000E-03 0.  1.
         11   -1    0    0    0    0 -0.00000000000E+00 -0.00000000000E+00 -0.45593999997E+02  0.45594000000E+02  0.51100000000E-03 0. -1.
         23    2    1    2    0    0  0.35527136788E-14  0.00000000000E+00 -0.35527136788E-14  0.91188000000E+02  0.91188000000E+02 0.  0.
    9900012    2    3    3    0    0  0.29401483590E+02 -0.12712861422E+02 -0.18158079713E+02  0.54367082824E+02  0.39999996914E+02 0.  0.
         12    1    3    3    0    0 -0.29401483590E+02  0.12712861422E+02  0.18158079713E+02  0.36820917176E+02  0.00000000000E+00 0. -1.
         11    1    4    4    0    0  0.18937229433E+02  0.91423939372E+01 -0.11969069455E+02  0.24196294125E+02  0.51100000000E-03 0. -1.
        -11    1    4    4    0    0  0.22759014475E+01 -0.52933821747E+01  0.57765952043E+01  0.81589628423E+01  0.51100000000E-03 0.  1.
         12    1    4    4    0    0  0.81883527097E+01 -0.16561873184E+02 -0.11965605462E+02  0.22011825857E+02  0.00000000000E+00 0. -1.
</event>
<event>
 8    1  0.2458065E-006  0.9118800E+02  0.7816164E-02  0.1184000E+00
        -11   -1    0    0    0    0  0.00000000000E+00  0.00000000000E+00  0.45593999997E+02  0.45594000000E+02  0.51100000000E-03 0. -1.
         11   -1    0    0    0    0 -0.00000000000E+00 -0.00000000000E+00 -0.45593999997E+02  0.45594000000E+02  0.51100000000E-03 0.  1.
         23    2    1    2    0    0  0.35527136788E-14  0.00000000000E+00  0.00000000000E+00  0.91188000000E+02  0.91188000000E+02 0.  0.
    9900012    2    3    3    0    0 -0.15130017789E+02  0.27140139230E+02 -0.19755390038E+02  0.54367081607E+02  0.39999994140E+02 0.  0.
         12    1    3    3    0    0  0.15130017789E+02 -0.27140139230E+02  0.19755390038E+02  0.36820918393E+02  0.00000000000E+00 0. -1.
         11    1    4    4    0    0 -0.13160539468E+01  0.16716725842E+02 -0.10825792117E+02  0.19959426246E+02  0.51100000000E-03 0. -1.
        -11    1    4    4    0    0  0.39291028368E+01  0.14168602118E+01 -0.13381000538E+02  0.14017721556E+02  0.51100000000E-03 0.  1.
        -12    1    4    4    0    0 -0.17743066679E+02  0.90065531766E+01  0.44514026173E+01  0.20389933805E+02  0.00000000000E+00 0.  1.
</event>
<event>
 8    1  0.2458065E-006  0.9118800E+02  0.7816164E-02  0.1184000E+00
        -11   -1    0    0    0    0  0.00000000000E+00  0.00000000000E+00  0.45593999997E+02  0.45594000000E+02  0.51100000000E-03 0. -1.
         11   -1    0    0    0    0 -0.00000000000E+00 -0.00000000000E+00 -0.45593999997E+02  0.45594000000E+02  0.51100000000E-03 0.  1.
         23    2    1    2    0    0  0.00000000000E+00  0.88817841970E-15  0.00000000000E+00  0.91188000000E+02  0.91188000000E+02 0.  0.
    9900012    2    3    3    0    0 -0.87710754967E+01  0.68821244841E+01  0.35092522494E+02  0.54367074729E+02  0.39999978460E+02 0.  0.
        -12    1    3    3    0    0  0.87710754967E+01 -0.68821244841E+01 -0.35092522494E+02  0.36820925271E+02  0.00000000000E+00 0.  1.
         11    1    4    4    0    0  0.11489006105E+02  0.23570559533E+01  0.15577362611E+01  0.11831293952E+02  0.51100000000E-03 0.  1.
        -11    1    4    4    0    0 -0.12246534984E+02 -0.48911509116E+01  0.12699479976E+02  0.18307860833E+02  0.51100000000E-03 0. -1.
        -12    1    4    4    0    0 -0.80135466182E+01  0.94162194425E+01  0.20835306257E+02  0.24227919944E+02  0.00000000000E+00 0.  1.
</event>
<event>
 8    1  0.2458065E-006  0.9118800E+02  0.7816164E-02  0.1184000E+00
        -11   -1    0    0    0    0  0.00000000000E+00  0.00000000000E+00  0.45593999997E+02  0.45594000000E+02  0.51100000000E-03 0.  1.
         11   -1    0    0    0    0 -0.00000000000E+00 -0.00000000000E+00 -0.45593999997E+02  0.45594000000E+02  0.51100000000E-03 0. -1.
         23    2    1    2    0    0  0.00000000000E+00  0.22204460493E-15  0.00000000000E+00  0.91188000000E+02  0.91188000000E+02 0.  0.
    9900012    2    3    3    0    0 -0.21464341947E+02 -0.85155010131E+00  0.29905461922E+02  0.54367085216E+02  0.40000002367E+02 0.  0.
         12    1    3    3    0    0  0.21464341947E+02  0.85155010131E+00 -0.29905461922E+02  0.36820914784E+02  0.00000000000E+00 0. -1.
         11    1    4    4    0    0 -0.99646164645E+01  0.18256506880E+01  0.25300394110E+02  0.27253192916E+02  0.51100000000E-03 0. -1.
        -11    1    4    4    0    0 -0.14921805913E+02  0.21041748626E+01  0.10825174540E+02  0.18554574844E+02  0.51100000000E-03 0.  1.
         12    1    4    4    0    0  0.34220804306E+01 -0.47813756519E+01 -0.62201067287E+01  0.85593174561E+01  0.00000000000E+00 0. -1.
</event>
<event>
 8    1  0.2458065E-006  0.9118800E+02  0.7816164E-02  0.1184000E+00
        -11   -1    0    0    0    0  0.00000000000E+00  0.00000000000E+00  0.45593999997E+02  0.45594000000E+02  0.51100000000E-03 0. -1.
         11   -1    0    0    0    0 -0.00000000000E+00 -0.00000000000E+00 -0.45593999997E+02  0.45594000000E+02  0.51100000000E-03 0.  1.
         23    2    1    2    0    0 -0.17763568394E-14  0.00000000000E+00  0.00000000000E+00  0.91188000000E+02  0.91188000000E+02 0.  0.
    9900012    2    3    3    0    0  0.14070862412E+02  0.32666466710E+02 -0.95232563008E+01  0.54367087098E+02  0.40000006658E+02 0.  0.
         12    1    3    3    0    0 -0.14070862412E+02 -0.32666466710E+02  0.95232563008E+01  0.36820912902E+02  0.00000000000E+00 0. -1.
         11    1    4    4    0    0 -0.56336429253E+00  0.35701625133E+02 -0.82840205829E+01  0.36654446030E+02  0.51100000000E-03 0. -1.
        -11    1    4    4    0    0  0.38902369650E+01  0.16319008117E+01 -0.38500040408E+01  0.57113549424E+01  0.51100000000E-03 0.  1.
         12    1    4    4    0    0  0.10743989740E+02 -0.46670592350E+01  0.26107683229E+01  0.12001286126E+02  0.00000000000E+00 0. -1.
</event>
<event>
 8    1  0.2458065E-006  0.9118800E+02  0.7816164E-02  0.1184000E+00
        -11   -1    0    0    0    0  0.00000000000E+00  0.00000000000E+00  0.45593999997E+02  0.45594000000E+02  0.51100000000E-03 0. -1.
         11   -1    0    0    0    0 -0.00000000000E+00 -0.00000000000E+00 -0.45593999997E+02  0.45594000000E+02  0.51100000000E-03 0.  1.
         23    2    1    2    0    0  0.00000000000E+00  0.00000000000E+00 -0.88817841970E-15  0.91188000000E+02  0.91188000000E+02 0.  0.
    9900012    2    3    3    0    0 -0.23900602657E+02  0.27251357251E+02 -0.64733825287E+01  0.54367082565E+02  0.39999996323E+02 0.  0.
         12    1    3    3    0    0  0.23900602657E+02 -0.27251357251E+02  0.64733825287E+01  0.36820917435E+02  0.00000000000E+00 0. -1.
         11    1    4    4    0    0  0.93812846368E+01  0.80586661752E+01 -0.85991635843E+01  0.15063074606E+02  0.51100000000E-03 0. -1.
        -11    1    4    4    0    0 -0.19184398776E+02  0.93484901782E+01  0.48764305780E+01  0.21890979888E+02  0.51100000000E-03 0.  1.
         12    1    4    4    0    0 -0.14097488518E+02  0.98442008981E+01 -0.27506495224E+01  0.17413028072E+02  0.00000000000E+00 0. -1.
</event>
<event>
 8    1  0.2458065E-006  0.9118800E+02  0.7816164E-02  0.1184000E+00
        -11   -1    0    0    0    0  0.00000000000E+00  0.00000000000E+00  0.45593999997E+02  0.45594000000E+02  0.51100000000E-03 0.  1.
         11   -1    0    0    0    0 -0.00000000000E+00 -0.00000000000E+00 -0.45593999997E+02  0.45594000000E+02  0.51100000000E-03 0. -1.
         23    2    1    2    0    0  0.00000000000E+00 -0.17763568394E-14 -0.35527136788E-14  0.91188000000E+02  0.91188000000E+02 0.  0.
    9900012    2    3    3    0    0 -0.16376798507E+02  0.12975669792E+02  0.30318512042E+02  0.54367085992E+02  0.40000004137E+02 0.  0.
         12    1    3    3    0    0  0.16376798507E+02 -0.12975669792E+02 -0.30318512042E+02  0.36820914008E+02  0.00000000000E+00 0. -1.
         11    1    4    4    0    0 -0.26554758103E+01 -0.10484136275E+02  0.12784347198E+02  0.16745393359E+02  0.51100000000E-03 0. -1.
        -11    1    4    4    0    0 -0.59870799381E+01 -0.22430718721E+01  0.42110601356E+01  0.76556858174E+01  0.51100000000E-03 0.  1.
         12    1    4    4    0    0 -0.77342427586E+01  0.25702877939E+02  0.13323104709E+02  0.29966006816E+02  0.00000000000E+00 0. -1.
</event>
<event>
 8    1  0.2458065E-006  0.9118800E+02  0.7816164E-02  0.1184000E+00
        -11   -1    0    0    0    0  0.00000000000E+00  0.00000000000E+00  0.45593999997E+02  0.45594000000E+02  0.51100000000E-03 0. -1.
         11   -1    0    0    0    0 -0.00000000000E+00 -0.00000000000E+00 -0.45593999997E+02  0.45594000000E+02  0.51100000000E-03 0.  1.
         23    2    1    2    0    0  0.00000000000E+00  0.00000000000E+00  0.00000000000E+00  0.91188000000E+02  0.91188000000E+02 0.  0.
    9900012    2    3    3    0    0  0.68388465813E+01 -0.74059279442E+01  0.35414164097E+02  0.54367073749E+02  0.39999976226E+02 0.  0.
        -12    1    3    3    0    0 -0.68388465813E+01  0.74059279442E+01 -0.35414164097E+02  0.36820926251E+02  0.00000000000E+00 0.  1.
         11    1    4    4    0    0 -0.61725812934E+01 -0.96554260338E+01  0.23856993912E+02  0.26466661492E+02  0.51100000000E-03 0. -1.
        -11    1    4    4    0    0  0.10729855242E+02 -0.53866074144E+01  0.15004873468E+02  0.19216960244E+02  0.51100000000E-03 0.  1.
         12    1    4    4    0    0  0.22815726326E+01  0.76361055041E+01 -0.34477032837E+01  0.86834520140E+01  0.00000000000E+00 0. -1.
</event>
<event>
 8    1  0.2458065E-006  0.9118800E+02  0.7816164E-02  0.1184000E+00
        -11   -1    0    0    0    0  0.00000000000E+00  0.00000000000E+00  0.45593999997E+02  0.45594000000E+02  0.51100000000E-03 0.  1.
         11   -1    0    0    0    0 -0.00000000000E+00 -0.00000000000E+00 -0.45593999997E+02  0.45594000000E+02  0.51100000000E-03 0. -1.
         23    2    1    2    0    0  0.00000000000E+00  0.17763568394E-14  0.00000000000E+00  0.91188000000E+02  0.91188000000E+02 0.  0.
    9900012    2    3    3    0    0 -0.42223235547E+01 -0.11453492722E+02  0.34738590965E+02  0.54367079127E+02  0.39999988486E+02 0.  0.
         12    1    3    3    0    0  0.42223235547E+01  0.11453492722E+02 -0.34738590965E+02  0.36820920873E+02  0.00000000000E+00 0. -1.
         11    1    4    4    0    0 -0.21776494807E+01 -0.13518471530E+02  0.17648701644E+01  0.13806013064E+02  0.51100000000E-03 0.  1.
        -11    1    4    4    0    0 -0.68967223156E+01 -0.63167507990E+01  0.42953983996E+01  0.10291577480E+02  0.51100000000E-03 0. -1.
         12    1    4    4    0    0  0.48520482417E+01  0.83817296072E+01  0.28678322401E+02  0.30269488583E+02  0.00000000000E+00 0. -1.
</event>
<event>
 8    1  0.2458065E-006  0.9118800E+02  0.7816164E-02  0.1184000E+00
        -11   -1    0    0    0    0  0.00000000000E+00  0.00000000000E+00  0.45593999997E+02  0.45594000000E+02  0.51100000000E-03 0.  1.
         11   -1    0    0    0    0 -0.00000000000E+00 -0.00000000000E+00 -0.45593999997E+02  0.45594000000E+02  0.51100000000E-03 0. -1.
         23    2    1    2    0    0 -0.88817841970E-15  0.00000000000E+00 -0.88817841970E-15  0.91188000000E+02  0.91188000000E+02 0.  0.
    9900012    2    3    3    0    0  0.75310630015E+01  0.35892322605E+02 -0.32869027637E+01  0.54367089342E+02  0.40000011774E+02 0.  0.
        -12    1    3    3    0    0 -0.75310630015E+01 -0.35892322605E+02  0.32869027637E+01  0.36820910658E+02  0.00000000000E+00 0.  1.
         11    1    4    4    0    0  0.25986335960E+01  0.20055336662E+02  0.12947613933E+02  0.24012707720E+02  0.51100000000E-03 0. -1.
        -11    1    4    4    0    0 -0.16032350623E+01 -0.37923547791E+01 -0.10093023851E+00  0.41185561317E+01  0.51100000000E-03 0.  1.
         12    1    4    4    0    0  0.65356644679E+01  0.19629340721E+02 -0.16133586458E+02  0.26235825491E+02  0.00000000000E+00 0. -1.
</event>
<event>
 8    1  0.2458065E-006  0.9118800E+02  0.7816164E-02  0.1184000E+00
        -11   -1    0    0    0    0  0.00000000000E+00  0.00000000000E+00  0.45593999997E+02  0.45594000000E+02  0.51100000000E-03 0.  1.
         11   -1    0    0    0    0 -0.00000000000E+00 -0.00000000000E+00 -0.45593999997E+02  0.45594000000E+02  0.51100000000E-03 0. -1.
         23    2    1    2    0    0  0.00000000000E+00  0.88817841970E-15  0.17763568394E-14  0.91188000000E+02  0.91188000000E+02 0.  0.
    9900012    2    3    3    0    0  0.35251226725E+02 -0.25442441250E+01 -0.10327282821E+02  0.54367150821E+02  0.40000151927E+02 0.  0.
        -12    1    3    3    0    0 -0.35251226725E+02  0.25442441250E+01  0.10327282821E+02  0.36820849179E+02  0.00000000000E+00 0.  1.
         11    1    4    4    0    0  0.11789390037E+02  0.10981946720E+02 -0.96845145866E+01  0.18798475849E+02  0.51100000000E-03 0. -1.
        -11    1    4    4    0    0  0.12128800580E+02 -0.13397387177E+02 -0.10192408444E+02  0.20748083691E+02  0.51100000000E-03 0.  1.
         12    1    4    4    0    0  0.11333036108E+02 -0.12880366844E+00  0.95496402094E+01  0.14820591282E+02  0.00000000000E+00 0. -1.
</event>
<event>
 8    1  0.2458065E-006  0.9118800E+02  0.7816164E-02  0.1184000E+00
        -11   -1    0    0    0    0  0.00000000000E+00  0.00000000000E+00  0.45593999997E+02  0.45594000000E+02  0.51100000000E-03 0. -1.
         11   -1    0    0    0    0 -0.00000000000E+00 -0.00000000000E+00 -0.45593999997E+02  0.45594000000E+02  0.51100000000E-03 0.  1.
         23    2    1    2    0    0 -0.88817841970E-15  0.00000000000E+00  0.00000000000E+00  0.91188000000E+02  0.91188000000E+02 0.  0.
    9900012    2    3    3    0    0 -0.49574130136E+01  0.81871633192E+01 -0.35555207412E+02  0.54367104287E+02  0.40000045843E+02 0.  0.
         12    1    3    3    0    0  0.49574130136E+01 -0.81871633192E+01  0.35555207412E+02  0.36820895713E+02  0.00000000000E+00 0. -1.
         11    1    4    4    0    0 -0.22808209176E+00 -0.14416565954E+02 -0.86967451599E+01  0.16838134457E+02  0.51100000000E-03 0. -1.
        -11    1    4    4    0    0 -0.40714377990E+01  0.42772818472E+01 -0.12574128330E+01  0.60376181600E+01  0.51100000000E-03 0.  1.
        -12    1    4    4    0    0 -0.65789312277E+00  0.18326447426E+02 -0.25601049419E+02  0.31491351670E+02  0.00000000000E+00 0.  1.
</event>
<event>
 8    1  0.2458065E-006  0.9118800E+02  0.7816164E-02  0.1184000E+00
        -11   -1    0    0    0    0  0.00000000000E+00  0.00000000000E+00  0.45593999997E+02  0.45594000000E+02  0.51100000000E-03 0. -1.
         11   -1    0    0    0    0 -0.00000000000E+00 -0.00000000000E+00 -0.45593999997E+02  0.45594000000E+02  0.51100000000E-03 0.  1.
         23    2    1    2    0    0  0.35527136788E-14  0.35527136788E-14 -0.71054273576E-14  0.91188000000E+02  0.91188000000E+02 0.  0.
    9900012    2    3    3    0    0  0.13816015441E+02  0.18869177322E+02 -0.28440348591E+02  0.54367060802E+02  0.39999946711E+02 0.  0.
         12    1    3    3    0    0 -0.13816015441E+02 -0.18869177322E+02  0.28440348591E+02  0.36820939198E+02  0.00000000000E+00 0. -1.
         11    1    4    4    0    0  0.95232229998E+01  0.12814551230E+02 -0.16903484426E+02  0.23251500716E+02  0.51100000000E-03 0. -1.
        -11    1    4    4    0    0  0.19587807325E+01 -0.85521790160E+01 -0.13595721713E+02  0.16180860207E+02  0.51100000000E-03 0.  1.
         12    1    4    4    0    0  0.23340117084E+01  0.14606805108E+02  0.20588575479E+01  0.14934699880E+02  0.00000000000E+00 0. -1.
</event>
<event>
 8    1  0.2458065E-006  0.9118800E+02  0.7816164E-02  0.1184000E+00
        -11   -1    0    0    0    0  0.00000000000E+00  0.00000000000E+00  0.45593999997E+02  0.45594000000E+02  0.51100000000E-03 0.  1.
         11   -1    0    0    0    0 -0.00000000000E+00 -0.00000000000E+00 -0.45593999997E+02  0.45594000000E+02  0.51100000000E-03 0. -1.
         23    2    1    2    0    0  0.00000000000E+00 -0.44408920985E-15  0.00000000000E+00  0.91188000000E+02  0.91188000000E+02 0.  0.
    9900012    2    3    3    0    0  0.11396859932E+02  0.35225121321E+01 -0.34835090696E+02  0.54367081328E+02  0.39999993504E+02 0.  0.
        -12    1    3    3    0    0 -0.11396859932E+02 -0.35225121321E+01  0.34835090696E+02  0.36820918672E+02  0.00000000000E+00 0.  1.
         11    1    4    4    0    0  0.15290861164E+02  0.69191608576E+01 -0.14709775261E+02  0.22317318625E+02  0.51100000000E-03 0. -1.
        -11    1    4    4    0    0 -0.43970355186E+01  0.10055351112E+02 -0.12278433062E+02  0.16468270281E+02  0.51100000000E-03 0.  1.
         12    1    4    4    0    0  0.50303428683E+00 -0.13451999838E+02 -0.78468823728E+01  0.15581492422E+02  0.00000000000E+00 0. -1.
</event>
<event>
 8    1  0.2458065E-006  0.9118800E+02  0.7816164E-02  0.1184000E+00
        -11   -1    0    0    0    0  0.00000000000E+00  0.00000000000E+00  0.45593999997E+02  0.45594000000E+02  0.51100000000E-03 0. -1.
         11   -1    0    0    0    0 -0.00000000000E+00 -0.00000000000E+00 -0.45593999997E+02  0.45594000000E+02  0.51100000000E-03 0.  1.
         23    2    1    2    0    0  0.00000000000E+00 -0.17763568394E-14  0.00000000000E+00  0.91188000000E+02  0.91188000000E+02 0.  0.
    9900012    2    3    3    0    0 -0.29021937490E+02  0.79049790628E+01  0.21237185688E+02  0.54367087388E+02  0.40000007318E+02 0.  0.
        -12    1    3    3    0    0  0.29021937490E+02 -0.79049790628E+01 -0.21237185688E+02  0.36820912612E+02  0.00000000000E+00 0.  1.
         11    1    4    4    0    0 -0.21540409490E+02 -0.13188298655E+02  0.10641654422E+02  0.27407394468E+02  0.51100000000E-03 0. -1.
        -11    1    4    4    0    0 -0.90030302023E+01  0.18616719105E+02  0.60178708814E+01  0.21537213220E+02  0.51100000000E-03 0.  1.
         12    1    4    4    0    0  0.15215022021E+01  0.24765586121E+01  0.45776603840E+01  0.54224797004E+01  0.00000000000E+00 0. -1.
</event>
<event>
 8    1  0.2458065E-006  0.9118800E+02  0.7816164E-02  0.1184000E+00
        -11   -1    0    0    0    0  0.00000000000E+00  0.00000000000E+00  0.45593999997E+02  0.45594000000E+02  0.51100000000E-03 0. -1.
         11   -1    0    0    0    0 -0.00000000000E+00 -0.00000000000E+00 -0.45593999997E+02  0.45594000000E+02  0.51100000000E-03 0.  1.
         23    2    1    2    0    0  0.35527136788E-14 -0.88817841970E-15  0.00000000000E+00  0.91188000000E+02  0.91188000000E+02 0.  0.
    9900012    2    3    3    0    0  0.25771106656E+02  0.18847604281E+01  0.26231229637E+02  0.54367086535E+02  0.40000005374E+02 0.  0.
        -12    1    3    3    0    0 -0.25771106656E+02 -0.18847604281E+01 -0.26231229637E+02  0.36820913465E+02  0.00000000000E+00 0.  1.
         11    1    4    4    0    0  0.30492897478E+02  0.14002785461E+01  0.19838445989E+02  0.36405240229E+02  0.51100000000E-03 0. -1.
        -11    1    4    4    0    0  0.29582506782E+01  0.61637310501E+01  0.46078498274E+01  0.82447018033E+01  0.51100000000E-03 0.  1.
        -12    1    4    4    0    0 -0.76800414997E+01 -0.56792491681E+01  0.17849338203E+01  0.97171445031E+01  0.00000000000E+00 0.  1.
</event>
<event>
 8    1  0.2458065E-006  0.9118800E+02  0.7816164E-02  0.1184000E+00
        -11   -1    0    0    0    0  0.00000000000E+00  0.00000000000E+00  0.45593999997E+02  0.45594000000E+02  0.51100000000E-03 0.  1.
         11   -1    0    0    0    0 -0.00000000000E+00 -0.00000000000E+00 -0.45593999997E+02  0.45594000000E+02  0.51100000000E-03 0. -1.
         23    2    1    2    0    0 -0.71054273576E-14  0.17763568394E-14  0.27755575616E-16  0.91188000000E+02  0.91188000000E+02 0.  0.
    9900012    2    3    3    0    0  0.34092558578E+02  0.13909222380E+02  0.10517001319E+00  0.54367080968E+02  0.39999992683E+02 0.  0.
         12    1    3    3    0    0 -0.34092558578E+02 -0.13909222380E+02 -0.10517001319E+00  0.36820919032E+02  0.00000000000E+00 0. -1.
         11    1    4    4    0    0 -0.19190164264E+01 -0.27049498432E+00  0.59337014623E+01  0.62421634780E+01  0.51100000000E-03 0. -1.
        -11    1    4    4    0    0 -0.24362821746E+01 -0.42210836146E+01  0.94885148995E+00  0.49652126971E+01  0.51100000000E-03 0.  1.
        -12    1    4    4    0    0  0.38447857179E+02  0.18400800979E+02 -0.67773829390E+01  0.43159704793E+02  0.00000000000E+00 0.  1.
</event>
<event>
 8    1  0.2458065E-006  0.9118800E+02  0.7816164E-02  0.1184000E+00
        -11   -1    0    0    0    0  0.00000000000E+00  0.00000000000E+00  0.45593999997E+02  0.45594000000E+02  0.51100000000E-03 0.  1.
         11   -1    0    0    0    0 -0.00000000000E+00 -0.00000000000E+00 -0.45593999997E+02  0.45594000000E+02  0.51100000000E-03 0. -1.
         23    2    1    2    0    0  0.35527136788E-14  0.00000000000E+00  0.35527136788E-14  0.91188000000E+02  0.91188000000E+02 0.  0.
    9900012    2    3    3    0    0  0.23132814782E+02 -0.23203791952E+02  0.16800205500E+02  0.54366946437E+02  0.39999685990E+02 0.  0.
         12    1    3    3    0    0 -0.23132814782E+02  0.23203791952E+02 -0.16800205500E+02  0.36821053563E+02  0.00000000000E+00 0. -1.
         11    1    4    4    0    0  0.30090600214E+01 -0.12268418562E+02  0.40535527718E+01  0.13266492625E+02  0.51100000000E-03 0. -1.
        -11    1    4    4    0    0 -0.66382613798E+01 -0.10361389945E+02  0.40829458714E+01  0.12965159582E+02  0.51100000000E-03 0.  1.
         12    1    4    4    0    0  0.26762016140E+02 -0.57398344464E+00  0.86637068571E+01  0.28135294230E+02  0.00000000000E+00 0. -1.
</event>
<event>
 8    1  0.2458065E-006  0.9118800E+02  0.7816164E-02  0.1184000E+00
        -11   -1    0    0    0    0  0.00000000000E+00  0.00000000000E+00  0.45593999997E+02  0.45594000000E+02  0.51100000000E-03 0.  1.
         11   -1    0    0    0    0 -0.00000000000E+00 -0.00000000000E+00 -0.45593999997E+02  0.45594000000E+02  0.51100000000E-03 0. -1.
         23    2    1    2    0    0 -0.17763568394E-14 -0.35527136788E-14  0.35527136788E-14  0.91188000000E+02  0.91188000000E+02 0.  0.
    9900012    2    3    3    0    0 -0.10288953078E+02 -0.25135051436E+02  0.24862556502E+02  0.54367080919E+02  0.39999992572E+02 0.  0.
         12    1    3    3    0    0  0.10288953078E+02  0.25135051436E+02 -0.24862556502E+02  0.36820919081E+02  0.00000000000E+00 0. -1.
         11    1    4    4    0    0 -0.89413795905E+01  0.19865585029E+01  0.34262667304E+01  0.97792631438E+01  0.51100000000E-03 0. -1.
        -11    1    4    4    0    0 -0.13504647591E+02 -0.65820978296E+01  0.10531576780E+02  0.18347033224E+02  0.51100000000E-03 0.  1.
        -12    1    4    4    0    0  0.12157074104E+02 -0.20539512109E+02  0.10904712992E+02  0.26240784552E+02  0.00000000000E+00 0.  1.
</event>
<event>
 8    1  0.2458065E-006  0.9118800E+02  0.7816164E-02  0.1184000E+00
        -11   -1    0    0    0    0  0.00000000000E+00  0.00000000000E+00  0.45593999997E+02  0.45594000000E+02  0.51100000000E-03 0. -1.
         11   -1    0    0    0    0 -0.00000000000E+00 -0.00000000000E+00 -0.45593999997E+02  0.45594000000E+02  0.51100000000E-03 0.  1.
         23    2    1    2    0    0  0.11102230246E-15  0.71054273576E-14  0.00000000000E+00  0.91188000000E+02  0.91188000000E+02 0.  0.
    9900012    2    3    3    0    0 -0.18857814518E+00 -0.28477666367E+02  0.23340226341E+02  0.54367092772E+02  0.40000019592E+02 0.  0.
        -12    1    3    3    0    0  0.18857814518E+00  0.28477666367E+02 -0.23340226341E+02  0.36820907228E+02  0.00000000000E+00 0.  1.
         11    1    4    4    0    0 -0.96447834956E+00  0.41933356875E+01  0.15093351207E+01  0.45598657264E+01  0.51100000000E-03 0. -1.
        -11    1    4    4    0    0  0.30432047200E+01 -0.10910628704E+02  0.25239895036E+02  0.27665054046E+02  0.51100000000E-03 0.  1.
        -12    1    4    4    0    0 -0.22673045156E+01 -0.21760373351E+02 -0.34090038153E+01  0.22142173000E+02  0.00000000000E+00 0.  1.
</event>
<event>
 8    1  0.2458065E-006  0.9118800E+02  0.7816164E-02  0.1184000E+00
        -11   -1    0    0    0    0  0.00000000000E+00  0.00000000000E+00  0.45593999997E+02  0.45594000000E+02  0.51100000000E-03 0.  1.
         11   -1    0    0    0    0 -0.00000000000E+00 -0.00000000000E+00 -0.45593999997E+02  0.45594000000E+02  0.51100000000E-03 0. -1.
         23    2    1    2    0    0  0.71054273576E-14  0.00000000000E+00  0.35527136788E-14  0.91188000000E+02  0.91188000000E+02 0.  0.
    9900012    2    3    3    0    0 -0.24631920126E+02  0.21871391688E+02 -0.16452623541E+02  0.54367108039E+02  0.40000054396E+02 0.  0.
        -12    1    3    3    0    0  0.24631920126E+02 -0.21871391688E+02  0.16452623541E+02  0.36820891961E+02  0.00000000000E+00 0.  1.
         11    1    4    4    0    0 -0.13281821081E+02  0.17534313309E+02 -0.99738772417E+01  0.24152373423E+02  0.51100000000E-03 0. -1.
        -11    1    4    4    0    0  0.20440112813E+01 -0.35380632037E+01 -0.12803035842E+02  0.13439255946E+02  0.51100000000E-03 0.  1.
        -12    1    4    4    0    0 -0.13394110326E+02  0.78751415824E+01  0.63242895436E+01  0.16775478669E+02  0.00000000000E+00 0.  1.
</event>
<event>
 8    1  0.2458065E-006  0.9118800E+02  0.7816164E-02  0.1184000E+00
        -11   -1    0    0    0    0  0.00000000000E+00  0.00000000000E+00  0.45593999997E+02  0.45594000000E+02  0.51100000000E-03 0. -1.
         11   -1    0    0    0    0 -0.00000000000E+00 -0.00000000000E+00 -0.45593999997E+02  0.45594000000E+02  0.51100000000E-03 0.  1.
         23    2    1    2    0    0  0.00000000000E+00  0.00000000000E+00  0.00000000000E+00  0.91188000000E+02  0.91188000000E+02 0.  0.
    9900012    2    3    3    0    0 -0.26268389163E+02 -0.23828933747E+02 -0.98964009792E+01  0.54367012709E+02  0.39999837072E+02 0.  0.
        -12    1    3    3    0    0  0.26268389163E+02  0.23828933747E+02  0.98964009792E+01  0.36820987291E+02  0.00000000000E+00 0.  1.
         11    1    4    4    0    0 -0.50742006700E+01  0.47535761699E+01  0.27652719696E+01  0.74826952476E+01  0.51100000000E-03 0. -1.
        -11    1    4    4    0    0 -0.32607061758E+01  0.36335097826E+01 -0.84691985508E+01  0.97755778581E+01  0.51100000000E-03 0.  1.
         12    1    4    4    0    0 -0.17933482317E+02 -0.32216019700E+02 -0.41924743980E+01  0.37108739603E+02  0.00000000000E+00 0. -1.
</event>
<event>
 8    1  0.2458065E-006  0.9118800E+02  0.7816164E-02  0.1184000E+00
        -11   -1    0    0    0    0  0.00000000000E+00  0.00000000000E+00  0.45593999997E+02  0.45594000000E+02  0.51100000000E-03 0. -1.
         11   -1    0    0    0    0 -0.00000000000E+00 -0.00000000000E+00 -0.45593999997E+02  0.45594000000E+02  0.51100000000E-03 0.  1.
         23    2    1    2    0    0  0.00000000000E+00  0.88817841970E-15  0.00000000000E+00  0.91188000000E+02  0.91188000000E+02 0.  0.
    9900012    2    3    3    0    0 -0.32023893366E+02  0.77180911463E+01 -0.16452390093E+02  0.54367084516E+02  0.40000000772E+02 0.  0.
         12    1    3    3    0    0  0.32023893366E+02 -0.77180911463E+01  0.16452390093E+02  0.36820915484E+02  0.00000000000E+00 0. -1.
         11    1    4    4    0    0 -0.60088111687E+01  0.14149277431E+01  0.79007866143E+01  0.10026478024E+02  0.51100000000E-03 0. -1.
        -11    1    4    4    0    0 -0.13408322944E+02  0.14867388772E+02 -0.20427469579E+02  0.28602515392E+02  0.51100000000E-03 0.  1.
         12    1    4    4    0    0 -0.12606759253E+02 -0.85642253687E+01 -0.39257071282E+01  0.15738091101E+02  0.00000000000E+00 0. -1.
</event>
<event>
 8    1  0.2458065E-006  0.9118800E+02  0.7816164E-02  0.1184000E+00
        -11   -1    0    0    0    0  0.00000000000E+00  0.00000000000E+00  0.45593999997E+02  0.45594000000E+02  0.51100000000E-03 0.  1.
         11   -1    0    0    0    0 -0.00000000000E+00 -0.00000000000E+00 -0.45593999997E+02  0.45594000000E+02  0.51100000000E-03 0. -1.
         23    2    1    2    0    0  0.00000000000E+00  0.35527136788E-14  0.00000000000E+00  0.91188000000E+02  0.91188000000E+02 0.  0.
    9900012    2    3    3    0    0 -0.16253967080E+02  0.24398626863E+02  0.22277701463E+02  0.54367076314E+02  0.39999982073E+02 0.  0.
         12    1    3    3    0    0  0.16253967080E+02 -0.24398626863E+02 -0.22277701463E+02  0.36820923686E+02  0.00000000000E+00 0. -1.
         11    1    4    4    0    0  0.40787304936E+01  0.13745458896E+02  0.34201375640E+01  0.14740116143E+02  0.51100000000E-03 0. -1.
        -11    1    4    4    0    0 -0.15336877305E+02  0.19263036807E+02  0.15620123660E+02  0.29159435109E+02  0.51100000000E-03 0.  1.
        -12    1    4    4    0    0 -0.49958202695E+01 -0.86098688402E+01  0.32374402388E+01  0.10467525061E+02  0.00000000000E+00 0.  1.
</event>
<event>
 8    1  0.2458065E-006  0.9118800E+02  0.7816164E-02  0.1184000E+00
        -11   -1    0    0    0    0  0.00000000000E+00  0.00000000000E+00  0.45593999997E+02  0.45594000000E+02  0.51100000000E-03 0.  1.
         11   -1    0    0    0    0 -0.00000000000E+00 -0.00000000000E+00 -0.45593999997E+02  0.45594000000E+02  0.51100000000E-03 0. -1.
         23    2    1    2    0    0  0.71054273576E-14 -0.44408920985E-15  0.17763568394E-14  0.91188000000E+02  0.91188000000E+02 0.  0.
    9900012    2    3    3    0    0  0.35664155020E+02  0.26104303763E+01 -0.87768485149E+01  0.54367090589E+02  0.40000014615E+02 0.  0.
        -12    1    3    3    0    0 -0.35664155020E+02 -0.26104303763E+01  0.87768485149E+01  0.36820909411E+02  0.00000000000E+00 0.  1.
         11    1    4    4    0    0  0.22251544796E+02  0.10104084326E+02  0.60882705102E+01  0.25185130612E+02  0.51100000000E-03 0. -1.
        -11    1    4    4    0    0  0.18221557777E+02 -0.86286386678E+01 -0.12257628156E+02  0.23595084686E+02  0.51100000000E-03 0.  1.
         12    1    4    4    0    0 -0.48089475532E+01  0.11349847181E+01 -0.26074908695E+01  0.55868752908E+01  0.00000000000E+00 0. -1.
</event>
<event>
 8    1  0.2458065E-006  0.9118800E+02  0.7816164E-02  0.1184000E+00
        -11   -1    0    0    0    0  0.00000000000E+00  0.00000000000E+00  0.45593999997E+02  0.45594000000E+02  0.51100000000E-03 0.  1.
         11   -1    0    0    0    0 -0.00000000000E+00 -0.00000000000E+00 -0.45593999997E+02  0.45594000000E+02  0.51100000000E-03 0. -1.
         23    2    1    2    0    0  0.00000000000E+00  0.00000000000E+00 -0.88817841970E-15  0.91188000000E+02  0.91188000000E+02 0.  0.
    9900012    2    3    3    0    0  0.27962551351E+02 -0.23457935496E+02  0.48580630607E+01  0.54367084850E+02  0.40000001533E+02 0.  0.
        -12    1    3    3    0    0 -0.27962551351E+02  0.23457935496E+02 -0.48580630607E+01  0.36820915150E+02  0.00000000000E+00 0.  1.
         11    1    4    4    0    0 -0.90549998000E+00 -0.13756640627E+02 -0.47668003086E+01  0.14587236784E+02  0.51100000000E-03 0. -1.
        -11    1    4    4    0    0 -0.36913871000E+01  0.36662030468E+00  0.36032408672E+01  0.51714692475E+01  0.51100000000E-03 0.  1.
         12    1    4    4    0    0  0.32559438431E+02 -0.10067915174E+02  0.60216225021E+01  0.34608378818E+02  0.00000000000E+00 0. -1.
</event>
<event>
 8    1  0.2458065E-006  0.9118800E+02  0.7816164E-02  0.1184000E+00
        -11   -1    0    0    0    0  0.00000000000E+00  0.00000000000E+00  0.45593999997E+02  0.45594000000E+02  0.51100000000E-03 0. -1.
         11   -1    0    0    0    0 -0.00000000000E+00 -0.00000000000E+00 -0.45593999997E+02  0.45594000000E+02  0.51100000000E-03 0.  1.
         23    2    1    2    0    0  0.00000000000E+00  0.35527136788E-14  0.00000000000E+00  0.91188000000E+02  0.91188000000E+02 0.  0.
    9900012    2    3    3    0    0  0.33537692465E+01  0.31210105075E+02 -0.19247344617E+02  0.54367099661E+02  0.40000035298E+02 0.  0.
         12    1    3    3    0    0 -0.33537692465E+01 -0.31210105075E+02  0.19247344617E+02  0.36820900339E+02  0.00000000000E+00 0. -1.
         11    1    4    4    0    0 -0.33791003589E+01 -0.55317263036E+01 -0.20682875570E+01  0.68041258669E+01  0.51100000000E-03 0. -1.
        -11    1    4    4    0    0  0.27128149394E+01  0.15303879294E+02  0.51258873650E+01  0.16365903821E+02  0.51100000000E-03 0.  1.
        -12    1    4    4    0    0  0.40200546661E+01  0.21437952084E+02 -0.22304944425E+02  0.31197069973E+02  0.00000000000E+00 0.  1.
</event>
<event>
 8    1  0.2458065E-006  0.9118800E+02  0.7816164E-02  0.1184000E+00
        -11   -1    0    0    0    0  0.00000000000E+00  0.00000000000E+00  0.45593999997E+02  0.45594000000E+02  0.51100000000E-03 0. -1.
         11   -1    0    0    0    0 -0.00000000000E+00 -0.00000000000E+00 -0.45593999997E+02  0.45594000000E+02  0.51100000000E-03 0.  1.
         23    2    1    2    0    0  0.00000000000E+00  0.00000000000E+00  0.00000000000E+00  0.91188000000E+02  0.91188000000E+02 0.  0.
    9900012    2    3    3    0    0  0.25425510710E+02 -0.23272592671E+02  0.12950271347E+02  0.54367086209E+02  0.40000004630E+02 0.  0.
        -12    1    3    3    0    0 -0.25425510710E+02  0.23272592671E+02 -0.12950271347E+02  0.36820913791E+02  0.00000000000E+00 0.  1.
         11    1    4    4    0    0  0.41172247384E+01  0.94728777274E+00  0.40084440805E+01  0.58237889624E+01  0.51100000000E-03 0. -1.
        -11    1    4    4    0    0  0.26587608337E+02 -0.26638789177E+02  0.14662208176E+02  0.40391909521E+02  0.51100000000E-03 0.  1.
        -12    1    4    4    0    0 -0.52793223652E+01  0.24189087336E+01 -0.57203809097E+01  0.81513877254E+01  0.00000000000E+00 0.  1.
</event>
<event>
 8    1  0.2458065E-006  0.9118800E+02  0.7816164E-02  0.1184000E+00
        -11   -1    0    0    0    0  0.00000000000E+00  0.00000000000E+00  0.45593999997E+02  0.45594000000E+02  0.51100000000E-03 0.  1.
         11   -1    0    0    0    0 -0.00000000000E+00 -0.00000000000E+00 -0.45593999997E+02  0.45594000000E+02  0.51100000000E-03 0. -1.
         23    2    1    2    0    0  0.71054273576E-14  0.17763568394E-14 -0.35527136788E-14  0.91188000000E+02  0.91188000000E+02 0.  0.
    9900012    2    3    3    0    0  0.33369159013E+02  0.10284981394E+02 -0.11683153092E+02  0.54367113513E+02  0.40000066876E+02 0.  0.
        -12    1    3    3    0    0 -0.33369159013E+02 -0.10284981394E+02  0.11683153092E+02  0.36820886487E+02  0.00000000000E+00 0.  1.
         11    1    4    4    0    0  0.72019821987E+00  0.29123721354E+01  0.74068196836E+01  0.79913437555E+01  0.51100000000E-03 0. -1.
        -11    1    4    4    0    0 -0.24855706646E+01 -0.45077969348E+01 -0.28889525989E+01  0.59029096311E+01  0.51100000000E-03 0.  1.
         12    1    4    4    0    0  0.35134531457E+02  0.11880406194E+02 -0.16201020177E+02  0.40472860127E+02  0.00000000000E+00 0. -1.
</event>
<event>
 8    1  0.2458065E-006  0.9118800E+02  0.7816164E-02  0.1184000E+00
        -11   -1    0    0    0    0  0.00000000000E+00  0.00000000000E+00  0.45593999997E+02  0.45594000000E+02  0.51100000000E-03 0. -1.
         11   -1    0    0    0    0 -0.00000000000E+00 -0.00000000000E+00 -0.45593999997E+02  0.45594000000E+02  0.51100000000E-03 0.  1.
         23    2    1    2    0    0  0.00000000000E+00  0.00000000000E+00  0.35527136788E-14  0.91188000000E+02  0.91188000000E+02 0.  0.
    9900012    2    3    3    0    0  0.16480449066E+02  0.10426768130E+02  0.31232147009E+02  0.54367221873E+02  0.40000313903E+02 0.  0.
        -12    1    3    3    0    0 -0.16480449066E+02 -0.10426768130E+02 -0.31232147009E+02  0.36820778127E+02  0.00000000000E+00 0.  1.
         11    1    4    4    0    0  0.23390987010E+01  0.23641717741E+02  0.14625159352E+02  0.27897983562E+02  0.51100000000E-03 0. -1.
        -11    1    4    4    0    0  0.69861534340E+01 -0.78803460918E+01  0.45591089497E+01  0.11475699064E+02  0.51100000000E-03 0.  1.
         12    1    4    4    0    0  0.71551969315E+01 -0.53346035188E+01  0.12047878707E+02  0.14993539248E+02  0.00000000000E+00 0. -1.
</event>
<event>
 8    1  0.2458065E-006  0.9118800E+02  0.7816164E-02  0.1184000E+00
        -11   -1    0    0    0    0  0.00000000000E+00  0.00000000000E+00  0.45593999997E+02  0.45594000000E+02  0.51100000000E-03 0.  1.
         11   -1    0    0    0    0 -0.00000000000E+00 -0.00000000000E+00 -0.45593999997E+02  0.45594000000E+02  0.51100000000E-03 0. -1.
         23    2    1    2    0    0 -0.17763568394E-14  0.00000000000E+00 -0.71054273576E-14  0.91188000000E+02  0.91188000000E+02 0.  0.
    9900012    2    3    3    0    0  0.49549199299E+01  0.18097788818E+01  0.36441088919E+02  0.54367088921E+02  0.40000010813E+02 0.  0.
         12    1    3    3    0    0 -0.49549199299E+01 -0.18097788818E+01 -0.36441088919E+02  0.36820911079E+02  0.00000000000E+00 0. -1.
         11    1    4    4    0    0 -0.11394783530E+02 -0.10980849972E+02  0.74909518080E+01  0.17508127172E+02  0.51100000000E-03 0. -1.
        -11    1    4    4    0    0  0.15405738767E+02  0.78549972213E+01  0.18866776307E+02  0.25592831355E+02  0.51100000000E-03 0.  1.
         12    1    4    4    0    0  0.94396469244E+00  0.49356316330E+01  0.10083360804E+02  0.11266130394E+02  0.00000000000E+00 0. -1.
</event>
<event>
 8    1  0.2458065E-006  0.9118800E+02  0.7816164E-02  0.1184000E+00
        -11   -1    0    0    0    0  0.00000000000E+00  0.00000000000E+00  0.45593999997E+02  0.45594000000E+02  0.51100000000E-03 0.  1.
         11   -1    0    0    0    0 -0.00000000000E+00 -0.00000000000E+00 -0.45593999997E+02  0.45594000000E+02  0.51100000000E-03 0. -1.
         23    2    1    2    0    0 -0.35527136788E-14  0.17763568394E-14 -0.35527136788E-14  0.91188000000E+02  0.91188000000E+02 0.  0.
    9900012    2    3    3    0    0  0.24852459401E+02  0.98656177731E+01 -0.25313983044E+02  0.54367178582E+02  0.40000215213E+02 0.  0.
        -12    1    3    3    0    0 -0.24852459401E+02 -0.98656177731E+01  0.25313983044E+02  0.36820821418E+02  0.00000000000E+00 0.  1.
         11    1    4    4    0    0  0.75005006093E+01 -0.58113436888E+01 -0.10056872781E+02  0.13826420912E+02  0.51100000000E-03 0. -1.
        -11    1    4    4    0    0  0.17553318640E+02 -0.23745214659E+01 -0.13726097764E+01  0.17766299708E+02  0.51100000000E-03 0.  1.
         12    1    4    4    0    0 -0.20135984785E+00  0.18051482928E+02 -0.13884500487E+02  0.22774457962E+02  0.00000000000E+00 0. -1.
</event>
<event>
 8    1  0.2458065E-006  0.9118800E+02  0.7816164E-02  0.1184000E+00
        -11   -1    0    0    0    0  0.00000000000E+00  0.00000000000E+00  0.45593999997E+02  0.45594000000E+02  0.51100000000E-03 0.  1.
         11   -1    0    0    0    0 -0.00000000000E+00 -0.00000000000E+00 -0.45593999997E+02  0.45594000000E+02  0.51100000000E-03 0. -1.
         23    2    1    2    0    0  0.00000000000E+00 -0.17763568394E-14  0.00000000000E+00  0.91188000000E+02  0.91188000000E+02 0.  0.
    9900012    2    3    3    0    0 -0.93594336437E+01  0.11439430192E+02  0.33724177995E+02  0.54367085527E+02  0.40000003075E+02 0.  0.
         12    1    3    3    0    0  0.93594336437E+01 -0.11439430192E+02 -0.33724177995E+02  0.36820914473E+02  0.00000000000E+00 0. -1.
         11    1    4    4    0    0  0.64919860686E+01 -0.67912203549E+01  0.22162829598E+02  0.24071924997E+02  0.51100000000E-03 0. -1.
        -11    1    4    4    0    0 -0.14727503156E+01 -0.13456074392E+01  0.46216534333E+01  0.50338189867E+01  0.51100000000E-03 0.  1.
        -12    1    4    4    0    0 -0.14378669397E+02  0.19576257986E+02  0.69396949636E+01  0.25261341543E+02  0.00000000000E+00 0.  1.
</event>
<event>
 8    1  0.2458065E-006  0.9118800E+02  0.7816164E-02  0.1184000E+00
        -11   -1    0    0    0    0  0.00000000000E+00  0.00000000000E+00  0.45593999997E+02  0.45594000000E+02  0.51100000000E-03 0.  1.
         11   -1    0    0    0    0 -0.00000000000E+00 -0.00000000000E+00 -0.45593999997E+02  0.45594000000E+02  0.51100000000E-03 0. -1.
         23    2    1    2    0    0  0.00000000000E+00 -0.44408920985E-15 -0.71054273576E-14  0.91188000000E+02  0.91188000000E+02 0.  0.
    9900012    2    3    3    0    0  0.11325493117E+02  0.32581738247E+01  0.34884063867E+02  0.54367076561E+02  0.39999982636E+02 0.  0.
         12    1    3    3    0    0 -0.11325493117E+02 -0.32581738247E+01 -0.34884063867E+02  0.36820923439E+02  0.00000000000E+00 0. -1.
         11    1    4    4    0    0 -0.44219859754E+01  0.19765174214E+01  0.26015761849E+01  0.54980705699E+01  0.51100000000E-03 0. -1.
        -11    1    4    4    0    0 -0.14223617334E+01 -0.54738938376E+01  0.29705230435E+02  0.30238838306E+02  0.51100000000E-03 0.  1.
         12    1    4    4    0    0  0.17169840826E+02  0.67555502409E+01  0.25772572472E+01  0.18630167685E+02  0.00000000000E+00 0. -1.
</event>
<event>
 8    1  0.2458065E-006  0.9118800E+02  0.7816164E-02  0.1184000E+00
        -11   -1    0    0    0    0  0.00000000000E+00  0.00000000000E+00  0.45593999997E+02  0.45594000000E+02  0.51100000000E-03 0.  1.
         11   -1    0    0    0    0 -0.00000000000E+00 -0.00000000000E+00 -0.45593999997E+02  0.45594000000E+02  0.51100000000E-03 0. -1.
         23    2    1    2    0    0  0.00000000000E+00  0.00000000000E+00  0.17763568394E-14  0.91188000000E+02  0.91188000000E+02 0.  0.
    9900012    2    3    3    0    0  0.33790453615E+02  0.41548208569E+01  0.14025799241E+02  0.54367077467E+02  0.39999984701E+02 0.  0.
         12    1    3    3    0    0 -0.33790453615E+02 -0.41548208569E+01 -0.14025799241E+02  0.36820922533E+02  0.00000000000E+00 0. -1.
         11    1    4    4    0    0 -0.22089761816E+01 -0.70644353341E+00  0.10092711617E+01  0.25292818696E+01  0.51100000000E-03 0. -1.
        -11    1    4    4    0    0  0.31970879956E+02  0.79564704018E+01 -0.48155727170E+01  0.33296130815E+02  0.51100000000E-03 0.  1.
        -12    1    4    4    0    0  0.40285498401E+01 -0.30952060115E+01  0.17832100796E+02  0.18541664782E+02  0.00000000000E+00 0.  1.
</event>
<event>
 8    1  0.2458065E-006  0.9118800E+02  0.7816164E-02  0.1184000E+00
        -11   -1    0    0    0    0  0.00000000000E+00  0.00000000000E+00  0.45593999997E+02  0.45594000000E+02  0.51100000000E-03 0. -1.
         11   -1    0    0    0    0 -0.00000000000E+00 -0.00000000000E+00 -0.45593999997E+02  0.45594000000E+02  0.51100000000E-03 0.  1.
         23    2    1    2    0    0  0.00000000000E+00  0.00000000000E+00 -0.17763568394E-14  0.91188000000E+02  0.91188000000E+02 0.  0.
    9900012    2    3    3    0    0  0.34611262668E+02 -0.11004234862E+02  0.60619544418E+01  0.54367082303E+02  0.39999995727E+02 0.  0.
        -12    1    3    3    0    0 -0.34611262668E+02  0.11004234862E+02 -0.60619544418E+01  0.36820917697E+02  0.00000000000E+00 0.  1.
         11    1    4    4    0    0  0.11821438948E+02 -0.67245564823E+01  0.11244809809E+02  0.17646864498E+02  0.51100000000E-03 0. -1.
        -11    1    4    4    0    0  0.21637684632E+02  0.21041297573E+01  0.70663525767E+01  0.22859354699E+02  0.51100000000E-03 0.  1.
        -12    1    4    4    0    0  0.11521390880E+01 -0.63838081366E+01 -0.12249207944E+02  0.13860863107E+02  0.00000000000E+00 0.  1.
</event>
<event>
 8    1  0.2458065E-006  0.9118800E+02  0.7816164E-02  0.1184000E+00
        -11   -1    0    0    0    0  0.00000000000E+00  0.00000000000E+00  0.45593999997E+02  0.45594000000E+02  0.51100000000E-03 0. -1.
         11   -1    0    0    0    0 -0.00000000000E+00 -0.00000000000E+00 -0.45593999997E+02  0.45594000000E+02  0.51100000000E-03 0.  1.
         23    2    1    2    0    0  0.17763568394E-14  0.00000000000E+00  0.00000000000E+00  0.91188000000E+02  0.91188000000E+02 0.  0.
    9900012    2    3    3    0    0  0.80911087111E+01 -0.35352455838E+02  0.63653680123E+01  0.54367080893E+02  0.39999992511E+02 0.  0.
        -12    1    3    3    0    0 -0.80911087111E+01  0.35352455838E+02 -0.63653680123E+01  0.36820919107E+02  0.00000000000E+00 0.  1.
         11    1    4    4    0    0 -0.29178786090E+01 -0.58225168631E+01  0.51396059350E+01  0.82964611508E+01  0.51100000000E-03 0. -1.
        -11    1    4    4    0    0 -0.34978919873E+01 -0.11299684621E+02  0.14924678949E+02  0.19043743406E+02  0.51100000000E-03 0.  1.
         12    1    4    4    0    0  0.14506879307E+02 -0.18230254354E+02 -0.13698916872E+02  0.27026876336E+02  0.00000000000E+00 0. -1.
</event>
<event>
 8    1  0.2458065E-006  0.9118800E+02  0.7816164E-02  0.1184000E+00
        -11   -1    0    0    0    0  0.00000000000E+00  0.00000000000E+00  0.45593999997E+02  0.45594000000E+02  0.51100000000E-03 0. -1.
         11   -1    0    0    0    0 -0.00000000000E+00 -0.00000000000E+00 -0.45593999997E+02  0.45594000000E+02  0.51100000000E-03 0.  1.
         23    2    1    2    0    0 -0.17763568394E-14  0.00000000000E+00  0.00000000000E+00  0.91188000000E+02  0.91188000000E+02 0.  0.
    9900012    2    3    3    0    0 -0.30536553073E+01  0.11811400957E+02 -0.34741134091E+02  0.54367076584E+02  0.39999982689E+02 0.  0.
         12    1    3    3    0    0  0.30536553073E+01 -0.11811400957E+02  0.34741134091E+02  0.36820923416E+02  0.00000000000E+00 0. -1.
         11    1    4    4    0    0  0.92579139842E+01  0.81772960644E+01 -0.17151316651E+02  0.21136338505E+02  0.51100000000E-03 0. -1.
        -11    1    4    4    0    0 -0.23995130051E+01 -0.59472986992E+01 -0.18335455146E+02  0.19424647749E+02  0.51100000000E-03 0.  1.
        -12    1    4    4    0    0 -0.99120562864E+01  0.95814035917E+01  0.74563770711E+00  0.13806090330E+02  0.00000000000E+00 0.  1.
</event>
<event>
 8    1  0.2458065E-006  0.9118800E+02  0.7816164E-02  0.1184000E+00
        -11   -1    0    0    0    0  0.00000000000E+00  0.00000000000E+00  0.45593999997E+02  0.45594000000E+02  0.51100000000E-03 0. -1.
         11   -1    0    0    0    0 -0.00000000000E+00 -0.00000000000E+00 -0.45593999997E+02  0.45594000000E+02  0.51100000000E-03 0.  1.
         23    2    1    2    0    0  0.00000000000E+00  0.88817841970E-15  0.00000000000E+00  0.91188000000E+02  0.91188000000E+02 0.  0.
    9900012    2    3    3    0    0  0.35925615539E+02 -0.59037946174E+01 -0.55022821811E+01  0.54367085401E+02  0.40000002788E+02 0.  0.
        -12    1    3    3    0    0 -0.35925615539E+02  0.59037946174E+01  0.55022821811E+01  0.36820914599E+02  0.00000000000E+00 0.  1.
         11    1    4    4    0    0  0.21942803819E+01 -0.46572002498E+01  0.63731350273E+01  0.81927547808E+01  0.51100000000E-03 0. -1.
        -11    1    4    4    0    0 -0.44767735487E+01  0.34169958660E+01  0.71230470333E+00  0.56766839270E+01  0.51100000000E-03 0.  1.
         12    1    4    4    0    0  0.38208108706E+02 -0.46635902336E+01 -0.12587721912E+02  0.40497646693E+02  0.00000000000E+00 0. -1.
</event>
<event>
 8    1  0.2458065E-006  0.9118800E+02  0.7816164E-02  0.1184000E+00
        -11   -1    0    0    0    0  0.00000000000E+00  0.00000000000E+00  0.45593999997E+02  0.45594000000E+02  0.51100000000E-03 0.  1.
         11   -1    0    0    0    0 -0.00000000000E+00 -0.00000000000E+00 -0.45593999997E+02  0.45594000000E+02  0.51100000000E-03 0. -1.
         23    2    1    2    0    0  0.00000000000E+00  0.00000000000E+00  0.88817841970E-15  0.91188000000E+02  0.91188000000E+02 0.  0.
    9900012    2    3    3    0    0 -0.32371239508E+02  0.16065028722E+02  0.70567266461E+01  0.54367086295E+02  0.40000004826E+02 0.  0.
         12    1    3    3    0    0  0.32371239508E+02 -0.16065028722E+02 -0.70567266461E+01  0.36820913705E+02  0.00000000000E+00 0. -1.
         11    1    4    4    0    0 -0.33771559646E+01 -0.60785594436E+01  0.38570298873E+00  0.69643976319E+01  0.51100000000E-03 0. -1.
        -11    1    4    4    0    0 -0.33513943054E+02  0.12992893192E+02  0.87337329893E+01  0.36990238506E+02  0.51100000000E-03 0.  1.
         12    1    4    4    0    0  0.45198595101E+01  0.91506949731E+01 -0.20627093319E+01  0.10412450157E+02  0.00000000000E+00 0. -1.
</event>
<event>
 8    1  0.2458065E-006  0.9118800E+02  0.7816164E-02  0.1184000E+00
        -11   -1    0    0    0    0  0.00000000000E+00  0.00000000000E+00  0.45593999997E+02  0.45594000000E+02  0.51100000000E-03 0.  1.
         11   -1    0    0    0    0 -0.00000000000E+00 -0.00000000000E+00 -0.45593999997E+02  0.45594000000E+02  0.51100000000E-03 0. -1.
         23    2    1    2    0    0  0.00000000000E+00  0.00000000000E+00  0.00000000000E+00  0.91188000000E+02  0.91188000000E+02 0.  0.
    9900012    2    3    3    0    0 -0.26662291134E+02  0.10555841758E+02  0.23097123753E+02  0.54367072670E+02  0.39999973766E+02 0.  0.
         12    1    3    3    0    0  0.26662291134E+02 -0.10555841758E+02 -0.23097123753E+02  0.36820927330E+02  0.00000000000E+00 0. -1.
         11    1    4    4    0    0 -0.13854642219E+02  0.40747480030E+01  0.25100878568E+02  0.28958742850E+02  0.51100000000E-03 0. -1.
        -11    1    4    4    0    0 -0.55260859201E+01  0.10987894304E+02  0.60019255169E+01  0.13685560164E+02  0.51100000000E-03 0.  1.
         12    1    4    4    0    0 -0.72815629953E+01 -0.45068005491E+01 -0.80056803314E+01  0.11722769656E+02  0.00000000000E+00 0. -1.
</event>
<event>
 8    1  0.2458065E-006  0.9118800E+02  0.7816164E-02  0.1184000E+00
        -11   -1    0    0    0    0  0.00000000000E+00  0.00000000000E+00  0.45593999997E+02  0.45594000000E+02  0.51100000000E-03 0.  1.
         11   -1    0    0    0    0 -0.00000000000E+00 -0.00000000000E+00 -0.45593999997E+02  0.45594000000E+02  0.51100000000E-03 0. -1.
         23    2    1    2    0    0 -0.35527136788E-14 -0.35527136788E-14 -0.17763568394E-14  0.91188000000E+02  0.91188000000E+02 0.  0.
    9900012    2    3    3    0    0  0.28575122058E+02 -0.17390846109E+02 -0.15388345381E+02  0.54367077923E+02  0.39999985741E+02 0.  0.
        -12    1    3    3    0    0 -0.28575122058E+02  0.17390846109E+02  0.15388345381E+02  0.36820922077E+02  0.00000000000E+00 0.  1.
         11    1    4    4    0    0  0.19457103638E+02 -0.18294841276E+02 -0.23400299701E+02  0.35508507793E+02  0.51100000000E-03 0. -1.
        -11    1    4    4    0    0  0.29513360450E+01  0.53022815922E+01 -0.19228129245E+01  0.63656723398E+01  0.51100000000E-03 0.  1.
        -12    1    4    4    0    0  0.61666823752E+01 -0.43982864251E+01  0.99347672449E+01  0.12492897791E+02  0.00000000000E+00 0.  1.
</event>
<event>
 8    1  0.2458065E-006  0.9118800E+02  0.7816164E-02  0.1184000E+00
        -11   -1    0    0    0    0  0.00000000000E+00  0.00000000000E+00  0.45593999997E+02  0.45594000000E+02  0.51100000000E-03 0. -1.
         11   -1    0    0    0    0 -0.00000000000E+00 -0.00000000000E+00 -0.45593999997E+02  0.45594000000E+02  0.51100000000E-03 0.  1.
         23    2    1    2    0    0  0.00000000000E+00  0.16653345369E-14  0.00000000000E+00  0.91188000000E+02  0.91188000000E+02 0.  0.
    9900012    2    3    3    0    0  0.35203564730E+02 -0.84839955708E+00 -0.10759616611E+02  0.54367080659E+02  0.39999991978E+02 0.  0.
         12    1    3    3    0    0 -0.35203564730E+02  0.84839955708E+00  0.10759616611E+02  0.36820919341E+02  0.00000000000E+00 0. -1.
         11    1    4    4    0    0  0.11820696966E+02  0.90868221599E+01  0.39687405353E+01  0.15428872785E+02  0.51100000000E-03 0. -1.
        -11    1    4    4    0    0  0.96744529567E+01 -0.42751420798E+01 -0.20464817213E+02  0.23036506325E+02  0.51100000000E-03 0.  1.
        -12    1    4    4    0    0  0.13708414808E+02 -0.56600796372E+01  0.57364600676E+01  0.15901701549E+02  0.00000000000E+00 0.  1.
</event>
<event>
 8    1  0.2458065E-006  0.9118800E+02  0.7816164E-02  0.1184000E+00
        -11   -1    0    0    0    0  0.00000000000E+00  0.00000000000E+00  0.45593999997E+02  0.45594000000E+02  0.51100000000E-03 0.  1.
         11   -1    0    0    0    0 -0.00000000000E+00 -0.00000000000E+00 -0.45593999997E+02  0.45594000000E+02  0.51100000000E-03 0. -1.
         23    2    1    2    0    0  0.00000000000E+00 -0.22204460493E-15  0.13322676296E-14  0.91188000000E+02  0.91188000000E+02 0.  0.
    9900012    2    3    3    0    0  0.36662513692E+02  0.65103132329E+00  0.33490201962E+01  0.54367086265E+02  0.40000004758E+02 0.  0.
         12    1    3    3    0    0 -0.36662513692E+02 -0.65103132329E+00 -0.33490201962E+01  0.36820913735E+02  0.00000000000E+00 0. -1.
         11    1    4    4    0    0  0.32111979945E+02 -0.96124864634E+01  0.11929712290E+02  0.35579448950E+02  0.51100000000E-03 0. -1.
        -11    1    4    4    0    0 -0.16913059337E+01  0.63695869072E+01  0.10448200792E+01  0.66726158580E+01  0.51100000000E-03 0.  1.
         12    1    4    4    0    0  0.62418396806E+01  0.38939308795E+01 -0.96255121730E+01  0.12115021456E+02  0.00000000000E+00 0. -1.
</event>
<event>
 8    1  0.2458065E-006  0.9118800E+02  0.7816164E-02  0.1184000E+00
        -11   -1    0    0    0    0  0.00000000000E+00  0.00000000000E+00  0.45593999997E+02  0.45594000000E+02  0.51100000000E-03 0. -1.
         11   -1    0    0    0    0 -0.00000000000E+00 -0.00000000000E+00 -0.45593999997E+02  0.45594000000E+02  0.51100000000E-03 0.  1.
         23    2    1    2    0    0  0.00000000000E+00  0.00000000000E+00  0.44408920985E-15  0.91188000000E+02  0.91188000000E+02 0.  0.
    9900012    2    3    3    0    0  0.16505834869E+02  0.32835888569E+02 -0.22672500626E+01  0.54367101237E+02  0.40000038891E+02 0.  0.
         12    1    3    3    0    0 -0.16505834869E+02 -0.32835888569E+02  0.22672500626E+01  0.36820898763E+02  0.00000000000E+00 0. -1.
         11    1    4    4    0    0 -0.17717749269E+01 -0.24738609498E+01  0.11724124645E+01  0.32609393797E+01  0.51100000000E-03 0. -1.
        -11    1    4    4    0    0 -0.70044054008E+01  0.13700114478E+01  0.39306986862E+01  0.81479456802E+01  0.51100000000E-03 0.  1.
        -12    1    4    4    0    0  0.25282015196E+02  0.33939738071E+02 -0.73703612134E+01  0.42958216177E+02  0.00000000000E+00 0.  1.
</event>
<event>
 8    1  0.2458065E-006  0.9118800E+02  0.7816164E-02  0.1184000E+00
        -11   -1    0    0    0    0  0.00000000000E+00  0.00000000000E+00  0.45593999997E+02  0.45594000000E+02  0.51100000000E-03 0.  1.
         11   -1    0    0    0    0 -0.00000000000E+00 -0.00000000000E+00 -0.45593999997E+02  0.45594000000E+02  0.51100000000E-03 0. -1.
         23    2    1    2    0    0  0.35527136788E-14 -0.22204460493E-14  0.00000000000E+00  0.91188000000E+02  0.91188000000E+02 0.  0.
    9900012    2    3    3    0    0  0.20730038981E+02  0.37817322177E+01  0.30195098535E+02  0.54367082165E+02  0.39999995411E+02 0.  0.
         12    1    3    3    0    0 -0.20730038981E+02 -0.37817322177E+01 -0.30195098535E+02  0.36820917835E+02  0.00000000000E+00 0. -1.
         11    1    4    4    0    0  0.17075956839E+02  0.76520166992E+01  0.87993136661E+01  0.20677755748E+02  0.51100000000E-03 0. -1.
        -11    1    4    4    0    0  0.45651153460E+01 -0.11653884690E+02  0.18770014011E+01  0.12656083163E+02  0.51100000000E-03 0.  1.
        -12    1    4    4    0    0 -0.91103320392E+00  0.77836002089E+01  0.19518783467E+02  0.21033243253E+02  0.00000000000E+00 0.  1.
</event>
<event>
 8    1  0.2458065E-006  0.9118800E+02  0.7816164E-02  0.1184000E+00
        -11   -1    0    0    0    0  0.00000000000E+00  0.00000000000E+00  0.45593999997E+02  0.45594000000E+02  0.51100000000E-03 0. -1.
         11   -1    0    0    0    0 -0.00000000000E+00 -0.00000000000E+00 -0.45593999997E+02  0.45594000000E+02  0.51100000000E-03 0.  1.
         23    2    1    2    0    0  0.00000000000E+00  0.00000000000E+00 -0.35527136788E-14  0.91188000000E+02  0.91188000000E+02 0.  0.
    9900012    2    3    3    0    0 -0.11987136701E+02  0.18455883922E+02 -0.29520651934E+02  0.54367082192E+02  0.39999995473E+02 0.  0.
         12    1    3    3    0    0  0.11987136701E+02 -0.18455883922E+02  0.29520651934E+02  0.36820917808E+02  0.00000000000E+00 0. -1.
         11    1    4    4    0    0 -0.85714961417E+01 -0.45692819915E+01  0.45707667218E+01  0.10735026442E+02  0.51100000000E-03 0. -1.
        -11    1    4    4    0    0  0.20104149178E+01  0.16480001812E+02 -0.13650071154E+02  0.21493177304E+02  0.51100000000E-03 0.  1.
         12    1    4    4    0    0 -0.54260554768E+01  0.65451641019E+01 -0.20441347502E+02  0.22138878446E+02  0.00000000000E+00 0. -1.
</event>
<event>
 8    1  0.2458065E-006  0.9118800E+02  0.7816164E-02  0.1184000E+00
        -11   -1    0    0    0    0  0.00000000000E+00  0.00000000000E+00  0.45593999997E+02  0.45594000000E+02  0.51100000000E-03 0.  1.
         11   -1    0    0    0    0 -0.00000000000E+00 -0.00000000000E+00 -0.45593999997E+02  0.45594000000E+02  0.51100000000E-03 0. -1.
         23    2    1    2    0    0 -0.71054273576E-14 -0.44408920985E-15 -0.88817841970E-15  0.91188000000E+02  0.91188000000E+02 0.  0.
    9900012    2    3    3    0    0  0.36159781029E+02 -0.36869294110E+01 -0.58869369108E+01  0.54367092370E+02  0.40000018675E+02 0.  0.
         12    1    3    3    0    0 -0.36159781029E+02  0.36869294110E+01  0.58869369108E+01  0.36820907630E+02  0.00000000000E+00 0. -1.
         11    1    4    4    0    0  0.25555290829E+00 -0.20072005657E+01  0.11534494663E+02  0.11710624612E+02  0.51100000000E-03 0. -1.
        -11    1    4    4    0    0  0.22126065856E+01  0.38949298438E+01 -0.38578180978E+01  0.59117566871E+01  0.51100000000E-03 0.  1.
        -12    1    4    4    0    0  0.33691621535E+02 -0.55746586890E+01 -0.13563613476E+02  0.36744711071E+02  0.00000000000E+00 0.  1.
</event>
<event>
 8    1  0.2458065E-006  0.9118800E+02  0.7816164E-02  0.1184000E+00
        -11   -1    0    0    0    0  0.00000000000E+00  0.00000000000E+00  0.45593999997E+02  0.45594000000E+02  0.51100000000E-03 0.  1.
         11   -1    0    0    0    0 -0.00000000000E+00 -0.00000000000E+00 -0.45593999997E+02  0.45594000000E+02  0.51100000000E-03 0. -1.
         23    2    1    2    0    0  0.00000000000E+00  0.00000000000E+00 -0.71054273576E-14  0.91188000000E+02  0.91188000000E+02 0.  0.
    9900012    2    3    3    0    0  0.97941020230E+01  0.84297448635E+01  0.34478848999E+02  0.54367135518E+02  0.40000117040E+02 0.  0.
         12    1    3    3    0    0 -0.97941020230E+01 -0.84297448635E+01 -0.34478848999E+02  0.36820864482E+02  0.00000000000E+00 0. -1.
         11    1    4    4    0    0  0.53109323865E+01 -0.13550022696E+02  0.15020941042E+02  0.20915013458E+02  0.51100000000E-03 0.  1.
        -11    1    4    4    0    0  0.37033717722E+01  0.58057845408E+01 -0.14194192073E+01  0.70311341734E+01  0.51100000000E-03 0. -1.
        -12    1    4    4    0    0  0.77979786416E+00  0.16173983019E+02  0.20877327164E+02  0.26420987887E+02  0.00000000000E+00 0.  1.
</event>
<event>
 8    1  0.2458065E-006  0.9118800E+02  0.7816164E-02  0.1184000E+00
        -11   -1    0    0    0    0  0.00000000000E+00  0.00000000000E+00  0.45593999997E+02  0.45594000000E+02  0.51100000000E-03 0. -1.
         11   -1    0    0    0    0 -0.00000000000E+00 -0.00000000000E+00 -0.45593999997E+02  0.45594000000E+02  0.51100000000E-03 0.  1.
         23    2    1    2    0    0  0.00000000000E+00  0.00000000000E+00  0.00000000000E+00  0.91188000000E+02  0.91188000000E+02 0.  0.
    9900012    2    3    3    0    0 -0.25840919259E+02  0.21279628380E+02 -0.15336360256E+02  0.54367086947E+02  0.40000006313E+02 0.  0.
         12    1    3    3    0    0  0.25840919259E+02 -0.21279628380E+02  0.15336360256E+02  0.36820913053E+02  0.00000000000E+00 0. -1.
         11    1    4    4    0    0 -0.15262798142E+01 -0.24217170150E+01  0.38227128359E+01  0.47757069695E+01  0.51100000000E-03 0. -1.
        -11    1    4    4    0    0 -0.27742815684E+02  0.20148108728E+02 -0.24633962196E+02  0.42218979158E+02  0.51100000000E-03 0.  1.
        -12    1    4    4    0    0  0.34281762391E+01  0.35532366668E+01  0.54748891043E+01  0.73724008194E+01  0.00000000000E+00 0.  1.
</event>
<event>
 8    1  0.2458065E-006  0.9118800E+02  0.7816164E-02  0.1184000E+00
        -11   -1    0    0    0    0  0.00000000000E+00  0.00000000000E+00  0.45593999997E+02  0.45594000000E+02  0.51100000000E-03 0. -1.
         11   -1    0    0    0    0 -0.00000000000E+00 -0.00000000000E+00 -0.45593999997E+02  0.45594000000E+02  0.51100000000E-03 0.  1.
         23    2    1    2    0    0 -0.35527136788E-14  0.88817841970E-15 -0.35527136788E-14  0.91188000000E+02  0.91188000000E+02 0.  0.
    9900012    2    3    3    0    0 -0.24394325281E+02 -0.68465382294E+01 -0.26717449347E+02  0.54367078077E+02  0.39999986092E+02 0.  0.
         12    1    3    3    0    0  0.24394325281E+02  0.68465382294E+01  0.26717449347E+02  0.36820921923E+02  0.00000000000E+00 0. -1.
         11    1    4    4    0    0  0.16388681456E+01 -0.33621944604E+01  0.14548770732E+01  0.40133412448E+01  0.51100000000E-03 0. -1.
        -11    1    4    4    0    0  0.14728760321E+01  0.16584673309E+01 -0.21463807609E+02  0.21578111943E+02  0.51100000000E-03 0.  1.
        -12    1    4    4    0    0 -0.27506069459E+02 -0.51428110999E+01 -0.67085188115E+01  0.28775624889E+02  0.00000000000E+00 0.  1.
</event>
<event>
 8    1  0.2458065E-006  0.9118800E+02  0.7816164E-02  0.1184000E+00
        -11   -1    0    0    0    0  0.00000000000E+00  0.00000000000E+00  0.45593999997E+02  0.45594000000E+02  0.51100000000E-03 0. -1.
         11   -1    0    0    0    0 -0.00000000000E+00 -0.00000000000E+00 -0.45593999997E+02  0.45594000000E+02  0.51100000000E-03 0.  1.
         23    2    1    2    0    0  0.35527136788E-14  0.00000000000E+00  0.00000000000E+00  0.91188000000E+02  0.91188000000E+02 0.  0.
    9900012    2    3    3    0    0 -0.19188756563E+02 -0.19070881400E+02 -0.24977440016E+02  0.54367090104E+02  0.40000013510E+02 0.  0.
         12    1    3    3    0    0  0.19188756563E+02  0.19070881400E+02  0.24977440016E+02  0.36820909896E+02  0.00000000000E+00 0. -1.
         11    1    4    4    0    0 -0.74286455642E+01 -0.11125779468E+02 -0.27076467350E+01  0.13649142640E+02  0.51100000000E-03 0. -1.
        -11    1    4    4    0    0  0.62777969488E+01 -0.89973750483E+01 -0.19588422639E+02  0.22451498703E+02  0.51100000000E-03 0.  1.
        -12    1    4    4    0    0 -0.18037907947E+02  0.10522731168E+01 -0.26813706426E+01  0.18266448761E+02  0.00000000000E+00 0.  1.
</event>
<event>
 8    1  0.2458065E-006  0.9118800E+02  0.7816164E-02  0.1184000E+00
        -11   -1    0    0    0    0  0.00000000000E+00  0.00000000000E+00  0.45593999997E+02  0.45594000000E+02  0.51100000000E-03 0.  1.
         11   -1    0    0    0    0 -0.00000000000E+00 -0.00000000000E+00 -0.45593999997E+02  0.45594000000E+02  0.51100000000E-03 0. -1.
         23    2    1    2    0    0  0.35527136788E-14 -0.22204460493E-15  0.35527136788E-14  0.91188000000E+02  0.91188000000E+02 0.  0.
    9900012    2    3    3    0    0  0.22324643892E+02  0.96148286013E+00  0.29265429332E+02  0.54367088439E+02  0.40000009714E+02 0.  0.
         12    1    3    3    0    0 -0.22324643892E+02 -0.96148286013E+00 -0.29265429332E+02  0.36820911561E+02  0.00000000000E+00 0. -1.
         11    1    4    4    0    0  0.49835000749E+00 -0.36144435403E+01  0.68052069859E+01  0.77216188211E+01  0.51100000000E-03 0. -1.
        -11    1    4    4    0    0  0.41405435949E+01  0.49573882154E+01  0.27502680550E+02  0.28250968778E+02  0.51100000000E-03 0.  1.
         12    1    4    4    0    0  0.17685750290E+02 -0.38146181495E+00 -0.50424582033E+01  0.18394500840E+02  0.00000000000E+00 0. -1.
</event>
<event>
 8    1  0.2458065E-006  0.9118800E+02  0.7816164E-02  0.1184000E+00
        -11   -1    0    0    0    0  0.00000000000E+00  0.00000000000E+00  0.45593999997E+02  0.45594000000E+02  0.51100000000E-03 0.  1.
         11   -1    0    0    0    0 -0.00000000000E+00 -0.00000000000E+00 -0.45593999997E+02  0.45594000000E+02  0.51100000000E-03 0. -1.
         23    2    1    2    0    0  0.35527136788E-14 -0.35527136788E-14  0.00000000000E+00  0.91188000000E+02  0.91188000000E+02 0.  0.
    9900012    2    3    3    0    0  0.31166324446E+02 -0.14506662667E+02 -0.13190731353E+02  0.54367103286E+02  0.40000043562E+02 0.  0.
        -12    1    3    3    0    0 -0.31166324446E+02  0.14506662667E+02  0.13190731353E+02  0.36820896714E+02  0.00000000000E+00 0.  1.
         11    1    4    4    0    0  0.76211147907E+01  0.12516422339E+02  0.79128559630E+00  0.14675433622E+02  0.51100000000E-03 0. -1.
        -11    1    4    4    0    0  0.13871176278E+02 -0.21480867900E+02 -0.69052148522E+01  0.26486207911E+02  0.51100000000E-03 0.  1.
         12    1    4    4    0    0  0.96740333766E+01 -0.55422171060E+01 -0.70768020966E+01  0.13205461754E+02  0.00000000000E+00 0. -1.
</event>
<event>
 8    1  0.2458065E-006  0.9118800E+02  0.7816164E-02  0.1184000E+00
        -11   -1    0    0    0    0  0.00000000000E+00  0.00000000000E+00  0.45593999997E+02  0.45594000000E+02  0.51100000000E-03 0. -1.
         11   -1    0    0    0    0 -0.00000000000E+00 -0.00000000000E+00 -0.45593999997E+02  0.45594000000E+02  0.51100000000E-03 0.  1.
         23    2    1    2    0    0 -0.17763568394E-14 -0.17763568394E-14 -0.71054273576E-14  0.91188000000E+02  0.91188000000E+02 0.  0.
    9900012    2    3    3    0    0  0.12705754165E+02  0.39427050501E+01  0.34333620331E+02  0.54367101083E+02  0.40000038539E+02 0.  0.
        -12    1    3    3    0    0 -0.12705754165E+02 -0.39427050501E+01 -0.34333620331E+02  0.36820898917E+02  0.00000000000E+00 0.  1.
         11    1    4    4    0    0  0.13346768805E+02  0.65960775493E+01  0.10166122374E+02  0.18027604415E+02  0.51100000000E-03 0. -1.
        -11    1    4    4    0    0  0.55033420469E+01 -0.83848561540E+01 -0.73610864868E+00  0.10056562167E+02  0.51100000000E-03 0.  1.
        -12    1    4    4    0    0 -0.61443566874E+01  0.57314836548E+01  0.24903606606E+02  0.26282934501E+02  0.00000000000E+00 0.  1.
</event>
<event>
 8    1  0.2458065E-006  0.9118800E+02  0.7816164E-02  0.1184000E+00
        -11   -1    0    0    0    0  0.00000000000E+00  0.00000000000E+00  0.45593999997E+02  0.45594000000E+02  0.51100000000E-03 0.  1.
         11   -1    0    0    0    0 -0.00000000000E+00 -0.00000000000E+00 -0.45593999997E+02  0.45594000000E+02  0.51100000000E-03 0. -1.
         23    2    1    2    0    0  0.00000000000E+00  0.35527136788E-14  0.35527136788E-14  0.91188000000E+02  0.91188000000E+02 0.  0.
    9900012    2    3    3    0    0 -0.12507813225E+02  0.25188393479E+02 -0.23767180227E+02  0.54367089994E+02  0.40000013258E+02 0.  0.
        -12    1    3    3    0    0  0.12507813225E+02 -0.25188393479E+02  0.23767180227E+02  0.36820910006E+02  0.00000000000E+00 0.  1.
         11    1    4    4    0    0 -0.74663546517E+01  0.13820344254E+02  0.44594367795E+01  0.16328960277E+02  0.51100000000E-03 0. -1.
        -11    1    4    4    0    0 -0.64342984897E+01 -0.38832121619E+01 -0.21839465377E+01  0.78261840311E+01  0.51100000000E-03 0.  1.
        -12    1    4    4    0    0  0.13928399160E+01  0.15251261388E+02 -0.26042670469E+02  0.30211945686E+02  0.00000000000E+00 0.  1.
</event>
<event>
 8    1  0.2458065E-006  0.9118800E+02  0.7816164E-02  0.1184000E+00
        -11   -1    0    0    0    0  0.00000000000E+00  0.00000000000E+00  0.45593999997E+02  0.45594000000E+02  0.51100000000E-03 0. -1.
         11   -1    0    0    0    0 -0.00000000000E+00 -0.00000000000E+00 -0.45593999997E+02  0.45594000000E+02  0.51100000000E-03 0.  1.
         23    2    1    2    0    0  0.00000000000E+00  0.00000000000E+00 -0.44408920985E-15  0.91188000000E+02  0.91188000000E+02 0.  0.
    9900012    2    3    3    0    0 -0.31369412286E+02 -0.19091985875E+02 -0.26898561484E+01  0.54367091837E+02  0.40000017462E+02 0.  0.
        -12    1    3    3    0    0  0.31369412286E+02  0.19091985875E+02  0.26898561484E+01  0.36820908163E+02  0.00000000000E+00 0.  1.
         11    1    4    4    0    0  0.10766108630E+01  0.24333189138E+01 -0.65475255222E+01  0.70675471425E+01  0.51100000000E-03 0.  1.
        -11    1    4    4    0    0 -0.30540738844E+02 -0.16283900525E+02  0.12681654688E+02  0.36860907631E+02  0.51100000000E-03 0. -1.
        -12    1    4    4    0    0 -0.19052843047E+01 -0.52414042638E+01 -0.88239853139E+01  0.10438637064E+02  0.00000000000E+00 0.  1.
</event>
<event>
 8    1  0.2458065E-006  0.9118800E+02  0.7816164E-02  0.1184000E+00
        -11   -1    0    0    0    0  0.00000000000E+00  0.00000000000E+00  0.45593999997E+02  0.45594000000E+02  0.51100000000E-03 0.  1.
         11   -1    0    0    0    0 -0.00000000000E+00 -0.00000000000E+00 -0.45593999997E+02  0.45594000000E+02  0.51100000000E-03 0. -1.
         23    2    1    2    0    0  0.00000000000E+00  0.00000000000E+00  0.00000000000E+00  0.91188000000E+02  0.91188000000E+02 0.  0.
    9900012    2    3    3    0    0 -0.26411904583E+02  0.23368217011E+02 -0.10588469736E+02  0.54367109716E+02  0.40000058220E+02 0.  0.
        -12    1    3    3    0    0  0.26411904583E+02 -0.23368217011E+02  0.10588469736E+02  0.36820890284E+02  0.00000000000E+00 0.  1.
         11    1    4    4    0    0  0.19666394528E+01  0.10619626787E+02 -0.12104177842E+02  0.16222061069E+02  0.51100000000E-03 0. -1.
        -11    1    4    4    0    0 -0.90462977895E+01  0.16066850634E+02  0.18164794983E+01  0.18527784299E+02  0.51100000000E-03 0.  1.
        -12    1    4    4    0    0 -0.19332246246E+02 -0.33182604107E+01 -0.30077139170E+00  0.19617264348E+02  0.00000000000E+00 0.  1.
</event>
<event>
 8    1  0.2458065E-006  0.9118800E+02  0.7816164E-02  0.1184000E+00
        -11   -1    0    0    0    0  0.00000000000E+00  0.00000000000E+00  0.45593999997E+02  0.45594000000E+02  0.51100000000E-03 0.  1.
         11   -1    0    0    0    0 -0.00000000000E+00 -0.00000000000E+00 -0.45593999997E+02  0.45594000000E+02  0.51100000000E-03 0. -1.
         23    2    1    2    0    0  0.17763568394E-14  0.71054273576E-14  0.00000000000E+00  0.91188000000E+02  0.91188000000E+02 0.  0.
    9900012    2    3    3    0    0 -0.15504538890E+02 -0.28998245925E+02  0.16567778493E+02  0.54367078270E+02  0.39999986531E+02 0.  0.
        -12    1    3    3    0    0  0.15504538890E+02  0.28998245925E+02 -0.16567778493E+02  0.36820921730E+02  0.00000000000E+00 0.  1.
         11    1    4    4    0    0  0.11586557577E+02 -0.14305238742E+02  0.54030046492E+01  0.19185427581E+02  0.51100000000E-03 0. -1.
        -11    1    4    4    0    0 -0.11613464729E+02 -0.43908302862E+01  0.11000646741E+02  0.16588133788E+02  0.51100000000E-03 0.  1.
         12    1    4    4    0    0 -0.15477631738E+02 -0.10302176897E+02  0.16412710268E+00  0.18593516901E+02  0.00000000000E+00 0. -1.
</event>
<event>
 8    1  0.2458065E-006  0.9118800E+02  0.7816164E-02  0.1184000E+00
        -11   -1    0    0    0    0  0.00000000000E+00  0.00000000000E+00  0.45593999997E+02  0.45594000000E+02  0.51100000000E-03 0.  1.
         11   -1    0    0    0    0 -0.00000000000E+00 -0.00000000000E+00 -0.45593999997E+02  0.45594000000E+02  0.51100000000E-03 0. -1.
         23    2    1    2    0    0  0.00000000000E+00  0.88817841970E-15 -0.88817841970E-15  0.91188000000E+02  0.91188000000E+02 0.  0.
    9900012    2    3    3    0    0 -0.35735507431E+02  0.79085346911E+01 -0.40280648141E+01  0.54366855009E+02  0.39999477561E+02 0.  0.
        -12    1    3    3    0    0  0.35735507431E+02 -0.79085346911E+01  0.40280648141E+01  0.36821144991E+02  0.00000000000E+00 0.  1.
         11    1    4    4    0    0 -0.89447772109E+01  0.10985286545E+02 -0.68577038694E+01  0.15738921896E+02  0.51100000000E-03 0. -1.
        -11    1    4    4    0    0  0.71124133521E+00  0.62280783763E+01 -0.55893125708E+01  0.83985260477E+01  0.51100000000E-03 0.  1.
         12    1    4    4    0    0 -0.27501971555E+02 -0.93048302303E+01  0.84189516261E+01  0.30229407065E+02  0.00000000000E+00 0. -1.
</event>
<event>
 8    1  0.2458065E-006  0.9118800E+02  0.7816164E-02  0.1184000E+00
        -11   -1    0    0    0    0  0.00000000000E+00  0.00000000000E+00  0.45593999997E+02  0.45594000000E+02  0.51100000000E-03 0. -1.
         11   -1    0    0    0    0 -0.00000000000E+00 -0.00000000000E+00 -0.45593999997E+02  0.45594000000E+02  0.51100000000E-03 0.  1.
         23    2    1    2    0    0  0.88817841970E-15  0.71054273576E-14  0.00000000000E+00  0.91188000000E+02  0.91188000000E+02 0.  0.
    9900012    2    3    3    0    0 -0.61514311847E+01 -0.16127958629E+02 -0.32524340743E+02  0.54367029129E+02  0.39999874505E+02 0.  0.
         12    1    3    3    0    0  0.61514311847E+01  0.16127958629E+02  0.32524340743E+02  0.36820970871E+02  0.00000000000E+00 0. -1.
         11    1    4    4    0    0 -0.30177608666E+01 -0.33081279012E+01  0.12000060853E+01  0.46357961263E+01  0.51100000000E-03 0. -1.
        -11    1    4    4    0    0 -0.80925650784E+01  0.70708215715E+01 -0.25448082025E+02  0.27624101908E+02  0.51100000000E-03 0.  1.
        -12    1    4    4    0    0  0.49588947602E+01 -0.19890652299E+02 -0.82762648032E+01  0.22107131094E+02  0.00000000000E+00 0.  1.
</event>
<event>
 8    1  0.2458065E-006  0.9118800E+02  0.7816164E-02  0.1184000E+00
        -11   -1    0    0    0    0  0.00000000000E+00  0.00000000000E+00  0.45593999997E+02  0.45594000000E+02  0.51100000000E-03 0.  1.
         11   -1    0    0    0    0 -0.00000000000E+00 -0.00000000000E+00 -0.45593999997E+02  0.45594000000E+02  0.51100000000E-03 0. -1.
         23    2    1    2    0    0 -0.17763568394E-14  0.00000000000E+00 -0.35527136788E-14  0.91188000000E+02  0.91188000000E+02 0.  0.
    9900012    2    3    3    0    0 -0.15080426503E+02 -0.22716107848E+02  0.24745475381E+02  0.54367090572E+02  0.40000014577E+02 0.  0.
         12    1    3    3    0    0  0.15080426503E+02  0.22716107848E+02 -0.24745475381E+02  0.36820909428E+02  0.00000000000E+00 0. -1.
         11    1    4    4    0    0  0.31252487033E+01  0.21064062308E+01 -0.18664697693E+01  0.42056909453E+01  0.51100000000E-03 0. -1.
        -11    1    4    4    0    0 -0.22244086238E+02 -0.27277544215E+02  0.16239897224E+02  0.38763359672E+02  0.51100000000E-03 0.  1.
        -12    1    4    4    0    0  0.40384110308E+01  0.24550301369E+01  0.10372047926E+02  0.11398039955E+02  0.00000000000E+00 0.  1.
</event>
<event>
 8    1  0.2458065E-006  0.9118800E+02  0.7816164E-02  0.1184000E+00
        -11   -1    0    0    0    0  0.00000000000E+00  0.00000000000E+00  0.45593999997E+02  0.45594000000E+02  0.51100000000E-03 0. -1.
         11   -1    0    0    0    0 -0.00000000000E+00 -0.00000000000E+00 -0.45593999997E+02  0.45594000000E+02  0.51100000000E-03 0.  1.
         23    2    1    2    0    0  0.17763568394E-14 -0.35527136788E-14  0.00000000000E+00  0.91188000000E+02  0.91188000000E+02 0.  0.
    9900012    2    3    3    0    0 -0.33599656627E+01  0.30550876583E+02 -0.20276453267E+02  0.54367082218E+02  0.39999995533E+02 0.  0.
         12    1    3    3    0    0  0.33599656627E+01 -0.30550876583E+02  0.20276453267E+02  0.36820917782E+02  0.00000000000E+00 0. -1.
         11    1    4    4    0    0  0.13456876194E+02  0.23047883867E+02 -0.14847529756E+02  0.30540818714E+02  0.51100000000E-03 0. -1.
        -11    1    4    4    0    0 -0.94214645377E+01  0.10885201498E+02 -0.68700817366E+00  0.14412618991E+02  0.51100000000E-03 0.  1.
         12    1    4    4    0    0 -0.73953773191E+01 -0.33822087824E+01 -0.47419153374E+01  0.94136445125E+01  0.00000000000E+00 0. -1.
</event>
<event>
 8    1  0.2458065E-006  0.9118800E+02  0.7816164E-02  0.1184000E+00
        -11   -1    0    0    0    0  0.00000000000E+00  0.00000000000E+00  0.45593999997E+02  0.45594000000E+02  0.51100000000E-03 0. -1.
         11   -1    0    0    0    0 -0.00000000000E+00 -0.00000000000E+00 -0.45593999997E+02  0.45594000000E+02  0.51100000000E-03 0.  1.
         23    2    1    2    0    0  0.88817841970E-15 -0.35527136788E-14  0.35527136788E-14  0.91188000000E+02  0.91188000000E+02 0.  0.
    9900012    2    3    3    0    0 -0.70591931927E+01  0.30865756658E+02  0.18795007984E+02  0.54367089260E+02  0.40000011585E+02 0.  0.
        -12    1    3    3    0    0  0.70591931927E+01 -0.30865756658E+02 -0.18795007984E+02  0.36820910740E+02  0.00000000000E+00 0.  1.
         11    1    4    4    0    0  0.52362600576E+01  0.84277079680E+01  0.82740632857E+01  0.12919164234E+02  0.51100000000E-03 0. -1.
        -11    1    4    4    0    0 -0.99022852934E+01  0.20106296338E+02 -0.71021875662E+01  0.23510837394E+02  0.51100000000E-03 0.  1.
         12    1    4    4    0    0 -0.23931679569E+01  0.23317523523E+01  0.17623132264E+02  0.17937087632E+02  0.00000000000E+00 0. -1.
</event>
<event>
 8    1  0.2458065E-006  0.9118800E+02  0.7816164E-02  0.1184000E+00
        -11   -1    0    0    0    0  0.00000000000E+00  0.00000000000E+00  0.45593999997E+02  0.45594000000E+02  0.51100000000E-03 0. -1.
         11   -1    0    0    0    0 -0.00000000000E+00 -0.00000000000E+00 -0.45593999997E+02  0.45594000000E+02  0.51100000000E-03 0.  1.
         23    2    1    2    0    0  0.00000000000E+00  0.00000000000E+00  0.00000000000E+00  0.91188000000E+02  0.91188000000E+02 0.  0.
    9900012    2    3    3    0    0 -0.77134037735E+01  0.28262633943E+02  0.22304862543E+02  0.54367082463E+02  0.39999996091E+02 0.  0.
        -12    1    3    3    0    0  0.77134037735E+01 -0.28262633943E+02 -0.22304862543E+02  0.36820917537E+02  0.00000000000E+00 0.  1.
         11    1    4    4    0    0  0.11673779745E+02  0.70858590202E+01  0.85282187897E+01  0.16100218868E+02  0.51100000000E-03 0. -1.
        -11    1    4    4    0    0 -0.24039379883E+02  0.18367443998E+02  0.12048065130E+02  0.32563947209E+02  0.51100000000E-03 0.  1.
        -12    1    4    4    0    0  0.46521963642E+01  0.28093309252E+01  0.17285786231E+01  0.57029163867E+01  0.00000000000E+00 0.  1.
</event>
<event>
 8    1  0.2458065E-006  0.9118800E+02  0.7816164E-02  0.1184000E+00
        -11   -1    0    0    0    0  0.00000000000E+00  0.00000000000E+00  0.45593999997E+02  0.45594000000E+02  0.51100000000E-03 0.  1.
         11   -1    0    0    0    0 -0.00000000000E+00 -0.00000000000E+00 -0.45593999997E+02  0.45594000000E+02  0.51100000000E-03 0. -1.
         23    2    1    2    0    0  0.00000000000E+00  0.44408920985E-15  0.00000000000E+00  0.91188000000E+02  0.91188000000E+02 0.  0.
    9900012    2    3    3    0    0  0.34722888492E+02  0.33851649834E+01  0.11774746850E+02  0.54367041423E+02  0.39999902531E+02 0.  0.
         12    1    3    3    0    0 -0.34722888492E+02 -0.33851649834E+01 -0.11774746850E+02  0.36820958577E+02  0.00000000000E+00 0. -1.
         11    1    4    4    0    0  0.33177730930E+02 -0.24658694739E+01  0.10841138277E+01  0.33286899000E+02  0.51100000000E-03 0. -1.
        -11    1    4    4    0    0 -0.69183075656E+01  0.58964286202E+01  0.28071017363E+01  0.95137096058E+01  0.51100000000E-03 0.  1.
        -12    1    4    4    0    0  0.84634651269E+01 -0.45394162775E-01  0.78835312856E+01  0.11566432817E+02  0.00000000000E+00 0.  1.
</event>
<event>
 8    1  0.2458065E-006  0.9118800E+02  0.7816164E-02  0.1184000E+00
        -11   -1    0    0    0    0  0.00000000000E+00  0.00000000000E+00  0.45593999997E+02  0.45594000000E+02  0.51100000000E-03 0.  1.
         11   -1    0    0    0    0 -0.00000000000E+00 -0.00000000000E+00 -0.45593999997E+02  0.45594000000E+02  0.51100000000E-03 0. -1.
         23    2    1    2    0    0 -0.44408920985E-15  0.00000000000E+00 -0.17763568394E-14  0.91188000000E+02  0.91188000000E+02 0.  0.
    9900012    2    3    3    0    0  0.22461481828E+01 -0.33831359757E+02  0.14358720547E+02  0.54367096420E+02  0.40000027909E+02 0.  0.
         12    1    3    3    0    0 -0.22461481828E+01  0.33831359757E+02 -0.14358720547E+02  0.36820903580E+02  0.00000000000E+00 0. -1.
         11    1    4    4    0    0  0.18103110651E+01  0.35061980937E+01  0.14995501759E+01  0.42212915341E+01  0.51100000000E-03 0. -1.
        -11    1    4    4    0    0  0.13265663675E+02 -0.84634714035E+01  0.94772403370E+01  0.18369166165E+02  0.51100000000E-03 0.  1.
         12    1    4    4    0    0 -0.12829826557E+02 -0.28874086447E+02  0.33819300343E+01  0.31776638721E+02  0.00000000000E+00 0. -1.
</event>
<event>
 8    1  0.2458065E-006  0.9118800E+02  0.7816164E-02  0.1184000E+00
        -11   -1    0    0    0    0  0.00000000000E+00  0.00000000000E+00  0.45593999997E+02  0.45594000000E+02  0.51100000000E-03 0. -1.
         11   -1    0    0    0    0 -0.00000000000E+00 -0.00000000000E+00 -0.45593999997E+02  0.45594000000E+02  0.51100000000E-03 0.  1.
         23    2    1    2    0    0  0.00000000000E+00 -0.35527136788E-14 -0.35527136788E-14  0.91188000000E+02  0.91188000000E+02 0.  0.
    9900012    2    3    3    0    0 -0.18641162473E+02  0.25851589134E+02  0.18438611034E+02  0.54367082358E+02  0.39999995852E+02 0.  0.
        -12    1    3    3    0    0  0.18641162473E+02 -0.25851589134E+02 -0.18438611034E+02  0.36820917642E+02  0.00000000000E+00 0.  1.
         11    1    4    4    0    0  0.59905223315E+01  0.69318032995E+01 -0.60306654722E+01  0.10968371852E+02  0.51100000000E-03 0. -1.
        -11    1    4    4    0    0 -0.26830480920E+02  0.13649286236E+02  0.19912286787E+02  0.36092615401E+02  0.51100000000E-03 0.  1.
         12    1    4    4    0    0  0.21987961157E+01  0.52704995987E+01  0.45569897196E+01  0.73060951050E+01  0.00000000000E+00 0. -1.
</event>
<event>
 8    1  0.2458065E-006  0.9118800E+02  0.7816164E-02  0.1184000E+00
        -11   -1    0    0    0    0  0.00000000000E+00  0.00000000000E+00  0.45593999997E+02  0.45594000000E+02  0.51100000000E-03 0.  1.
         11   -1    0    0    0    0 -0.00000000000E+00 -0.00000000000E+00 -0.45593999997E+02  0.45594000000E+02  0.51100000000E-03 0. -1.
         23    2    1    2    0    0  0.00000000000E+00  0.00000000000E+00  0.00000000000E+00  0.91188000000E+02  0.91188000000E+02 0.  0.
    9900012    2    3    3    0    0  0.27844485253E+02 -0.41393887212E+01 -0.23734576008E+02  0.54367082083E+02  0.39999995225E+02 0.  0.
        -12    1    3    3    0    0 -0.27844485253E+02  0.41393887212E+01  0.23734576008E+02  0.36820917917E+02  0.00000000000E+00 0.  1.
         11    1    4    4    0    0  0.10313526013E+02 -0.78571556384E+01 -0.22881534527E+02  0.26299588136E+02  0.51100000000E-03 0. -1.
        -11    1    4    4    0    0  0.16740395783E+02 -0.34245909649E+01 -0.71406141718E+01  0.18519099472E+02  0.51100000000E-03 0.  1.
        -12    1    4    4    0    0  0.79056345684E+00  0.71423578821E+01  0.62875726917E+01  0.95483944749E+01  0.00000000000E+00 0.  1.
</event>
<event>
 8    1  0.2458065E-006  0.9118800E+02  0.7816164E-02  0.1184000E+00
        -11   -1    0    0    0    0  0.00000000000E+00  0.00000000000E+00  0.45593999997E+02  0.45594000000E+02  0.51100000000E-03 0. -1.
         11   -1    0    0    0    0 -0.00000000000E+00 -0.00000000000E+00 -0.45593999997E+02  0.45594000000E+02  0.51100000000E-03 0.  1.
         23    2    1    2    0    0  0.00000000000E+00 -0.71054273576E-14  0.88817841970E-15  0.91188000000E+02  0.91188000000E+02 0.  0.
    9900012    2    3    3    0    0 -0.89698994041E+01  0.35411493321E+02 -0.46202231060E+01  0.54367089961E+02  0.40000013184E+02 0.  0.
         12    1    3    3    0    0  0.89698994041E+01 -0.35411493321E+02  0.46202231060E+01  0.36820910039E+02  0.00000000000E+00 0. -1.
         11    1    4    4    0    0 -0.50475986310E+01  0.36257994744E+02 -0.71174142847E+01  0.37293136382E+02  0.51100000000E-03 0.  1.
        -11    1    4    4    0    0 -0.16381522326E+01  0.18772646597E+01  0.91759029896E+01  0.95081471001E+01  0.51100000000E-03 0. -1.
        -12    1    4    4    0    0 -0.22841485405E+01 -0.27237660832E+01 -0.66787118109E+01  0.75658064794E+01  0.00000000000E+00 0.  1.
</event>
<event>
 8    1  0.2458065E-006  0.9118800E+02  0.7816164E-02  0.1184000E+00
        -11   -1    0    0    0    0  0.00000000000E+00  0.00000000000E+00  0.45593999997E+02  0.45594000000E+02  0.51100000000E-03 0.  1.
         11   -1    0    0    0    0 -0.00000000000E+00 -0.00000000000E+00 -0.45593999997E+02  0.45594000000E+02  0.51100000000E-03 0. -1.
         23    2    1    2    0    0  0.35527136788E-14  0.00000000000E+00  0.00000000000E+00  0.91188000000E+02  0.91188000000E+02 0.  0.
    9900012    2    3    3    0    0 -0.31967563572E+02  0.16886598163E+02  0.69784601231E+01  0.54367065412E+02  0.39999957221E+02 0.  0.
         12    1    3    3    0    0  0.31967563572E+02 -0.16886598163E+02 -0.69784601231E+01  0.36820934588E+02  0.00000000000E+00 0. -1.
         11    1    4    4    0    0 -0.62768839159E+01 -0.34314402711E+01 -0.43129860672E+01  0.83531971786E+01  0.51100000000E-03 0. -1.
        -11    1    4    4    0    0 -0.31393909213E+02  0.18082581486E+02  0.39371001026E+01  0.36442530735E+02  0.51100000000E-03 0.  1.
        -12    1    4    4    0    0  0.57032295570E+01  0.22354569479E+01  0.73543460878E+01  0.95713374992E+01  0.00000000000E+00 0.  1.
</event>
<event>
 8    1  0.2458065E-006  0.9118800E+02  0.7816164E-02  0.1184000E+00
        -11   -1    0    0    0    0  0.00000000000E+00  0.00000000000E+00  0.45593999997E+02  0.45594000000E+02  0.51100000000E-03 0.  1.
         11   -1    0    0    0    0 -0.00000000000E+00 -0.00000000000E+00 -0.45593999997E+02  0.45594000000E+02  0.51100000000E-03 0. -1.
         23    2    1    2    0    0  0.00000000000E+00 -0.17763568394E-14  0.00000000000E+00  0.91188000000E+02  0.91188000000E+02 0.  0.
    9900012    2    3    3    0    0 -0.22278787249E+02 -0.14134051155E+02 -0.25683885094E+02  0.54367113036E+02  0.40000065788E+02 0.  0.
        -12    1    3    3    0    0  0.22278787249E+02  0.14134051155E+02  0.25683885094E+02  0.36820886964E+02  0.00000000000E+00 0.  1.
         11    1    4    4    0    0 -0.20104870341E+02 -0.13930519674E+02 -0.15146876743E+02  0.28769655283E+02  0.51100000000E-03 0. -1.
        -11    1    4    4    0    0 -0.11852961683E+02 -0.44339427701E+01 -0.69742034154E+01  0.14449638843E+02  0.51100000000E-03 0.  1.
        -12    1    4    4    0    0  0.96790447753E+01  0.42304112885E+01 -0.35628049359E+01  0.11147818910E+02  0.00000000000E+00 0.  1.
</event>
<event>
 8    1  0.2458065E-006  0.9118800E+02  0.7816164E-02  0.1184000E+00
        -11   -1    0    0    0    0  0.00000000000E+00  0.00000000000E+00  0.45593999997E+02  0.45594000000E+02  0.51100000000E-03 0.  1.
         11   -1    0    0    0    0 -0.00000000000E+00 -0.00000000000E+00 -0.45593999997E+02  0.45594000000E+02  0.51100000000E-03 0. -1.
         23    2    1    2    0    0  0.17763568394E-14 -0.35527136788E-14  0.00000000000E+00  0.91188000000E+02  0.91188000000E+02 0.  0.
    9900012    2    3    3    0    0  0.14509141645E+02  0.31940797866E+02 -0.11182680090E+02  0.54367053603E+02  0.39999930299E+02 0.  0.
         12    1    3    3    0    0 -0.14509141645E+02 -0.31940797866E+02  0.11182680090E+02  0.36820946397E+02  0.00000000000E+00 0. -1.
         11    1    4    4    0    0  0.88678897293E+01  0.36122503443E+00  0.69302748326E+01  0.11260491166E+02  0.51100000000E-03 0. -1.
        -11    1    4    4    0    0  0.45061911857E+01  0.10154103229E+02 -0.18577895683E+02  0.21646010710E+02  0.51100000000E-03 0.  1.
        -12    1    4    4    0    0  0.11350607303E+01  0.21425469602E+02  0.46494076013E+00  0.21460551727E+02  0.00000000000E+00 0.  1.
</event>
<event>
 8    1  0.2458065E-006  0.9118800E+02  0.7816164E-02  0.1184000E+00
        -11   -1    0    0    0    0  0.00000000000E+00  0.00000000000E+00  0.45593999997E+02  0.45594000000E+02  0.51100000000E-03 0. -1.
         11   -1    0    0    0    0 -0.00000000000E+00 -0.00000000000E+00 -0.45593999997E+02  0.45594000000E+02  0.51100000000E-03 0.  1.
         23    2    1    2    0    0  0.35527136788E-14  0.35527136788E-14 -0.26645352591E-14  0.91188000000E+02  0.91188000000E+02 0.  0.
    9900012    2    3    3    0    0 -0.30495181549E+02 -0.19493807590E+02  0.67688047386E+01  0.54367063705E+02  0.39999953328E+02 0.  0.
        -12    1    3    3    0    0  0.30495181549E+02  0.19493807590E+02 -0.67688047386E+01  0.36820936295E+02  0.00000000000E+00 0.  1.
         11    1    4    4    0    0 -0.23234761563E+02 -0.30943803155E+01  0.13777896367E+02  0.27189331786E+02  0.51100000000E-03 0. -1.
        -11    1    4    4    0    0  0.19247240123E+01 -0.15482352040E+02 -0.85938798308E+01  0.17811865653E+02  0.51100000000E-03 0.  1.
        -12    1    4    4    0    0 -0.91851439986E+01 -0.91707523377E+00  0.15847882026E+01  0.93658662657E+01  0.00000000000E+00 0.  1.
</event>
<event>
 8    1  0.2458065E-006  0.9118800E+02  0.7816164E-02  0.1184000E+00
        -11   -1    0    0    0    0  0.00000000000E+00  0.00000000000E+00  0.45593999997E+02  0.45594000000E+02  0.51100000000E-03 0.  1.
         11   -1    0    0    0    0 -0.00000000000E+00 -0.00000000000E+00 -0.45593999997E+02  0.45594000000E+02  0.51100000000E-03 0. -1.
         23    2    1    2    0    0  0.00000000000E+00 -0.35527136788E-14 -0.17763568394E-14  0.91188000000E+02  0.91188000000E+02 0.  0.
    9900012    2    3    3    0    0 -0.27311944071E+02  0.24024355409E+02 -0.57157528245E+01  0.54367057968E+02  0.39999940250E+02 0.  0.
        -12    1    3    3    0    0  0.27311944071E+02 -0.24024355409E+02  0.57157528245E+01  0.36820942032E+02  0.00000000000E+00 0.  1.
         11    1    4    4    0    0 -0.11812446144E+02  0.23383758364E+02  0.89277865833E+01  0.27677417016E+02  0.51100000000E-03 0. -1.
        -11    1    4    4    0    0 -0.32230057048E-02 -0.54305906739E+01 -0.19944407476E+01  0.57852501772E+01  0.51100000000E-03 0.  1.
         12    1    4    4    0    0 -0.15496274922E+02  0.60711877195E+01 -0.12649098660E+02  0.20904390775E+02  0.00000000000E+00 0. -1.
</event>
<event>
 8    1  0.2458065E-006  0.9118800E+02  0.7816164E-02  0.1184000E+00
        -11   -1    0    0    0    0  0.00000000000E+00  0.00000000000E+00  0.45593999997E+02  0.45594000000E+02  0.51100000000E-03 0.  1.
         11   -1    0    0    0    0 -0.00000000000E+00 -0.00000000000E+00 -0.45593999997E+02  0.45594000000E+02  0.51100000000E-03 0. -1.
         23    2    1    2    0    0  0.00000000000E+00 -0.35527136788E-14  0.00000000000E+00  0.91188000000E+02  0.91188000000E+02 0.  0.
    9900012    2    3    3    0    0 -0.50797771130E+01 -0.15608034723E+02  0.32960080281E+02  0.54367057921E+02  0.39999940143E+02 0.  0.
         12    1    3    3    0    0  0.50797771130E+01  0.15608034723E+02 -0.32960080281E+02  0.36820942079E+02  0.00000000000E+00 0. -1.
         11    1    4    4    0    0  0.44523684724E+00  0.45393498925E+01 -0.46155351279E+01  0.64889982335E+01  0.51100000000E-03 0. -1.
        -11    1    4    4    0    0 -0.83970663799E+01 -0.12518532145E+00  0.17339833793E+02  0.19266453524E+02  0.51100000000E-03 0.  1.
        -12    1    4    4    0    0  0.28720524196E+01 -0.20022199294E+02  0.20235781616E+02  0.28611606164E+02  0.00000000000E+00 0.  1.
</event>
<event>
 8    1  0.2458065E-006  0.9118800E+02  0.7816164E-02  0.1184000E+00
        -11   -1    0    0    0    0  0.00000000000E+00  0.00000000000E+00  0.45593999997E+02  0.45594000000E+02  0.51100000000E-03 0.  1.
         11   -1    0    0    0    0 -0.00000000000E+00 -0.00000000000E+00 -0.45593999997E+02  0.45594000000E+02  0.51100000000E-03 0. -1.
         23    2    1    2    0    0  0.13322676296E-14  0.00000000000E+00  0.00000000000E+00  0.91188000000E+02  0.91188000000E+02 0.  0.
    9900012    2    3    3    0    0 -0.38988259134E+01  0.36408468222E+02 -0.38733793516E+01  0.54367075658E+02  0.39999980578E+02 0.  0.
        -12    1    3    3    0    0  0.38988259134E+01 -0.36408468222E+02  0.38733793516E+01  0.36820924342E+02  0.00000000000E+00 0.  1.
         11    1    4    4    0    0 -0.10760293552E+01 -0.92629226337E-01 -0.40358443567E+01  0.41778534296E+01  0.51100000000E-03 0. -1.
        -11    1    4    4    0    0 -0.15888640627E+02  0.26691073015E+02  0.79883870040E+01  0.32072988742E+02  0.51100000000E-03 0.  1.
        -12    1    4    4    0    0  0.13065844069E+02  0.98100244328E+01 -0.78259219989E+01  0.18116233486E+02  0.00000000000E+00 0.  1.
</event>
<event>
 8    1  0.2458065E-006  0.9118800E+02  0.7816164E-02  0.1184000E+00
        -11   -1    0    0    0    0  0.00000000000E+00  0.00000000000E+00  0.45593999997E+02  0.45594000000E+02  0.51100000000E-03 0.  1.
         11   -1    0    0    0    0 -0.00000000000E+00 -0.00000000000E+00 -0.45593999997E+02  0.45594000000E+02  0.51100000000E-03 0. -1.
         23    2    1    2    0    0 -0.35527136788E-14  0.00000000000E+00  0.00000000000E+00  0.91188000000E+02  0.91188000000E+02 0.  0.
    9900012    2    3    3    0    0 -0.27486747333E+02  0.88805053472E+01  0.22834080799E+02  0.54367083388E+02  0.39999998200E+02 0.  0.
         12    1    3    3    0    0  0.27486747333E+02 -0.88805053472E+01 -0.22834080799E+02  0.36820916612E+02  0.00000000000E+00 0. -1.
         11    1    4    4    0    0 -0.28232560803E+01 -0.34736218955E+01  0.19535262419E+02  0.20041539412E+02  0.51100000000E-03 0. -1.
        -11    1    4    4    0    0 -0.24651415355E+02  0.11888012017E+02  0.88433306627E+01  0.28761460432E+02  0.51100000000E-03 0.  1.
        -12    1    4    4    0    0 -0.12075898346E-01  0.46611522557E+00 -0.55445122826E+01  0.55640835438E+01  0.00000000000E+00 0.  1.
</event>
<event>
 8    1  0.2458065E-006  0.9118800E+02  0.7816164E-02  0.1184000E+00
        -11   -1    0    0    0    0  0.00000000000E+00  0.00000000000E+00  0.45593999997E+02  0.45594000000E+02  0.51100000000E-03 0.  1.
         11   -1    0    0    0    0 -0.00000000000E+00 -0.00000000000E+00 -0.45593999997E+02  0.45594000000E+02  0.51100000000E-03 0. -1.
         23    2    1    2    0    0  0.00000000000E+00  0.00000000000E+00 -0.66613381478E-15  0.91188000000E+02  0.91188000000E+02 0.  0.
    9900012    2    3    3    0    0  0.33557402929E+02  0.15079725794E+02  0.15109602554E+01  0.54367076299E+02  0.39999982038E+02 0.  0.
        -12    1    3    3    0    0 -0.33557402929E+02 -0.15079725794E+02 -0.15109602554E+01  0.36820923701E+02  0.00000000000E+00 0.  1.
         11    1    4    4    0    0  0.68994769119E+01  0.19535877169E+02  0.11107459030E+02  0.23508060847E+02  0.51100000000E-03 0. -1.
        -11    1    4    4    0    0  0.25165557366E+02 -0.44852596748E+01 -0.50267951444E+01  0.26051708228E+02  0.51100000000E-03 0.  1.
        -12    1    4    4    0    0  0.14923686507E+01  0.29108299682E-01 -0.45697036298E+01  0.48073072241E+01  0.00000000000E+00 0.  1.
</event>
<event>
 8    1  0.2458065E-006  0.9118800E+02  0.7816164E-02  0.1184000E+00
        -11   -1    0    0    0    0  0.00000000000E+00  0.00000000000E+00  0.45593999997E+02  0.45594000000E+02  0.51100000000E-03 0.  1.
         11   -1    0    0    0    0 -0.00000000000E+00 -0.00000000000E+00 -0.45593999997E+02  0.45594000000E+02  0.51100000000E-03 0. -1.
         23    2    1    2    0    0 -0.88817841970E-15  0.00000000000E+00 -0.71054273576E-14  0.91188000000E+02  0.91188000000E+02 0.  0.
    9900012    2    3    3    0    0 -0.71000996958E+01 -0.52531370175E+01 -0.35745972543E+02  0.54367062786E+02  0.39999951234E+02 0.  0.
        -12    1    3    3    0    0  0.71000996958E+01  0.52531370175E+01  0.35745972543E+02  0.36820937214E+02  0.00000000000E+00 0.  1.
         11    1    4    4    0    0  0.68131702161E+01 -0.20451382184E+01 -0.26654660811E+02  0.27587548313E+02  0.51100000000E-03 0. -1.
        -11    1    4    4    0    0 -0.90271792081E+01  0.11195672940E+00  0.58196198165E+01  0.10741064837E+02  0.51100000000E-03 0.  1.
         12    1    4    4    0    0 -0.48860907039E+01 -0.33199555285E+01 -0.14910931549E+02  0.16038449636E+02  0.00000000000E+00 0. -1.
</event>
<event>
 8    1  0.2458065E-006  0.9118800E+02  0.7816164E-02  0.1184000E+00
        -11   -1    0    0    0    0  0.00000000000E+00  0.00000000000E+00  0.45593999997E+02  0.45594000000E+02  0.51100000000E-03 0. -1.
         11   -1    0    0    0    0 -0.00000000000E+00 -0.00000000000E+00 -0.45593999997E+02  0.45594000000E+02  0.51100000000E-03 0.  1.
         23    2    1    2    0    0 -0.22204460493E-14 -0.33306690739E-15  0.00000000000E+00  0.91188000000E+02  0.91188000000E+02 0.  0.
    9900012    2    3    3    0    0 -0.38795840940E+01  0.96307907896E+00  0.36603293536E+02  0.54367084861E+02  0.40000001557E+02 0.  0.
        -12    1    3    3    0    0  0.38795840940E+01 -0.96307907896E+00 -0.36603293536E+02  0.36820915139E+02  0.00000000000E+00 0.  1.
         11    1    4    4    0    0  0.60415383103E+01  0.15475348589E+02  0.21155360743E+02  0.26898622409E+02  0.51100000000E-03 0. -1.
        -11    1    4    4    0    0 -0.45404359350E+01 -0.13185852602E+02  0.16730174514E+02  0.21780289412E+02  0.51100000000E-03 0.  1.
         12    1    4    4    0    0 -0.53806864693E+01 -0.13264169075E+01 -0.12822417212E+01  0.56881730393E+01  0.00000000000E+00 0. -1.
</event>
<event>
 8    1  0.2458065E-006  0.9118800E+02  0.7816164E-02  0.1184000E+00
        -11   -1    0    0    0    0  0.00000000000E+00  0.00000000000E+00  0.45593999997E+02  0.45594000000E+02  0.51100000000E-03 0.  1.
         11   -1    0    0    0    0 -0.00000000000E+00 -0.00000000000E+00 -0.45593999997E+02  0.45594000000E+02  0.51100000000E-03 0. -1.
         23    2    1    2    0    0 -0.17763568394E-14  0.00000000000E+00  0.00000000000E+00  0.91188000000E+02  0.91188000000E+02 0.  0.
    9900012    2    3    3    0    0 -0.95022029333E+01  0.11725100536E+02  0.33585858806E+02  0.54367085360E+02  0.40000002695E+02 0.  0.
        -12    1    3    3    0    0  0.95022029333E+01 -0.11725100536E+02 -0.33585858806E+02  0.36820914640E+02  0.00000000000E+00 0.  1.
         11    1    4    4    0    0 -0.84838720312E+01  0.11293327616E+02  0.23117875805E+02  0.27091539552E+02  0.51100000000E-03 0. -1.
        -11    1    4    4    0    0 -0.96996369402E+01  0.80890257629E+01  0.16785073898E+01  0.12740984337E+02  0.51100000000E-03 0.  1.
        -12    1    4    4    0    0  0.86813060382E+01 -0.76572528423E+01  0.87894756113E+01  0.14534561471E+02  0.00000000000E+00 0.  1.
</event>
<event>
 8    1  0.2458065E-006  0.9118800E+02  0.7816164E-02  0.1184000E+00
        -11   -1    0    0    0    0  0.00000000000E+00  0.00000000000E+00  0.45593999997E+02  0.45594000000E+02  0.51100000000E-03 0. -1.
         11   -1    0    0    0    0 -0.00000000000E+00 -0.00000000000E+00 -0.45593999997E+02  0.45594000000E+02  0.51100000000E-03 0.  1.
         23    2    1    2    0    0  0.71054273576E-14 -0.88817841970E-15  0.00000000000E+00  0.91188000000E+02  0.91188000000E+02 0.  0.
    9900012    2    3    3    0    0  0.32033894183E+02 -0.65192613936E+01 -0.16944357326E+02  0.54367049567E+02  0.39999921097E+02 0.  0.
         12    1    3    3    0    0 -0.32033894183E+02  0.65192613936E+01  0.16944357326E+02  0.36820950433E+02  0.00000000000E+00 0. -1.
         11    1    4    4    0    0 -0.82606584879E+00  0.62459503556E+00 -0.18439331005E+01  0.21148506532E+01  0.51100000000E-03 0. -1.
        -11    1    4    4    0    0  0.11801433312E+02 -0.44383130011E+01 -0.25622204373E+02  0.28556431985E+02  0.51100000000E-03 0.  1.
        -12    1    4    4    0    0  0.21058526719E+02 -0.27055434281E+01  0.10521780148E+02  0.23695766928E+02  0.00000000000E+00 0.  1.
</event>
<event>
 8    1  0.2458065E-006  0.9118800E+02  0.7816164E-02  0.1184000E+00
        -11   -1    0    0    0    0  0.00000000000E+00  0.00000000000E+00  0.45593999997E+02  0.45594000000E+02  0.51100000000E-03 0. -1.
         11   -1    0    0    0    0 -0.00000000000E+00 -0.00000000000E+00 -0.45593999997E+02  0.45594000000E+02  0.51100000000E-03 0.  1.
         23    2    1    2    0    0  0.00000000000E+00  0.71054273576E-14 -0.35527136788E-14  0.91188000000E+02  0.91188000000E+02 0.  0.
    9900012    2    3    3    0    0 -0.17450829070E+01 -0.18627607984E+02  0.31713483904E+02  0.54367107087E+02  0.40000052227E+02 0.  0.
        -12    1    3    3    0    0  0.17450829070E+01  0.18627607984E+02 -0.31713483904E+02  0.36820892913E+02  0.00000000000E+00 0.  1.
         11    1    4    4    0    0 -0.14055186239E+01  0.20656795842E+01 -0.38417888855E+01  0.45827782893E+01  0.51100000000E-03 0. -1.
        -11    1    4    4    0    0  0.69713731052E+01 -0.99115930046E+01  0.21502425683E+00  0.12119651585E+02  0.51100000000E-03 0.  1.
         12    1    4    4    0    0 -0.73109373882E+01 -0.10781694564E+02  0.35340248533E+02  0.37664677212E+02  0.00000000000E+00 0. -1.
</event>
<event>
 8    1  0.2458065E-006  0.9118800E+02  0.7816164E-02  0.1184000E+00
        -11   -1    0    0    0    0  0.00000000000E+00  0.00000000000E+00  0.45593999997E+02  0.45594000000E+02  0.51100000000E-03 0.  1.
         11   -1    0    0    0    0 -0.00000000000E+00 -0.00000000000E+00 -0.45593999997E+02  0.45594000000E+02  0.51100000000E-03 0. -1.
         23    2    1    2    0    0  0.35527136788E-14 -0.17763568394E-14  0.00000000000E+00  0.91188000000E+02  0.91188000000E+02 0.  0.
    9900012    2    3    3    0    0  0.27918098449E+02 -0.59823351725E+01  0.23250235146E+02  0.54367055016E+02  0.39999933521E+02 0.  0.
         12    1    3    3    0    0 -0.27918098449E+02  0.59823351725E+01 -0.23250235146E+02  0.36820944984E+02  0.00000000000E+00 0. -1.
         11    1    4    4    0    0  0.71020006094E+01 -0.11053923939E+02 -0.22980423182E+01  0.13338239984E+02  0.51100000000E-03 0.  1.
        -11    1    4    4    0    0  0.68716510362E+01 -0.59819978300E+01 -0.89661552217E+00  0.91546603245E+01  0.51100000000E-03 0. -1.
        -12    1    4    4    0    0  0.13944446804E+02  0.11053586597E+02  0.26444892986E+02  0.31874154708E+02  0.00000000000E+00 0.  1.
</event>
<event>
 8    1  0.2458065E-006  0.9118800E+02  0.7816164E-02  0.1184000E+00
        -11   -1    0    0    0    0  0.00000000000E+00  0.00000000000E+00  0.45593999997E+02  0.45594000000E+02  0.51100000000E-03 0.  1.
         11   -1    0    0    0    0 -0.00000000000E+00 -0.00000000000E+00 -0.45593999997E+02  0.45594000000E+02  0.51100000000E-03 0. -1.
         23    2    1    2    0    0  0.00000000000E+00  0.00000000000E+00  0.00000000000E+00  0.91188000000E+02  0.91188000000E+02 0.  0.
    9900012    2    3    3    0    0  0.71310035503E+01  0.34442864323E+02 -0.10890913741E+02  0.54367161926E+02  0.40000177241E+02 0.  0.
        -12    1    3    3    0    0 -0.71310035503E+01 -0.34442864323E+02  0.10890913741E+02  0.36820838074E+02  0.00000000000E+00 0.  1.
         11    1    4    4    0    0  0.11520831781E+02  0.14721442331E+02 -0.49239742530E+01  0.19331217032E+02  0.51100000000E-03 0. -1.
        -11    1    4    4    0    0 -0.41468735470E+01  0.26049951809E+02 -0.91858930072E+01  0.27931651939E+02  0.51100000000E-03 0.  1.
        -12    1    4    4    0    0 -0.24295468404E+00 -0.63285298170E+01  0.32189535189E+01  0.71042929543E+01  0.00000000000E+00 0.  1.
</event>
<event>
 8    1  0.2458065E-006  0.9118800E+02  0.7816164E-02  0.1184000E+00
        -11   -1    0    0    0    0  0.00000000000E+00  0.00000000000E+00  0.45593999997E+02  0.45594000000E+02  0.51100000000E-03 0.  1.
         11   -1    0    0    0    0 -0.00000000000E+00 -0.00000000000E+00 -0.45593999997E+02  0.45594000000E+02  0.51100000000E-03 0. -1.
         23    2    1    2    0    0 -0.35527136788E-14  0.00000000000E+00  0.17763568394E-14  0.91188000000E+02  0.91188000000E+02 0.  0.
    9900012    2    3    3    0    0 -0.26700459475E+02  0.21821969064E+02  0.12910006050E+02  0.54367066739E+02  0.39999960245E+02 0.  0.
         12    1    3    3    0    0  0.26700459475E+02 -0.21821969064E+02 -0.12910006050E+02  0.36820933261E+02  0.00000000000E+00 0. -1.
         11    1    4    4    0    0 -0.16517552168E+01  0.40248125532E+01 -0.13241317158E+01  0.45476077718E+01  0.51100000000E-03 0. -1.
        -11    1    4    4    0    0 -0.98402972045E+01  0.24166508750E+02  0.19429059201E+02  0.32532136971E+02  0.51100000000E-03 0.  1.
        -12    1    4    4    0    0 -0.15208407054E+02 -0.63693522394E+01 -0.51949214351E+01  0.17287321996E+02  0.00000000000E+00 0.  1.
</event>
<event>
 8    1  0.2458065E-006  0.9118800E+02  0.7816164E-02  0.1184000E+00
        -11   -1    0    0    0    0  0.00000000000E+00  0.00000000000E+00  0.45593999997E+02  0.45594000000E+02  0.51100000000E-03 0.  1.
         11   -1    0    0    0    0 -0.00000000000E+00 -0.00000000000E+00 -0.45593999997E+02  0.45594000000E+02  0.51100000000E-03 0. -1.
         23    2    1    2    0    0  0.00000000000E+00 -0.35527136788E-14  0.17763568394E-14  0.91188000000E+02  0.91188000000E+02 0.  0.
    9900012    2    3    3    0    0  0.25550894456E+02  0.22503567518E+02 -0.14018631888E+02  0.54367071188E+02  0.39999970388E+02 0.  0.
        -12    1    3    3    0    0 -0.25550894456E+02 -0.22503567518E+02  0.14018631888E+02  0.36820928812E+02  0.00000000000E+00 0.  1.
         11    1    4    4    0    0  0.10018453260E+02  0.89384954926E+01 -0.13921651277E+02  0.19341108602E+02  0.51100000000E-03 0. -1.
        -11    1    4    4    0    0  0.14793030229E+02  0.20239014317E+00  0.10343873494E+02  0.18051881460E+02  0.51100000000E-03 0.  1.
        -12    1    4    4    0    0  0.73941096757E+00  0.13362681882E+02 -0.10440854104E+02  0.16974081127E+02  0.00000000000E+00 0.  1.
</event>
<event>
 8    1  0.2458065E-006  0.9118800E+02  0.7816164E-02  0.1184000E+00
        -11   -1    0    0    0    0  0.00000000000E+00  0.00000000000E+00  0.45593999997E+02  0.45594000000E+02  0.51100000000E-03 0. -1.
         11   -1    0    0    0    0 -0.00000000000E+00 -0.00000000000E+00 -0.45593999997E+02  0.45594000000E+02  0.51100000000E-03 0.  1.
         23    2    1    2    0    0 -0.35527136788E-14  0.00000000000E+00  0.00000000000E+00  0.91188000000E+02  0.91188000000E+02 0.  0.
    9900012    2    3    3    0    0 -0.28024989993E+02  0.20635219076E+02 -0.12023613581E+02  0.54367087274E+02  0.40000007058E+02 0.  0.
         12    1    3    3    0    0  0.28024989993E+02 -0.20635219076E+02  0.12023613581E+02  0.36820912726E+02  0.00000000000E+00 0. -1.
         11    1    4    4    0    0 -0.48141942376E+01  0.23805595974E+02 -0.45168659406E+01  0.24703945920E+02  0.51100000000E-03 0. -1.
        -11    1    4    4    0    0 -0.13634953819E+02  0.55823319620E+01 -0.11927430800E+00  0.14733927596E+02  0.51100000000E-03 0.  1.
         12    1    4    4    0    0 -0.95758419366E+01 -0.87527088600E+01 -0.73874733326E+01  0.14929213758E+02  0.00000000000E+00 0. -1.
</event>
<event>
 8    1  0.2458065E-006  0.9118800E+02  0.7816164E-02  0.1184000E+00
        -11   -1    0    0    0    0  0.00000000000E+00  0.00000000000E+00  0.45593999997E+02  0.45594000000E+02  0.51100000000E-03 0. -1.
         11   -1    0    0    0    0 -0.00000000000E+00 -0.00000000000E+00 -0.45593999997E+02  0.45594000000E+02  0.51100000000E-03 0.  1.
         23    2    1    2    0    0  0.00000000000E+00  0.00000000000E+00  0.00000000000E+00  0.91188000000E+02  0.91188000000E+02 0.  0.
    9900012    2    3    3    0    0  0.93810794508E+01  0.16933874835E+02  0.31321195470E+02  0.54367108454E+02  0.40000055342E+02 0.  0.
        -12    1    3    3    0    0 -0.93810794508E+01 -0.16933874835E+02 -0.31321195470E+02  0.36820891546E+02  0.00000000000E+00 0.  1.
         11    1    4    4    0    0 -0.10815342467E+02  0.11903058047E+02  0.12902823581E+02  0.20618857392E+02  0.51100000000E-03 0. -1.
        -11    1    4    4    0    0  0.35546624199E+01 -0.64544465517E+01  0.18253619581E+01  0.75912747116E+01  0.51100000000E-03 0.  1.
         12    1    4    4    0    0  0.16641759498E+02  0.11485263340E+02  0.16593009931E+02  0.26156976350E+02  0.00000000000E+00 0. -1.
</event>
<event>
 8    1  0.2458065E-006  0.9118800E+02  0.7816164E-02  0.1184000E+00
        -11   -1    0    0    0    0  0.00000000000E+00  0.00000000000E+00  0.45593999997E+02  0.45594000000E+02  0.51100000000E-03 0.  1.
         11   -1    0    0    0    0 -0.00000000000E+00 -0.00000000000E+00 -0.45593999997E+02  0.45594000000E+02  0.51100000000E-03 0. -1.
         23    2    1    2    0    0  0.00000000000E+00 -0.66613381478E-15 -0.17763568394E-14  0.91188000000E+02  0.91188000000E+02 0.  0.
    9900012    2    3    3    0    0 -0.35248127043E+02  0.18486584582E+01 -0.10484827954E+02  0.54367087255E+02  0.40000007015E+02 0.  0.
        -12    1    3    3    0    0  0.35248127043E+02 -0.18486584582E+01  0.10484827954E+02  0.36820912745E+02  0.00000000000E+00 0.  1.
         11    1    4    4    0    0 -0.15910649605E+02  0.93952182918E+00 -0.37754328143E+01  0.16379418956E+02  0.51100000000E-03 0. -1.
        -11    1    4    4    0    0 -0.14326577529E+02  0.92407337355E+01 -0.16828395439E+02  0.23954892548E+02  0.51100000000E-03 0.  1.
        -12    1    4    4    0    0 -0.50108999089E+01 -0.83315971064E+01  0.10119000299E+02  0.14032775751E+02  0.00000000000E+00 0.  1.
</event>
<event>
 8    1  0.2458065E-006  0.9118800E+02  0.7816164E-02  0.1184000E+00
        -11   -1    0    0    0    0  0.00000000000E+00  0.00000000000E+00  0.45593999997E+02  0.45594000000E+02  0.51100000000E-03 0.  1.
         11   -1    0    0    0    0 -0.00000000000E+00 -0.00000000000E+00 -0.45593999997E+02  0.45594000000E+02  0.51100000000E-03 0. -1.
         23    2    1    2    0    0  0.11102230246E-14 -0.53290705182E-14  0.00000000000E+00  0.91188000000E+02  0.91188000000E+02 0.  0.
    9900012    2    3    3    0    0  0.15966225457E+01 -0.12057238830E+02  0.34754183650E+02  0.54367088918E+02  0.40000010806E+02 0.  0.
         12    1    3    3    0    0 -0.15966225457E+01  0.12057238830E+02 -0.34754183650E+02  0.36820911082E+02  0.00000000000E+00 0. -1.
         11    1    4    4    0    0  0.53884310895E+01 -0.16827845237E+01  0.72561685323E+01  0.91934180472E+01  0.51100000000E-03 0. -1.
        -11    1    4    4    0    0 -0.38682247025E+01  0.59644506791E+01  0.27938386607E+02  0.28828653814E+02  0.51100000000E-03 0.  1.
        -12    1    4    4    0    0  0.76416158728E-01 -0.16338904985E+02 -0.44037148967E+00  0.16345017057E+02  0.00000000000E+00 0.  1.
</event>
<event>
 8    1  0.2461329E-006  0.9118800E+02  0.7816164E-02  0.1184000E+00
        -11   -1    0    0    0    0  0.00000000000E+00  0.00000000000E+00  0.45593999997E+02  0.45594000000E+02  0.51100000000E-03 0.  1.
         11   -1    0    0    0    0 -0.00000000000E+00 -0.00000000000E+00 -0.45593999997E+02  0.45594000000E+02  0.51100000000E-03 0. -1.
         23    2    1    2    0    0  0.00000000000E+00 -0.17763568394E-14  0.00000000000E+00  0.91188000000E+02  0.91188000000E+02 0.  0.
    9900012    2    3    3    0    0 -0.27711232124E+01 -0.11181174963E+02  0.34972615112E+02  0.54367060235E+02  0.39999945417E+02 0.  0.
         12    1    3    3    0    0  0.27711232124E+01  0.11181174963E+02 -0.34972615112E+02  0.36820939765E+02  0.00000000000E+00 0. -1.
         11    1    4    4    0    0 -0.87826482914E+01 -0.38878127587E+01 -0.33671034763E+01  0.10177788814E+02  0.51100000000E-03 0. -1.
        -11    1    4    4    0    0 -0.51170310991E+01 -0.21333068951E+00  0.19452934672E+01  0.54784746222E+01  0.51100000000E-03 0.  1.
        -12    1    4    4    0    0  0.11128556178E+02 -0.70800315153E+01  0.36394425121E+02  0.38710796799E+02  0.00000000000E+00 0.  1.
</event>
<event>
 8    1  0.2458065E-006  0.9118800E+02  0.7816164E-02  0.1184000E+00
        -11   -1    0    0    0    0  0.00000000000E+00  0.00000000000E+00  0.45593999997E+02  0.45594000000E+02  0.51100000000E-03 0.  1.
         11   -1    0    0    0    0 -0.00000000000E+00 -0.00000000000E+00 -0.45593999997E+02  0.45594000000E+02  0.51100000000E-03 0. -1.
         23    2    1    2    0    0  0.00000000000E+00  0.00000000000E+00  0.35527136788E-14  0.91188000000E+02  0.91188000000E+02 0.  0.
    9900012    2    3    3    0    0 -0.20062830975E+02  0.22285790568E+02 -0.21368356832E+02  0.54367077664E+02  0.39999985150E+02 0.  0.
        -12    1    3    3    0    0  0.20062830975E+02 -0.22285790568E+02  0.21368356832E+02  0.36820922336E+02  0.00000000000E+00 0.  1.
         11    1    4    4    0    0 -0.19205256589E+02  0.18308405285E+02 -0.18174102497E+02  0.32161119175E+02  0.51100000000E-03 0. -1.
        -11    1    4    4    0    0 -0.83454466198E+00 -0.70170090556E+01  0.48605343471E+01  0.85766937266E+01  0.51100000000E-03 0.  1.
         12    1    4    4    0    0 -0.23029723538E-01  0.10994394339E+02 -0.80547886820E+01  0.13629264762E+02  0.00000000000E+00 0. -1.
</event>
<event>
 8    1  0.2458065E-006  0.9118800E+02  0.7816164E-02  0.1184000E+00
        -11   -1    0    0    0    0  0.00000000000E+00  0.00000000000E+00  0.45593999997E+02  0.45594000000E+02  0.51100000000E-03 0. -1.
         11   -1    0    0    0    0 -0.00000000000E+00 -0.00000000000E+00 -0.45593999997E+02  0.45594000000E+02  0.51100000000E-03 0.  1.
         23    2    1    2    0    0  0.00000000000E+00 -0.17763568394E-14  0.17763568394E-14  0.91188000000E+02  0.91188000000E+02 0.  0.
    9900012    2    3    3    0    0  0.35065989621E+02 -0.55894136381E+01 -0.97424569851E+01  0.54367073328E+02  0.39999975265E+02 0.  0.
        -12    1    3    3    0    0 -0.35065989621E+02  0.55894136381E+01  0.97424569851E+01  0.36820926672E+02  0.00000000000E+00 0.  1.
         11    1    4    4    0    0  0.16831623188E+02 -0.12130386478E+02 -0.51478090148E+01  0.21376383071E+02  0.51100000000E-03 0. -1.
        -11    1    4    4    0    0  0.84319785755E+01 -0.98416566058E+01  0.12624332510E+01  0.13021144551E+02  0.51100000000E-03 0.  1.
        -12    1    4    4    0    0  0.98023878571E+01  0.16382629446E+02 -0.58570812213E+01  0.19969545706E+02  0.00000000000E+00 0.  1.
</event>
<event>
 8    1  0.2458065E-006  0.9118800E+02  0.7816164E-02  0.1184000E+00
        -11   -1    0    0    0    0  0.00000000000E+00  0.00000000000E+00  0.45593999997E+02  0.45594000000E+02  0.51100000000E-03 0. -1.
         11   -1    0    0    0    0 -0.00000000000E+00 -0.00000000000E+00 -0.45593999997E+02  0.45594000000E+02  0.51100000000E-03 0.  1.
         23    2    1    2    0    0 -0.17763568394E-14  0.00000000000E+00  0.00000000000E+00  0.91188000000E+02  0.91188000000E+02 0.  0.
    9900012    2    3    3    0    0  0.13467039304E+02 -0.57254653540E+01  0.33788123382E+02  0.54367090413E+02  0.40000014215E+02 0.  0.
        -12    1    3    3    0    0 -0.13467039304E+02  0.57254653540E+01 -0.33788123382E+02  0.36820909587E+02  0.00000000000E+00 0.  1.
         11    1    4    4    0    0 -0.24210774132E+00 -0.11371104857E+02  0.31343276945E+02  0.33343090015E+02  0.51100000000E-03 0. -1.
        -11    1    4    4    0    0 -0.24684900123E+01  0.25472956879E+01 -0.18514537163E+01  0.40012547266E+01  0.51100000000E-03 0.  1.
         12    1    4    4    0    0  0.16177637058E+02  0.30983438156E+01  0.42963001526E+01  0.17022745671E+02  0.00000000000E+00 0. -1.
</event>
<event>
 8    1  0.2458065E-006  0.9118800E+02  0.7816164E-02  0.1184000E+00
        -11   -1    0    0    0    0  0.00000000000E+00  0.00000000000E+00  0.45593999997E+02  0.45594000000E+02  0.51100000000E-03 0.  1.
         11   -1    0    0    0    0 -0.00000000000E+00 -0.00000000000E+00 -0.45593999997E+02  0.45594000000E+02  0.51100000000E-03 0. -1.
         23    2    1    2    0    0  0.17763568394E-14  0.17763568394E-14  0.71054273576E-14  0.91188000000E+02  0.91188000000E+02 0.  0.
    9900012    2    3    3    0    0  0.13910687752E+02  0.87607093415E+01  0.32947281367E+02  0.54367073730E+02  0.39999976182E+02 0.  0.
         12    1    3    3    0    0 -0.13910687752E+02 -0.87607093415E+01 -0.32947281367E+02  0.36820926270E+02  0.00000000000E+00 0. -1.
         11    1    4    4    0    0 -0.24196886410E+01  0.13946857085E+01 -0.77970230166E+01  0.82821259063E+01  0.51100000000E-03 0. -1.
        -11    1    4    4    0    0  0.11226179433E+02  0.99741321366E+01  0.23272409455E+02  0.27696849255E+02  0.51100000000E-03 0.  1.
        -12    1    4    4    0    0  0.51041969604E+01 -0.26081085036E+01  0.17471894928E+02  0.18388098568E+02  0.00000000000E+00 0.  1.
</event>
<event>
 8    1  0.2458065E-006  0.9118800E+02  0.7816164E-02  0.1184000E+00
        -11   -1    0    0    0    0  0.00000000000E+00  0.00000000000E+00  0.45593999997E+02  0.45594000000E+02  0.51100000000E-03 0.  1.
         11   -1    0    0    0    0 -0.00000000000E+00 -0.00000000000E+00 -0.45593999997E+02  0.45594000000E+02  0.51100000000E-03 0. -1.
         23    2    1    2    0    0  0.88817841970E-15  0.00000000000E+00  0.00000000000E+00  0.91188000000E+02  0.91188000000E+02 0.  0.
    9900012    2    3    3    0    0  0.33754462428E+01 -0.30859728247E+02 -0.19800520706E+02  0.54367121615E+02  0.40000085345E+02 0.  0.
        -12    1    3    3    0    0 -0.33754462428E+01  0.30859728247E+02  0.19800520706E+02  0.36820878385E+02  0.00000000000E+00 0.  1.
         11    1    4    4    0    0 -0.11816828086E+02 -0.22768871189E+01 -0.12148495138E+02  0.17099929104E+02  0.51100000000E-03 0. -1.
        -11    1    4    4    0    0  0.51797125980E+00 -0.83990613961E+01  0.44653871257E+01  0.95263953836E+01  0.51100000000E-03 0.  1.
         12    1    4    4    0    0  0.14674303069E+02 -0.20183779732E+02 -0.12117412694E+02  0.27740797127E+02  0.00000000000E+00 0. -1.
</event>
<event>
 8    1  0.2458065E-006  0.9118800E+02  0.7816164E-02  0.1184000E+00
        -11   -1    0    0    0    0  0.00000000000E+00  0.00000000000E+00  0.45593999997E+02  0.45594000000E+02  0.51100000000E-03 0. -1.
         11   -1    0    0    0    0 -0.00000000000E+00 -0.00000000000E+00 -0.45593999997E+02  0.45594000000E+02  0.51100000000E-03 0.  1.
         23    2    1    2    0    0  0.00000000000E+00  0.00000000000E+00  0.00000000000E+00  0.91188000000E+02  0.91188000000E+02 0.  0.
    9900012    2    3    3    0    0 -0.29454157000E+02  0.18169299417E+01 -0.22021158167E+02  0.54367081951E+02  0.39999994923E+02 0.  0.
         12    1    3    3    0    0  0.29454157000E+02 -0.18169299417E+01  0.22021158167E+02  0.36820918049E+02  0.00000000000E+00 0. -1.
         11    1    4    4    0    0  0.64121676981E+01  0.29398734996E+01 -0.62039577335E+01  0.93940322866E+01  0.51100000000E-03 0. -1.
        -11    1    4    4    0    0 -0.19547493483E+01  0.26960194215E+01 -0.97616123908E+01  0.10314002253E+02  0.51100000000E-03 0.  1.
        -12    1    4    4    0    0 -0.33911575349E+02 -0.38189629795E+01 -0.60555880429E+01  0.34659047411E+02  0.00000000000E+00 0.  1.
</event>
<event>
 8    1  0.2458065E-006  0.9118800E+02  0.7816164E-02  0.1184000E+00
        -11   -1    0    0    0    0  0.00000000000E+00  0.00000000000E+00  0.45593999997E+02  0.45594000000E+02  0.51100000000E-03 0.  1.
         11   -1    0    0    0    0 -0.00000000000E+00 -0.00000000000E+00 -0.45593999997E+02  0.45594000000E+02  0.51100000000E-03 0. -1.
         23    2    1    2    0    0  0.00000000000E+00  0.35527136788E-14  0.35527136788E-14  0.91188000000E+02  0.91188000000E+02 0.  0.
    9900012    2    3    3    0    0  0.22719493692E+02 -0.23013108453E+02 -0.17606913146E+02  0.54367055623E+02  0.39999934903E+02 0.  0.
        -12    1    3    3    0    0 -0.22719493692E+02  0.23013108453E+02  0.17606913146E+02  0.36820944377E+02  0.00000000000E+00 0.  1.
         11    1    4    4    0    0  0.58788181595E+01 -0.15935306372E+02 -0.24107196704E+02  0.29489852921E+02  0.51100000000E-03 0. -1.
        -11    1    4    4    0    0  0.88173782857E+01  0.42676950985E+01  0.47006695827E+01  0.10865342888E+02  0.51100000000E-03 0.  1.
         12    1    4    4    0    0  0.80232972468E+01 -0.11345497180E+02  0.17996139757E+01  0.14011859813E+02  0.00000000000E+00 0. -1.
</event>
<event>
 8    1  0.2458065E-006  0.9118800E+02  0.7816164E-02  0.1184000E+00
        -11   -1    0    0    0    0  0.00000000000E+00  0.00000000000E+00  0.45593999997E+02  0.45594000000E+02  0.51100000000E-03 0. -1.
         11   -1    0    0    0    0 -0.00000000000E+00 -0.00000000000E+00 -0.45593999997E+02  0.45594000000E+02  0.51100000000E-03 0.  1.
         23    2    1    2    0    0  0.00000000000E+00  0.00000000000E+00 -0.88817841970E-15  0.91188000000E+02  0.91188000000E+02 0.  0.
    9900012    2    3    3    0    0  0.22867960391E+02 -0.28377648658E+02  0.52484663566E+01  0.54367069065E+02  0.39999965548E+02 0.  0.
         12    1    3    3    0    0 -0.22867960391E+02  0.28377648658E+02 -0.52484663566E+01  0.36820930935E+02  0.00000000000E+00 0. -1.
         11    1    4    4    0    0  0.42753446976E+01 -0.18928966854E+02  0.11424131228E+02  0.22518772902E+02  0.51100000000E-03 0. -1.
        -11    1    4    4    0    0  0.21064136296E+02 -0.13894199656E+02 -0.20827108090E+01  0.25319642702E+02  0.51100000000E-03 0.  1.
         12    1    4    4    0    0 -0.24715206020E+01  0.44455178526E+01 -0.40929540621E+01  0.65286534613E+01  0.00000000000E+00 0. -1.
</event>
<event>
 8    1  0.2458065E-006  0.9118800E+02  0.7816164E-02  0.1184000E+00
        -11   -1    0    0    0    0  0.00000000000E+00  0.00000000000E+00  0.45593999997E+02  0.45594000000E+02  0.51100000000E-03 0.  1.
         11   -1    0    0    0    0 -0.00000000000E+00 -0.00000000000E+00 -0.45593999997E+02  0.45594000000E+02  0.51100000000E-03 0. -1.
         23    2    1    2    0    0  0.66613381478E-15  0.35527136788E-14  0.00000000000E+00  0.91188000000E+02  0.91188000000E+02 0.  0.
    9900012    2    3    3    0    0  0.14501649489E+01  0.26542561559E+02 -0.25478803664E+02  0.54367082186E+02  0.39999995460E+02 0.  0.
        -12    1    3    3    0    0 -0.14501649489E+01 -0.26542561559E+02  0.25478803664E+02  0.36820917814E+02  0.00000000000E+00 0.  1.
         11    1    4    4    0    0  0.89172286835E+01  0.16196865519E+02 -0.19793946153E+01  0.18594983822E+02  0.51100000000E-03 0. -1.
        -11    1    4    4    0    0 -0.12108503008E+01  0.14052841529E+02 -0.24659137291E+02  0.28408124994E+02  0.51100000000E-03 0.  1.
        -12    1    4    4    0    0 -0.62562134337E+01 -0.37071454884E+01  0.11597282424E+01  0.73639733702E+01  0.00000000000E+00 0.  1.
</event>
<event>
 8    1  0.2458065E-006  0.9118800E+02  0.7816164E-02  0.1184000E+00
        -11   -1    0    0    0    0  0.00000000000E+00  0.00000000000E+00  0.45593999997E+02  0.45594000000E+02  0.51100000000E-03 0.  1.
         11   -1    0    0    0    0 -0.00000000000E+00 -0.00000000000E+00 -0.45593999997E+02  0.45594000000E+02  0.51100000000E-03 0. -1.
         23    2    1    2    0    0 -0.35527136788E-14 -0.35527136788E-14  0.00000000000E+00  0.91188000000E+02  0.91188000000E+02 0.  0.
    9900012    2    3    3    0    0 -0.31244566484E+02 -0.17085227649E+02 -0.93622980814E+01  0.54367074374E+02  0.39999977650E+02 0.  0.
        -12    1    3    3    0    0  0.31244566484E+02  0.17085227649E+02  0.93622980814E+01  0.36820925626E+02  0.00000000000E+00 0.  1.
         11    1    4    4    0    0 -0.21943386831E+02 -0.17771800616E+02  0.10469025090E+02  0.30115604084E+02  0.51100000000E-03 0. -1.
        -11    1    4    4    0    0 -0.28870404997E+01  0.12934771819E+01  0.23882928460E+00  0.31725582351E+01  0.51100000000E-03 0.  1.
        -12    1    4    4    0    0 -0.64141391535E+01 -0.60690421437E+00 -0.20070152456E+02  0.21078912055E+02  0.00000000000E+00 0.  1.
</event>
<event>
 8    1  0.2458065E-006  0.9118800E+02  0.7816164E-02  0.1184000E+00
        -11   -1    0    0    0    0  0.00000000000E+00  0.00000000000E+00  0.45593999997E+02  0.45594000000E+02  0.51100000000E-03 0. -1.
         11   -1    0    0    0    0 -0.00000000000E+00 -0.00000000000E+00 -0.45593999997E+02  0.45594000000E+02  0.51100000000E-03 0.  1.
         23    2    1    2    0    0 -0.35527136788E-14  0.00000000000E+00  0.88817841970E-15  0.91188000000E+02  0.91188000000E+02 0.  0.
    9900012    2    3    3    0    0  0.27020074152E+02  0.24187730098E+02  0.63756903852E+01  0.54367080371E+02  0.39999991321E+02 0.  0.
        -12    1    3    3    0    0 -0.27020074152E+02 -0.24187730098E+02 -0.63756903852E+01  0.36820919629E+02  0.00000000000E+00 0.  1.
         11    1    4    4    0    0  0.39719861285E+01  0.98564993139E+01 -0.14634644994E+02  0.18085908517E+02  0.51100000000E-03 0.  1.
        -11    1    4    4    0    0  0.12360821247E+02  0.10358830091E+02  0.18616997227E+02  0.24631034261E+02  0.51100000000E-03 0. -1.
        -12    1    4    4    0    0  0.10687266777E+02  0.39724006927E+01  0.23933381521E+01  0.11650137593E+02  0.00000000000E+00 0.  1.
</event>
<event>
 8    1  0.2458065E-006  0.9118800E+02  0.7816164E-02  0.1184000E+00
        -11   -1    0    0    0    0  0.00000000000E+00  0.00000000000E+00  0.45593999997E+02  0.45594000000E+02  0.51100000000E-03 0.  1.
         11   -1    0    0    0    0 -0.00000000000E+00 -0.00000000000E+00 -0.45593999997E+02  0.45594000000E+02  0.51100000000E-03 0. -1.
         23    2    1    2    0    0  0.35527136788E-14 -0.35527136788E-14 -0.17763568394E-14  0.91188000000E+02  0.91188000000E+02 0.  0.
    9900012    2    3    3    0    0  0.26854373897E+02 -0.19643401895E+02 -0.15772195694E+02  0.54367044114E+02  0.39999908666E+02 0.  0.
        -12    1    3    3    0    0 -0.26854373897E+02  0.19643401895E+02  0.15772195694E+02  0.36820955886E+02  0.00000000000E+00 0.  1.
         11    1    4    4    0    0  0.39536276356E+01 -0.12607964766E+02 -0.13006752168E+02  0.18540969479E+02  0.51100000000E-03 0. -1.
        -11    1    4    4    0    0  0.24186759001E+01 -0.57534628440E+01 -0.11842240448E+02  0.13386223773E+02  0.51100000000E-03 0.  1.
        -12    1    4    4    0    0  0.20482070361E+02 -0.12819742848E+01  0.90767969220E+01  0.22439850862E+02  0.00000000000E+00 0.  1.
</event>
<event>
 8    1  0.2458065E-006  0.9118800E+02  0.7816164E-02  0.1184000E+00
        -11   -1    0    0    0    0  0.00000000000E+00  0.00000000000E+00  0.45593999997E+02  0.45594000000E+02  0.51100000000E-03 0. -1.
         11   -1    0    0    0    0 -0.00000000000E+00 -0.00000000000E+00 -0.45593999997E+02  0.45594000000E+02  0.51100000000E-03 0.  1.
         23    2    1    2    0    0  0.17763568394E-14 -0.35527136788E-14  0.00000000000E+00  0.91188000000E+02  0.91188000000E+02 0.  0.
    9900012    2    3    3    0    0  0.86811387030E+01 -0.23310479144E+02 -0.27148466422E+02  0.54367084257E+02  0.40000000180E+02 0.  0.
         12    1    3    3    0    0 -0.86811387030E+01  0.23310479144E+02  0.27148466422E+02  0.36820915743E+02  0.00000000000E+00 0. -1.
         11    1    4    4    0    0  0.11613820488E+02 -0.27800147830E+02 -0.73714764567E+01  0.31017216366E+02  0.51100000000E-03 0. -1.
        -11    1    4    4    0    0 -0.20360653379E+00 -0.37382797092E+01 -0.58581700180E+01  0.69522907754E+01  0.51100000000E-03 0.  1.
         12    1    4    4    0    0 -0.27290752513E+01  0.82279483948E+01 -0.13918819948E+02  0.16397577115E+02  0.00000000000E+00 0. -1.
</event>
<event>
 8    1  0.2458065E-006  0.9118800E+02  0.7816164E-02  0.1184000E+00
        -11   -1    0    0    0    0  0.00000000000E+00  0.00000000000E+00  0.45593999997E+02  0.45594000000E+02  0.51100000000E-03 0.  1.
         11   -1    0    0    0    0 -0.00000000000E+00 -0.00000000000E+00 -0.45593999997E+02  0.45594000000E+02  0.51100000000E-03 0. -1.
         23    2    1    2    0    0  0.00000000000E+00  0.00000000000E+00  0.71054273576E-14  0.91188000000E+02  0.91188000000E+02 0.  0.
    9900012    2    3    3    0    0 -0.10078879730E+02 -0.10329811644E+02  0.33874623441E+02  0.54367096447E+02  0.40000027970E+02 0.  0.
         12    1    3    3    0    0  0.10078879730E+02  0.10329811644E+02 -0.33874623441E+02  0.36820903553E+02  0.00000000000E+00 0. -1.
         11    1    4    4    0    0 -0.14630190142E+02  0.79723360580E+00  0.31129596637E+02  0.34405375046E+02  0.51100000000E-03 0. -1.
        -11    1    4    4    0    0 -0.81715872288E+00 -0.13682079161E+01  0.76335481116E+01  0.77981278724E+01  0.51100000000E-03 0.  1.
        -12    1    4    4    0    0  0.53684691351E+01 -0.97588373334E+01 -0.48885213076E+01  0.12163593529E+02  0.00000000000E+00 0.  1.
</event>
<event>
 8    1  0.2458065E-006  0.9118800E+02  0.7816164E-02  0.1184000E+00
        -11   -1    0    0    0    0  0.00000000000E+00  0.00000000000E+00  0.45593999997E+02  0.45594000000E+02  0.51100000000E-03 0.  1.
         11   -1    0    0    0    0 -0.00000000000E+00 -0.00000000000E+00 -0.45593999997E+02  0.45594000000E+02  0.51100000000E-03 0. -1.
         23    2    1    2    0    0  0.00000000000E+00 -0.15265566589E-14  0.00000000000E+00  0.91188000000E+02  0.91188000000E+02 0.  0.
    9900012    2    3    3    0    0  0.18578301427E+02  0.16184751843E+00 -0.31789915443E+02  0.54367106442E+02  0.40000050756E+02 0.  0.
        -12    1    3    3    0    0 -0.18578301427E+02 -0.16184751843E+00  0.31789915443E+02  0.36820893558E+02  0.00000000000E+00 0.  1.
         11    1    4    4    0    0  0.10280854778E+02  0.79292024957E+01 -0.10637067468E+02  0.16784380589E+02  0.51100000000E-03 0. -1.
        -11    1    4    4    0    0  0.47422679532E+01 -0.15370572002E+02 -0.23849314485E+02  0.28766880100E+02  0.51100000000E-03 0.  1.
         12    1    4    4    0    0  0.35551786963E+01  0.76032170248E+01  0.26964665108E+01  0.88158457525E+01  0.00000000000E+00 0. -1.
</event>
<event>
 8    1  0.2458065E-006  0.9118800E+02  0.7816164E-02  0.1184000E+00
        -11   -1    0    0    0    0  0.00000000000E+00  0.00000000000E+00  0.45593999997E+02  0.45594000000E+02  0.51100000000E-03 0. -1.
         11   -1    0    0    0    0 -0.00000000000E+00 -0.00000000000E+00 -0.45593999997E+02  0.45594000000E+02  0.51100000000E-03 0.  1.
         23    2    1    2    0    0  0.17763568394E-14 -0.35527136788E-14  0.00000000000E+00  0.91188000000E+02  0.91188000000E+02 0.  0.
    9900012    2    3    3    0    0 -0.43904357939E+01 -0.26775427546E+02 -0.24891416206E+02  0.54367054229E+02  0.39999931726E+02 0.  0.
         12    1    3    3    0    0  0.43904357939E+01  0.26775427546E+02  0.24891416206E+02  0.36820945771E+02  0.00000000000E+00 0. -1.
         11    1    4    4    0    0  0.12025999741E+02 -0.49753471080E+01 -0.13641878533E+02  0.18854166617E+02  0.51100000000E-03 0. -1.
        -11    1    4    4    0    0 -0.68617859171E+01 -0.19060470459E+02 -0.14658230596E+02  0.25004986794E+02  0.51100000000E-03 0.  1.
         12    1    4    4    0    0 -0.95546496183E+01 -0.27396099797E+01  0.34086929238E+01  0.10507900819E+02  0.00000000000E+00 0. -1.
</event>
<event>
 8    1  0.2458065E-006  0.9118800E+02  0.7816164E-02  0.1184000E+00
        -11   -1    0    0    0    0  0.00000000000E+00  0.00000000000E+00  0.45593999997E+02  0.45594000000E+02  0.51100000000E-03 0. -1.
         11   -1    0    0    0    0 -0.00000000000E+00 -0.00000000000E+00 -0.45593999997E+02  0.45594000000E+02  0.51100000000E-03 0.  1.
         23    2    1    2    0    0  0.00000000000E+00  0.00000000000E+00  0.00000000000E+00  0.91188000000E+02  0.91188000000E+02 0.  0.
    9900012    2    3    3    0    0  0.55546185433E+01 -0.12587955026E+02  0.34153607108E+02  0.54367091845E+02  0.40000017479E+02 0.  0.
        -12    1    3    3    0    0 -0.55546185433E+01  0.12587955026E+02 -0.34153607108E+02  0.36820908155E+02  0.00000000000E+00 0.  1.
         11    1    4    4    0    0  0.83943843326E+01 -0.71344324559E+01  0.25232568033E+02  0.27532677033E+02  0.51100000000E-03 0. -1.
        -11    1    4    4    0    0  0.25096437488E+00 -0.62501870297E+01 -0.76938096455E+01  0.99157716868E+01  0.51100000000E-03 0.  1.
        -12    1    4    4    0    0 -0.30907301642E+01  0.79666446008E+00  0.16614848720E+02  0.16918643125E+02  0.00000000000E+00 0.  1.
</event>
<event>
 8    1  0.2458065E-006  0.9118800E+02  0.7816164E-02  0.1184000E+00
        -11   -1    0    0    0    0  0.00000000000E+00  0.00000000000E+00  0.45593999997E+02  0.45594000000E+02  0.51100000000E-03 0. -1.
         11   -1    0    0    0    0 -0.00000000000E+00 -0.00000000000E+00 -0.45593999997E+02  0.45594000000E+02  0.51100000000E-03 0.  1.
         23    2    1    2    0    0 -0.88817841970E-15 -0.35527136788E-14  0.00000000000E+00  0.91188000000E+02  0.91188000000E+02 0.  0.
    9900012    2    3    3    0    0  0.97898397441E+00  0.31235002627E+02 -0.19473075194E+02  0.54367021520E+02  0.39999857159E+02 0.  0.
         12    1    3    3    0    0 -0.97898397441E+00 -0.31235002627E+02  0.19473075194E+02  0.36820978480E+02  0.00000000000E+00 0. -1.
         11    1    4    4    0    0  0.96325432568E+01 -0.46836996394E+01 -0.27958232371E+01  0.11069758793E+02  0.51100000000E-03 0. -1.
        -11    1    4    4    0    0 -0.18038231099E+01  0.49676784780E+01  0.29108506276E+01  0.60336273427E+01  0.51100000000E-03 0.  1.
        -12    1    4    4    0    0 -0.68497361726E+01  0.30951023788E+02 -0.19588102585E+02  0.37263635384E+02  0.00000000000E+00 0.  1.
</event>
<event>
 8    1  0.2458065E-006  0.9118800E+02  0.7816164E-02  0.1184000E+00
        -11   -1    0    0    0    0  0.00000000000E+00  0.00000000000E+00  0.45593999997E+02  0.45594000000E+02  0.51100000000E-03 0.  1.
         11   -1    0    0    0    0 -0.00000000000E+00 -0.00000000000E+00 -0.45593999997E+02  0.45594000000E+02  0.51100000000E-03 0. -1.
         23    2    1    2    0    0 -0.10842021725E-15  0.00000000000E+00  0.10658141036E-13  0.91188000000E+02  0.91188000000E+02 0.  0.
    9900012    2    3    3    0    0  0.12714540554E-02  0.20649733411E+02 -0.30485575534E+02  0.54367057492E+02  0.39999939165E+02 0.  0.
        -12    1    3    3    0    0 -0.12714540554E-02 -0.20649733411E+02  0.30485575534E+02  0.36820942508E+02  0.00000000000E+00 0.  1.
         11    1    4    4    0    0 -0.44271369877E+00  0.23495010770E+02 -0.76217873217E+01  0.24704314780E+02  0.51100000000E-03 0. -1.
        -11    1    4    4    0    0 -0.13307693487E+01  0.78972466640E+01 -0.95363546215E+01  0.12453092454E+02  0.51100000000E-03 0.  1.
        -12    1    4    4    0    0  0.17747545016E+01 -0.10742524023E+02 -0.13327433591E+02  0.17209650259E+02  0.00000000000E+00 0.  1.
</event>
<event>
 8    1  0.2458065E-006  0.9118800E+02  0.7816164E-02  0.1184000E+00
        -11   -1    0    0    0    0  0.00000000000E+00  0.00000000000E+00  0.45593999997E+02  0.45594000000E+02  0.51100000000E-03 0. -1.
         11   -1    0    0    0    0 -0.00000000000E+00 -0.00000000000E+00 -0.45593999997E+02  0.45594000000E+02  0.51100000000E-03 0.  1.
         23    2    1    2    0    0 -0.35527136788E-14  0.35527136788E-14  0.00000000000E+00  0.91188000000E+02  0.91188000000E+02 0.  0.
    9900012    2    3    3    0    0  0.17582912757E+02 -0.18899510712E+02 -0.26256991599E+02  0.54367082928E+02  0.39999997151E+02 0.  0.
         12    1    3    3    0    0 -0.17582912757E+02  0.18899510712E+02  0.26256991599E+02  0.36820917072E+02  0.00000000000E+00 0. -1.
         11    1    4    4    0    0 -0.30144854106E+01 -0.16160001960E+02 -0.21824995217E+02  0.27323308769E+02  0.51100000000E-03 0. -1.
        -11    1    4    4    0    0  0.14794080648E+02 -0.28715047940E+01 -0.10713923779E+02  0.18490498235E+02  0.51100000000E-03 0.  1.
        -12    1    4    4    0    0  0.58033175205E+01  0.13199604142E+00  0.62819273970E+01  0.85532759233E+01  0.00000000000E+00 0.  1.
</event>
<event>
 8    1  0.2458065E-006  0.9118800E+02  0.7816164E-02  0.1184000E+00
        -11   -1    0    0    0    0  0.00000000000E+00  0.00000000000E+00  0.45593999997E+02  0.45594000000E+02  0.51100000000E-03 0.  1.
         11   -1    0    0    0    0 -0.00000000000E+00 -0.00000000000E+00 -0.45593999997E+02  0.45594000000E+02  0.51100000000E-03 0. -1.
         23    2    1    2    0    0  0.00000000000E+00  0.00000000000E+00  0.35527136788E-14  0.91188000000E+02  0.91188000000E+02 0.  0.
    9900012    2    3    3    0    0 -0.26354850204E+02 -0.13931240035E+02  0.21612992515E+02  0.54367095290E+02  0.40000025334E+02 0.  0.
         12    1    3    3    0    0  0.26354850204E+02  0.13931240035E+02 -0.21612992515E+02  0.36820904710E+02  0.00000000000E+00 0. -1.
         11    1    4    4    0    0 -0.11974799787E+01  0.33402257990E+01  0.12648887356E+02  0.13137176953E+02  0.51100000000E-03 0. -1.
        -11    1    4    4    0    0  0.51902979174E+01 -0.53972792407E+01  0.31676675988E+01  0.81304325808E+01  0.51100000000E-03 0.  1.
        -12    1    4    4    0    0 -0.30347668143E+02 -0.11874186593E+02  0.57964375595E+01  0.33099485756E+02  0.00000000000E+00 0.  1.
</event>
<event>
 8    1  0.2458065E-006  0.9118800E+02  0.7816164E-02  0.1184000E+00
        -11   -1    0    0    0    0  0.00000000000E+00  0.00000000000E+00  0.45593999997E+02  0.45594000000E+02  0.51100000000E-03 0.  1.
         11   -1    0    0    0    0 -0.00000000000E+00 -0.00000000000E+00 -0.45593999997E+02  0.45594000000E+02  0.51100000000E-03 0. -1.
         23    2    1    2    0    0  0.00000000000E+00 -0.35527136788E-14 -0.35527136788E-14  0.91188000000E+02  0.91188000000E+02 0.  0.
    9900012    2    3    3    0    0 -0.18917257962E+02  0.21017543181E+02  0.23583341559E+02  0.54367166641E+02  0.40000187991E+02 0.  0.
        -12    1    3    3    0    0  0.18917257962E+02 -0.21017543181E+02 -0.23583341559E+02  0.36820833359E+02  0.00000000000E+00 0.  1.
         11    1    4    4    0    0  0.27156392967E+01 -0.17800009890E+01 -0.46516960872E+01  0.56728632153E+01  0.51100000000E-03 0.  1.
        -11    1    4    4    0    0 -0.13578689072E+02  0.15775401130E+02  0.26688668973E+01  0.20984921455E+02  0.51100000000E-03 0. -1.
        -12    1    4    4    0    0 -0.80542081869E+01  0.70221430406E+01  0.25566170749E+02  0.27709381970E+02  0.00000000000E+00 0.  1.
</event>
<event>
 8    1  0.2458065E-006  0.9118800E+02  0.7816164E-02  0.1184000E+00
        -11   -1    0    0    0    0  0.00000000000E+00  0.00000000000E+00  0.45593999997E+02  0.45594000000E+02  0.51100000000E-03 0. -1.
         11   -1    0    0    0    0 -0.00000000000E+00 -0.00000000000E+00 -0.45593999997E+02  0.45594000000E+02  0.51100000000E-03 0.  1.
         23    2    1    2    0    0  0.35527136788E-14  0.00000000000E+00  0.00000000000E+00  0.91188000000E+02  0.91188000000E+02 0.  0.
    9900012    2    3    3    0    0  0.30455183834E+02 -0.11495160284E+02 -0.17208232118E+02  0.54367079521E+02  0.39999989383E+02 0.  0.
        -12    1    3    3    0    0 -0.30455183834E+02  0.11495160284E+02  0.17208232118E+02  0.36820920479E+02  0.00000000000E+00 0.  1.
         11    1    4    4    0    0  0.63602892579E+01 -0.38163919937E+01 -0.57386083111E+00  0.74395862659E+01  0.51100000000E-03 0. -1.
        -11    1    4    4    0    0 -0.60959895200E+01 -0.10579082581E+02 -0.10229752810E+02  0.15928776454E+02  0.51100000000E-03 0.  1.
        -12    1    4    4    0    0  0.30190884096E+02  0.29003142909E+01 -0.64046184762E+01  0.30998716801E+02  0.00000000000E+00 0.  1.
</event>
<event>
 8    1  0.2458065E-006  0.9118800E+02  0.7816164E-02  0.1184000E+00
        -11   -1    0    0    0    0  0.00000000000E+00  0.00000000000E+00  0.45593999997E+02  0.45594000000E+02  0.51100000000E-03 0. -1.
         11   -1    0    0    0    0 -0.00000000000E+00 -0.00000000000E+00 -0.45593999997E+02  0.45594000000E+02  0.51100000000E-03 0.  1.
         23    2    1    2    0    0  0.35527136788E-14  0.00000000000E+00  0.00000000000E+00  0.91188000000E+02  0.91188000000E+02 0.  0.
    9900012    2    3    3    0    0  0.24285753409E+02 -0.13961169508E+02  0.23897014552E+02  0.54367090489E+02  0.40000014389E+02 0.  0.
         12    1    3    3    0    0 -0.24285753409E+02  0.13961169508E+02 -0.23897014552E+02  0.36820909511E+02  0.00000000000E+00 0. -1.
         11    1    4    4    0    0  0.13293390408E+01 -0.90933885246E+00 -0.63643364727E+01  0.65649690352E+01  0.51100000000E-03 0. -1.
        -11    1    4    4    0    0  0.18927220203E+02  0.27389858408E+01  0.93420144867E+01  0.21284147692E+02  0.51100000000E-03 0.  1.
         12    1    4    4    0    0  0.40291941649E+01 -0.15790816496E+02  0.20919336538E+02  0.26517973762E+02  0.00000000000E+00 0. -1.
</event>
<event>
 8    1  0.2458065E-006  0.9118800E+02  0.7816164E-02  0.1184000E+00
        -11   -1    0    0    0    0  0.00000000000E+00  0.00000000000E+00  0.45593999997E+02  0.45594000000E+02  0.51100000000E-03 0. -1.
         11   -1    0    0    0    0 -0.00000000000E+00 -0.00000000000E+00 -0.45593999997E+02  0.45594000000E+02  0.51100000000E-03 0.  1.
         23    2    1    2    0    0  0.00000000000E+00  0.00000000000E+00  0.00000000000E+00  0.91188000000E+02  0.91188000000E+02 0.  0.
    9900012    2    3    3    0    0  0.32084567154E+02  0.17787612137E+02  0.31557758088E+01  0.54367115764E+02  0.40000072007E+02 0.  0.
         12    1    3    3    0    0 -0.32084567154E+02 -0.17787612137E+02 -0.31557758088E+01  0.36820884236E+02  0.00000000000E+00 0. -1.
         11    1    4    4    0    0  0.16607894770E+02  0.11891878678E+02  0.68666864980E+01  0.21549717652E+02  0.51100000000E-03 0. -1.
        -11    1    4    4    0    0  0.62710295955E+01  0.16523453062E+02 -0.58041884327E+01  0.18602121301E+02  0.51100000000E-03 0.  1.
         12    1    4    4    0    0  0.92056427883E+01 -0.10627719602E+02  0.20932777434E+01  0.14215276811E+02  0.00000000000E+00 0. -1.
</event>
<event>
 8    1  0.2458065E-006  0.9118800E+02  0.7816164E-02  0.1184000E+00
        -11   -1    0    0    0    0  0.00000000000E+00  0.00000000000E+00  0.45593999997E+02  0.45594000000E+02  0.51100000000E-03 0. -1.
         11   -1    0    0    0    0 -0.00000000000E+00 -0.00000000000E+00 -0.45593999997E+02  0.45594000000E+02  0.51100000000E-03 0.  1.
         23    2    1    2    0    0 -0.17763568394E-14  0.00000000000E+00  0.00000000000E+00  0.91188000000E+02  0.91188000000E+02 0.  0.
    9900012    2    3    3    0    0 -0.40559096184E+01  0.23813264397E+02 -0.27789525461E+02  0.54367086249E+02  0.40000004722E+02 0.  0.
         12    1    3    3    0    0  0.40559096184E+01 -0.23813264397E+02  0.27789525461E+02  0.36820913751E+02  0.00000000000E+00 0. -1.
         11    1    4    4    0    0  0.12933799928E+01 -0.41347805641E+01  0.21797445381E+01  0.48497967619E+01  0.51100000000E-03 0.  1.
        -11    1    4    4    0    0  0.42507233756E+01  0.38418717063E+01  0.38410408474E+01  0.68979868422E+01  0.51100000000E-03 0. -1.
        -12    1    4    4    0    0 -0.96000129868E+01  0.24106173255E+02 -0.33810310847E+02  0.42619302645E+02  0.00000000000E+00 0.  1.
</event>
<event>
 8    1  0.2458065E-006  0.9118800E+02  0.7816164E-02  0.1184000E+00
        -11   -1    0    0    0    0  0.00000000000E+00  0.00000000000E+00  0.45593999997E+02  0.45594000000E+02  0.51100000000E-03 0.  1.
         11   -1    0    0    0    0 -0.00000000000E+00 -0.00000000000E+00 -0.45593999997E+02  0.45594000000E+02  0.51100000000E-03 0. -1.
         23    2    1    2    0    0  0.35527136788E-14  0.88817841970E-15  0.00000000000E+00  0.91188000000E+02  0.91188000000E+02 0.  0.
    9900012    2    3    3    0    0 -0.28036806650E+02  0.33541144411E+01  0.23631898281E+02  0.54367092527E+02  0.40000019033E+02 0.  0.
         12    1    3    3    0    0  0.28036806650E+02 -0.33541144411E+01 -0.23631898281E+02  0.36820907473E+02  0.00000000000E+00 0. -1.
         11    1    4    4    0    0  0.27785385923E+01  0.44538368040E+01  0.33299571877E+00  0.52600214254E+01  0.51100000000E-03 0. -1.
        -11    1    4    4    0    0 -0.35741171931E+02  0.93261652668E+00  0.24869053798E+02  0.43551934304E+02  0.51100000000E-03 0.  1.
        -12    1    4    4    0    0  0.49258266887E+01 -0.20323388896E+01 -0.15701512358E+01  0.55551367970E+01  0.00000000000E+00 0.  1.
</event>
<event>
 8    1  0.2458065E-006  0.9118800E+02  0.7816164E-02  0.1184000E+00
        -11   -1    0    0    0    0  0.00000000000E+00  0.00000000000E+00  0.45593999997E+02  0.45594000000E+02  0.51100000000E-03 0. -1.
         11   -1    0    0    0    0 -0.00000000000E+00 -0.00000000000E+00 -0.45593999997E+02  0.45594000000E+02  0.51100000000E-03 0.  1.
         23    2    1    2    0    0 -0.71054273576E-14  0.17763568394E-14  0.00000000000E+00  0.91188000000E+02  0.91188000000E+02 0.  0.
    9900012    2    3    3    0    0  0.34015757610E+02 -0.11176366762E+02 -0.85905345647E+01  0.54367078992E+02  0.39999988179E+02 0.  0.
        -12    1    3    3    0    0 -0.34015757610E+02  0.11176366762E+02  0.85905345647E+01  0.36820921008E+02  0.00000000000E+00 0.  1.
         11    1    4    4    0    0  0.13951025611E+02 -0.13187352162E+02 -0.11096190653E+02  0.22173471084E+02  0.51100000000E-03 0.  1.
        -11    1    4    4    0    0  0.82940271318E+01 -0.96261836599E+01 -0.54534647207E+01  0.13827312669E+02  0.51100000000E-03 0. -1.
        -12    1    4    4    0    0  0.11770704867E+02  0.11637169060E+02  0.79591208089E+01  0.18366295240E+02  0.00000000000E+00 0.  1.
</event>
<event>
 8    1  0.2458065E-006  0.9118800E+02  0.7816164E-02  0.1184000E+00
        -11   -1    0    0    0    0  0.00000000000E+00  0.00000000000E+00  0.45593999997E+02  0.45594000000E+02  0.51100000000E-03 0.  1.
         11   -1    0    0    0    0 -0.00000000000E+00 -0.00000000000E+00 -0.45593999997E+02  0.45594000000E+02  0.51100000000E-03 0. -1.
         23    2    1    2    0    0 -0.17763568394E-14 -0.88817841970E-15 -0.71054273576E-14  0.91188000000E+02  0.91188000000E+02 0.  0.
    9900012    2    3    3    0    0 -0.15794086749E+02 -0.57456310952E+01  0.32761485584E+02  0.54367076728E+02  0.39999983017E+02 0.  0.
         12    1    3    3    0    0  0.15794086749E+02  0.57456310952E+01 -0.32761485584E+02  0.36820923272E+02  0.00000000000E+00 0. -1.
         11    1    4    4    0    0  0.69178821910E+01 -0.55149257264E+01  0.91203205818E+01  0.12706366418E+02  0.51100000000E-03 0. -1.
        -11    1    4    4    0    0 -0.17490910334E+00  0.95320420467E+01  0.46109203619E+01  0.10590137186E+02  0.51100000000E-03 0.  1.
         12    1    4    4    0    0 -0.22537059837E+02 -0.97627474155E+01  0.19030244640E+02  0.31070573124E+02  0.00000000000E+00 0. -1.
</event>
<event>
 8    1  0.2458065E-006  0.9118800E+02  0.7816164E-02  0.1184000E+00
        -11   -1    0    0    0    0  0.00000000000E+00  0.00000000000E+00  0.45593999997E+02  0.45594000000E+02  0.51100000000E-03 0. -1.
         11   -1    0    0    0    0 -0.00000000000E+00 -0.00000000000E+00 -0.45593999997E+02  0.45594000000E+02  0.51100000000E-03 0.  1.
         23    2    1    2    0    0  0.00000000000E+00  0.00000000000E+00  0.00000000000E+00  0.91188000000E+02  0.91188000000E+02 0.  0.
    9900012    2    3    3    0    0 -0.19752652658E+02  0.29447608153E+02  0.99222401099E+01  0.54367085268E+02  0.40000002485E+02 0.  0.
        -12    1    3    3    0    0  0.19752652658E+02 -0.29447608153E+02 -0.99222401099E+01  0.36820914732E+02  0.00000000000E+00 0.  1.
         11    1    4    4    0    0 -0.44224894384E+01  0.19973411415E+02 -0.15059185630E+01  0.20512517334E+02  0.51100000000E-03 0. -1.
        -11    1    4    4    0    0 -0.15522642285E+02 -0.10962671999E+01 -0.31196697560E+01  0.15870934596E+02  0.51100000000E-03 0.  1.
         12    1    4    4    0    0  0.19247906608E+00  0.10570463938E+02  0.14547828429E+02  0.17983633338E+02  0.00000000000E+00 0. -1.
</event>
<event>
 8    1  0.2458065E-006  0.9118800E+02  0.7816164E-02  0.1184000E+00
        -11   -1    0    0    0    0  0.00000000000E+00  0.00000000000E+00  0.45593999997E+02  0.45594000000E+02  0.51100000000E-03 0.  1.
         11   -1    0    0    0    0 -0.00000000000E+00 -0.00000000000E+00 -0.45593999997E+02  0.45594000000E+02  0.51100000000E-03 0. -1.
         23    2    1    2    0    0  0.00000000000E+00  0.17763568394E-14  0.88817841970E-15  0.91188000000E+02  0.91188000000E+02 0.  0.
    9900012    2    3    3    0    0  0.34881174470E+02  0.87692274921E+01 -0.78856687600E+01  0.54367089433E+02  0.40000011980E+02 0.  0.
        -12    1    3    3    0    0 -0.34881174470E+02 -0.87692274921E+01  0.78856687600E+01  0.36820910567E+02  0.00000000000E+00 0.  1.
         11    1    4    4    0    0  0.15727397431E+02  0.16133254062E+02 -0.39458630777E+01  0.22873625692E+02  0.51100000000E-03 0. -1.
        -11    1    4    4    0    0  0.28795181339E+01 -0.10546882066E+02 -0.89948199014E+01  0.14157511481E+02  0.51100000000E-03 0.  1.
        -12    1    4    4    0    0  0.16274258905E+02  0.31828554960E+01  0.50550142191E+01  0.17335952260E+02  0.00000000000E+00 0.  1.
</event>
<event>
 8    1  0.2458065E-006  0.9118800E+02  0.7816164E-02  0.1184000E+00
        -11   -1    0    0    0    0  0.00000000000E+00  0.00000000000E+00  0.45593999997E+02  0.45594000000E+02  0.51100000000E-03 0.  1.
         11   -1    0    0    0    0 -0.00000000000E+00 -0.00000000000E+00 -0.45593999997E+02  0.45594000000E+02  0.51100000000E-03 0. -1.
         23    2    1    2    0    0  0.00000000000E+00  0.00000000000E+00 -0.35527136788E-14  0.91188000000E+02  0.91188000000E+02 0.  0.
    9900012    2    3    3    0    0  0.29242453622E+02  0.44213969013E+01 -0.21934077908E+02  0.54367168694E+02  0.40000192671E+02 0.  0.
        -12    1    3    3    0    0 -0.29242453622E+02 -0.44213969013E+01  0.21934077908E+02  0.36820831306E+02  0.00000000000E+00 0.  1.
         11    1    4    4    0    0  0.42947154673E+01  0.90836802181E+00  0.74960481487E+01  0.86867975409E+01  0.51100000000E-03 0. -1.
        -11    1    4    4    0    0  0.19288878830E+02  0.66428409859E+01 -0.58402642111E+01  0.21220199556E+02  0.51100000000E-03 0.  1.
        -12    1    4    4    0    0  0.56588593248E+01 -0.31298121065E+01 -0.23589861846E+02  0.24460171598E+02  0.00000000000E+00 0.  1.
</event>
<event>
 8    1  0.2458065E-006  0.9118800E+02  0.7816164E-02  0.1184000E+00
        -11   -1    0    0    0    0  0.00000000000E+00  0.00000000000E+00  0.45593999997E+02  0.45594000000E+02  0.51100000000E-03 0.  1.
         11   -1    0    0    0    0 -0.00000000000E+00 -0.00000000000E+00 -0.45593999997E+02  0.45594000000E+02  0.51100000000E-03 0. -1.
         23    2    1    2    0    0  0.00000000000E+00  0.00000000000E+00  0.18873791419E-14  0.91188000000E+02  0.91188000000E+02 0.  0.
    9900012    2    3    3    0    0 -0.18215031533E+02 -0.31990829874E+02 -0.76113188044E+00  0.54367083505E+02  0.39999998467E+02 0.  0.
         12    1    3    3    0    0  0.18215031533E+02  0.31990829874E+02  0.76113188044E+00  0.36820916495E+02  0.00000000000E+00 0. -1.
         11    1    4    4    0    0 -0.41671413980E+00 -0.16810914438E+02 -0.53350490871E+00  0.16824539300E+02  0.51100000000E-03 0. -1.
        -11    1    4    4    0    0 -0.14380085947E+02 -0.17448707606E+02  0.11321206348E+02  0.25286636439E+02  0.51100000000E-03 0.  1.
        -12    1    4    4    0    0 -0.34182314466E+01  0.22687921701E+01 -0.11548833319E+02  0.12255907766E+02  0.00000000000E+00 0.  1.
</event>
<event>
 8    1  0.2458065E-006  0.9118800E+02  0.7816164E-02  0.1184000E+00
        -11   -1    0    0    0    0  0.00000000000E+00  0.00000000000E+00  0.45593999997E+02  0.45594000000E+02  0.51100000000E-03 0. -1.
         11   -1    0    0    0    0 -0.00000000000E+00 -0.00000000000E+00 -0.45593999997E+02  0.45594000000E+02  0.51100000000E-03 0.  1.
         23    2    1    2    0    0 -0.17763568394E-14  0.35527136788E-14  0.00000000000E+00  0.91188000000E+02  0.91188000000E+02 0.  0.
    9900012    2    3    3    0    0  0.12522097801E+02 -0.23219144977E+02 -0.25687582420E+02  0.54367034269E+02  0.39999886222E+02 0.  0.
         12    1    3    3    0    0 -0.12522097801E+02  0.23219144977E+02  0.25687582420E+02  0.36820965731E+02  0.00000000000E+00 0. -1.
         11    1    4    4    0    0  0.41916865153E+01 -0.13461737402E+02  0.50958230634E+01  0.14991865217E+02  0.51100000000E-03 0. -1.
        -11    1    4    4    0    0 -0.14627195863E+01  0.53194700564E+01 -0.12838405417E+02  0.13973580937E+02  0.51100000000E-03 0.  1.
        -12    1    4    4    0    0  0.97931308723E+01 -0.15076877630E+02 -0.17945000066E+02  0.25401588115E+02  0.00000000000E+00 0.  1.
</event>
<event>
 8    1  0.2458065E-006  0.9118800E+02  0.7816164E-02  0.1184000E+00
        -11   -1    0    0    0    0  0.00000000000E+00  0.00000000000E+00  0.45593999997E+02  0.45594000000E+02  0.51100000000E-03 0. -1.
         11   -1    0    0    0    0 -0.00000000000E+00 -0.00000000000E+00 -0.45593999997E+02  0.45594000000E+02  0.51100000000E-03 0.  1.
         23    2    1    2    0    0  0.00000000000E+00  0.28865798640E-14 -0.35527136788E-14  0.91188000000E+02  0.91188000000E+02 0.  0.
    9900012    2    3    3    0    0  0.27951042172E+02 -0.63081536156E+00  0.23960852805E+02  0.54367066366E+02  0.39999959395E+02 0.  0.
        -12    1    3    3    0    0 -0.27951042172E+02  0.63081536156E+00 -0.23960852805E+02  0.36820933634E+02  0.00000000000E+00 0.  1.
         11    1    4    4    0    0  0.24206011774E+02  0.45787297559E+01  0.17905926233E+02  0.30455179636E+02  0.51100000000E-03 0. -1.
        -11    1    4    4    0    0  0.34521911270E+01 -0.13912929601E+02  0.27421627229E+01  0.14594748724E+02  0.51100000000E-03 0.  1.
        -12    1    4    4    0    0  0.29283927119E+00  0.87033844834E+01  0.33127638495E+01  0.93171380062E+01  0.00000000000E+00 0.  1.
</event>
<event>
 8    1  0.2458065E-006  0.9118800E+02  0.7816164E-02  0.1184000E+00
        -11   -1    0    0    0    0  0.00000000000E+00  0.00000000000E+00  0.45593999997E+02  0.45594000000E+02  0.51100000000E-03 0. -1.
         11   -1    0    0    0    0 -0.00000000000E+00 -0.00000000000E+00 -0.45593999997E+02  0.45594000000E+02  0.51100000000E-03 0.  1.
         23    2    1    2    0    0  0.00000000000E+00  0.88817841970E-15  0.88817841970E-15  0.91188000000E+02  0.91188000000E+02 0.  0.
    9900012    2    3    3    0    0 -0.35993927936E+02 -0.14664076504E+01 -0.76201897473E+01  0.54367075359E+02  0.39999979895E+02 0.  0.
         12    1    3    3    0    0  0.35993927936E+02  0.14664076504E+01  0.76201897473E+01  0.36820924641E+02  0.00000000000E+00 0. -1.
         11    1    4    4    0    0 -0.82424535992E+01 -0.14812386456E+02  0.60183072322E+01  0.17987908607E+02  0.51100000000E-03 0. -1.
        -11    1    4    4    0    0 -0.25921753308E+02  0.13176391110E+02 -0.16153837357E+02  0.33264110372E+02  0.51100000000E-03 0.  1.
         12    1    4    4    0    0 -0.18297210285E+01  0.16958769571E+00  0.25153403775E+01  0.31150563789E+01  0.00000000000E+00 0. -1.
</event>
<event>
 8    1  0.2458065E-006  0.9118800E+02  0.7816164E-02  0.1184000E+00
        -11   -1    0    0    0    0  0.00000000000E+00  0.00000000000E+00  0.45593999997E+02  0.45594000000E+02  0.51100000000E-03 0. -1.
         11   -1    0    0    0    0 -0.00000000000E+00 -0.00000000000E+00 -0.45593999997E+02  0.45594000000E+02  0.51100000000E-03 0.  1.
         23    2    1    2    0    0  0.00000000000E+00  0.00000000000E+00 -0.17763568394E-14  0.91188000000E+02  0.91188000000E+02 0.  0.
    9900012    2    3    3    0    0 -0.12404205346E+02 -0.32220555132E+02 -0.12796545558E+02  0.54367081197E+02  0.39999993206E+02 0.  0.
         12    1    3    3    0    0  0.12404205346E+02  0.32220555132E+02  0.12796545558E+02  0.36820918803E+02  0.00000000000E+00 0. -1.
         11    1    4    4    0    0 -0.17705912081E+02 -0.21169587521E+02 -0.16912971055E+02  0.32368184202E+02  0.51100000000E-03 0. -1.
        -11    1    4    4    0    0 -0.45860921039E+01 -0.52666944081E+01 -0.39172978329E+01  0.80072175784E+01  0.51100000000E-03 0.  1.
         12    1    4    4    0    0  0.98877988390E+01 -0.57842732029E+01  0.80337233293E+01  0.13991679417E+02  0.00000000000E+00 0. -1.
</event>
<event>
 8    1  0.2458065E-006  0.9118800E+02  0.7816164E-02  0.1184000E+00
        -11   -1    0    0    0    0  0.00000000000E+00  0.00000000000E+00  0.45593999997E+02  0.45594000000E+02  0.51100000000E-03 0. -1.
         11   -1    0    0    0    0 -0.00000000000E+00 -0.00000000000E+00 -0.45593999997E+02  0.45594000000E+02  0.51100000000E-03 0.  1.
         23    2    1    2    0    0  0.00000000000E+00  0.00000000000E+00 -0.35527136788E-14  0.91188000000E+02  0.91188000000E+02 0.  0.
    9900012    2    3    3    0    0  0.16094989893E+02  0.17524025496E+02 -0.28100512798E+02  0.54367095764E+02  0.40000026414E+02 0.  0.
         12    1    3    3    0    0 -0.16094989893E+02 -0.17524025496E+02  0.28100512798E+02  0.36820904236E+02  0.00000000000E+00 0. -1.
         11    1    4    4    0    0 -0.60483304187E+01  0.25189924802E+01 -0.47747778518E+01  0.81071652114E+01  0.51100000000E-03 0. -1.
        -11    1    4    4    0    0  0.11543298433E+02  0.17829532612E+02 -0.27302544323E+02  0.34591457019E+02  0.51100000000E-03 0.  1.
         12    1    4    4    0    0  0.10600021878E+02 -0.28244995969E+01  0.39768093770E+01  0.11668473534E+02  0.00000000000E+00 0. -1.
</event>
<event>
 8    1  0.2458065E-006  0.9118800E+02  0.7816164E-02  0.1184000E+00
        -11   -1    0    0    0    0  0.00000000000E+00  0.00000000000E+00  0.45593999997E+02  0.45594000000E+02  0.51100000000E-03 0. -1.
         11   -1    0    0    0    0 -0.00000000000E+00 -0.00000000000E+00 -0.45593999997E+02  0.45594000000E+02  0.51100000000E-03 0.  1.
         23    2    1    2    0    0  0.00000000000E+00  0.00000000000E+00 -0.35527136788E-14  0.91188000000E+02  0.91188000000E+02 0.  0.
    9900012    2    3    3    0    0 -0.17614522946E+02  0.56263721791E+01  0.31841048490E+02  0.54367084049E+02  0.39999999707E+02 0.  0.
        -12    1    3    3    0    0  0.17614522946E+02 -0.56263721791E+01 -0.31841048490E+02  0.36820915951E+02  0.00000000000E+00 0.  1.
         11    1    4    4    0    0 -0.68692264958E+01  0.43695748875E+01  0.74037016357E+00  0.81748153244E+01  0.51100000000E-03 0. -1.
        -11    1    4    4    0    0  0.11276124360E+02  0.30973165704E+01  0.76702559917E+01  0.13984891053E+02  0.51100000000E-03 0.  1.
        -12    1    4    4    0    0 -0.22021420810E+02 -0.18405192788E+01  0.23430422335E+02  0.32207377672E+02  0.00000000000E+00 0.  1.
</event>
<event>
 8    1  0.2458065E-006  0.9118800E+02  0.7816164E-02  0.1184000E+00
        -11   -1    0    0    0    0  0.00000000000E+00  0.00000000000E+00  0.45593999997E+02  0.45594000000E+02  0.51100000000E-03 0. -1.
         11   -1    0    0    0    0 -0.00000000000E+00 -0.00000000000E+00 -0.45593999997E+02  0.45594000000E+02  0.51100000000E-03 0.  1.
         23    2    1    2    0    0 -0.35527136788E-14 -0.35527136788E-14 -0.17763568394E-14  0.91188000000E+02  0.91188000000E+02 0.  0.
    9900012    2    3    3    0    0  0.26157491476E+02  0.24890796597E+02  0.72120844530E+01  0.54367078261E+02  0.39999986511E+02 0.  0.
        -12    1    3    3    0    0 -0.26157491476E+02 -0.24890796597E+02 -0.72120844530E+01  0.36820921739E+02  0.00000000000E+00 0.  1.
         11    1    4    4    0    0  0.10713308216E+01 -0.36123665171E+01  0.14165675887E+02  0.14658216644E+02  0.51100000000E-03 0. -1.
        -11    1    4    4    0    0  0.14012733695E+02  0.91265354011E+01 -0.19384441954E+01  0.16834723645E+02  0.51100000000E-03 0.  1.
        -12    1    4    4    0    0  0.11073426959E+02  0.19376627713E+02 -0.50151472384E+01  0.22874137973E+02  0.00000000000E+00 0.  1.
</event>
<event>
 8    1  0.2458065E-006  0.9118800E+02  0.7816164E-02  0.1184000E+00
        -11   -1    0    0    0    0  0.00000000000E+00  0.00000000000E+00  0.45593999997E+02  0.45594000000E+02  0.51100000000E-03 0.  1.
         11   -1    0    0    0    0 -0.00000000000E+00 -0.00000000000E+00 -0.45593999997E+02  0.45594000000E+02  0.51100000000E-03 0. -1.
         23    2    1    2    0    0  0.00000000000E+00 -0.35527136788E-14  0.00000000000E+00  0.91188000000E+02  0.91188000000E+02 0.  0.
    9900012    2    3    3    0    0  0.19505660504E+02 -0.16802591305E+02 -0.26324560319E+02  0.54367077385E+02  0.39999984514E+02 0.  0.
         12    1    3    3    0    0 -0.19505660504E+02  0.16802591305E+02  0.26324560319E+02  0.36820922615E+02  0.00000000000E+00 0. -1.
         11    1    4    4    0    0  0.15598903951E+01  0.67417122858E+01 -0.38414550204E+01  0.79145890307E+01  0.51100000000E-03 0. -1.
        -11    1    4    4    0    0 -0.14772116137E+01 -0.18680380936E+02 -0.39108745223E+01  0.19142458720E+02  0.51100000000E-03 0.  1.
        -12    1    4    4    0    0  0.19422981723E+02 -0.48639226546E+01 -0.18572230776E+02  0.27310029634E+02  0.00000000000E+00 0.  1.
</event>
<event>
 8    1  0.2458065E-006  0.9118800E+02  0.7816164E-02  0.1184000E+00
        -11   -1    0    0    0    0  0.00000000000E+00  0.00000000000E+00  0.45593999997E+02  0.45594000000E+02  0.51100000000E-03 0. -1.
         11   -1    0    0    0    0 -0.00000000000E+00 -0.00000000000E+00 -0.45593999997E+02  0.45594000000E+02  0.51100000000E-03 0.  1.
         23    2    1    2    0    0  0.00000000000E+00  0.00000000000E+00  0.66613381478E-15  0.91188000000E+02  0.91188000000E+02 0.  0.
    9900012    2    3    3    0    0 -0.36007980263E+02  0.75009908829E+01 -0.17151181471E+01  0.54367066591E+02  0.39999959908E+02 0.  0.
        -12    1    3    3    0    0  0.36007980263E+02 -0.75009908829E+01  0.17151181471E+01  0.36820933409E+02  0.00000000000E+00 0.  1.
         11    1    4    4    0    0 -0.23019721874E+02  0.10639660584E+02  0.42793265623E+01  0.25718137735E+02  0.51100000000E-03 0. -1.
        -11    1    4    4    0    0 -0.67096065453E+01 -0.92344092989E+01 -0.13100798708E+02  0.17375962193E+02  0.51100000000E-03 0.  1.
         12    1    4    4    0    0 -0.62786518441E+01  0.60957395978E+01  0.71063539987E+01  0.11272966663E+02  0.00000000000E+00 0. -1.
</event>
<event>
 8    1  0.2458065E-006  0.9118800E+02  0.7816164E-02  0.1184000E+00
        -11   -1    0    0    0    0  0.00000000000E+00  0.00000000000E+00  0.45593999997E+02  0.45594000000E+02  0.51100000000E-03 0.  1.
         11   -1    0    0    0    0 -0.00000000000E+00 -0.00000000000E+00 -0.45593999997E+02  0.45594000000E+02  0.51100000000E-03 0. -1.
         23    2    1    2    0    0  0.17763568394E-14 -0.51347814889E-15  0.00000000000E+00  0.91188000000E+02  0.91188000000E+02 0.  0.
    9900012    2    3    3    0    0 -0.95615622249E+01 -0.86558363909E-01 -0.35557689551E+02  0.54367078628E+02  0.39999987347E+02 0.  0.
        -12    1    3    3    0    0  0.95615622249E+01  0.86558363909E-01  0.35557689551E+02  0.36820921372E+02  0.00000000000E+00 0.  1.
         11    1    4    4    0    0 -0.44925546644E+01 -0.15099083161E+02 -0.13514790106E+02  0.20756081316E+02  0.51100000000E-03 0. -1.
        -11    1    4    4    0    0 -0.11153185205E+00 -0.47731511671E+01 -0.26230787559E+01  0.54475640280E+01  0.51100000000E-03 0.  1.
        -12    1    4    4    0    0 -0.49574757084E+01  0.19785675964E+02 -0.19419820689E+02  0.28163433284E+02  0.00000000000E+00 0.  1.
</event>
<event>
 8    1  0.2458065E-006  0.9118800E+02  0.7816164E-02  0.1184000E+00
        -11   -1    0    0    0    0  0.00000000000E+00  0.00000000000E+00  0.45593999997E+02  0.45594000000E+02  0.51100000000E-03 0.  1.
         11   -1    0    0    0    0 -0.00000000000E+00 -0.00000000000E+00 -0.45593999997E+02  0.45594000000E+02  0.51100000000E-03 0. -1.
         23    2    1    2    0    0  0.17763568394E-14 -0.77715611724E-15  0.00000000000E+00  0.91188000000E+02  0.91188000000E+02 0.  0.
    9900012    2    3    3    0    0 -0.62425612120E+01 -0.76904442777E+00  0.36279731195E+02  0.54367083453E+02  0.39999998347E+02 0.  0.
         12    1    3    3    0    0  0.62425612120E+01  0.76904442777E+00 -0.36279731195E+02  0.36820916547E+02  0.00000000000E+00 0. -1.
         11    1    4    4    0    0  0.47944324567E+01  0.56735063687E+01  0.45191911925E+01  0.86947309557E+01  0.51100000000E-03 0. -1.
        -11    1    4    4    0    0 -0.14778112604E+02  0.84652209110E+01  0.20311633176E+02  0.26506886270E+02  0.51100000000E-03 0.  1.
         12    1    4    4    0    0  0.37411189350E+01 -0.14907771707E+02  0.11448906827E+02  0.19165466227E+02  0.00000000000E+00 0. -1.
</event>
<event>
 8    1  0.2458065E-006  0.9118800E+02  0.7816164E-02  0.1184000E+00
        -11   -1    0    0    0    0  0.00000000000E+00  0.00000000000E+00  0.45593999997E+02  0.45594000000E+02  0.51100000000E-03 0.  1.
         11   -1    0    0    0    0 -0.00000000000E+00 -0.00000000000E+00 -0.45593999997E+02  0.45594000000E+02  0.51100000000E-03 0. -1.
         23    2    1    2    0    0  0.71054273576E-14 -0.88817841970E-15  0.17763568394E-14  0.91188000000E+02  0.91188000000E+02 0.  0.
    9900012    2    3    3    0    0  0.34287931164E+02 -0.70079383014E+01 -0.11445875954E+02  0.54367061675E+02  0.39999948701E+02 0.  0.
        -12    1    3    3    0    0 -0.34287931164E+02  0.70079383014E+01  0.11445875954E+02  0.36820938325E+02  0.00000000000E+00 0.  1.
         11    1    4    4    0    0 -0.41763438890E+00 -0.11249409778E+02 -0.97305312918E+01  0.14879747253E+02  0.51100000000E-03 0.  1.
        -11    1    4    4    0    0  0.26204037261E+02  0.60961373823E+01  0.63277916887E+01  0.27637934215E+02  0.51100000000E-03 0. -1.
         12    1    4    4    0    0  0.85015282917E+01 -0.18546659055E+01 -0.80431363511E+01  0.11849380207E+02  0.00000000000E+00 0. -1.
</event>
<event>
 8    1  0.2458065E-006  0.9118800E+02  0.7816164E-02  0.1184000E+00
        -11   -1    0    0    0    0  0.00000000000E+00  0.00000000000E+00  0.45593999997E+02  0.45594000000E+02  0.51100000000E-03 0.  1.
         11   -1    0    0    0    0 -0.00000000000E+00 -0.00000000000E+00 -0.45593999997E+02  0.45594000000E+02  0.51100000000E-03 0. -1.
         23    2    1    2    0    0  0.00000000000E+00  0.17763568394E-14 -0.26645352591E-14  0.91188000000E+02  0.91188000000E+02 0.  0.
    9900012    2    3    3    0    0 -0.35800255235E+02  0.83234190312E+01  0.22028192476E+01  0.54366946350E+02  0.39999685792E+02 0.  0.
         12    1    3    3    0    0  0.35800255235E+02 -0.83234190312E+01 -0.22028192476E+01  0.36821053650E+02  0.00000000000E+00 0. -1.
         11    1    4    4    0    0  0.15653139985E+01 -0.74685539403E+01 -0.79587103101E+01  0.11025904767E+02  0.51100000000E-03 0. -1.
        -11    1    4    4    0    0 -0.20247150875E+02  0.56498220842E+01  0.47472954934E-01  0.21020700799E+02  0.51100000000E-03 0.  1.
         12    1    4    4    0    0 -0.17118418359E+02  0.10142150887E+02  0.10114056603E+02  0.22320340784E+02  0.00000000000E+00 0. -1.
</event>
<event>
 8    1  0.2458065E-006  0.9118800E+02  0.7816164E-02  0.1184000E+00
        -11   -1    0    0    0    0  0.00000000000E+00  0.00000000000E+00  0.45593999997E+02  0.45594000000E+02  0.51100000000E-03 0.  1.
         11   -1    0    0    0    0 -0.00000000000E+00 -0.00000000000E+00 -0.45593999997E+02  0.45594000000E+02  0.51100000000E-03 0. -1.
         23    2    1    2    0    0  0.16653345369E-15  0.00000000000E+00  0.00000000000E+00  0.91188000000E+02  0.91188000000E+02 0.  0.
    9900012    2    3    3    0    0 -0.65988749228E-01  0.29389042164E+02  0.22182379778E+02  0.54367107474E+02  0.40000053108E+02 0.  0.
         12    1    3    3    0    0  0.65988749228E-01 -0.29389042164E+02 -0.22182379778E+02  0.36820892526E+02  0.00000000000E+00 0. -1.
         11    1    4    4    0    0 -0.47915348073E+01  0.35580069450E+01 -0.47445789302E+01  0.76242539777E+01  0.51100000000E-03 0. -1.
        -11    1    4    4    0    0  0.31723484204E+01  0.28924094791E+02  0.12092960484E+02  0.31510422839E+02  0.51100000000E-03 0.  1.
         12    1    4    4    0    0  0.15531976377E+01 -0.30930595720E+01  0.14833998224E+02  0.15232430657E+02  0.00000000000E+00 0. -1.
</event>
<event>
 8    1  0.2458065E-006  0.9118800E+02  0.7816164E-02  0.1184000E+00
        -11   -1    0    0    0    0  0.00000000000E+00  0.00000000000E+00  0.45593999997E+02  0.45594000000E+02  0.51100000000E-03 0.  1.
         11   -1    0    0    0    0 -0.00000000000E+00 -0.00000000000E+00 -0.45593999997E+02  0.45594000000E+02  0.51100000000E-03 0. -1.
         23    2    1    2    0    0  0.00000000000E+00  0.00000000000E+00 -0.35527136788E-14  0.91188000000E+02  0.91188000000E+02 0.  0.
    9900012    2    3    3    0    0  0.87034196646E+01  0.30412017524E+02  0.18845157051E+02  0.54367078393E+02  0.39999986811E+02 0.  0.
         12    1    3    3    0    0 -0.87034196646E+01 -0.30412017524E+02 -0.18845157051E+02  0.36820921607E+02  0.00000000000E+00 0. -1.
         11    1    4    4    0    0 -0.53501563740E+01 -0.41117691475E+00  0.21175419569E+01  0.57686414243E+01  0.51100000000E-03 0. -1.
        -11    1    4    4    0    0 -0.37560339438E+01  0.50117899582E+01  0.16053328150E+02  0.17231807059E+02  0.51100000000E-03 0.  1.
         12    1    4    4    0    0  0.17809609982E+02  0.25811404480E+02  0.67428694455E+00  0.31366629909E+02  0.00000000000E+00 0. -1.
</event>
<event>
 8    1  0.2458065E-006  0.9118800E+02  0.7816164E-02  0.1184000E+00
        -11   -1    0    0    0    0  0.00000000000E+00  0.00000000000E+00  0.45593999997E+02  0.45594000000E+02  0.51100000000E-03 0. -1.
         11   -1    0    0    0    0 -0.00000000000E+00 -0.00000000000E+00 -0.45593999997E+02  0.45594000000E+02  0.51100000000E-03 0.  1.
         23    2    1    2    0    0  0.17763568394E-14  0.00000000000E+00 -0.17763568394E-14  0.91188000000E+02  0.91188000000E+02 0.  0.
    9900012    2    3    3    0    0  0.13697428867E+02 -0.32368392290E+02  0.10974874033E+02  0.54367078813E+02  0.39999987770E+02 0.  0.
        -12    1    3    3    0    0 -0.13697428867E+02  0.32368392290E+02 -0.10974874033E+02  0.36820921187E+02  0.00000000000E+00 0.  1.
         11    1    4    4    0    0  0.22997811122E+02 -0.16608839841E+02  0.43635730568E+01  0.28701805647E+02  0.51100000000E-03 0. -1.
        -11    1    4    4    0    0 -0.63686601513E+01 -0.19864322274E+01 -0.42251552038E+01  0.78966880320E+01  0.51100000000E-03 0.  1.
         12    1    4    4    0    0 -0.29317221037E+01 -0.13773120222E+02  0.10836456180E+02  0.17768585134E+02  0.00000000000E+00 0. -1.
</event>
<event>
 8    1  0.2458065E-006  0.9118800E+02  0.7816164E-02  0.1184000E+00
        -11   -1    0    0    0    0  0.00000000000E+00  0.00000000000E+00  0.45593999997E+02  0.45594000000E+02  0.51100000000E-03 0. -1.
         11   -1    0    0    0    0 -0.00000000000E+00 -0.00000000000E+00 -0.45593999997E+02  0.45594000000E+02  0.51100000000E-03 0.  1.
         23    2    1    2    0    0  0.00000000000E+00  0.00000000000E+00  0.35527136788E-14  0.91188000000E+02  0.91188000000E+02 0.  0.
    9900012    2    3    3    0    0 -0.28367527754E+02  0.15464366422E+02  0.17661228606E+02  0.54367051403E+02  0.39999925282E+02 0.  0.
        -12    1    3    3    0    0  0.28367527754E+02 -0.15464366422E+02 -0.17661228606E+02  0.36820948597E+02  0.00000000000E+00 0.  1.
         11    1    4    4    0    0  0.42252858564E+00  0.96273972625E+01  0.67204489018E+01  0.11748605967E+02  0.51100000000E-03 0. -1.
        -11    1    4    4    0    0 -0.20741131925E+02 -0.51048464587E+01  0.17425697976E+02  0.27566446291E+02  0.51100000000E-03 0.  1.
        -12    1    4    4    0    0 -0.80489244154E+01  0.10941815618E+02 -0.64849182719E+01  0.15051999145E+02  0.00000000000E+00 0.  1.
</event>
<event>
 8    1  0.2458065E-006  0.9118800E+02  0.7816164E-02  0.1184000E+00
        -11   -1    0    0    0    0  0.00000000000E+00  0.00000000000E+00  0.45593999997E+02  0.45594000000E+02  0.51100000000E-03 0.  1.
         11   -1    0    0    0    0 -0.00000000000E+00 -0.00000000000E+00 -0.45593999997E+02  0.45594000000E+02  0.51100000000E-03 0. -1.
         23    2    1    2    0    0  0.00000000000E+00 -0.35527136788E-14  0.35527136788E-14  0.91188000000E+02  0.91188000000E+02 0.  0.
    9900012    2    3    3    0    0  0.26946496976E+02  0.16102342906E+02 -0.19245297689E+02  0.54367073484E+02  0.39999975622E+02 0.  0.
        -12    1    3    3    0    0 -0.26946496976E+02 -0.16102342906E+02  0.19245297689E+02  0.36820926516E+02  0.00000000000E+00 0.  1.
         11    1    4    4    0    0  0.28563756692E+02  0.90855305045E+01 -0.19969242630E+02  0.36016742112E+02  0.51100000000E-03 0. -1.
        -11    1    4    4    0    0  0.48686138608E+01  0.67957085846E+01 -0.49626075177E+01  0.97217554860E+01  0.51100000000E-03 0.  1.
        -12    1    4    4    0    0 -0.64858735771E+01  0.22110381732E+00  0.56865524584E+01  0.86285758858E+01  0.00000000000E+00 0.  1.
</event>
<event>
 8    1  0.2458065E-006  0.9118800E+02  0.7816164E-02  0.1184000E+00
        -11   -1    0    0    0    0  0.00000000000E+00  0.00000000000E+00  0.45593999997E+02  0.45594000000E+02  0.51100000000E-03 0. -1.
         11   -1    0    0    0    0 -0.00000000000E+00 -0.00000000000E+00 -0.45593999997E+02  0.45594000000E+02  0.51100000000E-03 0.  1.
         23    2    1    2    0    0  0.00000000000E+00  0.35527136788E-14 -0.35527136788E-14  0.91188000000E+02  0.91188000000E+02 0.  0.
    9900012    2    3    3    0    0  0.28993146956E+02 -0.16800041941E+02  0.15262200144E+02  0.54367099239E+02  0.40000034335E+02 0.  0.
        -12    1    3    3    0    0 -0.28993146956E+02  0.16800041941E+02 -0.15262200144E+02  0.36820900761E+02  0.00000000000E+00 0.  1.
         11    1    4    4    0    0  0.28827780692E+01 -0.12838791343E+02 -0.66142798488E+01  0.14727310370E+02  0.51100000000E-03 0. -1.
        -11    1    4    4    0    0  0.27811957891E+02  0.95073963446E+00  0.17804899242E+02  0.33036696943E+02  0.51100000000E-03 0.  1.
         12    1    4    4    0    0 -0.17015890043E+01 -0.49119902323E+01  0.40715807503E+01  0.66030919264E+01  0.00000000000E+00 0. -1.
</event>
<event>
 8    1  0.2458065E-006  0.9118800E+02  0.7816164E-02  0.1184000E+00
        -11   -1    0    0    0    0  0.00000000000E+00  0.00000000000E+00  0.45593999997E+02  0.45594000000E+02  0.51100000000E-03 0.  1.
         11   -1    0    0    0    0 -0.00000000000E+00 -0.00000000000E+00 -0.45593999997E+02  0.45594000000E+02  0.51100000000E-03 0. -1.
         23    2    1    2    0    0  0.35527136788E-14  0.00000000000E+00  0.71054273576E-14  0.91188000000E+02  0.91188000000E+02 0.  0.
    9900012    2    3    3    0    0 -0.17719230356E+02 -0.22818412638E+02 -0.22828217777E+02  0.54367100953E+02  0.40000038243E+02 0.  0.
        -12    1    3    3    0    0  0.17719230356E+02  0.22818412638E+02  0.22828217777E+02  0.36820899047E+02  0.00000000000E+00 0.  1.
         11    1    4    4    0    0  0.17898043391E+01 -0.12729033918E+02 -0.59853103377E+01  0.14179409162E+02  0.51100000000E-03 0. -1.
        -11    1    4    4    0    0 -0.44394448168E+01 -0.71101118845E+01  0.76025724828E+01  0.11316424785E+02  0.51100000000E-03 0.  1.
        -12    1    4    4    0    0 -0.15069589878E+02 -0.29792668349E+01 -0.24445479922E+02  0.28871267007E+02  0.00000000000E+00 0.  1.
</event>
<event>
 8    1  0.2458065E-006  0.9118800E+02  0.7816164E-02  0.1184000E+00
        -11   -1    0    0    0    0  0.00000000000E+00  0.00000000000E+00  0.45593999997E+02  0.45594000000E+02  0.51100000000E-03 0. -1.
         11   -1    0    0    0    0 -0.00000000000E+00 -0.00000000000E+00 -0.45593999997E+02  0.45594000000E+02  0.51100000000E-03 0.  1.
         23    2    1    2    0    0  0.00000000000E+00  0.71054273576E-14  0.17763568394E-14  0.91188000000E+02  0.91188000000E+02 0.  0.
    9900012    2    3    3    0    0  0.83010992506E+01  0.34640782471E+02 -0.93213620576E+01  0.54367084075E+02  0.39999999766E+02 0.  0.
         12    1    3    3    0    0 -0.83010992506E+01 -0.34640782471E+02  0.93213620576E+01  0.36820915925E+02  0.00000000000E+00 0. -1.
         11    1    4    4    0    0  0.30320471267E+01 -0.24600841546E+01  0.14542435555E+01  0.41665511405E+01  0.51100000000E-03 0. -1.
        -11    1    4    4    0    0  0.11096373154E+02  0.39534968992E+01 -0.11603251716E+02  0.16534663152E+02  0.51100000000E-03 0.  1.
         12    1    4    4    0    0 -0.58273210299E+01  0.33147369726E+02  0.82764610273E+00  0.33665869783E+02  0.00000000000E+00 0. -1.
</event>
<event>
 8    1  0.2458065E-006  0.9118800E+02  0.7816164E-02  0.1184000E+00
        -11   -1    0    0    0    0  0.00000000000E+00  0.00000000000E+00  0.45593999997E+02  0.45594000000E+02  0.51100000000E-03 0. -1.
         11   -1    0    0    0    0 -0.00000000000E+00 -0.00000000000E+00 -0.45593999997E+02  0.45594000000E+02  0.51100000000E-03 0.  1.
         23    2    1    2    0    0  0.17763568394E-14  0.00000000000E+00  0.00000000000E+00  0.91188000000E+02  0.91188000000E+02 0.  0.
    9900012    2    3    3    0    0 -0.11332088401E+02  0.13622730975E+02 -0.32276543652E+02  0.54367213793E+02  0.40000295483E+02 0.  0.
         12    1    3    3    0    0  0.11332088401E+02 -0.13622730975E+02  0.32276543652E+02  0.36820786207E+02  0.00000000000E+00 0. -1.
         11    1    4    4    0    0 -0.98862545272E+00  0.87406603064E+01 -0.22393863725E+02  0.24059543963E+02  0.51100000000E-03 0. -1.
        -11    1    4    4    0    0 -0.89844136323E+01 -0.72596724339E+01 -0.13305358319E+02  0.17619735878E+02  0.51100000000E-03 0.  1.
         12    1    4    4    0    0 -0.13590493163E+01  0.12141743102E+02  0.34226783916E+01  0.12687933952E+02  0.00000000000E+00 0. -1.
</event>
<event>
 8    1  0.2458065E-006  0.9118800E+02  0.7816164E-02  0.1184000E+00
        -11   -1    0    0    0    0  0.00000000000E+00  0.00000000000E+00  0.45593999997E+02  0.45594000000E+02  0.51100000000E-03 0. -1.
         11   -1    0    0    0    0 -0.00000000000E+00 -0.00000000000E+00 -0.45593999997E+02  0.45594000000E+02  0.51100000000E-03 0.  1.
         23    2    1    2    0    0  0.00000000000E+00  0.88817841970E-15 -0.88817841970E-15  0.91188000000E+02  0.91188000000E+02 0.  0.
    9900012    2    3    3    0    0  0.35711892883E+02 -0.78632236241E+01 -0.43140000091E+01  0.54367079654E+02  0.39999989688E+02 0.  0.
         12    1    3    3    0    0 -0.35711892883E+02  0.78632236241E+01  0.43140000091E+01  0.36820920346E+02  0.00000000000E+00 0. -1.
         11    1    4    4    0    0  0.11262662017E+02 -0.50176064175E+01  0.15679414290E+02  0.19946627851E+02  0.51100000000E-03 0.  1.
        -11    1    4    4    0    0  0.12277214301E+01 -0.33339649737E+01 -0.68912112935E+01  0.77531552099E+01  0.51100000000E-03 0. -1.
        -12    1    4    4    0    0  0.23221509435E+02  0.48834776708E+00 -0.13102203006E+02  0.26667296593E+02  0.00000000000E+00 0.  1.
</event>
<event>
 8    1  0.2458065E-006  0.9118800E+02  0.7816164E-02  0.1184000E+00
        -11   -1    0    0    0    0  0.00000000000E+00  0.00000000000E+00  0.45593999997E+02  0.45594000000E+02  0.51100000000E-03 0. -1.
         11   -1    0    0    0    0 -0.00000000000E+00 -0.00000000000E+00 -0.45593999997E+02  0.45594000000E+02  0.51100000000E-03 0.  1.
         23    2    1    2    0    0  0.00000000000E+00  0.00000000000E+00  0.88817841970E-15  0.91188000000E+02  0.91188000000E+02 0.  0.
    9900012    2    3    3    0    0  0.33314182587E+02 -0.15581069895E+02  0.17828933269E+01  0.54367038455E+02  0.39999895765E+02 0.  0.
        -12    1    3    3    0    0 -0.33314182587E+02  0.15581069895E+02 -0.17828933269E+01  0.36820961545E+02  0.00000000000E+00 0.  1.
         11    1    4    4    0    0  0.25641083430E+02 -0.86893988283E+01  0.10556601019E+02  0.29058778997E+02  0.51100000000E-03 0. -1.
        -11    1    4    4    0    0  0.15128911787E+02 -0.46944305628E+01 -0.46480092467E+01  0.16508350625E+02  0.51100000000E-03 0.  1.
        -12    1    4    4    0    0 -0.74558126293E+01 -0.21972405039E+01 -0.41256984458E+01  0.87999088326E+01  0.00000000000E+00 0.  1.
</event>
<event>
 8    1  0.2458065E-006  0.9118800E+02  0.7816164E-02  0.1184000E+00
        -11   -1    0    0    0    0  0.00000000000E+00  0.00000000000E+00  0.45593999997E+02  0.45594000000E+02  0.51100000000E-03 0.  1.
         11   -1    0    0    0    0 -0.00000000000E+00 -0.00000000000E+00 -0.45593999997E+02  0.45594000000E+02  0.51100000000E-03 0. -1.
         23    2    1    2    0    0 -0.35527136788E-14  0.00000000000E+00 -0.71054273576E-14  0.91188000000E+02  0.91188000000E+02 0.  0.
    9900012    2    3    3    0    0 -0.20322660195E+02  0.20099840503E+02 -0.23211348931E+02  0.54367070831E+02  0.39999969574E+02 0.  0.
        -12    1    3    3    0    0  0.20322660195E+02 -0.20099840503E+02  0.23211348931E+02  0.36820929169E+02  0.00000000000E+00 0.  1.
         11    1    4    4    0    0  0.17861357328E+01  0.21403623332E+02 -0.18695863232E+02  0.28475264263E+02  0.51100000000E-03 0. -1.
        -11    1    4    4    0    0 -0.76548228510E+01  0.53825125490E+01 -0.32895489468E+01  0.99191172367E+01  0.51100000000E-03 0.  1.
        -12    1    4    4    0    0 -0.14453973076E+02 -0.66862953774E+01 -0.12259367524E+01  0.15972689332E+02  0.00000000000E+00 0.  1.
</event>
<event>
 8    1  0.2458065E-006  0.9118800E+02  0.7816164E-02  0.1184000E+00
        -11   -1    0    0    0    0  0.00000000000E+00  0.00000000000E+00  0.45593999997E+02  0.45594000000E+02  0.51100000000E-03 0. -1.
         11   -1    0    0    0    0 -0.00000000000E+00 -0.00000000000E+00 -0.45593999997E+02  0.45594000000E+02  0.51100000000E-03 0.  1.
         23    2    1    2    0    0 -0.13877787808E-15 -0.88817841970E-15  0.00000000000E+00  0.91188000000E+02  0.91188000000E+02 0.  0.
    9900012    2    3    3    0    0 -0.19670225599E+00  0.45371417711E+01 -0.36539810330E+02  0.54367053704E+02  0.39999930528E+02 0.  0.
         12    1    3    3    0    0  0.19670225599E+00 -0.45371417711E+01  0.36539810330E+02  0.36820946296E+02  0.00000000000E+00 0. -1.
         11    1    4    4    0    0 -0.11673688063E+02  0.33360529414E+01 -0.38362455980E+02  0.40237821403E+02  0.51100000000E-03 0. -1.
        -11    1    4    4    0    0  0.12455785208E+01 -0.26078824512E+01 -0.58693594081E+00  0.29490694787E+01  0.51100000000E-03 0.  1.
         12    1    4    4    0    0  0.10231407286E+02  0.38089712809E+01  0.24095815912E+01  0.11180162821E+02  0.00000000000E+00 0. -1.
</event>
<event>
 8    1  0.2458065E-006  0.9118800E+02  0.7816164E-02  0.1184000E+00
        -11   -1    0    0    0    0  0.00000000000E+00  0.00000000000E+00  0.45593999997E+02  0.45594000000E+02  0.51100000000E-03 0. -1.
         11   -1    0    0    0    0 -0.00000000000E+00 -0.00000000000E+00 -0.45593999997E+02  0.45594000000E+02  0.51100000000E-03 0.  1.
         23    2    1    2    0    0  0.00000000000E+00  0.00000000000E+00 -0.22204460493E-15  0.91188000000E+02  0.91188000000E+02 0.  0.
    9900012    2    3    3    0    0  0.28935370179E+02  0.22747483477E+02  0.10401980828E+01  0.54367005120E+02  0.39999819771E+02 0.  0.
         12    1    3    3    0    0 -0.28935370179E+02 -0.22747483477E+02 -0.10401980828E+01  0.36820994880E+02  0.00000000000E+00 0. -1.
         11    1    4    4    0    0  0.11308129696E+02  0.10471229511E+02  0.36942319613E+01  0.15848274188E+02  0.51100000000E-03 0. -1.
        -11    1    4    4    0    0  0.25481544363E+02  0.14029574015E+02  0.21131520257E+01  0.29165106924E+02  0.51100000000E-03 0.  1.
        -12    1    4    4    0    0 -0.78543038801E+01 -0.17533200488E+01 -0.47671859043E+01  0.93536240078E+01  0.00000000000E+00 0.  1.
</event>
<event>
 8    1  0.2458065E-006  0.9118800E+02  0.7816164E-02  0.1184000E+00
        -11   -1    0    0    0    0  0.00000000000E+00  0.00000000000E+00  0.45593999997E+02  0.45594000000E+02  0.51100000000E-03 0.  1.
         11   -1    0    0    0    0 -0.00000000000E+00 -0.00000000000E+00 -0.45593999997E+02  0.45594000000E+02  0.51100000000E-03 0. -1.
         23    2    1    2    0    0 -0.19984014443E-14  0.49960036108E-15  0.00000000000E+00  0.91188000000E+02  0.91188000000E+02 0.  0.
    9900012    2    3    3    0    0 -0.10624945151E+01 -0.47007816326E+00 -0.36802578870E+02  0.54367086383E+02  0.40000005028E+02 0.  0.
        -12    1    3    3    0    0  0.10624945151E+01  0.47007816326E+00  0.36802578870E+02  0.36820913617E+02  0.00000000000E+00 0.  1.
         11    1    4    4    0    0  0.14485442272E+02 -0.37617160309E+01 -0.48931675088E+01  0.15745527423E+02  0.51100000000E-03 0. -1.
        -11    1    4    4    0    0  0.13225693257E+01  0.82994660839E+00  0.78589182907E+00  0.17480352463E+01  0.51100000000E-03 0.  1.
         12    1    4    4    0    0 -0.16870506113E+02  0.24616912592E+01 -0.32695303190E+02  0.36873523714E+02  0.00000000000E+00 0. -1.
</event>
<event>
 8    1  0.2458065E-006  0.9118800E+02  0.7816164E-02  0.1184000E+00
        -11   -1    0    0    0    0  0.00000000000E+00  0.00000000000E+00  0.45593999997E+02  0.45594000000E+02  0.51100000000E-03 0. -1.
         11   -1    0    0    0    0 -0.00000000000E+00 -0.00000000000E+00 -0.45593999997E+02  0.45594000000E+02  0.51100000000E-03 0.  1.
         23    2    1    2    0    0  0.00000000000E+00  0.00000000000E+00 -0.26645352591E-14  0.91188000000E+02  0.91188000000E+02 0.  0.
    9900012    2    3    3    0    0  0.19668140060E+02  0.30827363592E+02 -0.43146884910E+01  0.54367100823E+02  0.40000037946E+02 0.  0.
         12    1    3    3    0    0 -0.19668140060E+02 -0.30827363592E+02  0.43146884910E+01  0.36820899177E+02  0.00000000000E+00 0. -1.
         11    1    4    4    0    0 -0.39305303602E+01  0.38927272134E+01  0.12898491573E+02  0.14034724051E+02  0.51100000000E-03 0. -1.
        -11    1    4    4    0    0  0.87671500529E+01  0.10323169576E+02 -0.10298524486E+02  0.17014416152E+02  0.51100000000E-03 0.  1.
         12    1    4    4    0    0  0.14831520367E+02  0.16611466802E+02 -0.69146555776E+01  0.23317960620E+02  0.00000000000E+00 0. -1.
</event>
<event>
 8    1  0.2458065E-006  0.9118800E+02  0.7816164E-02  0.1184000E+00
        -11   -1    0    0    0    0  0.00000000000E+00  0.00000000000E+00  0.45593999997E+02  0.45594000000E+02  0.51100000000E-03 0.  1.
         11   -1    0    0    0    0 -0.00000000000E+00 -0.00000000000E+00 -0.45593999997E+02  0.45594000000E+02  0.51100000000E-03 0. -1.
         23    2    1    2    0    0 -0.71054273576E-14  0.71054273576E-14 -0.17763568394E-14  0.91188000000E+02  0.91188000000E+02 0.  0.
    9900012    2    3    3    0    0 -0.16303999037E+02  0.32974007702E+02 -0.16358412523E+01  0.54367061050E+02  0.39999947276E+02 0.  0.
         12    1    3    3    0    0  0.16303999037E+02 -0.32974007702E+02  0.16358412523E+01  0.36820938950E+02  0.00000000000E+00 0. -1.
         11    1    4    4    0    0 -0.13080637671E+02  0.87687802613E+01 -0.11385759092E+02  0.19432706953E+02  0.51100000000E-03 0. -1.
        -11    1    4    4    0    0  0.21322010200E+01  0.38513046277E+01  0.12920793771E+02  0.13650118698E+02  0.51100000000E-03 0.  1.
        -12    1    4    4    0    0 -0.53555623853E+01  0.20353922813E+02 -0.31708759314E+01  0.21284235399E+02  0.00000000000E+00 0.  1.
</event>
<event>
 8    1  0.2458065E-006  0.9118800E+02  0.7816164E-02  0.1184000E+00
        -11   -1    0    0    0    0  0.00000000000E+00  0.00000000000E+00  0.45593999997E+02  0.45594000000E+02  0.51100000000E-03 0. -1.
         11   -1    0    0    0    0 -0.00000000000E+00 -0.00000000000E+00 -0.45593999997E+02  0.45594000000E+02  0.51100000000E-03 0.  1.
         23    2    1    2    0    0  0.35527136788E-14  0.35527136788E-14 -0.13322676296E-14  0.91188000000E+02  0.91188000000E+02 0.  0.
    9900012    2    3    3    0    0 -0.18889695876E+02 -0.31533578594E+02 -0.21430399593E+01  0.54367084619E+02  0.40000001006E+02 0.  0.
        -12    1    3    3    0    0  0.18889695876E+02  0.31533578594E+02  0.21430399593E+01  0.36820915381E+02  0.00000000000E+00 0.  1.
         11    1    4    4    0    0 -0.12177407987E+02 -0.10460176969E+02 -0.25717460298E+01  0.16257873336E+02  0.51100000000E-03 0. -1.
        -11    1    4    4    0    0 -0.65589648731E+01 -0.17546873748E+02  0.14445013396E+02  0.23655257572E+02  0.51100000000E-03 0.  1.
        -12    1    4    4    0    0 -0.15332301598E+00 -0.35265278773E+01 -0.14016307326E+02  0.14453953711E+02  0.00000000000E+00 0.  1.
</event>
<event>
 8    1  0.2458065E-006  0.9118800E+02  0.7816164E-02  0.1184000E+00
        -11   -1    0    0    0    0  0.00000000000E+00  0.00000000000E+00  0.45593999997E+02  0.45594000000E+02  0.51100000000E-03 0. -1.
         11   -1    0    0    0    0 -0.00000000000E+00 -0.00000000000E+00 -0.45593999997E+02  0.45594000000E+02  0.51100000000E-03 0.  1.
         23    2    1    2    0    0  0.00000000000E+00 -0.44408920985E-15  0.17763568394E-14  0.91188000000E+02  0.91188000000E+02 0.  0.
    9900012    2    3    3    0    0  0.34346060423E+02  0.39493501271E+01  0.12670136139E+02  0.54367060539E+02  0.39999946110E+02 0.  0.
        -12    1    3    3    0    0 -0.34346060423E+02 -0.39493501271E+01 -0.12670136139E+02  0.36820939461E+02  0.00000000000E+00 0.  1.
         11    1    4    4    0    0  0.15057499697E+02 -0.35129409195E+01 -0.12963622604E+01  0.15516107965E+02  0.51100000000E-03 0. -1.
        -11    1    4    4    0    0  0.82226074997E+01  0.30320071326E+01 -0.92567802981E+01  0.12747247667E+02  0.51100000000E-03 0.  1.
         12    1    4    4    0    0  0.11065953227E+02  0.44302839140E+01  0.23223278697E+02  0.26103704906E+02  0.00000000000E+00 0. -1.
</event>
<event>
 8    1  0.2458065E-006  0.9118800E+02  0.7816164E-02  0.1184000E+00
        -11   -1    0    0    0    0  0.00000000000E+00  0.00000000000E+00  0.45593999997E+02  0.45594000000E+02  0.51100000000E-03 0.  1.
         11   -1    0    0    0    0 -0.00000000000E+00 -0.00000000000E+00 -0.45593999997E+02  0.45594000000E+02  0.51100000000E-03 0. -1.
         23    2    1    2    0    0  0.35527136788E-14  0.00000000000E+00  0.44408920985E-15  0.91188000000E+02  0.91188000000E+02 0.  0.
    9900012    2    3    3    0    0 -0.27550750769E+02 -0.24198029563E+02 -0.33452160737E+01  0.54367095975E+02  0.40000026894E+02 0.  0.
        -12    1    3    3    0    0  0.27550750769E+02  0.24198029563E+02  0.33452160737E+01  0.36820904025E+02  0.00000000000E+00 0.  1.
         11    1    4    4    0    0 -0.27465187316E+02 -0.13596043061E+02 -0.13900703651E+02  0.33651425876E+02  0.51100000000E-03 0. -1.
        -11    1    4    4    0    0 -0.52334511486E+01  0.46044296188E+00  0.51952673999E+01  0.73886279012E+01  0.51100000000E-03 0.  1.
        -12    1    4    4    0    0  0.51478876961E+01 -0.11062429465E+02  0.53602201774E+01  0.13327042198E+02  0.00000000000E+00 0.  1.
</event>
<event>
 8    1  0.2458065E-006  0.9118800E+02  0.7816164E-02  0.1184000E+00
        -11   -1    0    0    0    0  0.00000000000E+00  0.00000000000E+00  0.45593999997E+02  0.45594000000E+02  0.51100000000E-03 0.  1.
         11   -1    0    0    0    0 -0.00000000000E+00 -0.00000000000E+00 -0.45593999997E+02  0.45594000000E+02  0.51100000000E-03 0. -1.
         23    2    1    2    0    0  0.00000000000E+00  0.00000000000E+00  0.00000000000E+00  0.91188000000E+02  0.91188000000E+02 0.  0.
    9900012    2    3    3    0    0  0.26333247262E+02  0.23257614476E+02 -0.11019229804E+02  0.54367082467E+02  0.39999996100E+02 0.  0.
        -12    1    3    3    0    0 -0.26333247262E+02 -0.23257614476E+02  0.11019229804E+02  0.36820917533E+02  0.00000000000E+00 0.  1.
         11    1    4    4    0    0 -0.21640408091E+01  0.13496205399E+02 -0.12859064300E+02  0.18766623770E+02  0.51100000000E-03 0. -1.
        -11    1    4    4    0    0  0.15690916309E+02 -0.43274997003E+01  0.28933139199E+01  0.16531889607E+02  0.51100000000E-03 0.  1.
         12    1    4    4    0    0  0.12806371762E+02  0.14088908777E+02 -0.10534794237E+01  0.19068569090E+02  0.00000000000E+00 0. -1.
</event>
<event>
 8    1  0.2458065E-006  0.9118800E+02  0.7816164E-02  0.1184000E+00
        -11   -1    0    0    0    0  0.00000000000E+00  0.00000000000E+00  0.45593999997E+02  0.45594000000E+02  0.51100000000E-03 0.  1.
         11   -1    0    0    0    0 -0.00000000000E+00 -0.00000000000E+00 -0.45593999997E+02  0.45594000000E+02  0.51100000000E-03 0. -1.
         23    2    1    2    0    0  0.00000000000E+00  0.00000000000E+00 -0.35527136788E-14  0.91188000000E+02  0.91188000000E+02 0.  0.
    9900012    2    3    3    0    0 -0.83982470384E+01  0.27048670543E+02 -0.23529104536E+02  0.54367083502E+02  0.39999998460E+02 0.  0.
         12    1    3    3    0    0  0.83982470384E+01 -0.27048670543E+02  0.23529104536E+02  0.36820916498E+02  0.00000000000E+00 0. -1.
         11    1    4    4    0    0 -0.20294837589E+02  0.89812676501E+01 -0.62535047314E+01  0.23057535060E+02  0.51100000000E-03 0. -1.
        -11    1    4    4    0    0  0.17873950987E+01  0.49085702192E+01  0.22478587902E+01  0.56869774255E+01  0.51100000000E-03 0.  1.
         12    1    4    4    0    0  0.10109195452E+02  0.13158832674E+02 -0.19523458595E+02  0.25622571017E+02  0.00000000000E+00 0. -1.
</event>
<event>
 8    1  0.2458065E-006  0.9118800E+02  0.7816164E-02  0.1184000E+00
        -11   -1    0    0    0    0  0.00000000000E+00  0.00000000000E+00  0.45593999997E+02  0.45594000000E+02  0.51100000000E-03 0.  1.
         11   -1    0    0    0    0 -0.00000000000E+00 -0.00000000000E+00 -0.45593999997E+02  0.45594000000E+02  0.51100000000E-03 0. -1.
         23    2    1    2    0    0  0.00000000000E+00  0.00000000000E+00  0.00000000000E+00  0.91188000000E+02  0.91188000000E+02 0.  0.
    9900012    2    3    3    0    0  0.82274807146E+01  0.43024473153E+01  0.35631123889E+02  0.54367089074E+02  0.40000011163E+02 0.  0.
         12    1    3    3    0    0 -0.82274807146E+01 -0.43024473153E+01 -0.35631123889E+02  0.36820910926E+02  0.00000000000E+00 0. -1.
         11    1    4    4    0    0  0.64429966287E+01  0.42496439568E+01  0.13669469741E+01  0.78383814406E+01  0.51100000000E-03 0. -1.
        -11    1    4    4    0    0  0.11043021598E+02  0.45026753723E+01  0.34238812833E+02  0.36256292088E+02  0.51100000000E-03 0.  1.
        -12    1    4    4    0    0 -0.92585375122E+01 -0.44498720138E+01  0.25364081844E-01  0.10272415546E+02  0.00000000000E+00 0.  1.
</event>
<event>
 8    1  0.2458065E-006  0.9118800E+02  0.7816164E-02  0.1184000E+00
        -11   -1    0    0    0    0  0.00000000000E+00  0.00000000000E+00  0.45593999997E+02  0.45594000000E+02  0.51100000000E-03 0.  1.
         11   -1    0    0    0    0 -0.00000000000E+00 -0.00000000000E+00 -0.45593999997E+02  0.45594000000E+02  0.51100000000E-03 0. -1.
         23    2    1    2    0    0  0.35527136788E-14  0.00000000000E+00  0.00000000000E+00  0.91188000000E+02  0.91188000000E+02 0.  0.
    9900012    2    3    3    0    0  0.16554142924E+02  0.17908131351E+02 -0.27586945104E+02  0.54367077190E+02  0.39999984069E+02 0.  0.
        -12    1    3    3    0    0 -0.16554142924E+02 -0.17908131351E+02  0.27586945104E+02  0.36820922810E+02  0.00000000000E+00 0.  1.
         11    1    4    4    0    0  0.15366080109E+02  0.49981206362E+01 -0.24526690230E+02  0.29371008865E+02  0.51100000000E-03 0. -1.
        -11    1    4    4    0    0 -0.95539623848E+01  0.96555028595E+01 -0.17533342438E+01  0.13696025480E+02  0.51100000000E-03 0.  1.
         12    1    4    4    0    0  0.10742025199E+02  0.32545078557E+01 -0.13069206299E+01  0.11300042845E+02  0.00000000000E+00 0. -1.
</event>
<event>
 8    1  0.2458065E-006  0.9118800E+02  0.7816164E-02  0.1184000E+00
        -11   -1    0    0    0    0  0.00000000000E+00  0.00000000000E+00  0.45593999997E+02  0.45594000000E+02  0.51100000000E-03 0. -1.
         11   -1    0    0    0    0 -0.00000000000E+00 -0.00000000000E+00 -0.45593999997E+02  0.45594000000E+02  0.51100000000E-03 0.  1.
         23    2    1    2    0    0  0.00000000000E+00 -0.44408920985E-15  0.00000000000E+00  0.91188000000E+02  0.91188000000E+02 0.  0.
    9900012    2    3    3    0    0 -0.15091191153E+02  0.71310956304E+00  0.33578673738E+02  0.54367083314E+02  0.39999998030E+02 0.  0.
        -12    1    3    3    0    0  0.15091191153E+02 -0.71310956304E+00 -0.33578673738E+02  0.36820916686E+02  0.00000000000E+00 0.  1.
         11    1    4    4    0    0  0.68110281579E+01 -0.53358654621E+01  0.31668499721E+01  0.92136042787E+01  0.51100000000E-03 0. -1.
        -11    1    4    4    0    0 -0.10746824347E+02  0.70353238272E+01  0.31385579996E+02  0.33912308191E+02  0.51100000000E-03 0.  1.
        -12    1    4    4    0    0 -0.11155394964E+02 -0.98634880205E+00 -0.97375623007E+00  0.11241170844E+02  0.00000000000E+00 0.  1.
</event>
<event>
 8    1  0.2458065E-006  0.9118800E+02  0.7816164E-02  0.1184000E+00
        -11   -1    0    0    0    0  0.00000000000E+00  0.00000000000E+00  0.45593999997E+02  0.45594000000E+02  0.51100000000E-03 0. -1.
         11   -1    0    0    0    0 -0.00000000000E+00 -0.00000000000E+00 -0.45593999997E+02  0.45594000000E+02  0.51100000000E-03 0.  1.
         23    2    1    2    0    0  0.35527136788E-14 -0.71054273576E-14  0.88817841970E-15  0.91188000000E+02  0.91188000000E+02 0.  0.
    9900012    2    3    3    0    0 -0.22607205710E+02  0.28230989268E+02  0.69070348274E+01  0.54367059828E+02  0.39999944490E+02 0.  0.
        -12    1    3    3    0    0  0.22607205710E+02 -0.28230989268E+02 -0.69070348274E+01  0.36820940172E+02  0.00000000000E+00 0.  1.
         11    1    4    4    0    0 -0.10888163623E+02  0.28524110013E+02  0.16235523550E+01  0.30574709838E+02  0.51100000000E-03 0. -1.
        -11    1    4    4    0    0  0.59417858692E+00 -0.73231531521E+01 -0.23183687916E+01  0.77043140121E+01  0.51100000000E-03 0.  1.
        -12    1    4    4    0    0 -0.12313220674E+02  0.70300324065E+01  0.76018512640E+01  0.16088035978E+02  0.00000000000E+00 0.  1.
</event>
<event>
 8    1  0.2458065E-006  0.9118800E+02  0.7816164E-02  0.1184000E+00
        -11   -1    0    0    0    0  0.00000000000E+00  0.00000000000E+00  0.45593999997E+02  0.45594000000E+02  0.51100000000E-03 0.  1.
         11   -1    0    0    0    0 -0.00000000000E+00 -0.00000000000E+00 -0.45593999997E+02  0.45594000000E+02  0.51100000000E-03 0. -1.
         23    2    1    2    0    0  0.00000000000E+00 -0.44408920985E-15  0.00000000000E+00  0.91188000000E+02  0.91188000000E+02 0.  0.
    9900012    2    3    3    0    0 -0.70667146458E+01 -0.13674726304E+01  0.36110518809E+02  0.54367109110E+02  0.40000056839E+02 0.  0.
         12    1    3    3    0    0  0.70667146458E+01  0.13674726304E+01 -0.36110518809E+02  0.36820890890E+02  0.00000000000E+00 0. -1.
         11    1    4    4    0    0 -0.12536269684E+02  0.14644779366E-01  0.33098154843E+01  0.12965845552E+02  0.51100000000E-03 0. -1.
        -11    1    4    4    0    0 -0.56924675574E+01  0.81238939266E+01  0.87155789141E+01  0.13204664157E+02  0.51100000000E-03 0.  1.
         12    1    4    4    0    0  0.11162022596E+02 -0.95060113363E+01  0.24085124410E+02  0.28196599402E+02  0.00000000000E+00 0. -1.
</event>
<event>
 8    1  0.2458065E-006  0.9118800E+02  0.7816164E-02  0.1184000E+00
        -11   -1    0    0    0    0  0.00000000000E+00  0.00000000000E+00  0.45593999997E+02  0.45594000000E+02  0.51100000000E-03 0. -1.
         11   -1    0    0    0    0 -0.00000000000E+00 -0.00000000000E+00 -0.45593999997E+02  0.45594000000E+02  0.51100000000E-03 0.  1.
         23    2    1    2    0    0  0.35527136788E-14  0.00000000000E+00  0.00000000000E+00  0.91188000000E+02  0.91188000000E+02 0.  0.
    9900012    2    3    3    0    0 -0.19670225371E+02  0.27297101665E+02  0.14957617187E+02  0.54367084240E+02  0.40000000143E+02 0.  0.
        -12    1    3    3    0    0  0.19670225371E+02 -0.27297101665E+02 -0.14957617187E+02  0.36820915760E+02  0.00000000000E+00 0.  1.
         11    1    4    4    0    0 -0.86388845389E+01  0.23445534279E+02 -0.13459913956E+01  0.25022691638E+02  0.51100000000E-03 0. -1.
        -11    1    4    4    0    0 -0.96546879489E+01 -0.78911610289E+00 -0.24370053966E+01  0.99887286067E+01  0.51100000000E-03 0.  1.
        -12    1    4    4    0    0 -0.13766528830E+01  0.46406834888E+01  0.18740613979E+02  0.19355663996E+02  0.00000000000E+00 0.  1.
</event>
<event>
 8    1  0.2458065E-006  0.9118800E+02  0.7816164E-02  0.1184000E+00
        -11   -1    0    0    0    0  0.00000000000E+00  0.00000000000E+00  0.45593999997E+02  0.45594000000E+02  0.51100000000E-03 0. -1.
         11   -1    0    0    0    0 -0.00000000000E+00 -0.00000000000E+00 -0.45593999997E+02  0.45594000000E+02  0.51100000000E-03 0.  1.
         23    2    1    2    0    0  0.00000000000E+00  0.88817841970E-15  0.00000000000E+00  0.91188000000E+02  0.91188000000E+02 0.  0.
    9900012    2    3    3    0    0  0.12795391224E+02 -0.61024289185E+01  0.33982605105E+02  0.54367093914E+02  0.40000022196E+02 0.  0.
        -12    1    3    3    0    0 -0.12795391224E+02  0.61024289185E+01 -0.33982605105E+02  0.36820906086E+02  0.00000000000E+00 0.  1.
         11    1    4    4    0    0  0.15701441653E+02 -0.11276295228E+02  0.32360976012E+02  0.37695130624E+02  0.51100000000E-03 0. -1.
        -11    1    4    4    0    0  0.18122593415E+01  0.79876745250E+01  0.55712944634E+01  0.99058846398E+01  0.51100000000E-03 0.  1.
        -12    1    4    4    0    0 -0.47183097709E+01 -0.28138082158E+01 -0.39496653704E+01  0.67660786507E+01  0.00000000000E+00 0.  1.
</event>
<event>
 8    1  0.2458065E-006  0.9118800E+02  0.7816164E-02  0.1184000E+00
        -11   -1    0    0    0    0  0.00000000000E+00  0.00000000000E+00  0.45593999997E+02  0.45594000000E+02  0.51100000000E-03 0. -1.
         11   -1    0    0    0    0 -0.00000000000E+00 -0.00000000000E+00 -0.45593999997E+02  0.45594000000E+02  0.51100000000E-03 0.  1.
         23    2    1    2    0    0  0.00000000000E+00  0.71054273576E-14  0.88817841970E-15  0.91188000000E+02  0.91188000000E+02 0.  0.
    9900012    2    3    3    0    0 -0.14543908773E+02  0.33671878161E+02 -0.32339425871E+01  0.54367094987E+02  0.40000024642E+02 0.  0.
         12    1    3    3    0    0  0.14543908773E+02 -0.33671878161E+02  0.32339425871E+01  0.36820905013E+02  0.00000000000E+00 0. -1.
         11    1    4    4    0    0 -0.13828119810E+02  0.90270809187E+01 -0.12205899466E+02  0.20535069258E+02  0.51100000000E-03 0.  1.
        -11    1    4    4    0    0 -0.18810246201E+01  0.26917957031E+02  0.12285027091E+02  0.29648550643E+02  0.51100000000E-03 0. -1.
         12    1    4    4    0    0  0.11652356572E+01 -0.22731597884E+01 -0.33130702125E+01  0.41834750858E+01  0.00000000000E+00 0. -1.
</event>
<event>
 8    1  0.2458065E-006  0.9118800E+02  0.7816164E-02  0.1184000E+00
        -11   -1    0    0    0    0  0.00000000000E+00  0.00000000000E+00  0.45593999997E+02  0.45594000000E+02  0.51100000000E-03 0. -1.
         11   -1    0    0    0    0 -0.00000000000E+00 -0.00000000000E+00 -0.45593999997E+02  0.45594000000E+02  0.51100000000E-03 0.  1.
         23    2    1    2    0    0  0.00000000000E+00  0.00000000000E+00 -0.35527136788E-14  0.91188000000E+02  0.91188000000E+02 0.  0.
    9900012    2    3    3    0    0 -0.19226802943E+02  0.98097570272E+01 -0.29830855630E+02  0.54367065303E+02  0.39999956971E+02 0.  0.
         12    1    3    3    0    0  0.19226802943E+02 -0.98097570272E+01  0.29830855630E+02  0.36820934697E+02  0.00000000000E+00 0. -1.
         11    1    4    4    0    0 -0.73252652247E+01 -0.59429621217E+01  0.73769714920E-02  0.94328343605E+01  0.51100000000E-03 0. -1.
        -11    1    4    4    0    0 -0.18452511806E+02  0.18802003813E+02 -0.24144242655E+02  0.35734507034E+02  0.51100000000E-03 0.  1.
         12    1    4    4    0    0  0.65509740884E+01 -0.30492846640E+01 -0.56939899467E+01  0.91997239079E+01  0.00000000000E+00 0. -1.
</event>
<event>
 8    1  0.2458065E-006  0.9118800E+02  0.7816164E-02  0.1184000E+00
        -11   -1    0    0    0    0  0.00000000000E+00  0.00000000000E+00  0.45593999997E+02  0.45594000000E+02  0.51100000000E-03 0. -1.
         11   -1    0    0    0    0 -0.00000000000E+00 -0.00000000000E+00 -0.45593999997E+02  0.45594000000E+02  0.51100000000E-03 0.  1.
         23    2    1    2    0    0 -0.35527136788E-14  0.71054273576E-14  0.00000000000E+00  0.91188000000E+02  0.91188000000E+02 0.  0.
    9900012    2    3    3    0    0  0.26613255979E+02 -0.25389608287E+02  0.16974762686E+01  0.54367095225E+02  0.40000025184E+02 0.  0.
        -12    1    3    3    0    0 -0.26613255979E+02  0.25389608287E+02 -0.16974762686E+01  0.36820904775E+02  0.00000000000E+00 0.  1.
         11    1    4    4    0    0  0.13308880712E+02  0.40025029419E+01  0.52925785016E+01  0.14871372601E+02  0.51100000000E-03 0. -1.
        -11    1    4    4    0    0  0.19410108571E+00  0.10173142252E+01  0.51437097283E+01  0.52469375348E+01  0.51100000000E-03 0.  1.
        -12    1    4    4    0    0  0.13110274182E+02 -0.30409425454E+02 -0.87388119613E+01  0.34248785089E+02  0.00000000000E+00 0.  1.
</event>
<event>
 8    1  0.2458065E-006  0.9118800E+02  0.7816164E-02  0.1184000E+00
        -11   -1    0    0    0    0  0.00000000000E+00  0.00000000000E+00  0.45593999997E+02  0.45594000000E+02  0.51100000000E-03 0.  1.
         11   -1    0    0    0    0 -0.00000000000E+00 -0.00000000000E+00 -0.45593999997E+02  0.45594000000E+02  0.51100000000E-03 0. -1.
         23    2    1    2    0    0  0.17763568394E-14 -0.17763568394E-14  0.71054273576E-14  0.91188000000E+02  0.91188000000E+02 0.  0.
    9900012    2    3    3    0    0 -0.12550387325E+02  0.95063929585E+01 -0.33285067010E+02  0.54367089977E+02  0.40000013220E+02 0.  0.
        -12    1    3    3    0    0  0.12550387325E+02 -0.95063929585E+01  0.33285067010E+02  0.36820910023E+02  0.00000000000E+00 0.  1.
         11    1    4    4    0    0 -0.18695283245E+02  0.11660923651E+02 -0.14324537480E+02  0.26280851019E+02  0.51100000000E-03 0. -1.
        -11    1    4    4    0    0 -0.54748369785E+01  0.36979427841E+01 -0.11006440326E+02  0.12837069358E+02  0.51100000000E-03 0.  1.
        -12    1    4    4    0    0  0.11619732899E+02 -0.58524734767E+01 -0.79540892032E+01  0.15249169600E+02  0.00000000000E+00 0.  1.
</event>
<event>
 8    1  0.2458065E-006  0.9118800E+02  0.7816164E-02  0.1184000E+00
        -11   -1    0    0    0    0  0.00000000000E+00  0.00000000000E+00  0.45593999997E+02  0.45594000000E+02  0.51100000000E-03 0.  1.
         11   -1    0    0    0    0 -0.00000000000E+00 -0.00000000000E+00 -0.45593999997E+02  0.45594000000E+02  0.51100000000E-03 0. -1.
         23    2    1    2    0    0  0.17763568394E-14  0.44408920985E-15  0.00000000000E+00  0.91188000000E+02  0.91188000000E+02 0.  0.
    9900012    2    3    3    0    0 -0.12854005776E+02 -0.21512692565E+01  0.34437301049E+02  0.54367066722E+02  0.39999960206E+02 0.  0.
         12    1    3    3    0    0  0.12854005776E+02  0.21512692565E+01 -0.34437301049E+02  0.36820933278E+02  0.00000000000E+00 0. -1.
         11    1    4    4    0    0 -0.13638860783E+02 -0.35304559301E+00  0.12970667947E+02  0.18825020369E+02  0.51100000000E-03 0. -1.
        -11    1    4    4    0    0 -0.45810577723E+01 -0.90269924549E+01  0.24118658085E+02  0.26156879615E+02  0.51100000000E-03 0.  1.
        -12    1    4    4    0    0  0.53659127790E+01  0.72287687915E+01 -0.26520249827E+01  0.93851667381E+01  0.00000000000E+00 0.  1.
</event>
<event>
 8    1  0.2458065E-006  0.9118800E+02  0.7816164E-02  0.1184000E+00
        -11   -1    0    0    0    0  0.00000000000E+00  0.00000000000E+00  0.45593999997E+02  0.45594000000E+02  0.51100000000E-03 0. -1.
         11   -1    0    0    0    0 -0.00000000000E+00 -0.00000000000E+00 -0.45593999997E+02  0.45594000000E+02  0.51100000000E-03 0.  1.
         23    2    1    2    0    0  0.00000000000E+00  0.35527136788E-14  0.35527136788E-14  0.91188000000E+02  0.91188000000E+02 0.  0.
    9900012    2    3    3    0    0  0.37984243399E+01 -0.19603215188E+02 -0.30936474450E+02  0.54367088489E+02  0.40000009827E+02 0.  0.
         12    1    3    3    0    0 -0.37984243399E+01  0.19603215188E+02  0.30936474450E+02  0.36820911511E+02  0.00000000000E+00 0. -1.
         11    1    4    4    0    0 -0.40500130376E+01 -0.84142706343E+01 -0.86974687990E+01  0.12761211529E+02  0.51100000000E-03 0. -1.
        -11    1    4    4    0    0  0.37162487054E+01  0.10204325375E+01  0.79200101120E+01  0.88078571423E+01  0.51100000000E-03 0.  1.
        -12    1    4    4    0    0  0.41321886721E+01 -0.12209377091E+02 -0.30159015763E+02  0.32798019817E+02  0.00000000000E+00 0.  1.
</event>
<event>
 8    1  0.2458065E-006  0.9118800E+02  0.7816164E-02  0.1184000E+00
        -11   -1    0    0    0    0  0.00000000000E+00  0.00000000000E+00  0.45593999997E+02  0.45594000000E+02  0.51100000000E-03 0. -1.
         11   -1    0    0    0    0 -0.00000000000E+00 -0.00000000000E+00 -0.45593999997E+02  0.45594000000E+02  0.51100000000E-03 0.  1.
         23    2    1    2    0    0  0.00000000000E+00 -0.35527136788E-14 -0.35527136788E-14  0.91188000000E+02  0.91188000000E+02 0.  0.
    9900012    2    3    3    0    0  0.91804003144E+01 -0.19314490898E+02 -0.29974146739E+02  0.54367098581E+02  0.40000032835E+02 0.  0.
         12    1    3    3    0    0 -0.91804003144E+01  0.19314490898E+02  0.29974146739E+02  0.36820901419E+02  0.00000000000E+00 0. -1.
         11    1    4    4    0    0  0.98335456423E+01 -0.20544087744E+02 -0.12512120630E+02  0.25986752857E+02  0.51100000000E-03 0. -1.
        -11    1    4    4    0    0  0.88894381947E+01  0.49878382780E+01 -0.14464544349E+02  0.17695301229E+02  0.51100000000E-03 0.  1.
         12    1    4    4    0    0 -0.95425835226E+01 -0.37582414318E+01 -0.29974817599E+01  0.10685044494E+02  0.00000000000E+00 0. -1.
</event>
<event>
 8    1  0.2458065E-006  0.9118800E+02  0.7816164E-02  0.1184000E+00
        -11   -1    0    0    0    0  0.00000000000E+00  0.00000000000E+00  0.45593999997E+02  0.45594000000E+02  0.51100000000E-03 0. -1.
         11   -1    0    0    0    0 -0.00000000000E+00 -0.00000000000E+00 -0.45593999997E+02  0.45594000000E+02  0.51100000000E-03 0.  1.
         23    2    1    2    0    0  0.17763568394E-14  0.35527136788E-14 -0.35527136788E-14  0.91188000000E+02  0.91188000000E+02 0.  0.
    9900012    2    3    3    0    0 -0.97092590571E+01 -0.29571375511E+02  0.19673447747E+02  0.54367075144E+02  0.39999979405E+02 0.  0.
        -12    1    3    3    0    0  0.97092590571E+01  0.29571375511E+02 -0.19673447747E+02  0.36820924856E+02  0.00000000000E+00 0.  1.
         11    1    4    4    0    0  0.58180828426E+01 -0.19271001488E+01  0.25030378328E-01  0.61289827646E+01  0.51100000000E-03 0. -1.
        -11    1    4    4    0    0 -0.12091414427E+02  0.53913950777E+00  0.15310122183E+02  0.19516475495E+02  0.51100000000E-03 0.  1.
         12    1    4    4    0    0 -0.34359274732E+01 -0.28183414870E+02  0.43382951860E+01  0.28721616884E+02  0.00000000000E+00 0. -1.
</event>
<event>
 8    1  0.2458065E-006  0.9118800E+02  0.7816164E-02  0.1184000E+00
        -11   -1    0    0    0    0  0.00000000000E+00  0.00000000000E+00  0.45593999997E+02  0.45594000000E+02  0.51100000000E-03 0. -1.
         11   -1    0    0    0    0 -0.00000000000E+00 -0.00000000000E+00 -0.45593999997E+02  0.45594000000E+02  0.51100000000E-03 0.  1.
         23    2    1    2    0    0  0.17763568394E-14 -0.35527136788E-14  0.00000000000E+00  0.91188000000E+02  0.91188000000E+02 0.  0.
    9900012    2    3    3    0    0 -0.14364487198E+02  0.18592637980E+02 -0.28350301193E+02  0.54367295808E+02  0.40000482450E+02 0.  0.
         12    1    3    3    0    0  0.14364487198E+02 -0.18592637980E+02  0.28350301193E+02  0.36820704192E+02  0.00000000000E+00 0. -1.
         11    1    4    4    0    0 -0.11680940654E+01 -0.30968707444E+00  0.23492209267E+01  0.26418154844E+01  0.51100000000E-03 0. -1.
        -11    1    4    4    0    0 -0.13382301452E+02 -0.23217274804E+01  0.95279159929E+00  0.13615587491E+02  0.51100000000E-03 0.  1.
         12    1    4    4    0    0  0.18590831935E+00  0.21224052535E+02 -0.31652313719E+02  0.38109892832E+02  0.00000000000E+00 0. -1.
</event>
<event>
 8    1  0.2458065E-006  0.9118800E+02  0.7816164E-02  0.1184000E+00
        -11   -1    0    0    0    0  0.00000000000E+00  0.00000000000E+00  0.45593999997E+02  0.45594000000E+02  0.51100000000E-03 0.  1.
         11   -1    0    0    0    0 -0.00000000000E+00 -0.00000000000E+00 -0.45593999997E+02  0.45594000000E+02  0.51100000000E-03 0. -1.
         23    2    1    2    0    0  0.00000000000E+00  0.17763568394E-14 -0.35527136788E-14  0.91188000000E+02  0.91188000000E+02 0.  0.
    9900012    2    3    3    0    0  0.20596894965E+02 -0.95308953485E+01 -0.28994998674E+02  0.54367082080E+02  0.39999995218E+02 0.  0.
        -12    1    3    3    0    0 -0.20596894965E+02  0.95308953485E+01  0.28994998674E+02  0.36820917920E+02  0.00000000000E+00 0.  1.
         11    1    4    4    0    0  0.21582962992E+02  0.46985180133E+01 -0.38855747500E+01  0.22427618118E+02  0.51100000000E-03 0. -1.
        -11    1    4    4    0    0 -0.42926463814E+01 -0.56744970929E+01 -0.25018449793E+01  0.75422780891E+01  0.51100000000E-03 0.  1.
         12    1    4    4    0    0  0.33065783539E+01 -0.85549162689E+01 -0.22607578945E+02  0.24397185873E+02  0.00000000000E+00 0. -1.
</event>
<event>
 8    1  0.2458065E-006  0.9118800E+02  0.7816164E-02  0.1184000E+00
        -11   -1    0    0    0    0  0.00000000000E+00  0.00000000000E+00  0.45593999997E+02  0.45594000000E+02  0.51100000000E-03 0.  1.
         11   -1    0    0    0    0 -0.00000000000E+00 -0.00000000000E+00 -0.45593999997E+02  0.45594000000E+02  0.51100000000E-03 0. -1.
         23    2    1    2    0    0  0.00000000000E+00  0.00000000000E+00  0.35527136788E-14  0.91188000000E+02  0.91188000000E+02 0.  0.
    9900012    2    3    3    0    0  0.25714069513E+02  0.49622499576E+01  0.25883241865E+02  0.54367088754E+02  0.40000010431E+02 0.  0.
         12    1    3    3    0    0 -0.25714069513E+02 -0.49622499576E+01 -0.25883241865E+02  0.36820911246E+02  0.00000000000E+00 0. -1.
         11    1    4    4    0    0  0.18076539487E+02 -0.17657711406E+01  0.10644971766E+02  0.21052188763E+02  0.51100000000E-03 0. -1.
        -11    1    4    4    0    0 -0.13053744538E+01  0.12380483351E+02  0.18451280082E+02  0.22258259307E+02  0.51100000000E-03 0.  1.
         12    1    4    4    0    0  0.89429044798E+01 -0.56524622526E+01 -0.32130099829E+01  0.11056640683E+02  0.00000000000E+00 0. -1.
</event>
<event>
 8    1  0.2458065E-006  0.9118800E+02  0.7816164E-02  0.1184000E+00
        -11   -1    0    0    0    0  0.00000000000E+00  0.00000000000E+00  0.45593999997E+02  0.45594000000E+02  0.51100000000E-03 0.  1.
         11   -1    0    0    0    0 -0.00000000000E+00 -0.00000000000E+00 -0.45593999997E+02  0.45594000000E+02  0.51100000000E-03 0. -1.
         23    2    1    2    0    0  0.18318679906E-14  0.00000000000E+00  0.00000000000E+00  0.91188000000E+02  0.91188000000E+02 0.  0.
    9900012    2    3    3    0    0 -0.29602027752E+00 -0.33809630196E+02 -0.14580893288E+02  0.54367066130E+02  0.39999958857E+02 0.  0.
        -12    1    3    3    0    0  0.29602027752E+00  0.33809630196E+02  0.14580893288E+02  0.36820933870E+02  0.00000000000E+00 0.  1.
         11    1    4    4    0    0  0.42052660743E+01 -0.87872264396E+01 -0.88859907095E+01  0.13185614980E+02  0.51100000000E-03 0. -1.
        -11    1    4    4    0    0  0.56003005599E+01 -0.55533737976E+01  0.11057495895E+02  0.13582030136E+02  0.51100000000E-03 0.  1.
        -12    1    4    4    0    0 -0.10101586912E+02 -0.19469029959E+02 -0.16752398473E+02  0.27599421013E+02  0.00000000000E+00 0.  1.
</event>
<event>
 8    1  0.2458065E-006  0.9118800E+02  0.7816164E-02  0.1184000E+00
        -11   -1    0    0    0    0  0.00000000000E+00  0.00000000000E+00  0.45593999997E+02  0.45594000000E+02  0.51100000000E-03 0. -1.
         11   -1    0    0    0    0 -0.00000000000E+00 -0.00000000000E+00 -0.45593999997E+02  0.45594000000E+02  0.51100000000E-03 0.  1.
         23    2    1    2    0    0  0.00000000000E+00 -0.17763568394E-14  0.00000000000E+00  0.91188000000E+02  0.91188000000E+02 0.  0.
    9900012    2    3    3    0    0  0.36241223143E+02  0.12686526354E+01 -0.63830929986E+01  0.54367087319E+02  0.40000007161E+02 0.  0.
         12    1    3    3    0    0 -0.36241223143E+02 -0.12686526354E+01  0.63830929986E+01  0.36820912681E+02  0.00000000000E+00 0. -1.
         11    1    4    4    0    0  0.10717703430E+02  0.85270628419E+01 -0.86034902354E+01  0.16174053667E+02  0.51100000000E-03 0. -1.
        -11    1    4    4    0    0  0.25226838861E+02  0.41463693923E+01 -0.28203398485E+01  0.25720421753E+02  0.51100000000E-03 0.  1.
         12    1    4    4    0    0  0.29668085246E+00 -0.11404779599E+02  0.50407370853E+01  0.12472611899E+02  0.00000000000E+00 0. -1.
</event>
<event>
 8    1  0.2458065E-006  0.9118800E+02  0.7816164E-02  0.1184000E+00
        -11   -1    0    0    0    0  0.00000000000E+00  0.00000000000E+00  0.45593999997E+02  0.45594000000E+02  0.51100000000E-03 0.  1.
         11   -1    0    0    0    0 -0.00000000000E+00 -0.00000000000E+00 -0.45593999997E+02  0.45594000000E+02  0.51100000000E-03 0. -1.
         23    2    1    2    0    0  0.35527136788E-14  0.35527136788E-14  0.00000000000E+00  0.91188000000E+02  0.91188000000E+02 0.  0.
    9900012    2    3    3    0    0  0.26162026452E+02  0.23716564590E+02  0.10433112637E+02  0.54367124083E+02  0.40000090971E+02 0.  0.
         12    1    3    3    0    0 -0.26162026452E+02 -0.23716564590E+02 -0.10433112637E+02  0.36820875917E+02  0.00000000000E+00 0. -1.
         11    1    4    4    0    0 -0.45061392854E+01  0.12273151792E+02  0.62706268084E+01  0.14500217481E+02  0.51100000000E-03 0. -1.
        -11    1    4    4    0    0  0.92650683540E+00  0.97469741339E+01  0.20416040642E+01  0.10001503242E+02  0.51100000000E-03 0.  1.
         12    1    4    4    0    0  0.29741658902E+02  0.16964386646E+01  0.21208817649E+01  0.29865403360E+02  0.00000000000E+00 0. -1.
</event>
<event>
 8    1  0.2458065E-006  0.9118800E+02  0.7816164E-02  0.1184000E+00
        -11   -1    0    0    0    0  0.00000000000E+00  0.00000000000E+00  0.45593999997E+02  0.45594000000E+02  0.51100000000E-03 0. -1.
         11   -1    0    0    0    0 -0.00000000000E+00 -0.00000000000E+00 -0.45593999997E+02  0.45594000000E+02  0.51100000000E-03 0.  1.
         23    2    1    2    0    0  0.35527136788E-14  0.22204460493E-15  0.35527136788E-14  0.91188000000E+02  0.91188000000E+02 0.  0.
    9900012    2    3    3    0    0  0.18545786418E+02  0.14014887666E+01 -0.31778452888E+02  0.54367076158E+02  0.39999981717E+02 0.  0.
         12    1    3    3    0    0 -0.18545786418E+02 -0.14014887666E+01  0.31778452888E+02  0.36820923842E+02  0.00000000000E+00 0. -1.
         11    1    4    4    0    0  0.20294082944E+01  0.68166804342E+01 -0.20350528623E+02  0.21557589050E+02  0.51100000000E-03 0. -1.
        -11    1    4    4    0    0 -0.34676291585E+01  0.33023971243E+01 -0.98469597725E+01  0.10949561442E+02  0.51100000000E-03 0.  1.
        -12    1    4    4    0    0  0.19984007282E+02 -0.87175887919E+01 -0.15809644935E+01  0.21859925666E+02  0.00000000000E+00 0.  1.
</event>
<event>
 8    1  0.2458065E-006  0.9118800E+02  0.7816164E-02  0.1184000E+00
        -11   -1    0    0    0    0  0.00000000000E+00  0.00000000000E+00  0.45593999997E+02  0.45594000000E+02  0.51100000000E-03 0.  1.
         11   -1    0    0    0    0 -0.00000000000E+00 -0.00000000000E+00 -0.45593999997E+02  0.45594000000E+02  0.51100000000E-03 0. -1.
         23    2    1    2    0    0  0.35527136788E-14 -0.17763568394E-14  0.00000000000E+00  0.91188000000E+02  0.91188000000E+02 0.  0.
    9900012    2    3    3    0    0  0.17412184869E+02 -0.79304464891E+01  0.31459545469E+02  0.54367093377E+02  0.40000020972E+02 0.  0.
         12    1    3    3    0    0 -0.17412184869E+02  0.79304464891E+01 -0.31459545469E+02  0.36820906623E+02  0.00000000000E+00 0. -1.
         11    1    4    4    0    0  0.19262375618E+02 -0.10539291624E+02  0.48966202507E+01  0.22496503562E+02  0.51100000000E-03 0. -1.
        -11    1    4    4    0    0  0.14207642047E+01  0.12256469707E+01  0.27982973734E+02  0.28045812533E+02  0.51100000000E-03 0.  1.
        -12    1    4    4    0    0 -0.32709549531E+01  0.13831981646E+01 -0.14200485156E+01  0.38247772816E+01  0.00000000000E+00 0.  1.
</event>
<event>
 8    1  0.2458065E-006  0.9118800E+02  0.7816164E-02  0.1184000E+00
        -11   -1    0    0    0    0  0.00000000000E+00  0.00000000000E+00  0.45593999997E+02  0.45594000000E+02  0.51100000000E-03 0.  1.
         11   -1    0    0    0    0 -0.00000000000E+00 -0.00000000000E+00 -0.45593999997E+02  0.45594000000E+02  0.51100000000E-03 0. -1.
         23    2    1    2    0    0 -0.35527136788E-14 -0.55511151231E-16  0.00000000000E+00  0.91188000000E+02  0.91188000000E+02 0.  0.
    9900012    2    3    3    0    0  0.31690584747E+02  0.37518331585E+00  0.18744366055E+02  0.54367011652E+02  0.39999834662E+02 0.  0.
         12    1    3    3    0    0 -0.31690584747E+02 -0.37518331585E+00 -0.18744366055E+02  0.36820988348E+02  0.00000000000E+00 0. -1.
         11    1    4    4    0    0 -0.45351911451E+01  0.21662721803E+01 -0.75091997661E+00  0.50817885586E+01  0.51100000000E-03 0. -1.
        -11    1    4    4    0    0  0.19156054734E+02  0.22085509831E+01 -0.42727243273E+01  0.19750653252E+02  0.51100000000E-03 0.  1.
        -12    1    4    4    0    0  0.17069721158E+02 -0.39996398476E+01  0.23768010359E+02  0.29534569842E+02  0.00000000000E+00 0.  1.
</event>
<event>
 8    1  0.2458065E-006  0.9118800E+02  0.7816164E-02  0.1184000E+00
        -11   -1    0    0    0    0  0.00000000000E+00  0.00000000000E+00  0.45593999997E+02  0.45594000000E+02  0.51100000000E-03 0. -1.
         11   -1    0    0    0    0 -0.00000000000E+00 -0.00000000000E+00 -0.45593999997E+02  0.45594000000E+02  0.51100000000E-03 0.  1.
         23    2    1    2    0    0 -0.17763568394E-14 -0.15543122345E-14  0.71054273576E-14  0.91188000000E+02  0.91188000000E+02 0.  0.
    9900012    2    3    3    0    0 -0.11946699312E+02  0.12095734626E+01 -0.34807960696E+02  0.54367070894E+02  0.39999969717E+02 0.  0.
         12    1    3    3    0    0  0.11946699312E+02 -0.12095734626E+01  0.34807960696E+02  0.36820929106E+02  0.00000000000E+00 0. -1.
         11    1    4    4    0    0  0.59045303356E+01  0.25546594558E+01 -0.24088774659E+01  0.68696764353E+01  0.51100000000E-03 0. -1.
        -11    1    4    4    0    0 -0.16116703936E+02 -0.13296209521E+02 -0.12879764595E+02  0.24544361260E+02  0.51100000000E-03 0.  1.
        -12    1    4    4    0    0 -0.17345257110E+01  0.11951123528E+02 -0.19519318636E+02  0.22953033199E+02  0.00000000000E+00 0.  1.
</event>
<event>
 8    1  0.2458065E-006  0.9118800E+02  0.7816164E-02  0.1184000E+00
        -11   -1    0    0    0    0  0.00000000000E+00  0.00000000000E+00  0.45593999997E+02  0.45594000000E+02  0.51100000000E-03 0. -1.
         11   -1    0    0    0    0 -0.00000000000E+00 -0.00000000000E+00 -0.45593999997E+02  0.45594000000E+02  0.51100000000E-03 0.  1.
         23    2    1    2    0    0  0.88817841970E-15 -0.71054273576E-14  0.00000000000E+00  0.91188000000E+02  0.91188000000E+02 0.  0.
    9900012    2    3    3    0    0  0.60894902761E+01 -0.34197617338E+02 -0.12215009749E+02  0.54367280471E+02  0.40000447488E+02 0.  0.
         12    1    3    3    0    0 -0.60894902761E+01  0.34197617338E+02  0.12215009749E+02  0.36820719529E+02  0.00000000000E+00 0. -1.
         11    1    4    4    0    0  0.45829782141E+01 -0.29598076492E+02 -0.10991923103E+02  0.31904109376E+02  0.51100000000E-03 0.  1.
        -11    1    4    4    0    0  0.17190541952E+01  0.21571447588E+01 -0.10572198343E+02  0.10926106301E+02  0.51100000000E-03 0. -1.
         12    1    4    4    0    0 -0.21254213326E+00 -0.67566856055E+01  0.93491116976E+01  0.11537064794E+02  0.00000000000E+00 0. -1.
</event>
<event>
 8    1  0.2458065E-006  0.9118800E+02  0.7816164E-02  0.1184000E+00
        -11   -1    0    0    0    0  0.00000000000E+00  0.00000000000E+00  0.45593999997E+02  0.45594000000E+02  0.51100000000E-03 0. -1.
         11   -1    0    0    0    0 -0.00000000000E+00 -0.00000000000E+00 -0.45593999997E+02  0.45594000000E+02  0.51100000000E-03 0.  1.
         23    2    1    2    0    0 -0.44408920985E-15  0.00000000000E+00  0.71054273576E-14  0.91188000000E+02  0.91188000000E+02 0.  0.
    9900012    2    3    3    0    0 -0.13348546153E+01 -0.29856545671E+01  0.36675492189E+02  0.54366977508E+02  0.39999756824E+02 0.  0.
        -12    1    3    3    0    0  0.13348546153E+01  0.29856545671E+01 -0.36675492189E+02  0.36821022492E+02  0.00000000000E+00 0.  1.
         11    1    4    4    0    0  0.32509496084E+01  0.11411747498E+02  0.12200483653E+02  0.17019061547E+02  0.51100000000E-03 0. -1.
        -11    1    4    4    0    0  0.60471058132E+00 -0.81768735351E+01 -0.29788908071E+01  0.87235730293E+01  0.51100000000E-03 0.  1.
        -12    1    4    4    0    0 -0.51905148050E+01 -0.62205285296E+01  0.27453899343E+02  0.28624342932E+02  0.00000000000E+00 0.  1.
</event>
<event>
 8    1  0.2458065E-006  0.9118800E+02  0.7816164E-02  0.1184000E+00
        -11   -1    0    0    0    0  0.00000000000E+00  0.00000000000E+00  0.45593999997E+02  0.45594000000E+02  0.51100000000E-03 0. -1.
         11   -1    0    0    0    0 -0.00000000000E+00 -0.00000000000E+00 -0.45593999997E+02  0.45594000000E+02  0.51100000000E-03 0.  1.
         23    2    1    2    0    0  0.00000000000E+00  0.00000000000E+00  0.00000000000E+00  0.91188000000E+02  0.91188000000E+02 0.  0.
    9900012    2    3    3    0    0  0.22579884128E+02  0.28491409402E+02 -0.58453702857E+01  0.54367082973E+02  0.39999997253E+02 0.  0.
         12    1    3    3    0    0 -0.22579884128E+02 -0.28491409402E+02  0.58453702857E+01  0.36820917027E+02  0.00000000000E+00 0. -1.
         11    1    4    4    0    0 -0.13001875212E+01 -0.54957612988E+00 -0.31682456460E+01  0.34684726102E+01  0.51100000000E-03 0. -1.
        -11    1    4    4    0    0  0.25464592926E+02  0.14295276018E+02 -0.13859448209E+02  0.32324676553E+02  0.51100000000E-03 0.  1.
         12    1    4    4    0    0 -0.15845212770E+01  0.14745709514E+02  0.11182323570E+02  0.18573933810E+02  0.00000000000E+00 0. -1.
</event>
<event>
 8    1  0.2458065E-006  0.9118800E+02  0.7816164E-02  0.1184000E+00
        -11   -1    0    0    0    0  0.00000000000E+00  0.00000000000E+00  0.45593999997E+02  0.45594000000E+02  0.51100000000E-03 0.  1.
         11   -1    0    0    0    0 -0.00000000000E+00 -0.00000000000E+00 -0.45593999997E+02  0.45594000000E+02  0.51100000000E-03 0. -1.
         23    2    1    2    0    0 -0.35527136788E-14  0.88817841970E-15  0.00000000000E+00  0.91188000000E+02  0.91188000000E+02 0.  0.
    9900012    2    3    3    0    0  0.23651639407E+02 -0.55130608969E+01  0.27676526328E+02  0.54367027760E+02  0.39999871384E+02 0.  0.
         12    1    3    3    0    0 -0.23651639407E+02  0.55130608969E+01 -0.27676526328E+02  0.36820972240E+02  0.00000000000E+00 0. -1.
         11    1    4    4    0    0  0.58607112155E+01  0.96273310951E+01 -0.11402104382E+01  0.11328438554E+02  0.51100000000E-03 0. -1.
        -11    1    4    4    0    0  0.68115764525E+01 -0.15531848340E+02  0.64973657820E+01  0.18161818439E+02  0.51100000000E-03 0.  1.
         12    1    4    4    0    0  0.10979351739E+02  0.39145634808E+00  0.22319370985E+02  0.24876770768E+02  0.00000000000E+00 0. -1.
</event>
<event>
 8    1  0.2458065E-006  0.9118800E+02  0.7816164E-02  0.1184000E+00
        -11   -1    0    0    0    0  0.00000000000E+00  0.00000000000E+00  0.45593999997E+02  0.45594000000E+02  0.51100000000E-03 0.  1.
         11   -1    0    0    0    0 -0.00000000000E+00 -0.00000000000E+00 -0.45593999997E+02  0.45594000000E+02  0.51100000000E-03 0. -1.
         23    2    1    2    0    0  0.17763568394E-14  0.00000000000E+00 -0.17763568394E-14  0.91188000000E+02  0.91188000000E+02 0.  0.
    9900012    2    3    3    0    0 -0.14274770087E+02  0.32683282916E+02  0.91550218834E+01  0.54367075665E+02  0.39999980593E+02 0.  0.
         12    1    3    3    0    0  0.14274770087E+02 -0.32683282916E+02 -0.91550218834E+01  0.36820924335E+02  0.00000000000E+00 0. -1.
         11    1    4    4    0    0 -0.20768811042E+02  0.12111998614E+02 -0.28206454681E+01  0.24207438189E+02  0.51100000000E-03 0. -1.
        -11    1    4    4    0    0  0.10998358027E+02  0.14336319792E+02  0.29622290573E+01  0.18310345320E+02  0.51100000000E-03 0.  1.
         12    1    4    4    0    0 -0.45043170717E+01  0.62349645103E+01  0.90134382942E+01  0.11849292156E+02  0.00000000000E+00 0. -1.
</event>
<event>
 8    1  0.2458065E-006  0.9118800E+02  0.7816164E-02  0.1184000E+00
        -11   -1    0    0    0    0  0.00000000000E+00  0.00000000000E+00  0.45593999997E+02  0.45594000000E+02  0.51100000000E-03 0. -1.
         11   -1    0    0    0    0 -0.00000000000E+00 -0.00000000000E+00 -0.45593999997E+02  0.45594000000E+02  0.51100000000E-03 0.  1.
         23    2    1    2    0    0  0.17763568394E-14 -0.88817841970E-15  0.00000000000E+00  0.91188000000E+02  0.91188000000E+02 0.  0.
    9900012    2    3    3    0    0  0.13832147851E+02 -0.51361444769E+01  0.33735320773E+02  0.54367079833E+02  0.39999990096E+02 0.  0.
        -12    1    3    3    0    0 -0.13832147851E+02  0.51361444769E+01 -0.33735320773E+02  0.36820920167E+02  0.00000000000E+00 0.  1.
         11    1    4    4    0    0  0.91846226451E+01  0.86976807257E+01  0.20977858884E+02  0.24496479477E+02  0.51100000000E-03 0. -1.
        -11    1    4    4    0    0 -0.90103336979E+01 -0.80382164008E+01  0.69925069297E+01  0.13953285981E+02  0.51100000000E-03 0.  1.
        -12    1    4    4    0    0  0.13657858904E+02 -0.57956088018E+01  0.57649549590E+01  0.15917314375E+02  0.00000000000E+00 0.  1.
</event>
<event>
 8    1  0.2458065E-006  0.9118800E+02  0.7816164E-02  0.1184000E+00
        -11   -1    0    0    0    0  0.00000000000E+00  0.00000000000E+00  0.45593999997E+02  0.45594000000E+02  0.51100000000E-03 0. -1.
         11   -1    0    0    0    0 -0.00000000000E+00 -0.00000000000E+00 -0.45593999997E+02  0.45594000000E+02  0.51100000000E-03 0.  1.
         23    2    1    2    0    0  0.17763568394E-14  0.00000000000E+00  0.00000000000E+00  0.91188000000E+02  0.91188000000E+02 0.  0.
    9900012    2    3    3    0    0  0.94156883337E+01 -0.29815250358E+02 -0.19446749460E+02  0.54367076529E+02  0.39999982562E+02 0.  0.
         12    1    3    3    0    0 -0.94156883337E+01  0.29815250358E+02  0.19446749460E+02  0.36820923471E+02  0.00000000000E+00 0. -1.
         11    1    4    4    0    0 -0.13950304752E+02 -0.15309578556E+02 -0.87180371080E+01  0.22472168777E+02  0.51100000000E-03 0. -1.
        -11    1    4    4    0    0  0.35833781559E+01 -0.12739917609E+00 -0.59945569501E+01  0.69850943334E+01  0.51100000000E-03 0.  1.
         12    1    4    4    0    0  0.19782614930E+02 -0.14378272626E+02 -0.47341554022E+01  0.24909813418E+02  0.00000000000E+00 0. -1.
</event>
<event>
 8    1  0.2458065E-006  0.9118800E+02  0.7816164E-02  0.1184000E+00
        -11   -1    0    0    0    0  0.00000000000E+00  0.00000000000E+00  0.45593999997E+02  0.45594000000E+02  0.51100000000E-03 0.  1.
         11   -1    0    0    0    0 -0.00000000000E+00 -0.00000000000E+00 -0.45593999997E+02  0.45594000000E+02  0.51100000000E-03 0. -1.
         23    2    1    2    0    0  0.35527136788E-14  0.00000000000E+00  0.00000000000E+00  0.91188000000E+02  0.91188000000E+02 0.  0.
    9900012    2    3    3    0    0  0.31446745317E+02 -0.60579948646E+01  0.18170943090E+02  0.54367078426E+02  0.39999986887E+02 0.  0.
         12    1    3    3    0    0 -0.31446745317E+02  0.60579948646E+01 -0.18170943090E+02  0.36820921574E+02  0.00000000000E+00 0. -1.
         11    1    4    4    0    0  0.85798519217E+01 -0.12922919578E+02  0.50202566225E+01  0.16303946953E+02  0.51100000000E-03 0.  1.
        -11    1    4    4    0    0  0.23211626012E+02  0.77061043760E+01  0.19728645232E+02  0.31422652175E+02  0.51100000000E-03 0. -1.
         12    1    4    4    0    0 -0.34473261635E+00 -0.84117966213E+00 -0.65779587642E+01  0.66404792978E+01  0.00000000000E+00 0. -1.
</event>
<event>
 8    1  0.2458065E-006  0.9118800E+02  0.7816164E-02  0.1184000E+00
        -11   -1    0    0    0    0  0.00000000000E+00  0.00000000000E+00  0.45593999997E+02  0.45594000000E+02  0.51100000000E-03 0. -1.
         11   -1    0    0    0    0 -0.00000000000E+00 -0.00000000000E+00 -0.45593999997E+02  0.45594000000E+02  0.51100000000E-03 0.  1.
         23    2    1    2    0    0  0.17763568394E-14  0.00000000000E+00  0.00000000000E+00  0.91188000000E+02  0.91188000000E+02 0.  0.
    9900012    2    3    3    0    0  0.11214353999E+02  0.33423458396E+02 -0.10625011861E+02  0.54367079536E+02  0.39999989418E+02 0.  0.
        -12    1    3    3    0    0 -0.11214353999E+02 -0.33423458396E+02  0.10625011861E+02  0.36820920464E+02  0.00000000000E+00 0.  1.
         11    1    4    4    0    0  0.25169195236E+01  0.17443577157E+02 -0.76171369658E+01  0.19199844888E+02  0.51100000000E-03 0. -1.
        -11    1    4    4    0    0  0.31648417757E+01  0.16005841695E+02 -0.14871879928E+02  0.22076594046E+02  0.51100000000E-03 0.  1.
        -12    1    4    4    0    0  0.55325927001E+01 -0.25960456328E-01  0.11864005033E+02  0.13090640601E+02  0.00000000000E+00 0.  1.
</event>
<event>
 8    1  0.2458065E-006  0.9118800E+02  0.7816164E-02  0.1184000E+00
        -11   -1    0    0    0    0  0.00000000000E+00  0.00000000000E+00  0.45593999997E+02  0.45594000000E+02  0.51100000000E-03 0.  1.
         11   -1    0    0    0    0 -0.00000000000E+00 -0.00000000000E+00 -0.45593999997E+02  0.45594000000E+02  0.51100000000E-03 0. -1.
         23    2    1    2    0    0 -0.35527136788E-14  0.35527136788E-14  0.17763568394E-14  0.91188000000E+02  0.91188000000E+02 0.  0.
    9900012    2    3    3    0    0  0.28177481790E+02 -0.17986918083E+02 -0.15436274364E+02  0.54367105545E+02  0.40000048712E+02 0.  0.
        -12    1    3    3    0    0 -0.28177481790E+02  0.17986918083E+02  0.15436274364E+02  0.36820894455E+02  0.00000000000E+00 0.  1.
         11    1    4    4    0    0  0.10727852169E+02 -0.63755247805E+01 -0.31020938250E+01  0.12859125738E+02  0.51100000000E-03 0. -1.
        -11    1    4    4    0    0 -0.13547167825E+01 -0.80700237528E+01 -0.19443340562E+02  0.21095118710E+02  0.51100000000E-03 0.  1.
        -12    1    4    4    0    0  0.18804346403E+02 -0.35413695500E+01  0.71091600222E+01  0.20412861097E+02  0.00000000000E+00 0.  1.
</event>
<event>
 8    1  0.2458065E-006  0.9118800E+02  0.7816164E-02  0.1184000E+00
        -11   -1    0    0    0    0  0.00000000000E+00  0.00000000000E+00  0.45593999997E+02  0.45594000000E+02  0.51100000000E-03 0. -1.
         11   -1    0    0    0    0 -0.00000000000E+00 -0.00000000000E+00 -0.45593999997E+02  0.45594000000E+02  0.51100000000E-03 0.  1.
         23    2    1    2    0    0  0.88817841970E-15  0.35527136788E-14  0.00000000000E+00  0.91188000000E+02  0.91188000000E+02 0.  0.
    9900012    2    3    3    0    0  0.35121242867E+01  0.26044412064E+02  0.25790174864E+02  0.54367088329E+02  0.40000009464E+02 0.  0.
        -12    1    3    3    0    0 -0.35121242867E+01 -0.26044412064E+02 -0.25790174864E+02  0.36820911671E+02  0.00000000000E+00 0.  1.
         11    1    4    4    0    0  0.44755791409E+01  0.91444946509E+01  0.74375746722E+01  0.12608334876E+02  0.51100000000E-03 0. -1.
        -11    1    4    4    0    0  0.55875099450E+01  0.23326898553E+02  0.21342150030E+02  0.32106881376E+02  0.51100000000E-03 0.  1.
        -12    1    4    4    0    0 -0.65509647993E+01 -0.64269811401E+01 -0.29895498387E+01  0.96518720782E+01  0.00000000000E+00 0.  1.
</event>
<event>
 8    1  0.2458065E-006  0.9118800E+02  0.7816164E-02  0.1184000E+00
        -11   -1    0    0    0    0  0.00000000000E+00  0.00000000000E+00  0.45593999997E+02  0.45594000000E+02  0.51100000000E-03 0.  1.
         11   -1    0    0    0    0 -0.00000000000E+00 -0.00000000000E+00 -0.45593999997E+02  0.45594000000E+02  0.51100000000E-03 0. -1.
         23    2    1    2    0    0  0.35527136788E-14  0.00000000000E+00 -0.17763568394E-14  0.91188000000E+02  0.91188000000E+02 0.  0.
    9900012    2    3    3    0    0  0.24930323450E+02 -0.24333392267E+02 -0.11922443090E+02  0.54367086707E+02  0.40000005765E+02 0.  0.
         12    1    3    3    0    0 -0.24930323450E+02  0.24333392267E+02  0.11922443090E+02  0.36820913293E+02  0.00000000000E+00 0. -1.
         11    1    4    4    0    0  0.60438252672E+01 -0.21561519762E+02 -0.15388271571E+01  0.22445376976E+02  0.51100000000E-03 0.  1.
        -11    1    4    4    0    0  0.24280598269E+02 -0.44783662540E+00 -0.78156947693E+01  0.25511430672E+02  0.51100000000E-03 0. -1.
         12    1    4    4    0    0 -0.53941000861E+01 -0.23240358791E+01 -0.25679211636E+01  0.64102790586E+01  0.00000000000E+00 0. -1.
</event>
<event>
 8    1  0.2458065E-006  0.9118800E+02  0.7816164E-02  0.1184000E+00
        -11   -1    0    0    0    0  0.00000000000E+00  0.00000000000E+00  0.45593999997E+02  0.45594000000E+02  0.51100000000E-03 0.  1.
         11   -1    0    0    0    0 -0.00000000000E+00 -0.00000000000E+00 -0.45593999997E+02  0.45594000000E+02  0.51100000000E-03 0. -1.
         23    2    1    2    0    0  0.00000000000E+00 -0.35527136788E-14  0.00000000000E+00  0.91188000000E+02  0.91188000000E+02 0.  0.
    9900012    2    3    3    0    0 -0.46655089780E+01  0.27340236909E+02 -0.24218228552E+02  0.54367107528E+02  0.40000053231E+02 0.  0.
        -12    1    3    3    0    0  0.46655089780E+01 -0.27340236909E+02  0.24218228552E+02  0.36820892472E+02  0.00000000000E+00 0.  1.
         11    1    4    4    0    0  0.59587535043E+01  0.20203107101E+02 -0.69922093782E+01  0.22193766515E+02  0.51100000000E-03 0. -1.
        -11    1    4    4    0    0 -0.12881544213E+02 -0.57293341624E+01 -0.84609427425E+01  0.16442232318E+02  0.51100000000E-03 0.  1.
        -12    1    4    4    0    0  0.22572817309E+01  0.12866463970E+02 -0.87650764314E+01  0.15731108694E+02  0.00000000000E+00 0.  1.
</event>
<event>
 8    1  0.2458065E-006  0.9118800E+02  0.7816164E-02  0.1184000E+00
        -11   -1    0    0    0    0  0.00000000000E+00  0.00000000000E+00  0.45593999997E+02  0.45594000000E+02  0.51100000000E-03 0. -1.
         11   -1    0    0    0    0 -0.00000000000E+00 -0.00000000000E+00 -0.45593999997E+02  0.45594000000E+02  0.51100000000E-03 0.  1.
         23    2    1    2    0    0  0.00000000000E+00  0.35527136788E-14  0.35527136788E-14  0.91188000000E+02  0.91188000000E+02 0.  0.
    9900012    2    3    3    0    0 -0.97925078961E+01 -0.22914917459E+02 -0.27107072319E+02  0.54367081723E+02  0.39999994405E+02 0.  0.
         12    1    3    3    0    0  0.97925078961E+01  0.22914917459E+02  0.27107072319E+02  0.36820918277E+02  0.00000000000E+00 0. -1.
         11    1    4    4    0    0 -0.99089063179E+01 -0.18547502943E+02 -0.11297134386E+01  0.21058787775E+02  0.51100000000E-03 0. -1.
        -11    1    4    4    0    0  0.59655940946E+01 -0.39619353416E+01 -0.51530639890E+00  0.71798875686E+01  0.51100000000E-03 0.  1.
        -12    1    4    4    0    0 -0.58491956727E+01 -0.40547917401E+00 -0.25462052481E+02  0.26128406380E+02  0.00000000000E+00 0.  1.
</event>
<event>
 8    1  0.2458065E-006  0.9118800E+02  0.7816164E-02  0.1184000E+00
        -11   -1    0    0    0    0  0.00000000000E+00  0.00000000000E+00  0.45593999997E+02  0.45594000000E+02  0.51100000000E-03 0.  1.
         11   -1    0    0    0    0 -0.00000000000E+00 -0.00000000000E+00 -0.45593999997E+02  0.45594000000E+02  0.51100000000E-03 0. -1.
         23    2    1    2    0    0 -0.17763568394E-14 -0.71054273576E-14 -0.17763568394E-14  0.91188000000E+02  0.91188000000E+02 0.  0.
    9900012    2    3    3    0    0 -0.14174707983E+02 -0.32246242340E+02 -0.10725533984E+02  0.54367087862E+02  0.40000008398E+02 0.  0.
        -12    1    3    3    0    0  0.14174707983E+02  0.32246242340E+02  0.10725533984E+02  0.36820912138E+02  0.00000000000E+00 0.  1.
         11    1    4    4    0    0 -0.21077394493E+01 -0.27376173109E+02 -0.32976071345E+01  0.27654504747E+02  0.51100000000E-03 0. -1.
        -11    1    4    4    0    0  0.50526593021E+01 -0.31666655750E+01  0.29164551610E+01  0.66379852255E+01  0.51100000000E-03 0.  1.
        -12    1    4    4    0    0 -0.17119627836E+02 -0.17034036555E+01 -0.10344382010E+02  0.20074597890E+02  0.00000000000E+00 0.  1.
</event>
<event>
 8    1  0.2458065E-006  0.9118800E+02  0.7816164E-02  0.1184000E+00
        -11   -1    0    0    0    0  0.00000000000E+00  0.00000000000E+00  0.45593999997E+02  0.45594000000E+02  0.51100000000E-03 0.  1.
         11   -1    0    0    0    0 -0.00000000000E+00 -0.00000000000E+00 -0.45593999997E+02  0.45594000000E+02  0.51100000000E-03 0. -1.
         23    2    1    2    0    0  0.00000000000E+00  0.00000000000E+00 -0.35527136788E-14  0.91188000000E+02  0.91188000000E+02 0.  0.
    9900012    2    3    3    0    0  0.12158114900E+02 -0.19702203533E+02  0.28631843584E+02  0.54367094946E+02  0.40000024549E+02 0.  0.
         12    1    3    3    0    0 -0.12158114900E+02  0.19702203533E+02 -0.28631843584E+02  0.36820905054E+02  0.00000000000E+00 0. -1.
         11    1    4    4    0    0  0.48871754559E+01 -0.10405058537E+02  0.10707129861E+02  0.15709626259E+02  0.51100000000E-03 0.  1.
        -11    1    4    4    0    0  0.15076597463E+02 -0.11585804917E+02  0.22393164144E+02  0.29376665354E+02  0.51100000000E-03 0. -1.
         12    1    4    4    0    0 -0.78056580192E+01  0.22886599214E+01 -0.44684504211E+01  0.92808033335E+01  0.00000000000E+00 0. -1.
</event>
<event>
 8    1  0.2458065E-006  0.9118800E+02  0.7816164E-02  0.1184000E+00
        -11   -1    0    0    0    0  0.00000000000E+00  0.00000000000E+00  0.45593999997E+02  0.45594000000E+02  0.51100000000E-03 0. -1.
         11   -1    0    0    0    0 -0.00000000000E+00 -0.00000000000E+00 -0.45593999997E+02  0.45594000000E+02  0.51100000000E-03 0.  1.
         23    2    1    2    0    0 -0.44408920985E-15  0.35527136788E-14  0.00000000000E+00  0.91188000000E+02  0.91188000000E+02 0.  0.
    9900012    2    3    3    0    0  0.39498275347E+01 -0.31282641795E+02 -0.19015114036E+02  0.54367090492E+02  0.40000014394E+02 0.  0.
         12    1    3    3    0    0 -0.39498275347E+01  0.31282641795E+02  0.19015114036E+02  0.36820909508E+02  0.00000000000E+00 0. -1.
         11    1    4    4    0    0  0.85187654302E-01  0.63740774274E+01 -0.25894989796E+01  0.68805250682E+01  0.51100000000E-03 0. -1.
        -11    1    4    4    0    0  0.67759465748E+01 -0.22184285946E+01 -0.84303558464E+01  0.11041094935E+02  0.51100000000E-03 0.  1.
        -12    1    4    4    0    0 -0.29113066944E+01 -0.35438290628E+02 -0.79952592098E+01  0.36445470488E+02  0.00000000000E+00 0.  1.
</event>
<event>
 8    1  0.2458065E-006  0.9118800E+02  0.7816164E-02  0.1184000E+00
        -11   -1    0    0    0    0  0.00000000000E+00  0.00000000000E+00  0.45593999997E+02  0.45594000000E+02  0.51100000000E-03 0. -1.
         11   -1    0    0    0    0 -0.00000000000E+00 -0.00000000000E+00 -0.45593999997E+02  0.45594000000E+02  0.51100000000E-03 0.  1.
         23    2    1    2    0    0  0.16653345369E-14  0.00000000000E+00  0.00000000000E+00  0.91188000000E+02  0.91188000000E+02 0.  0.
    9900012    2    3    3    0    0 -0.84185303017E+00  0.14010757962E+02 -0.34040638090E+02  0.54367148614E+02  0.40000146895E+02 0.  0.
         12    1    3    3    0    0  0.84185303017E+00 -0.14010757962E+02  0.34040638090E+02  0.36820851386E+02  0.00000000000E+00 0. -1.
         11    1    4    4    0    0  0.82808395911E+01 -0.10390894881E+01 -0.81585204032E+01  0.11671052512E+02  0.51100000000E-03 0.  1.
        -11    1    4    4    0    0  0.96621041145E+01  0.10262497272E+02 -0.74331350201E+01  0.15935074605E+02  0.51100000000E-03 0. -1.
        -12    1    4    4    0    0 -0.18784796736E+02  0.47873501784E+01 -0.18448982667E+02  0.26761021497E+02  0.00000000000E+00 0.  1.
</event>
<event>
 8    1  0.2458065E-006  0.9118800E+02  0.7816164E-02  0.1184000E+00
        -11   -1    0    0    0    0  0.00000000000E+00  0.00000000000E+00  0.45593999997E+02  0.45594000000E+02  0.51100000000E-03 0.  1.
         11   -1    0    0    0    0 -0.00000000000E+00 -0.00000000000E+00 -0.45593999997E+02  0.45594000000E+02  0.51100000000E-03 0. -1.
         23    2    1    2    0    0  0.00000000000E+00  0.00000000000E+00  0.17763568394E-14  0.91188000000E+02  0.91188000000E+02 0.  0.
    9900012    2    3    3    0    0  0.25146791844E+02  0.23025792239E+02  0.13900572723E+02  0.54367161195E+02  0.40000175575E+02 0.  0.
         12    1    3    3    0    0 -0.25146791844E+02 -0.23025792239E+02 -0.13900572723E+02  0.36820838805E+02  0.00000000000E+00 0. -1.
         11    1    4    4    0    0 -0.18373243868E+01  0.73777160631E+01 -0.17437645743E+01  0.78004596250E+01  0.51100000000E-03 0. -1.
        -11    1    4    4    0    0  0.97442777966E+01  0.15624844701E+02 -0.55628166209E+01  0.19236206766E+02  0.51100000000E-03 0.  1.
         12    1    4    4    0    0  0.17239838435E+02  0.23231474969E-01  0.21207153918E+02  0.27330494804E+02  0.00000000000E+00 0. -1.
</event>
<event>
 8    1  0.2458065E-006  0.9118800E+02  0.7816164E-02  0.1184000E+00
        -11   -1    0    0    0    0  0.00000000000E+00  0.00000000000E+00  0.45593999997E+02  0.45594000000E+02  0.51100000000E-03 0. -1.
         11   -1    0    0    0    0 -0.00000000000E+00 -0.00000000000E+00 -0.45593999997E+02  0.45594000000E+02  0.51100000000E-03 0.  1.
         23    2    1    2    0    0 -0.17763568394E-14  0.00000000000E+00 -0.35527136788E-14  0.91188000000E+02  0.91188000000E+02 0.  0.
    9900012    2    3    3    0    0 -0.86947795940E+01 -0.32953567252E+02 -0.13936957345E+02  0.54367142231E+02  0.40000132344E+02 0.  0.
        -12    1    3    3    0    0  0.86947795940E+01  0.32953567252E+02  0.13936957345E+02  0.36820857769E+02  0.00000000000E+00 0.  1.
         11    1    4    4    0    0 -0.10185720780E+02  0.69141443297E+00  0.10823384865E+01  0.10266373195E+02  0.51100000000E-03 0. -1.
        -11    1    4    4    0    0  0.10261728124E+02 -0.12052681641E+02 -0.13398845406E+02  0.20738834521E+02  0.51100000000E-03 0.  1.
        -12    1    4    4    0    0 -0.87707869378E+01 -0.21592300044E+02 -0.16204504261E+01  0.23361934515E+02  0.00000000000E+00 0.  1.
</event>
<event>
 8    1  0.2458065E-006  0.9118800E+02  0.7816164E-02  0.1184000E+00
        -11   -1    0    0    0    0  0.00000000000E+00  0.00000000000E+00  0.45593999997E+02  0.45594000000E+02  0.51100000000E-03 0. -1.
         11   -1    0    0    0    0 -0.00000000000E+00 -0.00000000000E+00 -0.45593999997E+02  0.45594000000E+02  0.51100000000E-03 0.  1.
         23    2    1    2    0    0  0.35527136788E-14 -0.35527136788E-14  0.00000000000E+00  0.91188000000E+02  0.91188000000E+02 0.  0.
    9900012    2    3    3    0    0 -0.28167157746E+02  0.22196943060E+02 -0.83478569939E+01  0.54367085113E+02  0.40000002133E+02 0.  0.
        -12    1    3    3    0    0  0.28167157746E+02 -0.22196943060E+02  0.83478569939E+01  0.36820914887E+02  0.00000000000E+00 0.  1.
         11    1    4    4    0    0 -0.15541098476E+02  0.66957204053E+01  0.15771230030E+01  0.16995462065E+02  0.51100000000E-03 0. -1.
        -11    1    4    4    0    0 -0.19818959943E+02  0.77568162655E+01 -0.14605264538E+02  0.25812266934E+02  0.51100000000E-03 0.  1.
        -12    1    4    4    0    0  0.71929006723E+01  0.77444063888E+01  0.46802845407E+01  0.11559356114E+02  0.00000000000E+00 0.  1.
</event>
<event>
 8    1  0.2458065E-006  0.9118800E+02  0.7816164E-02  0.1184000E+00
        -11   -1    0    0    0    0  0.00000000000E+00  0.00000000000E+00  0.45593999997E+02  0.45594000000E+02  0.51100000000E-03 0.  1.
         11   -1    0    0    0    0 -0.00000000000E+00 -0.00000000000E+00 -0.45593999997E+02  0.45594000000E+02  0.51100000000E-03 0. -1.
         23    2    1    2    0    0  0.35527136788E-14 -0.88817841970E-15  0.00000000000E+00  0.91188000000E+02  0.91188000000E+02 0.  0.
    9900012    2    3    3    0    0 -0.25818710989E+02 -0.46133449573E+01  0.25843594132E+02  0.54367080043E+02  0.39999990573E+02 0.  0.
         12    1    3    3    0    0  0.25818710989E+02  0.46133449573E+01 -0.25843594132E+02  0.36820919957E+02  0.00000000000E+00 0. -1.
         11    1    4    4    0    0  0.59776184789E+01 -0.44234823301E+01  0.31757502240E+01  0.80860687822E+01  0.51100000000E-03 0. -1.
        -11    1    4    4    0    0 -0.44801303863E+01 -0.50471682645E+01  0.16545363789E+02  0.17868814705E+02  0.51100000000E-03 0.  1.
        -12    1    4    4    0    0 -0.27316199081E+02  0.48573056374E+01  0.61224801191E+01  0.28412196556E+02  0.00000000000E+00 0.  1.
</event>
<event>
 8    1  0.2458065E-006  0.9118800E+02  0.7816164E-02  0.1184000E+00
        -11   -1    0    0    0    0  0.00000000000E+00  0.00000000000E+00  0.45593999997E+02  0.45594000000E+02  0.51100000000E-03 0.  1.
         11   -1    0    0    0    0 -0.00000000000E+00 -0.00000000000E+00 -0.45593999997E+02  0.45594000000E+02  0.51100000000E-03 0. -1.
         23    2    1    2    0    0 -0.35527136788E-14  0.00000000000E+00  0.00000000000E+00  0.91188000000E+02  0.91188000000E+02 0.  0.
    9900012    2    3    3    0    0  0.12763710408E+02 -0.16002165753E+02 -0.30607155563E+02  0.54367087683E+02  0.40000007992E+02 0.  0.
        -12    1    3    3    0    0 -0.12763710408E+02  0.16002165753E+02  0.30607155563E+02  0.36820912317E+02  0.00000000000E+00 0.  1.
         11    1    4    4    0    0  0.23962950223E+02 -0.99929635365E+01 -0.19285899193E+02  0.32342359400E+02  0.51100000000E-03 0. -1.
        -11    1    4    4    0    0 -0.82538694374E+01 -0.10359237513E+02 -0.59793715365E+01  0.14532482471E+02  0.51100000000E-03 0.  1.
        -12    1    4    4    0    0 -0.29453703772E+01  0.43500352963E+01 -0.53418848332E+01  0.74922458121E+01  0.00000000000E+00 0.  1.
</event>
<event>
 8    1  0.2458065E-006  0.9118800E+02  0.7816164E-02  0.1184000E+00
        -11   -1    0    0    0    0  0.00000000000E+00  0.00000000000E+00  0.45593999997E+02  0.45594000000E+02  0.51100000000E-03 0. -1.
         11   -1    0    0    0    0 -0.00000000000E+00 -0.00000000000E+00 -0.45593999997E+02  0.45594000000E+02  0.51100000000E-03 0.  1.
         23    2    1    2    0    0  0.00000000000E+00  0.17763568394E-14  0.00000000000E+00  0.91188000000E+02  0.91188000000E+02 0.  0.
    9900012    2    3    3    0    0  0.48279318833E+01  0.14671933936E+02  0.33424639264E+02  0.54367067344E+02  0.39999961625E+02 0.  0.
        -12    1    3    3    0    0 -0.48279318833E+01 -0.14671933936E+02 -0.33424639264E+02  0.36820932656E+02  0.00000000000E+00 0.  1.
         11    1    4    4    0    0 -0.16259661332E+01  0.14729308236E+02  0.18863345781E+02  0.23987957422E+02  0.51100000000E-03 0. -1.
        -11    1    4    4    0    0  0.10070039106E+02  0.10666526555E+02  0.48016433642E+01  0.15434903809E+02  0.51100000000E-03 0.  1.
        -12    1    4    4    0    0 -0.36161410894E+01 -0.10723900855E+02  0.97596501187E+01  0.14944206113E+02  0.00000000000E+00 0.  1.
</event>
<event>
 8    1  0.2458065E-006  0.9118800E+02  0.7816164E-02  0.1184000E+00
        -11   -1    0    0    0    0  0.00000000000E+00  0.00000000000E+00  0.45593999997E+02  0.45594000000E+02  0.51100000000E-03 0.  1.
         11   -1    0    0    0    0 -0.00000000000E+00 -0.00000000000E+00 -0.45593999997E+02  0.45594000000E+02  0.51100000000E-03 0. -1.
         23    2    1    2    0    0  0.00000000000E+00  0.00000000000E+00  0.00000000000E+00  0.91188000000E+02  0.91188000000E+02 0.  0.
    9900012    2    3    3    0    0 -0.23433582069E+02 -0.21300929009E+02 -0.18786089744E+02  0.54367088644E+02  0.40000010181E+02 0.  0.
         12    1    3    3    0    0  0.23433582069E+02  0.21300929009E+02  0.18786089744E+02  0.36820911356E+02  0.00000000000E+00 0. -1.
         11    1    4    4    0    0  0.68802743349E+01 -0.27251857935E+01  0.24971433374E+01  0.78102840948E+01  0.51100000000E-03 0. -1.
        -11    1    4    4    0    0 -0.11457745263E+02 -0.19266406507E+02 -0.97674754390E+01  0.24451542342E+02  0.51100000000E-03 0.  1.
         12    1    4    4    0    0 -0.18856111141E+02  0.69066329128E+00 -0.11515757642E+02  0.22105262207E+02  0.00000000000E+00 0. -1.
</event>
<event>
 8    1  0.2458065E-006  0.9118800E+02  0.7816164E-02  0.1184000E+00
        -11   -1    0    0    0    0  0.00000000000E+00  0.00000000000E+00  0.45593999997E+02  0.45594000000E+02  0.51100000000E-03 0. -1.
         11   -1    0    0    0    0 -0.00000000000E+00 -0.00000000000E+00 -0.45593999997E+02  0.45594000000E+02  0.51100000000E-03 0.  1.
         23    2    1    2    0    0 -0.44408920985E-15  0.17763568394E-14 -0.71054273576E-14  0.91188000000E+02  0.91188000000E+02 0.  0.
    9900012    2    3    3    0    0 -0.14393139333E+01 -0.10194955608E+02 -0.35352102155E+02  0.54367083780E+02  0.39999999094E+02 0.  0.
         12    1    3    3    0    0  0.14393139333E+01  0.10194955608E+02  0.35352102155E+02  0.36820916220E+02  0.00000000000E+00 0. -1.
         11    1    4    4    0    0 -0.73627006417E+01  0.26696466811E+01 -0.34351845471E+01  0.85520095460E+01  0.51100000000E-03 0. -1.
        -11    1    4    4    0    0 -0.17232444923E+01 -0.24106462212E+01 -0.32705076428E+02  0.32839044005E+02  0.51100000000E-03 0.  1.
        -12    1    4    4    0    0  0.76466312007E+01 -0.10453956068E+02  0.78815881925E+00  0.12976030229E+02  0.00000000000E+00 0.  1.
</event>
<event>
 8    1  0.2458065E-006  0.9118800E+02  0.7816164E-02  0.1184000E+00
        -11   -1    0    0    0    0  0.00000000000E+00  0.00000000000E+00  0.45593999997E+02  0.45594000000E+02  0.51100000000E-03 0. -1.
         11   -1    0    0    0    0 -0.00000000000E+00 -0.00000000000E+00 -0.45593999997E+02  0.45594000000E+02  0.51100000000E-03 0.  1.
         23    2    1    2    0    0  0.00000000000E+00  0.44408920985E-15  0.00000000000E+00  0.91188000000E+02  0.91188000000E+02 0.  0.
    9900012    2    3    3    0    0 -0.18586013001E+02 -0.39509913909E+01  0.31539352181E+02  0.54367069156E+02  0.39999965754E+02 0.  0.
        -12    1    3    3    0    0  0.18586013001E+02  0.39509913909E+01 -0.31539352181E+02  0.36820930844E+02  0.00000000000E+00 0.  1.
         11    1    4    4    0    0 -0.59689320377E+01  0.40098237588E+01  0.15593660987E+01  0.73578841482E+01  0.51100000000E-03 0. -1.
        -11    1    4    4    0    0 -0.12064493493E+02 -0.57452154209E+00  0.35676166307E+02  0.37665248186E+02  0.51100000000E-03 0.  1.
        -12    1    4    4    0    0 -0.55258746957E+00 -0.73862936077E+01 -0.56961802249E+01  0.93439368215E+01  0.00000000000E+00 0.  1.
</event>
<event>
 8    1  0.2458065E-006  0.9118800E+02  0.7816164E-02  0.1184000E+00
        -11   -1    0    0    0    0  0.00000000000E+00  0.00000000000E+00  0.45593999997E+02  0.45594000000E+02  0.51100000000E-03 0.  1.
         11   -1    0    0    0    0 -0.00000000000E+00 -0.00000000000E+00 -0.45593999997E+02  0.45594000000E+02  0.51100000000E-03 0. -1.
         23    2    1    2    0    0  0.00000000000E+00  0.00000000000E+00  0.35527136788E-14  0.91188000000E+02  0.91188000000E+02 0.  0.
    9900012    2    3    3    0    0 -0.27429704902E+02  0.53366985464E+01 -0.23977320395E+02  0.54367069054E+02  0.39999965522E+02 0.  0.
        -12    1    3    3    0    0  0.27429704902E+02 -0.53366985464E+01  0.23977320395E+02  0.36820930946E+02  0.00000000000E+00 0.  1.
         11    1    4    4    0    0 -0.21778155293E+02  0.70109091187E+01 -0.23747735914E+02  0.32975685830E+02  0.51100000000E-03 0. -1.
        -11    1    4    4    0    0 -0.74990380343E+01 -0.60849234886E+01 -0.78158331561E+01  0.12423731866E+02  0.51100000000E-03 0.  1.
        -12    1    4    4    0    0  0.18474884249E+01  0.44107129164E+01  0.75862486754E+01  0.89676513579E+01  0.00000000000E+00 0.  1.
</event>
<event>
 8    1  0.2458065E-006  0.9118800E+02  0.7816164E-02  0.1184000E+00
        -11   -1    0    0    0    0  0.00000000000E+00  0.00000000000E+00  0.45593999997E+02  0.45594000000E+02  0.51100000000E-03 0. -1.
         11   -1    0    0    0    0 -0.00000000000E+00 -0.00000000000E+00 -0.45593999997E+02  0.45594000000E+02  0.51100000000E-03 0.  1.
         23    2    1    2    0    0  0.17763568394E-14  0.00000000000E+00  0.00000000000E+00  0.91188000000E+02  0.91188000000E+02 0.  0.
    9900012    2    3    3    0    0 -0.13569391274E+02  0.11935734788E+02 -0.32080975821E+02  0.54367093519E+02  0.40000021295E+02 0.  0.
         12    1    3    3    0    0  0.13569391274E+02 -0.11935734788E+02  0.32080975821E+02  0.36820906481E+02  0.00000000000E+00 0. -1.
         11    1    4    4    0    0 -0.37674302065E+01  0.48469487830E+01  0.48917518159E+01  0.78495655266E+01  0.51100000000E-03 0. -1.
        -11    1    4    4    0    0 -0.11810961069E+02  0.10910637589E+02 -0.94341681950E+01  0.18642541237E+02  0.51100000000E-03 0.  1.
        -12    1    4    4    0    0  0.20090000009E+01 -0.38218515838E+01 -0.27538559441E+02  0.27874986756E+02  0.00000000000E+00 0.  1.
</event>
<event>
 8    1  0.2458065E-006  0.9118800E+02  0.7816164E-02  0.1184000E+00
        -11   -1    0    0    0    0  0.00000000000E+00  0.00000000000E+00  0.45593999997E+02  0.45594000000E+02  0.51100000000E-03 0.  1.
         11   -1    0    0    0    0 -0.00000000000E+00 -0.00000000000E+00 -0.45593999997E+02  0.45594000000E+02  0.51100000000E-03 0. -1.
         23    2    1    2    0    0  0.00000000000E+00  0.00000000000E+00  0.00000000000E+00  0.91188000000E+02  0.91188000000E+02 0.  0.
    9900012    2    3    3    0    0  0.27865570449E+02 -0.10243503077E+02  0.21779816884E+02  0.54367084812E+02  0.40000001446E+02 0.  0.
         12    1    3    3    0    0 -0.27865570449E+02  0.10243503077E+02 -0.21779816884E+02  0.36820915188E+02  0.00000000000E+00 0. -1.
         11    1    4    4    0    0  0.10554969083E+02 -0.36424151809E+01 -0.64205043157E+01  0.12880117881E+02  0.51100000000E-03 0. -1.
        -11    1    4    4    0    0  0.20117364620E+02 -0.43446481894E+01  0.99050734174E+01  0.22840639369E+02  0.51100000000E-03 0.  1.
         12    1    4    4    0    0 -0.28067632538E+01 -0.22564397069E+01  0.18295247783E+02  0.18646327562E+02  0.00000000000E+00 0. -1.
</event>
<event>
 8    1  0.2458065E-006  0.9118800E+02  0.7816164E-02  0.1184000E+00
        -11   -1    0    0    0    0  0.00000000000E+00  0.00000000000E+00  0.45593999997E+02  0.45594000000E+02  0.51100000000E-03 0. -1.
         11   -1    0    0    0    0 -0.00000000000E+00 -0.00000000000E+00 -0.45593999997E+02  0.45594000000E+02  0.51100000000E-03 0.  1.
         23    2    1    2    0    0  0.00000000000E+00 -0.44408920985E-15  0.00000000000E+00  0.91188000000E+02  0.91188000000E+02 0.  0.
    9900012    2    3    3    0    0  0.27760835551E+02 -0.14618065572E+01  0.24144951053E+02  0.54367088411E+02  0.40000009650E+02 0.  0.
        -12    1    3    3    0    0 -0.27760835551E+02  0.14618065572E+01 -0.24144951053E+02  0.36820911589E+02  0.00000000000E+00 0.  1.
         11    1    4    4    0    0  0.42080397183E+01  0.17528929483E+01  0.34447281896E+01  0.57137014728E+01  0.51100000000E-03 0. -1.
        -11    1    4    4    0    0  0.18218410121E+02 -0.10139769615E+02 -0.50558926042E+01  0.21454310650E+02  0.51100000000E-03 0.  1.
         12    1    4    4    0    0  0.53343857122E+01  0.69250701098E+01  0.25756115467E+02  0.27199076288E+02  0.00000000000E+00 0. -1.
</event>
<event>
 8    1  0.2458065E-006  0.9118800E+02  0.7816164E-02  0.1184000E+00
        -11   -1    0    0    0    0  0.00000000000E+00  0.00000000000E+00  0.45593999997E+02  0.45594000000E+02  0.51100000000E-03 0.  1.
         11   -1    0    0    0    0 -0.00000000000E+00 -0.00000000000E+00 -0.45593999997E+02  0.45594000000E+02  0.51100000000E-03 0. -1.
         23    2    1    2    0    0  0.00000000000E+00  0.17763568394E-14  0.00000000000E+00  0.91188000000E+02  0.91188000000E+02 0.  0.
    9900012    2    3    3    0    0  0.82766333312E+01  0.58804038145E+01  0.35393385128E+02  0.54367170037E+02  0.40000195733E+02 0.  0.
         12    1    3    3    0    0 -0.82766333312E+01 -0.58804038145E+01 -0.35393385128E+02  0.36820829963E+02  0.00000000000E+00 0. -1.
         11    1    4    4    0    0  0.11360561448E+02 -0.10386452272E+02  0.19465674738E+02  0.24816390561E+02  0.51100000000E-03 0. -1.
        -11    1    4    4    0    0 -0.42439441134E+01 -0.14947582495E+01  0.97008963564E+01  0.10693584724E+02  0.51100000000E-03 0.  1.
         12    1    4    4    0    0  0.11600159964E+01  0.17761614336E+02  0.62268140335E+01  0.18857194752E+02  0.00000000000E+00 0. -1.
</event>
<event>
 8    1  0.2458065E-006  0.9118800E+02  0.7816164E-02  0.1184000E+00
        -11   -1    0    0    0    0  0.00000000000E+00  0.00000000000E+00  0.45593999997E+02  0.45594000000E+02  0.51100000000E-03 0.  1.
         11   -1    0    0    0    0 -0.00000000000E+00 -0.00000000000E+00 -0.45593999997E+02  0.45594000000E+02  0.51100000000E-03 0. -1.
         23    2    1    2    0    0  0.17763568394E-14  0.00000000000E+00  0.00000000000E+00  0.91188000000E+02  0.91188000000E+02 0.  0.
    9900012    2    3    3    0    0 -0.12867980925E+02 -0.21964403905E+02 -0.26603816570E+02  0.54367040913E+02  0.39999901370E+02 0.  0.
        -12    1    3    3    0    0  0.12867980925E+02  0.21964403905E+02  0.26603816570E+02  0.36820959087E+02  0.00000000000E+00 0.  1.
         11    1    4    4    0    0  0.12676240654E+01 -0.18118093455E+02 -0.12659278583E+02  0.22138868889E+02  0.51100000000E-03 0. -1.
        -11    1    4    4    0    0 -0.12142346392E+02 -0.95419014098E+01  0.16268944729E+01  0.15528401215E+02  0.51100000000E-03 0.  1.
         12    1    4    4    0    0 -0.19932585986E+01  0.56955909595E+01 -0.15571432460E+02  0.16699770809E+02  0.00000000000E+00 0. -1.
</event>
<event>
 8    1  0.2458065E-006  0.9118800E+02  0.7816164E-02  0.1184000E+00
        -11   -1    0    0    0    0  0.00000000000E+00  0.00000000000E+00  0.45593999997E+02  0.45594000000E+02  0.51100000000E-03 0. -1.
         11   -1    0    0    0    0 -0.00000000000E+00 -0.00000000000E+00 -0.45593999997E+02  0.45594000000E+02  0.51100000000E-03 0.  1.
         23    2    1    2    0    0  0.00000000000E+00  0.88817841970E-15  0.00000000000E+00  0.91188000000E+02  0.91188000000E+02 0.  0.
    9900012    2    3    3    0    0 -0.13014271985E+02 -0.42687843916E+01  0.34178715395E+02  0.54367104009E+02  0.40000045210E+02 0.  0.
        -12    1    3    3    0    0  0.13014271985E+02  0.42687843916E+01 -0.34178715395E+02  0.36820895991E+02  0.00000000000E+00 0.  1.
         11    1    4    4    0    0 -0.22895773339E+01  0.34434594713E+01  0.10239565196E+02  0.11043019205E+02  0.51100000000E-03 0. -1.
        -11    1    4    4    0    0 -0.15799135445E+02  0.24676442294E+01 -0.88802174860E+00  0.16015321781E+02  0.51100000000E-03 0.  1.
        -12    1    4    4    0    0  0.50744407940E+01 -0.10179888092E+02  0.24827171948E+02  0.27308763023E+02  0.00000000000E+00 0.  1.
</event>
<event>
 8    1  0.2458065E-006  0.9118800E+02  0.7816164E-02  0.1184000E+00
        -11   -1    0    0    0    0  0.00000000000E+00  0.00000000000E+00  0.45593999997E+02  0.45594000000E+02  0.51100000000E-03 0.  1.
         11   -1    0    0    0    0 -0.00000000000E+00 -0.00000000000E+00 -0.45593999997E+02  0.45594000000E+02  0.51100000000E-03 0. -1.
         23    2    1    2    0    0  0.17763568394E-14 -0.88817841970E-15  0.00000000000E+00  0.91188000000E+02  0.91188000000E+02 0.  0.
    9900012    2    3    3    0    0  0.97358627408E+01  0.54831991123E+01  0.35084577259E+02  0.54367081254E+02  0.39999993336E+02 0.  0.
         12    1    3    3    0    0 -0.97358627408E+01 -0.54831991123E+01 -0.35084577259E+02  0.36820918746E+02  0.00000000000E+00 0. -1.
         11    1    4    4    0    0 -0.77004136723E+01  0.91015240885E+01  0.20018877342E+02  0.23299990596E+02  0.51100000000E-03 0. -1.
        -11    1    4    4    0    0  0.11113226043E+02  0.80453877932E+01  0.94545335969E+01  0.16661940572E+02  0.51100000000E-03 0.  1.
        -12    1    4    4    0    0  0.63230503701E+01 -0.11663712769E+02  0.56111663203E+01  0.14405150087E+02  0.00000000000E+00 0.  1.
</event>
<event>
 8    1  0.2458065E-006  0.9118800E+02  0.7816164E-02  0.1184000E+00
        -11   -1    0    0    0    0  0.00000000000E+00  0.00000000000E+00  0.45593999997E+02  0.45594000000E+02  0.51100000000E-03 0.  1.
         11   -1    0    0    0    0 -0.00000000000E+00 -0.00000000000E+00 -0.45593999997E+02  0.45594000000E+02  0.51100000000E-03 0. -1.
         23    2    1    2    0    0 -0.44408920985E-15  0.00000000000E+00  0.35527136788E-14  0.91188000000E+02  0.91188000000E+02 0.  0.
    9900012    2    3    3    0    0  0.34378745090E+01 -0.33622577808E+02 -0.14610987734E+02  0.54367113506E+02  0.40000066860E+02 0.  0.
        -12    1    3    3    0    0 -0.34378745090E+01  0.33622577808E+02  0.14610987734E+02  0.36820886494E+02  0.00000000000E+00 0.  1.
         11    1    4    4    0    0  0.37623112623E+01 -0.18564644489E+02 -0.16171703391E+02  0.24906324536E+02  0.51100000000E-03 0. -1.
        -11    1    4    4    0    0 -0.12074499595E+01 -0.22070438654E+02 -0.46502977467E+00  0.22108334418E+02  0.51100000000E-03 0.  1.
        -12    1    4    4    0    0  0.88301320624E+00  0.70125053347E+01  0.20257454320E+01  0.73524545525E+01  0.00000000000E+00 0.  1.
</event>
<event>
 8    1  0.2458065E-006  0.9118800E+02  0.7816164E-02  0.1184000E+00
        -11   -1    0    0    0    0  0.00000000000E+00  0.00000000000E+00  0.45593999997E+02  0.45594000000E+02  0.51100000000E-03 0.  1.
         11   -1    0    0    0    0 -0.00000000000E+00 -0.00000000000E+00 -0.45593999997E+02  0.45594000000E+02  0.51100000000E-03 0. -1.
         23    2    1    2    0    0  0.66613381478E-15 -0.71054273576E-14  0.00000000000E+00  0.91188000000E+02  0.91188000000E+02 0.  0.
    9900012    2    3    3    0    0 -0.18213414937E+01  0.34026785892E+02  0.13951358920E+02  0.54367083951E+02  0.39999999483E+02 0.  0.
         12    1    3    3    0    0  0.18213414937E+01 -0.34026785892E+02 -0.13951358920E+02  0.36820916049E+02  0.00000000000E+00 0. -1.
         11    1    4    4    0    0  0.23367461171E+01 -0.94786094424E+00  0.35848759217E+01  0.43829394726E+01  0.51100000000E-03 0. -1.
        -11    1    4    4    0    0 -0.99395358037E+01  0.26523705958E+02 -0.75804266903E+01  0.29321736286E+02  0.51100000000E-03 0.  1.
        -12    1    4    4    0    0  0.57814481929E+01  0.84509408776E+01  0.17946909689E+02  0.20662408192E+02  0.00000000000E+00 0.  1.
</event>
<event>
 8    1  0.2458065E-006  0.9118800E+02  0.7816164E-02  0.1184000E+00
        -11   -1    0    0    0    0  0.00000000000E+00  0.00000000000E+00  0.45593999997E+02  0.45594000000E+02  0.51100000000E-03 0.  1.
         11   -1    0    0    0    0 -0.00000000000E+00 -0.00000000000E+00 -0.45593999997E+02  0.45594000000E+02  0.51100000000E-03 0. -1.
         23    2    1    2    0    0  0.35527136788E-14 -0.35527136788E-14  0.35527136788E-14  0.91188000000E+02  0.91188000000E+02 0.  0.
    9900012    2    3    3    0    0 -0.22963893227E+02  0.23835026104E+02 -0.16134757805E+02  0.54367091932E+02  0.40000017676E+02 0.  0.
         12    1    3    3    0    0  0.22963893227E+02 -0.23835026104E+02  0.16134757805E+02  0.36820908068E+02  0.00000000000E+00 0. -1.
         11    1    4    4    0    0 -0.61779566923E+01 -0.13580012957E+01 -0.14583388384E+02  0.15896116930E+02  0.51100000000E-03 0. -1.
        -11    1    4    4    0    0 -0.19152033045E+02  0.27916547813E+02 -0.40302758148E+01  0.34093652414E+02  0.51100000000E-03 0.  1.
         12    1    4    4    0    0  0.23660965097E+01 -0.27235204124E+01  0.24789063939E+01  0.43773225880E+01  0.00000000000E+00 0. -1.
</event>
<event>
 8    1  0.2458065E-006  0.9118800E+02  0.7816164E-02  0.1184000E+00
        -11   -1    0    0    0    0  0.00000000000E+00  0.00000000000E+00  0.45593999997E+02  0.45594000000E+02  0.51100000000E-03 0. -1.
         11   -1    0    0    0    0 -0.00000000000E+00 -0.00000000000E+00 -0.45593999997E+02  0.45594000000E+02  0.51100000000E-03 0.  1.
         23    2    1    2    0    0  0.88817841970E-15  0.00000000000E+00  0.00000000000E+00  0.91188000000E+02  0.91188000000E+02 0.  0.
    9900012    2    3    3    0    0 -0.64514155644E+01 -0.32577208980E+02  0.15902294195E+02  0.54367105546E+02  0.40000048713E+02 0.  0.
        -12    1    3    3    0    0  0.64514155644E+01  0.32577208980E+02 -0.15902294195E+02  0.36820894454E+02  0.00000000000E+00 0.  1.
         11    1    4    4    0    0 -0.13830670404E+02 -0.85594156378E+01  0.29216886725E+01  0.16525353395E+02  0.51100000000E-03 0. -1.
        -11    1    4    4    0    0  0.11070996347E+02 -0.65062373523E-01  0.20679851581E+01  0.11262670913E+02  0.51100000000E-03 0.  1.
        -12    1    4    4    0    0 -0.36917415071E+01 -0.23952730969E+02  0.10912620365E+02  0.26579081238E+02  0.00000000000E+00 0.  1.
</event>
<event>
 8    1  0.2458065E-006  0.9118800E+02  0.7816164E-02  0.1184000E+00
        -11   -1    0    0    0    0  0.00000000000E+00  0.00000000000E+00  0.45593999997E+02  0.45594000000E+02  0.51100000000E-03 0.  1.
         11   -1    0    0    0    0 -0.00000000000E+00 -0.00000000000E+00 -0.45593999997E+02  0.45594000000E+02  0.51100000000E-03 0. -1.
         23    2    1    2    0    0  0.17763568394E-14 -0.35527136788E-14  0.35527136788E-14  0.91188000000E+02  0.91188000000E+02 0.  0.
    9900012    2    3    3    0    0 -0.81250921733E+01  0.28614647233E+02  0.21701717493E+02  0.54367086089E+02  0.40000004357E+02 0.  0.
         12    1    3    3    0    0  0.81250921733E+01 -0.28614647233E+02 -0.21701717493E+02  0.36820913911E+02  0.00000000000E+00 0. -1.
         11    1    4    4    0    0  0.70854824336E+01  0.71898237852E+01 -0.78755046395E+01  0.12803171520E+02  0.51100000000E-03 0. -1.
        -11    1    4    4    0    0  0.22482598405E+01  0.15602629561E+01  0.23536114528E+01  0.36095124234E+01  0.51100000000E-03 0.  1.
        -12    1    4    4    0    0 -0.17458834447E+02  0.19864560491E+02  0.27223610680E+02  0.37954402146E+02  0.00000000000E+00 0.  1.
</event>
<event>
 8    1  0.2458065E-006  0.9118800E+02  0.7816164E-02  0.1184000E+00
        -11   -1    0    0    0    0  0.00000000000E+00  0.00000000000E+00  0.45593999997E+02  0.45594000000E+02  0.51100000000E-03 0. -1.
         11   -1    0    0    0    0 -0.00000000000E+00 -0.00000000000E+00 -0.45593999997E+02  0.45594000000E+02  0.51100000000E-03 0.  1.
         23    2    1    2    0    0  0.00000000000E+00  0.00000000000E+00  0.00000000000E+00  0.91188000000E+02  0.91188000000E+02 0.  0.
    9900012    2    3    3    0    0 -0.86015875612E+01 -0.14324996984E+02 -0.32811399004E+02  0.54367071824E+02  0.39999971837E+02 0.  0.
         12    1    3    3    0    0  0.86015875612E+01  0.14324996984E+02  0.32811399004E+02  0.36820928176E+02  0.00000000000E+00 0. -1.
         11    1    4    4    0    0  0.48366243303E+01 -0.88974614614E+01 -0.19375524400E+02  0.21862495315E+02  0.51100000000E-03 0. -1.
        -11    1    4    4    0    0  0.32297797131E+01 -0.78959429524E+00  0.57672859160E+01  0.66570656632E+01  0.51100000000E-03 0.  1.
        -12    1    4    4    0    0 -0.16667991605E+02 -0.46379412272E+01 -0.19203160520E+02  0.25847510846E+02  0.00000000000E+00 0.  1.
</event>
<event>
 8    1  0.2458065E-006  0.9118800E+02  0.7816164E-02  0.1184000E+00
        -11   -1    0    0    0    0  0.00000000000E+00  0.00000000000E+00  0.45593999997E+02  0.45594000000E+02  0.51100000000E-03 0.  1.
         11   -1    0    0    0    0 -0.00000000000E+00 -0.00000000000E+00 -0.45593999997E+02  0.45594000000E+02  0.51100000000E-03 0. -1.
         23    2    1    2    0    0 -0.35527136788E-14  0.88817841970E-15  0.35527136788E-14  0.91188000000E+02  0.91188000000E+02 0.  0.
    9900012    2    3    3    0    0 -0.19038144685E+02  0.50627118980E+01 -0.31107827988E+02  0.54367096060E+02  0.40000027088E+02 0.  0.
        -12    1    3    3    0    0  0.19038144685E+02 -0.50627118980E+01  0.31107827988E+02  0.36820903940E+02  0.00000000000E+00 0.  1.
         11    1    4    4    0    0 -0.28512051810E+01  0.88652121768E+01 -0.33385774622E+01  0.98927982723E+01  0.51100000000E-03 0. -1.
        -11    1    4    4    0    0  0.73113697985E+01 -0.80239911569E+01 -0.91660373207E+01  0.14207631852E+02  0.51100000000E-03 0.  1.
         12    1    4    4    0    0 -0.23498309303E+02  0.42214908781E+01 -0.18603213205E+02  0.30266665936E+02  0.00000000000E+00 0. -1.
</event>
<event>
 8    1  0.2458065E-006  0.9118800E+02  0.7816164E-02  0.1184000E+00
        -11   -1    0    0    0    0  0.00000000000E+00  0.00000000000E+00  0.45593999997E+02  0.45594000000E+02  0.51100000000E-03 0.  1.
         11   -1    0    0    0    0 -0.00000000000E+00 -0.00000000000E+00 -0.45593999997E+02  0.45594000000E+02  0.51100000000E-03 0. -1.
         23    2    1    2    0    0  0.66613381478E-15  0.00000000000E+00  0.17763568394E-14  0.91188000000E+02  0.91188000000E+02 0.  0.
    9900012    2    3    3    0    0  0.13781079043E+01 -0.35452104082E+02  0.98503125805E+01  0.54367088507E+02  0.40000009870E+02 0.  0.
        -12    1    3    3    0    0 -0.13781079043E+01  0.35452104082E+02 -0.98503125805E+01  0.36820911493E+02  0.00000000000E+00 0.  1.
         11    1    4    4    0    0  0.14632008748E+02 -0.40173815482E+01  0.11809853936E+01  0.15219387677E+02  0.51100000000E-03 0. -1.
        -11    1    4    4    0    0 -0.54099599679E+01 -0.15215430790E+02 -0.45781911483E+01  0.16785018184E+02  0.51100000000E-03 0.  1.
        -12    1    4    4    0    0 -0.78439408754E+01 -0.16219291743E+02  0.13247518335E+02  0.22362682647E+02  0.00000000000E+00 0.  1.
</event>
<event>
 8    1  0.2458065E-006  0.9118800E+02  0.7816164E-02  0.1184000E+00
        -11   -1    0    0    0    0  0.00000000000E+00  0.00000000000E+00  0.45593999997E+02  0.45594000000E+02  0.51100000000E-03 0.  1.
         11   -1    0    0    0    0 -0.00000000000E+00 -0.00000000000E+00 -0.45593999997E+02  0.45594000000E+02  0.51100000000E-03 0. -1.
         23    2    1    2    0    0  0.00000000000E+00  0.35527136788E-14  0.35527136788E-14  0.91188000000E+02  0.91188000000E+02 0.  0.
    9900012    2    3    3    0    0 -0.13020738806E+02 -0.23316176159E+02  0.25349573905E+02  0.54367019474E+02  0.39999852495E+02 0.  0.
         12    1    3    3    0    0  0.13020738806E+02  0.23316176159E+02 -0.25349573905E+02  0.36820980526E+02  0.00000000000E+00 0. -1.
         11    1    4    4    0    0 -0.58665766754E+01 -0.99347705904E+01  0.16567387565E+02  0.20188975199E+02  0.51100000000E-03 0. -1.
        -11    1    4    4    0    0 -0.71479769044E+01  0.58011833684E+01  0.11579059652E+02  0.14792630767E+02  0.51100000000E-03 0.  1.
         12    1    4    4    0    0 -0.61852263514E-02 -0.19182588937E+02 -0.27968733128E+01  0.19385413509E+02  0.00000000000E+00 0. -1.
</event>
<event>
 8    1  0.2458065E-006  0.9118800E+02  0.7816164E-02  0.1184000E+00
        -11   -1    0    0    0    0  0.00000000000E+00  0.00000000000E+00  0.45593999997E+02  0.45594000000E+02  0.51100000000E-03 0. -1.
         11   -1    0    0    0    0 -0.00000000000E+00 -0.00000000000E+00 -0.45593999997E+02  0.45594000000E+02  0.51100000000E-03 0.  1.
         23    2    1    2    0    0  0.17763568394E-14  0.00000000000E+00  0.00000000000E+00  0.91188000000E+02  0.91188000000E+02 0.  0.
    9900012    2    3    3    0    0  0.12587530214E+02  0.32529382517E+02  0.11797095013E+02  0.54367107906E+02  0.40000054094E+02 0.  0.
        -12    1    3    3    0    0 -0.12587530214E+02 -0.32529382517E+02 -0.11797095013E+02  0.36820892094E+02  0.00000000000E+00 0.  1.
         11    1    4    4    0    0  0.15753031549E+02 -0.23473013013E+01  0.79844868133E+01  0.17816280654E+02  0.51100000000E-03 0.  1.
        -11    1    4    4    0    0 -0.31439142247E+01  0.16839005708E+02  0.64846351935E+01  0.18316298855E+02  0.51100000000E-03 0. -1.
        -12    1    4    4    0    0 -0.21587110680E-01  0.18037678110E+02 -0.26720269942E+01  0.18234528397E+02  0.00000000000E+00 0.  1.
</event>
<event>
 8    1  0.2458065E-006  0.9118800E+02  0.7816164E-02  0.1184000E+00
        -11   -1    0    0    0    0  0.00000000000E+00  0.00000000000E+00  0.45593999997E+02  0.45594000000E+02  0.51100000000E-03 0.  1.
         11   -1    0    0    0    0 -0.00000000000E+00 -0.00000000000E+00 -0.45593999997E+02  0.45594000000E+02  0.51100000000E-03 0. -1.
         23    2    1    2    0    0  0.00000000000E+00  0.35527136788E-14  0.00000000000E+00  0.91188000000E+02  0.91188000000E+02 0.  0.
    9900012    2    3    3    0    0 -0.12450140695E+02  0.28119250868E+02  0.20250378257E+02  0.54367135097E+02  0.40000116080E+02 0.  0.
         12    1    3    3    0    0  0.12450140695E+02 -0.28119250868E+02 -0.20250378257E+02  0.36820864903E+02  0.00000000000E+00 0. -1.
         11    1    4    4    0    0  0.31959509395E+00  0.96281738878E+01 -0.45688285399E+01  0.10661991743E+02  0.51100000000E-03 0.  1.
        -11    1    4    4    0    0 -0.17945727611E+02  0.22342706624E+02  0.16137777067E+02  0.32888805507E+02  0.51100000000E-03 0. -1.
         12    1    4    4    0    0  0.51759918220E+01 -0.38516296442E+01  0.86814297299E+01  0.10816337847E+02  0.00000000000E+00 0. -1.
</event>
<event>
 8    1  0.2458065E-006  0.9118800E+02  0.7816164E-02  0.1184000E+00
        -11   -1    0    0    0    0  0.00000000000E+00  0.00000000000E+00  0.45593999997E+02  0.45594000000E+02  0.51100000000E-03 0.  1.
         11   -1    0    0    0    0 -0.00000000000E+00 -0.00000000000E+00 -0.45593999997E+02  0.45594000000E+02  0.51100000000E-03 0. -1.
         23    2    1    2    0    0 -0.11379786002E-14  0.00000000000E+00  0.71054273576E-14  0.91188000000E+02  0.91188000000E+02 0.  0.
    9900012    2    3    3    0    0 -0.24648287702E+00  0.11906187417E+02  0.34841969714E+02  0.54367069727E+02  0.39999967056E+02 0.  0.
         12    1    3    3    0    0  0.24648287702E+00 -0.11906187417E+02 -0.34841969714E+02  0.36820930273E+02  0.00000000000E+00 0. -1.
         11    1    4    4    0    0  0.89976350298E+01  0.52361149379E+01  0.10098795871E+02  0.14503793093E+02  0.51100000000E-03 0. -1.
        -11    1    4    4    0    0  0.61406809585E+01 -0.76245113249E+01  0.11194607668E+02  0.14871461821E+02  0.51100000000E-03 0.  1.
        -12    1    4    4    0    0 -0.15384798865E+02  0.14294583804E+02  0.13548566175E+02  0.24991814813E+02  0.00000000000E+00 0.  1.
</event>
<event>
 8    1  0.2458065E-006  0.9118800E+02  0.7816164E-02  0.1184000E+00
        -11   -1    0    0    0    0  0.00000000000E+00  0.00000000000E+00  0.45593999997E+02  0.45594000000E+02  0.51100000000E-03 0.  1.
         11   -1    0    0    0    0 -0.00000000000E+00 -0.00000000000E+00 -0.45593999997E+02  0.45594000000E+02  0.51100000000E-03 0. -1.
         23    2    1    2    0    0  0.35527136788E-14  0.00000000000E+00  0.00000000000E+00  0.91188000000E+02  0.91188000000E+02 0.  0.
    9900012    2    3    3    0    0  0.75086804660E+01 -0.90906464723E+00 -0.36035708287E+02  0.54367096255E+02  0.40000027533E+02 0.  0.
        -12    1    3    3    0    0 -0.75086804660E+01  0.90906464723E+00  0.36035708287E+02  0.36820903745E+02  0.00000000000E+00 0.  1.
         11    1    4    4    0    0  0.18554556902E+02 -0.32066366377E+01 -0.31721309235E+02  0.36888962580E+02  0.51100000000E-03 0. -1.
        -11    1    4    4    0    0 -0.10783441094E+02 -0.16783994789E+01  0.86023186835E+00  0.10947128654E+02  0.51100000000E-03 0.  1.
        -12    1    4    4    0    0 -0.26243534190E+00  0.39759714694E+01 -0.51746309194E+01  0.65310050211E+01  0.00000000000E+00 0.  1.
</event>
<event>
 8    1  0.2458065E-006  0.9118800E+02  0.7816164E-02  0.1184000E+00
        -11   -1    0    0    0    0  0.00000000000E+00  0.00000000000E+00  0.45593999997E+02  0.45594000000E+02  0.51100000000E-03 0. -1.
         11   -1    0    0    0    0 -0.00000000000E+00 -0.00000000000E+00 -0.45593999997E+02  0.45594000000E+02  0.51100000000E-03 0.  1.
         23    2    1    2    0    0  0.00000000000E+00  0.71054273576E-14 -0.26645352591E-14  0.91188000000E+02  0.91188000000E+02 0.  0.
    9900012    2    3    3    0    0  0.16462666625E+02  0.32891575288E+02 -0.17009198141E+01  0.54367241649E+02  0.40000358987E+02 0.  0.
         12    1    3    3    0    0 -0.16462666625E+02 -0.32891575288E+02  0.17009198141E+01  0.36820758351E+02  0.00000000000E+00 0. -1.
         11    1    4    4    0    0  0.12675904446E+02  0.11882536338E+02 -0.10065702503E+02  0.20079631234E+02  0.51100000000E-03 0. -1.
        -11    1    4    4    0    0 -0.89302083632E+01  0.87484193166E+01 -0.35314485589E+01  0.12990557768E+02  0.51100000000E-03 0.  1.
         12    1    4    4    0    0  0.12716970542E+02  0.12260619633E+02  0.11896231248E+02  0.21297052647E+02  0.00000000000E+00 0. -1.
</event>
<event>
 8    1  0.2458065E-006  0.9118800E+02  0.7816164E-02  0.1184000E+00
        -11   -1    0    0    0    0  0.00000000000E+00  0.00000000000E+00  0.45593999997E+02  0.45594000000E+02  0.51100000000E-03 0.  1.
         11   -1    0    0    0    0 -0.00000000000E+00 -0.00000000000E+00 -0.45593999997E+02  0.45594000000E+02  0.51100000000E-03 0. -1.
         23    2    1    2    0    0  0.35527136788E-14  0.00000000000E+00 -0.35527136788E-14  0.91188000000E+02  0.91188000000E+02 0.  0.
    9900012    2    3    3    0    0  0.59238194474E+01  0.29410876760E+02  0.21346859356E+02  0.54367085929E+02  0.40000003993E+02 0.  0.
         12    1    3    3    0    0 -0.59238194474E+01 -0.29410876760E+02 -0.21346859356E+02  0.36820914071E+02  0.00000000000E+00 0. -1.
         11    1    4    4    0    0 -0.11711838903E+02  0.18343501975E+02  0.11004834806E+01  0.21791335419E+02  0.51100000000E-03 0. -1.
        -11    1    4    4    0    0  0.20284036101E+01  0.90949243483E+01  0.10638171909E+02  0.14142233626E+02  0.51100000000E-03 0.  1.
         12    1    4    4    0    0  0.15607254741E+02  0.19724504368E+01  0.96082039669E+01  0.18433516884E+02  0.00000000000E+00 0. -1.
</event>
<event>
 8    1  0.2458065E-006  0.9118800E+02  0.7816164E-02  0.1184000E+00
        -11   -1    0    0    0    0  0.00000000000E+00  0.00000000000E+00  0.45593999997E+02  0.45594000000E+02  0.51100000000E-03 0.  1.
         11   -1    0    0    0    0 -0.00000000000E+00 -0.00000000000E+00 -0.45593999997E+02  0.45594000000E+02  0.51100000000E-03 0. -1.
         23    2    1    2    0    0  0.00000000000E+00  0.00000000000E+00  0.35527136788E-14  0.91188000000E+02  0.91188000000E+02 0.  0.
    9900012    2    3    3    0    0  0.14346825194E+02  0.25261024342E+02 -0.22623670601E+02  0.54367065528E+02  0.39999957483E+02 0.  0.
        -12    1    3    3    0    0 -0.14346825194E+02 -0.25261024342E+02  0.22623670601E+02  0.36820934472E+02  0.00000000000E+00 0.  1.
         11    1    4    4    0    0  0.69828866725E+01  0.17354122770E+02  0.53913948749E+00  0.18714084403E+02  0.51100000000E-03 0. -1.
        -11    1    4    4    0    0 -0.52939592462E+01  0.95274352978E+01 -0.22119521775E+01  0.11121634797E+02  0.51100000000E-03 0.  1.
        -12    1    4    4    0    0  0.12657897768E+02 -0.16205337258E+01 -0.20950857911E+02  0.24531346328E+02  0.00000000000E+00 0.  1.
</event>
<event>
 8    1  0.2458065E-006  0.9118800E+02  0.7816164E-02  0.1184000E+00
        -11   -1    0    0    0    0  0.00000000000E+00  0.00000000000E+00  0.45593999997E+02  0.45594000000E+02  0.51100000000E-03 0.  1.
         11   -1    0    0    0    0 -0.00000000000E+00 -0.00000000000E+00 -0.45593999997E+02  0.45594000000E+02  0.51100000000E-03 0. -1.
         23    2    1    2    0    0  0.35527136788E-14  0.00000000000E+00  0.00000000000E+00  0.91188000000E+02  0.91188000000E+02 0.  0.
    9900012    2    3    3    0    0 -0.18647009118E+02 -0.16367274939E+02  0.27206288127E+02  0.54367071826E+02  0.39999971841E+02 0.  0.
         12    1    3    3    0    0  0.18647009118E+02  0.16367274939E+02 -0.27206288127E+02  0.36820928174E+02  0.00000000000E+00 0. -1.
         11    1    4    4    0    0  0.41450116835E+01  0.32459286776E+01  0.54958831667E+01  0.76106443144E+01  0.51100000000E-03 0. -1.
        -11    1    4    4    0    0  0.23959150661E+01 -0.15196424330E+02  0.48675735779E+01  0.16135829518E+02  0.51100000000E-03 0.  1.
        -12    1    4    4    0    0 -0.25187935867E+02 -0.44167792869E+01  0.16842831382E+02  0.30620597994E+02  0.00000000000E+00 0.  1.
</event>
<event>
 8    1  0.2458065E-006  0.9118800E+02  0.7816164E-02  0.1184000E+00
        -11   -1    0    0    0    0  0.00000000000E+00  0.00000000000E+00  0.45593999997E+02  0.45594000000E+02  0.51100000000E-03 0. -1.
         11   -1    0    0    0    0 -0.00000000000E+00 -0.00000000000E+00 -0.45593999997E+02  0.45594000000E+02  0.51100000000E-03 0.  1.
         23    2    1    2    0    0 -0.16653345369E-15  0.14210854715E-13  0.00000000000E+00  0.91188000000E+02  0.91188000000E+02 0.  0.
    9900012    2    3    3    0    0  0.45265398509E+00  0.36429822340E+02  0.53332763174E+01  0.54367072694E+02  0.39999973821E+02 0.  0.
        -12    1    3    3    0    0 -0.45265398509E+00 -0.36429822340E+02 -0.53332763174E+01  0.36820927306E+02  0.00000000000E+00 0.  1.
         11    1    4    4    0    0  0.46997319061E+01  0.15861931553E+02 -0.43404605257E+01  0.17103448495E+02  0.51100000000E-03 0. -1.
        -11    1    4    4    0    0 -0.71214567462E+01  0.37547849681E+01 -0.89304693411E+01  0.12023595105E+02  0.51100000000E-03 0.  1.
        -12    1    4    4    0    0  0.28743788252E+01  0.16813105820E+02  0.18604206184E+02  0.25240029094E+02  0.00000000000E+00 0.  1.
</event>
<event>
 8    1  0.2458065E-006  0.9118800E+02  0.7816164E-02  0.1184000E+00
        -11   -1    0    0    0    0  0.00000000000E+00  0.00000000000E+00  0.45593999997E+02  0.45594000000E+02  0.51100000000E-03 0.  1.
         11   -1    0    0    0    0 -0.00000000000E+00 -0.00000000000E+00 -0.45593999997E+02  0.45594000000E+02  0.51100000000E-03 0. -1.
         23    2    1    2    0    0  0.35527136788E-14  0.00000000000E+00  0.00000000000E+00  0.91188000000E+02  0.91188000000E+02 0.  0.
    9900012    2    3    3    0    0  0.26795162679E+02  0.13468895730E+02  0.21363159053E+02  0.54367130104E+02  0.40000104698E+02 0.  0.
         12    1    3    3    0    0 -0.26795162679E+02 -0.13468895730E+02 -0.21363159053E+02  0.36820869896E+02  0.00000000000E+00 0. -1.
         11    1    4    4    0    0  0.42025417252E+01  0.72769501135E+00 -0.56089392943E+01  0.70463534719E+01  0.51100000000E-03 0. -1.
        -11    1    4    4    0    0  0.11307207893E+02  0.20307026907E+02  0.24005267652E+02  0.33413787086E+02  0.51100000000E-03 0.  1.
         12    1    4    4    0    0  0.11285413061E+02 -0.75658261884E+01  0.29668306956E+01  0.13906989546E+02  0.00000000000E+00 0. -1.
</event>
<event>
 8    1  0.2458065E-006  0.9118800E+02  0.7816164E-02  0.1184000E+00
        -11   -1    0    0    0    0  0.00000000000E+00  0.00000000000E+00  0.45593999997E+02  0.45594000000E+02  0.51100000000E-03 0. -1.
         11   -1    0    0    0    0 -0.00000000000E+00 -0.00000000000E+00 -0.45593999997E+02  0.45594000000E+02  0.51100000000E-03 0.  1.
         23    2    1    2    0    0  0.00000000000E+00  0.00000000000E+00 -0.35527136788E-14  0.91188000000E+02  0.91188000000E+02 0.  0.
    9900012    2    3    3    0    0  0.24706041076E+01  0.26879516585E+02 -0.25043301410E+02  0.54367092325E+02  0.40000018573E+02 0.  0.
         12    1    3    3    0    0 -0.24706041076E+01 -0.26879516585E+02  0.25043301410E+02  0.36820907675E+02  0.00000000000E+00 0. -1.
         11    1    4    4    0    0 -0.20251420964E+01 -0.59529066092E+01  0.40579331864E+01  0.74836568344E+01  0.51100000000E-03 0. -1.
        -11    1    4    4    0    0 -0.33348132950E+01  0.23868810379E+02 -0.14820000927E+02  0.28292640675E+02  0.51100000000E-03 0.  1.
         12    1    4    4    0    0  0.78305594990E+01  0.89636128160E+01 -0.14281233669E+02  0.18590794816E+02  0.00000000000E+00 0. -1.
</event>
<event>
 8    1  0.2458065E-006  0.9118800E+02  0.7816164E-02  0.1184000E+00
        -11   -1    0    0    0    0  0.00000000000E+00  0.00000000000E+00  0.45593999997E+02  0.45594000000E+02  0.51100000000E-03 0. -1.
         11   -1    0    0    0    0 -0.00000000000E+00 -0.00000000000E+00 -0.45593999997E+02  0.45594000000E+02  0.51100000000E-03 0.  1.
         23    2    1    2    0    0  0.17763568394E-14  0.00000000000E+00  0.00000000000E+00  0.91188000000E+02  0.91188000000E+02 0.  0.
    9900012    2    3    3    0    0 -0.10706285412E+02  0.16249964567E+02 -0.31258512997E+02  0.54367074828E+02  0.39999978685E+02 0.  0.
         12    1    3    3    0    0  0.10706285412E+02 -0.16249964567E+02  0.31258512997E+02  0.36820925172E+02  0.00000000000E+00 0. -1.
         11    1    4    4    0    0 -0.44212003161E+00  0.76528254626E+01  0.52510632157E+01  0.92916560870E+01  0.51100000000E-03 0. -1.
        -11    1    4    4    0    0  0.16756920434E+01  0.27822959302E+01 -0.30196623055E+02  0.30370794501E+02  0.51100000000E-03 0.  1.
        -12    1    4    4    0    0 -0.11939857424E+02  0.58148431738E+01 -0.63129531579E+01  0.14704624239E+02  0.00000000000E+00 0.  1.
</event>
<event>
 8    1  0.2458065E-006  0.9118800E+02  0.7816164E-02  0.1184000E+00
        -11   -1    0    0    0    0  0.00000000000E+00  0.00000000000E+00  0.45593999997E+02  0.45594000000E+02  0.51100000000E-03 0. -1.
         11   -1    0    0    0    0 -0.00000000000E+00 -0.00000000000E+00 -0.45593999997E+02  0.45594000000E+02  0.51100000000E-03 0.  1.
         23    2    1    2    0    0  0.00000000000E+00  0.26645352591E-14 -0.88817841970E-15  0.91188000000E+02  0.91188000000E+02 0.  0.
    9900012    2    3    3    0    0  0.35601629447E+02  0.67525739713E+01 -0.65351131520E+01  0.54367068746E+02  0.39999964820E+02 0.  0.
         12    1    3    3    0    0 -0.35601629447E+02 -0.67525739713E+01  0.65351131520E+01  0.36820931254E+02  0.00000000000E+00 0. -1.
         11    1    4    4    0    0 -0.26661116881E+01 -0.24627264851E+01 -0.37968265996E+00  0.36492920487E+01  0.51100000000E-03 0. -1.
        -11    1    4    4    0    0  0.30634268968E+02 -0.75911694167E+01 -0.66438305359E+01  0.32252515759E+02  0.51100000000E-03 0.  1.
        -12    1    4    4    0    0  0.76334721672E+01  0.16806469873E+02  0.48840004387E+00  0.18465260938E+02  0.00000000000E+00 0.  1.
</event>
<event>
 8    1  0.2458065E-006  0.9118800E+02  0.7816164E-02  0.1184000E+00
        -11   -1    0    0    0    0  0.00000000000E+00  0.00000000000E+00  0.45593999997E+02  0.45594000000E+02  0.51100000000E-03 0. -1.
         11   -1    0    0    0    0 -0.00000000000E+00 -0.00000000000E+00 -0.45593999997E+02  0.45594000000E+02  0.51100000000E-03 0.  1.
         23    2    1    2    0    0 -0.88817841970E-15  0.00000000000E+00  0.00000000000E+00  0.91188000000E+02  0.91188000000E+02 0.  0.
    9900012    2    3    3    0    0 -0.51296484174E+01 -0.17521924619E+02 -0.31975750123E+02  0.54367085682E+02  0.40000003430E+02 0.  0.
         12    1    3    3    0    0  0.51296484174E+01  0.17521924619E+02  0.31975750123E+02  0.36820914318E+02  0.00000000000E+00 0. -1.
         11    1    4    4    0    0 -0.80638492442E+00  0.10056029229E+01  0.60430906675E+01  0.61790322027E+01  0.51100000000E-03 0. -1.
        -11    1    4    4    0    0 -0.67886456162E+01  0.21047789010E+01 -0.17924149861E+02  0.19281881444E+02  0.51100000000E-03 0.  1.
         12    1    4    4    0    0  0.24653821232E+01 -0.20632306443E+02 -0.20094690930E+02  0.28906172036E+02  0.00000000000E+00 0. -1.
</event>
<event>
 8    1  0.2458065E-006  0.9118800E+02  0.7816164E-02  0.1184000E+00
        -11   -1    0    0    0    0  0.00000000000E+00  0.00000000000E+00  0.45593999997E+02  0.45594000000E+02  0.51100000000E-03 0.  1.
         11   -1    0    0    0    0 -0.00000000000E+00 -0.00000000000E+00 -0.45593999997E+02  0.45594000000E+02  0.51100000000E-03 0. -1.
         23    2    1    2    0    0 -0.35527136788E-14  0.35527136788E-14  0.00000000000E+00  0.91188000000E+02  0.91188000000E+02 0.  0.
    9900012    2    3    3    0    0 -0.30894492543E+02  0.14950190680E+02  0.13334264228E+02  0.54367075604E+02  0.39999980455E+02 0.  0.
        -12    1    3    3    0    0  0.30894492543E+02 -0.14950190680E+02 -0.13334264228E+02  0.36820924396E+02  0.00000000000E+00 0.  1.
         11    1    4    4    0    0  0.13138882648E+01 -0.35571153174E+01  0.94967673870E+01  0.10225847780E+02  0.51100000000E-03 0. -1.
        -11    1    4    4    0    0  0.32880300582E+01  0.34121378565E+01  0.29030836580E+01  0.55571324802E+01  0.51100000000E-03 0.  1.
         12    1    4    4    0    0 -0.35496410866E+02  0.15095168141E+02  0.93441318341E+00  0.38584095344E+02  0.00000000000E+00 0. -1.
</event>
<event>
 8    1  0.2458065E-006  0.9118800E+02  0.7816164E-02  0.1184000E+00
        -11   -1    0    0    0    0  0.00000000000E+00  0.00000000000E+00  0.45593999997E+02  0.45594000000E+02  0.51100000000E-03 0.  1.
         11   -1    0    0    0    0 -0.00000000000E+00 -0.00000000000E+00 -0.45593999997E+02  0.45594000000E+02  0.51100000000E-03 0. -1.
         23    2    1    2    0    0  0.00000000000E+00  0.17763568394E-14  0.00000000000E+00  0.91188000000E+02  0.91188000000E+02 0.  0.
    9900012    2    3    3    0    0 -0.32752369885E+02  0.11440119486E+02 -0.12336397146E+02  0.54367071692E+02  0.39999971536E+02 0.  0.
        -12    1    3    3    0    0  0.32752369885E+02 -0.11440119486E+02  0.12336397146E+02  0.36820928308E+02  0.00000000000E+00 0.  1.
         11    1    4    4    0    0 -0.96142265937E+01  0.11064799554E+02 -0.95903038050E+01  0.17516765384E+02  0.51100000000E-03 0. -1.
        -11    1    4    4    0    0 -0.20571728612E+02  0.10534216441E+02  0.52124196201E+01  0.23692510476E+02  0.51100000000E-03 0.  1.
         12    1    4    4    0    0 -0.25664146790E+01 -0.10158896510E+02 -0.79585129611E+01  0.13157795832E+02  0.00000000000E+00 0. -1.
</event>
<event>
 8    1  0.2458065E-006  0.9118800E+02  0.7816164E-02  0.1184000E+00
        -11   -1    0    0    0    0  0.00000000000E+00  0.00000000000E+00  0.45593999997E+02  0.45594000000E+02  0.51100000000E-03 0.  1.
         11   -1    0    0    0    0 -0.00000000000E+00 -0.00000000000E+00 -0.45593999997E+02  0.45594000000E+02  0.51100000000E-03 0. -1.
         23    2    1    2    0    0 -0.17763568394E-14  0.71054273576E-14  0.00000000000E+00  0.91188000000E+02  0.91188000000E+02 0.  0.
    9900012    2    3    3    0    0 -0.11372310268E+02  0.24199324990E+02  0.25314903244E+02  0.54367067135E+02  0.39999961148E+02 0.  0.
         12    1    3    3    0    0  0.11372310268E+02 -0.24199324990E+02 -0.25314903244E+02  0.36820932865E+02  0.00000000000E+00 0. -1.
         11    1    4    4    0    0 -0.22529045250E+02  0.62202496696E+01  0.11560035382E+02  0.26074581571E+02  0.51100000000E-03 0. -1.
        -11    1    4    4    0    0  0.73886748524E+01  0.11799940088E+01  0.47576270659E+01  0.88667873266E+01  0.51100000000E-03 0.  1.
        -12    1    4    4    0    0  0.37680601300E+01  0.16799081311E+02  0.89972407965E+01  0.19425698237E+02  0.00000000000E+00 0.  1.
</event>
<event>
 8    1  0.2458065E-006  0.9118800E+02  0.7816164E-02  0.1184000E+00
        -11   -1    0    0    0    0  0.00000000000E+00  0.00000000000E+00  0.45593999997E+02  0.45594000000E+02  0.51100000000E-03 0. -1.
         11   -1    0    0    0    0 -0.00000000000E+00 -0.00000000000E+00 -0.45593999997E+02  0.45594000000E+02  0.51100000000E-03 0.  1.
         23    2    1    2    0    0  0.00000000000E+00  0.00000000000E+00 -0.35527136788E-14  0.91188000000E+02  0.91188000000E+02 0.  0.
    9900012    2    3    3    0    0 -0.28593206455E+02 -0.26187961687E+01 -0.23050997298E+02  0.54367108848E+02  0.40000056242E+02 0.  0.
         12    1    3    3    0    0  0.28593206455E+02  0.26187961687E+01  0.23050997298E+02  0.36820891152E+02  0.00000000000E+00 0. -1.
         11    1    4    4    0    0  0.49356464285E+01  0.33589936904E+01 -0.88585375219E+01  0.10682562032E+02  0.51100000000E-03 0. -1.
        -11    1    4    4    0    0  0.21681843132E+01  0.31425778451E+00 -0.61873858200E+01  0.65638041346E+01  0.51100000000E-03 0.  1.
        -12    1    4    4    0    0 -0.35697037197E+02 -0.62920476437E+01 -0.80050739559E+01  0.37120742682E+02  0.00000000000E+00 0.  1.
</event>
<event>
 8    1  0.2458065E-006  0.9118800E+02  0.7816164E-02  0.1184000E+00
        -11   -1    0    0    0    0  0.00000000000E+00  0.00000000000E+00  0.45593999997E+02  0.45594000000E+02  0.51100000000E-03 0.  1.
         11   -1    0    0    0    0 -0.00000000000E+00 -0.00000000000E+00 -0.45593999997E+02  0.45594000000E+02  0.51100000000E-03 0. -1.
         23    2    1    2    0    0  0.00000000000E+00  0.00000000000E+00  0.00000000000E+00  0.91188000000E+02  0.91188000000E+02 0.  0.
    9900012    2    3    3    0    0 -0.21441877199E+02  0.25847550765E+02  0.15097329013E+02  0.54367091243E+02  0.40000016106E+02 0.  0.
         12    1    3    3    0    0  0.21441877199E+02 -0.25847550765E+02 -0.15097329013E+02  0.36820908757E+02  0.00000000000E+00 0. -1.
         11    1    4    4    0    0  0.64249265173E+01  0.12392367850E+02 -0.58308706682E-01  0.13959006478E+02  0.51100000000E-03 0. -1.
        -11    1    4    4    0    0 -0.57546464077E+01  0.89024478638E+01  0.14320032074E+02  0.17816645367E+02  0.51100000000E-03 0.  1.
         12    1    4    4    0    0 -0.22112157309E+02  0.45527350513E+01  0.83560564577E+00  0.22591439399E+02  0.00000000000E+00 0. -1.
</event>
<event>
 8    1  0.2458065E-006  0.9118800E+02  0.7816164E-02  0.1184000E+00
        -11   -1    0    0    0    0  0.00000000000E+00  0.00000000000E+00  0.45593999997E+02  0.45594000000E+02  0.51100000000E-03 0.  1.
         11   -1    0    0    0    0 -0.00000000000E+00 -0.00000000000E+00 -0.45593999997E+02  0.45594000000E+02  0.51100000000E-03 0. -1.
         23    2    1    2    0    0 -0.35527136788E-14  0.00000000000E+00  0.00000000000E+00  0.91188000000E+02  0.91188000000E+02 0.  0.
    9900012    2    3    3    0    0  0.29977504050E+02 -0.19730162652E+02 -0.82370361430E+01  0.54367097896E+02  0.40000031273E+02 0.  0.
        -12    1    3    3    0    0 -0.29977504050E+02  0.19730162652E+02  0.82370361430E+01  0.36820902104E+02  0.00000000000E+00 0.  1.
         11    1    4    4    0    0  0.24691905103E+01 -0.61133729244E+00 -0.88491091441E+01  0.92074626237E+01  0.51100000000E-03 0. -1.
        -11    1    4    4    0    0  0.73789696259E+00 -0.12456334879E+02 -0.95993881930E+01  0.15743348579E+02  0.51100000000E-03 0.  1.
         12    1    4    4    0    0  0.26770416577E+02 -0.66624904812E+01  0.10211461194E+02  0.29416286693E+02  0.00000000000E+00 0. -1.
</event>
<event>
 8    1  0.2458065E-006  0.9118800E+02  0.7816164E-02  0.1184000E+00
        -11   -1    0    0    0    0  0.00000000000E+00  0.00000000000E+00  0.45593999997E+02  0.45594000000E+02  0.51100000000E-03 0.  1.
         11   -1    0    0    0    0 -0.00000000000E+00 -0.00000000000E+00 -0.45593999997E+02  0.45594000000E+02  0.51100000000E-03 0. -1.
         23    2    1    2    0    0 -0.35527136788E-14  0.17763568394E-14 -0.35527136788E-14  0.91188000000E+02  0.91188000000E+02 0.  0.
    9900012    2    3    3    0    0 -0.29440311566E+02  0.13089170378E+02  0.17824739530E+02  0.54367086573E+02  0.40000005460E+02 0.  0.
        -12    1    3    3    0    0  0.29440311566E+02 -0.13089170378E+02 -0.17824739530E+02  0.36820913427E+02  0.00000000000E+00 0.  1.
         11    1    4    4    0    0 -0.14088600672E+02  0.19945554512E+01  0.19553989065E+02  0.24183163750E+02  0.51100000000E-03 0. -1.
        -11    1    4    4    0    0 -0.15282188187E+01 -0.69264503526E+01 -0.23234038796E+01  0.74638711869E+01  0.51100000000E-03 0.  1.
         12    1    4    4    0    0 -0.13823492075E+02  0.18021065280E+02  0.59415434454E+00  0.22720051636E+02  0.00000000000E+00 0. -1.
</event>
<event>
 8    1  0.2458065E-006  0.9118800E+02  0.7816164E-02  0.1184000E+00
        -11   -1    0    0    0    0  0.00000000000E+00  0.00000000000E+00  0.45593999997E+02  0.45594000000E+02  0.51100000000E-03 0.  1.
         11   -1    0    0    0    0 -0.00000000000E+00 -0.00000000000E+00 -0.45593999997E+02  0.45594000000E+02  0.51100000000E-03 0. -1.
         23    2    1    2    0    0  0.00000000000E+00  0.22204460493E-15  0.00000000000E+00  0.91188000000E+02  0.91188000000E+02 0.  0.
    9900012    2    3    3    0    0 -0.16790770498E+02 -0.14214860940E+01  0.32738824565E+02  0.54367065322E+02  0.39999957015E+02 0.  0.
         12    1    3    3    0    0  0.16790770498E+02  0.14214860940E+01 -0.32738824565E+02  0.36820934678E+02  0.00000000000E+00 0. -1.
         11    1    4    4    0    0 -0.36828966643E+01 -0.61492574533E+01 -0.64094712710E+01  0.96155300063E+01  0.51100000000E-03 0. -1.
        -11    1    4    4    0    0 -0.11796851503E+02  0.10101164884E+02  0.23627714232E+02  0.28274867241E+02  0.51100000000E-03 0.  1.
         12    1    4    4    0    0 -0.13110223307E+01 -0.53733935250E+01  0.15520581604E+02  0.16476668075E+02  0.00000000000E+00 0. -1.
</event>
<event>
 8    1  0.2458065E-006  0.9118800E+02  0.7816164E-02  0.1184000E+00
        -11   -1    0    0    0    0  0.00000000000E+00  0.00000000000E+00  0.45593999997E+02  0.45594000000E+02  0.51100000000E-03 0. -1.
         11   -1    0    0    0    0 -0.00000000000E+00 -0.00000000000E+00 -0.45593999997E+02  0.45594000000E+02  0.51100000000E-03 0.  1.
         23    2    1    2    0    0  0.17763568394E-14 -0.88817841970E-15  0.00000000000E+00  0.91188000000E+02  0.91188000000E+02 0.  0.
    9900012    2    3    3    0    0 -0.15680970358E+02  0.48287707935E+01  0.32963166868E+02  0.54367078926E+02  0.39999988028E+02 0.  0.
        -12    1    3    3    0    0  0.15680970358E+02 -0.48287707935E+01 -0.32963166868E+02  0.36820921074E+02  0.00000000000E+00 0.  1.
         11    1    4    4    0    0 -0.22672991194E+02 -0.41824687707E+00  0.17533124855E+02  0.28664436635E+02  0.51100000000E-03 0. -1.
        -11    1    4    4    0    0 -0.60566824061E+01 -0.28450889006E+00  0.26442093657E+01  0.66148462195E+01  0.51100000000E-03 0.  1.
        -12    1    4    4    0    0  0.13048703242E+02  0.55315265606E+01  0.12785832648E+02  0.19087796072E+02  0.00000000000E+00 0.  1.
</event>
<event>
 8    1  0.2458065E-006  0.9118800E+02  0.7816164E-02  0.1184000E+00
        -11   -1    0    0    0    0  0.00000000000E+00  0.00000000000E+00  0.45593999997E+02  0.45594000000E+02  0.51100000000E-03 0.  1.
         11   -1    0    0    0    0 -0.00000000000E+00 -0.00000000000E+00 -0.45593999997E+02  0.45594000000E+02  0.51100000000E-03 0. -1.
         23    2    1    2    0    0 -0.35527136788E-14 -0.17763568394E-14  0.00000000000E+00  0.91188000000E+02  0.91188000000E+02 0.  0.
    9900012    2    3    3    0    0 -0.29325543552E+02  0.13013760950E+02 -0.18067516268E+02  0.54367073575E+02  0.39999975830E+02 0.  0.
        -12    1    3    3    0    0  0.29325543552E+02 -0.13013760950E+02  0.18067516268E+02  0.36820926425E+02  0.00000000000E+00 0.  1.
         11    1    4    4    0    0 -0.43914247742E+01  0.87922938217E+01 -0.51736421139E+01  0.11106557305E+02  0.51100000000E-03 0. -1.
        -11    1    4    4    0    0 -0.21412198290E+02  0.13324196594E+02  0.21683575005E+01  0.25312412469E+02  0.51100000000E-03 0.  1.
         12    1    4    4    0    0 -0.35219204875E+01 -0.91027294654E+01 -0.15062231654E+02  0.17948103801E+02  0.00000000000E+00 0. -1.
</event>
<event>
 8    1  0.2458065E-006  0.9118800E+02  0.7816164E-02  0.1184000E+00
        -11   -1    0    0    0    0  0.00000000000E+00  0.00000000000E+00  0.45593999997E+02  0.45594000000E+02  0.51100000000E-03 0. -1.
         11   -1    0    0    0    0 -0.00000000000E+00 -0.00000000000E+00 -0.45593999997E+02  0.45594000000E+02  0.51100000000E-03 0.  1.
         23    2    1    2    0    0 -0.35527136788E-14  0.00000000000E+00 -0.35527136788E-14  0.91188000000E+02  0.91188000000E+02 0.  0.
    9900012    2    3    3    0    0  0.28078671829E+02 -0.16729865580E+02  0.16955255853E+02  0.54367069607E+02  0.39999966783E+02 0.  0.
        -12    1    3    3    0    0 -0.28078671829E+02  0.16729865580E+02 -0.16955255853E+02  0.36820930393E+02  0.00000000000E+00 0.  1.
         11    1    4    4    0    0  0.24916406489E+02 -0.28576342534E+01  0.14982826223E+02  0.29214353797E+02  0.51100000000E-03 0. -1.
        -11    1    4    4    0    0 -0.43469119698E+01 -0.15446847884E+02  0.51431113462E+01  0.16850885668E+02  0.51100000000E-03 0.  1.
        -12    1    4    4    0    0  0.75091773092E+01  0.15746165569E+01 -0.31706817168E+01  0.83018301423E+01  0.00000000000E+00 0.  1.
</event>
<event>
 8    1  0.2458065E-006  0.9118800E+02  0.7816164E-02  0.1184000E+00
        -11   -1    0    0    0    0  0.00000000000E+00  0.00000000000E+00  0.45593999997E+02  0.45594000000E+02  0.51100000000E-03 0. -1.
         11   -1    0    0    0    0 -0.00000000000E+00 -0.00000000000E+00 -0.45593999997E+02  0.45594000000E+02  0.51100000000E-03 0.  1.
         23    2    1    2    0    0  0.00000000000E+00  0.17763568394E-14  0.00000000000E+00  0.91188000000E+02  0.91188000000E+02 0.  0.
    9900012    2    3    3    0    0 -0.34217445765E+02  0.87380681944E+01  0.10420746856E+02  0.54367090241E+02  0.40000013822E+02 0.  0.
        -12    1    3    3    0    0  0.34217445765E+02 -0.87380681944E+01 -0.10420746856E+02  0.36820909759E+02  0.00000000000E+00 0.  1.
         11    1    4    4    0    0 -0.31018840160E+02 -0.22784653060E+01  0.46593300694E+01  0.31449470679E+02  0.51100000000E-03 0. -1.
        -11    1    4    4    0    0  0.38265864368E-01 -0.51968715938E+01  0.34149460052E+01  0.62185846556E+01  0.51100000000E-03 0.  1.
         12    1    4    4    0    0 -0.32368714693E+01  0.16213405094E+02  0.23464707808E+01  0.16699034906E+02  0.00000000000E+00 0. -1.
</event>
<event>
 8    1  0.2458065E-006  0.9118800E+02  0.7816164E-02  0.1184000E+00
        -11   -1    0    0    0    0  0.00000000000E+00  0.00000000000E+00  0.45593999997E+02  0.45594000000E+02  0.51100000000E-03 0.  1.
         11   -1    0    0    0    0 -0.00000000000E+00 -0.00000000000E+00 -0.45593999997E+02  0.45594000000E+02  0.51100000000E-03 0. -1.
         23    2    1    2    0    0  0.35527136788E-14 -0.44408920985E-15  0.35527136788E-14  0.91188000000E+02  0.91188000000E+02 0.  0.
    9900012    2    3    3    0    0 -0.21769416306E+02  0.19083135602E+01 -0.29634961576E+02  0.54367080748E+02  0.39999992181E+02 0.  0.
        -12    1    3    3    0    0  0.21769416306E+02 -0.19083135602E+01  0.29634961576E+02  0.36820919252E+02  0.00000000000E+00 0.  1.
         11    1    4    4    0    0 -0.23632633850E+02  0.61416767445E+01 -0.12473456628E+02  0.27419130118E+02  0.51100000000E-03 0. -1.
        -11    1    4    4    0    0 -0.17710301512E+00  0.76538303309E+01 -0.27022977668E+01  0.81187990302E+01  0.51100000000E-03 0.  1.
        -12    1    4    4    0    0  0.20403205595E+01 -0.11887193515E+02 -0.14459207181E+02  0.18829151600E+02  0.00000000000E+00 0.  1.
</event>
<event>
 8    1  0.2458065E-006  0.9118800E+02  0.7816164E-02  0.1184000E+00
        -11   -1    0    0    0    0  0.00000000000E+00  0.00000000000E+00  0.45593999997E+02  0.45594000000E+02  0.51100000000E-03 0.  1.
         11   -1    0    0    0    0 -0.00000000000E+00 -0.00000000000E+00 -0.45593999997E+02  0.45594000000E+02  0.51100000000E-03 0. -1.
         23    2    1    2    0    0  0.35527136788E-14  0.35527136788E-14  0.00000000000E+00  0.91188000000E+02  0.91188000000E+02 0.  0.
    9900012    2    3    3    0    0  0.20816164979E+02  0.27046280194E+02  0.13819056627E+02  0.54367077649E+02  0.39999985116E+02 0.  0.
        -12    1    3    3    0    0 -0.20816164979E+02 -0.27046280194E+02 -0.13819056627E+02  0.36820922351E+02  0.00000000000E+00 0.  1.
         11    1    4    4    0    0  0.23201661064E+02  0.15514752716E+02  0.26181971578E+01  0.28033543918E+02  0.51100000000E-03 0. -1.
        -11    1    4    4    0    0  0.67749028171E+01  0.29271142540E+01 -0.24520151996E+01  0.77768685753E+01  0.51100000000E-03 0.  1.
        -12    1    4    4    0    0 -0.91603989028E+01  0.86044132242E+01  0.13652874668E+02  0.18556665156E+02  0.00000000000E+00 0.  1.
</event>
<event>
 8    1  0.2458065E-006  0.9118800E+02  0.7816164E-02  0.1184000E+00
        -11   -1    0    0    0    0  0.00000000000E+00  0.00000000000E+00  0.45593999997E+02  0.45594000000E+02  0.51100000000E-03 0.  1.
         11   -1    0    0    0    0 -0.00000000000E+00 -0.00000000000E+00 -0.45593999997E+02  0.45594000000E+02  0.51100000000E-03 0. -1.
         23    2    1    2    0    0  0.00000000000E+00  0.00000000000E+00  0.00000000000E+00  0.91188000000E+02  0.91188000000E+02 0.  0.
    9900012    2    3    3    0    0 -0.90248679398E+01  0.28349986158E+02 -0.21693569468E+02  0.54367069638E+02  0.39999966854E+02 0.  0.
         12    1    3    3    0    0  0.90248679398E+01 -0.28349986158E+02  0.21693569468E+02  0.36820930362E+02  0.00000000000E+00 0. -1.
         11    1    4    4    0    0  0.29604193798E+01 -0.61000886439E-01 -0.26196719340E+00  0.29726135107E+01  0.51100000000E-03 0. -1.
        -11    1    4    4    0    0  0.42847902570E+01  0.19472718680E+02  0.35689743512E+01  0.20255462930E+02  0.51100000000E-03 0.  1.
        -12    1    4    4    0    0 -0.16270077577E+02  0.89382683639E+01 -0.25000576626E+02  0.31138993197E+02  0.00000000000E+00 0.  1.
</event>
<event>
 8    1  0.2458065E-006  0.9118800E+02  0.7816164E-02  0.1184000E+00
        -11   -1    0    0    0    0  0.00000000000E+00  0.00000000000E+00  0.45593999997E+02  0.45594000000E+02  0.51100000000E-03 0. -1.
         11   -1    0    0    0    0 -0.00000000000E+00 -0.00000000000E+00 -0.45593999997E+02  0.45594000000E+02  0.51100000000E-03 0.  1.
         23    2    1    2    0    0  0.00000000000E+00 -0.35527136788E-14  0.00000000000E+00  0.91188000000E+02  0.91188000000E+02 0.  0.
    9900012    2    3    3    0    0 -0.11170889405E+02  0.26510330700E+02  0.22982427112E+02  0.54367104304E+02  0.40000045881E+02 0.  0.
        -12    1    3    3    0    0  0.11170889405E+02 -0.26510330700E+02 -0.22982427112E+02  0.36820895696E+02  0.00000000000E+00 0.  1.
         11    1    4    4    0    0 -0.65501158079E+01 -0.27516006480E+01  0.39771527661E+01  0.81420554905E+01  0.51100000000E-03 0.  1.
        -11    1    4    4    0    0  0.10012573397E+02  0.69951911526E+00  0.41561606615E+01  0.10863453628E+02  0.51100000000E-03 0. -1.
         12    1    4    4    0    0 -0.14633346995E+02  0.28562412232E+02  0.14849113685E+02  0.35361595185E+02  0.00000000000E+00 0. -1.
</event>
<event>
 8    1  0.2458065E-006  0.9118800E+02  0.7816164E-02  0.1184000E+00
        -11   -1    0    0    0    0  0.00000000000E+00  0.00000000000E+00  0.45593999997E+02  0.45594000000E+02  0.51100000000E-03 0. -1.
         11   -1    0    0    0    0 -0.00000000000E+00 -0.00000000000E+00 -0.45593999997E+02  0.45594000000E+02  0.51100000000E-03 0.  1.
         23    2    1    2    0    0 -0.88817841970E-15  0.00000000000E+00  0.35527136788E-14  0.91188000000E+02  0.91188000000E+02 0.  0.
    9900012    2    3    3    0    0  0.48042073013E+01  0.27786964929E+02 -0.23676646393E+02  0.54367090014E+02  0.40000013305E+02 0.  0.
         12    1    3    3    0    0 -0.48042073013E+01 -0.27786964929E+02  0.23676646393E+02  0.36820909986E+02  0.00000000000E+00 0. -1.
         11    1    4    4    0    0 -0.64048743870E+01  0.91330143317E+01 -0.22112426239E+02  0.24766787461E+02  0.51100000000E-03 0. -1.
        -11    1    4    4    0    0  0.93913115423E+01  0.11746422701E+01 -0.63370673686E+01  0.11390124672E+02  0.51100000000E-03 0.  1.
         12    1    4    4    0    0  0.18177701460E+01  0.17479308328E+02  0.47728472149E+01  0.18210177881E+02  0.00000000000E+00 0. -1.
</event>
<event>
 8    1  0.2458065E-006  0.9118800E+02  0.7816164E-02  0.1184000E+00
        -11   -1    0    0    0    0  0.00000000000E+00  0.00000000000E+00  0.45593999997E+02  0.45594000000E+02  0.51100000000E-03 0.  1.
         11   -1    0    0    0    0 -0.00000000000E+00 -0.00000000000E+00 -0.45593999997E+02  0.45594000000E+02  0.51100000000E-03 0. -1.
         23    2    1    2    0    0 -0.17763568394E-14  0.00000000000E+00  0.88817841970E-15  0.91188000000E+02  0.91188000000E+02 0.  0.
    9900012    2    3    3    0    0 -0.10281682968E+02 -0.34825318677E+02  0.61044353877E+01  0.54367082616E+02  0.39999996439E+02 0.  0.
         12    1    3    3    0    0  0.10281682968E+02  0.34825318677E+02 -0.61044353877E+01  0.36820917384E+02  0.00000000000E+00 0. -1.
         11    1    4    4    0    0 -0.63707608066E+00 -0.18879674980E+02  0.74074031875E+00  0.18904938237E+02  0.51100000000E-03 0. -1.
        -11    1    4    4    0    0 -0.13147738863E+02 -0.23330178225E+02  0.29614109326E+01  0.26943092031E+02  0.51100000000E-03 0.  1.
        -12    1    4    4    0    0  0.35031319758E+01  0.73845345276E+01  0.24022841364E+01  0.85190523476E+01  0.00000000000E+00 0.  1.
</event>
<event>
 8    1  0.2458065E-006  0.9118800E+02  0.7816164E-02  0.1184000E+00
        -11   -1    0    0    0    0  0.00000000000E+00  0.00000000000E+00  0.45593999997E+02  0.45594000000E+02  0.51100000000E-03 0. -1.
         11   -1    0    0    0    0 -0.00000000000E+00 -0.00000000000E+00 -0.45593999997E+02  0.45594000000E+02  0.51100000000E-03 0.  1.
         23    2    1    2    0    0  0.00000000000E+00  0.17763568394E-14  0.00000000000E+00  0.91188000000E+02  0.91188000000E+02 0.  0.
    9900012    2    3    3    0    0 -0.34155191830E+02  0.86510522368E+01 -0.10693897319E+02  0.54367119054E+02  0.40000079508E+02 0.  0.
         12    1    3    3    0    0  0.34155191830E+02 -0.86510522368E+01  0.10693897319E+02  0.36820880946E+02  0.00000000000E+00 0. -1.
         11    1    4    4    0    0 -0.29720359971E+02 -0.25721076664E+01 -0.11035419893E+02  0.31807169430E+02  0.51100000000E-03 0. -1.
        -11    1    4    4    0    0 -0.83526555013E+01  0.13923534641E+02 -0.32992835973E+01  0.16568552844E+02  0.51100000000E-03 0.  1.
         12    1    4    4    0    0  0.39178236419E+01 -0.27003747374E+01  0.36408061712E+01  0.59913967811E+01  0.00000000000E+00 0. -1.
</event>
<event>
 8    1  0.2458065E-006  0.9118800E+02  0.7816164E-02  0.1184000E+00
        -11   -1    0    0    0    0  0.00000000000E+00  0.00000000000E+00  0.45593999997E+02  0.45594000000E+02  0.51100000000E-03 0. -1.
         11   -1    0    0    0    0 -0.00000000000E+00 -0.00000000000E+00 -0.45593999997E+02  0.45594000000E+02  0.51100000000E-03 0.  1.
         23    2    1    2    0    0  0.00000000000E+00  0.00000000000E+00  0.17763568394E-14  0.91188000000E+02  0.91188000000E+02 0.  0.
    9900012    2    3    3    0    0  0.19652897835E+02 -0.28257897199E+02 -0.13077942746E+02  0.54367112804E+02  0.40000065260E+02 0.  0.
         12    1    3    3    0    0 -0.19652897835E+02  0.28257897199E+02  0.13077942746E+02  0.36820887196E+02  0.00000000000E+00 0. -1.
         11    1    4    4    0    0  0.22195428382E+02 -0.76523766433E+01  0.19318788981E+01  0.23556911208E+02  0.51100000000E-03 0. -1.
        -11    1    4    4    0    0  0.60476705313E+01 -0.21872396400E+01 -0.22485130536E+01  0.68127929156E+01  0.51100000000E-03 0.  1.
         12    1    4    4    0    0 -0.85902010778E+01 -0.18418280915E+02 -0.12761308590E+02  0.23997408680E+02  0.00000000000E+00 0. -1.
</event>
<event>
 8    1  0.2458065E-006  0.9118800E+02  0.7816164E-02  0.1184000E+00
        -11   -1    0    0    0    0  0.00000000000E+00  0.00000000000E+00  0.45593999997E+02  0.45594000000E+02  0.51100000000E-03 0.  1.
         11   -1    0    0    0    0 -0.00000000000E+00 -0.00000000000E+00 -0.45593999997E+02  0.45594000000E+02  0.51100000000E-03 0. -1.
         23    2    1    2    0    0  0.00000000000E+00  0.88817841970E-15  0.00000000000E+00  0.91188000000E+02  0.91188000000E+02 0.  0.
    9900012    2    3    3    0    0 -0.34271446630E+02  0.72191098409E+01  0.11363615947E+02  0.54367090608E+02  0.40000014660E+02 0.  0.
         12    1    3    3    0    0  0.34271446630E+02 -0.72191098409E+01 -0.11363615947E+02  0.36820909392E+02  0.00000000000E+00 0. -1.
         11    1    4    4    0    0  0.33658349771E+01  0.11309786557E+02  0.14426188319E+01  0.11887862146E+02  0.51100000000E-03 0. -1.
        -11    1    4    4    0    0 -0.80445910396E+01 -0.46997654089E+01 -0.35353723777E+01  0.99650438033E+01  0.51100000000E-03 0.  1.
         12    1    4    4    0    0 -0.29592690568E+02  0.60908869274E+00  0.13456369493E+02  0.32514184659E+02  0.00000000000E+00 0. -1.
</event>
<event>
 8    1  0.2458065E-006  0.9118800E+02  0.7816164E-02  0.1184000E+00
        -11   -1    0    0    0    0  0.00000000000E+00  0.00000000000E+00  0.45593999997E+02  0.45594000000E+02  0.51100000000E-03 0.  1.
         11   -1    0    0    0    0 -0.00000000000E+00 -0.00000000000E+00 -0.45593999997E+02  0.45594000000E+02  0.51100000000E-03 0. -1.
         23    2    1    2    0    0  0.22204460493E-14  0.00000000000E+00  0.00000000000E+00  0.91188000000E+02  0.91188000000E+02 0.  0.
    9900012    2    3    3    0    0 -0.21947669909E+01  0.18081349455E+02  0.32000433046E+02  0.54367083181E+02  0.39999997727E+02 0.  0.
         12    1    3    3    0    0  0.21947669909E+01 -0.18081349455E+02 -0.32000433046E+02  0.36820916819E+02  0.00000000000E+00 0. -1.
         11    1    4    4    0    0  0.12017452265E+02  0.22154270524E+01  0.16928197161E+02  0.20878006019E+02  0.51100000000E-03 0. -1.
        -11    1    4    4    0    0 -0.17781749204E+02  0.18046447840E+02  0.10897431101E+02  0.27579319957E+02  0.51100000000E-03 0.  1.
        -12    1    4    4    0    0  0.35695299480E+01 -0.21805254372E+01  0.41748047842E+01  0.59097572047E+01  0.00000000000E+00 0.  1.
</event>
<event>
 8    1  0.2458065E-006  0.9118800E+02  0.7816164E-02  0.1184000E+00
        -11   -1    0    0    0    0  0.00000000000E+00  0.00000000000E+00  0.45593999997E+02  0.45594000000E+02  0.51100000000E-03 0. -1.
         11   -1    0    0    0    0 -0.00000000000E+00 -0.00000000000E+00 -0.45593999997E+02  0.45594000000E+02  0.51100000000E-03 0.  1.
         23    2    1    2    0    0  0.19984014443E-14  0.00000000000E+00  0.00000000000E+00  0.91188000000E+02  0.91188000000E+02 0.  0.
    9900012    2    3    3    0    0 -0.84566034330E+00 -0.19522004776E+02  0.31208267708E+02  0.54367084948E+02  0.40000001757E+02 0.  0.
        -12    1    3    3    0    0  0.84566034330E+00  0.19522004776E+02 -0.31208267708E+02  0.36820915052E+02  0.00000000000E+00 0.  1.
         11    1    4    4    0    0 -0.13178746425E+01 -0.37085326380E+00  0.60567779344E+01  0.62095800925E+01  0.51100000000E-03 0. -1.
        -11    1    4    4    0    0 -0.16134548628E+02 -0.16778809263E+02  0.92657788616E+01  0.25054076672E+02  0.51100000000E-03 0.  1.
        -12    1    4    4    0    0  0.16606762927E+02 -0.23723422499E+01  0.15885710912E+02  0.23103428184E+02  0.00000000000E+00 0.  1.
</event>
<event>
 8    1  0.2458065E-006  0.9118800E+02  0.7816164E-02  0.1184000E+00
        -11   -1    0    0    0    0  0.00000000000E+00  0.00000000000E+00  0.45593999997E+02  0.45594000000E+02  0.51100000000E-03 0.  1.
         11   -1    0    0    0    0 -0.00000000000E+00 -0.00000000000E+00 -0.45593999997E+02  0.45594000000E+02  0.51100000000E-03 0. -1.
         23    2    1    2    0    0  0.11102230246E-15 -0.10658141036E-13 -0.35527136788E-14  0.91188000000E+02  0.91188000000E+02 0.  0.
    9900012    2    3    3    0    0  0.78835677141E+00  0.31454270833E+02  0.19125547559E+02  0.54367092495E+02  0.40000018962E+02 0.  0.
         12    1    3    3    0    0 -0.78835677141E+00 -0.31454270833E+02 -0.19125547559E+02  0.36820907505E+02  0.00000000000E+00 0. -1.
         11    1    4    4    0    0  0.52332420837E+00 -0.65670845179E+01 -0.39015218461E+01  0.76565227270E+01  0.51100000000E-03 0. -1.
        -11    1    4    4    0    0  0.45428175981E+01  0.15202050112E+02  0.32134356259E+01  0.16188443042E+02  0.51100000000E-03 0.  1.
         12    1    4    4    0    0 -0.42777850350E+01  0.22819305239E+02  0.19813633779E+02  0.30522126727E+02  0.00000000000E+00 0. -1.
</event>
<event>
 8    1  0.2458065E-006  0.9118800E+02  0.7816164E-02  0.1184000E+00
        -11   -1    0    0    0    0  0.00000000000E+00  0.00000000000E+00  0.45593999997E+02  0.45594000000E+02  0.51100000000E-03 0.  1.
         11   -1    0    0    0    0 -0.00000000000E+00 -0.00000000000E+00 -0.45593999997E+02  0.45594000000E+02  0.51100000000E-03 0. -1.
         23    2    1    2    0    0  0.35527136788E-14  0.00000000000E+00 -0.35527136788E-14  0.91188000000E+02  0.91188000000E+02 0.  0.
    9900012    2    3    3    0    0 -0.24380521970E+02  0.10997527140E+02  0.25306598410E+02  0.54367090481E+02  0.40000014369E+02 0.  0.
         12    1    3    3    0    0  0.24380521970E+02 -0.10997527140E+02 -0.25306598410E+02  0.36820909519E+02  0.00000000000E+00 0. -1.
         11    1    4    4    0    0 -0.22581243232E+01  0.17488105676E+02  0.32833100155E+01  0.17936362243E+02  0.51100000000E-03 0. -1.
        -11    1    4    4    0    0 -0.18648994089E+02  0.21874867362E+01  0.10231528624E+02  0.21383504320E+02  0.51100000000E-03 0.  1.
        -12    1    4    4    0    0 -0.34734035578E+01 -0.86780652719E+01  0.11791759770E+02  0.15047223917E+02  0.00000000000E+00 0.  1.
</event>
<event>
 8    1  0.2458065E-006  0.9118800E+02  0.7816164E-02  0.1184000E+00
        -11   -1    0    0    0    0  0.00000000000E+00  0.00000000000E+00  0.45593999997E+02  0.45594000000E+02  0.51100000000E-03 0.  1.
         11   -1    0    0    0    0 -0.00000000000E+00 -0.00000000000E+00 -0.45593999997E+02  0.45594000000E+02  0.51100000000E-03 0. -1.
         23    2    1    2    0    0 -0.35527136788E-14  0.00000000000E+00  0.88817841970E-15  0.91188000000E+02  0.91188000000E+02 0.  0.
    9900012    2    3    3    0    0  0.26800529614E+02 -0.24485056189E+02 -0.61639243582E+01  0.54367077583E+02  0.39999984965E+02 0.  0.
        -12    1    3    3    0    0 -0.26800529614E+02  0.24485056189E+02  0.61639243582E+01  0.36820922417E+02  0.00000000000E+00 0.  1.
         11    1    4    4    0    0  0.17066027120E+02  0.28331094751E+01 -0.13466152895E+02  0.21922889066E+02  0.51100000000E-03 0. -1.
        -11    1    4    4    0    0  0.72006310896E+01 -0.14546036324E+02 -0.21242907993E+01  0.16369143915E+02  0.51100000000E-03 0.  1.
        -12    1    4    4    0    0  0.25338714046E+01 -0.12772129339E+02  0.94265193359E+01  0.16075044602E+02  0.00000000000E+00 0.  1.
</event>
<event>
 8    1  0.2458065E-006  0.9118800E+02  0.7816164E-02  0.1184000E+00
        -11   -1    0    0    0    0  0.00000000000E+00  0.00000000000E+00  0.45593999997E+02  0.45594000000E+02  0.51100000000E-03 0.  1.
         11   -1    0    0    0    0 -0.00000000000E+00 -0.00000000000E+00 -0.45593999997E+02  0.45594000000E+02  0.51100000000E-03 0. -1.
         23    2    1    2    0    0  0.00000000000E+00  0.35527136788E-14  0.00000000000E+00  0.91188000000E+02  0.91188000000E+02 0.  0.
    9900012    2    3    3    0    0 -0.10817513355E+02  0.30755227416E+02  0.17113655866E+02  0.54367084399E+02  0.40000000505E+02 0.  0.
         12    1    3    3    0    0  0.10817513355E+02 -0.30755227416E+02 -0.17113655866E+02  0.36820915601E+02  0.00000000000E+00 0. -1.
         11    1    4    4    0    0 -0.10097667195E+02 -0.38758384405E+01  0.51948795034E+01  0.11998824098E+02  0.51100000000E-03 0. -1.
        -11    1    4    4    0    0 -0.64818903200E+01  0.28686593823E+02  0.15619259973E+02  0.33300102847E+02  0.51100000000E-03 0.  1.
         12    1    4    4    0    0  0.57620441609E+01  0.59444720340E+01 -0.37004836102E+01  0.90681574547E+01  0.00000000000E+00 0. -1.
</event>
<event>
 8    1  0.2458065E-006  0.9118800E+02  0.7816164E-02  0.1184000E+00
        -11   -1    0    0    0    0  0.00000000000E+00  0.00000000000E+00  0.45593999997E+02  0.45594000000E+02  0.51100000000E-03 0. -1.
         11   -1    0    0    0    0 -0.00000000000E+00 -0.00000000000E+00 -0.45593999997E+02  0.45594000000E+02  0.51100000000E-03 0.  1.
         23    2    1    2    0    0  0.27755575616E-15  0.00000000000E+00  0.17763568394E-14  0.91188000000E+02  0.91188000000E+02 0.  0.
    9900012    2    3    3    0    0 -0.37308271864E+00 -0.33337765395E+02 -0.15628021277E+02  0.54367070608E+02  0.39999969065E+02 0.  0.
         12    1    3    3    0    0  0.37308271864E+00  0.33337765395E+02  0.15628021277E+02  0.36820929392E+02  0.00000000000E+00 0. -1.
         11    1    4    4    0    0  0.24145038063E+01 -0.33771132043E+02 -0.66050819937E+01  0.34495598219E+02  0.51100000000E-03 0. -1.
        -11    1    4    4    0    0 -0.98968377117E+01 -0.20979479000E+01 -0.44910335338E+01  0.11068792371E+02  0.51100000000E-03 0.  1.
         12    1    4    4    0    0  0.71092511868E+01  0.25313145477E+01 -0.45319057496E+01  0.88026800180E+01  0.00000000000E+00 0. -1.
</event>
<event>
 8    1  0.2458065E-006  0.9118800E+02  0.7816164E-02  0.1184000E+00
        -11   -1    0    0    0    0  0.00000000000E+00  0.00000000000E+00  0.45593999997E+02  0.45594000000E+02  0.51100000000E-03 0.  1.
         11   -1    0    0    0    0 -0.00000000000E+00 -0.00000000000E+00 -0.45593999997E+02  0.45594000000E+02  0.51100000000E-03 0. -1.
         23    2    1    2    0    0  0.88817841970E-15  0.00000000000E+00  0.10963452368E-14  0.91188000000E+02  0.91188000000E+02 0.  0.
    9900012    2    3    3    0    0 -0.43908585117E+01  0.36558097771E+02 -0.84551895193E-01  0.54367064378E+02  0.39999954862E+02 0.  0.
        -12    1    3    3    0    0  0.43908585117E+01 -0.36558097771E+02  0.84551895193E-01  0.36820935622E+02  0.00000000000E+00 0.  1.
         11    1    4    4    0    0 -0.11289691919E+01  0.15824361449E+02 -0.11297440605E+01  0.15904757421E+02  0.51100000000E-03 0. -1.
        -11    1    4    4    0    0 -0.39954321940E+01  0.19497321705E+02  0.14693308923E+02  0.24738681442E+02  0.51100000000E-03 0.  1.
         12    1    4    4    0    0  0.73354287419E+00  0.12364146164E+01 -0.13648116758E+02  0.13723625516E+02  0.00000000000E+00 0. -1.
</event>
<event>
 8    1  0.2458065E-006  0.9118800E+02  0.7816164E-02  0.1184000E+00
        -11   -1    0    0    0    0  0.00000000000E+00  0.00000000000E+00  0.45593999997E+02  0.45594000000E+02  0.51100000000E-03 0.  1.
         11   -1    0    0    0    0 -0.00000000000E+00 -0.00000000000E+00 -0.45593999997E+02  0.45594000000E+02  0.51100000000E-03 0. -1.
         23    2    1    2    0    0  0.24424906542E-14  0.71054273576E-14  0.00000000000E+00  0.91188000000E+02  0.91188000000E+02 0.  0.
    9900012    2    3    3    0    0  0.72094360101E+00  0.31877178004E+02  0.18414672431E+02  0.54367158104E+02  0.40000168530E+02 0.  0.
         12    1    3    3    0    0 -0.72094360101E+00 -0.31877178004E+02 -0.18414672431E+02  0.36820841896E+02  0.00000000000E+00 0. -1.
         11    1    4    4    0    0 -0.15353197974E+01  0.46024800936E+00 -0.13361858339E+01  0.20867266123E+01  0.51100000000E-03 0. -1.
        -11    1    4    4    0    0  0.17564618201E+02  0.74474374545E+01  0.31133178589E+01  0.19330620413E+02  0.51100000000E-03 0.  1.
        -12    1    4    4    0    0 -0.15308354803E+02  0.23969492540E+02  0.16637540406E+02  0.32949811079E+02  0.00000000000E+00 0.  1.
</event>
<event>
 8    1  0.2458065E-006  0.9118800E+02  0.7816164E-02  0.1184000E+00
        -11   -1    0    0    0    0  0.00000000000E+00  0.00000000000E+00  0.45593999997E+02  0.45594000000E+02  0.51100000000E-03 0.  1.
         11   -1    0    0    0    0 -0.00000000000E+00 -0.00000000000E+00 -0.45593999997E+02  0.45594000000E+02  0.51100000000E-03 0. -1.
         23    2    1    2    0    0  0.00000000000E+00  0.88817841970E-15  0.00000000000E+00  0.91188000000E+02  0.91188000000E+02 0.  0.
    9900012    2    3    3    0    0 -0.85930846838E+01 -0.39703046220E+01 -0.35583412238E+02  0.54367032473E+02  0.39999882128E+02 0.  0.
        -12    1    3    3    0    0  0.85930846838E+01  0.39703046220E+01  0.35583412238E+02  0.36820967527E+02  0.00000000000E+00 0.  1.
         11    1    4    4    0    0  0.87277389112E+01 -0.58775433622E+01 -0.10889607879E+02  0.15142737615E+02  0.51100000000E-03 0. -1.
        -11    1    4    4    0    0 -0.24044981280E+00 -0.97091765506E+01 -0.94624478248E+01  0.13559640279E+02  0.51100000000E-03 0.  1.
        -12    1    4    4    0    0 -0.17080373782E+02  0.11616415291E+02 -0.15231356534E+02  0.25664654578E+02  0.00000000000E+00 0.  1.
</event>
<event>
 8    1  0.2458065E-006  0.9118800E+02  0.7816164E-02  0.1184000E+00
        -11   -1    0    0    0    0  0.00000000000E+00  0.00000000000E+00  0.45593999997E+02  0.45594000000E+02  0.51100000000E-03 0.  1.
         11   -1    0    0    0    0 -0.00000000000E+00 -0.00000000000E+00 -0.45593999997E+02  0.45594000000E+02  0.51100000000E-03 0. -1.
         23    2    1    2    0    0  0.00000000000E+00  0.00000000000E+00  0.00000000000E+00  0.91188000000E+02  0.91188000000E+02 0.  0.
    9900012    2    3    3    0    0 -0.19586855953E+02  0.28818431417E+02  0.11900962352E+02  0.54367084472E+02  0.40000000670E+02 0.  0.
         12    1    3    3    0    0  0.19586855953E+02 -0.28818431417E+02 -0.11900962352E+02  0.36820915528E+02  0.00000000000E+00 0. -1.
         11    1    4    4    0    0 -0.19434571651E+02  0.54201363353E+01  0.25504661194E+01  0.20336797458E+02  0.51100000000E-03 0. -1.
        -11    1    4    4    0    0  0.10709565464E+02  0.13756116907E+02  0.87194534410E+01  0.19492419382E+02  0.51100000000E-03 0.  1.
        -12    1    4    4    0    0 -0.10861849765E+02  0.96421781741E+01  0.63104279205E+00  0.14537867632E+02  0.00000000000E+00 0.  1.
</event>
<event>
 8    1  0.2458065E-006  0.9118800E+02  0.7816164E-02  0.1184000E+00
        -11   -1    0    0    0    0  0.00000000000E+00  0.00000000000E+00  0.45593999997E+02  0.45594000000E+02  0.51100000000E-03 0.  1.
         11   -1    0    0    0    0 -0.00000000000E+00 -0.00000000000E+00 -0.45593999997E+02  0.45594000000E+02  0.51100000000E-03 0. -1.
         23    2    1    2    0    0  0.55511151231E-15 -0.22204460493E-14 -0.71054273576E-14  0.91188000000E+02  0.91188000000E+02 0.  0.
    9900012    2    3    3    0    0 -0.63836455764E+00  0.29587056258E+01 -0.36696298700E+02  0.54367084931E+02  0.40000001717E+02 0.  0.
        -12    1    3    3    0    0  0.63836455764E+00 -0.29587056258E+01  0.36696298700E+02  0.36820915069E+02  0.00000000000E+00 0.  1.
         11    1    4    4    0    0  0.10746158178E+02 -0.83901215481E+01 -0.34061454757E+02  0.36688646140E+02  0.51100000000E-03 0. -1.
        -11    1    4    4    0    0 -0.49414444934E+01  0.18902477181E+01  0.15173454650E+01  0.55039301993E+01  0.51100000000E-03 0.  1.
         12    1    4    4    0    0 -0.64430782425E+01  0.94585794557E+01 -0.41521894073E+01  0.12174508591E+02  0.00000000000E+00 0. -1.
</event>
<event>
 8    1  0.2458065E-006  0.9118800E+02  0.7816164E-02  0.1184000E+00
        -11   -1    0    0    0    0  0.00000000000E+00  0.00000000000E+00  0.45593999997E+02  0.45594000000E+02  0.51100000000E-03 0. -1.
         11   -1    0    0    0    0 -0.00000000000E+00 -0.00000000000E+00 -0.45593999997E+02  0.45594000000E+02  0.51100000000E-03 0.  1.
         23    2    1    2    0    0  0.00000000000E+00  0.00000000000E+00  0.00000000000E+00  0.91188000000E+02  0.91188000000E+02 0.  0.
    9900012    2    3    3    0    0 -0.15672291307E+02 -0.27954057394E+02 -0.18130907761E+02  0.54367083990E+02  0.39999999571E+02 0.  0.
        -12    1    3    3    0    0  0.15672291307E+02  0.27954057394E+02  0.18130907761E+02  0.36820916010E+02  0.00000000000E+00 0.  1.
         11    1    4    4    0    0 -0.87637535638E+01 -0.13935355265E+01 -0.75546031349E+01  0.11654069958E+02  0.51100000000E-03 0. -1.
        -11    1    4    4    0    0 -0.10955534205E+02 -0.35178080278E+01 -0.14998027187E+02  0.18903426218E+02  0.51100000000E-03 0.  1.
         12    1    4    4    0    0  0.40469964617E+01 -0.23042713840E+02  0.44217225604E+01  0.23809587814E+02  0.00000000000E+00 0. -1.
</event>
<event>
 8    1  0.2458065E-006  0.9118800E+02  0.7816164E-02  0.1184000E+00
        -11   -1    0    0    0    0  0.00000000000E+00  0.00000000000E+00  0.45593999997E+02  0.45594000000E+02  0.51100000000E-03 0. -1.
         11   -1    0    0    0    0 -0.00000000000E+00 -0.00000000000E+00 -0.45593999997E+02  0.45594000000E+02  0.51100000000E-03 0.  1.
         23    2    1    2    0    0  0.88817841970E-15 -0.71054273576E-14  0.00000000000E+00  0.91188000000E+02  0.91188000000E+02 0.  0.
    9900012    2    3    3    0    0  0.22781336781E+01 -0.35980619326E+02 -0.74823349235E+01  0.54367079370E+02  0.39999989041E+02 0.  0.
         12    1    3    3    0    0 -0.22781336781E+01  0.35980619326E+02  0.74823349235E+01  0.36820920630E+02  0.00000000000E+00 0. -1.
         11    1    4    4    0    0 -0.29790185910E+01  0.58792944589E+01  0.18761804523E+01  0.68527883705E+01  0.51100000000E-03 0. -1.
        -11    1    4    4    0    0  0.93227324217E-01 -0.40852996253E+02 -0.60483503001E+01  0.41298408393E+02  0.51100000000E-03 0.  1.
         12    1    4    4    0    0  0.51639249449E+01 -0.10069175312E+01 -0.33101650756E+01  0.62158826066E+01  0.00000000000E+00 0. -1.
</event>
<event>
 8    1  0.2458065E-006  0.9118800E+02  0.7816164E-02  0.1184000E+00
        -11   -1    0    0    0    0  0.00000000000E+00  0.00000000000E+00  0.45593999997E+02  0.45594000000E+02  0.51100000000E-03 0.  1.
         11   -1    0    0    0    0 -0.00000000000E+00 -0.00000000000E+00 -0.45593999997E+02  0.45594000000E+02  0.51100000000E-03 0. -1.
         23    2    1    2    0    0  0.35527136788E-14  0.00000000000E+00 -0.35527136788E-14  0.91188000000E+02  0.91188000000E+02 0.  0.
    9900012    2    3    3    0    0  0.21841957888E+02 -0.24408919623E+02 -0.16820026560E+02  0.54367085087E+02  0.40000002073E+02 0.  0.
        -12    1    3    3    0    0 -0.21841957888E+02  0.24408919623E+02  0.16820026560E+02  0.36820914913E+02  0.00000000000E+00 0.  1.
         11    1    4    4    0    0 -0.45731572054E+01 -0.17449529348E+02 -0.73828282089E+01  0.19491177335E+02  0.51100000000E-03 0. -1.
        -11    1    4    4    0    0  0.28855137739E+02 -0.91665609515E+01 -0.87435221645E+01  0.31513393878E+02  0.51100000000E-03 0.  1.
        -12    1    4    4    0    0 -0.24400226452E+01  0.22071706759E+01 -0.69367618640E+00  0.33625138740E+01  0.00000000000E+00 0.  1.
</event>
<event>
 8    1  0.2458065E-006  0.9118800E+02  0.7816164E-02  0.1184000E+00
        -11   -1    0    0    0    0  0.00000000000E+00  0.00000000000E+00  0.45593999997E+02  0.45594000000E+02  0.51100000000E-03 0. -1.
         11   -1    0    0    0    0 -0.00000000000E+00 -0.00000000000E+00 -0.45593999997E+02  0.45594000000E+02  0.51100000000E-03 0.  1.
         23    2    1    2    0    0 -0.17763568394E-14  0.88817841970E-15  0.00000000000E+00  0.91188000000E+02  0.91188000000E+02 0.  0.
    9900012    2    3    3    0    0 -0.13206999194E+02  0.65635919026E+01  0.33738338760E+02  0.54367067521E+02  0.39999962027E+02 0.  0.
        -12    1    3    3    0    0  0.13206999194E+02 -0.65635919026E+01 -0.33738338760E+02  0.36820932479E+02  0.00000000000E+00 0.  1.
         11    1    4    4    0    0 -0.12976943783E+02  0.76742915811E+01  0.13139470352E+02  0.19998537512E+02  0.51100000000E-03 0. -1.
        -11    1    4    4    0    0 -0.54843427857E+01 -0.33247461140E+01 -0.50064178927E+01  0.81361030531E+01  0.51100000000E-03 0.  1.
        -12    1    4    4    0    0  0.52542873750E+01  0.22140464355E+01  0.25605286301E+02  0.26232426956E+02  0.00000000000E+00 0.  1.
</event>
<event>
 8    1  0.2458065E-006  0.9118800E+02  0.7816164E-02  0.1184000E+00
        -11   -1    0    0    0    0  0.00000000000E+00  0.00000000000E+00  0.45593999997E+02  0.45594000000E+02  0.51100000000E-03 0.  1.
         11   -1    0    0    0    0 -0.00000000000E+00 -0.00000000000E+00 -0.45593999997E+02  0.45594000000E+02  0.51100000000E-03 0. -1.
         23    2    1    2    0    0 -0.35527136788E-14 -0.35527136788E-14  0.00000000000E+00  0.91188000000E+02  0.91188000000E+02 0.  0.
    9900012    2    3    3    0    0 -0.18188462834E+02 -0.19803238754E+02 -0.25155347307E+02  0.54367082799E+02  0.39999996857E+02 0.  0.
        -12    1    3    3    0    0  0.18188462834E+02  0.19803238754E+02  0.25155347307E+02  0.36820917201E+02  0.00000000000E+00 0.  1.
         11    1    4    4    0    0  0.23931434750E+01 -0.94259515574E+01 -0.44648626125E+01  0.10700967099E+02  0.51100000000E-03 0. -1.
        -11    1    4    4    0    0 -0.20985402908E+02  0.41671864687E+01 -0.19698343701E+02  0.29082250998E+02  0.51100000000E-03 0.  1.
        -12    1    4    4    0    0  0.40379659864E+00 -0.14544473665E+02 -0.99214099288E+00  0.14583864702E+02  0.00000000000E+00 0.  1.
</event>
<event>
 8    1  0.2458065E-006  0.9118800E+02  0.7816164E-02  0.1184000E+00
        -11   -1    0    0    0    0  0.00000000000E+00  0.00000000000E+00  0.45593999997E+02  0.45594000000E+02  0.51100000000E-03 0. -1.
         11   -1    0    0    0    0 -0.00000000000E+00 -0.00000000000E+00 -0.45593999997E+02  0.45594000000E+02  0.51100000000E-03 0.  1.
         23    2    1    2    0    0 -0.44408920985E-15  0.00000000000E+00  0.35527136788E-14  0.91188000000E+02  0.91188000000E+02 0.  0.
    9900012    2    3    3    0    0  0.37250637318E+01 -0.20212807397E+02 -0.30550707410E+02  0.54367090099E+02  0.40000013499E+02 0.  0.
         12    1    3    3    0    0 -0.37250637318E+01  0.20212807397E+02  0.30550707410E+02  0.36820909901E+02  0.00000000000E+00 0. -1.
         11    1    4    4    0    0  0.37410342208E+00  0.19148444587E+01 -0.23326470856E+02  0.23407922282E+02  0.51100000000E-03 0. -1.
        -11    1    4    4    0    0  0.74437605504E+01 -0.31679152022E+00  0.48604929291E+00  0.74663359270E+01  0.51100000000E-03 0.  1.
        -12    1    4    4    0    0 -0.40928002407E+01 -0.21810860336E+02 -0.77102858462E+01  0.23492831890E+02  0.00000000000E+00 0.  1.
</event>
<event>
 8    1  0.2458065E-006  0.9118800E+02  0.7816164E-02  0.1184000E+00
        -11   -1    0    0    0    0  0.00000000000E+00  0.00000000000E+00  0.45593999997E+02  0.45594000000E+02  0.51100000000E-03 0. -1.
         11   -1    0    0    0    0 -0.00000000000E+00 -0.00000000000E+00 -0.45593999997E+02  0.45594000000E+02  0.51100000000E-03 0.  1.
         23    2    1    2    0    0  0.00000000000E+00  0.00000000000E+00 -0.17763568394E-14  0.91188000000E+02  0.91188000000E+02 0.  0.
    9900012    2    3    3    0    0 -0.22900603346E+02 -0.27282950936E+02 -0.93264615161E+01  0.54367082986E+02  0.39999997282E+02 0.  0.
        -12    1    3    3    0    0  0.22900603346E+02  0.27282950936E+02  0.93264615161E+01  0.36820917014E+02  0.00000000000E+00 0.  1.
         11    1    4    4    0    0 -0.19749651033E+02 -0.16532995192E+02 -0.93488004334E+01  0.27400524005E+02  0.51100000000E-03 0. -1.
        -11    1    4    4    0    0 -0.11558653426E+02 -0.32695199486E+01  0.68258727022E+01  0.13816105389E+02  0.51100000000E-03 0.  1.
        -12    1    4    4    0    0  0.84077011133E+01 -0.74804357952E+01 -0.68035337849E+01  0.13150453591E+02  0.00000000000E+00 0.  1.
</event>
<event>
 8    1  0.2458065E-006  0.9118800E+02  0.7816164E-02  0.1184000E+00
        -11   -1    0    0    0    0  0.00000000000E+00  0.00000000000E+00  0.45593999997E+02  0.45594000000E+02  0.51100000000E-03 0.  1.
         11   -1    0    0    0    0 -0.00000000000E+00 -0.00000000000E+00 -0.45593999997E+02  0.45594000000E+02  0.51100000000E-03 0. -1.
         23    2    1    2    0    0  0.88817841970E-15  0.00000000000E+00  0.00000000000E+00  0.91188000000E+02  0.91188000000E+02 0.  0.
    9900012    2    3    3    0    0  0.71805380799E+01  0.10974826573E+02  0.34405953309E+02  0.54367128629E+02  0.40000101335E+02 0.  0.
         12    1    3    3    0    0 -0.71805380799E+01 -0.10974826573E+02 -0.34405953309E+02  0.36820871371E+02  0.00000000000E+00 0. -1.
         11    1    4    4    0    0  0.10713762612E+02  0.80071800051E+01 -0.26305850926E+01  0.13631567009E+02  0.51100000000E-03 0. -1.
        -11    1    4    4    0    0 -0.64421345741E+01 -0.47299234501E+00  0.44616190739E+01  0.78505327623E+01  0.51100000000E-03 0.  1.
        -12    1    4    4    0    0  0.29089100423E+01  0.34406389128E+01  0.32574919328E+02  0.32885028858E+02  0.00000000000E+00 0.  1.
</event>
<event>
 8    1  0.2458065E-006  0.9118800E+02  0.7816164E-02  0.1184000E+00
        -11   -1    0    0    0    0  0.00000000000E+00  0.00000000000E+00  0.45593999997E+02  0.45594000000E+02  0.51100000000E-03 0.  1.
         11   -1    0    0    0    0 -0.00000000000E+00 -0.00000000000E+00 -0.45593999997E+02  0.45594000000E+02  0.51100000000E-03 0. -1.
         23    2    1    2    0    0  0.00000000000E+00  0.00000000000E+00  0.35527136788E-14  0.91188000000E+02  0.91188000000E+02 0.  0.
    9900012    2    3    3    0    0  0.43935855566E+01  0.24139975370E+02  0.27454313711E+02  0.54367063751E+02  0.39999953433E+02 0.  0.
         12    1    3    3    0    0 -0.43935855566E+01 -0.24139975370E+02 -0.27454313711E+02  0.36820936249E+02  0.00000000000E+00 0. -1.
         11    1    4    4    0    0  0.38824459839E+01  0.11268003514E+02  0.42652798504E+01  0.12658353071E+02  0.51100000000E-03 0. -1.
        -11    1    4    4    0    0 -0.11011502200E+02  0.64161298838E+00  0.22303608286E+02  0.24882037512E+02  0.51100000000E-03 0.  1.
        -12    1    4    4    0    0  0.11522641772E+02  0.12230358868E+02  0.88542557512E+00  0.16826673168E+02  0.00000000000E+00 0.  1.
</event>
<event>
 8    1  0.2458065E-006  0.9118800E+02  0.7816164E-02  0.1184000E+00
        -11   -1    0    0    0    0  0.00000000000E+00  0.00000000000E+00  0.45593999997E+02  0.45594000000E+02  0.51100000000E-03 0.  1.
         11   -1    0    0    0    0 -0.00000000000E+00 -0.00000000000E+00 -0.45593999997E+02  0.45594000000E+02  0.51100000000E-03 0. -1.
         23    2    1    2    0    0  0.00000000000E+00  0.17763568394E-14  0.00000000000E+00  0.91188000000E+02  0.91188000000E+02 0.  0.
    9900012    2    3    3    0    0 -0.35267230850E+02 -0.29039557242E+01  0.10176985072E+02  0.54367060905E+02  0.39999946946E+02 0.  0.
        -12    1    3    3    0    0  0.35267230850E+02  0.29039557242E+01 -0.10176985072E+02  0.36820939095E+02  0.00000000000E+00 0.  1.
         11    1    4    4    0    0 -0.31553168978E+02  0.11566186668E+02 -0.17302828073E+01  0.33650750741E+02  0.51100000000E-03 0. -1.
        -11    1    4    4    0    0 -0.45026941852E+01 -0.40914190228E+01  0.67928090109E+01  0.91190031838E+01  0.51100000000E-03 0.  1.
         12    1    4    4    0    0  0.78863231277E+00 -0.10378723369E+02  0.51144588679E+01  0.11597306981E+02  0.00000000000E+00 0. -1.
</event>
<event>
 8    1  0.2458065E-006  0.9118800E+02  0.7816164E-02  0.1184000E+00
        -11   -1    0    0    0    0  0.00000000000E+00  0.00000000000E+00  0.45593999997E+02  0.45594000000E+02  0.51100000000E-03 0.  1.
         11   -1    0    0    0    0 -0.00000000000E+00 -0.00000000000E+00 -0.45593999997E+02  0.45594000000E+02  0.51100000000E-03 0. -1.
         23    2    1    2    0    0  0.00000000000E+00  0.00000000000E+00  0.88817841970E-15  0.91188000000E+02  0.91188000000E+02 0.  0.
    9900012    2    3    3    0    0 -0.24754790295E+02 -0.26175101247E+02  0.76055697163E+01  0.54367078521E+02  0.39999987105E+02 0.  0.
         12    1    3    3    0    0  0.24754790295E+02  0.26175101247E+02 -0.76055697163E+01  0.36820921479E+02  0.00000000000E+00 0. -1.
         11    1    4    4    0    0 -0.11516901268E+02 -0.64818840749E+00 -0.38505443542E+01  0.12160832830E+02  0.51100000000E-03 0. -1.
        -11    1    4    4    0    0 -0.10224767610E+02  0.23269890722E+01 -0.26832573155E+01  0.10824075983E+02  0.51100000000E-03 0.  1.
        -12    1    4    4    0    0 -0.30131214170E+01 -0.27853901912E+02  0.14139371386E+02  0.31382169708E+02  0.00000000000E+00 0.  1.
</event>
<event>
 8    1  0.2458065E-006  0.9118800E+02  0.7816164E-02  0.1184000E+00
        -11   -1    0    0    0    0  0.00000000000E+00  0.00000000000E+00  0.45593999997E+02  0.45594000000E+02  0.51100000000E-03 0.  1.
         11   -1    0    0    0    0 -0.00000000000E+00 -0.00000000000E+00 -0.45593999997E+02  0.45594000000E+02  0.51100000000E-03 0. -1.
         23    2    1    2    0    0  0.00000000000E+00  0.00000000000E+00  0.00000000000E+00  0.91188000000E+02  0.91188000000E+02 0.  0.
    9900012    2    3    3    0    0  0.28432184282E+02 -0.22875912231E+02  0.49074699978E+01  0.54367085763E+02  0.40000003615E+02 0.  0.
         12    1    3    3    0    0 -0.28432184282E+02  0.22875912231E+02 -0.49074699978E+01  0.36820914237E+02  0.00000000000E+00 0. -1.
         11    1    4    4    0    0 -0.28988396290E+01  0.15657422490E+01 -0.35143398730E+01  0.48171988737E+01  0.51100000000E-03 0. -1.
        -11    1    4    4    0    0  0.35658813339E+02 -0.17753503850E+02  0.30682306741E+01  0.39951869886E+02  0.51100000000E-03 0.  1.
        -12    1    4    4    0    0 -0.43277894279E+01 -0.66881506302E+01  0.53535791966E+01  0.95980170035E+01  0.00000000000E+00 0.  1.
</event>
<event>
 8    1  0.2458065E-006  0.9118800E+02  0.7816164E-02  0.1184000E+00
        -11   -1    0    0    0    0  0.00000000000E+00  0.00000000000E+00  0.45593999997E+02  0.45594000000E+02  0.51100000000E-03 0. -1.
         11   -1    0    0    0    0 -0.00000000000E+00 -0.00000000000E+00 -0.45593999997E+02  0.45594000000E+02  0.51100000000E-03 0.  1.
         23    2    1    2    0    0  0.00000000000E+00  0.88817841970E-15  0.88817841970E-15  0.91188000000E+02  0.91188000000E+02 0.  0.
    9900012    2    3    3    0    0 -0.35850947005E+02  0.58263057148E+01 -0.60451292406E+01  0.54367084381E+02  0.40000000464E+02 0.  0.
         12    1    3    3    0    0  0.35850947005E+02 -0.58263057148E+01  0.60451292406E+01  0.36820915619E+02  0.00000000000E+00 0. -1.
         11    1    4    4    0    0 -0.27610669811E+00  0.93015171793E+01  0.66886693267E+01  0.11460050365E+02  0.51100000000E-03 0. -1.
        -11    1    4    4    0    0 -0.35424334228E+01 -0.61989974179E+01  0.21841552360E+01  0.74663872052E+01  0.51100000000E-03 0.  1.
        -12    1    4    4    0    0 -0.32032406884E+02  0.27237859534E+01 -0.14917953803E+02  0.35440646811E+02  0.00000000000E+00 0.  1.
</event>
<event>
 8    1  0.2458065E-006  0.9118800E+02  0.7816164E-02  0.1184000E+00
        -11   -1    0    0    0    0  0.00000000000E+00  0.00000000000E+00  0.45593999997E+02  0.45594000000E+02  0.51100000000E-03 0. -1.
         11   -1    0    0    0    0 -0.00000000000E+00 -0.00000000000E+00 -0.45593999997E+02  0.45594000000E+02  0.51100000000E-03 0.  1.
         23    2    1    2    0    0  0.00000000000E+00  0.88817841970E-15  0.00000000000E+00  0.91188000000E+02  0.91188000000E+02 0.  0.
    9900012    2    3    3    0    0  0.16402275250E+02  0.43908975226E+01 -0.32672069376E+02  0.54367099255E+02  0.40000034371E+02 0.  0.
         12    1    3    3    0    0 -0.16402275250E+02 -0.43908975226E+01  0.32672069376E+02  0.36820900745E+02  0.00000000000E+00 0. -1.
         11    1    4    4    0    0  0.23761344853E+00 -0.41999829648E+01 -0.41509389473E+01  0.59098740647E+01  0.51100000000E-03 0. -1.
        -11    1    4    4    0    0 -0.29957726300E+01  0.64440829434E+01  0.57457677024E+01  0.91386380486E+01  0.51100000000E-03 0.  1.
        -12    1    4    4    0    0  0.19160434431E+02  0.21467975440E+01 -0.34266898131E+02  0.39318587141E+02  0.00000000000E+00 0.  1.
</event>
<event>
 8    1  0.2458065E-006  0.9118800E+02  0.7816164E-02  0.1184000E+00
        -11   -1    0    0    0    0  0.00000000000E+00  0.00000000000E+00  0.45593999997E+02  0.45594000000E+02  0.51100000000E-03 0.  1.
         11   -1    0    0    0    0 -0.00000000000E+00 -0.00000000000E+00 -0.45593999997E+02  0.45594000000E+02  0.51100000000E-03 0. -1.
         23    2    1    2    0    0 -0.17763568394E-14  0.00000000000E+00  0.17763568394E-14  0.91188000000E+02  0.91188000000E+02 0.  0.
    9900012    2    3    3    0    0  0.13919554580E+02  0.30924590318E+02 -0.14342088871E+02  0.54367084759E+02  0.40000001324E+02 0.  0.
        -12    1    3    3    0    0 -0.13919554580E+02 -0.30924590318E+02  0.14342088871E+02  0.36820915241E+02  0.00000000000E+00 0.  1.
         11    1    4    4    0    0  0.69627895498E+00 -0.33830235273E+01 -0.45136332899E+01  0.56835322033E+01  0.51100000000E-03 0. -1.
        -11    1    4    4    0    0  0.86199131081E+01  0.15600879129E+02 -0.20089365254E+02  0.26856524871E+02  0.51100000000E-03 0.  1.
        -12    1    4    4    0    0  0.46033625169E+01  0.18706734716E+02  0.10260909673E+02  0.21827027684E+02  0.00000000000E+00 0.  1.
</event>
<event>
 8    1  0.2458065E-006  0.9118800E+02  0.7816164E-02  0.1184000E+00
        -11   -1    0    0    0    0  0.00000000000E+00  0.00000000000E+00  0.45593999997E+02  0.45594000000E+02  0.51100000000E-03 0.  1.
         11   -1    0    0    0    0 -0.00000000000E+00 -0.00000000000E+00 -0.45593999997E+02  0.45594000000E+02  0.51100000000E-03 0. -1.
         23    2    1    2    0    0  0.00000000000E+00  0.00000000000E+00  0.00000000000E+00  0.91188000000E+02  0.91188000000E+02 0.  0.
    9900012    2    3    3    0    0 -0.23024882740E+02 -0.26521583289E+02  0.11056297956E+02  0.54367063973E+02  0.39999953940E+02 0.  0.
        -12    1    3    3    0    0  0.23024882740E+02  0.26521583289E+02 -0.11056297956E+02  0.36820936027E+02  0.00000000000E+00 0.  1.
         11    1    4    4    0    0 -0.21959640800E+02 -0.40108707974E+01  0.23222981769E+01  0.22443394969E+02  0.51100000000E-03 0. -1.
        -11    1    4    4    0    0 -0.72813040016E+00 -0.98266794026E+01 -0.67208272675E+01  0.11927418890E+02  0.51100000000E-03 0.  1.
        -12    1    4    4    0    0 -0.33711153978E+00 -0.12684033089E+02  0.15454827047E+02  0.19996250115E+02  0.00000000000E+00 0.  1.
</event>
<event>
 8    1  0.2458065E-006  0.9118800E+02  0.7816164E-02  0.1184000E+00
        -11   -1    0    0    0    0  0.00000000000E+00  0.00000000000E+00  0.45593999997E+02  0.45594000000E+02  0.51100000000E-03 0.  1.
         11   -1    0    0    0    0 -0.00000000000E+00 -0.00000000000E+00 -0.45593999997E+02  0.45594000000E+02  0.51100000000E-03 0. -1.
         23    2    1    2    0    0  0.00000000000E+00  0.00000000000E+00  0.00000000000E+00  0.91188000000E+02  0.91188000000E+02 0.  0.
    9900012    2    3    3    0    0  0.18714496251E+02 -0.25019760143E+02  0.19482251118E+02  0.54367097293E+02  0.40000029898E+02 0.  0.
        -12    1    3    3    0    0 -0.18714496251E+02  0.25019760143E+02 -0.19482251118E+02  0.36820902707E+02  0.00000000000E+00 0.  1.
         11    1    4    4    0    0  0.15859554606E+02 -0.32344432637E+02  0.11377350371E+02  0.37777399284E+02  0.51100000000E-03 0. -1.
        -11    1    4    4    0    0 -0.25902944563E+01  0.48757070908E+01 -0.10887918939E+01  0.56273984269E+01  0.51100000000E-03 0.  1.
        -12    1    4    4    0    0  0.54452361009E+01  0.24489654031E+01  0.91936926416E+01  0.10962299582E+02  0.00000000000E+00 0.  1.
</event>
<event>
 8    1  0.2458065E-006  0.9118800E+02  0.7816164E-02  0.1184000E+00
        -11   -1    0    0    0    0  0.00000000000E+00  0.00000000000E+00  0.45593999997E+02  0.45594000000E+02  0.51100000000E-03 0. -1.
         11   -1    0    0    0    0 -0.00000000000E+00 -0.00000000000E+00 -0.45593999997E+02  0.45594000000E+02  0.51100000000E-03 0.  1.
         23    2    1    2    0    0  0.00000000000E+00  0.00000000000E+00  0.35527136788E-14  0.91188000000E+02  0.91188000000E+02 0.  0.
    9900012    2    3    3    0    0  0.23181746194E+02  0.10117199496E+02  0.26758711076E+02  0.54367086097E+02  0.40000004375E+02 0.  0.
        -12    1    3    3    0    0 -0.23181746194E+02 -0.10117199496E+02 -0.26758711076E+02  0.36820913903E+02  0.00000000000E+00 0.  1.
         11    1    4    4    0    0  0.59500819539E+01  0.73552256665E+00  0.13108274586E+02  0.14414275271E+02  0.51100000000E-03 0. -1.
        -11    1    4    4    0    0  0.12852202146E+01 -0.10936160191E+02  0.63322543743E+00  0.11029613114E+02  0.51100000000E-03 0.  1.
        -12    1    4    4    0    0  0.15946444025E+02  0.20317837120E+02  0.13017211052E+02  0.28923197712E+02  0.00000000000E+00 0.  1.
</event>
<event>
 8    1  0.2458065E-006  0.9118800E+02  0.7816164E-02  0.1184000E+00
        -11   -1    0    0    0    0  0.00000000000E+00  0.00000000000E+00  0.45593999997E+02  0.45594000000E+02  0.51100000000E-03 0. -1.
         11   -1    0    0    0    0 -0.00000000000E+00 -0.00000000000E+00 -0.45593999997E+02  0.45594000000E+02  0.51100000000E-03 0.  1.
         23    2    1    2    0    0  0.17763568394E-14  0.71054273576E-14  0.00000000000E+00  0.91188000000E+02  0.91188000000E+02 0.  0.
    9900012    2    3    3    0    0 -0.12487202570E+02  0.33370841491E+02  0.92859454351E+01  0.54367189682E+02  0.40000240518E+02 0.  0.
         12    1    3    3    0    0  0.12487202570E+02 -0.33370841491E+02 -0.92859454351E+01  0.36820810318E+02  0.00000000000E+00 0. -1.
         11    1    4    4    0    0 -0.59022790502E+01  0.21342550868E+02  0.14025832375E+02  0.26211931436E+02  0.51100000000E-03 0. -1.
        -11    1    4    4    0    0  0.83396064887E+01  0.48736296666E+01  0.26698555602E+01  0.10021448572E+02  0.51100000000E-03 0.  1.
        -12    1    4    4    0    0 -0.14924530009E+02  0.71546609565E+01 -0.74097424999E+01  0.18133809674E+02  0.00000000000E+00 0.  1.
</event>
<event>
 8    1  0.2458065E-006  0.9118800E+02  0.7816164E-02  0.1184000E+00
        -11   -1    0    0    0    0  0.00000000000E+00  0.00000000000E+00  0.45593999997E+02  0.45594000000E+02  0.51100000000E-03 0. -1.
         11   -1    0    0    0    0 -0.00000000000E+00 -0.00000000000E+00 -0.45593999997E+02  0.45594000000E+02  0.51100000000E-03 0.  1.
         23    2    1    2    0    0  0.00000000000E+00  0.35527136788E-14  0.00000000000E+00  0.91188000000E+02  0.91188000000E+02 0.  0.
    9900012    2    3    3    0    0 -0.24600272784E+02  0.12615395264E+02  0.24319924019E+02  0.54367077646E+02  0.39999985109E+02 0.  0.
        -12    1    3    3    0    0  0.24600272784E+02 -0.12615395264E+02 -0.24319924019E+02  0.36820922354E+02  0.00000000000E+00 0.  1.
         11    1    4    4    0    0  0.25342066153E+01  0.63736240739E+01  0.13091171742E+02  0.14779176731E+02  0.51100000000E-03 0. -1.
        -11    1    4    4    0    0 -0.53267808491E+01 -0.88275394347E+01 -0.10708403848E+01  0.10365652226E+02  0.51100000000E-03 0.  1.
        -12    1    4    4    0    0 -0.21807698551E+02  0.15069310625E+02  0.12299592662E+02  0.29222248689E+02  0.00000000000E+00 0.  1.
</event>
<event>
 8    1  0.2458065E-006  0.9118800E+02  0.7816164E-02  0.1184000E+00
        -11   -1    0    0    0    0  0.00000000000E+00  0.00000000000E+00  0.45593999997E+02  0.45594000000E+02  0.51100000000E-03 0. -1.
         11   -1    0    0    0    0 -0.00000000000E+00 -0.00000000000E+00 -0.45593999997E+02  0.45594000000E+02  0.51100000000E-03 0.  1.
         23    2    1    2    0    0  0.00000000000E+00  0.00000000000E+00  0.88817841970E-15  0.91188000000E+02  0.91188000000E+02 0.  0.
    9900012    2    3    3    0    0  0.34673384930E+02  0.11060508323E+02  0.55858254257E+01  0.54367083220E+02  0.39999997816E+02 0.  0.
        -12    1    3    3    0    0 -0.34673384930E+02 -0.11060508323E+02 -0.55858254257E+01  0.36820916780E+02  0.00000000000E+00 0.  1.
         11    1    4    4    0    0  0.20956902235E+02  0.12956643749E+02  0.16474392125E+02  0.29639027728E+02  0.51100000000E-03 0. -1.
        -11    1    4    4    0    0 -0.11061973149E+01  0.49007432411E+01 -0.57393447404E+01  0.76276493840E+01  0.51100000000E-03 0.  1.
         12    1    4    4    0    0  0.14822680009E+02 -0.67968786667E+01 -0.51492219588E+01  0.17100406108E+02  0.00000000000E+00 0. -1.
</event>
<event>
 8    1  0.2458065E-006  0.9118800E+02  0.7816164E-02  0.1184000E+00
        -11   -1    0    0    0    0  0.00000000000E+00  0.00000000000E+00  0.45593999997E+02  0.45594000000E+02  0.51100000000E-03 0. -1.
         11   -1    0    0    0    0 -0.00000000000E+00 -0.00000000000E+00 -0.45593999997E+02  0.45594000000E+02  0.51100000000E-03 0.  1.
         23    2    1    2    0    0 -0.17763568394E-14 -0.71054273576E-14  0.00000000000E+00  0.91188000000E+02  0.91188000000E+02 0.  0.
    9900012    2    3    3    0    0  0.15684548815E+02  0.32314759806E+02 -0.80950645144E+01  0.54367097752E+02  0.40000030946E+02 0.  0.
         12    1    3    3    0    0 -0.15684548815E+02 -0.32314759806E+02  0.80950645144E+01  0.36820902248E+02  0.00000000000E+00 0. -1.
         11    1    4    4    0    0 -0.46081045226E+01  0.18958770445E+02  0.49235991556E+01  0.20122411212E+02  0.51100000000E-03 0. -1.
        -11    1    4    4    0    0  0.10473262391E+02  0.13199622741E+02  0.12798461285E+01  0.16898439928E+02  0.51100000000E-03 0.  1.
         12    1    4    4    0    0  0.98193909466E+01  0.15636661963E+00 -0.14298509798E+02  0.17346246612E+02  0.00000000000E+00 0. -1.
</event>
<event>
 8    1  0.2458065E-006  0.9118800E+02  0.7816164E-02  0.1184000E+00
        -11   -1    0    0    0    0  0.00000000000E+00  0.00000000000E+00  0.45593999997E+02  0.45594000000E+02  0.51100000000E-03 0.  1.
         11   -1    0    0    0    0 -0.00000000000E+00 -0.00000000000E+00 -0.45593999997E+02  0.45594000000E+02  0.51100000000E-03 0. -1.
         23    2    1    2    0    0 -0.58286708793E-15  0.00000000000E+00 -0.35527136788E-14  0.91188000000E+02  0.91188000000E+02 0.  0.
    9900012    2    3    3    0    0 -0.22287881763E+00  0.29168715917E+02  0.22470303418E+02  0.54367106489E+02  0.40000050863E+02 0.  0.
         12    1    3    3    0    0  0.22287881763E+00 -0.29168715917E+02 -0.22470303418E+02  0.36820893511E+02  0.00000000000E+00 0. -1.
         11    1    4    4    0    0 -0.62844798525E+01  0.74442629347E+01 -0.29548776858E+01  0.10180522583E+02  0.51100000000E-03 0. -1.
        -11    1    4    4    0    0 -0.83619895989E+00  0.87752948116E+01 -0.51956319781E+01  0.10232283208E+02  0.51100000000E-03 0.  1.
        -12    1    4    4    0    0  0.68977999947E+01  0.12949158171E+02  0.30620813082E+02  0.33954300699E+02  0.00000000000E+00 0.  1.
</event>
<event>
 8    1  0.2458065E-006  0.9118800E+02  0.7816164E-02  0.1184000E+00
        -11   -1    0    0    0    0  0.00000000000E+00  0.00000000000E+00  0.45593999997E+02  0.45594000000E+02  0.51100000000E-03 0.  1.
         11   -1    0    0    0    0 -0.00000000000E+00 -0.00000000000E+00 -0.45593999997E+02  0.45594000000E+02  0.51100000000E-03 0. -1.
         23    2    1    2    0    0  0.00000000000E+00  0.35527136788E-14  0.00000000000E+00  0.91188000000E+02  0.91188000000E+02 0.  0.
    9900012    2    3    3    0    0 -0.13307312816E+01  0.20935897841E+02  0.30260436798E+02  0.54367126852E+02  0.40000097285E+02 0.  0.
         12    1    3    3    0    0  0.13307312816E+01 -0.20935897841E+02 -0.30260436798E+02  0.36820873148E+02  0.00000000000E+00 0. -1.
         11    1    4    4    0    0 -0.11585762465E+02  0.18497783635E+02  0.13606207305E+01  0.21868908989E+02  0.51100000000E-03 0. -1.
        -11    1    4    4    0    0  0.77797362002E+01  0.44594388122E+01  0.10433872622E+02  0.13757782816E+02  0.51100000000E-03 0.  1.
        -12    1    4    4    0    0  0.24752949832E+01 -0.20213246070E+01  0.18465943446E+02  0.18740435048E+02  0.00000000000E+00 0.  1.
</event>
<event>
 8    1  0.2458065E-006  0.9118800E+02  0.7816164E-02  0.1184000E+00
        -11   -1    0    0    0    0  0.00000000000E+00  0.00000000000E+00  0.45593999997E+02  0.45594000000E+02  0.51100000000E-03 0. -1.
         11   -1    0    0    0    0 -0.00000000000E+00 -0.00000000000E+00 -0.45593999997E+02  0.45594000000E+02  0.51100000000E-03 0.  1.
         23    2    1    2    0    0 -0.35527136788E-14  0.00000000000E+00  0.00000000000E+00  0.91188000000E+02  0.91188000000E+02 0.  0.
    9900012    2    3    3    0    0 -0.24665017218E+02  0.16586634531E+02  0.21732474599E+02  0.54367082417E+02  0.39999995987E+02 0.  0.
        -12    1    3    3    0    0  0.24665017218E+02 -0.16586634531E+02 -0.21732474599E+02  0.36820917583E+02  0.00000000000E+00 0.  1.
         11    1    4    4    0    0 -0.77179916508E+01  0.59759477555E+01  0.13052221945E+02  0.16298461420E+02  0.51100000000E-03 0. -1.
        -11    1    4    4    0    0 -0.10921998496E+02  0.18586710407E+02  0.14981260195E+02  0.26252504875E+02  0.51100000000E-03 0.  1.
        -12    1    4    4    0    0 -0.60250270714E+01 -0.79760236316E+01 -0.63010075412E+01  0.11816116122E+02  0.00000000000E+00 0.  1.
</event>
<event>
 8    1  0.2458065E-006  0.9118800E+02  0.7816164E-02  0.1184000E+00
        -11   -1    0    0    0    0  0.00000000000E+00  0.00000000000E+00  0.45593999997E+02  0.45594000000E+02  0.51100000000E-03 0. -1.
         11   -1    0    0    0    0 -0.00000000000E+00 -0.00000000000E+00 -0.45593999997E+02  0.45594000000E+02  0.51100000000E-03 0.  1.
         23    2    1    2    0    0  0.88817841970E-15 -0.13322676296E-14  0.00000000000E+00  0.91188000000E+02  0.91188000000E+02 0.  0.
    9900012    2    3    3    0    0 -0.71445547934E+01 -0.38198387934E+01  0.35918577972E+02  0.54367081011E+02  0.39999992782E+02 0.  0.
        -12    1    3    3    0    0  0.71445547934E+01  0.38198387934E+01 -0.35918577972E+02  0.36820918989E+02  0.00000000000E+00 0.  1.
         11    1    4    4    0    0  0.13130256864E+01  0.37855237570E+01  0.22635731882E+02  0.22987618073E+02  0.51100000000E-03 0. -1.
        -11    1    4    4    0    0 -0.15195604692E+02  0.26261507236E+00  0.14430212130E+02  0.20957251513E+02  0.51100000000E-03 0.  1.
        -12    1    4    4    0    0  0.67380242119E+01 -0.78679776228E+01 -0.11473660399E+01  0.10422211425E+02  0.00000000000E+00 0.  1.
</event>
<event>
 8    1  0.2458065E-006  0.9118800E+02  0.7816164E-02  0.1184000E+00
        -11   -1    0    0    0    0  0.00000000000E+00  0.00000000000E+00  0.45593999997E+02  0.45594000000E+02  0.51100000000E-03 0.  1.
         11   -1    0    0    0    0 -0.00000000000E+00 -0.00000000000E+00 -0.45593999997E+02  0.45594000000E+02  0.51100000000E-03 0. -1.
         23    2    1    2    0    0 -0.88817841970E-15  0.71054273576E-14 -0.53290705182E-14  0.91188000000E+02  0.91188000000E+02 0.  0.
    9900012    2    3    3    0    0  0.38773082987E+01  0.33822232758E+02 -0.14028650815E+02  0.54367082140E+02  0.39999995355E+02 0.  0.
         12    1    3    3    0    0 -0.38773082987E+01 -0.33822232758E+02  0.14028650815E+02  0.36820917860E+02  0.00000000000E+00 0. -1.
         11    1    4    4    0    0  0.12523943360E+02  0.63360578892E+01 -0.12883677063E+02  0.19052136935E+02  0.51100000000E-03 0. -1.
        -11    1    4    4    0    0  0.43932621596E+01  0.27002041794E+01  0.43830032939E+01  0.67677598324E+01  0.51100000000E-03 0.  1.
        -12    1    4    4    0    0 -0.13039897220E+02  0.24785970689E+02 -0.55279770455E+01  0.28547185373E+02  0.00000000000E+00 0.  1.
</event>
<event>
 8    1  0.2458065E-006  0.9118800E+02  0.7816164E-02  0.1184000E+00
        -11   -1    0    0    0    0  0.00000000000E+00  0.00000000000E+00  0.45593999997E+02  0.45594000000E+02  0.51100000000E-03 0. -1.
         11   -1    0    0    0    0 -0.00000000000E+00 -0.00000000000E+00 -0.45593999997E+02  0.45594000000E+02  0.51100000000E-03 0.  1.
         23    2    1    2    0    0 -0.44408920985E-15  0.00000000000E+00  0.00000000000E+00  0.91188000000E+02  0.91188000000E+02 0.  0.
    9900012    2    3    3    0    0 -0.32302069474E+01 -0.33415569301E+02  0.15124309702E+02  0.54367092182E+02  0.40000018246E+02 0.  0.
        -12    1    3    3    0    0  0.32302069474E+01  0.33415569301E+02 -0.15124309702E+02  0.36820907818E+02  0.00000000000E+00 0.  1.
         11    1    4    4    0    0 -0.30083977412E+01 -0.13291616709E+02 -0.91557302290E+01  0.16417823485E+02  0.51100000000E-03 0.  1.
        -11    1    4    4    0    0  0.10286225188E+02 -0.10494784154E+02  0.14636388809E+02  0.20740559315E+02  0.51100000000E-03 0. -1.
        -12    1    4    4    0    0 -0.10508034394E+02 -0.96291684379E+01  0.96436511217E+01  0.17208709382E+02  0.00000000000E+00 0.  1.
</event>
<event>
 8    1  0.2458065E-006  0.9118800E+02  0.7816164E-02  0.1184000E+00
        -11   -1    0    0    0    0  0.00000000000E+00  0.00000000000E+00  0.45593999997E+02  0.45594000000E+02  0.51100000000E-03 0.  1.
         11   -1    0    0    0    0 -0.00000000000E+00 -0.00000000000E+00 -0.45593999997E+02  0.45594000000E+02  0.51100000000E-03 0. -1.
         23    2    1    2    0    0 -0.35527136788E-14  0.88817841970E-15  0.35527136788E-14  0.91188000000E+02  0.91188000000E+02 0.  0.
    9900012    2    3    3    0    0  0.25082213479E+02  0.53689858789E+01 -0.26416596702E+02  0.54367081710E+02  0.39999994375E+02 0.  0.
        -12    1    3    3    0    0 -0.25082213479E+02 -0.53689858789E+01  0.26416596702E+02  0.36820918290E+02  0.00000000000E+00 0.  1.
         11    1    4    4    0    0  0.36286624554E+00  0.10566470611E+02 -0.42424872187E+01  0.11392131985E+02  0.51100000000E-03 0. -1.
        -11    1    4    4    0    0  0.18056664784E+02 -0.18128324837E+01  0.14420092766E+01  0.18204639402E+02  0.51100000000E-03 0.  1.
         12    1    4    4    0    0  0.66626824496E+01 -0.33846522488E+01 -0.23616118760E+02  0.24770310324E+02  0.00000000000E+00 0. -1.
</event>
<event>
 8    1  0.2458065E-006  0.9118800E+02  0.7816164E-02  0.1184000E+00
        -11   -1    0    0    0    0  0.00000000000E+00  0.00000000000E+00  0.45593999997E+02  0.45594000000E+02  0.51100000000E-03 0.  1.
         11   -1    0    0    0    0 -0.00000000000E+00 -0.00000000000E+00 -0.45593999997E+02  0.45594000000E+02  0.51100000000E-03 0. -1.
         23    2    1    2    0    0 -0.35527136788E-14  0.00000000000E+00  0.00000000000E+00  0.91188000000E+02  0.91188000000E+02 0.  0.
    9900012    2    3    3    0    0  0.30672211725E+02 -0.12184689277E+02 -0.16325674293E+02  0.54367097431E+02  0.40000030213E+02 0.  0.
        -12    1    3    3    0    0 -0.30672211725E+02  0.12184689277E+02  0.16325674293E+02  0.36820902569E+02  0.00000000000E+00 0.  1.
         11    1    4    4    0    0  0.30074247579E+02 -0.10154789104E+02 -0.25814846524E+02  0.40914379019E+02  0.51100000000E-03 0. -1.
        -11    1    4    4    0    0 -0.36411387510E+01 -0.25839748262E+00  0.77015589929E+01  0.85228323840E+01  0.51100000000E-03 0.  1.
         12    1    4    4    0    0  0.42391028971E+01 -0.17715026903E+01  0.17876132382E+01  0.49298860274E+01  0.00000000000E+00 0. -1.
</event>
<event>
 8    1  0.2458065E-006  0.9118800E+02  0.7816164E-02  0.1184000E+00
        -11   -1    0    0    0    0  0.00000000000E+00  0.00000000000E+00  0.45593999997E+02  0.45594000000E+02  0.51100000000E-03 0. -1.
         11   -1    0    0    0    0 -0.00000000000E+00 -0.00000000000E+00 -0.45593999997E+02  0.45594000000E+02  0.51100000000E-03 0.  1.
         23    2    1    2    0    0 -0.35527136788E-14 -0.35527136788E-14 -0.17763568394E-14  0.91188000000E+02  0.91188000000E+02 0.  0.
    9900012    2    3    3    0    0  0.23965007270E+02  0.23144468846E+02  0.15677771870E+02  0.54367074666E+02  0.39999978317E+02 0.  0.
        -12    1    3    3    0    0 -0.23965007270E+02 -0.23144468846E+02 -0.15677771870E+02  0.36820925334E+02  0.00000000000E+00 0.  1.
         11    1    4    4    0    0  0.22518980186E+02  0.11252036565E+02  0.20641674661E+02  0.32554439460E+02  0.51100000000E-03 0. -1.
        -11    1    4    4    0    0  0.58143120411E+01  0.10575433782E+02 -0.95151168314E+01  0.15368261866E+02  0.51100000000E-03 0.  1.
         12    1    4    4    0    0 -0.43682849568E+01  0.13169984985E+01  0.45512140409E+01  0.64443733407E+01  0.00000000000E+00 0. -1.
</event>
<event>
 8    1  0.2458065E-006  0.9118800E+02  0.7816164E-02  0.1184000E+00
        -11   -1    0    0    0    0  0.00000000000E+00  0.00000000000E+00  0.45593999997E+02  0.45594000000E+02  0.51100000000E-03 0.  1.
         11   -1    0    0    0    0 -0.00000000000E+00 -0.00000000000E+00 -0.45593999997E+02  0.45594000000E+02  0.51100000000E-03 0. -1.
         23    2    1    2    0    0  0.88817841970E-15  0.71054273576E-14  0.00000000000E+00  0.91188000000E+02  0.91188000000E+02 0.  0.
    9900012    2    3    3    0    0 -0.31327752311E+01 -0.27652516235E+02  0.24110257908E+02  0.54367075634E+02  0.39999980522E+02 0.  0.
         12    1    3    3    0    0  0.31327752311E+01  0.27652516235E+02 -0.24110257908E+02  0.36820924366E+02  0.00000000000E+00 0. -1.
         11    1    4    4    0    0  0.23746688317E+01 -0.11856192324E+02  0.13160264964E+02  0.17871791255E+02  0.51100000000E-03 0. -1.
        -11    1    4    4    0    0 -0.51668780730E+01 -0.24817083105E+02  0.10556589023E+02  0.27459530494E+02  0.51100000000E-03 0.  1.
         12    1    4    4    0    0 -0.34056598979E+00  0.90207591936E+01  0.39340392077E+00  0.90357538849E+01  0.00000000000E+00 0. -1.
</event>
<event>
 8    1  0.2458065E-006  0.9118800E+02  0.7816164E-02  0.1184000E+00
        -11   -1    0    0    0    0  0.00000000000E+00  0.00000000000E+00  0.45593999997E+02  0.45594000000E+02  0.51100000000E-03 0. -1.
         11   -1    0    0    0    0 -0.00000000000E+00 -0.00000000000E+00 -0.45593999997E+02  0.45594000000E+02  0.51100000000E-03 0.  1.
         23    2    1    2    0    0  0.00000000000E+00  0.00000000000E+00  0.00000000000E+00  0.91188000000E+02  0.91188000000E+02 0.  0.
    9900012    2    3    3    0    0  0.20533370051E+02  0.21246561070E+02  0.21971443278E+02  0.54367082539E+02  0.39999996264E+02 0.  0.
        -12    1    3    3    0    0 -0.20533370051E+02 -0.21246561070E+02 -0.21971443278E+02  0.36820917461E+02  0.00000000000E+00 0.  1.
         11    1    4    4    0    0  0.21615433351E+01 -0.68674817632E+01  0.97957982303E+01  0.12156983120E+02  0.51100000000E-03 0. -1.
        -11    1    4    4    0    0 -0.94333355328E+00  0.15523784953E+02 -0.11240085025E+01  0.15592984732E+02  0.51100000000E-03 0.  1.
        -12    1    4    4    0    0  0.19315160269E+02  0.12590257879E+02  0.13299653550E+02  0.26617114687E+02  0.00000000000E+00 0.  1.
</event>
<event>
 8    1  0.2458065E-006  0.9118800E+02  0.7816164E-02  0.1184000E+00
        -11   -1    0    0    0    0  0.00000000000E+00  0.00000000000E+00  0.45593999997E+02  0.45594000000E+02  0.51100000000E-03 0.  1.
         11   -1    0    0    0    0 -0.00000000000E+00 -0.00000000000E+00 -0.45593999997E+02  0.45594000000E+02  0.51100000000E-03 0. -1.
         23    2    1    2    0    0  0.35527136788E-14  0.00000000000E+00  0.00000000000E+00  0.91188000000E+02  0.91188000000E+02 0.  0.
    9900012    2    3    3    0    0  0.16361914641E+02  0.23318770060E+02  0.23330299320E+02  0.54367079938E+02  0.39999990335E+02 0.  0.
         12    1    3    3    0    0 -0.16361914641E+02 -0.23318770060E+02 -0.23330299320E+02  0.36820920062E+02  0.00000000000E+00 0. -1.
         11    1    4    4    0    0  0.17991403245E+02  0.20595437427E+02  0.10668751365E+02  0.29354469668E+02  0.51100000000E-03 0.  1.
        -11    1    4    4    0    0 -0.97837339524E+01  0.49054755688E+01  0.15430705703E+01  0.11052882323E+02  0.51100000000E-03 0. -1.
         12    1    4    4    0    0  0.81542453486E+01 -0.21821429357E+01  0.11118477385E+02  0.13959727947E+02  0.00000000000E+00 0. -1.
</event>
<event>
 8    1  0.2458065E-006  0.9118800E+02  0.7816164E-02  0.1184000E+00
        -11   -1    0    0    0    0  0.00000000000E+00  0.00000000000E+00  0.45593999997E+02  0.45594000000E+02  0.51100000000E-03 0. -1.
         11   -1    0    0    0    0 -0.00000000000E+00 -0.00000000000E+00 -0.45593999997E+02  0.45594000000E+02  0.51100000000E-03 0.  1.
         23    2    1    2    0    0  0.35527136788E-14  0.22204460493E-15 -0.35527136788E-14  0.91188000000E+02  0.91188000000E+02 0.  0.
    9900012    2    3    3    0    0 -0.20696177032E+02 -0.13046920981E+01  0.30426269079E+02  0.54366921590E+02  0.39999629347E+02 0.  0.
        -12    1    3    3    0    0  0.20696177032E+02  0.13046920981E+01 -0.30426269079E+02  0.36821078410E+02  0.00000000000E+00 0.  1.
         11    1    4    4    0    0  0.11480809513E+01 -0.96687896897E+01  0.32082960070E+01  0.10251670472E+02  0.51100000000E-03 0. -1.
        -11    1    4    4    0    0 -0.15072263053E+02  0.31577345413E+00  0.15095030015E+00  0.15076326233E+02  0.51100000000E-03 0.  1.
         12    1    4    4    0    0 -0.67719949297E+01  0.80483241375E+01  0.27067022772E+02  0.29038924885E+02  0.00000000000E+00 0. -1.
</event>
<event>
 8    1  0.2458065E-006  0.9118800E+02  0.7816164E-02  0.1184000E+00
        -11   -1    0    0    0    0  0.00000000000E+00  0.00000000000E+00  0.45593999997E+02  0.45594000000E+02  0.51100000000E-03 0. -1.
         11   -1    0    0    0    0 -0.00000000000E+00 -0.00000000000E+00 -0.45593999997E+02  0.45594000000E+02  0.51100000000E-03 0.  1.
         23    2    1    2    0    0  0.17763568394E-14  0.00000000000E+00  0.17763568394E-14  0.91188000000E+02  0.91188000000E+02 0.  0.
    9900012    2    3    3    0    0 -0.87243119647E+01  0.33264517589E+02 -0.13158223429E+02  0.54367073973E+02  0.39999976737E+02 0.  0.
         12    1    3    3    0    0  0.87243119647E+01 -0.33264517589E+02  0.13158223429E+02  0.36820926027E+02  0.00000000000E+00 0. -1.
         11    1    4    4    0    0  0.65812278057E+01  0.27302382052E+02 -0.60989696697E+00  0.28091005673E+02  0.51100000000E-03 0. -1.
        -11    1    4    4    0    0 -0.44754292932E+01  0.10444228333E+02 -0.59830623801E+01  0.12841666890E+02  0.51100000000E-03 0.  1.
         12    1    4    4    0    0 -0.10830110477E+02 -0.44820927961E+01 -0.65652640816E+01  0.13434401410E+02  0.00000000000E+00 0. -1.
</event>
<event>
 8    1  0.2458065E-006  0.9118800E+02  0.7816164E-02  0.1184000E+00
        -11   -1    0    0    0    0  0.00000000000E+00  0.00000000000E+00  0.45593999997E+02  0.45594000000E+02  0.51100000000E-03 0. -1.
         11   -1    0    0    0    0 -0.00000000000E+00 -0.00000000000E+00 -0.45593999997E+02  0.45594000000E+02  0.51100000000E-03 0.  1.
         23    2    1    2    0    0  0.00000000000E+00  0.11102230246E-14  0.00000000000E+00  0.91188000000E+02  0.91188000000E+02 0.  0.
    9900012    2    3    3    0    0 -0.35910454299E+02 -0.14902000453E+01 -0.79999001421E+01  0.54367084389E+02  0.40000000481E+02 0.  0.
         12    1    3    3    0    0  0.35910454299E+02  0.14902000453E+01  0.79999001421E+01  0.36820915611E+02  0.00000000000E+00 0. -1.
         11    1    4    4    0    0 -0.34955964561E+02 -0.10372136340E+02  0.65785720539E+00  0.36468252591E+02  0.51100000000E-03 0. -1.
        -11    1    4    4    0    0 -0.43356984477E+01  0.74514638331E+01 -0.13850440748E+00  0.86221678259E+01  0.51100000000E-03 0.  1.
         12    1    4    4    0    0  0.33812087093E+01  0.14304724616E+01 -0.85192529400E+01  0.92766639723E+01  0.00000000000E+00 0. -1.
</event>
<event>
 8    1  0.2458065E-006  0.9118800E+02  0.7816164E-02  0.1184000E+00
        -11   -1    0    0    0    0  0.00000000000E+00  0.00000000000E+00  0.45593999997E+02  0.45594000000E+02  0.51100000000E-03 0.  1.
         11   -1    0    0    0    0 -0.00000000000E+00 -0.00000000000E+00 -0.45593999997E+02  0.45594000000E+02  0.51100000000E-03 0. -1.
         23    2    1    2    0    0  0.00000000000E+00  0.35527136788E-14  0.44408920985E-15  0.91188000000E+02  0.91188000000E+02 0.  0.
    9900012    2    3    3    0    0 -0.26817837986E+02 -0.25002670177E+02 -0.33827028427E+01  0.54367182128E+02  0.40000223297E+02 0.  0.
        -12    1    3    3    0    0  0.26817837986E+02  0.25002670177E+02  0.33827028427E+01  0.36820817872E+02  0.00000000000E+00 0.  1.
         11    1    4    4    0    0 -0.21526929910E+02 -0.52436139208E+01 -0.53200827495E+01  0.22786124704E+02  0.51100000000E-03 0. -1.
        -11    1    4    4    0    0 -0.30103865710E+01 -0.88962626998E+01  0.12915695215E+02  0.15969380090E+02  0.51100000000E-03 0.  1.
         12    1    4    4    0    0 -0.22805215055E+01 -0.10862793557E+02 -0.10978315308E+02  0.15611677334E+02  0.00000000000E+00 0. -1.
</event>
<event>
 8    1  0.2458065E-006  0.9118800E+02  0.7816164E-02  0.1184000E+00
        -11   -1    0    0    0    0  0.00000000000E+00  0.00000000000E+00  0.45593999997E+02  0.45594000000E+02  0.51100000000E-03 0.  1.
         11   -1    0    0    0    0 -0.00000000000E+00 -0.00000000000E+00 -0.45593999997E+02  0.45594000000E+02  0.51100000000E-03 0. -1.
         23    2    1    2    0    0  0.00000000000E+00  0.00000000000E+00 -0.44408920985E-15  0.91188000000E+02  0.91188000000E+02 0.  0.
    9900012    2    3    3    0    0  0.21071988423E+02 -0.30023296079E+02  0.32175459898E+01  0.54367087386E+02  0.40000007314E+02 0.  0.
        -12    1    3    3    0    0 -0.21071988423E+02  0.30023296079E+02 -0.32175459898E+01  0.36820912614E+02  0.00000000000E+00 0.  1.
         11    1    4    4    0    0 -0.28032047158E+01 -0.16007451621E+02  0.37192645650E+01  0.16671214510E+02  0.51100000000E-03 0.  1.
        -11    1    4    4    0    0  0.79901918832E+01 -0.18823845454E+02 -0.37334347766E+01  0.20787468810E+02  0.51100000000E-03 0. -1.
        -12    1    4    4    0    0  0.15885001256E+02  0.48080009963E+01  0.32317162015E+01  0.16908404067E+02  0.00000000000E+00 0.  1.
</event>
<event>
 8    1  0.2458065E-006  0.9118800E+02  0.7816164E-02  0.1184000E+00
        -11   -1    0    0    0    0  0.00000000000E+00  0.00000000000E+00  0.45593999997E+02  0.45594000000E+02  0.51100000000E-03 0.  1.
         11   -1    0    0    0    0 -0.00000000000E+00 -0.00000000000E+00 -0.45593999997E+02  0.45594000000E+02  0.51100000000E-03 0. -1.
         23    2    1    2    0    0  0.00000000000E+00  0.35527136788E-14  0.35527136788E-14  0.91188000000E+02  0.91188000000E+02 0.  0.
    9900012    2    3    3    0    0  0.91705277595E+01 -0.20080395545E+02 -0.29469629704E+02  0.54367082853E+02  0.39999996981E+02 0.  0.
        -12    1    3    3    0    0 -0.91705277595E+01  0.20080395545E+02  0.29469629704E+02  0.36820917147E+02  0.00000000000E+00 0.  1.
         11    1    4    4    0    0  0.12354685559E+01  0.47864457875E+01 -0.14378255520E+02  0.15204298007E+02  0.51100000000E-03 0. -1.
        -11    1    4    4    0    0 -0.85405396121E+01 -0.54210271242E+01 -0.74234083863E+01  0.12547324188E+02  0.51100000000E-03 0.  1.
        -12    1    4    4    0    0  0.16475598816E+02 -0.19445814209E+02 -0.76679657970E+01  0.26615460658E+02  0.00000000000E+00 0.  1.
</event>
<event>
 8    1  0.2458065E-006  0.9118800E+02  0.7816164E-02  0.1184000E+00
        -11   -1    0    0    0    0  0.00000000000E+00  0.00000000000E+00  0.45593999997E+02  0.45594000000E+02  0.51100000000E-03 0. -1.
         11   -1    0    0    0    0 -0.00000000000E+00 -0.00000000000E+00 -0.45593999997E+02  0.45594000000E+02  0.51100000000E-03 0.  1.
         23    2    1    2    0    0  0.00000000000E+00  0.00000000000E+00  0.00000000000E+00  0.91188000000E+02  0.91188000000E+02 0.  0.
    9900012    2    3    3    0    0 -0.11495051356E+02  0.22573868196E+01  0.34907693603E+02  0.54367094612E+02  0.40000023787E+02 0.  0.
        -12    1    3    3    0    0  0.11495051356E+02 -0.22573868196E+01 -0.34907693603E+02  0.36820905388E+02  0.00000000000E+00 0.  1.
         11    1    4    4    0    0 -0.66350916452E+01 -0.40914831436E+00  0.18205145078E+02  0.19380896549E+02  0.51100000000E-03 0. -1.
        -11    1    4    4    0    0 -0.17519045905E+02  0.35723878076E+01  0.79378759576E+01  0.19562433362E+02  0.51100000000E-03 0.  1.
         12    1    4    4    0    0  0.12659086194E+02 -0.90585267365E+00  0.87646725673E+01  0.15423764701E+02  0.00000000000E+00 0. -1.
</event>
<event>
 8    1  0.2458065E-006  0.9118800E+02  0.7816164E-02  0.1184000E+00
        -11   -1    0    0    0    0  0.00000000000E+00  0.00000000000E+00  0.45593999997E+02  0.45594000000E+02  0.51100000000E-03 0.  1.
         11   -1    0    0    0    0 -0.00000000000E+00 -0.00000000000E+00 -0.45593999997E+02  0.45594000000E+02  0.51100000000E-03 0. -1.
         23    2    1    2    0    0  0.00000000000E+00  0.35527136788E-14  0.00000000000E+00  0.91188000000E+02  0.91188000000E+02 0.  0.
    9900012    2    3    3    0    0  0.16709043962E+02 -0.30091903233E+02  0.13079188830E+02  0.54367082430E+02  0.39999996015E+02 0.  0.
         12    1    3    3    0    0 -0.16709043962E+02  0.30091903233E+02 -0.13079188830E+02  0.36820917570E+02  0.00000000000E+00 0. -1.
         11    1    4    4    0    0  0.16478094348E+02 -0.14700393984E+02 -0.61120561123E+01  0.22912581845E+02  0.51100000000E-03 0. -1.
        -11    1    4    4    0    0 -0.71824268132E+00 -0.18522869965E+02  0.20755204061E+02  0.27827883142E+02  0.51100000000E-03 0.  1.
        -12    1    4    4    0    0  0.94919229466E+00  0.31313607161E+01 -0.15639591193E+01  0.36266174424E+01  0.00000000000E+00 0.  1.
</event>
<event>
 8    1  0.2458065E-006  0.9118800E+02  0.7816164E-02  0.1184000E+00
        -11   -1    0    0    0    0  0.00000000000E+00  0.00000000000E+00  0.45593999997E+02  0.45594000000E+02  0.51100000000E-03 0.  1.
         11   -1    0    0    0    0 -0.00000000000E+00 -0.00000000000E+00 -0.45593999997E+02  0.45594000000E+02  0.51100000000E-03 0. -1.
         23    2    1    2    0    0 -0.17763568394E-14 -0.17763568394E-14  0.35527136788E-14  0.91188000000E+02  0.91188000000E+02 0.  0.
    9900012    2    3    3    0    0 -0.13110563169E+02 -0.15790003924E+02  0.30570715913E+02  0.54367085264E+02  0.40000002476E+02 0.  0.
         12    1    3    3    0    0  0.13110563169E+02  0.15790003924E+02 -0.30570715913E+02  0.36820914736E+02  0.00000000000E+00 0. -1.
         11    1    4    4    0    0 -0.14767199855E+02 -0.15897513984E+01  0.27470699996E+02  0.31228782551E+02  0.51100000000E-03 0. -1.
        -11    1    4    4    0    0 -0.26520346698E+01 -0.17786219470E+01  0.83817211809E+01  0.89693943015E+01  0.51100000000E-03 0.  1.
         12    1    4    4    0    0  0.43086713559E+01 -0.12421630579E+02 -0.52817052633E+01  0.14168908412E+02  0.00000000000E+00 0. -1.
</event>
<event>
 8    1  0.2458065E-006  0.9118800E+02  0.7816164E-02  0.1184000E+00
        -11   -1    0    0    0    0  0.00000000000E+00  0.00000000000E+00  0.45593999997E+02  0.45594000000E+02  0.51100000000E-03 0.  1.
         11   -1    0    0    0    0 -0.00000000000E+00 -0.00000000000E+00 -0.45593999997E+02  0.45594000000E+02  0.51100000000E-03 0. -1.
         23    2    1    2    0    0  0.00000000000E+00  0.00000000000E+00  0.88817841970E-15  0.91188000000E+02  0.91188000000E+02 0.  0.
    9900012    2    3    3    0    0  0.25401970353E+02  0.25429586921E+02  0.79915386979E+01  0.54366964170E+02  0.39999726419E+02 0.  0.
        -12    1    3    3    0    0 -0.25401970353E+02 -0.25429586921E+02 -0.79915386979E+01  0.36821035830E+02  0.00000000000E+00 0.  1.
         11    1    4    4    0    0  0.22381336989E+01 -0.32067337897E+00 -0.77846799413E+00  0.23912520882E+01  0.51100000000E-03 0. -1.
        -11    1    4    4    0    0  0.22550844706E+02  0.10022348927E+02  0.20712569200E+02  0.32217985630E+02  0.51100000000E-03 0.  1.
        -12    1    4    4    0    0  0.61299194893E+00  0.15727911373E+02 -0.11942562508E+02  0.19757726452E+02  0.00000000000E+00 0.  1.
</event>
<event>
 8    1  0.2458065E-006  0.9118800E+02  0.7816164E-02  0.1184000E+00
        -11   -1    0    0    0    0  0.00000000000E+00  0.00000000000E+00  0.45593999997E+02  0.45594000000E+02  0.51100000000E-03 0.  1.
         11   -1    0    0    0    0 -0.00000000000E+00 -0.00000000000E+00 -0.45593999997E+02  0.45594000000E+02  0.51100000000E-03 0. -1.
         23    2    1    2    0    0  0.17763568394E-14  0.88817841970E-15 -0.71054273576E-14  0.91188000000E+02  0.91188000000E+02 0.  0.
    9900012    2    3    3    0    0  0.57492343763E+01 -0.78273281915E+01  0.35517034457E+02  0.54367075254E+02  0.39999979656E+02 0.  0.
         12    1    3    3    0    0 -0.57492343763E+01  0.78273281915E+01 -0.35517034457E+02  0.36820924746E+02  0.00000000000E+00 0. -1.
         11    1    4    4    0    0  0.98273446769E+00  0.65407350093E+01  0.63251543769E+01  0.91517517257E+01  0.51100000000E-03 0. -1.
        -11    1    4    4    0    0 -0.12187755253E+02 -0.41446506899E+01  0.46591240089E+01  0.13690396059E+02  0.51100000000E-03 0.  1.
         12    1    4    4    0    0  0.16954255162E+02 -0.10223412511E+02  0.24532756072E+02  0.31524927469E+02  0.00000000000E+00 0. -1.
</event>
<event>
 8    1  0.2458065E-006  0.9118800E+02  0.7816164E-02  0.1184000E+00
        -11   -1    0    0    0    0  0.00000000000E+00  0.00000000000E+00  0.45593999997E+02  0.45594000000E+02  0.51100000000E-03 0. -1.
         11   -1    0    0    0    0 -0.00000000000E+00 -0.00000000000E+00 -0.45593999997E+02  0.45594000000E+02  0.51100000000E-03 0.  1.
         23    2    1    2    0    0  0.00000000000E+00  0.17763568394E-14  0.17763568394E-14  0.91188000000E+02  0.91188000000E+02 0.  0.
    9900012    2    3    3    0    0  0.33692109387E+02 -0.80435141834E+01 -0.12486928534E+02  0.54367085568E+02  0.40000003170E+02 0.  0.
         12    1    3    3    0    0 -0.33692109387E+02  0.80435141834E+01  0.12486928534E+02  0.36820914432E+02  0.00000000000E+00 0. -1.
         11    1    4    4    0    0  0.15029908416E+02  0.12834150665E+01  0.12800002372E+01  0.15138814422E+02  0.51100000000E-03 0. -1.
        -11    1    4    4    0    0  0.15627820331E+02  0.15099016415E+01  0.57325680031E+01  0.16714392225E+02  0.51100000000E-03 0.  1.
         12    1    4    4    0    0  0.30343806398E+01 -0.10836830891E+02 -0.19499496775E+02  0.22513878922E+02  0.00000000000E+00 0. -1.
</event>
<event>
 8    1  0.2458065E-006  0.9118800E+02  0.7816164E-02  0.1184000E+00
        -11   -1    0    0    0    0  0.00000000000E+00  0.00000000000E+00  0.45593999997E+02  0.45594000000E+02  0.51100000000E-03 0.  1.
         11   -1    0    0    0    0 -0.00000000000E+00 -0.00000000000E+00 -0.45593999997E+02  0.45594000000E+02  0.51100000000E-03 0. -1.
         23    2    1    2    0    0  0.17763568394E-14  0.00000000000E+00 -0.35527136788E-14  0.91188000000E+02  0.91188000000E+02 0.  0.
    9900012    2    3    3    0    0  0.59098815747E+01 -0.27216810695E+02 -0.24085223541E+02  0.54367089125E+02  0.40000011278E+02 0.  0.
        -12    1    3    3    0    0 -0.59098815747E+01  0.27216810695E+02  0.24085223541E+02  0.36820910875E+02  0.00000000000E+00 0.  1.
         11    1    4    4    0    0 -0.67213774794E+01 -0.68955299576E+01  0.36615419027E+01  0.10302045330E+02  0.51100000000E-03 0. -1.
        -11    1    4    4    0    0  0.24853051485E+01 -0.60604731399E+01 -0.25608740997E+02  0.26433192998E+02  0.51100000000E-03 0.  1.
         12    1    4    4    0    0  0.10145953906E+02 -0.14260807597E+02 -0.21380244467E+01  0.17631850797E+02  0.00000000000E+00 0. -1.
</event>
<event>
 8    1  0.2458065E-006  0.9118800E+02  0.7816164E-02  0.1184000E+00
        -11   -1    0    0    0    0  0.00000000000E+00  0.00000000000E+00  0.45593999997E+02  0.45594000000E+02  0.51100000000E-03 0. -1.
         11   -1    0    0    0    0 -0.00000000000E+00 -0.00000000000E+00 -0.45593999997E+02  0.45594000000E+02  0.51100000000E-03 0.  1.
         23    2    1    2    0    0  0.00000000000E+00  0.00000000000E+00  0.00000000000E+00  0.91188000000E+02  0.91188000000E+02 0.  0.
    9900012    2    3    3    0    0  0.26366636288E+02  0.81117687779E+01  0.24388108872E+02  0.54367079911E+02  0.39999990273E+02 0.  0.
        -12    1    3    3    0    0 -0.26366636288E+02 -0.81117687779E+01 -0.24388108872E+02  0.36820920089E+02  0.00000000000E+00 0.  1.
         11    1    4    4    0    0 -0.19130877038E+01  0.84675693909E+01  0.21309048414E+02  0.23009458501E+02  0.51100000000E-03 0. -1.
        -11    1    4    4    0    0 -0.40178826885E+00 -0.16887564871E+01  0.19672632990E+01  0.26236343942E+01  0.51100000000E-03 0.  1.
         12    1    4    4    0    0  0.28681512260E+02  0.13329558742E+01  0.11117971592E+01  0.28733987016E+02  0.00000000000E+00 0. -1.
</event>
<event>
 8    1  0.2458065E-006  0.9118800E+02  0.7816164E-02  0.1184000E+00
        -11   -1    0    0    0    0  0.00000000000E+00  0.00000000000E+00  0.45593999997E+02  0.45594000000E+02  0.51100000000E-03 0. -1.
         11   -1    0    0    0    0 -0.00000000000E+00 -0.00000000000E+00 -0.45593999997E+02  0.45594000000E+02  0.51100000000E-03 0.  1.
         23    2    1    2    0    0  0.35527136788E-14 -0.71054273576E-14  0.00000000000E+00  0.91188000000E+02  0.91188000000E+02 0.  0.
    9900012    2    3    3    0    0  0.31286183402E+02 -0.19157868728E+02  0.31508420981E+01  0.54367122607E+02  0.40000087606E+02 0.  0.
        -12    1    3    3    0    0 -0.31286183402E+02  0.19157868728E+02 -0.31508420981E+01  0.36820877393E+02  0.00000000000E+00 0.  1.
         11    1    4    4    0    0  0.26267132674E+02  0.31272246680E+01  0.11800353669E+02  0.28965326513E+02  0.51100000000E-03 0. -1.
        -11    1    4    4    0    0 -0.13696039955E+01 -0.18928500026E+01 -0.18386516081E+01  0.29731021230E+01  0.51100000000E-03 0.  1.
         12    1    4    4    0    0  0.63886547236E+01 -0.20392243394E+02 -0.68108599624E+01  0.22428693971E+02  0.00000000000E+00 0. -1.
</event>
<event>
 8    1  0.2458065E-006  0.9118800E+02  0.7816164E-02  0.1184000E+00
        -11   -1    0    0    0    0  0.00000000000E+00  0.00000000000E+00  0.45593999997E+02  0.45594000000E+02  0.51100000000E-03 0.  1.
         11   -1    0    0    0    0 -0.00000000000E+00 -0.00000000000E+00 -0.45593999997E+02  0.45594000000E+02  0.51100000000E-03 0. -1.
         23    2    1    2    0    0  0.00000000000E+00  0.00000000000E+00  0.00000000000E+00  0.91188000000E+02  0.91188000000E+02 0.  0.
    9900012    2    3    3    0    0 -0.40682463284E+01  0.35964699276E+02  0.67652996034E+01  0.54367088810E+02  0.40000010559E+02 0.  0.
        -12    1    3    3    0    0  0.40682463284E+01 -0.35964699276E+02 -0.67652996034E+01  0.36820911190E+02  0.00000000000E+00 0.  1.
         11    1    4    4    0    0 -0.95704726633E+01  0.67651357885E+01  0.40456721876E+01  0.12398728683E+02  0.51100000000E-03 0. -1.
        -11    1    4    4    0    0  0.49095723984E+00 -0.12265533941E+01  0.10161501605E+02  0.10247028222E+02  0.51100000000E-03 0.  1.
         12    1    4    4    0    0  0.50112690951E+01  0.30426116881E+02 -0.74418741893E+01  0.31721331905E+02  0.00000000000E+00 0. -1.
</event>
<event>
 8    1  0.2458065E-006  0.9118800E+02  0.7816164E-02  0.1184000E+00
        -11   -1    0    0    0    0  0.00000000000E+00  0.00000000000E+00  0.45593999997E+02  0.45594000000E+02  0.51100000000E-03 0. -1.
         11   -1    0    0    0    0 -0.00000000000E+00 -0.00000000000E+00 -0.45593999997E+02  0.45594000000E+02  0.51100000000E-03 0.  1.
         23    2    1    2    0    0 -0.17763568394E-14  0.15265566589E-15  0.71054273576E-14  0.91188000000E+02  0.91188000000E+02 0.  0.
    9900012    2    3    3    0    0  0.91899378592E+01  0.88553223020E-01 -0.35655522960E+02  0.54367094022E+02  0.40000022442E+02 0.  0.
         12    1    3    3    0    0 -0.91899378592E+01 -0.88553223020E-01  0.35655522960E+02  0.36820905978E+02  0.00000000000E+00 0. -1.
         11    1    4    4    0    0  0.17643919294E+01  0.73971461742E+01 -0.31323098072E+02  0.32233016047E+02  0.51100000000E-03 0. -1.
        -11    1    4    4    0    0 -0.44615349510E+01  0.31621819649E+01 -0.29992389744E+01  0.62369963592E+01  0.51100000000E-03 0.  1.
        -12    1    4    4    0    0  0.11887080881E+02 -0.10470774916E+02 -0.13331859131E+01  0.15897081615E+02  0.00000000000E+00 0.  1.
</event>
<event>
 8    1  0.2458065E-006  0.9118800E+02  0.7816164E-02  0.1184000E+00
        -11   -1    0    0    0    0  0.00000000000E+00  0.00000000000E+00  0.45593999997E+02  0.45594000000E+02  0.51100000000E-03 0.  1.
         11   -1    0    0    0    0 -0.00000000000E+00 -0.00000000000E+00 -0.45593999997E+02  0.45594000000E+02  0.51100000000E-03 0. -1.
         23    2    1    2    0    0  0.00000000000E+00  0.35527136788E-14  0.35527136788E-14  0.91188000000E+02  0.91188000000E+02 0.  0.
    9900012    2    3    3    0    0  0.80901119231E+01  0.30926366975E+02 -0.18272738408E+02  0.54367040559E+02  0.39999900563E+02 0.  0.
        -12    1    3    3    0    0 -0.80901119231E+01 -0.30926366975E+02  0.18272738408E+02  0.36820959441E+02  0.00000000000E+00 0.  1.
         11    1    4    4    0    0  0.11100450095E+01  0.66641849762E+01 -0.40779637080E+01  0.78913465001E+01  0.51100000000E-03 0. -1.
        -11    1    4    4    0    0  0.11301004266E+02  0.87745643819E+01  0.99782981638E+01  0.17443397376E+02  0.51100000000E-03 0.  1.
        -12    1    4    4    0    0 -0.43209373520E+01  0.15487617617E+02 -0.24173072864E+02  0.29032296684E+02  0.00000000000E+00 0.  1.
</event>
<event>
 8    1  0.2458065E-006  0.9118800E+02  0.7816164E-02  0.1184000E+00
        -11   -1    0    0    0    0  0.00000000000E+00  0.00000000000E+00  0.45593999997E+02  0.45594000000E+02  0.51100000000E-03 0.  1.
         11   -1    0    0    0    0 -0.00000000000E+00 -0.00000000000E+00 -0.45593999997E+02  0.45594000000E+02  0.51100000000E-03 0. -1.
         23    2    1    2    0    0  0.00000000000E+00 -0.35527136788E-14 -0.35527136788E-14  0.91188000000E+02  0.91188000000E+02 0.  0.
    9900012    2    3    3    0    0 -0.24026700827E+02 -0.19235409524E+02 -0.20211305306E+02  0.54367079393E+02  0.39999989091E+02 0.  0.
        -12    1    3    3    0    0  0.24026700827E+02  0.19235409524E+02  0.20211305306E+02  0.36820920607E+02  0.00000000000E+00 0.  1.
         11    1    4    4    0    0 -0.66587533168E+00 -0.13639871200E+02 -0.75574004259E+01  0.15607811434E+02  0.51100000000E-03 0. -1.
        -11    1    4    4    0    0 -0.46652097683E+01  0.92444731652E+01 -0.10573279645E+02  0.14799280692E+02  0.51100000000E-03 0.  1.
        -12    1    4    4    0    0 -0.18695615727E+02 -0.14840011489E+02 -0.20806252347E+01  0.23959987266E+02  0.00000000000E+00 0.  1.
</event>
<event>
 8    1  0.2458065E-006  0.9118800E+02  0.7816164E-02  0.1184000E+00
        -11   -1    0    0    0    0  0.00000000000E+00  0.00000000000E+00  0.45593999997E+02  0.45594000000E+02  0.51100000000E-03 0. -1.
         11   -1    0    0    0    0 -0.00000000000E+00 -0.00000000000E+00 -0.45593999997E+02  0.45594000000E+02  0.51100000000E-03 0.  1.
         23    2    1    2    0    0  0.71054273576E-14  0.00000000000E+00  0.00000000000E+00  0.91188000000E+02  0.91188000000E+02 0.  0.
    9900012    2    3    3    0    0 -0.32338531732E+02  0.17451738868E+02 -0.23314279490E+01  0.54367090446E+02  0.40000014289E+02 0.  0.
         12    1    3    3    0    0  0.32338531732E+02 -0.17451738868E+02  0.23314279490E+01  0.36820909554E+02  0.00000000000E+00 0. -1.
         11    1    4    4    0    0 -0.19611052252E+01  0.46835212896E+01 -0.68800487194E+01  0.85508114244E+01  0.51100000000E-03 0. -1.
        -11    1    4    4    0    0  0.36211118369E+01  0.89103834041E+01 -0.42057428185E+01  0.10497411884E+02  0.51100000000E-03 0.  1.
        -12    1    4    4    0    0 -0.33998538344E+02  0.38578341743E+01  0.87543635889E+01  0.35318867138E+02  0.00000000000E+00 0.  1.
</event>
<event>
 8    1  0.2458065E-006  0.9118800E+02  0.7816164E-02  0.1184000E+00
        -11   -1    0    0    0    0  0.00000000000E+00  0.00000000000E+00  0.45593999997E+02  0.45594000000E+02  0.51100000000E-03 0.  1.
         11   -1    0    0    0    0 -0.00000000000E+00 -0.00000000000E+00 -0.45593999997E+02  0.45594000000E+02  0.51100000000E-03 0. -1.
         23    2    1    2    0    0  0.35527136788E-14  0.35527136788E-14 -0.35527136788E-14  0.91188000000E+02  0.91188000000E+02 0.  0.
    9900012    2    3    3    0    0 -0.19504130649E+02 -0.20395836487E+02  0.23651182980E+02  0.54367085906E+02  0.40000003939E+02 0.  0.
         12    1    3    3    0    0  0.19504130649E+02  0.20395836487E+02 -0.23651182980E+02  0.36820914094E+02  0.00000000000E+00 0. -1.
         11    1    4    4    0    0 -0.23456391400E+02 -0.15461846416E+02  0.20446762088E+01  0.28168274586E+02  0.51100000000E-03 0. -1.
        -11    1    4    4    0    0  0.12089929708E+01 -0.23824253905E+00  0.20638180053E+02  0.20674934091E+02  0.51100000000E-03 0.  1.
        -12    1    4    4    0    0  0.27432677807E+01 -0.46957475321E+01  0.96832671854E+00  0.55238772285E+01  0.00000000000E+00 0.  1.
</event>
<event>
 8    1  0.2458065E-006  0.9118800E+02  0.7816164E-02  0.1184000E+00
        -11   -1    0    0    0    0  0.00000000000E+00  0.00000000000E+00  0.45593999997E+02  0.45594000000E+02  0.51100000000E-03 0. -1.
         11   -1    0    0    0    0 -0.00000000000E+00 -0.00000000000E+00 -0.45593999997E+02  0.45594000000E+02  0.51100000000E-03 0.  1.
         23    2    1    2    0    0  0.00000000000E+00 -0.35527136788E-14  0.35527136788E-14  0.91188000000E+02  0.91188000000E+02 0.  0.
    9900012    2    3    3    0    0  0.32952569402E+01 -0.19977067362E+02  0.30754478573E+02  0.54367083512E+02  0.39999998482E+02 0.  0.
        -12    1    3    3    0    0 -0.32952569402E+01  0.19977067362E+02 -0.30754478573E+02  0.36820916488E+02  0.00000000000E+00 0.  1.
         11    1    4    4    0    0 -0.26739686970E+01  0.58525750804E+01  0.12469679635E+02  0.14031951187E+02  0.51100000000E-03 0. -1.
        -11    1    4    4    0    0 -0.91534652932E+01 -0.90833017686E+01  0.99236467003E+01  0.16271787302E+02  0.51100000000E-03 0.  1.
         12    1    4    4    0    0  0.15122690930E+02 -0.16746340674E+02  0.83611522380E+01  0.24063345023E+02  0.00000000000E+00 0. -1.
</event>
<event>
 8    1  0.2458065E-006  0.9118800E+02  0.7816164E-02  0.1184000E+00
        -11   -1    0    0    0    0  0.00000000000E+00  0.00000000000E+00  0.45593999997E+02  0.45594000000E+02  0.51100000000E-03 0.  1.
         11   -1    0    0    0    0 -0.00000000000E+00 -0.00000000000E+00 -0.45593999997E+02  0.45594000000E+02  0.51100000000E-03 0. -1.
         23    2    1    2    0    0  0.44408920985E-15 -0.35527136788E-14  0.00000000000E+00  0.91188000000E+02  0.91188000000E+02 0.  0.
    9900012    2    3    3    0    0 -0.43042082330E+00  0.16664690025E+02  0.32831121120E+02  0.54367086517E+02  0.40000005333E+02 0.  0.
         12    1    3    3    0    0  0.43042082330E+00 -0.16664690025E+02 -0.32831121120E+02  0.36820913483E+02  0.00000000000E+00 0. -1.
         11    1    4    4    0    0  0.23549777832E+01  0.11627991412E+02  0.22678510546E+02  0.25594353781E+02  0.51100000000E-03 0. -1.
        -11    1    4    4    0    0  0.89396977321E+01  0.62106845434E+01  0.12689854698E+02  0.16718947651E+02  0.51100000000E-03 0.  1.
         12    1    4    4    0    0 -0.11725096339E+02 -0.11739859308E+01 -0.25372441239E+01  0.12053785084E+02  0.00000000000E+00 0. -1.
</event>
<event>
 8    1  0.2458065E-006  0.9118800E+02  0.7816164E-02  0.1184000E+00
        -11   -1    0    0    0    0  0.00000000000E+00  0.00000000000E+00  0.45593999997E+02  0.45594000000E+02  0.51100000000E-03 0.  1.
         11   -1    0    0    0    0 -0.00000000000E+00 -0.00000000000E+00 -0.45593999997E+02  0.45594000000E+02  0.51100000000E-03 0. -1.
         23    2    1    2    0    0  0.00000000000E+00 -0.44408920985E-15  0.00000000000E+00  0.91188000000E+02  0.91188000000E+02 0.  0.
    9900012    2    3    3    0    0 -0.36658715143E+02  0.18334575586E+01  0.29252429898E+01  0.54367081908E+02  0.39999994827E+02 0.  0.
        -12    1    3    3    0    0  0.36658715143E+02 -0.18334575586E+01 -0.29252429898E+01  0.36820918092E+02  0.00000000000E+00 0.  1.
         11    1    4    4    0    0 -0.21530931226E+02  0.36561072176E+01  0.23854810372E+00  0.21840444705E+02  0.51100000000E-03 0. -1.
        -11    1    4    4    0    0 -0.37924534083E+01  0.13113284144E+02  0.65073108734E+00  0.13666176316E+02  0.51100000000E-03 0.  1.
        -12    1    4    4    0    0 -0.11335330508E+02 -0.14935933803E+02  0.20359637988E+01  0.18860460887E+02  0.00000000000E+00 0.  1.
</event>
<event>
 8    1  0.2458065E-006  0.9118800E+02  0.7816164E-02  0.1184000E+00
        -11   -1    0    0    0    0  0.00000000000E+00  0.00000000000E+00  0.45593999997E+02  0.45594000000E+02  0.51100000000E-03 0. -1.
         11   -1    0    0    0    0 -0.00000000000E+00 -0.00000000000E+00 -0.45593999997E+02  0.45594000000E+02  0.51100000000E-03 0.  1.
         23    2    1    2    0    0 -0.71054273576E-14 -0.44408920985E-15  0.17763568394E-14  0.91188000000E+02  0.91188000000E+02 0.  0.
    9900012    2    3    3    0    0 -0.35879844096E+02 -0.10107657280E+01  0.82094134155E+01  0.54367091153E+02  0.40000015901E+02 0.  0.
        -12    1    3    3    0    0  0.35879844096E+02  0.10107657280E+01 -0.82094134155E+01  0.36820908847E+02  0.00000000000E+00 0.  1.
         11    1    4    4    0    0 -0.31696602066E+02  0.34116951812E+00 -0.29211157344E+01  0.31832748806E+02  0.51100000000E-03 0. -1.
        -11    1    4    4    0    0 -0.96080488341E+01 -0.21202360203E+01 -0.31582385253E+00  0.98442748919E+01  0.51100000000E-03 0.  1.
        -12    1    4    4    0    0  0.54248068043E+01  0.76830077415E+00  0.11446353003E+02  0.12690067455E+02  0.00000000000E+00 0.  1.
</event>
<event>
 8    1  0.2458065E-006  0.9118800E+02  0.7816164E-02  0.1184000E+00
        -11   -1    0    0    0    0  0.00000000000E+00  0.00000000000E+00  0.45593999997E+02  0.45594000000E+02  0.51100000000E-03 0. -1.
         11   -1    0    0    0    0 -0.00000000000E+00 -0.00000000000E+00 -0.45593999997E+02  0.45594000000E+02  0.51100000000E-03 0.  1.
         23    2    1    2    0    0  0.22204460493E-15  0.00000000000E+00  0.00000000000E+00  0.91188000000E+02  0.91188000000E+02 0.  0.
    9900012    2    3    3    0    0 -0.11864037366E+01 -0.32875618363E+02  0.16539815684E+02  0.54367091002E+02  0.40000015558E+02 0.  0.
        -12    1    3    3    0    0  0.11864037366E+01  0.32875618363E+02 -0.16539815684E+02  0.36820908998E+02  0.00000000000E+00 0.  1.
         11    1    4    4    0    0 -0.51571711751E+01 -0.13695339300E+01  0.52467343741E+01  0.74833321167E+01  0.51100000000E-03 0. -1.
        -11    1    4    4    0    0 -0.67796397961E+01  0.41856722652E+01  0.11608031492E+00  0.79684906336E+01  0.51100000000E-03 0.  1.
        -12    1    4    4    0    0  0.10750407235E+02 -0.35691756698E+02  0.11177000995E+02  0.38915268252E+02  0.00000000000E+00 0.  1.
</event>
<event>
 8    1  0.2458065E-006  0.9118800E+02  0.7816164E-02  0.1184000E+00
        -11   -1    0    0    0    0  0.00000000000E+00  0.00000000000E+00  0.45593999997E+02  0.45594000000E+02  0.51100000000E-03 0. -1.
         11   -1    0    0    0    0 -0.00000000000E+00 -0.00000000000E+00 -0.45593999997E+02  0.45594000000E+02  0.51100000000E-03 0.  1.
         23    2    1    2    0    0  0.00000000000E+00 -0.35527136788E-14  0.00000000000E+00  0.91188000000E+02  0.91188000000E+02 0.  0.
    9900012    2    3    3    0    0  0.17297193337E+02  0.16207530044E+02  0.28176255004E+02  0.54367105476E+02  0.40000048554E+02 0.  0.
        -12    1    3    3    0    0 -0.17297193337E+02 -0.16207530044E+02 -0.28176255004E+02  0.36820894524E+02  0.00000000000E+00 0.  1.
         11    1    4    4    0    0  0.15037919692E+02  0.16434436428E+02 -0.22031546623E+00  0.22277303888E+02  0.51100000000E-03 0.  1.
        -11    1    4    4    0    0  0.50301419409E+01  0.47492527981E+01  0.23756814109E+02  0.24743563748E+02  0.51100000000E-03 0. -1.
         12    1    4    4    0    0 -0.27708682952E+01 -0.49761591818E+01  0.46397563618E+01  0.73462378405E+01  0.00000000000E+00 0. -1.
</event>
<event>
 8    1  0.2458065E-006  0.9118800E+02  0.7816164E-02  0.1184000E+00
        -11   -1    0    0    0    0  0.00000000000E+00  0.00000000000E+00  0.45593999997E+02  0.45594000000E+02  0.51100000000E-03 0. -1.
         11   -1    0    0    0    0 -0.00000000000E+00 -0.00000000000E+00 -0.45593999997E+02  0.45594000000E+02  0.51100000000E-03 0.  1.
         23    2    1    2    0    0 -0.53290705182E-14  0.00000000000E+00  0.35527136788E-14  0.91188000000E+02  0.91188000000E+02 0.  0.
    9900012    2    3    3    0    0 -0.13257212320E+02 -0.18185714628E+02  0.29142862770E+02  0.54367077341E+02  0.39999984414E+02 0.  0.
        -12    1    3    3    0    0  0.13257212320E+02  0.18185714628E+02 -0.29142862770E+02  0.36820922659E+02  0.00000000000E+00 0.  1.
         11    1    4    4    0    0 -0.99376822342E+01 -0.10298372502E+02  0.11810976812E+02  0.18555677780E+02  0.51100000000E-03 0. -1.
        -11    1    4    4    0    0  0.85306401302E+01 -0.70540456326E+01  0.20691231138E+02  0.23466112313E+02  0.51100000000E-03 0.  1.
        -12    1    4    4    0    0 -0.11850170216E+02 -0.83329649364E+00 -0.33593451797E+01  0.12345287248E+02  0.00000000000E+00 0.  1.
</event>
<event>
 8    1  0.2458065E-006  0.9118800E+02  0.7816164E-02  0.1184000E+00
        -11   -1    0    0    0    0  0.00000000000E+00  0.00000000000E+00  0.45593999997E+02  0.45594000000E+02  0.51100000000E-03 0.  1.
         11   -1    0    0    0    0 -0.00000000000E+00 -0.00000000000E+00 -0.45593999997E+02  0.45594000000E+02  0.51100000000E-03 0. -1.
         23    2    1    2    0    0  0.17763568394E-14 -0.44408920985E-15  0.00000000000E+00  0.91188000000E+02  0.91188000000E+02 0.  0.
    9900012    2    3    3    0    0 -0.10606437020E+02 -0.31190834364E+01 -0.35121989782E+02  0.54367090804E+02  0.40000015105E+02 0.  0.
        -12    1    3    3    0    0  0.10606437020E+02  0.31190834364E+01  0.35121989782E+02  0.36820909196E+02  0.00000000000E+00 0.  1.
         11    1    4    4    0    0 -0.25033886744E+01 -0.18931813853E+02 -0.15479354016E+02  0.24582329663E+02  0.51100000000E-03 0. -1.
        -11    1    4    4    0    0  0.87967829065E+00  0.38816834618E+01  0.11880039520E+01  0.41536314285E+01  0.51100000000E-03 0.  1.
         12    1    4    4    0    0 -0.89827266367E+01  0.11931046955E+02 -0.20830639719E+02  0.25631129713E+02  0.00000000000E+00 0. -1.
</event>
<event>
 8    1  0.2458065E-006  0.9118800E+02  0.7816164E-02  0.1184000E+00
        -11   -1    0    0    0    0  0.00000000000E+00  0.00000000000E+00  0.45593999997E+02  0.45594000000E+02  0.51100000000E-03 0.  1.
         11   -1    0    0    0    0 -0.00000000000E+00 -0.00000000000E+00 -0.45593999997E+02  0.45594000000E+02  0.51100000000E-03 0. -1.
         23    2    1    2    0    0 -0.35527136788E-14 -0.17763568394E-14  0.00000000000E+00  0.91188000000E+02  0.91188000000E+02 0.  0.
    9900012    2    3    3    0    0  0.20672504508E+02  0.91856331938E+01 -0.29052581872E+02  0.54367070989E+02  0.39999969933E+02 0.  0.
        -12    1    3    3    0    0 -0.20672504508E+02 -0.91856331938E+01  0.29052581872E+02  0.36820929011E+02  0.00000000000E+00 0.  1.
         11    1    4    4    0    0  0.23055565550E+02  0.42412628069E+01 -0.10006037159E+02  0.25488589465E+02  0.51100000000E-03 0. -1.
        -11    1    4    4    0    0 -0.78156594268E+01 -0.11607805648E+01 -0.19138800818E+02  0.20705691025E+02  0.51100000000E-03 0.  1.
        -12    1    4    4    0    0  0.54325983854E+01  0.61051509517E+01  0.92256105156E-01  0.81727904995E+01  0.00000000000E+00 0.  1.
</event>
<event>
 8    1  0.2458065E-006  0.9118800E+02  0.7816164E-02  0.1184000E+00
        -11   -1    0    0    0    0  0.00000000000E+00  0.00000000000E+00  0.45593999997E+02  0.45594000000E+02  0.51100000000E-03 0. -1.
         11   -1    0    0    0    0 -0.00000000000E+00 -0.00000000000E+00 -0.45593999997E+02  0.45594000000E+02  0.51100000000E-03 0.  1.
         23    2    1    2    0    0  0.00000000000E+00  0.00000000000E+00  0.35527136788E-14  0.91188000000E+02  0.91188000000E+02 0.  0.
    9900012    2    3    3    0    0  0.11428012747E+02 -0.23692075189E+02  0.25765598372E+02  0.54367082553E+02  0.39999996297E+02 0.  0.
        -12    1    3    3    0    0 -0.11428012747E+02  0.23692075189E+02 -0.25765598372E+02  0.36820917447E+02  0.00000000000E+00 0.  1.
         11    1    4    4    0    0  0.60486172698E+00  0.42483285346E+01 -0.10938919512E+01  0.44284029750E+01  0.51100000000E-03 0. -1.
        -11    1    4    4    0    0  0.69665638678E+01  0.20404347985E+00 -0.39666636097E+01  0.80192933804E+01  0.51100000000E-03 0.  1.
         12    1    4    4    0    0  0.38565871525E+01 -0.28144447204E+02  0.30826153933E+02  0.41919386198E+02  0.00000000000E+00 0. -1.
</event>
<event>
 8    1  0.2458065E-006  0.9118800E+02  0.7816164E-02  0.1184000E+00
        -11   -1    0    0    0    0  0.00000000000E+00  0.00000000000E+00  0.45593999997E+02  0.45594000000E+02  0.51100000000E-03 0. -1.
         11   -1    0    0    0    0 -0.00000000000E+00 -0.00000000000E+00 -0.45593999997E+02  0.45594000000E+02  0.51100000000E-03 0.  1.
         23    2    1    2    0    0  0.35527136788E-14  0.00000000000E+00  0.35527136788E-14  0.91188000000E+02  0.91188000000E+02 0.  0.
    9900012    2    3    3    0    0 -0.20226280402E+02 -0.24261271073E+02 -0.18922687975E+02  0.54367084569E+02  0.40000000892E+02 0.  0.
         12    1    3    3    0    0  0.20226280402E+02  0.24261271073E+02  0.18922687975E+02  0.36820915431E+02  0.00000000000E+00 0. -1.
         11    1    4    4    0    0  0.25410540992E+01 -0.49720609478E+01 -0.57079325404E+00  0.56128558866E+01  0.51100000000E-03 0. -1.
        -11    1    4    4    0    0 -0.25536302341E+02 -0.48421076273E+01 -0.10060500954E+01  0.26010783929E+02  0.51100000000E-03 0.  1.
        -12    1    4    4    0    0  0.27689678405E+01 -0.14447102498E+02 -0.17345844626E+02  0.22743444754E+02  0.00000000000E+00 0.  1.
</event>
<event>
 8    1  0.2458065E-006  0.9118800E+02  0.7816164E-02  0.1184000E+00
        -11   -1    0    0    0    0  0.00000000000E+00  0.00000000000E+00  0.45593999997E+02  0.45594000000E+02  0.51100000000E-03 0. -1.
         11   -1    0    0    0    0 -0.00000000000E+00 -0.00000000000E+00 -0.45593999997E+02  0.45594000000E+02  0.51100000000E-03 0.  1.
         23    2    1    2    0    0 -0.71054273576E-14  0.00000000000E+00  0.00000000000E+00  0.91188000000E+02  0.91188000000E+02 0.  0.
    9900012    2    3    3    0    0 -0.32342790303E+02 -0.65051558986E+00 -0.17586964063E+02  0.54367074427E+02  0.39999977771E+02 0.  0.
         12    1    3    3    0    0  0.32342790303E+02  0.65051558986E+00  0.17586964063E+02  0.36820925573E+02  0.00000000000E+00 0. -1.
         11    1    4    4    0    0  0.29118690058E+01 -0.12623271074E+01 -0.10934327376E+02  0.11385603465E+02  0.51100000000E-03 0. -1.
        -11    1    4    4    0    0 -0.78586784463E+01  0.15497359427E+01 -0.12601098863E+02  0.14931450071E+02  0.51100000000E-03 0.  1.
         12    1    4    4    0    0 -0.27395980863E+02 -0.93792442522E+00  0.59484621771E+01  0.28050020890E+02  0.00000000000E+00 0. -1.
</event>
<event>
 8    1  0.2458065E-006  0.9118800E+02  0.7816164E-02  0.1184000E+00
        -11   -1    0    0    0    0  0.00000000000E+00  0.00000000000E+00  0.45593999997E+02  0.45594000000E+02  0.51100000000E-03 0. -1.
         11   -1    0    0    0    0 -0.00000000000E+00 -0.00000000000E+00 -0.45593999997E+02  0.45594000000E+02  0.51100000000E-03 0.  1.
         23    2    1    2    0    0 -0.35527136788E-14  0.00000000000E+00 -0.35527136788E-14  0.91188000000E+02  0.91188000000E+02 0.  0.
    9900012    2    3    3    0    0 -0.25082899115E+02 -0.10701596450E+02  0.24740732242E+02  0.54367084389E+02  0.40000000481E+02 0.  0.
        -12    1    3    3    0    0  0.25082899115E+02  0.10701596450E+02 -0.24740732242E+02  0.36820915611E+02  0.00000000000E+00 0.  1.
         11    1    4    4    0    0  0.79785782828E+01 -0.56969807433E+01  0.21276839278E+01  0.10031965917E+02  0.51100000000E-03 0. -1.
        -11    1    4    4    0    0 -0.35285585639E+01  0.18590181155E+01  0.11283323043E+02  0.11967458086E+02  0.51100000000E-03 0.  1.
        -12    1    4    4    0    0 -0.29532918834E+02 -0.68636338223E+01  0.11329725271E+02  0.32367660385E+02  0.00000000000E+00 0.  1.
</event>
<event>
 8    1  0.2458065E-006  0.9118800E+02  0.7816164E-02  0.1184000E+00
        -11   -1    0    0    0    0  0.00000000000E+00  0.00000000000E+00  0.45593999997E+02  0.45594000000E+02  0.51100000000E-03 0. -1.
         11   -1    0    0    0    0 -0.00000000000E+00 -0.00000000000E+00 -0.45593999997E+02  0.45594000000E+02  0.51100000000E-03 0.  1.
         23    2    1    2    0    0  0.00000000000E+00  0.00000000000E+00  0.00000000000E+00  0.91188000000E+02  0.91188000000E+02 0.  0.
    9900012    2    3    3    0    0  0.35783436712E+02 -0.19198698111E+01  0.84640785373E+01  0.54367070238E+02  0.39999968222E+02 0.  0.
        -12    1    3    3    0    0 -0.35783436712E+02  0.19198698111E+01 -0.84640785373E+01  0.36820929762E+02  0.00000000000E+00 0.  1.
         11    1    4    4    0    0  0.24217256965E+02  0.11902202187E+01  0.11052063466E+02  0.26646580760E+02  0.51100000000E-03 0. -1.
        -11    1    4    4    0    0  0.17473463458E+02 -0.50705992507E+00  0.45833208086E+01  0.18071686830E+02  0.51100000000E-03 0.  1.
        -12    1    4    4    0    0 -0.59072837110E+01 -0.26030301048E+01 -0.71713057371E+01  0.96488026482E+01  0.00000000000E+00 0.  1.
</event>
<event>
 8    1  0.2458065E-006  0.9118800E+02  0.7816164E-02  0.1184000E+00
        -11   -1    0    0    0    0  0.00000000000E+00  0.00000000000E+00  0.45593999997E+02  0.45594000000E+02  0.51100000000E-03 0. -1.
         11   -1    0    0    0    0 -0.00000000000E+00 -0.00000000000E+00 -0.45593999997E+02  0.45594000000E+02  0.51100000000E-03 0.  1.
         23    2    1    2    0    0  0.35527136788E-14  0.00000000000E+00  0.00000000000E+00  0.91188000000E+02  0.91188000000E+02 0.  0.
    9900012    2    3    3    0    0 -0.16733022184E+02  0.56010043151E+01  0.32317402082E+02  0.54367085317E+02  0.40000002598E+02 0.  0.
        -12    1    3    3    0    0  0.16733022184E+02 -0.56010043151E+01 -0.32317402082E+02  0.36820914683E+02  0.00000000000E+00 0.  1.
         11    1    4    4    0    0 -0.90445218056E+01  0.21021735390E+01  0.63227671425E+01  0.11233872568E+02  0.51100000000E-03 0. -1.
        -11    1    4    4    0    0 -0.17716540226E+02  0.31942079641E+01  0.32758631322E+01  0.18297815215E+02  0.51100000000E-03 0.  1.
         12    1    4    4    0    0  0.10028039848E+02  0.30462281201E+00  0.22718771807E+02  0.24835397534E+02  0.00000000000E+00 0. -1.
</event>
<event>
 8    1  0.2458065E-006  0.9118800E+02  0.7816164E-02  0.1184000E+00
        -11   -1    0    0    0    0  0.00000000000E+00  0.00000000000E+00  0.45593999997E+02  0.45594000000E+02  0.51100000000E-03 0.  1.
         11   -1    0    0    0    0 -0.00000000000E+00 -0.00000000000E+00 -0.45593999997E+02  0.45594000000E+02  0.51100000000E-03 0. -1.
         23    2    1    2    0    0  0.00000000000E+00 -0.17763568394E-14  0.00000000000E+00  0.91188000000E+02  0.91188000000E+02 0.  0.
    9900012    2    3    3    0    0  0.10579714519E+02  0.90967436362E+01 -0.34074901583E+02  0.54367081734E+02  0.39999994428E+02 0.  0.
        -12    1    3    3    0    0 -0.10579714519E+02 -0.90967436362E+01  0.34074901583E+02  0.36820918266E+02  0.00000000000E+00 0.  1.
         11    1    4    4    0    0  0.60396876578E+01  0.19699380789E+02 -0.22817571714E+02  0.30743861332E+02  0.51100000000E-03 0. -1.
        -11    1    4    4    0    0 -0.48863096999E+00  0.38230349151E+01  0.10621376446E+01  0.39978110041E+01  0.51100000000E-03 0.  1.
        -12    1    4    4    0    0  0.50286578316E+01 -0.14425672067E+02 -0.12319467514E+02  0.19625409397E+02  0.00000000000E+00 0.  1.
</event>
<event>
 8    1  0.2458065E-006  0.9118800E+02  0.7816164E-02  0.1184000E+00
        -11   -1    0    0    0    0  0.00000000000E+00  0.00000000000E+00  0.45593999997E+02  0.45594000000E+02  0.51100000000E-03 0.  1.
         11   -1    0    0    0    0 -0.00000000000E+00 -0.00000000000E+00 -0.45593999997E+02  0.45594000000E+02  0.51100000000E-03 0. -1.
         23    2    1    2    0    0  0.35527136788E-14  0.00000000000E+00 -0.35527136788E-14  0.91188000000E+02  0.91188000000E+02 0.  0.
    9900012    2    3    3    0    0 -0.28970938116E+02 -0.11328671210E+02  0.19700904012E+02  0.54367086573E+02  0.40000005461E+02 0.  0.
         12    1    3    3    0    0  0.28970938116E+02  0.11328671210E+02 -0.19700904012E+02  0.36820913427E+02  0.00000000000E+00 0. -1.
         11    1    4    4    0    0 -0.18435703104E+02  0.65905329899E+01  0.11241876529E+01  0.19610560221E+02  0.51100000000E-03 0. -1.
        -11    1    4    4    0    0  0.53409822875E+01 -0.30198616056E+00  0.55097034249E+01  0.76794608878E+01  0.51100000000E-03 0.  1.
        -12    1    4    4    0    0 -0.15876217299E+02 -0.17617218039E+02  0.13067012934E+02  0.27077065465E+02  0.00000000000E+00 0.  1.
</event>
<event>
 8    1  0.2458065E-006  0.9118800E+02  0.7816164E-02  0.1184000E+00
        -11   -1    0    0    0    0  0.00000000000E+00  0.00000000000E+00  0.45593999997E+02  0.45594000000E+02  0.51100000000E-03 0.  1.
         11   -1    0    0    0    0 -0.00000000000E+00 -0.00000000000E+00 -0.45593999997E+02  0.45594000000E+02  0.51100000000E-03 0. -1.
         23    2    1    2    0    0  0.35527136788E-14  0.88817841970E-15  0.35527136788E-14  0.91188000000E+02  0.91188000000E+02 0.  0.
    9900012    2    3    3    0    0 -0.28693019179E+02  0.49565618690E+01 -0.22537148767E+02  0.54367082987E+02  0.39999997285E+02 0.  0.
         12    1    3    3    0    0  0.28693019179E+02 -0.49565618690E+01  0.22537148767E+02  0.36820917013E+02  0.00000000000E+00 0. -1.
         11    1    4    4    0    0 -0.19564886978E+02  0.12657227946E+02 -0.19407080015E+02  0.30325319070E+02  0.51100000000E-03 0. -1.
        -11    1    4    4    0    0 -0.23320049548E+00 -0.87724451121E+00  0.81135538303E+01  0.81641715086E+01  0.51100000000E-03 0.  1.
        -12    1    4    4    0    0 -0.88949317052E+01 -0.68234215658E+01 -0.11243622582E+02  0.15877592408E+02  0.00000000000E+00 0.  1.
</event>
<event>
 8    1  0.2458065E-006  0.9118800E+02  0.7816164E-02  0.1184000E+00
        -11   -1    0    0    0    0  0.00000000000E+00  0.00000000000E+00  0.45593999997E+02  0.45594000000E+02  0.51100000000E-03 0. -1.
         11   -1    0    0    0    0 -0.00000000000E+00 -0.00000000000E+00 -0.45593999997E+02  0.45594000000E+02  0.51100000000E-03 0.  1.
         23    2    1    2    0    0  0.00000000000E+00  0.00000000000E+00  0.35527136788E-14  0.91188000000E+02  0.91188000000E+02 0.  0.
    9900012    2    3    3    0    0  0.20037475135E+02 -0.23230361657E+02 -0.20362347043E+02  0.54367145996E+02  0.40000140926E+02 0.  0.
         12    1    3    3    0    0 -0.20037475135E+02  0.23230361657E+02  0.20362347043E+02  0.36820854004E+02  0.00000000000E+00 0. -1.
         11    1    4    4    0    0  0.19163189769E+02 -0.19174615133E+01 -0.11287444506E+02  0.22322878500E+02  0.51100000000E-03 0. -1.
        -11    1    4    4    0    0 -0.58887034475E+00 -0.89087239748E+01  0.72417328066E+01  0.11495861231E+02  0.51100000000E-03 0.  1.
        -12    1    4    4    0    0  0.14631557105E+01 -0.12404176169E+02 -0.16316635344E+02  0.20548406264E+02  0.00000000000E+00 0.  1.
</event>
<event>
 8    1  0.2458065E-006  0.9118800E+02  0.7816164E-02  0.1184000E+00
        -11   -1    0    0    0    0  0.00000000000E+00  0.00000000000E+00  0.45593999997E+02  0.45594000000E+02  0.51100000000E-03 0. -1.
         11   -1    0    0    0    0 -0.00000000000E+00 -0.00000000000E+00 -0.45593999997E+02  0.45594000000E+02  0.51100000000E-03 0.  1.
         23    2    1    2    0    0  0.88817841970E-15  0.00000000000E+00  0.00000000000E+00  0.91188000000E+02  0.91188000000E+02 0.  0.
    9900012    2    3    3    0    0 -0.62439815694E+01 -0.57562040377E+01 -0.35828182583E+02  0.54367083960E+02  0.39999999505E+02 0.  0.
         12    1    3    3    0    0  0.62439815694E+01  0.57562040377E+01  0.35828182583E+02  0.36820916040E+02  0.00000000000E+00 0. -1.
         11    1    4    4    0    0 -0.37879456149E+01 -0.15372201799E+02 -0.82970920834E+01  0.17874419080E+02  0.51100000000E-03 0. -1.
        -11    1    4    4    0    0  0.29322421835E+01 -0.64062380006E+01 -0.83941065014E+01  0.10958966820E+02  0.51100000000E-03 0.  1.
         12    1    4    4    0    0 -0.53882781380E+01  0.16022235762E+02 -0.19136983999E+02  0.25533698061E+02  0.00000000000E+00 0. -1.
</event>
<event>
 8    1  0.2458065E-006  0.9118800E+02  0.7816164E-02  0.1184000E+00
        -11   -1    0    0    0    0  0.00000000000E+00  0.00000000000E+00  0.45593999997E+02  0.45594000000E+02  0.51100000000E-03 0.  1.
         11   -1    0    0    0    0 -0.00000000000E+00 -0.00000000000E+00 -0.45593999997E+02  0.45594000000E+02  0.51100000000E-03 0. -1.
         23    2    1    2    0    0  0.00000000000E+00  0.00000000000E+00  0.00000000000E+00  0.91188000000E+02  0.91188000000E+02 0.  0.
    9900012    2    3    3    0    0 -0.26336180532E+02 -0.65987482979E+01 -0.24872470879E+02  0.54367113377E+02  0.40000066565E+02 0.  0.
        -12    1    3    3    0    0  0.26336180532E+02  0.65987482979E+01  0.24872470879E+02  0.36820886623E+02  0.00000000000E+00 0.  1.
         11    1    4    4    0    0 -0.70933417437E+01 -0.14763534365E+02 -0.22657284737E+02  0.27957646467E+02  0.51100000000E-03 0. -1.
        -11    1    4    4    0    0  0.25885312966E+01  0.79534252115E+00 -0.20006072561E+01  0.33668224862E+01  0.51100000000E-03 0.  1.
        -12    1    4    4    0    0 -0.21831370085E+02  0.73694435458E+01 -0.21457888575E+00  0.23042644424E+02  0.00000000000E+00 0.  1.
</event>
<event>
 8    1  0.2458065E-006  0.9118800E+02  0.7816164E-02  0.1184000E+00
        -11   -1    0    0    0    0  0.00000000000E+00  0.00000000000E+00  0.45593999997E+02  0.45594000000E+02  0.51100000000E-03 0. -1.
         11   -1    0    0    0    0 -0.00000000000E+00 -0.00000000000E+00 -0.45593999997E+02  0.45594000000E+02  0.51100000000E-03 0.  1.
         23    2    1    2    0    0 -0.35527136788E-14  0.44408920985E-15 -0.35527136788E-14  0.91188000000E+02  0.91188000000E+02 0.  0.
    9900012    2    3    3    0    0  0.31083379358E+02  0.32295745328E+01  0.19472376616E+02  0.54367081013E+02  0.39999992786E+02 0.  0.
        -12    1    3    3    0    0 -0.31083379358E+02 -0.32295745328E+01 -0.19472376616E+02  0.36820918987E+02  0.00000000000E+00 0.  1.
         11    1    4    4    0    0 -0.29297683469E+00 -0.54109734507E+01  0.74656543719E+01  0.92249913047E+01  0.51100000000E-03 0. -1.
        -11    1    4    4    0    0 -0.23917885060E+01 -0.90953716571E+00  0.96354559232E+01  0.99694493941E+01  0.51100000000E-03 0.  1.
         12    1    4    4    0    0  0.33768144698E+02  0.95500851492E+01  0.23712663206E+01  0.35172640315E+02  0.00000000000E+00 0. -1.
</event>
<event>
 8    1  0.2458065E-006  0.9118800E+02  0.7816164E-02  0.1184000E+00
        -11   -1    0    0    0    0  0.00000000000E+00  0.00000000000E+00  0.45593999997E+02  0.45594000000E+02  0.51100000000E-03 0.  1.
         11   -1    0    0    0    0 -0.00000000000E+00 -0.00000000000E+00 -0.45593999997E+02  0.45594000000E+02  0.51100000000E-03 0. -1.
         23    2    1    2    0    0  0.00000000000E+00 -0.71054273576E-14  0.00000000000E+00  0.91188000000E+02  0.91188000000E+02 0.  0.
    9900012    2    3    3    0    0  0.37326829769E+01 -0.34910146989E+02 -0.11096303463E+02  0.54367092413E+02  0.40000018773E+02 0.  0.
        -12    1    3    3    0    0 -0.37326829769E+01  0.34910146989E+02  0.11096303463E+02  0.36820907587E+02  0.00000000000E+00 0.  1.
         11    1    4    4    0    0  0.11610703560E+02 -0.42633212376E+00 -0.21666487493E+01  0.11818822417E+02  0.51100000000E-03 0. -1.
        -11    1    4    4    0    0  0.16756495599E+01 -0.27059001422E+02  0.64515724313E+00  0.27118510054E+02  0.51100000000E-03 0.  1.
         12    1    4    4    0    0 -0.95536701435E+01 -0.74248134434E+01 -0.95748119565E+01  0.15429759942E+02  0.00000000000E+00 0. -1.
</event>
<event>
 8    1  0.2458065E-006  0.9118800E+02  0.7816164E-02  0.1184000E+00
        -11   -1    0    0    0    0  0.00000000000E+00  0.00000000000E+00  0.45593999997E+02  0.45594000000E+02  0.51100000000E-03 0. -1.
         11   -1    0    0    0    0 -0.00000000000E+00 -0.00000000000E+00 -0.45593999997E+02  0.45594000000E+02  0.51100000000E-03 0.  1.
         23    2    1    2    0    0 -0.88817841970E-15  0.35527136788E-14  0.00000000000E+00  0.91188000000E+02  0.91188000000E+02 0.  0.
    9900012    2    3    3    0    0 -0.60625858138E+01  0.31236636007E+02  0.18528287211E+02  0.54367084711E+02  0.40000001215E+02 0.  0.
        -12    1    3    3    0    0  0.60625858138E+01 -0.31236636007E+02 -0.18528287211E+02  0.36820915289E+02  0.00000000000E+00 0.  1.
         11    1    4    4    0    0 -0.18166113490E+01 -0.63412361944E+01 -0.93037625022E+00  0.66616029223E+01  0.51100000000E-03 0. -1.
        -11    1    4    4    0    0  0.37274391419E+00  0.22178874090E+01 -0.43018808252E+01  0.48542910378E+01  0.51100000000E-03 0.  1.
         12    1    4    4    0    0 -0.46187183790E+01  0.35359984792E+02  0.23760544286E+02  0.42851190751E+02  0.00000000000E+00 0. -1.
</event>
<event>
 8    1  0.2458065E-006  0.9118800E+02  0.7816164E-02  0.1184000E+00
        -11   -1    0    0    0    0  0.00000000000E+00  0.00000000000E+00  0.45593999997E+02  0.45594000000E+02  0.51100000000E-03 0.  1.
         11   -1    0    0    0    0 -0.00000000000E+00 -0.00000000000E+00 -0.45593999997E+02  0.45594000000E+02  0.51100000000E-03 0. -1.
         23    2    1    2    0    0  0.00000000000E+00  0.17763568394E-14  0.00000000000E+00  0.91188000000E+02  0.91188000000E+02 0.  0.
    9900012    2    3    3    0    0 -0.33310985083E+02 -0.11533675095E+02  0.10636389657E+02  0.54367079678E+02  0.39999989742E+02 0.  0.
         12    1    3    3    0    0  0.33310985083E+02  0.11533675095E+02 -0.10636389657E+02  0.36820920322E+02  0.00000000000E+00 0. -1.
         11    1    4    4    0    0 -0.59746724387E+01 -0.61554124296E+01 -0.16343261177E+01  0.87325159633E+01  0.51100000000E-03 0.  1.
        -11    1    4    4    0    0 -0.10980985967E+02  0.93713115510E+01 -0.72953096388E+01  0.16174828468E+02  0.51100000000E-03 0. -1.
        -12    1    4    4    0    0 -0.16355326678E+02 -0.14749574216E+02  0.19566025414E+02  0.29459735247E+02  0.00000000000E+00 0.  1.
</event>
<event>
 8    1  0.2458065E-006  0.9118800E+02  0.7816164E-02  0.1184000E+00
        -11   -1    0    0    0    0  0.00000000000E+00  0.00000000000E+00  0.45593999997E+02  0.45594000000E+02  0.51100000000E-03 0.  1.
         11   -1    0    0    0    0 -0.00000000000E+00 -0.00000000000E+00 -0.45593999997E+02  0.45594000000E+02  0.51100000000E-03 0. -1.
         23    2    1    2    0    0  0.00000000000E+00  0.00000000000E+00  0.00000000000E+00  0.91188000000E+02  0.91188000000E+02 0.  0.
    9900012    2    3    3    0    0 -0.56048460307E+00  0.11357397101E+02 -0.35021082648E+02  0.54367070602E+02  0.39999969052E+02 0.  0.
        -12    1    3    3    0    0  0.56048460307E+00 -0.11357397101E+02  0.35021082648E+02  0.36820929398E+02  0.00000000000E+00 0.  1.
         11    1    4    4    0    0 -0.74629062610E+01 -0.38840893565E+01 -0.97686801588E+01  0.12892177174E+02  0.51100000000E-03 0. -1.
        -11    1    4    4    0    0  0.19819613588E+01  0.12765656179E+02 -0.30957376668E+02  0.33544736084E+02  0.51100000000E-03 0.  1.
        -12    1    4    4    0    0  0.49204602991E+01  0.24758302785E+01  0.57049741790E+01  0.79301573443E+01  0.00000000000E+00 0.  1.
</event>
<event>
 8    1  0.2458065E-006  0.9118800E+02  0.7816164E-02  0.1184000E+00
        -11   -1    0    0    0    0  0.00000000000E+00  0.00000000000E+00  0.45593999997E+02  0.45594000000E+02  0.51100000000E-03 0.  1.
         11   -1    0    0    0    0 -0.00000000000E+00 -0.00000000000E+00 -0.45593999997E+02  0.45594000000E+02  0.51100000000E-03 0. -1.
         23    2    1    2    0    0  0.00000000000E+00 -0.35527136788E-14  0.00000000000E+00  0.91188000000E+02  0.91188000000E+02 0.  0.
    9900012    2    3    3    0    0 -0.18498697813E+02  0.25490962866E+02  0.19073238389E+02  0.54367089755E+02  0.40000012714E+02 0.  0.
         12    1    3    3    0    0  0.18498697813E+02 -0.25490962866E+02 -0.19073238389E+02  0.36820910245E+02  0.00000000000E+00 0. -1.
         11    1    4    4    0    0 -0.22938975457E+01 -0.18444778350E+01 -0.66567867802E+01  0.72785214798E+01  0.51100000000E-03 0. -1.
        -11    1    4    4    0    0 -0.16449283233E+02  0.27563880826E+02  0.13448396087E+02  0.34802382140E+02  0.51100000000E-03 0.  1.
         12    1    4    4    0    0  0.24448296492E+00 -0.22844012493E+00  0.12281629083E+02  0.12286186135E+02  0.00000000000E+00 0. -1.
</event>
<event>
 8    1  0.2458065E-006  0.9118800E+02  0.7816164E-02  0.1184000E+00
        -11   -1    0    0    0    0  0.00000000000E+00  0.00000000000E+00  0.45593999997E+02  0.45594000000E+02  0.51100000000E-03 0.  1.
         11   -1    0    0    0    0 -0.00000000000E+00 -0.00000000000E+00 -0.45593999997E+02  0.45594000000E+02  0.51100000000E-03 0. -1.
         23    2    1    2    0    0  0.00000000000E+00  0.00000000000E+00  0.00000000000E+00  0.91188000000E+02  0.91188000000E+02 0.  0.
    9900012    2    3    3    0    0  0.21792811858E+02  0.20006353892E+02  0.21922559098E+02  0.54367089607E+02  0.40000012378E+02 0.  0.
         12    1    3    3    0    0 -0.21792811858E+02 -0.20006353892E+02 -0.21922559098E+02  0.36820910393E+02  0.00000000000E+00 0. -1.
         11    1    4    4    0    0  0.19630819664E+02  0.13923469132E+02  0.23169319048E+02  0.33407325825E+02  0.51100000000E-03 0. -1.
        -11    1    4    4    0    0  0.87360338282E-01  0.13333710857E+02 -0.12193120115E+00  0.13334554530E+02  0.51100000000E-03 0.  1.
         12    1    4    4    0    0  0.20746318553E+01 -0.72508260970E+01 -0.11248287486E+01  0.76252092521E+01  0.00000000000E+00 0. -1.
</event>
<event>
 8    1  0.2458065E-006  0.9118800E+02  0.7816164E-02  0.1184000E+00
        -11   -1    0    0    0    0  0.00000000000E+00  0.00000000000E+00  0.45593999997E+02  0.45594000000E+02  0.51100000000E-03 0.  1.
         11   -1    0    0    0    0 -0.00000000000E+00 -0.00000000000E+00 -0.45593999997E+02  0.45594000000E+02  0.51100000000E-03 0. -1.
         23    2    1    2    0    0  0.00000000000E+00 -0.22204460493E-15  0.17763568394E-14  0.91188000000E+02  0.91188000000E+02 0.  0.
    9900012    2    3    3    0    0 -0.33390900593E+02 -0.19925519002E+01 -0.15390268893E+02  0.54367042896E+02  0.39999905889E+02 0.  0.
        -12    1    3    3    0    0  0.33390900593E+02  0.19925519002E+01  0.15390268893E+02  0.36820957104E+02  0.00000000000E+00 0.  1.
         11    1    4    4    0    0 -0.14773388910E+02  0.19936675422E+01 -0.26478688172E+02  0.30386652624E+02  0.51100000000E-03 0. -1.
        -11    1    4    4    0    0 -0.59722455969E+01 -0.39000522703E+01  0.84579602670E+01  0.11064141057E+02  0.51100000000E-03 0.  1.
         12    1    4    4    0    0 -0.12645266086E+02 -0.86167172161E-01  0.26304590116E+01  0.12916249215E+02  0.00000000000E+00 0. -1.
</event>
<event>
 8    1  0.2458065E-006  0.9118800E+02  0.7816164E-02  0.1184000E+00
        -11   -1    0    0    0    0  0.00000000000E+00  0.00000000000E+00  0.45593999997E+02  0.45594000000E+02  0.51100000000E-03 0. -1.
         11   -1    0    0    0    0 -0.00000000000E+00 -0.00000000000E+00 -0.45593999997E+02  0.45594000000E+02  0.51100000000E-03 0.  1.
         23    2    1    2    0    0 -0.88817841970E-15 -0.44408920985E-15  0.00000000000E+00  0.91188000000E+02  0.91188000000E+02 0.  0.
    9900012    2    3    3    0    0  0.41471083259E+01  0.28930476980E+01  0.36472062263E+02  0.54367088032E+02  0.40000008787E+02 0.  0.
        -12    1    3    3    0    0 -0.41471083259E+01 -0.28930476980E+01 -0.36472062263E+02  0.36820911968E+02  0.00000000000E+00 0.  1.
         11    1    4    4    0    0 -0.58922396250E+01  0.10952792891E+02  0.23065582001E+02  0.26205023053E+02  0.51100000000E-03 0. -1.
        -11    1    4    4    0    0 -0.33983931095E+01 -0.10551720814E+02  0.64747453482E+01  0.12837843099E+02  0.51100000000E-03 0.  1.
         12    1    4    4    0    0  0.13437741060E+02  0.24919756202E+01  0.69317349135E+01  0.15324221879E+02  0.00000000000E+00 0. -1.
</event>
<event>
 8    1  0.2458065E-006  0.9118800E+02  0.7816164E-02  0.1184000E+00
        -11   -1    0    0    0    0  0.00000000000E+00  0.00000000000E+00  0.45593999997E+02  0.45594000000E+02  0.51100000000E-03 0. -1.
         11   -1    0    0    0    0 -0.00000000000E+00 -0.00000000000E+00 -0.45593999997E+02  0.45594000000E+02  0.51100000000E-03 0.  1.
         23    2    1    2    0    0  0.00000000000E+00  0.00000000000E+00  0.35527136788E-14  0.91188000000E+02  0.91188000000E+02 0.  0.
    9900012    2    3    3    0    0 -0.12717316876E+02 -0.15197310243E+02 -0.31033722991E+02  0.54367077281E+02  0.39999984278E+02 0.  0.
         12    1    3    3    0    0  0.12717316876E+02  0.15197310243E+02  0.31033722991E+02  0.36820922719E+02  0.00000000000E+00 0. -1.
         11    1    4    4    0    0  0.94783325953E+01 -0.39105796416E+01 -0.37984649587E+01  0.10934338491E+02  0.51100000000E-03 0. -1.
        -11    1    4    4    0    0 -0.92804174156E+01 -0.15462207123E+02 -0.76158327728E+01  0.19575671269E+02  0.51100000000E-03 0.  1.
        -12    1    4    4    0    0 -0.12915232056E+02  0.41754765215E+01 -0.19619425260E+02  0.23857067522E+02  0.00000000000E+00 0.  1.
</event>
<event>
 8    1  0.2458065E-006  0.9118800E+02  0.7816164E-02  0.1184000E+00
        -11   -1    0    0    0    0  0.00000000000E+00  0.00000000000E+00  0.45593999997E+02  0.45594000000E+02  0.51100000000E-03 0.  1.
         11   -1    0    0    0    0 -0.00000000000E+00 -0.00000000000E+00 -0.45593999997E+02  0.45594000000E+02  0.51100000000E-03 0. -1.
         23    2    1    2    0    0  0.00000000000E+00 -0.35527136788E-14  0.35527136788E-14  0.91188000000E+02  0.91188000000E+02 0.  0.
    9900012    2    3    3    0    0 -0.18554734329E+02  0.16659980372E+02 -0.27091435450E+02  0.54367095791E+02  0.40000026476E+02 0.  0.
        -12    1    3    3    0    0  0.18554734329E+02 -0.16659980372E+02  0.27091435450E+02  0.36820904209E+02  0.00000000000E+00 0.  1.
         11    1    4    4    0    0  0.94770205672E+00  0.24444238785E+01 -0.95739935198E+01  0.99264646005E+01  0.51100000000E-03 0. -1.
        -11    1    4    4    0    0 -0.22975475599E+01 -0.17932224883E+01 -0.20540425354E+02  0.20746167011E+02  0.51100000000E-03 0.  1.
        -12    1    4    4    0    0 -0.17204888825E+02  0.16008778982E+02  0.30229834238E+01  0.23694464180E+02  0.00000000000E+00 0.  1.
</event>
<event>
 8    1  0.2458065E-006  0.9118800E+02  0.7816164E-02  0.1184000E+00
        -11   -1    0    0    0    0  0.00000000000E+00  0.00000000000E+00  0.45593999997E+02  0.45594000000E+02  0.51100000000E-03 0. -1.
         11   -1    0    0    0    0 -0.00000000000E+00 -0.00000000000E+00 -0.45593999997E+02  0.45594000000E+02  0.51100000000E-03 0.  1.
         23    2    1    2    0    0  0.00000000000E+00  0.00000000000E+00  0.00000000000E+00  0.91188000000E+02  0.91188000000E+02 0.  0.
    9900012    2    3    3    0    0  0.15676571265E+02  0.80080044713E+01  0.32340358444E+02  0.54367057501E+02  0.39999939184E+02 0.  0.
        -12    1    3    3    0    0 -0.15676571265E+02 -0.80080044713E+01 -0.32340358444E+02  0.36820942499E+02  0.00000000000E+00 0.  1.
         11    1    4    4    0    0 -0.45913356579E+01  0.10150395842E+02  0.64877638717E+01  0.12891934656E+02  0.51100000000E-03 0. -1.
        -11    1    4    4    0    0  0.96874390614E+01  0.76826982347E+00 -0.33497984971E+01  0.10279001134E+02  0.51100000000E-03 0.  1.
        -12    1    4    4    0    0  0.10580467862E+02 -0.29106611938E+01  0.29202393069E+02  0.31196121710E+02  0.00000000000E+00 0.  1.
</event>
<event>
 8    1  0.2458065E-006  0.9118800E+02  0.7816164E-02  0.1184000E+00
        -11   -1    0    0    0    0  0.00000000000E+00  0.00000000000E+00  0.45593999997E+02  0.45594000000E+02  0.51100000000E-03 0.  1.
         11   -1    0    0    0    0 -0.00000000000E+00 -0.00000000000E+00 -0.45593999997E+02  0.45594000000E+02  0.51100000000E-03 0. -1.
         23    2    1    2    0    0  0.00000000000E+00  0.00000000000E+00  0.00000000000E+00  0.91188000000E+02  0.91188000000E+02 0.  0.
    9900012    2    3    3    0    0  0.14157044749E+02 -0.29355549513E+02  0.17135050144E+02  0.54367080040E+02  0.39999990567E+02 0.  0.
         12    1    3    3    0    0 -0.14157044749E+02  0.29355549513E+02 -0.17135050144E+02  0.36820919960E+02  0.00000000000E+00 0. -1.
         11    1    4    4    0    0  0.96657238125E+01 -0.19651251714E+02 -0.30414906884E+01  0.22109920322E+02  0.51100000000E-03 0. -1.
        -11    1    4    4    0    0  0.11173363062E+02  0.80383053220E-01  0.33265355767E+01  0.11658316463E+02  0.51100000000E-03 0.  1.
        -12    1    4    4    0    0 -0.66820421250E+01 -0.97846808517E+01  0.16850005256E+02  0.20598843255E+02  0.00000000000E+00 0.  1.
</event>
<event>
 8    1  0.2458065E-006  0.9118800E+02  0.7816164E-02  0.1184000E+00
        -11   -1    0    0    0    0  0.00000000000E+00  0.00000000000E+00  0.45593999997E+02  0.45594000000E+02  0.51100000000E-03 0. -1.
         11   -1    0    0    0    0 -0.00000000000E+00 -0.00000000000E+00 -0.45593999997E+02  0.45594000000E+02  0.51100000000E-03 0.  1.
         23    2    1    2    0    0  0.00000000000E+00  0.44408920985E-15  0.00000000000E+00  0.91188000000E+02  0.91188000000E+02 0.  0.
    9900012    2    3    3    0    0  0.34519935156E+02  0.20062700218E+01  0.12654121729E+02  0.54367111373E+02  0.40000061996E+02 0.  0.
         12    1    3    3    0    0 -0.34519935156E+02 -0.20062700218E+01 -0.12654121729E+02  0.36820888627E+02  0.00000000000E+00 0. -1.
         11    1    4    4    0    0  0.15585813661E+02  0.84165048953E+01  0.79363380052E+01  0.19409806885E+02  0.51100000000E-03 0. -1.
        -11    1    4    4    0    0  0.21829419260E+02 -0.27035106119E+01 -0.63809830331E+01  0.22903044767E+02  0.51100000000E-03 0.  1.
         12    1    4    4    0    0 -0.28952977646E+01 -0.37067242616E+01  0.11098766757E+02  0.12054259721E+02  0.00000000000E+00 0. -1.
</event>
<event>
 8    1  0.2458065E-006  0.9118800E+02  0.7816164E-02  0.1184000E+00
        -11   -1    0    0    0    0  0.00000000000E+00  0.00000000000E+00  0.45593999997E+02  0.45594000000E+02  0.51100000000E-03 0.  1.
         11   -1    0    0    0    0 -0.00000000000E+00 -0.00000000000E+00 -0.45593999997E+02  0.45594000000E+02  0.51100000000E-03 0. -1.
         23    2    1    2    0    0  0.00000000000E+00  0.00000000000E+00 -0.22204460493E-14  0.91188000000E+02  0.91188000000E+02 0.  0.
    9900012    2    3    3    0    0 -0.18490288745E+02  0.31687146343E+02  0.31305636763E+01  0.54367266029E+02  0.40000414564E+02 0.  0.
        -12    1    3    3    0    0  0.18490288745E+02 -0.31687146343E+02 -0.31305636763E+01  0.36820733971E+02  0.00000000000E+00 0.  1.
         11    1    4    4    0    0 -0.53990938588E+01  0.49333674399E+01 -0.56017414481E+01  0.92123740863E+01  0.51100000000E-03 0. -1.
        -11    1    4    4    0    0 -0.12425046718E+02  0.62852082018E+01 -0.10203635623E+02  0.17262670949E+02  0.51100000000E-03 0.  1.
        -12    1    4    4    0    0 -0.66614816781E+00  0.20468570702E+02  0.18935940748E+02  0.27892220994E+02  0.00000000000E+00 0.  1.
</event>
<event>
 8    1  0.2458065E-006  0.9118800E+02  0.7816164E-02  0.1184000E+00
        -11   -1    0    0    0    0  0.00000000000E+00  0.00000000000E+00  0.45593999997E+02  0.45594000000E+02  0.51100000000E-03 0.  1.
         11   -1    0    0    0    0 -0.00000000000E+00 -0.00000000000E+00 -0.45593999997E+02  0.45594000000E+02  0.51100000000E-03 0. -1.
         23    2    1    2    0    0  0.88817841970E-15 -0.71054273576E-14  0.00000000000E+00  0.91188000000E+02  0.91188000000E+02 0.  0.
    9900012    2    3    3    0    0 -0.79515257109E+01  0.35545216297E+02 -0.53935770191E+01  0.54367084262E+02  0.40000000192E+02 0.  0.
         12    1    3    3    0    0  0.79515257109E+01 -0.35545216297E+02  0.53935770191E+01  0.36820915738E+02  0.00000000000E+00 0. -1.
         11    1    4    4    0    0 -0.33696278844E+01  0.17501266778E+01  0.66716541178E+01  0.76764773429E+01  0.51100000000E-03 0. -1.
        -11    1    4    4    0    0 -0.24865063486E+01  0.39036887224E+02 -0.12403323082E+02  0.41035395717E+02  0.51100000000E-03 0.  1.
         12    1    4    4    0    0 -0.20953914779E+01 -0.52417976045E+01  0.33809194551E+00  0.56552112017E+01  0.00000000000E+00 0. -1.
</event>
<event>
 8    1  0.2458065E-006  0.9118800E+02  0.7816164E-02  0.1184000E+00
        -11   -1    0    0    0    0  0.00000000000E+00  0.00000000000E+00  0.45593999997E+02  0.45594000000E+02  0.51100000000E-03 0.  1.
         11   -1    0    0    0    0 -0.00000000000E+00 -0.00000000000E+00 -0.45593999997E+02  0.45594000000E+02  0.51100000000E-03 0. -1.
         23    2    1    2    0    0  0.22204460493E-14  0.00000000000E+00 -0.88817841970E-15  0.91188000000E+02  0.91188000000E+02 0.  0.
    9900012    2    3    3    0    0 -0.29065412614E+01 -0.36389538629E+02  0.48087872790E+01  0.54367205076E+02  0.40000275611E+02 0.  0.
         12    1    3    3    0    0  0.29065412614E+01  0.36389538629E+02 -0.48087872790E+01  0.36820794924E+02  0.00000000000E+00 0. -1.
         11    1    4    4    0    0  0.89269772347E+01 -0.17919652974E+02 -0.37636846463E+01  0.20370817549E+02  0.51100000000E-03 0. -1.
        -11    1    4    4    0    0 -0.11584777076E+02 -0.22010685908E+02  0.13204372123E+02  0.28160838010E+02  0.51100000000E-03 0.  1.
         12    1    4    4    0    0 -0.24874141988E+00  0.35408002523E+01 -0.46319001972E+01  0.58355495164E+01  0.00000000000E+00 0. -1.
</event>
<event>
 8    1  0.2458065E-006  0.9118800E+02  0.7816164E-02  0.1184000E+00
        -11   -1    0    0    0    0  0.00000000000E+00  0.00000000000E+00  0.45593999997E+02  0.45594000000E+02  0.51100000000E-03 0.  1.
         11   -1    0    0    0    0 -0.00000000000E+00 -0.00000000000E+00 -0.45593999997E+02  0.45594000000E+02  0.51100000000E-03 0. -1.
         23    2    1    2    0    0 -0.44408920985E-15  0.00000000000E+00 -0.35527136788E-14  0.91188000000E+02  0.91188000000E+02 0.  0.
    9900012    2    3    3    0    0  0.27307967567E+01 -0.18595283616E+02 -0.31662767096E+02  0.54367181923E+02  0.40000222829E+02 0.  0.
        -12    1    3    3    0    0 -0.27307967567E+01  0.18595283616E+02  0.31662767096E+02  0.36820818077E+02  0.00000000000E+00 0.  1.
         11    1    4    4    0    0  0.49007772214E+01 -0.21162181531E+01 -0.35477545658E+02  0.35876904031E+02  0.51100000000E-03 0. -1.
        -11    1    4    4    0    0 -0.40705112440E+01 -0.99786943226E+01  0.45091112050E+01  0.11682272309E+02  0.51100000000E-03 0.  1.
         12    1    4    4    0    0  0.19005307793E+01 -0.65003711406E+01 -0.69433264314E+00  0.68080055837E+01  0.00000000000E+00 0. -1.
</event>
<event>
 8    1  0.2458065E-006  0.9118800E+02  0.7816164E-02  0.1184000E+00
        -11   -1    0    0    0    0  0.00000000000E+00  0.00000000000E+00  0.45593999997E+02  0.45594000000E+02  0.51100000000E-03 0.  1.
         11   -1    0    0    0    0 -0.00000000000E+00 -0.00000000000E+00 -0.45593999997E+02  0.45594000000E+02  0.51100000000E-03 0. -1.
         23    2    1    2    0    0  0.00000000000E+00 -0.35527136788E-14  0.35527136788E-14  0.91188000000E+02  0.91188000000E+02 0.  0.
    9900012    2    3    3    0    0  0.16363178817E+02  0.89815069406E+01  0.31738919090E+02  0.54367081042E+02  0.39999992852E+02 0.  0.
         12    1    3    3    0    0 -0.16363178817E+02 -0.89815069406E+01 -0.31738919090E+02  0.36820918958E+02  0.00000000000E+00 0. -1.
         11    1    4    4    0    0  0.66646008364E+01 -0.11208847055E+02  0.53439695085E+01  0.14093018377E+02  0.51100000000E-03 0. -1.
        -11    1    4    4    0    0  0.15034158133E+02  0.80424675813E+01  0.13208268593E+02  0.21567697027E+02  0.51100000000E-03 0.  1.
         12    1    4    4    0    0 -0.53355801522E+01  0.12147886414E+02  0.13186680988E+02  0.18706365638E+02  0.00000000000E+00 0. -1.
</event>
<event>
 8    1  0.2458065E-006  0.9118800E+02  0.7816164E-02  0.1184000E+00
        -11   -1    0    0    0    0  0.00000000000E+00  0.00000000000E+00  0.45593999997E+02  0.45594000000E+02  0.51100000000E-03 0. -1.
         11   -1    0    0    0    0 -0.00000000000E+00 -0.00000000000E+00 -0.45593999997E+02  0.45594000000E+02  0.51100000000E-03 0.  1.
         23    2    1    2    0    0  0.00000000000E+00 -0.17763568394E-14 -0.71054273576E-14  0.91188000000E+02  0.91188000000E+02 0.  0.
    9900012    2    3    3    0    0  0.59552563546E+01  0.61697090136E+01  0.35808498812E+02  0.54367095955E+02  0.40000026848E+02 0.  0.
        -12    1    3    3    0    0 -0.59552563546E+01 -0.61697090136E+01 -0.35808498812E+02  0.36820904045E+02  0.00000000000E+00 0.  1.
         11    1    4    4    0    0 -0.70268798381E+01 -0.42464656434E+01  0.17804582108E+02  0.19606444222E+02  0.51100000000E-03 0. -1.
        -11    1    4    4    0    0  0.78594439042E+01  0.16016342256E+02  0.32013412856E+01  0.18125745889E+02  0.51100000000E-03 0.  1.
        -12    1    4    4    0    0  0.51226922885E+01 -0.56001675991E+01  0.14802575418E+02  0.16634905844E+02  0.00000000000E+00 0.  1.
</event>
<event>
 8    1  0.2458065E-006  0.9118800E+02  0.7816164E-02  0.1184000E+00
        -11   -1    0    0    0    0  0.00000000000E+00  0.00000000000E+00  0.45593999997E+02  0.45594000000E+02  0.51100000000E-03 0. -1.
         11   -1    0    0    0    0 -0.00000000000E+00 -0.00000000000E+00 -0.45593999997E+02  0.45594000000E+02  0.51100000000E-03 0.  1.
         23    2    1    2    0    0 -0.88817841970E-15 -0.71054273576E-14  0.17763568394E-14  0.91188000000E+02  0.91188000000E+02 0.  0.
    9900012    2    3    3    0    0 -0.63991566273E+01  0.35122051220E+02 -0.90151071263E+01  0.54367084152E+02  0.39999999940E+02 0.  0.
        -12    1    3    3    0    0  0.63991566273E+01 -0.35122051220E+02  0.90151071263E+01  0.36820915848E+02  0.00000000000E+00 0.  1.
         11    1    4    4    0    0  0.90114982540E+01  0.32657713917E+02  0.36979602466E+00  0.33880232119E+02  0.51100000000E-03 0. -1.
        -11    1    4    4    0    0 -0.68819304134E+01  0.10180986230E+01 -0.95735879171E+01  0.11834317762E+02  0.51100000000E-03 0.  1.
         12    1    4    4    0    0 -0.85287244679E+01  0.14462386798E+01  0.18868476616E+00  0.86525342709E+01  0.00000000000E+00 0. -1.
</event>
<event>
 8    1  0.2458065E-006  0.9118800E+02  0.7816164E-02  0.1184000E+00
        -11   -1    0    0    0    0  0.00000000000E+00  0.00000000000E+00  0.45593999997E+02  0.45594000000E+02  0.51100000000E-03 0. -1.
         11   -1    0    0    0    0 -0.00000000000E+00 -0.00000000000E+00 -0.45593999997E+02  0.45594000000E+02  0.51100000000E-03 0.  1.
         23    2    1    2    0    0  0.35527136788E-14 -0.19984014443E-14  0.00000000000E+00  0.91188000000E+02  0.91188000000E+02 0.  0.
    9900012    2    3    3    0    0 -0.31298337422E+02 -0.10280600086E+01 -0.19368450903E+02  0.54367085791E+02  0.40000003678E+02 0.  0.
         12    1    3    3    0    0  0.31298337422E+02  0.10280600086E+01  0.19368450903E+02  0.36820914209E+02  0.00000000000E+00 0. -1.
         11    1    4    4    0    0 -0.23667886712E+02  0.71615668670E+01 -0.60913286701E+01  0.25466864484E+02  0.51100000000E-03 0. -1.
        -11    1    4    4    0    0 -0.15613460780E+02 -0.37679414292E+01 -0.11083060582E+02  0.19514399101E+02  0.51100000000E-03 0.  1.
         12    1    4    4    0    0  0.79830100699E+01 -0.44216854464E+01 -0.21940616509E+01  0.93858222064E+01  0.00000000000E+00 0. -1.
</event>
<event>
 8    1  0.2458065E-006  0.9118800E+02  0.7816164E-02  0.1184000E+00
        -11   -1    0    0    0    0  0.00000000000E+00  0.00000000000E+00  0.45593999997E+02  0.45594000000E+02  0.51100000000E-03 0.  1.
         11   -1    0    0    0    0 -0.00000000000E+00 -0.00000000000E+00 -0.45593999997E+02  0.45594000000E+02  0.51100000000E-03 0. -1.
         23    2    1    2    0    0 -0.44408920985E-15  0.17763568394E-14 -0.71054273576E-14  0.91188000000E+02  0.91188000000E+02 0.  0.
    9900012    2    3    3    0    0  0.33518757295E+01 -0.95211826615E+01 -0.35410440001E+02  0.54366983566E+02  0.39999770634E+02 0.  0.
        -12    1    3    3    0    0 -0.33518757295E+01  0.95211826615E+01  0.35410440001E+02  0.36821016434E+02  0.00000000000E+00 0.  1.
         11    1    4    4    0    0 -0.45507339839E+01 -0.28571870011E+01 -0.97509499504E+01  0.11133450613E+02  0.51100000000E-03 0. -1.
        -11    1    4    4    0    0  0.10732037790E+02 -0.18969146447E+02 -0.19225746768E+02  0.29062596084E+02  0.51100000000E-03 0.  1.
        -12    1    4    4    0    0 -0.28294280771E+01  0.12305150787E+02 -0.64337432824E+01  0.14170936869E+02  0.00000000000E+00 0.  1.
</event>
<event>
 8    1  0.2458065E-006  0.9118800E+02  0.7816164E-02  0.1184000E+00
        -11   -1    0    0    0    0  0.00000000000E+00  0.00000000000E+00  0.45593999997E+02  0.45594000000E+02  0.51100000000E-03 0. -1.
         11   -1    0    0    0    0 -0.00000000000E+00 -0.00000000000E+00 -0.45593999997E+02  0.45594000000E+02  0.51100000000E-03 0.  1.
         23    2    1    2    0    0  0.35527136788E-14  0.00000000000E+00  0.35527136788E-14  0.91188000000E+02  0.91188000000E+02 0.  0.
    9900012    2    3    3    0    0 -0.20107759846E+02  0.11221161063E+02 -0.28732413185E+02  0.54366973004E+02  0.39999746556E+02 0.  0.
         12    1    3    3    0    0  0.20107759846E+02 -0.11221161063E+02  0.28732413185E+02  0.36821026996E+02  0.00000000000E+00 0. -1.
         11    1    4    4    0    0 -0.25393765085E+01 -0.80745628405E+01 -0.18983412255E+00  0.84665834533E+01  0.51100000000E-03 0. -1.
        -11    1    4    4    0    0 -0.12968090885E+02  0.19964744056E+02 -0.32158031842E+02  0.40011265896E+02  0.51100000000E-03 0.  1.
        -12    1    4    4    0    0 -0.46002924529E+01 -0.66902015278E+00  0.36154527793E+01  0.58891236544E+01  0.00000000000E+00 0.  1.
</event>
<event>
 8    1  0.2458065E-006  0.9118800E+02  0.7816164E-02  0.1184000E+00
        -11   -1    0    0    0    0  0.00000000000E+00  0.00000000000E+00  0.45593999997E+02  0.45594000000E+02  0.51100000000E-03 0. -1.
         11   -1    0    0    0    0 -0.00000000000E+00 -0.00000000000E+00 -0.45593999997E+02  0.45594000000E+02  0.51100000000E-03 0.  1.
         23    2    1    2    0    0  0.17763568394E-14  0.35527136788E-14 -0.35527136788E-14  0.91188000000E+02  0.91188000000E+02 0.  0.
    9900012    2    3    3    0    0 -0.73516233623E+01 -0.31443651598E+02  0.17692673065E+02  0.54367078337E+02  0.39999986686E+02 0.  0.
        -12    1    3    3    0    0  0.73516233623E+01  0.31443651598E+02 -0.17692673065E+02  0.36820921663E+02  0.00000000000E+00 0.  1.
         11    1    4    4    0    0 -0.95703957443E+00 -0.15175629788E+01  0.60022009341E+01  0.62646100003E+01  0.51100000000E-03 0. -1.
        -11    1    4    4    0    0  0.57241789901E+01  0.62684923692E+01  0.22954727227E+01  0.87937146289E+01  0.51100000000E-03 0.  1.
         12    1    4    4    0    0 -0.12118762778E+02 -0.36194580989E+02  0.93949994084E+01  0.39308753708E+02  0.00000000000E+00 0. -1.
</event>
<event>
 8    1  0.2458065E-006  0.9118800E+02  0.7816164E-02  0.1184000E+00
        -11   -1    0    0    0    0  0.00000000000E+00  0.00000000000E+00  0.45593999997E+02  0.45594000000E+02  0.51100000000E-03 0. -1.
         11   -1    0    0    0    0 -0.00000000000E+00 -0.00000000000E+00 -0.45593999997E+02  0.45594000000E+02  0.51100000000E-03 0.  1.
         23    2    1    2    0    0  0.35527136788E-14  0.00000000000E+00  0.00000000000E+00  0.91188000000E+02  0.91188000000E+02 0.  0.
    9900012    2    3    3    0    0 -0.30315238414E+02 -0.19799623633E+02 -0.66888843274E+01  0.54367082716E+02  0.39999996668E+02 0.  0.
         12    1    3    3    0    0  0.30315238414E+02  0.19799623633E+02  0.66888843274E+01  0.36820917284E+02  0.00000000000E+00 0. -1.
         11    1    4    4    0    0 -0.18701054374E+02  0.18871452027E+01 -0.65892998886E+00  0.18807576684E+02  0.51100000000E-03 0. -1.
        -11    1    4    4    0    0 -0.34151669188E+01 -0.70895392401E+01 -0.14723651232E+02  0.16694634994E+02  0.51100000000E-03 0.  1.
        -12    1    4    4    0    0 -0.81990171206E+01 -0.14597229595E+02  0.86936968938E+01  0.18864871038E+02  0.00000000000E+00 0.  1.
</event>
<event>
 8    1  0.2458065E-006  0.9118800E+02  0.7816164E-02  0.1184000E+00
        -11   -1    0    0    0    0  0.00000000000E+00  0.00000000000E+00  0.45593999997E+02  0.45594000000E+02  0.51100000000E-03 0.  1.
         11   -1    0    0    0    0 -0.00000000000E+00 -0.00000000000E+00 -0.45593999997E+02  0.45594000000E+02  0.51100000000E-03 0. -1.
         23    2    1    2    0    0  0.35527136788E-14 -0.35527136788E-14  0.00000000000E+00  0.91188000000E+02  0.91188000000E+02 0.  0.
    9900012    2    3    3    0    0 -0.17489068279E+02  0.29793731768E+02 -0.12737514204E+02  0.54367106067E+02  0.40000049900E+02 0.  0.
        -12    1    3    3    0    0  0.17489068279E+02 -0.29793731768E+02  0.12737514204E+02  0.36820893933E+02  0.00000000000E+00 0.  1.
         11    1    4    4    0    0 -0.19292237579E+02  0.15086431249E+02  0.18503298396E+01  0.24560426695E+02  0.51100000000E-03 0. -1.
        -11    1    4    4    0    0 -0.76319081917E+01  0.75186866466E+01 -0.14394219160E+02  0.17943528556E+02  0.51100000000E-03 0.  1.
        -12    1    4    4    0    0  0.94350774921E+01  0.71886138721E+01 -0.19362488367E+00  0.11863150816E+02  0.00000000000E+00 0.  1.
</event>
<event>
 8    1  0.2458065E-006  0.9118800E+02  0.7816164E-02  0.1184000E+00
        -11   -1    0    0    0    0  0.00000000000E+00  0.00000000000E+00  0.45593999997E+02  0.45594000000E+02  0.51100000000E-03 0. -1.
         11   -1    0    0    0    0 -0.00000000000E+00 -0.00000000000E+00 -0.45593999997E+02  0.45594000000E+02  0.51100000000E-03 0.  1.
         23    2    1    2    0    0  0.35527136788E-14  0.00000000000E+00 -0.88817841970E-15  0.91188000000E+02  0.91188000000E+02 0.  0.
    9900012    2    3    3    0    0 -0.30799178414E+02  0.18978935485E+02 -0.68549896067E+01  0.54367078426E+02  0.39999986887E+02 0.  0.
         12    1    3    3    0    0  0.30799178414E+02 -0.18978935485E+02  0.68549896067E+01  0.36820921574E+02  0.00000000000E+00 0. -1.
         11    1    4    4    0    0  0.60461334802E+01  0.30505870963E+01  0.84878762531E+01  0.10858446263E+02  0.51100000000E-03 0. -1.
        -11    1    4    4    0    0 -0.20413972472E+02  0.11299626988E+02 -0.61942634583E+01  0.24140852143E+02  0.51100000000E-03 0.  1.
         12    1    4    4    0    0 -0.16431339422E+02  0.46287214004E+01 -0.91486024014E+01  0.19367780020E+02  0.00000000000E+00 0. -1.
</event>
<event>
 8    1  0.2458065E-006  0.9118800E+02  0.7816164E-02  0.1184000E+00
        -11   -1    0    0    0    0  0.00000000000E+00  0.00000000000E+00  0.45593999997E+02  0.45594000000E+02  0.51100000000E-03 0. -1.
         11   -1    0    0    0    0 -0.00000000000E+00 -0.00000000000E+00 -0.45593999997E+02  0.45594000000E+02  0.51100000000E-03 0.  1.
         23    2    1    2    0    0  0.00000000000E+00  0.00000000000E+00  0.00000000000E+00  0.91188000000E+02  0.91188000000E+02 0.  0.
    9900012    2    3    3    0    0  0.51718643490E+01  0.32100471132E+02 -0.17279842178E+02  0.54367063382E+02  0.39999952592E+02 0.  0.
         12    1    3    3    0    0 -0.51718643490E+01 -0.32100471132E+02  0.17279842178E+02  0.36820936618E+02  0.00000000000E+00 0. -1.
         11    1    4    4    0    0  0.17205593478E+02  0.65090182712E+01 -0.16355651487E+02  0.24615180308E+02  0.51100000000E-03 0. -1.
        -11    1    4    4    0    0 -0.51020990236E+01  0.18738191125E+02 -0.33495669296E+01  0.19707126121E+02  0.51100000000E-03 0.  1.
         12    1    4    4    0    0 -0.69316301055E+01  0.68532617358E+01  0.24253762382E+01  0.10044756953E+02  0.00000000000E+00 0. -1.
</event>
<event>
 8    1  0.2458065E-006  0.9118800E+02  0.7816164E-02  0.1184000E+00
        -11   -1    0    0    0    0  0.00000000000E+00  0.00000000000E+00  0.45593999997E+02  0.45594000000E+02  0.51100000000E-03 0.  1.
         11   -1    0    0    0    0 -0.00000000000E+00 -0.00000000000E+00 -0.45593999997E+02  0.45594000000E+02  0.51100000000E-03 0. -1.
         23    2    1    2    0    0  0.00000000000E+00  0.00000000000E+00  0.00000000000E+00  0.91188000000E+02  0.91188000000E+02 0.  0.
    9900012    2    3    3    0    0 -0.13219615816E+02  0.18176680841E+02  0.29165538393E+02  0.54367101064E+02  0.40000038495E+02 0.  0.
         12    1    3    3    0    0  0.13219615816E+02 -0.18176680841E+02 -0.29165538393E+02  0.36820898936E+02  0.00000000000E+00 0. -1.
         11    1    4    4    0    0 -0.15822120664E+02  0.17908648728E+02  0.11851511509E+01  0.23926215436E+02  0.51100000000E-03 0. -1.
        -11    1    4    4    0    0  0.45147860825E+01 -0.25803486852E+01  0.25925335994E+02  0.26441719675E+02  0.51100000000E-03 0.  1.
        -12    1    4    4    0    0 -0.19122812353E+01  0.28483807975E+01  0.20550512483E+01  0.39991659536E+01  0.00000000000E+00 0.  1.
</event>
<event>
 8    1  0.2458065E-006  0.9118800E+02  0.7816164E-02  0.1184000E+00
        -11   -1    0    0    0    0  0.00000000000E+00  0.00000000000E+00  0.45593999997E+02  0.45594000000E+02  0.51100000000E-03 0. -1.
         11   -1    0    0    0    0 -0.00000000000E+00 -0.00000000000E+00 -0.45593999997E+02  0.45594000000E+02  0.51100000000E-03 0.  1.
         23    2    1    2    0    0  0.00000000000E+00 -0.35527136788E-14  0.00000000000E+00  0.91188000000E+02  0.91188000000E+02 0.  0.
    9900012    2    3    3    0    0  0.19542477294E+02  0.11601244845E+02 -0.28970375950E+02  0.54367082258E+02  0.39999995622E+02 0.  0.
         12    1    3    3    0    0 -0.19542477294E+02 -0.11601244845E+02  0.28970375950E+02  0.36820917742E+02  0.00000000000E+00 0. -1.
         11    1    4    4    0    0 -0.72006101179E+01 -0.63976186917E+01 -0.92676600831E+01  0.13366668795E+02  0.51100000000E-03 0. -1.
        -11    1    4    4    0    0  0.27042909321E+01 -0.12878117368E+01  0.17319676799E+01  0.34599654363E+01  0.51100000000E-03 0.  1.
         12    1    4    4    0    0  0.24038796480E+02  0.19286675273E+02 -0.21434683546E+02  0.37540448026E+02  0.00000000000E+00 0. -1.
</event>
<event>
 8    1  0.2458065E-006  0.9118800E+02  0.7816164E-02  0.1184000E+00
        -11   -1    0    0    0    0  0.00000000000E+00  0.00000000000E+00  0.45593999997E+02  0.45594000000E+02  0.51100000000E-03 0.  1.
         11   -1    0    0    0    0 -0.00000000000E+00 -0.00000000000E+00 -0.45593999997E+02  0.45594000000E+02  0.51100000000E-03 0. -1.
         23    2    1    2    0    0  0.00000000000E+00  0.71054273576E-14 -0.17763568394E-14  0.91188000000E+02  0.91188000000E+02 0.  0.
    9900012    2    3    3    0    0 -0.21903715001E+01  0.34798925406E+02 -0.11832967488E+02  0.54367054109E+02  0.39999931453E+02 0.  0.
        -12    1    3    3    0    0  0.21903715001E+01 -0.34798925406E+02  0.11832967488E+02  0.36820945891E+02  0.00000000000E+00 0.  1.
         11    1    4    4    0    0  0.14355369607E+01  0.78232210142E+00 -0.40457259018E+01  0.43635642048E+01  0.51100000000E-03 0. -1.
        -11    1    4    4    0    0 -0.18161077946E+01 -0.53061053939E+01 -0.90182876151E+01  0.10619911193E+02  0.51100000000E-03 0.  1.
        -12    1    4    4    0    0 -0.18098006663E+01  0.39322708698E+02  0.12310460293E+01  0.39383578712E+02  0.00000000000E+00 0.  1.
</event>
<event>
 8    1  0.2458065E-006  0.9118800E+02  0.7816164E-02  0.1184000E+00
        -11   -1    0    0    0    0  0.00000000000E+00  0.00000000000E+00  0.45593999997E+02  0.45594000000E+02  0.51100000000E-03 0. -1.
         11   -1    0    0    0    0 -0.00000000000E+00 -0.00000000000E+00 -0.45593999997E+02  0.45594000000E+02  0.51100000000E-03 0.  1.
         23    2    1    2    0    0 -0.88817841970E-15  0.17763568394E-14  0.00000000000E+00  0.91188000000E+02  0.91188000000E+02 0.  0.
    9900012    2    3    3    0    0  0.46708654712E+01 -0.12551461725E+02 -0.34299036806E+02  0.54367080654E+02  0.39999991966E+02 0.  0.
         12    1    3    3    0    0 -0.46708654712E+01  0.12551461725E+02  0.34299036806E+02  0.36820919346E+02  0.00000000000E+00 0. -1.
         11    1    4    4    0    0  0.88914761010E+01  0.44483931129E+01 -0.18846423472E+02  0.21308078902E+02  0.51100000000E-03 0. -1.
        -11    1    4    4    0    0  0.78936643959E+01 -0.57807743518E+01 -0.13146032788E+02  0.16387356957E+02  0.51100000000E-03 0.  1.
         12    1    4    4    0    0 -0.12114275026E+02 -0.11219080486E+02 -0.23065805458E+01  0.16671644795E+02  0.00000000000E+00 0. -1.
</event>
<event>
 8    1  0.2458065E-006  0.9118800E+02  0.7816164E-02  0.1184000E+00
        -11   -1    0    0    0    0  0.00000000000E+00  0.00000000000E+00  0.45593999997E+02  0.45594000000E+02  0.51100000000E-03 0.  1.
         11   -1    0    0    0    0 -0.00000000000E+00 -0.00000000000E+00 -0.45593999997E+02  0.45594000000E+02  0.51100000000E-03 0. -1.
         23    2    1    2    0    0  0.00000000000E+00  0.00000000000E+00  0.00000000000E+00  0.91188000000E+02  0.91188000000E+02 0.  0.
    9900012    2    3    3    0    0 -0.47413764844E+01  0.34468224294E+02  0.12051584553E+02  0.54367084378E+02  0.40000000457E+02 0.  0.
        -12    1    3    3    0    0  0.47413764844E+01 -0.34468224294E+02 -0.12051584553E+02  0.36820915622E+02  0.00000000000E+00 0.  1.
         11    1    4    4    0    0  0.96630038842E+01  0.27361288898E+00  0.24303989871E+01  0.99677152636E+01  0.51100000000E-03 0. -1.
        -11    1    4    4    0    0  0.93864654873E+00  0.73670977230E+00 -0.47407046489E+01  0.48885661969E+01  0.51100000000E-03 0.  1.
         12    1    4    4    0    0 -0.15343026917E+02  0.33457901633E+02  0.14361890215E+02  0.39510802918E+02  0.00000000000E+00 0. -1.
</event>
<event>
 8    1  0.2458065E-006  0.9118800E+02  0.7816164E-02  0.1184000E+00
        -11   -1    0    0    0    0  0.00000000000E+00  0.00000000000E+00  0.45593999997E+02  0.45594000000E+02  0.51100000000E-03 0.  1.
         11   -1    0    0    0    0 -0.00000000000E+00 -0.00000000000E+00 -0.45593999997E+02  0.45594000000E+02  0.51100000000E-03 0. -1.
         23    2    1    2    0    0  0.00000000000E+00  0.00000000000E+00  0.00000000000E+00  0.91188000000E+02  0.91188000000E+02 0.  0.
    9900012    2    3    3    0    0 -0.12883169923E+02 -0.20957927899E+02  0.27396457958E+02  0.54367126603E+02  0.40000096717E+02 0.  0.
         12    1    3    3    0    0  0.12883169923E+02  0.20957927899E+02 -0.27396457958E+02  0.36820873397E+02  0.00000000000E+00 0. -1.
         11    1    4    4    0    0 -0.39305419484E+01 -0.69094086478E+01  0.20590843491E+01  0.82115112183E+01  0.51100000000E-03 0. -1.
        -11    1    4    4    0    0 -0.18901080211E+02 -0.28181936171E+01  0.24578307076E+02  0.31133361967E+02  0.51100000000E-03 0.  1.
        -12    1    4    4    0    0  0.99484522364E+01 -0.11230325634E+02  0.75906653307E+00  0.15022253418E+02  0.00000000000E+00 0.  1.
</event>
<event>
 8    1  0.2458065E-006  0.9118800E+02  0.7816164E-02  0.1184000E+00
        -11   -1    0    0    0    0  0.00000000000E+00  0.00000000000E+00  0.45593999997E+02  0.45594000000E+02  0.51100000000E-03 0.  1.
         11   -1    0    0    0    0 -0.00000000000E+00 -0.00000000000E+00 -0.45593999997E+02  0.45594000000E+02  0.51100000000E-03 0. -1.
         23    2    1    2    0    0  0.71054273576E-14  0.17763568394E-14  0.00000000000E+00  0.91188000000E+02  0.91188000000E+02 0.  0.
    9900012    2    3    3    0    0  0.32592894294E+02  0.14911835812E+02  0.84332787331E+01  0.54367084803E+02  0.40000001425E+02 0.  0.
         12    1    3    3    0    0 -0.32592894294E+02 -0.14911835812E+02 -0.84332787331E+01  0.36820915197E+02  0.00000000000E+00 0. -1.
         11    1    4    4    0    0  0.57975735490E+00 -0.10932173759E+02  0.14222236834E+01  0.11039531791E+02  0.51100000000E-03 0. -1.
        -11    1    4    4    0    0 -0.40779555677E+00 -0.69633810665E+00 -0.15126639071E+00  0.82101507720E+00  0.51100000000E-03 0.  1.
        -12    1    4    4    0    0  0.32420932496E+02  0.26540347678E+02  0.71623214404E+01  0.42506537935E+02  0.00000000000E+00 0.  1.
</event>
<event>
 8    1  0.2458065E-006  0.9118800E+02  0.7816164E-02  0.1184000E+00
        -11   -1    0    0    0    0  0.00000000000E+00  0.00000000000E+00  0.45593999997E+02  0.45594000000E+02  0.51100000000E-03 0. -1.
         11   -1    0    0    0    0 -0.00000000000E+00 -0.00000000000E+00 -0.45593999997E+02  0.45594000000E+02  0.51100000000E-03 0.  1.
         23    2    1    2    0    0 -0.35527136788E-14 -0.88817841970E-15  0.00000000000E+00  0.91188000000E+02  0.91188000000E+02 0.  0.
    9900012    2    3    3    0    0  0.29160977743E+02 -0.21746506484E+01 -0.22376030233E+02  0.54367102980E+02  0.40000042864E+02 0.  0.
         12    1    3    3    0    0 -0.29160977743E+02  0.21746506484E+01  0.22376030233E+02  0.36820897020E+02  0.00000000000E+00 0. -1.
         11    1    4    4    0    0  0.57141578287E+01  0.86480075575E+01  0.83706868496E+01  0.13323214064E+02  0.51100000000E-03 0. -1.
        -11    1    4    4    0    0  0.32693925084E+01 -0.27527883367E+01 -0.13406195120E+01  0.44792892224E+01  0.51100000000E-03 0.  1.
         12    1    4    4    0    0  0.20177427406E+02 -0.80698698692E+01 -0.29406097570E+02  0.36564599693E+02  0.00000000000E+00 0. -1.
</event>
<event>
 8    1  0.2458065E-006  0.9118800E+02  0.7816164E-02  0.1184000E+00
        -11   -1    0    0    0    0  0.00000000000E+00  0.00000000000E+00  0.45593999997E+02  0.45594000000E+02  0.51100000000E-03 0. -1.
         11   -1    0    0    0    0 -0.00000000000E+00 -0.00000000000E+00 -0.45593999997E+02  0.45594000000E+02  0.51100000000E-03 0.  1.
         23    2    1    2    0    0  0.88817841970E-15  0.00000000000E+00  0.00000000000E+00  0.91188000000E+02  0.91188000000E+02 0.  0.
    9900012    2    3    3    0    0 -0.75147318371E+01 -0.34494706042E+02 -0.10460601070E+02  0.54367080481E+02  0.39999991573E+02 0.  0.
         12    1    3    3    0    0  0.75147318371E+01  0.34494706042E+02  0.10460601070E+02  0.36820919519E+02  0.00000000000E+00 0. -1.
         11    1    4    4    0    0 -0.13363074196E+02 -0.46355553376E+01 -0.69296136789E+01  0.15750545110E+02  0.51100000000E-03 0. -1.
        -11    1    4    4    0    0  0.64652260784E+01 -0.21143407833E+02 -0.13067302709E+02  0.25682625321E+02  0.51100000000E-03 0.  1.
         12    1    4    4    0    0 -0.61688371908E+00 -0.87157428710E+01  0.95363153185E+01  0.12933910050E+02  0.00000000000E+00 0. -1.
</event>
<event>
 8    1  0.2458065E-006  0.9118800E+02  0.7816164E-02  0.1184000E+00
        -11   -1    0    0    0    0  0.00000000000E+00  0.00000000000E+00  0.45593999997E+02  0.45594000000E+02  0.51100000000E-03 0. -1.
         11   -1    0    0    0    0 -0.00000000000E+00 -0.00000000000E+00 -0.45593999997E+02  0.45594000000E+02  0.51100000000E-03 0.  1.
         23    2    1    2    0    0  0.00000000000E+00 -0.35527136788E-14  0.00000000000E+00  0.91188000000E+02  0.91188000000E+02 0.  0.
    9900012    2    3    3    0    0  0.22793874100E+02  0.27552227269E+02 -0.87803752503E+01  0.54367069628E+02  0.39999966830E+02 0.  0.
         12    1    3    3    0    0 -0.22793874100E+02 -0.27552227269E+02  0.87803752503E+01  0.36820930372E+02  0.00000000000E+00 0. -1.
         11    1    4    4    0    0  0.38742477973E+01  0.22763420927E+02 -0.79884930782E+01  0.24433566056E+02  0.51100000000E-03 0. -1.
        -11    1    4    4    0    0 -0.35326183732E+01  0.32941120672E+00 -0.55177051180E+01  0.65599523127E+01  0.51100000000E-03 0.  1.
        -12    1    4    4    0    0  0.22452244675E+02  0.44593951354E+01  0.47258229459E+01  0.23373551259E+02  0.00000000000E+00 0.  1.
</event>
<event>
 8    1  0.2458065E-006  0.9118800E+02  0.7816164E-02  0.1184000E+00
        -11   -1    0    0    0    0  0.00000000000E+00  0.00000000000E+00  0.45593999997E+02  0.45594000000E+02  0.51100000000E-03 0.  1.
         11   -1    0    0    0    0 -0.00000000000E+00 -0.00000000000E+00 -0.45593999997E+02  0.45594000000E+02  0.51100000000E-03 0. -1.
         23    2    1    2    0    0  0.00000000000E+00  0.00000000000E+00  0.15543122345E-14  0.91188000000E+02  0.91188000000E+02 0.  0.
    9900012    2    3    3    0    0  0.93121972219E+01  0.35606540396E+02 -0.11135343990E+01  0.54367045437E+02  0.39999911683E+02 0.  0.
        -12    1    3    3    0    0 -0.93121972219E+01 -0.35606540396E+02  0.11135343990E+01  0.36820954563E+02  0.00000000000E+00 0.  1.
         11    1    4    4    0    0 -0.79316003873E+01  0.25372795348E+02 -0.73713396287E+01  0.27586693833E+02  0.51100000000E-03 0. -1.
        -11    1    4    4    0    0  0.73860532875E+01 -0.25191089404E+01 -0.28001333753E+01  0.82909854782E+01  0.51100000000E-03 0.  1.
         12    1    4    4    0    0  0.98577443217E+01  0.12752853988E+02  0.90579386050E+01  0.18489366126E+02  0.00000000000E+00 0. -1.
</event>
<event>
 8    1  0.2458065E-006  0.9118800E+02  0.7816164E-02  0.1184000E+00
        -11   -1    0    0    0    0  0.00000000000E+00  0.00000000000E+00  0.45593999997E+02  0.45594000000E+02  0.51100000000E-03 0.  1.
         11   -1    0    0    0    0 -0.00000000000E+00 -0.00000000000E+00 -0.45593999997E+02  0.45594000000E+02  0.51100000000E-03 0. -1.
         23    2    1    2    0    0  0.00000000000E+00 -0.35527136788E-14  0.88817841970E-15  0.91188000000E+02  0.91188000000E+02 0.  0.
    9900012    2    3    3    0    0  0.30664035521E+02 -0.19909737057E+02  0.43703933133E+01  0.54367067885E+02  0.39999962857E+02 0.  0.
         12    1    3    3    0    0 -0.30664035521E+02  0.19909737057E+02 -0.43703933133E+01  0.36820932115E+02  0.00000000000E+00 0. -1.
         11    1    4    4    0    0 -0.26049551422E+01 -0.76417206806E+01 -0.78739477197E+01  0.11277443824E+02  0.51100000000E-03 0. -1.
        -11    1    4    4    0    0  0.64216386209E+01  0.16954739529E+01 -0.49509091562E+01  0.82839348281E+01  0.51100000000E-03 0.  1.
        -12    1    4    4    0    0  0.26847352042E+02 -0.13963490329E+02  0.17195250189E+02  0.34805689232E+02  0.00000000000E+00 0.  1.
</event>
<event>
 8    1  0.2458065E-006  0.9118800E+02  0.7816164E-02  0.1184000E+00
        -11   -1    0    0    0    0  0.00000000000E+00  0.00000000000E+00  0.45593999997E+02  0.45594000000E+02  0.51100000000E-03 0.  1.
         11   -1    0    0    0    0 -0.00000000000E+00 -0.00000000000E+00 -0.45593999997E+02  0.45594000000E+02  0.51100000000E-03 0. -1.
         23    2    1    2    0    0  0.35527136788E-14  0.00000000000E+00  0.35527136788E-14  0.91188000000E+02  0.91188000000E+02 0.  0.
    9900012    2    3    3    0    0 -0.25077718173E+02  0.15097848675E+02 -0.22337031772E+02  0.54367082416E+02  0.39999995983E+02 0.  0.
        -12    1    3    3    0    0  0.25077718173E+02 -0.15097848675E+02  0.22337031772E+02  0.36820917584E+02  0.00000000000E+00 0.  1.
         11    1    4    4    0    0  0.54259594266E+01 -0.13393751082E+01  0.34864383321E+01  0.65871248572E+01  0.51100000000E-03 0. -1.
        -11    1    4    4    0    0 -0.97761792611E+01  0.13866160659E+02 -0.19732968328E+02  0.26023722479E+02  0.51100000000E-03 0.  1.
         12    1    4    4    0    0 -0.20727498338E+02  0.25710631246E+01 -0.60905017756E+01  0.21756235079E+02  0.00000000000E+00 0. -1.
</event>
<event>
 8    1  0.2458065E-006  0.9118800E+02  0.7816164E-02  0.1184000E+00
        -11   -1    0    0    0    0  0.00000000000E+00  0.00000000000E+00  0.45593999997E+02  0.45594000000E+02  0.51100000000E-03 0. -1.
         11   -1    0    0    0    0 -0.00000000000E+00 -0.00000000000E+00 -0.45593999997E+02  0.45594000000E+02  0.51100000000E-03 0.  1.
         23    2    1    2    0    0 -0.17763568394E-14  0.35527136788E-14  0.00000000000E+00  0.91188000000E+02  0.91188000000E+02 0.  0.
    9900012    2    3    3    0    0  0.12246210931E+02 -0.22083375969E+02  0.26797992659E+02  0.54367114800E+02  0.40000069810E+02 0.  0.
        -12    1    3    3    0    0 -0.12246210931E+02  0.22083375969E+02 -0.26797992659E+02  0.36820885200E+02  0.00000000000E+00 0.  1.
         11    1    4    4    0    0 -0.60952946440E+01 -0.65395430180E+01  0.11747819533E+02  0.14762435562E+02  0.51100000000E-03 0. -1.
        -11    1    4    4    0    0  0.10193167708E+02 -0.72068088958E+01 -0.72536886538E+01  0.14437962520E+02  0.51100000000E-03 0.  1.
         12    1    4    4    0    0  0.81483378664E+01 -0.83370240554E+01  0.22303861779E+02  0.25166716718E+02  0.00000000000E+00 0. -1.
</event>
<event>
 8    1  0.2458065E-006  0.9118800E+02  0.7816164E-02  0.1184000E+00
        -11   -1    0    0    0    0  0.00000000000E+00  0.00000000000E+00  0.45593999997E+02  0.45594000000E+02  0.51100000000E-03 0. -1.
         11   -1    0    0    0    0 -0.00000000000E+00 -0.00000000000E+00 -0.45593999997E+02  0.45594000000E+02  0.51100000000E-03 0.  1.
         23    2    1    2    0    0  0.00000000000E+00 -0.35527136788E-14  0.35527136788E-14  0.91188000000E+02  0.91188000000E+02 0.  0.
    9900012    2    3    3    0    0  0.50598947956E+01 -0.26791697916E+02  0.24746360758E+02  0.54367082259E+02  0.39999995626E+02 0.  0.
        -12    1    3    3    0    0 -0.50598947956E+01  0.26791697916E+02 -0.24746360758E+02  0.36820917741E+02  0.00000000000E+00 0.  1.
         11    1    4    4    0    0  0.44068091787E+01 -0.25623474590E+01  0.13399815171E+02  0.14336688548E+02  0.51100000000E-03 0. -1.
        -11    1    4    4    0    0  0.45564366239E+01  0.32088913619E+01  0.10980145685E+02  0.12313476277E+02  0.51100000000E-03 0.  1.
         12    1    4    4    0    0 -0.39033510070E+01 -0.27438241818E+02  0.36639990124E+00  0.27716917434E+02  0.00000000000E+00 0. -1.
</event>
<event>
 8    1  0.2458065E-006  0.9118800E+02  0.7816164E-02  0.1184000E+00
        -11   -1    0    0    0    0  0.00000000000E+00  0.00000000000E+00  0.45593999997E+02  0.45594000000E+02  0.51100000000E-03 0.  1.
         11   -1    0    0    0    0 -0.00000000000E+00 -0.00000000000E+00 -0.45593999997E+02  0.45594000000E+02  0.51100000000E-03 0. -1.
         23    2    1    2    0    0  0.00000000000E+00  0.35527136788E-14  0.00000000000E+00  0.91188000000E+02  0.91188000000E+02 0.  0.
    9900012    2    3    3    0    0 -0.19145496203E+02  0.19091048060E+02  0.24995240651E+02  0.54367079369E+02  0.39999989037E+02 0.  0.
         12    1    3    3    0    0  0.19145496203E+02 -0.19091048060E+02 -0.24995240651E+02  0.36820920631E+02  0.00000000000E+00 0. -1.
         11    1    4    4    0    0 -0.12204786917E+02  0.31920348546E+01  0.11929912773E+01  0.12671587850E+02  0.51100000000E-03 0. -1.
        -11    1    4    4    0    0 -0.45102429007E+01 -0.30590759662E+01  0.21807824993E+02  0.22478466762E+02  0.51100000000E-03 0.  1.
        -12    1    4    4    0    0 -0.24304663857E+01  0.18958089172E+02  0.19944243815E+01  0.19217024757E+02  0.00000000000E+00 0.  1.
</event>
<event>
 8    1  0.2458065E-006  0.9118800E+02  0.7816164E-02  0.1184000E+00
        -11   -1    0    0    0    0  0.00000000000E+00  0.00000000000E+00  0.45593999997E+02  0.45594000000E+02  0.51100000000E-03 0.  1.
         11   -1    0    0    0    0 -0.00000000000E+00 -0.00000000000E+00 -0.45593999997E+02  0.45594000000E+02  0.51100000000E-03 0. -1.
         23    2    1    2    0    0  0.35527136788E-14  0.00000000000E+00 -0.35527136788E-14  0.91188000000E+02  0.91188000000E+02 0.  0.
    9900012    2    3    3    0    0  0.22402571945E+02 -0.16458187115E+02 -0.24146043196E+02  0.54367101656E+02  0.40000039845E+02 0.  0.
        -12    1    3    3    0    0 -0.22402571945E+02  0.16458187115E+02  0.24146043196E+02  0.36820898344E+02  0.00000000000E+00 0.  1.
         11    1    4    4    0    0 -0.13019932431E+01 -0.13414640220E+02 -0.10549894701E+02  0.17115724849E+02  0.51100000000E-03 0. -1.
        -11    1    4    4    0    0  0.10371256893E+01 -0.52135809318E+01 -0.13468919336E+02  0.14479946277E+02  0.51100000000E-03 0.  1.
        -12    1    4    4    0    0  0.22667439499E+02  0.21700340368E+01 -0.12722915855E+00  0.22771430531E+02  0.00000000000E+00 0.  1.
</event>
<event>
 8    1  0.2458065E-006  0.9118800E+02  0.7816164E-02  0.1184000E+00
        -11   -1    0    0    0    0  0.00000000000E+00  0.00000000000E+00  0.45593999997E+02  0.45594000000E+02  0.51100000000E-03 0.  1.
         11   -1    0    0    0    0 -0.00000000000E+00 -0.00000000000E+00 -0.45593999997E+02  0.45594000000E+02  0.51100000000E-03 0. -1.
         23    2    1    2    0    0  0.00000000000E+00  0.17763568394E-14  0.00000000000E+00  0.91188000000E+02  0.91188000000E+02 0.  0.
    9900012    2    3    3    0    0 -0.19421521517E+02  0.83928789809E+01 -0.30135446651E+02  0.54367067631E+02  0.39999962279E+02 0.  0.
        -12    1    3    3    0    0  0.19421521517E+02 -0.83928789809E+01  0.30135446651E+02  0.36820932369E+02  0.00000000000E+00 0.  1.
         11    1    4    4    0    0 -0.40876622975E+01 -0.63275397210E+01 -0.81310805486E+01  0.11084277745E+02  0.51100000000E-03 0.  1.
        -11    1    4    4    0    0  0.78637677310E+01  0.98922321008E+01 -0.32075684135E+01  0.13037775663E+02  0.51100000000E-03 0. -1.
        -12    1    4    4    0    0 -0.23197626950E+02  0.48281866011E+01 -0.18796797689E+02  0.30245014223E+02  0.00000000000E+00 0.  1.
</event>
<event>
 8    1  0.2458065E-006  0.9118800E+02  0.7816164E-02  0.1184000E+00
        -11   -1    0    0    0    0  0.00000000000E+00  0.00000000000E+00  0.45593999997E+02  0.45594000000E+02  0.51100000000E-03 0.  1.
         11   -1    0    0    0    0 -0.00000000000E+00 -0.00000000000E+00 -0.45593999997E+02  0.45594000000E+02  0.51100000000E-03 0. -1.
         23    2    1    2    0    0  0.00000000000E+00  0.00000000000E+00  0.00000000000E+00  0.91188000000E+02  0.91188000000E+02 0.  0.
    9900012    2    3    3    0    0  0.30615722689E+02 -0.18387512743E+02  0.89642075267E+01  0.54367080441E+02  0.39999991481E+02 0.  0.
         12    1    3    3    0    0 -0.30615722689E+02  0.18387512743E+02 -0.89642075267E+01  0.36820919559E+02  0.00000000000E+00 0. -1.
         11    1    4    4    0    0 -0.10083308169E+01 -0.51154258239E+01 -0.57712486801E+01  0.77776361438E+01  0.51100000000E-03 0. -1.
        -11    1    4    4    0    0  0.14536662618E+02 -0.18777690789E+02  0.15933476421E+02  0.28597061082E+02  0.51100000000E-03 0.  1.
        -12    1    4    4    0    0  0.17087390888E+02  0.55056038699E+01 -0.11980202139E+01  0.17992383215E+02  0.00000000000E+00 0.  1.
</event>
<event>
 8    1  0.2458065E-006  0.9118800E+02  0.7816164E-02  0.1184000E+00
        -11   -1    0    0    0    0  0.00000000000E+00  0.00000000000E+00  0.45593999997E+02  0.45594000000E+02  0.51100000000E-03 0. -1.
         11   -1    0    0    0    0 -0.00000000000E+00 -0.00000000000E+00 -0.45593999997E+02  0.45594000000E+02  0.51100000000E-03 0.  1.
         23    2    1    2    0    0  0.00000000000E+00 -0.17763568394E-14  0.00000000000E+00  0.91188000000E+02  0.91188000000E+02 0.  0.
    9900012    2    3    3    0    0  0.24740233803E+02  0.12526016651E+02  0.24223918759E+02  0.54367102376E+02  0.40000041487E+02 0.  0.
        -12    1    3    3    0    0 -0.24740233803E+02 -0.12526016651E+02 -0.24223918759E+02  0.36820897624E+02  0.00000000000E+00 0.  1.
         11    1    4    4    0    0 -0.40379597771E+01  0.32632293808E+01 -0.31893571773E+01  0.60930931897E+01  0.51100000000E-03 0. -1.
        -11    1    4    4    0    0  0.15573141757E+02 -0.61471824941E+01  0.21273693004E+02  0.27071767786E+02  0.51100000000E-03 0.  1.
         12    1    4    4    0    0  0.13205051824E+02  0.15409969764E+02  0.61395829327E+01  0.21202241400E+02  0.00000000000E+00 0. -1.
</event>
<event>
 8    1  0.2458065E-006  0.9118800E+02  0.7816164E-02  0.1184000E+00
        -11   -1    0    0    0    0  0.00000000000E+00  0.00000000000E+00  0.45593999997E+02  0.45594000000E+02  0.51100000000E-03 0.  1.
         11   -1    0    0    0    0 -0.00000000000E+00 -0.00000000000E+00 -0.45593999997E+02  0.45594000000E+02  0.51100000000E-03 0. -1.
         23    2    1    2    0    0  0.88817841970E-15  0.00000000000E+00  0.00000000000E+00  0.91188000000E+02  0.91188000000E+02 0.  0.
    9900012    2    3    3    0    0 -0.40063901109E+01 -0.32643470632E+02 -0.16556937668E+02  0.54367088529E+02  0.40000009919E+02 0.  0.
        -12    1    3    3    0    0  0.40063901109E+01  0.32643470632E+02  0.16556937668E+02  0.36820911471E+02  0.00000000000E+00 0.  1.
         11    1    4    4    0    0 -0.72800563021E+01 -0.16450227126E+02 -0.10970926554E+02  0.21070605638E+02  0.51100000000E-03 0. -1.
        -11    1    4    4    0    0  0.33594922828E-01  0.74249111404E+01 -0.58547427115E+01  0.94556039755E+01  0.51100000000E-03 0.  1.
         12    1    4    4    0    0  0.32400712683E+01 -0.23618154647E+02  0.26873159788E+00  0.23840878915E+02  0.00000000000E+00 0. -1.
</event>
<event>
 8    1  0.2458065E-006  0.9118800E+02  0.7816164E-02  0.1184000E+00
        -11   -1    0    0    0    0  0.00000000000E+00  0.00000000000E+00  0.45593999997E+02  0.45594000000E+02  0.51100000000E-03 0. -1.
         11   -1    0    0    0    0 -0.00000000000E+00 -0.00000000000E+00 -0.45593999997E+02  0.45594000000E+02  0.51100000000E-03 0.  1.
         23    2    1    2    0    0 -0.71054273576E-14 -0.17763568394E-14 -0.17763568394E-14  0.91188000000E+02  0.91188000000E+02 0.  0.
    9900012    2    3    3    0    0 -0.33735273412E+02 -0.63491427325E+01 -0.13319323565E+02  0.54367018673E+02  0.39999850670E+02 0.  0.
         12    1    3    3    0    0  0.33735273412E+02  0.63491427325E+01  0.13319323565E+02  0.36820981327E+02  0.00000000000E+00 0. -1.
         11    1    4    4    0    0 -0.76881379850E+01  0.62053741521E+01 -0.25059873197E+01  0.10192845861E+02  0.51100000000E-03 0. -1.
        -11    1    4    4    0    0 -0.67021417826E+01  0.10669871408E+02 -0.34642278413E+01  0.13067736420E+02  0.51100000000E-03 0.  1.
         12    1    4    4    0    0 -0.19344993644E+02 -0.23224388293E+02 -0.73491084036E+01  0.31106436392E+02  0.00000000000E+00 0. -1.
</event>
<event>
 8    1  0.2458065E-006  0.9118800E+02  0.7816164E-02  0.1184000E+00
        -11   -1    0    0    0    0  0.00000000000E+00  0.00000000000E+00  0.45593999997E+02  0.45594000000E+02  0.51100000000E-03 0.  1.
         11   -1    0    0    0    0 -0.00000000000E+00 -0.00000000000E+00 -0.45593999997E+02  0.45594000000E+02  0.51100000000E-03 0. -1.
         23    2    1    2    0    0  0.00000000000E+00  0.71054273576E-14  0.17763568394E-14  0.91188000000E+02  0.91188000000E+02 0.  0.
    9900012    2    3    3    0    0 -0.89863548332E+01 -0.34707324864E+02  0.83922789323E+01  0.54367036975E+02  0.39999892392E+02 0.  0.
         12    1    3    3    0    0  0.89863548332E+01  0.34707324864E+02 -0.83922789323E+01  0.36820963025E+02  0.00000000000E+00 0. -1.
         11    1    4    4    0    0 -0.10777035775E+02 -0.45553120940E+01  0.74323260330E+00  0.11723811809E+02  0.51100000000E-03 0. -1.
        -11    1    4    4    0    0 -0.13022212685E+02 -0.20299340856E+02  0.34356136292E+01  0.24360720508E+02  0.51100000000E-03 0.  1.
        -12    1    4    4    0    0  0.14812893627E+02 -0.98526719140E+01  0.42134326998E+01  0.18282504658E+02  0.00000000000E+00 0.  1.
</event>
<event>
 8    1  0.2458065E-006  0.9118800E+02  0.7816164E-02  0.1184000E+00
        -11   -1    0    0    0    0  0.00000000000E+00  0.00000000000E+00  0.45593999997E+02  0.45594000000E+02  0.51100000000E-03 0.  1.
         11   -1    0    0    0    0 -0.00000000000E+00 -0.00000000000E+00 -0.45593999997E+02  0.45594000000E+02  0.51100000000E-03 0. -1.
         23    2    1    2    0    0 -0.35527136788E-14 -0.35527136788E-14  0.00000000000E+00  0.91188000000E+02  0.91188000000E+02 0.  0.
    9900012    2    3    3    0    0 -0.15061173428E+02  0.27246215793E+02 -0.19661761392E+02  0.54367080931E+02  0.39999992598E+02 0.  0.
        -12    1    3    3    0    0  0.15061173428E+02 -0.27246215793E+02  0.19661761392E+02  0.36820919069E+02  0.00000000000E+00 0.  1.
         11    1    4    4    0    0  0.17243437029E+01  0.18345678516E+02 -0.62654149145E+01  0.19462597610E+02  0.51100000000E-03 0. -1.
        -11    1    4    4    0    0  0.32254314809E+01  0.72179974942E+01 -0.12515769213E+02  0.14803627100E+02  0.51100000000E-03 0.  1.
        -12    1    4    4    0    0 -0.20010948612E+02  0.16825397825E+01 -0.88057726482E+00  0.20100856221E+02  0.00000000000E+00 0.  1.
</event>
<event>
 8    1  0.2458065E-006  0.9118800E+02  0.7816164E-02  0.1184000E+00
        -11   -1    0    0    0    0  0.00000000000E+00  0.00000000000E+00  0.45593999997E+02  0.45594000000E+02  0.51100000000E-03 0.  1.
         11   -1    0    0    0    0 -0.00000000000E+00 -0.00000000000E+00 -0.45593999997E+02  0.45594000000E+02  0.51100000000E-03 0. -1.
         23    2    1    2    0    0  0.00000000000E+00  0.35527136788E-14  0.00000000000E+00  0.91188000000E+02  0.91188000000E+02 0.  0.
    9900012    2    3    3    0    0 -0.91923572474E+01  0.17273070183E+02 -0.31191687210E+02  0.54367085613E+02  0.40000003272E+02 0.  0.
        -12    1    3    3    0    0  0.91923572474E+01 -0.17273070183E+02  0.31191687210E+02  0.36820914387E+02  0.00000000000E+00 0.  1.
         11    1    4    4    0    0 -0.95163126118E+01  0.25346621773E+02 -0.97712840850E+01  0.28783492386E+02  0.51100000000E-03 0. -1.
        -11    1    4    4    0    0  0.12242811309E+00 -0.81459842013E+01 -0.58932684851E+01  0.10054981897E+02  0.51100000000E-03 0.  1.
         12    1    4    4    0    0  0.20152725132E+00  0.72432611727E-01 -0.15527134640E+02  0.15528611330E+02  0.00000000000E+00 0. -1.
</event>
<event>
 8    1  0.2458065E-006  0.9118800E+02  0.7816164E-02  0.1184000E+00
        -11   -1    0    0    0    0  0.00000000000E+00  0.00000000000E+00  0.45593999997E+02  0.45594000000E+02  0.51100000000E-03 0.  1.
         11   -1    0    0    0    0 -0.00000000000E+00 -0.00000000000E+00 -0.45593999997E+02  0.45594000000E+02  0.51100000000E-03 0. -1.
         23    2    1    2    0    0  0.00000000000E+00 -0.35527136788E-14 -0.35527136788E-14  0.91188000000E+02  0.91188000000E+02 0.  0.
    9900012    2    3    3    0    0  0.20262004944E+02 -0.17107334898E+02 -0.25545459964E+02  0.54367078278E+02  0.39999986551E+02 0.  0.
        -12    1    3    3    0    0 -0.20262004944E+02  0.17107334898E+02  0.25545459964E+02  0.36820921722E+02  0.00000000000E+00 0.  1.
         11    1    4    4    0    0 -0.14660813642E+01 -0.11601311664E+02 -0.22295635062E+02  0.25176083293E+02  0.51100000000E-03 0. -1.
        -11    1    4    4    0    0  0.56627562838E+01 -0.10659524404E+02 -0.23383292715E+01  0.12294716479E+02  0.51100000000E-03 0.  1.
        -12    1    4    4    0    0  0.16065330025E+02  0.51535011693E+01 -0.91149563042E+00  0.16896278507E+02  0.00000000000E+00 0.  1.
</event>
<event>
 8    1  0.2458065E-006  0.9118800E+02  0.7816164E-02  0.1184000E+00
        -11   -1    0    0    0    0  0.00000000000E+00  0.00000000000E+00  0.45593999997E+02  0.45594000000E+02  0.51100000000E-03 0. -1.
         11   -1    0    0    0    0 -0.00000000000E+00 -0.00000000000E+00 -0.45593999997E+02  0.45594000000E+02  0.51100000000E-03 0.  1.
         23    2    1    2    0    0  0.44408920985E-15 -0.15543122345E-14  0.00000000000E+00  0.91188000000E+02  0.91188000000E+02 0.  0.
    9900012    2    3    3    0    0 -0.34482129140E+01  0.13375554992E+01 -0.36634720027E+02  0.54367055710E+02  0.39999935101E+02 0.  0.
         12    1    3    3    0    0  0.34482129140E+01 -0.13375554992E+01  0.36634720027E+02  0.36820944290E+02  0.00000000000E+00 0. -1.
         11    1    4    4    0    0 -0.68012313880E+01  0.10634459324E+02 -0.15835387155E+01  0.12722266647E+02  0.51100000000E-03 0. -1.
        -11    1    4    4    0    0 -0.24534998686E+01 -0.13951770328E+02 -0.17056643931E+02  0.22172069352E+02  0.51100000000E-03 0.  1.
         12    1    4    4    0    0  0.58065183426E+01  0.46548665025E+01 -0.17994537380E+02  0.19472719711E+02  0.00000000000E+00 0. -1.
</event>
<event>
 8    1  0.2458065E-006  0.9118800E+02  0.7816164E-02  0.1184000E+00
        -11   -1    0    0    0    0  0.00000000000E+00  0.00000000000E+00  0.45593999997E+02  0.45594000000E+02  0.51100000000E-03 0.  1.
         11   -1    0    0    0    0 -0.00000000000E+00 -0.00000000000E+00 -0.45593999997E+02  0.45594000000E+02  0.51100000000E-03 0. -1.
         23    2    1    2    0    0  0.13322676296E-14  0.35527136788E-14  0.00000000000E+00  0.91188000000E+02  0.91188000000E+02 0.  0.
    9900012    2    3    3    0    0 -0.14001873804E+01 -0.30068571272E+02 -0.21206136116E+02  0.54367085943E+02  0.40000004024E+02 0.  0.
        -12    1    3    3    0    0  0.14001873804E+01  0.30068571272E+02  0.21206136116E+02  0.36820914057E+02  0.00000000000E+00 0.  1.
         11    1    4    4    0    0  0.37182635547E+01 -0.20256819918E+02  0.43406686450E+01  0.21047699199E+02  0.51100000000E-03 0. -1.
        -11    1    4    4    0    0  0.29850273375E+01 -0.98852046863E+01 -0.22327220229E+02  0.24599439492E+02  0.51100000000E-03 0.  1.
         12    1    4    4    0    0 -0.81034782726E+01  0.73453332026E-01 -0.32195845320E+01  0.87199472513E+01  0.00000000000E+00 0. -1.
</event>
<event>
 8    1  0.2458065E-006  0.9118800E+02  0.7816164E-02  0.1184000E+00
        -11   -1    0    0    0    0  0.00000000000E+00  0.00000000000E+00  0.45593999997E+02  0.45594000000E+02  0.51100000000E-03 0.  1.
         11   -1    0    0    0    0 -0.00000000000E+00 -0.00000000000E+00 -0.45593999997E+02  0.45594000000E+02  0.51100000000E-03 0. -1.
         23    2    1    2    0    0  0.00000000000E+00  0.71054273576E-14  0.88817841970E-15  0.91188000000E+02  0.91188000000E+02 0.  0.
    9900012    2    3    3    0    0 -0.11026342316E+02  0.34736632622E+02 -0.52503167229E+01  0.54367086154E+02  0.40000004505E+02 0.  0.
         12    1    3    3    0    0  0.11026342316E+02 -0.34736632622E+02  0.52503167229E+01  0.36820913846E+02  0.00000000000E+00 0. -1.
         11    1    4    4    0    0 -0.23229525994E+01  0.32541394302E+02  0.35040029911E+01  0.32811834589E+02  0.51100000000E-03 0. -1.
        -11    1    4    4    0    0 -0.68805702380E+01  0.64962806648E+01  0.21399334921E+01  0.97017124719E+01  0.51100000000E-03 0.  1.
        -12    1    4    4    0    0 -0.18228194783E+01 -0.43010423449E+01 -0.10894253206E+02  0.11853539093E+02  0.00000000000E+00 0.  1.
</event>
<event>
 8    1  0.2458065E-006  0.9118800E+02  0.7816164E-02  0.1184000E+00
        -11   -1    0    0    0    0  0.00000000000E+00  0.00000000000E+00  0.45593999997E+02  0.45594000000E+02  0.51100000000E-03 0.  1.
         11   -1    0    0    0    0 -0.00000000000E+00 -0.00000000000E+00 -0.45593999997E+02  0.45594000000E+02  0.51100000000E-03 0. -1.
         23    2    1    2    0    0  0.17763568394E-14  0.00000000000E+00  0.00000000000E+00  0.91188000000E+02  0.91188000000E+02 0.  0.
    9900012    2    3    3    0    0 -0.13987749342E+02 -0.32831971518E+02  0.90654559121E+01  0.54367109512E+02  0.40000057754E+02 0.  0.
        -12    1    3    3    0    0  0.13987749342E+02  0.32831971518E+02 -0.90654559121E+01  0.36820890488E+02  0.00000000000E+00 0.  1.
         11    1    4    4    0    0 -0.52485335995E+01  0.30481138163E+01  0.77875634759E+00  0.61191963927E+01  0.51100000000E-03 0. -1.
        -11    1    4    4    0    0 -0.22963457766E+00 -0.19060239369E+02 -0.10392453515E+02  0.21710563032E+02  0.51100000000E-03 0.  1.
        -12    1    4    4    0    0 -0.85095811653E+01 -0.16819845966E+02  0.18679153079E+02  0.26537350088E+02  0.00000000000E+00 0.  1.
</event>
<event>
 8    1  0.2458065E-006  0.9118800E+02  0.7816164E-02  0.1184000E+00
        -11   -1    0    0    0    0  0.00000000000E+00  0.00000000000E+00  0.45593999997E+02  0.45594000000E+02  0.51100000000E-03 0.  1.
         11   -1    0    0    0    0 -0.00000000000E+00 -0.00000000000E+00 -0.45593999997E+02  0.45594000000E+02  0.51100000000E-03 0. -1.
         23    2    1    2    0    0 -0.88817841970E-15 -0.44408920985E-15  0.00000000000E+00  0.91188000000E+02  0.91188000000E+02 0.  0.
    9900012    2    3    3    0    0  0.43477934375E+01 -0.25450479286E+01  0.36474637514E+02  0.54367085311E+02  0.40000002584E+02 0.  0.
         12    1    3    3    0    0 -0.43477934375E+01  0.25450479286E+01 -0.36474637514E+02  0.36820914689E+02  0.00000000000E+00 0. -1.
         11    1    4    4    0    0  0.78209370422E+01 -0.63084064964E+01  0.26179079010E+02  0.28041170211E+02  0.51100000000E-03 0. -1.
        -11    1    4    4    0    0  0.99162875084E+01  0.34854875670E+01  0.66802394706E+01  0.12454195324E+02  0.51100000000E-03 0.  1.
         12    1    4    4    0    0 -0.13389431113E+02  0.27787100083E+00  0.36153190330E+01  0.13871719776E+02  0.00000000000E+00 0. -1.
</event>
<event>
 8    1  0.2458065E-006  0.9118800E+02  0.7816164E-02  0.1184000E+00
        -11   -1    0    0    0    0  0.00000000000E+00  0.00000000000E+00  0.45593999997E+02  0.45594000000E+02  0.51100000000E-03 0.  1.
         11   -1    0    0    0    0 -0.00000000000E+00 -0.00000000000E+00 -0.45593999997E+02  0.45594000000E+02  0.51100000000E-03 0. -1.
         23    2    1    2    0    0  0.00000000000E+00  0.17763568394E-14  0.00000000000E+00  0.91188000000E+02  0.91188000000E+02 0.  0.
    9900012    2    3    3    0    0  0.32195105987E+02 -0.15886212248E+02 -0.81779619185E+01  0.54367141098E+02  0.40000129762E+02 0.  0.
        -12    1    3    3    0    0 -0.32195105987E+02  0.15886212248E+02  0.81779619185E+01  0.36820858902E+02  0.00000000000E+00 0.  1.
         11    1    4    4    0    0  0.81719824624E+01 -0.18734525788E+02 -0.62115102646E+01  0.21362270804E+02  0.51100000000E-03 0. -1.
        -11    1    4    4    0    0  0.14951898999E+02  0.71056947518E+01 -0.10700892625E+02  0.19711907184E+02  0.51100000000E-03 0.  1.
         12    1    4    4    0    0  0.90712245258E+01 -0.42573812120E+01  0.87344409713E+01  0.13292963111E+02  0.00000000000E+00 0. -1.
</event>
<event>
 8    1  0.2458065E-006  0.9118800E+02  0.7816164E-02  0.1184000E+00
        -11   -1    0    0    0    0  0.00000000000E+00  0.00000000000E+00  0.45593999997E+02  0.45594000000E+02  0.51100000000E-03 0.  1.
         11   -1    0    0    0    0 -0.00000000000E+00 -0.00000000000E+00 -0.45593999997E+02  0.45594000000E+02  0.51100000000E-03 0. -1.
         23    2    1    2    0    0  0.00000000000E+00 -0.55511151231E-15 -0.71054273576E-14  0.91188000000E+02  0.91188000000E+02 0.  0.
    9900012    2    3    3    0    0 -0.37304333691E+01 -0.33184822995E+00  0.36629921187E+02  0.54367117576E+02  0.40000076137E+02 0.  0.
         12    1    3    3    0    0  0.37304333691E+01  0.33184822995E+00 -0.36629921187E+02  0.36820882424E+02  0.00000000000E+00 0. -1.
         11    1    4    4    0    0 -0.57298370107E+01  0.39506102668E+01 -0.47379634089E+01  0.84194210712E+01  0.51100000000E-03 0. -1.
        -11    1    4    4    0    0  0.27013245351E+01 -0.63606515975E+01  0.30274538577E+01  0.75445689148E+01  0.51100000000E-03 0.  1.
        -12    1    4    4    0    0 -0.70192089349E+00  0.20781931008E+01  0.38340430738E+02  0.38403127590E+02  0.00000000000E+00 0.  1.
</event>
<event>
 8    1  0.2458065E-006  0.9118800E+02  0.7816164E-02  0.1184000E+00
        -11   -1    0    0    0    0  0.00000000000E+00  0.00000000000E+00  0.45593999997E+02  0.45594000000E+02  0.51100000000E-03 0. -1.
         11   -1    0    0    0    0 -0.00000000000E+00 -0.00000000000E+00 -0.45593999997E+02  0.45594000000E+02  0.51100000000E-03 0.  1.
         23    2    1    2    0    0 -0.88817841970E-15 -0.44408920985E-15  0.00000000000E+00  0.91188000000E+02  0.91188000000E+02 0.  0.
    9900012    2    3    3    0    0 -0.74701644105E+01  0.23444884359E+01 -0.35978890357E+02  0.54367074786E+02  0.39999978589E+02 0.  0.
         12    1    3    3    0    0  0.74701644105E+01 -0.23444884359E+01  0.35978890357E+02  0.36820925214E+02  0.00000000000E+00 0. -1.
         11    1    4    4    0    0  0.10315741925E+02  0.82434254639E+00 -0.14221185330E+02  0.17587955667E+02  0.51100000000E-03 0. -1.
        -11    1    4    4    0    0 -0.93673140393E+01 -0.87580916211E+01 -0.19445831920E+02  0.23293585394E+02  0.51100000000E-03 0.  1.
         12    1    4    4    0    0 -0.84185922965E+01  0.10278237511E+02 -0.23118731062E+01  0.13485533725E+02  0.00000000000E+00 0. -1.
</event>
<event>
 8    1  0.2458065E-006  0.9118800E+02  0.7816164E-02  0.1184000E+00
        -11   -1    0    0    0    0  0.00000000000E+00  0.00000000000E+00  0.45593999997E+02  0.45594000000E+02  0.51100000000E-03 0.  1.
         11   -1    0    0    0    0 -0.00000000000E+00 -0.00000000000E+00 -0.45593999997E+02  0.45594000000E+02  0.51100000000E-03 0. -1.
         23    2    1    2    0    0  0.00000000000E+00  0.00000000000E+00  0.00000000000E+00  0.91188000000E+02  0.91188000000E+02 0.  0.
    9900012    2    3    3    0    0 -0.20954887955E+02 -0.19872711210E+02 -0.22841800897E+02  0.54367084093E+02  0.39999999807E+02 0.  0.
        -12    1    3    3    0    0  0.20954887955E+02  0.19872711210E+02  0.22841800897E+02  0.36820915907E+02  0.00000000000E+00 0.  1.
         11    1    4    4    0    0 -0.14939691075E+02 -0.12022293964E+02 -0.12187058395E+02  0.22721230472E+02  0.51100000000E-03 0. -1.
        -11    1    4    4    0    0  0.11187539348E+02 -0.30473935572E+01 -0.65585667038E+01  0.13321502979E+02  0.51100000000E-03 0.  1.
        -12    1    4    4    0    0 -0.17202736228E+02 -0.48030236883E+01 -0.40961757984E+01  0.18324350642E+02  0.00000000000E+00 0.  1.
</event>
<event>
 8    1  0.2458065E-006  0.9118800E+02  0.7816164E-02  0.1184000E+00
        -11   -1    0    0    0    0  0.00000000000E+00  0.00000000000E+00  0.45593999997E+02  0.45594000000E+02  0.51100000000E-03 0. -1.
         11   -1    0    0    0    0 -0.00000000000E+00 -0.00000000000E+00 -0.45593999997E+02  0.45594000000E+02  0.51100000000E-03 0.  1.
         23    2    1    2    0    0  0.00000000000E+00  0.00000000000E+00 -0.35527136788E-14  0.91188000000E+02  0.91188000000E+02 0.  0.
    9900012    2    3    3    0    0 -0.24700047167E+02 -0.14739965551E+02  0.22987406080E+02  0.54367085389E+02  0.40000002762E+02 0.  0.
        -12    1    3    3    0    0  0.24700047167E+02  0.14739965551E+02 -0.22987406080E+02  0.36820914611E+02  0.00000000000E+00 0.  1.
         11    1    4    4    0    0 -0.89103310689E+01 -0.95536328459E+01 -0.47640486301E+00  0.13072599671E+02  0.51100000000E-03 0. -1.
        -11    1    4    4    0    0 -0.20664624517E+02 -0.18513733361E+01  0.42300228161E+01  0.21174215049E+02  0.51100000000E-03 0.  1.
         12    1    4    4    0    0  0.48749084189E+01 -0.33349593690E+01  0.19233788127E+02  0.20120270669E+02  0.00000000000E+00 0. -1.
</event>
<event>
 8    1  0.2458065E-006  0.9118800E+02  0.7816164E-02  0.1184000E+00
        -11   -1    0    0    0    0  0.00000000000E+00  0.00000000000E+00  0.45593999997E+02  0.45594000000E+02  0.51100000000E-03 0.  1.
         11   -1    0    0    0    0 -0.00000000000E+00 -0.00000000000E+00 -0.45593999997E+02  0.45594000000E+02  0.51100000000E-03 0. -1.
         23    2    1    2    0    0  0.00000000000E+00  0.00000000000E+00  0.17763568394E-14  0.91188000000E+02  0.91188000000E+02 0.  0.
    9900012    2    3    3    0    0 -0.20304996036E+02  0.28173472017E+02 -0.12236840609E+02  0.54367113840E+02  0.40000067621E+02 0.  0.
        -12    1    3    3    0    0  0.20304996036E+02 -0.28173472017E+02  0.12236840609E+02  0.36820886160E+02  0.00000000000E+00 0.  1.
         11    1    4    4    0    0  0.18577008673E+00  0.12510295310E+02 -0.83611464243E+01  0.15048281266E+02  0.51100000000E-03 0. -1.
        -11    1    4    4    0    0 -0.16314122423E+02  0.21113356317E+02  0.59445499081E+01  0.27336094806E+02  0.51100000000E-03 0.  1.
        -12    1    4    4    0    0 -0.41766437000E+01 -0.54501796093E+01 -0.98202440930E+01  0.11982737768E+02  0.00000000000E+00 0.  1.
</event>
<event>
 8    1  0.2458065E-006  0.9118800E+02  0.7816164E-02  0.1184000E+00
        -11   -1    0    0    0    0  0.00000000000E+00  0.00000000000E+00  0.45593999997E+02  0.45594000000E+02  0.51100000000E-03 0.  1.
         11   -1    0    0    0    0 -0.00000000000E+00 -0.00000000000E+00 -0.45593999997E+02  0.45594000000E+02  0.51100000000E-03 0. -1.
         23    2    1    2    0    0  0.17763568394E-14 -0.22204460493E-15  0.00000000000E+00  0.91188000000E+02  0.91188000000E+02 0.  0.
    9900012    2    3    3    0    0  0.12758902984E+02 -0.14381173339E+01  0.34509731328E+02  0.54367090952E+02  0.40000015443E+02 0.  0.
         12    1    3    3    0    0 -0.12758902984E+02  0.14381173339E+01 -0.34509731328E+02  0.36820909048E+02  0.00000000000E+00 0. -1.
         11    1    4    4    0    0  0.59424084926E+01 -0.87354093899E-01 -0.88348032793E+00  0.60083597747E+01  0.51100000000E-03 0. -1.
        -11    1    4    4    0    0 -0.12923792480E+02 -0.17372053879E+01  0.11722288456E+02  0.17534375995E+02  0.51100000000E-03 0.  1.
         12    1    4    4    0    0  0.19740286971E+02  0.38644214783E+00  0.23670923200E+02  0.30824355182E+02  0.00000000000E+00 0. -1.
</event>
<event>
 8    1  0.2458065E-006  0.9118800E+02  0.7816164E-02  0.1184000E+00
        -11   -1    0    0    0    0  0.00000000000E+00  0.00000000000E+00  0.45593999997E+02  0.45594000000E+02  0.51100000000E-03 0. -1.
         11   -1    0    0    0    0 -0.00000000000E+00 -0.00000000000E+00 -0.45593999997E+02  0.45594000000E+02  0.51100000000E-03 0.  1.
         23    2    1    2    0    0  0.00000000000E+00  0.35527136788E-14  0.00000000000E+00  0.91188000000E+02  0.91188000000E+02 0.  0.
    9900012    2    3    3    0    0  0.16774100451E+02 -0.27883964724E+02  0.17230483588E+02  0.54367143148E+02  0.40000134434E+02 0.  0.
        -12    1    3    3    0    0 -0.16774100451E+02  0.27883964724E+02 -0.17230483588E+02  0.36820856852E+02  0.00000000000E+00 0.  1.
         11    1    4    4    0    0  0.12014439735E+02 -0.51360525295E+01  0.66467869885E+01  0.14659658088E+02  0.51100000000E-03 0. -1.
        -11    1    4    4    0    0  0.85524106425E+01 -0.88652756809E+01 -0.91063871700E+01  0.15318718231E+02  0.51100000000E-03 0.  1.
         12    1    4    4    0    0 -0.37927499265E+01 -0.13882636513E+02  0.19690083769E+02  0.24388766828E+02  0.00000000000E+00 0. -1.
</event>
<event>
 8    1  0.2458065E-006  0.9118800E+02  0.7816164E-02  0.1184000E+00
        -11   -1    0    0    0    0  0.00000000000E+00  0.00000000000E+00  0.45593999997E+02  0.45594000000E+02  0.51100000000E-03 0. -1.
         11   -1    0    0    0    0 -0.00000000000E+00 -0.00000000000E+00 -0.45593999997E+02  0.45594000000E+02  0.51100000000E-03 0.  1.
         23    2    1    2    0    0  0.17763568394E-14  0.00000000000E+00  0.44408920985E-15  0.91188000000E+02  0.91188000000E+02 0.  0.
    9900012    2    3    3    0    0 -0.96858667869E+01 -0.35473998630E+02 -0.18866872819E+01  0.54367079546E+02  0.39999989441E+02 0.  0.
        -12    1    3    3    0    0  0.96858667869E+01  0.35473998630E+02  0.18866872819E+01  0.36820920454E+02  0.00000000000E+00 0.  1.
         11    1    4    4    0    0  0.40068475033E+01 -0.19101925143E+02  0.88958708329E+01  0.21449356382E+02  0.51100000000E-03 0. -1.
        -11    1    4    4    0    0 -0.13952416557E+02 -0.13715517183E+02 -0.17147465923E+02  0.26015782272E+02  0.51100000000E-03 0.  1.
        -12    1    4    4    0    0  0.25970226718E+00 -0.26565563045E+01  0.63649078084E+01  0.69019408919E+01  0.00000000000E+00 0.  1.
</event>
<event>
 8    1  0.2458065E-006  0.9118800E+02  0.7816164E-02  0.1184000E+00
        -11   -1    0    0    0    0  0.00000000000E+00  0.00000000000E+00  0.45593999997E+02  0.45594000000E+02  0.51100000000E-03 0.  1.
         11   -1    0    0    0    0 -0.00000000000E+00 -0.00000000000E+00 -0.45593999997E+02  0.45594000000E+02  0.51100000000E-03 0. -1.
         23    2    1    2    0    0 -0.35527136788E-14  0.71054273576E-14  0.71054273576E-14  0.91188000000E+02  0.91188000000E+02 0.  0.
    9900012    2    3    3    0    0 -0.19295854494E+02  0.22670404829E+02  0.21668009821E+02  0.54367083317E+02  0.39999998037E+02 0.  0.
         12    1    3    3    0    0  0.19295854494E+02 -0.22670404829E+02 -0.21668009821E+02  0.36820916683E+02  0.00000000000E+00 0. -1.
         11    1    4    4    0    0 -0.88040689069E+01  0.40013993036E+00  0.55138829368E+00  0.88303890397E+01  0.51100000000E-03 0. -1.
        -11    1    4    4    0    0  0.98629664857E+01  0.16874606870E+01  0.53971067775E+00  0.10020824285E+02  0.51100000000E-03 0.  1.
         12    1    4    4    0    0 -0.20354752073E+02  0.20582804212E+02  0.20576910850E+02  0.35515869992E+02  0.00000000000E+00 0. -1.
</event>
<event>
 8    1  0.2458065E-006  0.9118800E+02  0.7816164E-02  0.1184000E+00
        -11   -1    0    0    0    0  0.00000000000E+00  0.00000000000E+00  0.45593999997E+02  0.45594000000E+02  0.51100000000E-03 0.  1.
         11   -1    0    0    0    0 -0.00000000000E+00 -0.00000000000E+00 -0.45593999997E+02  0.45594000000E+02  0.51100000000E-03 0. -1.
         23    2    1    2    0    0 -0.35527136788E-14  0.00000000000E+00 -0.26645352591E-14  0.91188000000E+02  0.91188000000E+02 0.  0.
    9900012    2    3    3    0    0 -0.27892963361E+02  0.23878334943E+02  0.27545315454E+01  0.54367085716E+02  0.40000003506E+02 0.  0.
        -12    1    3    3    0    0  0.27892963361E+02 -0.23878334943E+02 -0.27545315454E+01  0.36820914284E+02  0.00000000000E+00 0.  1.
         11    1    4    4    0    0 -0.87174294012E+01  0.14164693362E+02 -0.12359266083E+02  0.20721572618E+02  0.51100000000E-03 0. -1.
        -11    1    4    4    0    0 -0.23016570024E+02  0.86255348595E+01  0.16285122957E+02  0.29485039889E+02  0.51100000000E-03 0.  1.
        -12    1    4    4    0    0  0.38410360647E+01  0.10881067219E+01 -0.11713253288E+01  0.41604732080E+01  0.00000000000E+00 0.  1.
</event>
<event>
 8    1  0.2458065E-006  0.9118800E+02  0.7816164E-02  0.1184000E+00
        -11   -1    0    0    0    0  0.00000000000E+00  0.00000000000E+00  0.45593999997E+02  0.45594000000E+02  0.51100000000E-03 0. -1.
         11   -1    0    0    0    0 -0.00000000000E+00 -0.00000000000E+00 -0.45593999997E+02  0.45594000000E+02  0.51100000000E-03 0.  1.
         23    2    1    2    0    0 -0.44408920985E-15 -0.35527136788E-14  0.00000000000E+00  0.91188000000E+02  0.91188000000E+02 0.  0.
    9900012    2    3    3    0    0 -0.29633124666E+01 -0.28189243535E+02  0.23502623508E+02  0.54366973621E+02  0.39999747962E+02 0.  0.
         12    1    3    3    0    0  0.29633124666E+01  0.28189243535E+02 -0.23502623508E+02  0.36821026379E+02  0.00000000000E+00 0. -1.
         11    1    4    4    0    0 -0.18535548886E+01 -0.13815800860E+02  0.20680409492E+02  0.24939754533E+02  0.51100000000E-03 0. -1.
        -11    1    4    4    0    0 -0.54619122022E+01  0.21104520232E+01  0.94651905498E+01  0.11129974171E+02  0.51100000000E-03 0.  1.
        -12    1    4    4    0    0  0.43521546242E+01 -0.16483894698E+02 -0.66429765343E+01  0.18297244917E+02  0.00000000000E+00 0.  1.
</event>
<event>
 8    1  0.2458065E-006  0.9118800E+02  0.7816164E-02  0.1184000E+00
        -11   -1    0    0    0    0  0.00000000000E+00  0.00000000000E+00  0.45593999997E+02  0.45594000000E+02  0.51100000000E-03 0. -1.
         11   -1    0    0    0    0 -0.00000000000E+00 -0.00000000000E+00 -0.45593999997E+02  0.45594000000E+02  0.51100000000E-03 0.  1.
         23    2    1    2    0    0  0.35527136788E-14  0.35527136788E-14  0.17763568394E-14  0.91188000000E+02  0.91188000000E+02 0.  0.
    9900012    2    3    3    0    0  0.21162760136E+02  0.27821409714E+02 -0.11570799983E+02  0.54367127288E+02  0.40000098278E+02 0.  0.
        -12    1    3    3    0    0 -0.21162760136E+02 -0.27821409714E+02  0.11570799983E+02  0.36820872712E+02  0.00000000000E+00 0.  1.
         11    1    4    4    0    0  0.39588371660E+01 -0.36765439052E+01 -0.12599874607E+02  0.13709347438E+02  0.51100000000E-03 0. -1.
        -11    1    4    4    0    0 -0.11741735618E+01  0.43009279252E+01  0.59833730405E+01  0.74617302131E+01  0.51100000000E-03 0.  1.
         12    1    4    4    0    0  0.18378096532E+02  0.27197025694E+02 -0.49542984167E+01  0.33196049637E+02  0.00000000000E+00 0. -1.
</event>
<event>
 8    1  0.2458065E-006  0.9118800E+02  0.7816164E-02  0.1184000E+00
        -11   -1    0    0    0    0  0.00000000000E+00  0.00000000000E+00  0.45593999997E+02  0.45594000000E+02  0.51100000000E-03 0. -1.
         11   -1    0    0    0    0 -0.00000000000E+00 -0.00000000000E+00 -0.45593999997E+02  0.45594000000E+02  0.51100000000E-03 0.  1.
         23    2    1    2    0    0 -0.35527136788E-14  0.00000000000E+00 -0.88817841970E-15  0.91188000000E+02  0.91188000000E+02 0.  0.
    9900012    2    3    3    0    0 -0.23863103519E+02  0.28003368787E+02 -0.14641481214E+01  0.54367080638E+02  0.39999991930E+02 0.  0.
         12    1    3    3    0    0  0.23863103519E+02 -0.28003368787E+02  0.14641481214E+01  0.36820919362E+02  0.00000000000E+00 0. -1.
         11    1    4    4    0    0  0.33393984244E+01  0.24335059651E+02  0.54274807176E+01  0.25155600912E+02  0.51100000000E-03 0.  1.
        -11    1    4    4    0    0 -0.22167600929E+02  0.99598847168E-01 -0.60834646931E+01  0.22987409463E+02  0.51100000000E-03 0. -1.
         12    1    4    4    0    0 -0.50349010141E+01  0.35687102893E+01 -0.80816414587E+00  0.62240702628E+01  0.00000000000E+00 0. -1.
</event>
<event>
 8    1  0.2458065E-006  0.9118800E+02  0.7816164E-02  0.1184000E+00
        -11   -1    0    0    0    0  0.00000000000E+00  0.00000000000E+00  0.45593999997E+02  0.45594000000E+02  0.51100000000E-03 0. -1.
         11   -1    0    0    0    0 -0.00000000000E+00 -0.00000000000E+00 -0.45593999997E+02  0.45594000000E+02  0.51100000000E-03 0.  1.
         23    2    1    2    0    0 -0.88817841970E-15 -0.17763568394E-14  0.00000000000E+00  0.91188000000E+02  0.91188000000E+02 0.  0.
    9900012    2    3    3    0    0  0.21940687407E+01 -0.10216081475E+02 -0.35307175885E+02  0.54367096599E+02  0.40000028316E+02 0.  0.
         12    1    3    3    0    0 -0.21940687407E+01  0.10216081475E+02  0.35307175885E+02  0.36820903401E+02  0.00000000000E+00 0. -1.
         11    1    4    4    0    0  0.13328307707E+02  0.91361751762E+01 -0.13261407664E+02  0.20904028719E+02  0.51100000000E-03 0. -1.
        -11    1    4    4    0    0  0.34396153418E+00 -0.19800068732E+01 -0.82368411380E+01  0.84784602935E+01  0.51100000000E-03 0.  1.
         12    1    4    4    0    0 -0.11478200501E+02 -0.17372249778E+02 -0.13808927083E+02  0.24984607587E+02  0.00000000000E+00 0. -1.
</event>
<event>
 8    1  0.2458065E-006  0.9118800E+02  0.7816164E-02  0.1184000E+00
        -11   -1    0    0    0    0  0.00000000000E+00  0.00000000000E+00  0.45593999997E+02  0.45594000000E+02  0.51100000000E-03 0.  1.
         11   -1    0    0    0    0 -0.00000000000E+00 -0.00000000000E+00 -0.45593999997E+02  0.45594000000E+02  0.51100000000E-03 0. -1.
         23    2    1    2    0    0  0.35527136788E-14 -0.17763568394E-14  0.00000000000E+00  0.91188000000E+02  0.91188000000E+02 0.  0.
    9900012    2    3    3    0    0 -0.19059401070E+02  0.11521800214E+02  0.29321771210E+02  0.54367096749E+02  0.40000028658E+02 0.  0.
         12    1    3    3    0    0  0.19059401070E+02 -0.11521800214E+02 -0.29321771210E+02  0.36820903251E+02  0.00000000000E+00 0. -1.
         11    1    4    4    0    0  0.84017163878E+01  0.70367964309E+01  0.45810395593E+01  0.11878184456E+02  0.51100000000E-03 0. -1.
        -11    1    4    4    0    0 -0.13380892644E+02 -0.41990581516E+01  0.17035518578E+01  0.14127365872E+02  0.51100000000E-03 0.  1.
        -12    1    4    4    0    0 -0.14080224814E+02  0.86840619351E+01  0.23037179793E+02  0.28361546420E+02  0.00000000000E+00 0.  1.
</event>
<event>
 8    1  0.2458065E-006  0.9118800E+02  0.7816164E-02  0.1184000E+00
        -11   -1    0    0    0    0  0.00000000000E+00  0.00000000000E+00  0.45593999997E+02  0.45594000000E+02  0.51100000000E-03 0.  1.
         11   -1    0    0    0    0 -0.00000000000E+00 -0.00000000000E+00 -0.45593999997E+02  0.45594000000E+02  0.51100000000E-03 0. -1.
         23    2    1    2    0    0  0.00000000000E+00  0.17763568394E-14  0.35527136788E-14  0.91188000000E+02  0.91188000000E+02 0.  0.
    9900012    2    3    3    0    0 -0.26405441918E+02 -0.11098466146E+02 -0.23137721830E+02  0.54367116182E+02  0.40000072959E+02 0.  0.
        -12    1    3    3    0    0  0.26405441918E+02  0.11098466146E+02  0.23137721830E+02  0.36820883818E+02  0.00000000000E+00 0.  1.
         11    1    4    4    0    0 -0.20924753858E+02 -0.12384165271E+02 -0.24007646490E+02  0.34169869237E+02  0.51100000000E-03 0. -1.
        -11    1    4    4    0    0 -0.44239010523E+01  0.10143950359E+02 -0.89680280417E+00  0.11102922360E+02  0.51100000000E-03 0.  1.
         12    1    4    4    0    0 -0.10567870083E+01 -0.88582512339E+01  0.17667274643E+01  0.90943245839E+01  0.00000000000E+00 0. -1.
</event>
<event>
 8    1  0.2458065E-006  0.9118800E+02  0.7816164E-02  0.1184000E+00
        -11   -1    0    0    0    0  0.00000000000E+00  0.00000000000E+00  0.45593999997E+02  0.45594000000E+02  0.51100000000E-03 0. -1.
         11   -1    0    0    0    0 -0.00000000000E+00 -0.00000000000E+00 -0.45593999997E+02  0.45594000000E+02  0.51100000000E-03 0.  1.
         23    2    1    2    0    0 -0.71054273576E-14 -0.88817841970E-15  0.00000000000E+00  0.91188000000E+02  0.91188000000E+02 0.  0.
    9900012    2    3    3    0    0  0.27421381775E+02  0.57627005201E+01  0.23888083513E+02  0.54367062618E+02  0.39999950851E+02 0.  0.
        -12    1    3    3    0    0 -0.27421381775E+02 -0.57627005201E+01 -0.23888083513E+02  0.36820937382E+02  0.00000000000E+00 0.  1.
         11    1    4    4    0    0  0.18854631114E+01  0.28736187578E+01  0.19790690153E+02  0.20086912976E+02  0.51100000000E-03 0. -1.
        -11    1    4    4    0    0  0.27861544623E+02  0.73081433821E+01  0.49137801705E+01  0.29220196172E+02  0.51100000000E-03 0.  1.
         12    1    4    4    0    0 -0.23256259593E+01 -0.44190616198E+01 -0.81638681024E+00  0.50599534708E+01  0.00000000000E+00 0. -1.
</event>
<event>
 8    1  0.2458065E-006  0.9118800E+02  0.7816164E-02  0.1184000E+00
        -11   -1    0    0    0    0  0.00000000000E+00  0.00000000000E+00  0.45593999997E+02  0.45594000000E+02  0.51100000000E-03 0. -1.
         11   -1    0    0    0    0 -0.00000000000E+00 -0.00000000000E+00 -0.45593999997E+02  0.45594000000E+02  0.51100000000E-03 0.  1.
         23    2    1    2    0    0  0.00000000000E+00  0.00000000000E+00 -0.13322676296E-14  0.91188000000E+02  0.91188000000E+02 0.  0.
    9900012    2    3    3    0    0  0.94308475737E+01 -0.35446107926E+02  0.32267016799E+01  0.54367094840E+02  0.40000024306E+02 0.  0.
         12    1    3    3    0    0 -0.94308475737E+01  0.35446107926E+02 -0.32267016799E+01  0.36820905160E+02  0.00000000000E+00 0. -1.
         11    1    4    4    0    0 -0.16125435558E+01  0.18507755175E+01 -0.17991046701E+01  0.30434264588E+01  0.51100000000E-03 0. -1.
        -11    1    4    4    0    0  0.79889698522E+01 -0.23483184927E+02  0.19146720100E+02  0.31334972546E+02  0.51100000000E-03 0.  1.
        -12    1    4    4    0    0  0.30544212773E+01 -0.13813698517E+02 -0.14120913750E+02  0.19988695835E+02  0.00000000000E+00 0.  1.
</event>
<event>
 8    1  0.2458065E-006  0.9118800E+02  0.7816164E-02  0.1184000E+00
        -11   -1    0    0    0    0  0.00000000000E+00  0.00000000000E+00  0.45593999997E+02  0.45594000000E+02  0.51100000000E-03 0. -1.
         11   -1    0    0    0    0 -0.00000000000E+00 -0.00000000000E+00 -0.45593999997E+02  0.45594000000E+02  0.51100000000E-03 0.  1.
         23    2    1    2    0    0 -0.48572257327E-16  0.71054273576E-14  0.10658141036E-13  0.91188000000E+02  0.91188000000E+02 0.  0.
    9900012    2    3    3    0    0  0.46152394653E-01  0.23732564584E+02  0.28152134086E+02  0.54367090107E+02  0.40000013516E+02 0.  0.
        -12    1    3    3    0    0 -0.46152394653E-01 -0.23732564584E+02 -0.28152134086E+02  0.36820909893E+02  0.00000000000E+00 0.  1.
         11    1    4    4    0    0  0.52948104564E+01  0.19856613846E+02  0.11307479319E+02  0.23455899471E+02  0.51100000000E-03 0. -1.
        -11    1    4    4    0    0  0.20983406835E+01  0.19796505749E+01 -0.60982207410E+01  0.67461356709E+01  0.51100000000E-03 0.  1.
        -12    1    4    4    0    0 -0.73469987453E+01  0.18963001633E+01  0.22942875508E+02  0.24165054964E+02  0.00000000000E+00 0.  1.
</event>
<event>
 8    1  0.2458065E-006  0.9118800E+02  0.7816164E-02  0.1184000E+00
        -11   -1    0    0    0    0  0.00000000000E+00  0.00000000000E+00  0.45593999997E+02  0.45594000000E+02  0.51100000000E-03 0. -1.
         11   -1    0    0    0    0 -0.00000000000E+00 -0.00000000000E+00 -0.45593999997E+02  0.45594000000E+02  0.51100000000E-03 0.  1.
         23    2    1    2    0    0 -0.17763568394E-14  0.44408920985E-15  0.00000000000E+00  0.91188000000E+02  0.91188000000E+02 0.  0.
    9900012    2    3    3    0    0 -0.15825774975E+02  0.31264576244E+01  0.33099102090E+02  0.54367075921E+02  0.39999981178E+02 0.  0.
        -12    1    3    3    0    0  0.15825774975E+02 -0.31264576244E+01 -0.33099102090E+02  0.36820924079E+02  0.00000000000E+00 0.  1.
         11    1    4    4    0    0 -0.12888758793E+02  0.59875333355E+01  0.83613790451E+01  0.16488884694E+02  0.51100000000E-03 0. -1.
        -11    1    4    4    0    0  0.10136464555E+02 -0.43506415401E+01  0.21746904301E+02  0.24384500045E+02  0.51100000000E-03 0.  1.
        -12    1    4    4    0    0 -0.13073480738E+02  0.14895658290E+01  0.29908187439E+01  0.13493691182E+02  0.00000000000E+00 0.  1.
</event>
<event>
 8    1  0.2458065E-006  0.9118800E+02  0.7816164E-02  0.1184000E+00
        -11   -1    0    0    0    0  0.00000000000E+00  0.00000000000E+00  0.45593999997E+02  0.45594000000E+02  0.51100000000E-03 0. -1.
         11   -1    0    0    0    0 -0.00000000000E+00 -0.00000000000E+00 -0.45593999997E+02  0.45594000000E+02  0.51100000000E-03 0.  1.
         23    2    1    2    0    0  0.00000000000E+00  0.00000000000E+00  0.00000000000E+00  0.91188000000E+02  0.91188000000E+02 0.  0.
    9900012    2    3    3    0    0 -0.85037221981E+01 -0.19602649898E+02 -0.29986727687E+02  0.54367068295E+02  0.39999963792E+02 0.  0.
         12    1    3    3    0    0  0.85037221981E+01  0.19602649898E+02  0.29986727687E+02  0.36820931705E+02  0.00000000000E+00 0. -1.
         11    1    4    4    0    0 -0.92456319355E+01  0.62370168458E+01 -0.80170587175E+01  0.13735185465E+02  0.51100000000E-03 0. -1.
        -11    1    4    4    0    0 -0.16321246677E+01 -0.29526227273E+01 -0.16685412664E+02  0.17023066936E+02  0.51100000000E-03 0.  1.
         12    1    4    4    0    0  0.23740344050E+01 -0.22887044017E+02 -0.52842563059E+01  0.23608815893E+02  0.00000000000E+00 0. -1.
</event>
<event>
 8    1  0.2458065E-006  0.9118800E+02  0.7816164E-02  0.1184000E+00
        -11   -1    0    0    0    0  0.00000000000E+00  0.00000000000E+00  0.45593999997E+02  0.45594000000E+02  0.51100000000E-03 0.  1.
         11   -1    0    0    0    0 -0.00000000000E+00 -0.00000000000E+00 -0.45593999997E+02  0.45594000000E+02  0.51100000000E-03 0. -1.
         23    2    1    2    0    0  0.00000000000E+00  0.00000000000E+00  0.00000000000E+00  0.91188000000E+02  0.91188000000E+02 0.  0.
    9900012    2    3    3    0    0  0.19346799571E+02 -0.15131032012E+02 -0.27432318042E+02  0.54367097559E+02  0.40000030506E+02 0.  0.
        -12    1    3    3    0    0 -0.19346799571E+02  0.15131032012E+02  0.27432318042E+02  0.36820902441E+02  0.00000000000E+00 0.  1.
         11    1    4    4    0    0  0.56916628917E+01 -0.23287686697E+02 -0.34111397099E+01  0.24214608247E+02  0.51100000000E-03 0. -1.
        -11    1    4    4    0    0 -0.77570880443E+00  0.15771354412E+01 -0.58147322026E+00  0.18512675971E+01  0.51100000000E-03 0.  1.
         12    1    4    4    0    0  0.14430845483E+02  0.65795192435E+01 -0.23439705112E+02  0.28301221715E+02  0.00000000000E+00 0. -1.
</event>
<event>
 8    1  0.2458065E-006  0.9118800E+02  0.7816164E-02  0.1184000E+00
        -11   -1    0    0    0    0  0.00000000000E+00  0.00000000000E+00  0.45593999997E+02  0.45594000000E+02  0.51100000000E-03 0.  1.
         11   -1    0    0    0    0 -0.00000000000E+00 -0.00000000000E+00 -0.45593999997E+02  0.45594000000E+02  0.51100000000E-03 0. -1.
         23    2    1    2    0    0 -0.35527136788E-14  0.17763568394E-14 -0.35527136788E-14  0.91188000000E+02  0.91188000000E+02 0.  0.
    9900012    2    3    3    0    0 -0.20619650005E+02  0.10955942627E+02 -0.28470651334E+02  0.54367073443E+02  0.39999975527E+02 0.  0.
        -12    1    3    3    0    0  0.20619650005E+02 -0.10955942627E+02  0.28470651334E+02  0.36820926557E+02  0.00000000000E+00 0.  1.
         11    1    4    4    0    0  0.42296699008E+01  0.13593876164E+01 -0.24169613303E+02  0.24574544750E+02  0.51100000000E-03 0. -1.
        -11    1    4    4    0    0 -0.14988420967E+02 -0.92167552343E+00 -0.30256644811E+01  0.15318514767E+02  0.51100000000E-03 0.  1.
        -12    1    4    4    0    0 -0.98608989385E+01  0.10518230534E+02 -0.12753735497E+01  0.14474013926E+02  0.00000000000E+00 0.  1.
</event>
<event>
 8    1  0.2458065E-006  0.9118800E+02  0.7816164E-02  0.1184000E+00
        -11   -1    0    0    0    0  0.00000000000E+00  0.00000000000E+00  0.45593999997E+02  0.45594000000E+02  0.51100000000E-03 0. -1.
         11   -1    0    0    0    0 -0.00000000000E+00 -0.00000000000E+00 -0.45593999997E+02  0.45594000000E+02  0.51100000000E-03 0.  1.
         23    2    1    2    0    0 -0.35527136788E-14  0.88817841970E-15  0.35527136788E-14  0.91188000000E+02  0.91188000000E+02 0.  0.
    9900012    2    3    3    0    0 -0.22673984953E+02  0.40670613938E+01 -0.28725161681E+02  0.54367007405E+02  0.39999824982E+02 0.  0.
         12    1    3    3    0    0  0.22673984953E+02 -0.40670613938E+01  0.28725161681E+02  0.36820992595E+02  0.00000000000E+00 0. -1.
         11    1    4    4    0    0 -0.43281258515E+01 -0.14576653889E+01  0.90681861401E+01  0.10153298080E+02  0.51100000000E-03 0. -1.
        -11    1    4    4    0    0 -0.22913266233E+01  0.82921187742E+00 -0.18580554394E+02  0.18739657731E+02  0.51100000000E-03 0.  1.
        -12    1    4    4    0    0 -0.16054532478E+02  0.46955149052E+01 -0.19212793428E+02  0.25474051594E+02  0.00000000000E+00 0.  1.
</event>
<event>
 8    1  0.2458065E-006  0.9118800E+02  0.7816164E-02  0.1184000E+00
        -11   -1    0    0    0    0  0.00000000000E+00  0.00000000000E+00  0.45593999997E+02  0.45594000000E+02  0.51100000000E-03 0.  1.
         11   -1    0    0    0    0 -0.00000000000E+00 -0.00000000000E+00 -0.45593999997E+02  0.45594000000E+02  0.51100000000E-03 0. -1.
         23    2    1    2    0    0  0.35527136788E-14  0.35527136788E-14  0.88817841970E-15  0.91188000000E+02  0.91188000000E+02 0.  0.
    9900012    2    3    3    0    0 -0.18167776512E+02 -0.31983577304E+02 -0.16618793811E+01  0.54367093390E+02  0.40000021001E+02 0.  0.
        -12    1    3    3    0    0  0.18167776512E+02  0.31983577304E+02  0.16618793811E+01  0.36820906610E+02  0.00000000000E+00 0.  1.
         11    1    4    4    0    0 -0.19951686746E+01 -0.10020782943E+02  0.51017878070E+01  0.11420377748E+02  0.51100000000E-03 0. -1.
        -11    1    4    4    0    0 -0.17228596696E+02  0.79645639849E+00  0.40665136288E+01  0.17719915921E+02  0.51100000000E-03 0.  1.
         12    1    4    4    0    0  0.10559888585E+01 -0.22759250759E+02 -0.10830180817E+02  0.25226799720E+02  0.00000000000E+00 0. -1.
</event>
<event>
 8    1  0.2458065E-006  0.9118800E+02  0.7816164E-02  0.1184000E+00
        -11   -1    0    0    0    0  0.00000000000E+00  0.00000000000E+00  0.45593999997E+02  0.45594000000E+02  0.51100000000E-03 0.  1.
         11   -1    0    0    0    0 -0.00000000000E+00 -0.00000000000E+00 -0.45593999997E+02  0.45594000000E+02  0.51100000000E-03 0. -1.
         23    2    1    2    0    0  0.00000000000E+00  0.35527136788E-14  0.00000000000E+00  0.91188000000E+02  0.91188000000E+02 0.  0.
    9900012    2    3    3    0    0 -0.30843895747E+02 -0.18753842783E+02  0.72613890080E+01  0.54367078036E+02  0.39999985998E+02 0.  0.
         12    1    3    3    0    0  0.30843895747E+02  0.18753842783E+02 -0.72613890080E+01  0.36820921964E+02  0.00000000000E+00 0. -1.
         11    1    4    4    0    0 -0.98221834988E+01  0.52942165298E+01 -0.60063961774E+01  0.12672048479E+02  0.51100000000E-03 0. -1.
        -11    1    4    4    0    0 -0.19155280022E+02 -0.20154103337E+02  0.66005942258E-01  0.27804981408E+02  0.51100000000E-03 0.  1.
        -12    1    4    4    0    0 -0.18664322259E+01 -0.38939559757E+01  0.13201779243E+02  0.13890048149E+02  0.00000000000E+00 0.  1.
</event>
<event>
 8    1  0.2458065E-006  0.9118800E+02  0.7816164E-02  0.1184000E+00
        -11   -1    0    0    0    0  0.00000000000E+00  0.00000000000E+00  0.45593999997E+02  0.45594000000E+02  0.51100000000E-03 0.  1.
         11   -1    0    0    0    0 -0.00000000000E+00 -0.00000000000E+00 -0.45593999997E+02  0.45594000000E+02  0.51100000000E-03 0. -1.
         23    2    1    2    0    0  0.00000000000E+00  0.22204460493E-14 -0.35527136788E-14  0.91188000000E+02  0.91188000000E+02 0.  0.
    9900012    2    3    3    0    0  0.30054523411E+02 -0.20804306329E+01 -0.21170228198E+02  0.54367066674E+02  0.39999960096E+02 0.  0.
        -12    1    3    3    0    0 -0.30054523411E+02  0.20804306329E+01  0.21170228198E+02  0.36820933326E+02  0.00000000000E+00 0.  1.
         11    1    4    4    0    0  0.11393409167E+02 -0.17889400651E+02 -0.65582843056E+01  0.22200259489E+02  0.51100000000E-03 0. -1.
        -11    1    4    4    0    0  0.50356392760E+01  0.93716758957E+01 -0.13312389349E+02  0.17041293450E+02  0.51100000000E-03 0.  1.
         12    1    4    4    0    0  0.13625474968E+02  0.64372941224E+01 -0.12995545436E+01  0.15125513734E+02  0.00000000000E+00 0. -1.
</event>
<event>
 8    1  0.2458065E-006  0.9118800E+02  0.7816164E-02  0.1184000E+00
        -11   -1    0    0    0    0  0.00000000000E+00  0.00000000000E+00  0.45593999997E+02  0.45594000000E+02  0.51100000000E-03 0.  1.
         11   -1    0    0    0    0 -0.00000000000E+00 -0.00000000000E+00 -0.45593999997E+02  0.45594000000E+02  0.51100000000E-03 0. -1.
         23    2    1    2    0    0  0.00000000000E+00  0.00000000000E+00  0.00000000000E+00  0.91188000000E+02  0.91188000000E+02 0.  0.
    9900012    2    3    3    0    0  0.24054069649E+02  0.19291586942E+02 -0.20125029096E+02  0.54367076742E+02  0.39999983050E+02 0.  0.
        -12    1    3    3    0    0 -0.24054069649E+02 -0.19291586942E+02  0.20125029096E+02  0.36820923258E+02  0.00000000000E+00 0.  1.
         11    1    4    4    0    0 -0.65597367498E+01  0.79609196049E+00 -0.38288033047E+01  0.76369917928E+01  0.51100000000E-03 0. -1.
        -11    1    4    4    0    0  0.15501570629E+02  0.13373146632E+02 -0.21747432638E+02  0.29867885251E+02  0.51100000000E-03 0.  1.
        -12    1    4    4    0    0  0.15112235770E+02  0.51223483495E+01  0.54512068461E+01  0.16862199698E+02  0.00000000000E+00 0.  1.
</event>
<event>
 8    1  0.2458065E-006  0.9118800E+02  0.7816164E-02  0.1184000E+00
        -11   -1    0    0    0    0  0.00000000000E+00  0.00000000000E+00  0.45593999997E+02  0.45594000000E+02  0.51100000000E-03 0.  1.
         11   -1    0    0    0    0 -0.00000000000E+00 -0.00000000000E+00 -0.45593999997E+02  0.45594000000E+02  0.51100000000E-03 0. -1.
         23    2    1    2    0    0  0.00000000000E+00  0.00000000000E+00  0.00000000000E+00  0.91188000000E+02  0.91188000000E+02 0.  0.
    9900012    2    3    3    0    0 -0.20185024250E+02  0.17968687363E+02 -0.25009222758E+02  0.54367215754E+02  0.40000299954E+02 0.  0.
        -12    1    3    3    0    0  0.20185024250E+02 -0.17968687363E+02  0.25009222758E+02  0.36820784246E+02  0.00000000000E+00 0.  1.
         11    1    4    4    0    0 -0.13481417007E+02  0.15197901257E+02 -0.97003207772E+01  0.22512685992E+02  0.51100000000E-03 0. -1.
        -11    1    4    4    0    0  0.30591279915E+01  0.13105412667E+02 -0.96167262315E+01  0.16540602435E+02  0.51100000000E-03 0.  1.
         12    1    4    4    0    0 -0.97627352353E+01 -0.10334626561E+02 -0.56921757488E+01  0.15313927327E+02  0.00000000000E+00 0. -1.
</event>
<event>
 8    1  0.2458065E-006  0.9118800E+02  0.7816164E-02  0.1184000E+00
        -11   -1    0    0    0    0  0.00000000000E+00  0.00000000000E+00  0.45593999997E+02  0.45594000000E+02  0.51100000000E-03 0.  1.
         11   -1    0    0    0    0 -0.00000000000E+00 -0.00000000000E+00 -0.45593999997E+02  0.45594000000E+02  0.51100000000E-03 0. -1.
         23    2    1    2    0    0  0.00000000000E+00 -0.35527136788E-14  0.88817841970E-15  0.91188000000E+02  0.91188000000E+02 0.  0.
    9900012    2    3    3    0    0 -0.31397906558E+02 -0.18476709835E+02 -0.53447128473E+01  0.54367037248E+02  0.39999893015E+02 0.  0.
        -12    1    3    3    0    0  0.31397906558E+02  0.18476709835E+02  0.53447128473E+01  0.36820962752E+02  0.00000000000E+00 0.  1.
         11    1    4    4    0    0 -0.61317219109E+01  0.29320125266E+01 -0.91545078371E+01  0.11401742194E+02  0.51100000000E-03 0. -1.
        -11    1    4    4    0    0 -0.89258428800E+01  0.40865000539E+01 -0.55404523206E+01  0.11272389542E+02  0.51100000000E-03 0.  1.
        -12    1    4    4    0    0 -0.16340341767E+02 -0.25495222416E+02  0.93502473103E+01  0.31692905513E+02  0.00000000000E+00 0.  1.
</event>
<event>
 8    1  0.2458065E-006  0.9118800E+02  0.7816164E-02  0.1184000E+00
        -11   -1    0    0    0    0  0.00000000000E+00  0.00000000000E+00  0.45593999997E+02  0.45594000000E+02  0.51100000000E-03 0. -1.
         11   -1    0    0    0    0 -0.00000000000E+00 -0.00000000000E+00 -0.45593999997E+02  0.45594000000E+02  0.51100000000E-03 0.  1.
         23    2    1    2    0    0  0.35527136788E-14 -0.17763568394E-14  0.35527136788E-14  0.91188000000E+02  0.91188000000E+02 0.  0.
    9900012    2    3    3    0    0  0.17555718169E+02 -0.11056171000E+02 -0.30419365652E+02  0.54367082517E+02  0.39999996213E+02 0.  0.
         12    1    3    3    0    0 -0.17555718169E+02  0.11056171000E+02  0.30419365652E+02  0.36820917483E+02  0.00000000000E+00 0. -1.
         11    1    4    4    0    0  0.69727674499E+00  0.50983584975E+01 -0.28462707568E+01  0.58805366856E+01  0.51100000000E-03 0. -1.
        -11    1    4    4    0    0  0.17736247817E+02  0.51566273397E+01 -0.14362612793E+02  0.23397648144E+02  0.51100000000E-03 0.  1.
         12    1    4    4    0    0 -0.87780639271E+00 -0.21311156837E+02 -0.13210482103E+02  0.25088897687E+02  0.00000000000E+00 0. -1.
</event>
<event>
 8    1  0.2458065E-006  0.9118800E+02  0.7816164E-02  0.1184000E+00
        -11   -1    0    0    0    0  0.00000000000E+00  0.00000000000E+00  0.45593999997E+02  0.45594000000E+02  0.51100000000E-03 0.  1.
         11   -1    0    0    0    0 -0.00000000000E+00 -0.00000000000E+00 -0.45593999997E+02  0.45594000000E+02  0.51100000000E-03 0. -1.
         23    2    1    2    0    0  0.35527136788E-14  0.17763568394E-14  0.35527136788E-14  0.91188000000E+02  0.91188000000E+02 0.  0.
    9900012    2    3    3    0    0  0.19972408552E+02 -0.13405067221E+02  0.27878067515E+02  0.54367087750E+02  0.40000008143E+02 0.  0.
         12    1    3    3    0    0 -0.19972408552E+02  0.13405067221E+02 -0.27878067515E+02  0.36820912250E+02  0.00000000000E+00 0. -1.
         11    1    4    4    0    0 -0.24294869961E+01 -0.33877720733E+01 -0.20102466617E+01  0.46282284502E+01  0.51100000000E-03 0. -1.
        -11    1    4    4    0    0  0.20900932434E+01 -0.26281578840E+01  0.27824586105E+02  0.28026474909E+02  0.51100000000E-03 0.  1.
        -12    1    4    4    0    0  0.20311802305E+02 -0.73891372640E+01  0.20637280715E+01  0.21712384391E+02  0.00000000000E+00 0.  1.
</event>
<event>
 8    1  0.2458065E-006  0.9118800E+02  0.7816164E-02  0.1184000E+00
        -11   -1    0    0    0    0  0.00000000000E+00  0.00000000000E+00  0.45593999997E+02  0.45594000000E+02  0.51100000000E-03 0.  1.
         11   -1    0    0    0    0 -0.00000000000E+00 -0.00000000000E+00 -0.45593999997E+02  0.45594000000E+02  0.51100000000E-03 0. -1.
         23    2    1    2    0    0 -0.17763568394E-14  0.35527136788E-14  0.00000000000E+00  0.91188000000E+02  0.91188000000E+02 0.  0.
    9900012    2    3    3    0    0  0.13438805582E+02  0.31220191151E+02  0.14159551336E+02  0.54366882078E+02  0.39999539270E+02 0.  0.
         12    1    3    3    0    0 -0.13438805582E+02 -0.31220191151E+02 -0.14159551336E+02  0.36821117922E+02  0.00000000000E+00 0. -1.
         11    1    4    4    0    0 -0.37912924282E+01 -0.26995563409E+01 -0.48003901637E+01  0.66861983741E+01  0.51100000000E-03 0. -1.
        -11    1    4    4    0    0  0.16103785250E+02  0.14373522815E+02  0.18243289781E+01  0.21662369076E+02  0.51100000000E-03 0.  1.
        -12    1    4    4    0    0  0.11263127603E+01  0.19546224678E+02  0.17135612522E+02  0.26018314628E+02  0.00000000000E+00 0.  1.
</event>
<event>
 8    1  0.2458065E-006  0.9118800E+02  0.7816164E-02  0.1184000E+00
        -11   -1    0    0    0    0  0.00000000000E+00  0.00000000000E+00  0.45593999997E+02  0.45594000000E+02  0.51100000000E-03 0.  1.
         11   -1    0    0    0    0 -0.00000000000E+00 -0.00000000000E+00 -0.45593999997E+02  0.45594000000E+02  0.51100000000E-03 0. -1.
         23    2    1    2    0    0  0.00000000000E+00 -0.17763568394E-14  0.00000000000E+00  0.91188000000E+02  0.91188000000E+02 0.  0.
    9900012    2    3    3    0    0  0.58517972613E+01  0.15263957905E+02  0.32993125543E+02  0.54367105454E+02  0.40000048502E+02 0.  0.
         12    1    3    3    0    0 -0.58517972613E+01 -0.15263957905E+02 -0.32993125543E+02  0.36820894546E+02  0.00000000000E+00 0. -1.
         11    1    4    4    0    0 -0.44473126843E+01  0.52607079037E+01 -0.57602949389E+01  0.89796790479E+01  0.51100000000E-03 0. -1.
        -11    1    4    4    0    0  0.10224328489E+02  0.17119993650E+01  0.68530184033E+01  0.12427055016E+02  0.51100000000E-03 0.  1.
        -12    1    4    4    0    0  0.74781456838E-01  0.82912506366E+01  0.31900402078E+02  0.32960371390E+02  0.00000000000E+00 0.  1.
</event>
<event>
 8    1  0.2458065E-006  0.9118800E+02  0.7816164E-02  0.1184000E+00
        -11   -1    0    0    0    0  0.00000000000E+00  0.00000000000E+00  0.45593999997E+02  0.45594000000E+02  0.51100000000E-03 0. -1.
         11   -1    0    0    0    0 -0.00000000000E+00 -0.00000000000E+00 -0.45593999997E+02  0.45594000000E+02  0.51100000000E-03 0.  1.
         23    2    1    2    0    0  0.00000000000E+00  0.17763568394E-14 -0.17763568394E-14  0.91188000000E+02  0.91188000000E+02 0.  0.
    9900012    2    3    3    0    0  0.33198478315E+02 -0.84289672327E+01  0.13512709590E+02  0.54367085135E+02  0.40000002182E+02 0.  0.
         12    1    3    3    0    0 -0.33198478315E+02  0.84289672327E+01 -0.13512709590E+02  0.36820914865E+02  0.00000000000E+00 0. -1.
         11    1    4    4    0    0  0.25427618363E+02 -0.13027678379E+02  0.13770126823E+02  0.31715935625E+02  0.51100000000E-03 0. -1.
        -11    1    4    4    0    0  0.10713798891E+02 -0.35739721662E+01  0.51565723180E+01  0.12415675658E+02  0.51100000000E-03 0.  1.
         12    1    4    4    0    0 -0.29429389391E+01  0.81726833121E+01 -0.54139895510E+01  0.10235473852E+02  0.00000000000E+00 0. -1.
</event>
<event>
 8    1  0.2458065E-006  0.9118800E+02  0.7816164E-02  0.1184000E+00
        -11   -1    0    0    0    0  0.00000000000E+00  0.00000000000E+00  0.45593999997E+02  0.45594000000E+02  0.51100000000E-03 0.  1.
         11   -1    0    0    0    0 -0.00000000000E+00 -0.00000000000E+00 -0.45593999997E+02  0.45594000000E+02  0.51100000000E-03 0. -1.
         23    2    1    2    0    0 -0.88817841970E-15  0.35527136788E-14  0.00000000000E+00  0.91188000000E+02  0.91188000000E+02 0.  0.
    9900012    2    3    3    0    0  0.50758885314E+01 -0.31436592737E+02  0.18486589288E+02  0.54367109315E+02  0.40000057306E+02 0.  0.
         12    1    3    3    0    0 -0.50758885314E+01  0.31436592737E+02 -0.18486589288E+02  0.36820890685E+02  0.00000000000E+00 0. -1.
         11    1    4    4    0    0 -0.52547893789E+00  0.16682309913E+01 -0.27529004968E+01  0.32615309536E+01  0.51100000000E-03 0. -1.
        -11    1    4    4    0    0  0.16666099976E+02 -0.30785274876E+02  0.14132978037E+02  0.37752259615E+02  0.51100000000E-03 0.  1.
         12    1    4    4    0    0 -0.11064732507E+02 -0.23195488524E+01  0.71065117475E+01  0.13353318746E+02  0.00000000000E+00 0. -1.
</event>
<event>
 8    1  0.2458065E-006  0.9118800E+02  0.7816164E-02  0.1184000E+00
        -11   -1    0    0    0    0  0.00000000000E+00  0.00000000000E+00  0.45593999997E+02  0.45594000000E+02  0.51100000000E-03 0.  1.
         11   -1    0    0    0    0 -0.00000000000E+00 -0.00000000000E+00 -0.45593999997E+02  0.45594000000E+02  0.51100000000E-03 0. -1.
         23    2    1    2    0    0 -0.17763568394E-14 -0.35527136788E-14  0.00000000000E+00  0.91188000000E+02  0.91188000000E+02 0.  0.
    9900012    2    3    3    0    0 -0.13902479086E+02 -0.15750810619E+02  0.30239240390E+02  0.54367100782E+02  0.40000037852E+02 0.  0.
         12    1    3    3    0    0  0.13902479086E+02  0.15750810619E+02 -0.30239240390E+02  0.36820899218E+02  0.00000000000E+00 0. -1.
         11    1    4    4    0    0 -0.41958219945E+01  0.35328124311E+01  0.19625413160E+01  0.58255690332E+01  0.51100000000E-03 0. -1.
        -11    1    4    4    0    0 -0.13034997157E+02 -0.25069742710E+02  0.11537991435E+02  0.30520950133E+02  0.51100000000E-03 0.  1.
        -12    1    4    4    0    0  0.33283400650E+01  0.57861196607E+01  0.16738707639E+02  0.18020581615E+02  0.00000000000E+00 0.  1.
</event>
<event>
 8    1  0.2458065E-006  0.9118800E+02  0.7816164E-02  0.1184000E+00
        -11   -1    0    0    0    0  0.00000000000E+00  0.00000000000E+00  0.45593999997E+02  0.45594000000E+02  0.51100000000E-03 0.  1.
         11   -1    0    0    0    0 -0.00000000000E+00 -0.00000000000E+00 -0.45593999997E+02  0.45594000000E+02  0.51100000000E-03 0. -1.
         23    2    1    2    0    0  0.00000000000E+00  0.55511151231E-15  0.00000000000E+00  0.91188000000E+02  0.91188000000E+02 0.  0.
    9900012    2    3    3    0    0  0.82677317337E+01  0.88448171373E+00  0.35869782715E+02  0.54367095503E+02  0.40000025819E+02 0.  0.
         12    1    3    3    0    0 -0.82677317337E+01 -0.88448171373E+00 -0.35869782715E+02  0.36820904497E+02  0.00000000000E+00 0. -1.
         11    1    4    4    0    0  0.16276001743E+01 -0.42955814807E+01 -0.23910494275E+01  0.51786311137E+01  0.51100000000E-03 0. -1.
        -11    1    4    4    0    0 -0.92995260847E+01  0.83273696403E+01  0.79555865773E+01  0.14802622355E+02  0.51100000000E-03 0.  1.
        -12    1    4    4    0    0  0.15939657644E+02 -0.31473064458E+01  0.30305245565E+02  0.34385842035E+02  0.00000000000E+00 0.  1.
</event>
<event>
 8    1  0.2458065E-006  0.9118800E+02  0.7816164E-02  0.1184000E+00
        -11   -1    0    0    0    0  0.00000000000E+00  0.00000000000E+00  0.45593999997E+02  0.45594000000E+02  0.51100000000E-03 0.  1.
         11   -1    0    0    0    0 -0.00000000000E+00 -0.00000000000E+00 -0.45593999997E+02  0.45594000000E+02  0.51100000000E-03 0. -1.
         23    2    1    2    0    0 -0.44408920985E-15  0.00000000000E+00 -0.35527136788E-14  0.91188000000E+02  0.91188000000E+02 0.  0.
    9900012    2    3    3    0    0  0.17725199899E+01 -0.27435462936E+02  0.24493463473E+02  0.54367133544E+02  0.40000112541E+02 0.  0.
         12    1    3    3    0    0 -0.17725199899E+01  0.27435462936E+02 -0.24493463473E+02  0.36820866456E+02  0.00000000000E+00 0. -1.
         11    1    4    4    0    0 -0.39302666671E+01 -0.72536916312E+01 -0.10477033769E+02  0.13335339336E+02  0.51100000000E-03 0. -1.
        -11    1    4    4    0    0  0.14170849399E+01 -0.72937888378E+01  0.16588193617E+02  0.18176238694E+02  0.51100000000E-03 0.  1.
         12    1    4    4    0    0  0.42857017172E+01 -0.12887982467E+02  0.18382303625E+02  0.22855555514E+02  0.00000000000E+00 0. -1.
</event>
<event>
 8    1  0.2458065E-006  0.9118800E+02  0.7816164E-02  0.1184000E+00
        -11   -1    0    0    0    0  0.00000000000E+00  0.00000000000E+00  0.45593999997E+02  0.45594000000E+02  0.51100000000E-03 0.  1.
         11   -1    0    0    0    0 -0.00000000000E+00 -0.00000000000E+00 -0.45593999997E+02  0.45594000000E+02  0.51100000000E-03 0. -1.
         23    2    1    2    0    0  0.17763568394E-14  0.00000000000E+00  0.00000000000E+00  0.91188000000E+02  0.91188000000E+02 0.  0.
    9900012    2    3    3    0    0  0.10189933573E+02 -0.35181029041E+02 -0.37722969081E+01  0.54367220886E+02  0.40000311652E+02 0.  0.
        -12    1    3    3    0    0 -0.10189933573E+02  0.35181029041E+02  0.37722969081E+01  0.36820779114E+02  0.00000000000E+00 0.  1.
         11    1    4    4    0    0  0.30562988895E+01 -0.30892829476E+02 -0.65793787082E+01  0.31733201862E+02  0.51100000000E-03 0. -1.
        -11    1    4    4    0    0 -0.42366456772E+01  0.42525790431E+01  0.55221551683E+01  0.81564571399E+01  0.51100000000E-03 0.  1.
         12    1    4    4    0    0  0.11370280361E+02 -0.85407786079E+01 -0.27150733682E+01  0.14477561884E+02  0.00000000000E+00 0. -1.
</event>
<event>
 8    1  0.2458065E-006  0.9118800E+02  0.7816164E-02  0.1184000E+00
        -11   -1    0    0    0    0  0.00000000000E+00  0.00000000000E+00  0.45593999997E+02  0.45594000000E+02  0.51100000000E-03 0.  1.
         11   -1    0    0    0    0 -0.00000000000E+00 -0.00000000000E+00 -0.45593999997E+02  0.45594000000E+02  0.51100000000E-03 0. -1.
         23    2    1    2    0    0  0.00000000000E+00  0.35527136788E-14  0.00000000000E+00  0.91188000000E+02  0.91188000000E+02 0.  0.
    9900012    2    3    3    0    0 -0.14720757259E+02  0.24204064108E+02 -0.23521108816E+02  0.54367082391E+02  0.39999995927E+02 0.  0.
        -12    1    3    3    0    0  0.14720757259E+02 -0.24204064108E+02  0.23521108816E+02  0.36820917609E+02  0.00000000000E+00 0.  1.
         11    1    4    4    0    0  0.42124345577E+01  0.21483048743E+02 -0.18489549196E+02  0.28655355833E+02  0.51100000000E-03 0. -1.
        -11    1    4    4    0    0 -0.15322313944E+02 -0.44104399688E+01  0.56389333789E+00  0.15954411969E+02  0.51100000000E-03 0.  1.
        -12    1    4    4    0    0 -0.36108778727E+01  0.71314553341E+01 -0.55954529576E+01  0.97573145893E+01  0.00000000000E+00 0.  1.
</event>
<event>
 8    1  0.2458065E-006  0.9118800E+02  0.7816164E-02  0.1184000E+00
        -11   -1    0    0    0    0  0.00000000000E+00  0.00000000000E+00  0.45593999997E+02  0.45594000000E+02  0.51100000000E-03 0. -1.
         11   -1    0    0    0    0 -0.00000000000E+00 -0.00000000000E+00 -0.45593999997E+02  0.45594000000E+02  0.51100000000E-03 0.  1.
         23    2    1    2    0    0  0.00000000000E+00 -0.35527136788E-14  0.44408920985E-15  0.91188000000E+02  0.91188000000E+02 0.  0.
    9900012    2    3    3    0    0 -0.26684391664E+02 -0.25290089611E+02 -0.20328891350E+01  0.54367108793E+02  0.40000056116E+02 0.  0.
         12    1    3    3    0    0  0.26684391664E+02  0.25290089611E+02  0.20328891350E+01  0.36820891207E+02  0.00000000000E+00 0. -1.
         11    1    4    4    0    0 -0.22835862091E+02 -0.23485924871E+01 -0.52104955903E+01  0.23540215561E+02  0.51100000000E-03 0. -1.
        -11    1    4    4    0    0 -0.49881532213E+01  0.14052675252E+01 -0.25705585569E+01  0.57848267849E+01  0.51100000000E-03 0.  1.
         12    1    4    4    0    0  0.11396236478E+01 -0.24346764649E+02  0.57481650122E+01  0.25042066447E+02  0.00000000000E+00 0. -1.
</event>
<event>
 8    1  0.2458065E-006  0.9118800E+02  0.7816164E-02  0.1184000E+00
        -11   -1    0    0    0    0  0.00000000000E+00  0.00000000000E+00  0.45593999997E+02  0.45594000000E+02  0.51100000000E-03 0.  1.
         11   -1    0    0    0    0 -0.00000000000E+00 -0.00000000000E+00 -0.45593999997E+02  0.45594000000E+02  0.51100000000E-03 0. -1.
         23    2    1    2    0    0  0.00000000000E+00  0.00000000000E+00 -0.35527136788E-14  0.91188000000E+02  0.91188000000E+02 0.  0.
    9900012    2    3    3    0    0 -0.22824831130E+02  0.14110199881E+02  0.25213289928E+02  0.54367073263E+02  0.39999975118E+02 0.  0.
         12    1    3    3    0    0  0.22824831130E+02 -0.14110199881E+02 -0.25213289928E+02  0.36820926737E+02  0.00000000000E+00 0. -1.
         11    1    4    4    0    0 -0.65710794704E+00  0.29305045681E+01  0.21136717474E+02  0.21349015755E+02  0.51100000000E-03 0. -1.
        -11    1    4    4    0    0 -0.24442768462E+02  0.61432309289E+01  0.77670819698E+01  0.26372633143E+02  0.51100000000E-03 0.  1.
         12    1    4    4    0    0  0.22750452790E+01  0.50364643839E+01 -0.36905095155E+01  0.66454243653E+01  0.00000000000E+00 0. -1.
</event>
<event>
 8    1  0.2458065E-006  0.9118800E+02  0.7816164E-02  0.1184000E+00
        -11   -1    0    0    0    0  0.00000000000E+00  0.00000000000E+00  0.45593999997E+02  0.45594000000E+02  0.51100000000E-03 0. -1.
         11   -1    0    0    0    0 -0.00000000000E+00 -0.00000000000E+00 -0.45593999997E+02  0.45594000000E+02  0.51100000000E-03 0.  1.
         23    2    1    2    0    0  0.35527136788E-14 -0.35527136788E-14  0.00000000000E+00  0.91188000000E+02  0.91188000000E+02 0.  0.
    9900012    2    3    3    0    0  0.19535895699E+02  0.29254305771E+02  0.10877272697E+02  0.54367072687E+02  0.39999973804E+02 0.  0.
         12    1    3    3    0    0 -0.19535895699E+02 -0.29254305771E+02 -0.10877272697E+02  0.36820927313E+02  0.00000000000E+00 0. -1.
         11    1    4    4    0    0  0.61091475237E+01  0.80012881479E+01  0.89229397705E+01  0.13452180117E+02  0.51100000000E-03 0. -1.
        -11    1    4    4    0    0  0.61266593590E+01  0.28317049135E+02 -0.38313285361E+01  0.29224481265E+02  0.51100000000E-03 0.  1.
         12    1    4    4    0    0  0.73000888159E+01 -0.70640315114E+01  0.57856614625E+01  0.11690411305E+02  0.00000000000E+00 0. -1.
</event>
<event>
 8    1  0.2458065E-006  0.9118800E+02  0.7816164E-02  0.1184000E+00
        -11   -1    0    0    0    0  0.00000000000E+00  0.00000000000E+00  0.45593999997E+02  0.45594000000E+02  0.51100000000E-03 0. -1.
         11   -1    0    0    0    0 -0.00000000000E+00 -0.00000000000E+00 -0.45593999997E+02  0.45594000000E+02  0.51100000000E-03 0.  1.
         23    2    1    2    0    0 -0.71054273576E-14  0.00000000000E+00 -0.88817841970E-15  0.91188000000E+02  0.91188000000E+02 0.  0.
    9900012    2    3    3    0    0  0.32032440185E+02  0.17119891978E+02  0.60507614220E+01  0.54367086930E+02  0.40000006275E+02 0.  0.
        -12    1    3    3    0    0 -0.32032440185E+02 -0.17119891978E+02 -0.60507614220E+01  0.36820913070E+02  0.00000000000E+00 0.  1.
         11    1    4    4    0    0 -0.50591796490E+01  0.38983237406E+01  0.47370942716E+01  0.79518733080E+01  0.51100000000E-03 0. -1.
        -11    1    4    4    0    0  0.44815462637E+01  0.91081372643E+00 -0.89741957416E+01  0.10072240467E+02  0.51100000000E-03 0.  1.
         12    1    4    4    0    0  0.32610073570E+02  0.12310754511E+02  0.10287862892E+02  0.36342973155E+02  0.00000000000E+00 0. -1.
</event>
<event>
 8    1  0.2458065E-006  0.9118800E+02  0.7816164E-02  0.1184000E+00
        -11   -1    0    0    0    0  0.00000000000E+00  0.00000000000E+00  0.45593999997E+02  0.45594000000E+02  0.51100000000E-03 0. -1.
         11   -1    0    0    0    0 -0.00000000000E+00 -0.00000000000E+00 -0.45593999997E+02  0.45594000000E+02  0.51100000000E-03 0.  1.
         23    2    1    2    0    0  0.00000000000E+00 -0.17763568394E-14  0.35527136788E-14  0.91188000000E+02  0.91188000000E+02 0.  0.
    9900012    2    3    3    0    0  0.14353389743E+02 -0.14119100672E+02  0.30828738005E+02  0.54367083555E+02  0.39999998580E+02 0.  0.
        -12    1    3    3    0    0 -0.14353389743E+02  0.14119100672E+02 -0.30828738005E+02  0.36820916445E+02  0.00000000000E+00 0.  1.
         11    1    4    4    0    0  0.20306601008E+02 -0.46305481275E+00  0.32091768522E+02  0.37979653388E+02  0.51100000000E-03 0. -1.
        -11    1    4    4    0    0  0.14983364673E+01 -0.22721809727E+01  0.14594282616E-01  0.27217699749E+01  0.51100000000E-03 0.  1.
        -12    1    4    4    0    0 -0.74515477328E+01 -0.11383864886E+02 -0.12776248001E+01  0.13665660192E+02  0.00000000000E+00 0.  1.
</event>
<event>
 8    1  0.2458065E-006  0.9118800E+02  0.7816164E-02  0.1184000E+00
        -11   -1    0    0    0    0  0.00000000000E+00  0.00000000000E+00  0.45593999997E+02  0.45594000000E+02  0.51100000000E-03 0.  1.
         11   -1    0    0    0    0 -0.00000000000E+00 -0.00000000000E+00 -0.45593999997E+02  0.45594000000E+02  0.51100000000E-03 0. -1.
         23    2    1    2    0    0  0.00000000000E+00  0.00000000000E+00  0.35527136788E-14  0.91188000000E+02  0.91188000000E+02 0.  0.
    9900012    2    3    3    0    0 -0.20382490327E+02 -0.37282293503E+01  0.30437358116E+02  0.54367104097E+02  0.40000045409E+02 0.  0.
         12    1    3    3    0    0  0.20382490327E+02  0.37282293503E+01 -0.30437358116E+02  0.36820895903E+02  0.00000000000E+00 0. -1.
         11    1    4    4    0    0  0.38812066721E+01 -0.66171052483E+01  0.29177865787E+01  0.82075164257E+01  0.51100000000E-03 0. -1.
        -11    1    4    4    0    0 -0.49584794599E+01 -0.35172099102E+01  0.24923553373E+02  0.25654254951E+02  0.51100000000E-03 0.  1.
         12    1    4    4    0    0 -0.19305217540E+02  0.64060858082E+01  0.25960181642E+01  0.20505332720E+02  0.00000000000E+00 0. -1.
</event>
<event>
 8    1  0.2458065E-006  0.9118800E+02  0.7816164E-02  0.1184000E+00
        -11   -1    0    0    0    0  0.00000000000E+00  0.00000000000E+00  0.45593999997E+02  0.45594000000E+02  0.51100000000E-03 0. -1.
         11   -1    0    0    0    0 -0.00000000000E+00 -0.00000000000E+00 -0.45593999997E+02  0.45594000000E+02  0.51100000000E-03 0.  1.
         23    2    1    2    0    0  0.88817841970E-15  0.35527136788E-14  0.00000000000E+00  0.91188000000E+02  0.91188000000E+02 0.  0.
    9900012    2    3    3    0    0 -0.90548477200E+00  0.16237918329E+02 -0.33034653993E+02  0.54367105676E+02  0.40000049011E+02 0.  0.
         12    1    3    3    0    0  0.90548477200E+00 -0.16237918329E+02  0.33034653993E+02  0.36820894324E+02  0.00000000000E+00 0. -1.
         11    1    4    4    0    0 -0.98335929735E+01  0.11583912942E+02 -0.81897736473E+01  0.17261488420E+02  0.51100000000E-03 0. -1.
        -11    1    4    4    0    0  0.12763593728E+02  0.12816664350E+02 -0.13278902856E+02  0.22438927587E+02  0.51100000000E-03 0.  1.
         12    1    4    4    0    0 -0.38354855268E+01 -0.81626589630E+01 -0.11565977490E+02  0.14666689670E+02  0.00000000000E+00 0. -1.
</event>
<event>
 8    1  0.2458065E-006  0.9118800E+02  0.7816164E-02  0.1184000E+00
        -11   -1    0    0    0    0  0.00000000000E+00  0.00000000000E+00  0.45593999997E+02  0.45594000000E+02  0.51100000000E-03 0.  1.
         11   -1    0    0    0    0 -0.00000000000E+00 -0.00000000000E+00 -0.45593999997E+02  0.45594000000E+02  0.51100000000E-03 0. -1.
         23    2    1    2    0    0  0.71054273576E-14  0.18318679906E-14  0.17763568394E-14  0.91188000000E+02  0.91188000000E+02 0.  0.
    9900012    2    3    3    0    0  0.33651485103E+02  0.35627717227E+00  0.14940890079E+02  0.54367087743E+02  0.40000008128E+02 0.  0.
         12    1    3    3    0    0 -0.33651485103E+02 -0.35627717227E+00 -0.14940890079E+02  0.36820912257E+02  0.00000000000E+00 0. -1.
         11    1    4    4    0    0  0.24377797308E+02  0.12232559417E+02  0.10009590896E+02  0.29053475208E+02  0.51100000000E-03 0. -1.
        -11    1    4    4    0    0  0.11061852532E+02 -0.14982943299E+02  0.83043807054E+01  0.20391564690E+02  0.51100000000E-03 0.  1.
         12    1    4    4    0    0 -0.17881647375E+01  0.31066610546E+01 -0.33730815224E+01  0.49220478455E+01  0.00000000000E+00 0. -1.
</event>
<event>
 8    1  0.2458065E-006  0.9118800E+02  0.7816164E-02  0.1184000E+00
        -11   -1    0    0    0    0  0.00000000000E+00  0.00000000000E+00  0.45593999997E+02  0.45594000000E+02  0.51100000000E-03 0.  1.
         11   -1    0    0    0    0 -0.00000000000E+00 -0.00000000000E+00 -0.45593999997E+02  0.45594000000E+02  0.51100000000E-03 0. -1.
         23    2    1    2    0    0  0.22204460493E-15  0.00000000000E+00 -0.35527136788E-14  0.91188000000E+02  0.91188000000E+02 0.  0.
    9900012    2    3    3    0    0 -0.11656734760E+01  0.19522181219E+02  0.31197857301E+02  0.54367073146E+02  0.39999974850E+02 0.  0.
         12    1    3    3    0    0  0.11656734760E+01 -0.19522181219E+02 -0.31197857301E+02  0.36820926854E+02  0.00000000000E+00 0. -1.
         11    1    4    4    0    0  0.22037223217E+00 -0.22551793835E+01  0.28583076398E+02  0.28672751082E+02  0.51100000000E-03 0. -1.
        -11    1    4    4    0    0  0.56168126194E+01  0.10481734274E+02 -0.96345886341E+00  0.11930783320E+02  0.51100000000E-03 0.  1.
        -12    1    4    4    0    0 -0.70028583276E+01  0.11295626329E+02  0.35782397668E+01  0.13763538744E+02  0.00000000000E+00 0.  1.
</event>
<event>
 8    1  0.2458065E-006  0.9118800E+02  0.7816164E-02  0.1184000E+00
        -11   -1    0    0    0    0  0.00000000000E+00  0.00000000000E+00  0.45593999997E+02  0.45594000000E+02  0.51100000000E-03 0. -1.
         11   -1    0    0    0    0 -0.00000000000E+00 -0.00000000000E+00 -0.45593999997E+02  0.45594000000E+02  0.51100000000E-03 0.  1.
         23    2    1    2    0    0  0.00000000000E+00  0.00000000000E+00  0.00000000000E+00  0.91188000000E+02  0.91188000000E+02 0.  0.
    9900012    2    3    3    0    0  0.35238358820E+02  0.51283074320E+01 -0.93668700153E+01  0.54367085789E+02  0.40000003674E+02 0.  0.
        -12    1    3    3    0    0 -0.35238358820E+02 -0.51283074320E+01  0.93668700153E+01  0.36820914211E+02  0.00000000000E+00 0.  1.
         11    1    4    4    0    0  0.28106856153E+02  0.27143649015E+01  0.94649418952E+00  0.28253477505E+02  0.51100000000E-03 0. -1.
        -11    1    4    4    0    0 -0.31538373276E+01  0.65973576401E+01  0.37317177003E+01  0.82096001715E+01  0.51100000000E-03 0.  1.
        -12    1    4    4    0    0  0.10285339995E+02 -0.41834151096E+01 -0.14045081905E+02  0.17904008113E+02  0.00000000000E+00 0.  1.
</event>
<event>
 8    1  0.2458065E-006  0.9118800E+02  0.7816164E-02  0.1184000E+00
        -11   -1    0    0    0    0  0.00000000000E+00  0.00000000000E+00  0.45593999997E+02  0.45594000000E+02  0.51100000000E-03 0. -1.
         11   -1    0    0    0    0 -0.00000000000E+00 -0.00000000000E+00 -0.45593999997E+02  0.45594000000E+02  0.51100000000E-03 0.  1.
         23    2    1    2    0    0  0.00000000000E+00  0.00000000000E+00  0.35527136788E-14  0.91188000000E+02  0.91188000000E+02 0.  0.
    9900012    2    3    3    0    0 -0.11694066461E+02 -0.19637511528E+02 -0.28868606647E+02  0.54367088833E+02  0.40000010613E+02 0.  0.
        -12    1    3    3    0    0  0.11694066461E+02  0.19637511528E+02  0.28868606647E+02  0.36820911167E+02  0.00000000000E+00 0.  1.
         11    1    4    4    0    0  0.71731714481E+00 -0.15468123946E+00 -0.25012966809E+02  0.25023728319E+02  0.51100000000E-03 0. -1.
        -11    1    4    4    0    0 -0.47709428389E+01  0.63889122301E+00 -0.60239909971E+01  0.77109367370E+01  0.51100000000E-03 0.  1.
         12    1    4    4    0    0 -0.76404407673E+01 -0.20121721512E+02  0.21683511587E+01  0.21632423777E+02  0.00000000000E+00 0. -1.
</event>
<event>
 8    1  0.2458065E-006  0.9118800E+02  0.7816164E-02  0.1184000E+00
        -11   -1    0    0    0    0  0.00000000000E+00  0.00000000000E+00  0.45593999997E+02  0.45594000000E+02  0.51100000000E-03 0.  1.
         11   -1    0    0    0    0 -0.00000000000E+00 -0.00000000000E+00 -0.45593999997E+02  0.45594000000E+02  0.51100000000E-03 0. -1.
         23    2    1    2    0    0  0.17763568394E-14  0.00000000000E+00  0.00000000000E+00  0.91188000000E+02  0.91188000000E+02 0.  0.
    9900012    2    3    3    0    0 -0.96356197262E+01  0.10763774042E+02 -0.33868468959E+02  0.54367120206E+02  0.40000082134E+02 0.  0.
        -12    1    3    3    0    0  0.96356197262E+01 -0.10763774042E+02  0.33868468959E+02  0.36820879794E+02  0.00000000000E+00 0.  1.
         11    1    4    4    0    0  0.66196906068E+01  0.10712490560E+02 -0.27824803332E+02  0.30541732735E+02  0.51100000000E-03 0. -1.
        -11    1    4    4    0    0 -0.77068945055E+01  0.45650212699E+01  0.40665779725E+01  0.98373115627E+01  0.51100000000E-03 0.  1.
         12    1    4    4    0    0 -0.85484158274E+01 -0.45137377877E+01 -0.10110243600E+02  0.13988075909E+02  0.00000000000E+00 0. -1.
</event>
<event>
 8    1  0.2458065E-006  0.9118800E+02  0.7816164E-02  0.1184000E+00
        -11   -1    0    0    0    0  0.00000000000E+00  0.00000000000E+00  0.45593999997E+02  0.45594000000E+02  0.51100000000E-03 0.  1.
         11   -1    0    0    0    0 -0.00000000000E+00 -0.00000000000E+00 -0.45593999997E+02  0.45594000000E+02  0.51100000000E-03 0. -1.
         23    2    1    2    0    0 -0.35527136788E-14  0.00000000000E+00  0.00000000000E+00  0.91188000000E+02  0.91188000000E+02 0.  0.
    9900012    2    3    3    0    0 -0.24152972823E+02  0.14880276006E+02 -0.23473201976E+02  0.54367083102E+02  0.39999997547E+02 0.  0.
        -12    1    3    3    0    0  0.24152972823E+02 -0.14880276006E+02  0.23473201976E+02  0.36820916898E+02  0.00000000000E+00 0.  1.
         11    1    4    4    0    0 -0.32709562664E+00  0.11808220831E+02 -0.24388395888E+02  0.27098614816E+02  0.51100000000E-03 0. -1.
        -11    1    4    4    0    0 -0.17745476484E+02  0.83742025866E+00  0.62952834169E+01  0.18847647118E+02  0.51100000000E-03 0.  1.
         12    1    4    4    0    0 -0.60804007130E+01  0.22346349170E+01 -0.53800895058E+01  0.84208211674E+01  0.00000000000E+00 0. -1.
</event>
<event>
 8    1  0.2458065E-006  0.9118800E+02  0.7816164E-02  0.1184000E+00
        -11   -1    0    0    0    0  0.00000000000E+00  0.00000000000E+00  0.45593999997E+02  0.45594000000E+02  0.51100000000E-03 0.  1.
         11   -1    0    0    0    0 -0.00000000000E+00 -0.00000000000E+00 -0.45593999997E+02  0.45594000000E+02  0.51100000000E-03 0. -1.
         23    2    1    2    0    0 -0.17763568394E-14  0.00000000000E+00  0.00000000000E+00  0.91188000000E+02  0.91188000000E+02 0.  0.
    9900012    2    3    3    0    0  0.96730015871E+01 -0.33561457294E+02  0.11655144675E+02  0.54367071538E+02  0.39999971185E+02 0.  0.
        -12    1    3    3    0    0 -0.96730015871E+01  0.33561457294E+02 -0.11655144675E+02  0.36820928462E+02  0.00000000000E+00 0.  1.
         11    1    4    4    0    0  0.18130457111E+01 -0.34133840541E+02  0.10009290604E+02  0.35617300621E+02  0.51100000000E-03 0. -1.
        -11    1    4    4    0    0  0.12402180880E+01  0.64567892461E+01  0.59814256549E+01  0.88885162654E+01  0.51100000000E-03 0.  1.
         12    1    4    4    0    0  0.66197377880E+01 -0.58844059993E+01 -0.43355715840E+01  0.98612546518E+01  0.00000000000E+00 0. -1.
</event>
<event>
 8    1  0.2458065E-006  0.9118800E+02  0.7816164E-02  0.1184000E+00
        -11   -1    0    0    0    0  0.00000000000E+00  0.00000000000E+00  0.45593999997E+02  0.45594000000E+02  0.51100000000E-03 0. -1.
         11   -1    0    0    0    0 -0.00000000000E+00 -0.00000000000E+00 -0.45593999997E+02  0.45594000000E+02  0.51100000000E-03 0.  1.
         23    2    1    2    0    0  0.17763568394E-14  0.00000000000E+00  0.00000000000E+00  0.91188000000E+02  0.91188000000E+02 0.  0.
    9900012    2    3    3    0    0 -0.25325820530E+01 -0.31593718394E+02 -0.18740407296E+02  0.54367083669E+02  0.39999998840E+02 0.  0.
        -12    1    3    3    0    0  0.25325820530E+01  0.31593718394E+02  0.18740407296E+02  0.36820916331E+02  0.00000000000E+00 0.  1.
         11    1    4    4    0    0  0.76553048910E+01 -0.18740381613E+02 -0.11478794963E+02  0.23271620701E+02  0.51100000000E-03 0. -1.
        -11    1    4    4    0    0  0.65506390938E+01 -0.11199505036E+02 -0.58002738749E+01  0.14212071027E+02  0.51100000000E-03 0.  1.
        -12    1    4    4    0    0 -0.16738526038E+02 -0.16538317454E+01 -0.14613384586E+01  0.16883391942E+02  0.00000000000E+00 0.  1.
</event>
<event>
 8    1  0.2458065E-006  0.9118800E+02  0.7816164E-02  0.1184000E+00
        -11   -1    0    0    0    0  0.00000000000E+00  0.00000000000E+00  0.45593999997E+02  0.45594000000E+02  0.51100000000E-03 0.  1.
         11   -1    0    0    0    0 -0.00000000000E+00 -0.00000000000E+00 -0.45593999997E+02  0.45594000000E+02  0.51100000000E-03 0. -1.
         23    2    1    2    0    0  0.44408920985E-14  0.00000000000E+00  0.00000000000E+00  0.91188000000E+02  0.91188000000E+02 0.  0.
    9900012    2    3    3    0    0  0.67086235232E+01 -0.34648786149E+02 -0.10499320692E+02  0.54367085479E+02  0.40000002966E+02 0.  0.
        -12    1    3    3    0    0 -0.67086235232E+01  0.34648786149E+02  0.10499320692E+02  0.36820914521E+02  0.00000000000E+00 0.  1.
         11    1    4    4    0    0 -0.10456166263E+02 -0.24430296890E+02 -0.49600290041E+01  0.27032807976E+02  0.51100000000E-03 0. -1.
        -11    1    4    4    0    0 -0.22036861167E+01  0.21662991315E+01  0.12947311424E+01  0.33504348106E+01  0.51100000000E-03 0.  1.
         12    1    4    4    0    0  0.19368475902E+02 -0.12384788390E+02 -0.68340228305E+01  0.23983842693E+02  0.00000000000E+00 0. -1.
</event>
<event>
 8    1  0.2458065E-006  0.9118800E+02  0.7816164E-02  0.1184000E+00
        -11   -1    0    0    0    0  0.00000000000E+00  0.00000000000E+00  0.45593999997E+02  0.45594000000E+02  0.51100000000E-03 0.  1.
         11   -1    0    0    0    0 -0.00000000000E+00 -0.00000000000E+00 -0.45593999997E+02  0.45594000000E+02  0.51100000000E-03 0. -1.
         23    2    1    2    0    0  0.17763568394E-14  0.71054273576E-14  0.00000000000E+00  0.91188000000E+02  0.91188000000E+02 0.  0.
    9900012    2    3    3    0    0 -0.12848933398E+02 -0.34419826091E+02 -0.24415787213E+01  0.54367070839E+02  0.39999969592E+02 0.  0.
         12    1    3    3    0    0  0.12848933398E+02  0.34419826091E+02  0.24415787213E+01  0.36820929161E+02  0.00000000000E+00 0. -1.
         11    1    4    4    0    0  0.99557433284E+01 -0.45757339776E+00 -0.69148669045E-01  0.99664928854E+01  0.51100000000E-03 0. -1.
        -11    1    4    4    0    0 -0.41943701555E+01 -0.14424489908E+02  0.59592696237E+01  0.16160802728E+02  0.51100000000E-03 0.  1.
         12    1    4    4    0    0 -0.18610306571E+02 -0.19537762785E+02 -0.83316996760E+01  0.28239775226E+02  0.00000000000E+00 0. -1.
</event>
<event>
 8    1  0.2458065E-006  0.9118800E+02  0.7816164E-02  0.1184000E+00
        -11   -1    0    0    0    0  0.00000000000E+00  0.00000000000E+00  0.45593999997E+02  0.45594000000E+02  0.51100000000E-03 0. -1.
         11   -1    0    0    0    0 -0.00000000000E+00 -0.00000000000E+00 -0.45593999997E+02  0.45594000000E+02  0.51100000000E-03 0.  1.
         23    2    1    2    0    0  0.00000000000E+00  0.00000000000E+00  0.00000000000E+00  0.91188000000E+02  0.91188000000E+02 0.  0.
    9900012    2    3    3    0    0  0.21543736184E+02 -0.21986510482E+02 -0.20204839950E+02  0.54367153061E+02  0.40000157032E+02 0.  0.
         12    1    3    3    0    0 -0.21543736184E+02  0.21986510482E+02  0.20204839950E+02  0.36820846939E+02  0.00000000000E+00 0. -1.
         11    1    4    4    0    0 -0.36280523299E+01  0.57386285675E+01 -0.40041597215E+01  0.78821264187E+01  0.51100000000E-03 0. -1.
        -11    1    4    4    0    0  0.36459699071E+01 -0.18816973388E+02 -0.12535517146E+02  0.22902200210E+02  0.51100000000E-03 0.  1.
         12    1    4    4    0    0  0.21525818606E+02 -0.89081656612E+01 -0.36651630823E+01  0.23582826432E+02  0.00000000000E+00 0. -1.
</event>
<event>
 8    1  0.2458065E-006  0.9118800E+02  0.7816164E-02  0.1184000E+00
        -11   -1    0    0    0    0  0.00000000000E+00  0.00000000000E+00  0.45593999997E+02  0.45594000000E+02  0.51100000000E-03 0.  1.
         11   -1    0    0    0    0 -0.00000000000E+00 -0.00000000000E+00 -0.45593999997E+02  0.45594000000E+02  0.51100000000E-03 0. -1.
         23    2    1    2    0    0  0.35527136788E-14  0.22204460493E-15  0.35527136788E-14  0.91188000000E+02  0.91188000000E+02 0.  0.
    9900012    2    3    3    0    0  0.27097168147E+02  0.81483454807E+00  0.24917087225E+02  0.54367058775E+02  0.39999942090E+02 0.  0.
         12    1    3    3    0    0 -0.27097168147E+02 -0.81483454807E+00 -0.24917087225E+02  0.36820941225E+02  0.00000000000E+00 0. -1.
         11    1    4    4    0    0  0.27666676195E+02  0.12265814326E+02  0.16497488374E+02  0.34468279557E+02  0.51100000000E-03 0.  1.
        -11    1    4    4    0    0 -0.26591157367E+01  0.24740952279E+01  0.33259111824E+01  0.49248075244E+01  0.51100000000E-03 0. -1.
        -12    1    4    4    0    0  0.20896076888E+01 -0.13925075006E+02  0.50936876682E+01  0.14973971694E+02  0.00000000000E+00 0.  1.
</event>
<event>
 8    1  0.2458065E-006  0.9118800E+02  0.7816164E-02  0.1184000E+00
        -11   -1    0    0    0    0  0.00000000000E+00  0.00000000000E+00  0.45593999997E+02  0.45594000000E+02  0.51100000000E-03 0. -1.
         11   -1    0    0    0    0 -0.00000000000E+00 -0.00000000000E+00 -0.45593999997E+02  0.45594000000E+02  0.51100000000E-03 0.  1.
         23    2    1    2    0    0  0.00000000000E+00  0.88817841970E-15 -0.17763568394E-14  0.91188000000E+02  0.91188000000E+02 0.  0.
    9900012    2    3    3    0    0 -0.35016470814E+02  0.70001404260E+01  0.89791186734E+01  0.54367085204E+02  0.40000002339E+02 0.  0.
        -12    1    3    3    0    0  0.35016470814E+02 -0.70001404260E+01 -0.89791186734E+01  0.36820914796E+02  0.00000000000E+00 0.  1.
         11    1    4    4    0    0 -0.81592512501E+01  0.54297144501E+01  0.12349789156E+02  0.15766181289E+02  0.51100000000E-03 0. -1.
        -11    1    4    4    0    0 -0.26951486872E+02  0.10882639374E+02 -0.15151321930E+01  0.29105156075E+02  0.51100000000E-03 0.  1.
         12    1    4    4    0    0  0.94267307723E-01 -0.93122133976E+01 -0.18555382896E+01  0.94957478396E+01  0.00000000000E+00 0. -1.
</event>
<event>
 8    1  0.2458065E-006  0.9118800E+02  0.7816164E-02  0.1184000E+00
        -11   -1    0    0    0    0  0.00000000000E+00  0.00000000000E+00  0.45593999997E+02  0.45594000000E+02  0.51100000000E-03 0. -1.
         11   -1    0    0    0    0 -0.00000000000E+00 -0.00000000000E+00 -0.45593999997E+02  0.45594000000E+02  0.51100000000E-03 0.  1.
         23    2    1    2    0    0  0.88817841970E-15  0.71054273576E-14  0.00000000000E+00  0.91188000000E+02  0.91188000000E+02 0.  0.
    9900012    2    3    3    0    0 -0.71875341647E+01 -0.21135791943E+02 -0.29281349955E+02  0.54367084699E+02  0.40000001189E+02 0.  0.
         12    1    3    3    0    0  0.71875341647E+01  0.21135791943E+02  0.29281349955E+02  0.36820915301E+02  0.00000000000E+00 0. -1.
         11    1    4    4    0    0  0.13902656585E+02 -0.13784179395E+02 -0.23689660891E+02  0.30732515275E+02  0.51100000000E-03 0.  1.
        -11    1    4    4    0    0 -0.15762690910E+02 -0.29135785901E+01 -0.38905373386E+01  0.16495079447E+02  0.51100000000E-03 0. -1.
        -12    1    4    4    0    0 -0.53274998392E+01 -0.44380339574E+01 -0.17011517249E+01  0.71394899772E+01  0.00000000000E+00 0.  1.
</event>
<event>
 8    1  0.2458065E-006  0.9118800E+02  0.7816164E-02  0.1184000E+00
        -11   -1    0    0    0    0  0.00000000000E+00  0.00000000000E+00  0.45593999997E+02  0.45594000000E+02  0.51100000000E-03 0. -1.
         11   -1    0    0    0    0 -0.00000000000E+00 -0.00000000000E+00 -0.45593999997E+02  0.45594000000E+02  0.51100000000E-03 0.  1.
         23    2    1    2    0    0 -0.35527136788E-14 -0.88817841970E-15  0.00000000000E+00  0.91188000000E+02  0.91188000000E+02 0.  0.
    9900012    2    3    3    0    0 -0.31353518785E+02  0.27737501076E+01  0.19106092901E+02  0.54367087249E+02  0.40000007002E+02 0.  0.
        -12    1    3    3    0    0  0.31353518785E+02 -0.27737501076E+01 -0.19106092901E+02  0.36820912751E+02  0.00000000000E+00 0.  1.
         11    1    4    4    0    0 -0.10818993767E+02  0.15780333846E+02  0.20987962949E+02  0.28400073088E+02  0.51100000000E-03 0. -1.
        -11    1    4    4    0    0 -0.10086174102E+02 -0.10075130308E+02 -0.42170081004E+01  0.14866819307E+02  0.51100000000E-03 0.  1.
        -12    1    4    4    0    0 -0.10448350916E+02 -0.29314534305E+01  0.23351380532E+01  0.11100194854E+02  0.00000000000E+00 0.  1.
</event>
<event>
 8    1  0.2458065E-006  0.9118800E+02  0.7816164E-02  0.1184000E+00
        -11   -1    0    0    0    0  0.00000000000E+00  0.00000000000E+00  0.45593999997E+02  0.45594000000E+02  0.51100000000E-03 0.  1.
         11   -1    0    0    0    0 -0.00000000000E+00 -0.00000000000E+00 -0.45593999997E+02  0.45594000000E+02  0.51100000000E-03 0. -1.
         23    2    1    2    0    0  0.88817841970E-15  0.00000000000E+00  0.00000000000E+00  0.91188000000E+02  0.91188000000E+02 0.  0.
    9900012    2    3    3    0    0 -0.78049661405E+00  0.35560108229E+02 -0.95210178710E+01  0.54367078589E+02  0.39999987260E+02 0.  0.
         12    1    3    3    0    0  0.78049661405E+00 -0.35560108229E+02  0.95210178710E+01  0.36820921411E+02  0.00000000000E+00 0. -1.
         11    1    4    4    0    0  0.10364620823E+02  0.20525184186E+02 -0.28102443606E+01  0.23164758239E+02  0.51100000000E-03 0. -1.
        -11    1    4    4    0    0  0.18463850352E+01  0.34335555078E+01  0.76773911916E+01  0.86105038699E+01  0.51100000000E-03 0.  1.
         12    1    4    4    0    0 -0.12991502472E+02  0.11601368536E+02 -0.14388164702E+02  0.22591816480E+02  0.00000000000E+00 0. -1.
</event>
<event>
 8    1  0.2458065E-006  0.9118800E+02  0.7816164E-02  0.1184000E+00
        -11   -1    0    0    0    0  0.00000000000E+00  0.00000000000E+00  0.45593999997E+02  0.45594000000E+02  0.51100000000E-03 0. -1.
         11   -1    0    0    0    0 -0.00000000000E+00 -0.00000000000E+00 -0.45593999997E+02  0.45594000000E+02  0.51100000000E-03 0.  1.
         23    2    1    2    0    0  0.71054273576E-14 -0.17763568394E-14 -0.17763568394E-14  0.91188000000E+02  0.91188000000E+02 0.  0.
    9900012    2    3    3    0    0  0.31373857695E+02 -0.14042579554E+02 -0.13201056084E+02  0.54367070233E+02  0.39999968209E+02 0.  0.
         12    1    3    3    0    0 -0.31373857695E+02  0.14042579554E+02  0.13201056084E+02  0.36820929767E+02  0.00000000000E+00 0. -1.
         11    1    4    4    0    0  0.23617571494E+01  0.45456704535E+01  0.64609668933E+01  0.82453083728E+01  0.51100000000E-03 0. -1.
        -11    1    4    4    0    0  0.19619252510E+02 -0.10169402242E+02 -0.24149006579E+02  0.32733871296E+02  0.51100000000E-03 0.  1.
        -12    1    4    4    0    0  0.93928480354E+01 -0.84188477653E+01  0.44869836012E+01  0.13387890564E+02  0.00000000000E+00 0.  1.
</event>
<event>
 8    1  0.2458065E-006  0.9118800E+02  0.7816164E-02  0.1184000E+00
        -11   -1    0    0    0    0  0.00000000000E+00  0.00000000000E+00  0.45593999997E+02  0.45594000000E+02  0.51100000000E-03 0.  1.
         11   -1    0    0    0    0 -0.00000000000E+00 -0.00000000000E+00 -0.45593999997E+02  0.45594000000E+02  0.51100000000E-03 0. -1.
         23    2    1    2    0    0  0.00000000000E+00 -0.88817841970E-15  0.00000000000E+00  0.91188000000E+02  0.91188000000E+02 0.  0.
    9900012    2    3    3    0    0  0.36000357769E+02 -0.65442997642E+01  0.41141698214E+01  0.54367081866E+02  0.39999994730E+02 0.  0.
        -12    1    3    3    0    0 -0.36000357769E+02  0.65442997642E+01 -0.41141698214E+01  0.36820918134E+02  0.00000000000E+00 0.  1.
         11    1    4    4    0    0  0.16396599177E+02 -0.85628700647E+01 -0.15923604763E+00  0.18498555746E+02  0.51100000000E-03 0. -1.
        -11    1    4    4    0    0  0.18260451196E+01  0.84697348614E+01 -0.92078169838E+01  0.12643367560E+02  0.51100000000E-03 0.  1.
        -12    1    4    4    0    0  0.17777713472E+02 -0.64511645609E+01  0.13481222853E+02  0.23225158559E+02  0.00000000000E+00 0.  1.
</event>
<event>
 8    1  0.2458065E-006  0.9118800E+02  0.7816164E-02  0.1184000E+00
        -11   -1    0    0    0    0  0.00000000000E+00  0.00000000000E+00  0.45593999997E+02  0.45594000000E+02  0.51100000000E-03 0. -1.
         11   -1    0    0    0    0 -0.00000000000E+00 -0.00000000000E+00 -0.45593999997E+02  0.45594000000E+02  0.51100000000E-03 0.  1.
         23    2    1    2    0    0  0.00000000000E+00 -0.35527136788E-14 -0.35527136788E-14  0.91188000000E+02  0.91188000000E+02 0.  0.
    9900012    2    3    3    0    0 -0.64169906830E+01 -0.20991963253E+02  0.29562455187E+02  0.54367094969E+02  0.40000024600E+02 0.  0.
        -12    1    3    3    0    0  0.64169906830E+01  0.20991963253E+02 -0.29562455187E+02  0.36820905031E+02  0.00000000000E+00 0.  1.
         11    1    4    4    0    0 -0.20410282775E+02 -0.11579330660E+02  0.16317920999E+02  0.28582076332E+02  0.51100000000E-03 0. -1.
        -11    1    4    4    0    0  0.13647407837E+02 -0.12748144782E+02  0.12049000150E+02  0.22224881123E+02  0.51100000000E-03 0.  1.
        -12    1    4    4    0    0  0.34588425467E+00  0.33355121888E+01  0.11955340380E+01  0.35601375136E+01  0.00000000000E+00 0.  1.
</event>
<event>
 8    1  0.2458065E-006  0.9118800E+02  0.7816164E-02  0.1184000E+00
        -11   -1    0    0    0    0  0.00000000000E+00  0.00000000000E+00  0.45593999997E+02  0.45594000000E+02  0.51100000000E-03 0. -1.
         11   -1    0    0    0    0 -0.00000000000E+00 -0.00000000000E+00 -0.45593999997E+02  0.45594000000E+02  0.51100000000E-03 0.  1.
         23    2    1    2    0    0  0.88817841970E-15  0.35527136788E-14  0.35527136788E-14  0.91188000000E+02  0.91188000000E+02 0.  0.
    9900012    2    3    3    0    0 -0.74830587849E+01  0.29095487896E+02 -0.21289355391E+02  0.54367078805E+02  0.39999987751E+02 0.  0.
         12    1    3    3    0    0  0.74830587849E+01 -0.29095487896E+02  0.21289355391E+02  0.36820921195E+02  0.00000000000E+00 0. -1.
         11    1    4    4    0    0  0.30334836722E+01  0.39581436551E+00 -0.27231164793E+01  0.40956142180E+01  0.51100000000E-03 0. -1.
        -11    1    4    4    0    0 -0.16830584449E+02 -0.53468616854E-01 -0.34563476450E+01  0.17181902430E+02  0.51100000000E-03 0.  1.
         12    1    4    4    0    0  0.63140419922E+01  0.28753142148E+02 -0.15109891267E+02  0.33089562157E+02  0.00000000000E+00 0. -1.
</event>
<event>
 8    1  0.2458065E-006  0.9118800E+02  0.7816164E-02  0.1184000E+00
        -11   -1    0    0    0    0  0.00000000000E+00  0.00000000000E+00  0.45593999997E+02  0.45594000000E+02  0.51100000000E-03 0.  1.
         11   -1    0    0    0    0 -0.00000000000E+00 -0.00000000000E+00 -0.45593999997E+02  0.45594000000E+02  0.51100000000E-03 0. -1.
         23    2    1    2    0    0  0.00000000000E+00 -0.17763568394E-14  0.00000000000E+00  0.91188000000E+02  0.91188000000E+02 0.  0.
    9900012    2    3    3    0    0 -0.81162064689E+01  0.52424029480E+01 -0.35530604087E+02  0.54367089869E+02  0.40000012973E+02 0.  0.
        -12    1    3    3    0    0  0.81162064689E+01 -0.52424029480E+01  0.35530604087E+02  0.36820910131E+02  0.00000000000E+00 0.  1.
         11    1    4    4    0    0 -0.43222483389E+01  0.18461425742E+02 -0.34662143109E+02  0.39509115863E+02  0.51100000000E-03 0. -1.
        -11    1    4    4    0    0  0.61527279758E+00 -0.30467205672E+01 -0.20270654197E+01  0.37108033237E+01  0.51100000000E-03 0.  1.
         12    1    4    4    0    0 -0.44092309276E+01 -0.10172302226E+02  0.11586044416E+01  0.11147170682E+02  0.00000000000E+00 0. -1.
</event>
<event>
 8    1  0.2458065E-006  0.9118800E+02  0.7816164E-02  0.1184000E+00
        -11   -1    0    0    0    0  0.00000000000E+00  0.00000000000E+00  0.45593999997E+02  0.45594000000E+02  0.51100000000E-03 0. -1.
         11   -1    0    0    0    0 -0.00000000000E+00 -0.00000000000E+00 -0.45593999997E+02  0.45594000000E+02  0.51100000000E-03 0.  1.
         23    2    1    2    0    0  0.00000000000E+00  0.00000000000E+00  0.00000000000E+00  0.91188000000E+02  0.91188000000E+02 0.  0.
    9900012    2    3    3    0    0  0.18001377449E+02  0.28092323841E+02  0.15574056453E+02  0.54367089049E+02  0.40000011105E+02 0.  0.
        -12    1    3    3    0    0 -0.18001377449E+02 -0.28092323841E+02 -0.15574056453E+02  0.36820910951E+02  0.00000000000E+00 0.  1.
         11    1    4    4    0    0  0.10049751435E+02  0.19992242643E+02 -0.27600064783E+01  0.22545618329E+02  0.51100000000E-03 0. -1.
        -11    1    4    4    0    0  0.13953094560E+02  0.10402920122E+02  0.69354670585E+01  0.18735268838E+02  0.51100000000E-03 0.  1.
        -12    1    4    4    0    0 -0.60014685460E+01 -0.23028389239E+01  0.11398595873E+02  0.13086201882E+02  0.00000000000E+00 0.  1.
</event>
<event>
 8    1  0.2458065E-006  0.9118800E+02  0.7816164E-02  0.1184000E+00
        -11   -1    0    0    0    0  0.00000000000E+00  0.00000000000E+00  0.45593999997E+02  0.45594000000E+02  0.51100000000E-03 0. -1.
         11   -1    0    0    0    0 -0.00000000000E+00 -0.00000000000E+00 -0.45593999997E+02  0.45594000000E+02  0.51100000000E-03 0.  1.
         23    2    1    2    0    0 -0.17763568394E-14  0.00000000000E+00  0.35527136788E-14  0.91188000000E+02  0.91188000000E+02 0.  0.
    9900012    2    3    3    0    0  0.14159541131E+02  0.29495876954E+02 -0.16890220385E+02  0.54367096874E+02  0.40000028944E+02 0.  0.
         12    1    3    3    0    0 -0.14159541131E+02 -0.29495876954E+02  0.16890220385E+02  0.36820903126E+02  0.00000000000E+00 0. -1.
         11    1    4    4    0    0 -0.88409886651E+00 -0.52572803469E+01 -0.13690601743E+02  0.14691943500E+02  0.51100000000E-03 0. -1.
        -11    1    4    4    0    0  0.30458753449E+01  0.20762092610E+02 -0.94310427970E-01  0.20984535756E+02  0.51100000000E-03 0.  1.
         12    1    4    4    0    0  0.11997764653E+02  0.13991064691E+02 -0.31053082139E+01  0.18690617619E+02  0.00000000000E+00 0. -1.
</event>
<event>
 8    1  0.2458065E-006  0.9118800E+02  0.7816164E-02  0.1184000E+00
        -11   -1    0    0    0    0  0.00000000000E+00  0.00000000000E+00  0.45593999997E+02  0.45594000000E+02  0.51100000000E-03 0.  1.
         11   -1    0    0    0    0 -0.00000000000E+00 -0.00000000000E+00 -0.45593999997E+02  0.45594000000E+02  0.51100000000E-03 0. -1.
         23    2    1    2    0    0 -0.35527136788E-14 -0.61062266354E-15  0.00000000000E+00  0.91188000000E+02  0.91188000000E+02 0.  0.
    9900012    2    3    3    0    0 -0.28449299189E+02  0.94336086712E-01  0.23375383040E+02  0.54367081273E+02  0.39999993378E+02 0.  0.
         12    1    3    3    0    0  0.28449299189E+02 -0.94336086712E-01 -0.23375383040E+02  0.36820918727E+02  0.00000000000E+00 0. -1.
         11    1    4    4    0    0 -0.27431401204E+02  0.47687080344E+01  0.18057925294E+01  0.27901312429E+02  0.51100000000E-03 0. -1.
        -11    1    4    4    0    0 -0.35858553986E+00  0.50449606766E+01  0.10909914856E+02  0.12025242378E+02  0.51100000000E-03 0.  1.
         12    1    4    4    0    0 -0.65931244521E+00 -0.97193326243E+01  0.10659675655E+02  0.14440526466E+02  0.00000000000E+00 0. -1.
</event>
<event>
 8    1  0.2458065E-006  0.9118800E+02  0.7816164E-02  0.1184000E+00
        -11   -1    0    0    0    0  0.00000000000E+00  0.00000000000E+00  0.45593999997E+02  0.45594000000E+02  0.51100000000E-03 0.  1.
         11   -1    0    0    0    0 -0.00000000000E+00 -0.00000000000E+00 -0.45593999997E+02  0.45594000000E+02  0.51100000000E-03 0. -1.
         23    2    1    2    0    0  0.88817841970E-15  0.00000000000E+00  0.00000000000E+00  0.91188000000E+02  0.91188000000E+02 0.  0.
    9900012    2    3    3    0    0  0.46337295457E+01 -0.27246168779E+02 -0.24330080352E+02  0.54367109563E+02  0.40000057871E+02 0.  0.
        -12    1    3    3    0    0 -0.46337295457E+01  0.27246168779E+02  0.24330080352E+02  0.36820890437E+02  0.00000000000E+00 0.  1.
         11    1    4    4    0    0 -0.68249458316E+01 -0.17115190039E+02 -0.17636602080E+02  0.25506064943E+02  0.51100000000E-03 0. -1.
        -11    1    4    4    0    0 -0.62896042473E+01 -0.10061453928E+01  0.25584323303E+01  0.68641843207E+01  0.51100000000E-03 0.  1.
         12    1    4    4    0    0  0.17748279625E+02 -0.91248333472E+01 -0.92519106020E+01  0.21996860299E+02  0.00000000000E+00 0. -1.
</event>
<event>
 8    1  0.2458065E-006  0.9118800E+02  0.7816164E-02  0.1184000E+00
        -11   -1    0    0    0    0  0.00000000000E+00  0.00000000000E+00  0.45593999997E+02  0.45594000000E+02  0.51100000000E-03 0. -1.
         11   -1    0    0    0    0 -0.00000000000E+00 -0.00000000000E+00 -0.45593999997E+02  0.45594000000E+02  0.51100000000E-03 0.  1.
         23    2    1    2    0    0  0.17763568394E-14  0.00000000000E+00 -0.88817841970E-15  0.91188000000E+02  0.91188000000E+02 0.  0.
    9900012    2    3    3    0    0  0.12976964643E+02  0.34390213910E+02  0.21661394348E+01  0.54367074099E+02  0.39999977024E+02 0.  0.
        -12    1    3    3    0    0 -0.12976964643E+02 -0.34390213910E+02 -0.21661394348E+01  0.36820925901E+02  0.00000000000E+00 0.  1.
         11    1    4    4    0    0  0.13372558160E+01  0.55448547008E+01  0.52599805995E+01  0.77589343946E+01  0.51100000000E-03 0. -1.
        -11    1    4    4    0    0 -0.29633096543E+01  0.16299652063E+02 -0.16316414964E+02  0.23252639829E+02  0.51100000000E-03 0.  1.
        -12    1    4    4    0    0  0.14603018481E+02  0.12545707146E+02  0.13222573799E+02  0.23355499876E+02  0.00000000000E+00 0.  1.
</event>
<event>
 8    1  0.2458065E-006  0.9118800E+02  0.7816164E-02  0.1184000E+00
        -11   -1    0    0    0    0  0.00000000000E+00  0.00000000000E+00  0.45593999997E+02  0.45594000000E+02  0.51100000000E-03 0.  1.
         11   -1    0    0    0    0 -0.00000000000E+00 -0.00000000000E+00 -0.45593999997E+02  0.45594000000E+02  0.51100000000E-03 0. -1.
         23    2    1    2    0    0  0.00000000000E+00  0.00000000000E+00 -0.17763568394E-14  0.91188000000E+02  0.91188000000E+02 0.  0.
    9900012    2    3    3    0    0  0.15772379517E+02  0.31272929373E+02  0.11358478871E+02  0.54367094124E+02  0.40000022675E+02 0.  0.
         12    1    3    3    0    0 -0.15772379517E+02 -0.31272929373E+02 -0.11358478871E+02  0.36820905876E+02  0.00000000000E+00 0. -1.
         11    1    4    4    0    0 -0.15409768664E+01  0.11374167755E+02  0.17717055330E+02  0.21110195443E+02  0.51100000000E-03 0. -1.
        -11    1    4    4    0    0  0.49265397660E+01  0.18432352020E+02 -0.79754579253E+01  0.20679224464E+02  0.51100000000E-03 0.  1.
         12    1    4    4    0    0  0.12386816618E+02  0.14664095977E+01  0.16168814667E+01  0.12577674217E+02  0.00000000000E+00 0. -1.
</event>
<event>
 8    1  0.2458065E-006  0.9118800E+02  0.7816164E-02  0.1184000E+00
        -11   -1    0    0    0    0  0.00000000000E+00  0.00000000000E+00  0.45593999997E+02  0.45594000000E+02  0.51100000000E-03 0.  1.
         11   -1    0    0    0    0 -0.00000000000E+00 -0.00000000000E+00 -0.45593999997E+02  0.45594000000E+02  0.51100000000E-03 0. -1.
         23    2    1    2    0    0  0.72164496601E-15  0.35527136788E-14 -0.35527136788E-14  0.91188000000E+02  0.91188000000E+02 0.  0.
    9900012    2    3    3    0    0  0.46349952338E+00  0.28878233847E+02 -0.22838837658E+02  0.54367085733E+02  0.40000003545E+02 0.  0.
        -12    1    3    3    0    0 -0.46349952338E+00 -0.28878233847E+02  0.22838837658E+02  0.36820914267E+02  0.00000000000E+00 0.  1.
         11    1    4    4    0    0  0.93931983973E+01  0.78958503546E+01 -0.12226463400E+02  0.17322327687E+02  0.51100000000E-03 0. -1.
        -11    1    4    4    0    0  0.90007588693E+01  0.44721183957E+01 -0.73545601155E+01  0.12454037816E+02  0.51100000000E-03 0.  1.
         12    1    4    4    0    0 -0.17930457743E+02  0.16510265096E+02 -0.32578141417E+01  0.24590720230E+02  0.00000000000E+00 0. -1.
</event>
<event>
 8    1  0.2458065E-006  0.9118800E+02  0.7816164E-02  0.1184000E+00
        -11   -1    0    0    0    0  0.00000000000E+00  0.00000000000E+00  0.45593999997E+02  0.45594000000E+02  0.51100000000E-03 0. -1.
         11   -1    0    0    0    0 -0.00000000000E+00 -0.00000000000E+00 -0.45593999997E+02  0.45594000000E+02  0.51100000000E-03 0.  1.
         23    2    1    2    0    0  0.66613381478E-15 -0.88817841970E-15 -0.71054273576E-14  0.91188000000E+02  0.91188000000E+02 0.  0.
    9900012    2    3    3    0    0  0.86194800785E+00  0.72368348428E+01  0.36092448071E+02  0.54367088270E+02  0.40000009328E+02 0.  0.
        -12    1    3    3    0    0 -0.86194800785E+00 -0.72368348428E+01 -0.36092448071E+02  0.36820911730E+02  0.00000000000E+00 0.  1.
         11    1    4    4    0    0 -0.93906700269E+00  0.68231261288E+01  0.51019824467E+01  0.85712964102E+01  0.51100000000E-03 0. -1.
        -11    1    4    4    0    0 -0.85436658957E+01 -0.93057383918E+00 -0.38573207808E+01  0.94201442916E+01  0.51100000000E-03 0.  1.
         12    1    4    4    0    0  0.10344680906E+02  0.13442825532E+01  0.34847786405E+02  0.36375647568E+02  0.00000000000E+00 0. -1.
</event>
<event>
 8    1  0.2458065E-006  0.9118800E+02  0.7816164E-02  0.1184000E+00
        -11   -1    0    0    0    0  0.00000000000E+00  0.00000000000E+00  0.45593999997E+02  0.45594000000E+02  0.51100000000E-03 0.  1.
         11   -1    0    0    0    0 -0.00000000000E+00 -0.00000000000E+00 -0.45593999997E+02  0.45594000000E+02  0.51100000000E-03 0. -1.
         23    2    1    2    0    0  0.00000000000E+00  0.00000000000E+00  0.00000000000E+00  0.91188000000E+02  0.91188000000E+02 0.  0.
    9900012    2    3    3    0    0  0.35485541009E+02 -0.50328708054E+01 -0.84395534245E+01  0.54367089212E+02  0.40000011476E+02 0.  0.
         12    1    3    3    0    0 -0.35485541009E+02  0.50328708054E+01  0.84395534245E+01  0.36820910788E+02  0.00000000000E+00 0. -1.
         11    1    4    4    0    0 -0.47872491260E+01 -0.89869981810E+00  0.36406341526E+01  0.60810881306E+01  0.51100000000E-03 0. -1.
        -11    1    4    4    0    0  0.13107788228E+02  0.76920764815E+01  0.22688531016E+01  0.15366517090E+02  0.51100000000E-03 0.  1.
        -12    1    4    4    0    0  0.27165001907E+02 -0.11826247469E+02 -0.14349040679E+02  0.32919483991E+02  0.00000000000E+00 0.  1.
</event>
<event>
 8    1  0.2458065E-006  0.9118800E+02  0.7816164E-02  0.1184000E+00
        -11   -1    0    0    0    0  0.00000000000E+00  0.00000000000E+00  0.45593999997E+02  0.45594000000E+02  0.51100000000E-03 0.  1.
         11   -1    0    0    0    0 -0.00000000000E+00 -0.00000000000E+00 -0.45593999997E+02  0.45594000000E+02  0.51100000000E-03 0. -1.
         23    2    1    2    0    0  0.00000000000E+00  0.35527136788E-14 -0.35527136788E-14  0.91188000000E+02  0.91188000000E+02 0.  0.
    9900012    2    3    3    0    0 -0.14813053058E+02 -0.19745096630E+02  0.27321866613E+02  0.54367085060E+02  0.40000002011E+02 0.  0.
         12    1    3    3    0    0  0.14813053058E+02  0.19745096630E+02 -0.27321866613E+02  0.36820914940E+02  0.00000000000E+00 0. -1.
         11    1    4    4    0    0  0.11749382512E+02 -0.77889004756E+01  0.70188713363E+01  0.15747365339E+02  0.51100000000E-03 0. -1.
        -11    1    4    4    0    0 -0.24847596097E+02 -0.51270511444E+01  0.13125536730E+02  0.28565178101E+02  0.51100000000E-03 0.  1.
        -12    1    4    4    0    0 -0.17148394728E+01 -0.68291450103E+01  0.71774585466E+01  0.10054541619E+02  0.00000000000E+00 0.  1.
</event>
<event>
 8    1  0.2458065E-006  0.9118800E+02  0.7816164E-02  0.1184000E+00
        -11   -1    0    0    0    0  0.00000000000E+00  0.00000000000E+00  0.45593999997E+02  0.45594000000E+02  0.51100000000E-03 0.  1.
         11   -1    0    0    0    0 -0.00000000000E+00 -0.00000000000E+00 -0.45593999997E+02  0.45594000000E+02  0.51100000000E-03 0. -1.
         23    2    1    2    0    0  0.88817841970E-15  0.00000000000E+00  0.00000000000E+00  0.91188000000E+02  0.91188000000E+02 0.  0.
    9900012    2    3    3    0    0  0.55386461543E+01  0.36108112697E+02  0.46158852777E+01  0.54367098319E+02  0.40000032237E+02 0.  0.
        -12    1    3    3    0    0 -0.55386461543E+01 -0.36108112697E+02 -0.46158852777E+01  0.36820901681E+02  0.00000000000E+00 0.  1.
         11    1    4    4    0    0 -0.21176104648E+01  0.34921085500E+02  0.93072783367E+01  0.36202098239E+02  0.51100000000E-03 0. -1.
        -11    1    4    4    0    0  0.40509010339E+01 -0.59479829749E+01  0.22894797811E+01  0.75518222030E+01  0.51100000000E-03 0.  1.
         12    1    4    4    0    0  0.36053555851E+01  0.71350101712E+01 -0.69808728400E+01  0.10613177877E+02  0.00000000000E+00 0. -1.
</event>
<event>
 8    1  0.2458065E-006  0.9118800E+02  0.7816164E-02  0.1184000E+00
        -11   -1    0    0    0    0  0.00000000000E+00  0.00000000000E+00  0.45593999997E+02  0.45594000000E+02  0.51100000000E-03 0. -1.
         11   -1    0    0    0    0 -0.00000000000E+00 -0.00000000000E+00 -0.45593999997E+02  0.45594000000E+02  0.51100000000E-03 0.  1.
         23    2    1    2    0    0 -0.35527136788E-14  0.00000000000E+00  0.71054273576E-14  0.91188000000E+02  0.91188000000E+02 0.  0.
    9900012    2    3    3    0    0 -0.19110332940E+02  0.14209063477E+02  0.28083371145E+02  0.54367108582E+02  0.40000055634E+02 0.  0.
        -12    1    3    3    0    0  0.19110332940E+02 -0.14209063477E+02 -0.28083371145E+02  0.36820891418E+02  0.00000000000E+00 0.  1.
         11    1    4    4    0    0 -0.90589287773E+01  0.95858425427E+01  0.18777090441E+02  0.22946278425E+02  0.51100000000E-03 0. -1.
        -11    1    4    4    0    0  0.30963233603E+01 -0.76974276934E+01  0.10477186932E+02  0.13364469975E+02  0.51100000000E-03 0.  1.
         12    1    4    4    0    0 -0.13147727523E+02  0.12320648628E+02 -0.11709062283E+01  0.18056360182E+02  0.00000000000E+00 0. -1.
</event>
<event>
 8    1  0.2458065E-006  0.9118800E+02  0.7816164E-02  0.1184000E+00
        -11   -1    0    0    0    0  0.00000000000E+00  0.00000000000E+00  0.45593999997E+02  0.45594000000E+02  0.51100000000E-03 0. -1.
         11   -1    0    0    0    0 -0.00000000000E+00 -0.00000000000E+00 -0.45593999997E+02  0.45594000000E+02  0.51100000000E-03 0.  1.
         23    2    1    2    0    0  0.00000000000E+00 -0.35527136788E-14  0.44408920985E-15  0.91188000000E+02  0.91188000000E+02 0.  0.
    9900012    2    3    3    0    0 -0.29422871527E+02 -0.22027139746E+02  0.22061235753E+01  0.54367255365E+02  0.40000390253E+02 0.  0.
         12    1    3    3    0    0  0.29422871527E+02  0.22027139746E+02 -0.22061235753E+01  0.36820744635E+02  0.00000000000E+00 0. -1.
         11    1    4    4    0    0  0.34818793927E+01  0.49038423018E+01 -0.38814029739E+01  0.71579635884E+01  0.51100000000E-03 0. -1.
        -11    1    4    4    0    0  0.24016939299E+01 -0.39055807289E+01 -0.21317297521E+00  0.45898951558E+01  0.51100000000E-03 0.  1.
        -12    1    4    4    0    0 -0.35306444849E+02 -0.23025401319E+02  0.63006995244E+01  0.42619396620E+02  0.00000000000E+00 0.  1.
</event>
<event>
 8    1  0.2458065E-006  0.9118800E+02  0.7816164E-02  0.1184000E+00
        -11   -1    0    0    0    0  0.00000000000E+00  0.00000000000E+00  0.45593999997E+02  0.45594000000E+02  0.51100000000E-03 0. -1.
         11   -1    0    0    0    0 -0.00000000000E+00 -0.00000000000E+00 -0.45593999997E+02  0.45594000000E+02  0.51100000000E-03 0.  1.
         23    2    1    2    0    0 -0.88817841970E-15  0.00000000000E+00  0.00000000000E+00  0.91188000000E+02  0.91188000000E+02 0.  0.
    9900012    2    3    3    0    0 -0.79984747553E+01  0.29779701017E+02 -0.20123755808E+02  0.54367194211E+02  0.40000250843E+02 0.  0.
        -12    1    3    3    0    0  0.79984747553E+01 -0.29779701017E+02  0.20123755808E+02  0.36820805789E+02  0.00000000000E+00 0.  1.
         11    1    4    4    0    0  0.22402479627E+01  0.19122691504E+01 -0.13488432054E+01  0.32395775175E+01  0.51100000000E-03 0. -1.
        -11    1    4    4    0    0 -0.20464581914E+02  0.28288400171E+02 -0.71496531354E+01  0.35639167181E+02  0.51100000000E-03 0.  1.
        -12    1    4    4    0    0  0.10225859196E+02 -0.42096830373E+00 -0.11625259468E+02  0.15488449513E+02  0.00000000000E+00 0.  1.
</event>
<event>
 8    1  0.2458065E-006  0.9118800E+02  0.7816164E-02  0.1184000E+00
        -11   -1    0    0    0    0  0.00000000000E+00  0.00000000000E+00  0.45593999997E+02  0.45594000000E+02  0.51100000000E-03 0. -1.
         11   -1    0    0    0    0 -0.00000000000E+00 -0.00000000000E+00 -0.45593999997E+02  0.45594000000E+02  0.51100000000E-03 0.  1.
         23    2    1    2    0    0  0.17763568394E-14  0.88817841970E-15  0.00000000000E+00  0.91188000000E+02  0.91188000000E+02 0.  0.
    9900012    2    3    3    0    0 -0.85561902869E+01 -0.60712103300E+01  0.35294633880E+02  0.54367093333E+02  0.40000020871E+02 0.  0.
        -12    1    3    3    0    0  0.85561902869E+01  0.60712103300E+01 -0.35294633880E+02  0.36820906667E+02  0.00000000000E+00 0.  1.
         11    1    4    4    0    0 -0.58755292477E+01 -0.10152496747E+02  0.16125560161E+02  0.19940630002E+02  0.51100000000E-03 0. -1.
        -11    1    4    4    0    0  0.60527007812E+01 -0.69902602659E+01  0.18050143100E+02  0.20280695046E+02  0.51100000000E-03 0.  1.
        -12    1    4    4    0    0 -0.87333618205E+01  0.11071546683E+02  0.11189306189E+01  0.14145768285E+02  0.00000000000E+00 0.  1.
</event>
<event>
 8    1  0.2458065E-006  0.9118800E+02  0.7816164E-02  0.1184000E+00
        -11   -1    0    0    0    0  0.00000000000E+00  0.00000000000E+00  0.45593999997E+02  0.45594000000E+02  0.51100000000E-03 0. -1.
         11   -1    0    0    0    0 -0.00000000000E+00 -0.00000000000E+00 -0.45593999997E+02  0.45594000000E+02  0.51100000000E-03 0.  1.
         23    2    1    2    0    0  0.17763568394E-14  0.00000000000E+00  0.00000000000E+00  0.91188000000E+02  0.91188000000E+02 0.  0.
    9900012    2    3    3    0    0  0.15294567804E+02  0.12955023485E+02  0.30887267677E+02  0.54367085530E+02  0.40000003084E+02 0.  0.
        -12    1    3    3    0    0 -0.15294567804E+02 -0.12955023485E+02 -0.30887267677E+02  0.36820914470E+02  0.00000000000E+00 0.  1.
         11    1    4    4    0    0  0.18098120988E+02  0.12328786147E+02  0.25221506869E+02  0.33401577211E+02  0.51100000000E-03 0.  1.
        -11    1    4    4    0    0  0.78611132065E+01 -0.36726951218E+01  0.27666066144E+01  0.91071347153E+01  0.51100000000E-03 0. -1.
        -12    1    4    4    0    0 -0.10664666390E+02  0.42989324605E+01  0.28991541932E+01  0.11858373605E+02  0.00000000000E+00 0.  1.
</event>
<event>
 8    1  0.2458065E-006  0.9118800E+02  0.7816164E-02  0.1184000E+00
        -11   -1    0    0    0    0  0.00000000000E+00  0.00000000000E+00  0.45593999997E+02  0.45594000000E+02  0.51100000000E-03 0.  1.
         11   -1    0    0    0    0 -0.00000000000E+00 -0.00000000000E+00 -0.45593999997E+02  0.45594000000E+02  0.51100000000E-03 0. -1.
         23    2    1    2    0    0  0.00000000000E+00  0.00000000000E+00 -0.17763568394E-14  0.91188000000E+02  0.91188000000E+02 0.  0.
    9900012    2    3    3    0    0  0.64787700064E+01 -0.33540180905E+02 -0.13742691625E+02  0.54367085169E+02  0.40000002259E+02 0.  0.
        -12    1    3    3    0    0 -0.64787700064E+01  0.33540180905E+02  0.13742691625E+02  0.36820914831E+02  0.00000000000E+00 0.  1.
         11    1    4    4    0    0 -0.12184451454E+02 -0.15339995984E+02 -0.61021541553E+01  0.20518592048E+02  0.51100000000E-03 0. -1.
        -11    1    4    4    0    0 -0.28999464670E+01  0.10256497194E+01  0.16644731813E+01  0.34974445086E+01  0.51100000000E-03 0.  1.
         12    1    4    4    0    0  0.21563167927E+02 -0.19225834640E+02 -0.93050106510E+01  0.30351048612E+02  0.00000000000E+00 0. -1.
</event>
<event>
 8    1  0.2458065E-006  0.9118800E+02  0.7816164E-02  0.1184000E+00
        -11   -1    0    0    0    0  0.00000000000E+00  0.00000000000E+00  0.45593999997E+02  0.45594000000E+02  0.51100000000E-03 0.  1.
         11   -1    0    0    0    0 -0.00000000000E+00 -0.00000000000E+00 -0.45593999997E+02  0.45594000000E+02  0.51100000000E-03 0. -1.
         23    2    1    2    0    0  0.17763568394E-14  0.00000000000E+00  0.00000000000E+00  0.91188000000E+02  0.91188000000E+02 0.  0.
    9900012    2    3    3    0    0  0.15226286513E+02 -0.90582539264E+01  0.32278199965E+02  0.54367164076E+02  0.40000182145E+02 0.  0.
         12    1    3    3    0    0 -0.15226286513E+02  0.90582539264E+01 -0.32278199965E+02  0.36820835924E+02  0.00000000000E+00 0. -1.
         11    1    4    4    0    0  0.42646978315E+01 -0.10558461848E+02  0.15845846107E+01  0.11496941891E+02  0.51100000000E-03 0. -1.
        -11    1    4    4    0    0  0.74955971247E+01 -0.68176113952E+01 -0.75083009887E+00  0.10160095841E+02  0.51100000000E-03 0.  1.
        -12    1    4    4    0    0  0.34659915566E+01  0.83178193171E+01  0.31444445453E+02  0.32710126345E+02  0.00000000000E+00 0.  1.
</event>
<event>
 8    1  0.2458065E-006  0.9118800E+02  0.7816164E-02  0.1184000E+00
        -11   -1    0    0    0    0  0.00000000000E+00  0.00000000000E+00  0.45593999997E+02  0.45594000000E+02  0.51100000000E-03 0. -1.
         11   -1    0    0    0    0 -0.00000000000E+00 -0.00000000000E+00 -0.45593999997E+02  0.45594000000E+02  0.51100000000E-03 0.  1.
         23    2    1    2    0    0  0.00000000000E+00  0.00000000000E+00  0.35527136788E-14  0.91188000000E+02  0.91188000000E+02 0.  0.
    9900012    2    3    3    0    0  0.31935027593E+02  0.12651138336E+02  0.13262088556E+02  0.54367078210E+02  0.39999986396E+02 0.  0.
         12    1    3    3    0    0 -0.31935027593E+02 -0.12651138336E+02 -0.13262088556E+02  0.36820921790E+02  0.00000000000E+00 0. -1.
         11    1    4    4    0    0  0.15861856242E+02  0.73204257675E+01 -0.10671165123E+02  0.20470976581E+02  0.51100000000E-03 0. -1.
        -11    1    4    4    0    0  0.47668401771E+01 -0.61574883428E+01  0.63997872898E+01  0.10079419903E+02  0.51100000000E-03 0.  1.
         12    1    4    4    0    0  0.11306331174E+02  0.11488200912E+02  0.17533466389E+02  0.23816681726E+02  0.00000000000E+00 0. -1.
</event>
<event>
 8    1  0.2458065E-006  0.9118800E+02  0.7816164E-02  0.1184000E+00
        -11   -1    0    0    0    0  0.00000000000E+00  0.00000000000E+00  0.45593999997E+02  0.45594000000E+02  0.51100000000E-03 0. -1.
         11   -1    0    0    0    0 -0.00000000000E+00 -0.00000000000E+00 -0.45593999997E+02  0.45594000000E+02  0.51100000000E-03 0.  1.
         23    2    1    2    0    0  0.00000000000E+00 -0.35527136788E-14  0.00000000000E+00  0.91188000000E+02  0.91188000000E+02 0.  0.
    9900012    2    3    3    0    0  0.52988405906E+01  0.19092343103E+02 -0.31035204360E+02  0.54367093080E+02  0.40000020294E+02 0.  0.
         12    1    3    3    0    0 -0.52988405906E+01 -0.19092343103E+02  0.31035204360E+02  0.36820906920E+02  0.00000000000E+00 0. -1.
         11    1    4    4    0    0 -0.10972766662E+02  0.87868159043E+01 -0.15941195108E+02  0.21253974774E+02  0.51100000000E-03 0. -1.
        -11    1    4    4    0    0 -0.51423170086E+01  0.49849998909E+01 -0.19213698973E+01  0.74152080667E+01  0.51100000000E-03 0.  1.
        -12    1    4    4    0    0  0.21413924261E+02  0.53205273075E+01 -0.13172639354E+02  0.25697910239E+02  0.00000000000E+00 0.  1.
</event>
<event>
 8    1  0.2458065E-006  0.9118800E+02  0.7816164E-02  0.1184000E+00
        -11   -1    0    0    0    0  0.00000000000E+00  0.00000000000E+00  0.45593999997E+02  0.45594000000E+02  0.51100000000E-03 0.  1.
         11   -1    0    0    0    0 -0.00000000000E+00 -0.00000000000E+00 -0.45593999997E+02  0.45594000000E+02  0.51100000000E-03 0. -1.
         23    2    1    2    0    0  0.88817841970E-15  0.00000000000E+00  0.71054273576E-14  0.91188000000E+02  0.91188000000E+02 0.  0.
    9900012    2    3    3    0    0 -0.67896577242E+01 -0.12600115022E+02 -0.33925186899E+02  0.54367073115E+02  0.39999974780E+02 0.  0.
        -12    1    3    3    0    0  0.67896577242E+01  0.12600115022E+02  0.33925186899E+02  0.36820926885E+02  0.00000000000E+00 0.  1.
         11    1    4    4    0    0  0.25124055321E+00 -0.11972736123E+02 -0.23778910639E+02  0.26624164278E+02  0.51100000000E-03 0. -1.
        -11    1    4    4    0    0 -0.30915340687E+01 -0.12393678078E+02 -0.20828052367E+01  0.12942137270E+02  0.51100000000E-03 0.  1.
         12    1    4    4    0    0 -0.39493642088E+01  0.11766299179E+02 -0.80634710231E+01  0.14800771567E+02  0.00000000000E+00 0. -1.
</event>
<event>
 8    1  0.2458065E-006  0.9118800E+02  0.7816164E-02  0.1184000E+00
        -11   -1    0    0    0    0  0.00000000000E+00  0.00000000000E+00  0.45593999997E+02  0.45594000000E+02  0.51100000000E-03 0.  1.
         11   -1    0    0    0    0 -0.00000000000E+00 -0.00000000000E+00 -0.45593999997E+02  0.45594000000E+02  0.51100000000E-03 0. -1.
         23    2    1    2    0    0  0.00000000000E+00 -0.35527136788E-14  0.00000000000E+00  0.91188000000E+02  0.91188000000E+02 0.  0.
    9900012    2    3    3    0    0  0.20207212007E+02 -0.29911720003E+02  0.72616442993E+01  0.54367165021E+02  0.40000184299E+02 0.  0.
        -12    1    3    3    0    0 -0.20207212007E+02  0.29911720003E+02 -0.72616442993E+01  0.36820834979E+02  0.00000000000E+00 0.  1.
         11    1    4    4    0    0  0.17182133088E+02 -0.20315517606E+02  0.63393768380E+01  0.27352031954E+02  0.51100000000E-03 0. -1.
        -11    1    4    4    0    0  0.63634041673E+00  0.55516596739E+00  0.11867271818E+02  0.11897280321E+02  0.51100000000E-03 0.  1.
         12    1    4    4    0    0  0.23887385018E+01 -0.10151368364E+02 -0.10945004357E+02  0.15117852746E+02  0.00000000000E+00 0. -1.
</event>
<event>
 8    1  0.2458065E-006  0.9118800E+02  0.7816164E-02  0.1184000E+00
        -11   -1    0    0    0    0  0.00000000000E+00  0.00000000000E+00  0.45593999997E+02  0.45594000000E+02  0.51100000000E-03 0.  1.
         11   -1    0    0    0    0 -0.00000000000E+00 -0.00000000000E+00 -0.45593999997E+02  0.45594000000E+02  0.51100000000E-03 0. -1.
         23    2    1    2    0    0  0.17763568394E-14 -0.17763568394E-14  0.00000000000E+00  0.91188000000E+02  0.91188000000E+02 0.  0.
    9900012    2    3    3    0    0 -0.12175273048E+02  0.93789108882E+01 -0.33460106428E+02  0.54367082502E+02  0.39999996179E+02 0.  0.
        -12    1    3    3    0    0  0.12175273048E+02 -0.93789108882E+01  0.33460106428E+02  0.36820917498E+02  0.00000000000E+00 0.  1.
         11    1    4    4    0    0 -0.46357330281E+01  0.13878216090E+02 -0.21153117486E+01  0.14784094379E+02  0.51100000000E-03 0.  1.
        -11    1    4    4    0    0  0.51790370794E+01  0.57106156071E+01 -0.80494274546E+01  0.11145709412E+02  0.51100000000E-03 0. -1.
         12    1    4    4    0    0 -0.12718577100E+02 -0.10209920809E+02 -0.23295367225E+02  0.28437278711E+02  0.00000000000E+00 0. -1.
</event>
<event>
 8    1  0.2458065E-006  0.9118800E+02  0.7816164E-02  0.1184000E+00
        -11   -1    0    0    0    0  0.00000000000E+00  0.00000000000E+00  0.45593999997E+02  0.45594000000E+02  0.51100000000E-03 0.  1.
         11   -1    0    0    0    0 -0.00000000000E+00 -0.00000000000E+00 -0.45593999997E+02  0.45594000000E+02  0.51100000000E-03 0. -1.
         23    2    1    2    0    0  0.00000000000E+00 -0.17763568394E-14 -0.35527136788E-14  0.91188000000E+02  0.91188000000E+02 0.  0.
    9900012    2    3    3    0    0 -0.29554675250E+02 -0.11251352243E+02  0.18860229884E+02  0.54367081656E+02  0.39999994252E+02 0.  0.
         12    1    3    3    0    0  0.29554675250E+02  0.11251352243E+02 -0.18860229884E+02  0.36820918344E+02  0.00000000000E+00 0. -1.
         11    1    4    4    0    0 -0.23497640877E+02  0.66416723473E+01  0.71347651607E+01  0.25439257311E+02  0.51100000000E-03 0. -1.
        -11    1    4    4    0    0 -0.55822789966E+01  0.45094460953E+00  0.86752294926E+01  0.10325928377E+02  0.51100000000E-03 0.  1.
        -12    1    4    4    0    0 -0.47475537580E+00 -0.18343969199E+02  0.30502352306E+01  0.18601895968E+02  0.00000000000E+00 0.  1.
</event>
<event>
 8    1  0.2458065E-006  0.9118800E+02  0.7816164E-02  0.1184000E+00
        -11   -1    0    0    0    0  0.00000000000E+00  0.00000000000E+00  0.45593999997E+02  0.45594000000E+02  0.51100000000E-03 0. -1.
         11   -1    0    0    0    0 -0.00000000000E+00 -0.00000000000E+00 -0.45593999997E+02  0.45594000000E+02  0.51100000000E-03 0.  1.
         23    2    1    2    0    0  0.00000000000E+00  0.00000000000E+00  0.17763568394E-14  0.91188000000E+02  0.91188000000E+02 0.  0.
    9900012    2    3    3    0    0  0.32013001592E+02 -0.13980646489E+02  0.11639968565E+02  0.54367087255E+02  0.40000007015E+02 0.  0.
        -12    1    3    3    0    0 -0.32013001592E+02  0.13980646489E+02 -0.11639968565E+02  0.36820912745E+02  0.00000000000E+00 0.  1.
         11    1    4    4    0    0  0.82370820464E+01 -0.13699904367E+02 -0.86256717625E+01  0.18164226213E+02  0.51100000000E-03 0.  1.
        -11    1    4    4    0    0 -0.76212005549E+00 -0.28902858259E+00 -0.25619413552E+01  0.26884769423E+01  0.51100000000E-03 0. -1.
         12    1    4    4    0    0  0.24538039601E+02  0.82864597154E-02  0.22827581683E+02  0.33514384100E+02  0.00000000000E+00 0. -1.
</event>
<event>
 8    1  0.2458065E-006  0.9118800E+02  0.7816164E-02  0.1184000E+00
        -11   -1    0    0    0    0  0.00000000000E+00  0.00000000000E+00  0.45593999997E+02  0.45594000000E+02  0.51100000000E-03 0.  1.
         11   -1    0    0    0    0 -0.00000000000E+00 -0.00000000000E+00 -0.45593999997E+02  0.45594000000E+02  0.51100000000E-03 0. -1.
         23    2    1    2    0    0  0.00000000000E+00  0.00000000000E+00  0.00000000000E+00  0.91188000000E+02  0.91188000000E+02 0.  0.
    9900012    2    3    3    0    0  0.50658011785E+01 -0.35601393243E+02 -0.79156568520E+01  0.54367093360E+02  0.40000020932E+02 0.  0.
        -12    1    3    3    0    0 -0.50658011785E+01  0.35601393243E+02  0.79156568520E+01  0.36820906640E+02  0.00000000000E+00 0.  1.
         11    1    4    4    0    0  0.56140769153E+01  0.92747988012E+00  0.20661804316E+01  0.60536914669E+01  0.51100000000E-03 0. -1.
        -11    1    4    4    0    0 -0.14362535574E+02 -0.10643090003E+02 -0.48974804828E+01  0.18534915923E+02  0.51100000000E-03 0.  1.
         12    1    4    4    0    0  0.13814259837E+02 -0.25885783120E+02 -0.50843568008E+01  0.29778485970E+02  0.00000000000E+00 0. -1.
</event>
<event>
 8    1  0.2458065E-006  0.9118800E+02  0.7816164E-02  0.1184000E+00
        -11   -1    0    0    0    0  0.00000000000E+00  0.00000000000E+00  0.45593999997E+02  0.45594000000E+02  0.51100000000E-03 0.  1.
         11   -1    0    0    0    0 -0.00000000000E+00 -0.00000000000E+00 -0.45593999997E+02  0.45594000000E+02  0.51100000000E-03 0. -1.
         23    2    1    2    0    0  0.35527136788E-14  0.00000000000E+00  0.00000000000E+00  0.91188000000E+02  0.91188000000E+02 0.  0.
    9900012    2    3    3    0    0 -0.29320807541E+02 -0.22180531425E+02 -0.20233031972E+01  0.54367089026E+02  0.40000011053E+02 0.  0.
        -12    1    3    3    0    0  0.29320807541E+02  0.22180531425E+02  0.20233031972E+01  0.36820910974E+02  0.00000000000E+00 0.  1.
         11    1    4    4    0    0  0.56173258534E+01 -0.47101761308E+01  0.21056517088E+01  0.76271802330E+01  0.51100000000E-03 0. -1.
        -11    1    4    4    0    0 -0.32271979899E+01  0.25462396360E+01 -0.80466454254E+01  0.90358533639E+01  0.51100000000E-03 0.  1.
         12    1    4    4    0    0 -0.31710935404E+02 -0.20016594930E+02  0.39176905194E+01  0.37704055429E+02  0.00000000000E+00 0. -1.
</event>
<event>
 8    1  0.2458065E-006  0.9118800E+02  0.7816164E-02  0.1184000E+00
        -11   -1    0    0    0    0  0.00000000000E+00  0.00000000000E+00  0.45593999997E+02  0.45594000000E+02  0.51100000000E-03 0.  1.
         11   -1    0    0    0    0 -0.00000000000E+00 -0.00000000000E+00 -0.45593999997E+02  0.45594000000E+02  0.51100000000E-03 0. -1.
         23    2    1    2    0    0 -0.17763568394E-14  0.00000000000E+00  0.00000000000E+00  0.91188000000E+02  0.91188000000E+02 0.  0.
    9900012    2    3    3    0    0 -0.93509401941E+01  0.67015535361E+01 -0.34977546847E+02  0.54367086299E+02  0.40000004836E+02 0.  0.
        -12    1    3    3    0    0  0.93509401941E+01 -0.67015535361E+01  0.34977546847E+02  0.36820913701E+02  0.00000000000E+00 0.  1.
         11    1    4    4    0    0  0.63284330679E+01  0.79969229353E+01 -0.24175901193E+02  0.26238788850E+02  0.51100000000E-03 0. -1.
        -11    1    4    4    0    0  0.21511115237E+01 -0.69064908922E+01 -0.37677453360E+01  0.81561512007E+01  0.51100000000E-03 0.  1.
        -12    1    4    4    0    0 -0.17830484786E+02  0.56111214930E+01 -0.70339003180E+01  0.19972146249E+02  0.00000000000E+00 0.  1.
</event>
<event>
 8    1  0.2458065E-006  0.9118800E+02  0.7816164E-02  0.1184000E+00
        -11   -1    0    0    0    0  0.00000000000E+00  0.00000000000E+00  0.45593999997E+02  0.45594000000E+02  0.51100000000E-03 0. -1.
         11   -1    0    0    0    0 -0.00000000000E+00 -0.00000000000E+00 -0.45593999997E+02  0.45594000000E+02  0.51100000000E-03 0.  1.
         23    2    1    2    0    0 -0.17763568394E-14  0.17763568394E-14  0.71054273576E-14  0.91188000000E+02  0.91188000000E+02 0.  0.
    9900012    2    3    3    0    0  0.26777168943E+01 -0.15131456695E+02 -0.33461149927E+02  0.54367086052E+02  0.40000004274E+02 0.  0.
         12    1    3    3    0    0 -0.26777168943E+01  0.15131456695E+02  0.33461149927E+02  0.36820913948E+02  0.00000000000E+00 0. -1.
         11    1    4    4    0    0  0.74051136092E+01  0.29364822527E-01 -0.55711644706E+00  0.74260991681E+01  0.51100000000E-03 0. -1.
        -11    1    4    4    0    0  0.85332266639E+01  0.58143526835E+00 -0.22094347949E+02  0.23692071159E+02  0.51100000000E-03 0.  1.
         12    1    4    4    0    0 -0.13260623379E+02 -0.15742256786E+02 -0.10809685532E+02  0.23248915725E+02  0.00000000000E+00 0. -1.
</event>
<event>
 8    1  0.2458065E-006  0.9118800E+02  0.7816164E-02  0.1184000E+00
        -11   -1    0    0    0    0  0.00000000000E+00  0.00000000000E+00  0.45593999997E+02  0.45594000000E+02  0.51100000000E-03 0. -1.
         11   -1    0    0    0    0 -0.00000000000E+00 -0.00000000000E+00 -0.45593999997E+02  0.45594000000E+02  0.51100000000E-03 0.  1.
         23    2    1    2    0    0  0.00000000000E+00  0.35527136788E-14  0.17763568394E-14  0.91188000000E+02  0.91188000000E+02 0.  0.
    9900012    2    3    3    0    0 -0.29460549762E+02  0.15245902165E+02  0.15981960159E+02  0.54367019898E+02  0.39999853462E+02 0.  0.
        -12    1    3    3    0    0  0.29460549762E+02 -0.15245902165E+02 -0.15981960159E+02  0.36820980102E+02  0.00000000000E+00 0.  1.
         11    1    4    4    0    0  0.39700988755E+01  0.82733766266E+00  0.58081616822E+01  0.70838488886E+01  0.51100000000E-03 0. -1.
        -11    1    4    4    0    0 -0.37641521664E+01  0.22502791600E+01  0.14296636977E+02  0.14954144140E+02  0.51100000000E-03 0.  1.
        -12    1    4    4    0    0 -0.29666496471E+02  0.12168285343E+02 -0.41228385001E+01  0.32329026870E+02  0.00000000000E+00 0.  1.
</event>
<event>
 8    1  0.2458065E-006  0.9118800E+02  0.7816164E-02  0.1184000E+00
        -11   -1    0    0    0    0  0.00000000000E+00  0.00000000000E+00  0.45593999997E+02  0.45594000000E+02  0.51100000000E-03 0. -1.
         11   -1    0    0    0    0 -0.00000000000E+00 -0.00000000000E+00 -0.45593999997E+02  0.45594000000E+02  0.51100000000E-03 0.  1.
         23    2    1    2    0    0  0.00000000000E+00  0.17763568394E-14  0.00000000000E+00  0.91188000000E+02  0.91188000000E+02 0.  0.
    9900012    2    3    3    0    0  0.16119006027E+02  0.91815877568E+01  0.31806543556E+02  0.54367080375E+02  0.39999991331E+02 0.  0.
        -12    1    3    3    0    0 -0.16119006027E+02 -0.91815877568E+01 -0.31806543556E+02  0.36820919625E+02  0.00000000000E+00 0.  1.
         11    1    4    4    0    0  0.32235098813E+01 -0.35132201221E+01 -0.51373662823E+01  0.70090130661E+01  0.51100000000E-03 0. -1.
        -11    1    4    4    0    0 -0.65147984331E+01  0.44058574140E+01  0.59574537817E+01  0.98663789710E+01  0.51100000000E-03 0.  1.
         12    1    4    4    0    0  0.19410294579E+02  0.82889504648E+01  0.30986456057E+02  0.37491688338E+02  0.00000000000E+00 0. -1.
</event>
<event>
 8    1  0.2458065E-006  0.9118800E+02  0.7816164E-02  0.1184000E+00
        -11   -1    0    0    0    0  0.00000000000E+00  0.00000000000E+00  0.45593999997E+02  0.45594000000E+02  0.51100000000E-03 0.  1.
         11   -1    0    0    0    0 -0.00000000000E+00 -0.00000000000E+00 -0.45593999997E+02  0.45594000000E+02  0.51100000000E-03 0. -1.
         23    2    1    2    0    0  0.00000000000E+00  0.35527136788E-14  0.10658141036E-13  0.91188000000E+02  0.91188000000E+02 0.  0.
    9900012    2    3    3    0    0  0.47577453790E+01 -0.24562693105E+02 -0.27015138004E+02  0.54367085902E+02  0.40000003931E+02 0.  0.
        -12    1    3    3    0    0 -0.47577453790E+01  0.24562693105E+02  0.27015138004E+02  0.36820914098E+02  0.00000000000E+00 0.  1.
         11    1    4    4    0    0  0.49705588080E+01 -0.11200251783E+02  0.10722448266E+00  0.12254125518E+02  0.51100000000E-03 0. -1.
        -11    1    4    4    0    0 -0.81594780347E+01  0.10640242754E+01  0.21680431193E+01  0.85093854470E+01  0.51100000000E-03 0.  1.
         12    1    4    4    0    0  0.79466646058E+01 -0.14426465598E+02 -0.29290405606E+02  0.33603574937E+02  0.00000000000E+00 0. -1.
</event>
<event>
 8    1  0.2458065E-006  0.9118800E+02  0.7816164E-02  0.1184000E+00
        -11   -1    0    0    0    0  0.00000000000E+00  0.00000000000E+00  0.45593999997E+02  0.45594000000E+02  0.51100000000E-03 0.  1.
         11   -1    0    0    0    0 -0.00000000000E+00 -0.00000000000E+00 -0.45593999997E+02  0.45594000000E+02  0.51100000000E-03 0. -1.
         23    2    1    2    0    0 -0.35527136788E-14  0.17763568394E-14  0.00000000000E+00  0.91188000000E+02  0.91188000000E+02 0.  0.
    9900012    2    3    3    0    0 -0.21100768694E+02  0.59006619284E+01  0.29592575949E+02  0.54367071141E+02  0.39999970281E+02 0.  0.
         12    1    3    3    0    0  0.21100768694E+02 -0.59006619284E+01 -0.29592575949E+02  0.36820928859E+02  0.00000000000E+00 0. -1.
         11    1    4    4    0    0 -0.12014786676E+02  0.79686860114E+01 -0.56099084724E+00  0.14428089500E+02  0.51100000000E-03 0. -1.
        -11    1    4    4    0    0 -0.29959150356E+01 -0.13158846727E+02  0.16676749913E+02  0.21453315408E+02  0.51100000000E-03 0.  1.
         12    1    4    4    0    0 -0.60900669826E+01  0.11090822644E+02  0.13476816884E+02  0.18485666233E+02  0.00000000000E+00 0. -1.
</event>
<event>
 8    1  0.2458065E-006  0.9118800E+02  0.7816164E-02  0.1184000E+00
        -11   -1    0    0    0    0  0.00000000000E+00  0.00000000000E+00  0.45593999997E+02  0.45594000000E+02  0.51100000000E-03 0.  1.
         11   -1    0    0    0    0 -0.00000000000E+00 -0.00000000000E+00 -0.45593999997E+02  0.45594000000E+02  0.51100000000E-03 0. -1.
         23    2    1    2    0    0  0.00000000000E+00  0.00000000000E+00  0.00000000000E+00  0.91188000000E+02  0.91188000000E+02 0.  0.
    9900012    2    3    3    0    0  0.30274921135E+02 -0.19933786061E+01 -0.20862293688E+02  0.54367086025E+02  0.40000004212E+02 0.  0.
        -12    1    3    3    0    0 -0.30274921135E+02  0.19933786061E+01  0.20862293688E+02  0.36820913975E+02  0.00000000000E+00 0.  1.
         11    1    4    4    0    0  0.20798159306E+02  0.11857797063E+02 -0.12660467061E+02  0.27082433572E+02  0.51100000000E-03 0. -1.
        -11    1    4    4    0    0  0.12278752193E+02 -0.16859813236E+02 -0.95751117438E+01  0.22950028822E+02  0.51100000000E-03 0.  1.
         12    1    4    4    0    0 -0.28019903637E+01  0.30086375675E+01  0.13732851174E+01  0.43346236312E+01  0.00000000000E+00 0. -1.
</event>
<event>
 8    1  0.2458065E-006  0.9118800E+02  0.7816164E-02  0.1184000E+00
        -11   -1    0    0    0    0  0.00000000000E+00  0.00000000000E+00  0.45593999997E+02  0.45594000000E+02  0.51100000000E-03 0.  1.
         11   -1    0    0    0    0 -0.00000000000E+00 -0.00000000000E+00 -0.45593999997E+02  0.45594000000E+02  0.51100000000E-03 0. -1.
         23    2    1    2    0    0  0.00000000000E+00  0.71054273576E-14 -0.26645352591E-14  0.91188000000E+02  0.91188000000E+02 0.  0.
    9900012    2    3    3    0    0  0.11532914580E+02 -0.34615003349E+02  0.49574575231E+01  0.54367041829E+02  0.39999903457E+02 0.  0.
         12    1    3    3    0    0 -0.11532914580E+02  0.34615003349E+02 -0.49574575231E+01  0.36820958171E+02  0.00000000000E+00 0. -1.
         11    1    4    4    0    0 -0.29260195171E+01 -0.57187286518E+00  0.12758933117E+02  0.13102633450E+02  0.51100000000E-03 0. -1.
        -11    1    4    4    0    0 -0.53730872064E+00 -0.15412047683E+02 -0.79442546391E+01  0.17347365693E+02  0.51100000000E-03 0.  1.
        -12    1    4    4    0    0  0.14996242818E+02 -0.18631082800E+02  0.14277904546E+00  0.23917042685E+02  0.00000000000E+00 0.  1.
</event>
<event>
 8    1  0.2458065E-006  0.9118800E+02  0.7816164E-02  0.1184000E+00
        -11   -1    0    0    0    0  0.00000000000E+00  0.00000000000E+00  0.45593999997E+02  0.45594000000E+02  0.51100000000E-03 0.  1.
         11   -1    0    0    0    0 -0.00000000000E+00 -0.00000000000E+00 -0.45593999997E+02  0.45594000000E+02  0.51100000000E-03 0. -1.
         23    2    1    2    0    0  0.00000000000E+00  0.35527136788E-14  0.00000000000E+00  0.91188000000E+02  0.91188000000E+02 0.  0.
    9900012    2    3    3    0    0 -0.27369943219E+01 -0.27865478298E+02  0.23912376160E+02  0.54367112554E+02  0.40000064690E+02 0.  0.
         12    1    3    3    0    0  0.27369943219E+01  0.27865478298E+02 -0.23912376160E+02  0.36820887446E+02  0.00000000000E+00 0. -1.
         11    1    4    4    0    0 -0.29530130868E+01 -0.14593423870E+02  0.28790250424E+02  0.32412448632E+02  0.51100000000E-03 0. -1.
        -11    1    4    4    0    0 -0.55056858452E+01 -0.74010902295E+01  0.38364226939E+01  0.99903379601E+01  0.51100000000E-03 0.  1.
         12    1    4    4    0    0  0.57217046101E+01 -0.58709641979E+01 -0.87142969584E+01  0.11964325962E+02  0.00000000000E+00 0. -1.
</event>
<event>
 8    1  0.2458065E-006  0.9118800E+02  0.7816164E-02  0.1184000E+00
        -11   -1    0    0    0    0  0.00000000000E+00  0.00000000000E+00  0.45593999997E+02  0.45594000000E+02  0.51100000000E-03 0.  1.
         11   -1    0    0    0    0 -0.00000000000E+00 -0.00000000000E+00 -0.45593999997E+02  0.45594000000E+02  0.51100000000E-03 0. -1.
         23    2    1    2    0    0  0.00000000000E+00  0.35527136788E-14  0.00000000000E+00  0.91188000000E+02  0.91188000000E+02 0.  0.
    9900012    2    3    3    0    0  0.10398372283E+02 -0.29621343538E+02 -0.19241358007E+02  0.54367082072E+02  0.39999995199E+02 0.  0.
        -12    1    3    3    0    0 -0.10398372283E+02  0.29621343538E+02  0.19241358007E+02  0.36820917928E+02  0.00000000000E+00 0.  1.
         11    1    4    4    0    0 -0.35198871259E+01  0.18240356178E+00 -0.29854508019E+01  0.46190684331E+01  0.51100000000E-03 0. -1.
        -11    1    4    4    0    0 -0.11175400113E+02 -0.95997053193E+01 -0.38653614795E+01  0.15231051492E+02  0.51100000000E-03 0.  1.
         12    1    4    4    0    0  0.25093659522E+02 -0.20204041781E+02 -0.12390545725E+02  0.34516962147E+02  0.00000000000E+00 0. -1.
</event>
<event>
 8    1  0.2458065E-006  0.9118800E+02  0.7816164E-02  0.1184000E+00
        -11   -1    0    0    0    0  0.00000000000E+00  0.00000000000E+00  0.45593999997E+02  0.45594000000E+02  0.51100000000E-03 0. -1.
         11   -1    0    0    0    0 -0.00000000000E+00 -0.00000000000E+00 -0.45593999997E+02  0.45594000000E+02  0.51100000000E-03 0.  1.
         23    2    1    2    0    0  0.00000000000E+00  0.00000000000E+00  0.00000000000E+00  0.91188000000E+02  0.91188000000E+02 0.  0.
    9900012    2    3    3    0    0 -0.26522167877E+02  0.11232683297E+02  0.22938541040E+02  0.54367146832E+02  0.40000142833E+02 0.  0.
        -12    1    3    3    0    0  0.26522167877E+02 -0.11232683297E+02 -0.22938541040E+02  0.36820853168E+02  0.00000000000E+00 0.  1.
         11    1    4    4    0    0 -0.12557356002E+02  0.13986436030E+02  0.12839251174E+02  0.22762995267E+02  0.51100000000E-03 0. -1.
        -11    1    4    4    0    0 -0.17535706260E+02 -0.11179258824E+02  0.70240675224E+01  0.21950269855E+02  0.51100000000E-03 0.  1.
        -12    1    4    4    0    0  0.35708943841E+01  0.84255060914E+01  0.30752223439E+01  0.96538817096E+01  0.00000000000E+00 0.  1.
</event>
<event>
 8    1  0.2458065E-006  0.9118800E+02  0.7816164E-02  0.1184000E+00
        -11   -1    0    0    0    0  0.00000000000E+00  0.00000000000E+00  0.45593999997E+02  0.45594000000E+02  0.51100000000E-03 0. -1.
         11   -1    0    0    0    0 -0.00000000000E+00 -0.00000000000E+00 -0.45593999997E+02  0.45594000000E+02  0.51100000000E-03 0.  1.
         23    2    1    2    0    0 -0.17763568394E-14  0.88817841970E-15  0.00000000000E+00  0.91188000000E+02  0.91188000000E+02 0.  0.
    9900012    2    3    3    0    0 -0.12622896560E+02  0.45073919189E+01 -0.34294667497E+02  0.54367104870E+02  0.40000047172E+02 0.  0.
         12    1    3    3    0    0  0.12622896560E+02 -0.45073919189E+01  0.34294667497E+02  0.36820895130E+02  0.00000000000E+00 0. -1.
         11    1    4    4    0    0  0.92733216229E+01  0.12476557406E+02 -0.10095859596E+02  0.18536055672E+02  0.51100000000E-03 0. -1.
        -11    1    4    4    0    0 -0.28706120204E+01 -0.75212752176E+00 -0.11428094837E+02  0.11807093674E+02  0.51100000000E-03 0.  1.
         12    1    4    4    0    0 -0.19025606162E+02 -0.72170379656E+01 -0.12770713064E+02  0.24023955523E+02  0.00000000000E+00 0. -1.
</event>
<event>
 8    1  0.2458065E-006  0.9118800E+02  0.7816164E-02  0.1184000E+00
        -11   -1    0    0    0    0  0.00000000000E+00  0.00000000000E+00  0.45593999997E+02  0.45594000000E+02  0.51100000000E-03 0.  1.
         11   -1    0    0    0    0 -0.00000000000E+00 -0.00000000000E+00 -0.45593999997E+02  0.45594000000E+02  0.51100000000E-03 0. -1.
         23    2    1    2    0    0  0.00000000000E+00  0.35527136788E-14  0.00000000000E+00  0.91188000000E+02  0.91188000000E+02 0.  0.
    9900012    2    3    3    0    0  0.16030849378E+02 -0.22738388512E+02  0.24119627927E+02  0.54367097034E+02  0.40000029308E+02 0.  0.
         12    1    3    3    0    0 -0.16030849378E+02  0.22738388512E+02 -0.24119627927E+02  0.36820902966E+02  0.00000000000E+00 0. -1.
         11    1    4    4    0    0  0.84479374243E+01 -0.28128626109E+01 -0.91293029695E+01  0.12752412155E+02  0.51100000000E-03 0. -1.
        -11    1    4    4    0    0  0.87726554516E+01 -0.19444598117E+02  0.23327104509E+02  0.31610214878E+02  0.51100000000E-03 0.  1.
         12    1    4    4    0    0 -0.11897434977E+01 -0.48092778359E+00  0.99218263880E+01  0.10004470001E+02  0.00000000000E+00 0. -1.
</event>
<event>
 8    1  0.2458065E-006  0.9118800E+02  0.7816164E-02  0.1184000E+00
        -11   -1    0    0    0    0  0.00000000000E+00  0.00000000000E+00  0.45593999997E+02  0.45594000000E+02  0.51100000000E-03 0.  1.
         11   -1    0    0    0    0 -0.00000000000E+00 -0.00000000000E+00 -0.45593999997E+02  0.45594000000E+02  0.51100000000E-03 0. -1.
         23    2    1    2    0    0  0.35527136788E-14  0.00000000000E+00 -0.35527136788E-14  0.91188000000E+02  0.91188000000E+02 0.  0.
    9900012    2    3    3    0    0 -0.12123511318E+02 -0.28919865285E+02 -0.19298735533E+02  0.54367091158E+02  0.40000015914E+02 0.  0.
         12    1    3    3    0    0  0.12123511318E+02  0.28919865285E+02  0.19298735533E+02  0.36820908842E+02  0.00000000000E+00 0. -1.
         11    1    4    4    0    0  0.93649822890E+01 -0.15558715545E+02 -0.18864370908E+02  0.26184747711E+02  0.51100000000E-03 0. -1.
        -11    1    4    4    0    0 -0.21300961549E+02 -0.79066387100E+01 -0.30655105407E+00  0.22723113176E+02  0.51100000000E-03 0.  1.
         12    1    4    4    0    0 -0.18753205812E+00 -0.54545110297E+01 -0.12781357069E+00  0.54592302712E+01  0.00000000000E+00 0. -1.
</event>
<event>
 8    1  0.2458065E-006  0.9118800E+02  0.7816164E-02  0.1184000E+00
        -11   -1    0    0    0    0  0.00000000000E+00  0.00000000000E+00  0.45593999997E+02  0.45594000000E+02  0.51100000000E-03 0. -1.
         11   -1    0    0    0    0 -0.00000000000E+00 -0.00000000000E+00 -0.45593999997E+02  0.45594000000E+02  0.51100000000E-03 0.  1.
         23    2    1    2    0    0  0.00000000000E+00 -0.17763568394E-14  0.17763568394E-14  0.91188000000E+02  0.91188000000E+02 0.  0.
    9900012    2    3    3    0    0 -0.34387351122E+02  0.10286000309E+02 -0.82150587141E+01  0.54367096844E+02  0.40000028875E+02 0.  0.
         12    1    3    3    0    0  0.34387351122E+02 -0.10286000309E+02  0.82150587141E+01  0.36820903156E+02  0.00000000000E+00 0. -1.
         11    1    4    4    0    0 -0.28818575899E+02  0.98204319734E+01  0.51614930414E+01  0.30880288400E+02  0.51100000000E-03 0. -1.
        -11    1    4    4    0    0 -0.90352970390E+01  0.57150663384E+01 -0.13467806472E+02  0.17195359469E+02  0.51100000000E-03 0.  1.
         12    1    4    4    0    0  0.34665218160E+01 -0.52494980025E+01  0.91254716409E-01  0.62914489748E+01  0.00000000000E+00 0. -1.
</event>
<event>
 8    1  0.2458065E-006  0.9118800E+02  0.7816164E-02  0.1184000E+00
        -11   -1    0    0    0    0  0.00000000000E+00  0.00000000000E+00  0.45593999997E+02  0.45594000000E+02  0.51100000000E-03 0. -1.
         11   -1    0    0    0    0 -0.00000000000E+00 -0.00000000000E+00 -0.45593999997E+02  0.45594000000E+02  0.51100000000E-03 0.  1.
         23    2    1    2    0    0  0.00000000000E+00 -0.35527136788E-14  0.00000000000E+00  0.91188000000E+02  0.91188000000E+02 0.  0.
    9900012    2    3    3    0    0  0.18476014942E+02  0.23985101328E+02  0.20955426723E+02  0.54367107520E+02  0.40000053213E+02 0.  0.
        -12    1    3    3    0    0 -0.18476014942E+02 -0.23985101328E+02 -0.20955426723E+02  0.36820892480E+02  0.00000000000E+00 0.  1.
         11    1    4    4    0    0 -0.21629185676E+01 -0.25229249051E+01 -0.34176068994E+01  0.47669071720E+01  0.51100000000E-03 0.  1.
        -11    1    4    4    0    0  0.23266493190E+02  0.19465176357E+02  0.76792744941E+01  0.31292076521E+02  0.51100000000E-03 0. -1.
        -12    1    4    4    0    0 -0.26275596796E+01  0.70428498765E+01  0.16693759128E+02  0.18308123827E+02  0.00000000000E+00 0.  1.
</event>
<event>
 8    1  0.2458065E-006  0.9118800E+02  0.7816164E-02  0.1184000E+00
        -11   -1    0    0    0    0  0.00000000000E+00  0.00000000000E+00  0.45593999997E+02  0.45594000000E+02  0.51100000000E-03 0.  1.
         11   -1    0    0    0    0 -0.00000000000E+00 -0.00000000000E+00 -0.45593999997E+02  0.45594000000E+02  0.51100000000E-03 0. -1.
         23    2    1    2    0    0 -0.71054273576E-14  0.11102230246E-14  0.00000000000E+00  0.91188000000E+02  0.91188000000E+02 0.  0.
    9900012    2    3    3    0    0  0.34762601787E+02 -0.12104922627E+01 -0.12077994700E+02  0.54367058533E+02  0.39999941538E+02 0.  0.
         12    1    3    3    0    0 -0.34762601787E+02  0.12104922627E+01  0.12077994700E+02  0.36820941467E+02  0.00000000000E+00 0. -1.
         11    1    4    4    0    0  0.50345971383E+01 -0.78838450610E+01 -0.13803724245E+02  0.16674680944E+02  0.51100000000E-03 0. -1.
        -11    1    4    4    0    0  0.15440590635E+01  0.39894452395E+01 -0.68803514086E+01  0.81017916215E+01  0.51100000000E-03 0.  1.
        -12    1    4    4    0    0  0.28183945585E+02  0.26839075587E+01  0.86060809537E+01  0.29590585968E+02  0.00000000000E+00 0.  1.
</event>
<event>
 8    1  0.2458065E-006  0.9118800E+02  0.7816164E-02  0.1184000E+00
        -11   -1    0    0    0    0  0.00000000000E+00  0.00000000000E+00  0.45593999997E+02  0.45594000000E+02  0.51100000000E-03 0.  1.
         11   -1    0    0    0    0 -0.00000000000E+00 -0.00000000000E+00 -0.45593999997E+02  0.45594000000E+02  0.51100000000E-03 0. -1.
         23    2    1    2    0    0 -0.17763568394E-14 -0.26645352591E-14  0.00000000000E+00  0.91188000000E+02  0.91188000000E+02 0.  0.
    9900012    2    3    3    0    0 -0.57098660531E+01 -0.61259185183E+01  0.35855986506E+02  0.54367065515E+02  0.39999957454E+02 0.  0.
         12    1    3    3    0    0  0.57098660531E+01  0.61259185183E+01 -0.35855986506E+02  0.36820934485E+02  0.00000000000E+00 0. -1.
         11    1    4    4    0    0  0.15844929549E+01 -0.31425083019E+01 -0.20958859210E+01  0.40961829069E+01  0.51100000000E-03 0. -1.
        -11    1    4    4    0    0 -0.12198118522E+02 -0.13417481401E+02  0.33142654537E+02  0.37779074269E+02  0.51100000000E-03 0.  1.
        -12    1    4    4    0    0  0.49037595138E+01  0.10434071185E+02  0.48092178904E+01  0.12491808339E+02  0.00000000000E+00 0.  1.
</event>
<event>
 8    1  0.2458065E-006  0.9118800E+02  0.7816164E-02  0.1184000E+00
        -11   -1    0    0    0    0  0.00000000000E+00  0.00000000000E+00  0.45593999997E+02  0.45594000000E+02  0.51100000000E-03 0.  1.
         11   -1    0    0    0    0 -0.00000000000E+00 -0.00000000000E+00 -0.45593999997E+02  0.45594000000E+02  0.51100000000E-03 0. -1.
         23    2    1    2    0    0  0.22204460493E-15 -0.17763568394E-14  0.00000000000E+00  0.91188000000E+02  0.91188000000E+02 0.  0.
    9900012    2    3    3    0    0 -0.10456972809E+01  0.95965368010E+01  0.35532950541E+02  0.54367114955E+02  0.40000070163E+02 0.  0.
         12    1    3    3    0    0  0.10456972809E+01 -0.95965368010E+01 -0.35532950541E+02  0.36820885045E+02  0.00000000000E+00 0. -1.
         11    1    4    4    0    0 -0.41345158639E+01  0.10641037633E+02  0.16652939263E+02  0.20190252344E+02  0.51100000000E-03 0. -1.
        -11    1    4    4    0    0 -0.75319224675E+01 -0.10113245970E+02  0.15170356168E+02  0.19726816941E+02  0.51100000000E-03 0.  1.
         12    1    4    4    0    0  0.10620741051E+02  0.90687451380E+01  0.37096551088E+01  0.14450045670E+02  0.00000000000E+00 0. -1.
</event>
<event>
 8    1  0.2458065E-006  0.9118800E+02  0.7816164E-02  0.1184000E+00
        -11   -1    0    0    0    0  0.00000000000E+00  0.00000000000E+00  0.45593999997E+02  0.45594000000E+02  0.51100000000E-03 0.  1.
         11   -1    0    0    0    0 -0.00000000000E+00 -0.00000000000E+00 -0.45593999997E+02  0.45594000000E+02  0.51100000000E-03 0. -1.
         23    2    1    2    0    0  0.88817841970E-15  0.00000000000E+00  0.00000000000E+00  0.91188000000E+02  0.91188000000E+02 0.  0.
    9900012    2    3    3    0    0 -0.35729175819E+01  0.22806764020E+02  0.28685626254E+02  0.54367090469E+02  0.40000014343E+02 0.  0.
         12    1    3    3    0    0  0.35729175819E+01 -0.22806764020E+02 -0.28685626254E+02  0.36820909531E+02  0.00000000000E+00 0. -1.
         11    1    4    4    0    0 -0.11782704212E+02  0.14196141172E+01 -0.46511989748E+01  0.12746806461E+02  0.51100000000E-03 0. -1.
        -11    1    4    4    0    0  0.89587077068E+01  0.15262740432E+02  0.18755014794E+02  0.25786823563E+02  0.51100000000E-03 0.  1.
         12    1    4    4    0    0 -0.74892107701E+00  0.61244094703E+01  0.14581810434E+02  0.15833460446E+02  0.00000000000E+00 0. -1.
</event>
<event>
 8    1  0.2458065E-006  0.9118800E+02  0.7816164E-02  0.1184000E+00
        -11   -1    0    0    0    0  0.00000000000E+00  0.00000000000E+00  0.45593999997E+02  0.45594000000E+02  0.51100000000E-03 0. -1.
         11   -1    0    0    0    0 -0.00000000000E+00 -0.00000000000E+00 -0.45593999997E+02  0.45594000000E+02  0.51100000000E-03 0.  1.
         23    2    1    2    0    0  0.00000000000E+00  0.00000000000E+00  0.00000000000E+00  0.91188000000E+02  0.91188000000E+02 0.  0.
    9900012    2    3    3    0    0 -0.58088765956E+01 -0.53984590626E+01 -0.35956826953E+02  0.54367084583E+02  0.40000000925E+02 0.  0.
         12    1    3    3    0    0  0.58088765956E+01  0.53984590626E+01  0.35956826953E+02  0.36820915417E+02  0.00000000000E+00 0. -1.
         11    1    4    4    0    0 -0.66912382746E+01 -0.31798691444E+01 -0.63007953247E+01  0.97254439182E+01  0.51100000000E-03 0. -1.
        -11    1    4    4    0    0  0.14764347109E+02 -0.47973621452E+01 -0.51447233601E+01  0.16354473633E+02  0.51100000000E-03 0.  1.
        -12    1    4    4    0    0 -0.13881985430E+02  0.25787722270E+01 -0.24511308269E+02  0.28287167032E+02  0.00000000000E+00 0.  1.
</event>
<event>
 8    1  0.2458065E-006  0.9118800E+02  0.7816164E-02  0.1184000E+00
        -11   -1    0    0    0    0  0.00000000000E+00  0.00000000000E+00  0.45593999997E+02  0.45594000000E+02  0.51100000000E-03 0.  1.
         11   -1    0    0    0    0 -0.00000000000E+00 -0.00000000000E+00 -0.45593999997E+02  0.45594000000E+02  0.51100000000E-03 0. -1.
         23    2    1    2    0    0  0.00000000000E+00 -0.17763568394E-14 -0.35527136788E-14  0.91188000000E+02  0.91188000000E+02 0.  0.
    9900012    2    3    3    0    0 -0.32567458572E+02 -0.10442364011E+02 -0.13641735198E+02  0.54367092037E+02  0.40000017918E+02 0.  0.
        -12    1    3    3    0    0  0.32567458572E+02  0.10442364011E+02  0.13641735198E+02  0.36820907963E+02  0.00000000000E+00 0.  1.
         11    1    4    4    0    0 -0.32513045029E+02 -0.19449822476E+02 -0.15964752139E+02  0.41112856900E+02  0.51100000000E-03 0.  1.
        -11    1    4    4    0    0  0.18200641266E+01  0.45149213808E+00 -0.26007206111E+01  0.32062792352E+01  0.51100000000E-03 0. -1.
        -12    1    4    4    0    0 -0.18744776699E+01  0.85559663276E+01  0.49237375514E+01  0.10047955902E+02  0.00000000000E+00 0.  1.
</event>
<event>
 8    1  0.2458065E-006  0.9118800E+02  0.7816164E-02  0.1184000E+00
        -11   -1    0    0    0    0  0.00000000000E+00  0.00000000000E+00  0.45593999997E+02  0.45594000000E+02  0.51100000000E-03 0.  1.
         11   -1    0    0    0    0 -0.00000000000E+00 -0.00000000000E+00 -0.45593999997E+02  0.45594000000E+02  0.51100000000E-03 0. -1.
         23    2    1    2    0    0  0.00000000000E+00 -0.17763568394E-14 -0.35527136788E-14  0.91188000000E+02  0.91188000000E+02 0.  0.
    9900012    2    3    3    0    0  0.15569690673E+02  0.14777145430E+02  0.29916577331E+02  0.54367069894E+02  0.39999967437E+02 0.  0.
         12    1    3    3    0    0 -0.15569690673E+02 -0.14777145430E+02 -0.29916577331E+02  0.36820930106E+02  0.00000000000E+00 0. -1.
         11    1    4    4    0    0  0.12161539656E+02  0.18043244287E+02  0.25302824369E+02  0.33372063654E+02  0.51100000000E-03 0.  1.
        -11    1    4    4    0    0 -0.82090709988E+01 -0.20992268838E+01  0.38137674970E+01  0.92919547435E+01  0.51100000000E-03 0. -1.
         12    1    4    4    0    0  0.11617222016E+02 -0.11668719738E+01  0.79998546434E+00  0.11703051496E+02  0.00000000000E+00 0. -1.
</event>
<event>
 8    1  0.2458065E-006  0.9118800E+02  0.7816164E-02  0.1184000E+00
        -11   -1    0    0    0    0  0.00000000000E+00  0.00000000000E+00  0.45593999997E+02  0.45594000000E+02  0.51100000000E-03 0.  1.
         11   -1    0    0    0    0 -0.00000000000E+00 -0.00000000000E+00 -0.45593999997E+02  0.45594000000E+02  0.51100000000E-03 0. -1.
         23    2    1    2    0    0  0.00000000000E+00  0.00000000000E+00  0.00000000000E+00  0.91188000000E+02  0.91188000000E+02 0.  0.
    9900012    2    3    3    0    0  0.24020510704E+02 -0.22433974905E+02  0.16598543996E+02  0.54367084377E+02  0.40000000455E+02 0.  0.
         12    1    3    3    0    0 -0.24020510704E+02  0.22433974905E+02 -0.16598543996E+02  0.36820915623E+02  0.00000000000E+00 0. -1.
         11    1    4    4    0    0  0.17732642698E+02  0.34325968305E+01 -0.22667258913E+01  0.18203499240E+02  0.51100000000E-03 0. -1.
        -11    1    4    4    0    0  0.10576976691E+01  0.20690338319E+01  0.67460668852E+00  0.24196528267E+01  0.51100000000E-03 0.  1.
        -12    1    4    4    0    0  0.52301703372E+01 -0.27935605567E+02  0.18190663199E+02  0.33743932310E+02  0.00000000000E+00 0.  1.
</event>
<event>
 8    1  0.2458065E-006  0.9118800E+02  0.7816164E-02  0.1184000E+00
        -11   -1    0    0    0    0  0.00000000000E+00  0.00000000000E+00  0.45593999997E+02  0.45594000000E+02  0.51100000000E-03 0. -1.
         11   -1    0    0    0    0 -0.00000000000E+00 -0.00000000000E+00 -0.45593999997E+02  0.45594000000E+02  0.51100000000E-03 0.  1.
         23    2    1    2    0    0  0.00000000000E+00  0.00000000000E+00  0.00000000000E+00  0.91188000000E+02  0.91188000000E+02 0.  0.
    9900012    2    3    3    0    0 -0.90688801403E+01  0.92524977257E+01  0.34466309247E+02  0.54367085097E+02  0.40000002096E+02 0.  0.
        -12    1    3    3    0    0  0.90688801403E+01 -0.92524977257E+01 -0.34466309247E+02  0.36820914903E+02  0.00000000000E+00 0.  1.
         11    1    4    4    0    0 -0.43773894628E+01  0.65806757274E+01  0.31656120907E+02  0.32627853479E+02  0.51100000000E-03 0. -1.
        -11    1    4    4    0    0 -0.74965051467E+01 -0.77249845357E+01  0.89365596621E+00  0.10801462713E+02  0.51100000000E-03 0.  1.
         12    1    4    4    0    0  0.28050144692E+01  0.10396806534E+02  0.19165323744E+01  0.10937768905E+02  0.00000000000E+00 0. -1.
</event>
<event>
 8    1  0.2458065E-006  0.9118800E+02  0.7816164E-02  0.1184000E+00
        -11   -1    0    0    0    0  0.00000000000E+00  0.00000000000E+00  0.45593999997E+02  0.45594000000E+02  0.51100000000E-03 0.  1.
         11   -1    0    0    0    0 -0.00000000000E+00 -0.00000000000E+00 -0.45593999997E+02  0.45594000000E+02  0.51100000000E-03 0. -1.
         23    2    1    2    0    0  0.00000000000E+00 -0.88817841970E-15  0.17763568394E-14  0.91188000000E+02  0.91188000000E+02 0.  0.
    9900012    2    3    3    0    0  0.33562824536E+02  0.24286164513E+01 -0.14947190777E+02  0.54367083651E+02  0.39999998798E+02 0.  0.
        -12    1    3    3    0    0 -0.33562824536E+02 -0.24286164513E+01  0.14947190777E+02  0.36820916349E+02  0.00000000000E+00 0.  1.
         11    1    4    4    0    0  0.15010771679E+02 -0.34970993746E+01 -0.16369910282E+02  0.22483926110E+02  0.51100000000E-03 0. -1.
        -11    1    4    4    0    0 -0.62579155787E+01  0.21731449149E+01  0.14940714908E+01  0.67908995054E+01  0.51100000000E-03 0.  1.
         12    1    4    4    0    0  0.24809968435E+02  0.37525709110E+01 -0.71351986294E-01  0.25092258035E+02  0.00000000000E+00 0. -1.
</event>
<event>
 8    1  0.2458065E-006  0.9118800E+02  0.7816164E-02  0.1184000E+00
        -11   -1    0    0    0    0  0.00000000000E+00  0.00000000000E+00  0.45593999997E+02  0.45594000000E+02  0.51100000000E-03 0. -1.
         11   -1    0    0    0    0 -0.00000000000E+00 -0.00000000000E+00 -0.45593999997E+02  0.45594000000E+02  0.51100000000E-03 0.  1.
         23    2    1    2    0    0 -0.35527136788E-14  0.35527136788E-14 -0.17763568394E-14  0.91188000000E+02  0.91188000000E+02 0.  0.
    9900012    2    3    3    0    0 -0.27740293957E+02 -0.18893647455E+02 -0.15142197759E+02  0.54367082358E+02  0.39999995852E+02 0.  0.
         12    1    3    3    0    0  0.27740293957E+02  0.18893647455E+02  0.15142197759E+02  0.36820917642E+02  0.00000000000E+00 0. -1.
         11    1    4    4    0    0 -0.29956786565E+02  0.10901299523E+01 -0.40778969390E+01  0.30252713734E+02  0.51100000000E-03 0. -1.
        -11    1    4    4    0    0 -0.25786058876E+01 -0.10332350829E+02 -0.55165887045E+01  0.11993307849E+02  0.51100000000E-03 0.  1.
         12    1    4    4    0    0  0.47950984950E+01 -0.96514265789E+01 -0.55477121158E+01  0.12121060775E+02  0.00000000000E+00 0. -1.
</event>
<event>
 8    1  0.2458065E-006  0.9118800E+02  0.7816164E-02  0.1184000E+00
        -11   -1    0    0    0    0  0.00000000000E+00  0.00000000000E+00  0.45593999997E+02  0.45594000000E+02  0.51100000000E-03 0.  1.
         11   -1    0    0    0    0 -0.00000000000E+00 -0.00000000000E+00 -0.45593999997E+02  0.45594000000E+02  0.51100000000E-03 0. -1.
         23    2    1    2    0    0  0.00000000000E+00  0.00000000000E+00 -0.17763568394E-14  0.91188000000E+02  0.91188000000E+02 0.  0.
    9900012    2    3    3    0    0  0.34116338084E+02  0.11125983773E+02 -0.82500975535E+01  0.54367134328E+02  0.40000114328E+02 0.  0.
         12    1    3    3    0    0 -0.34116338084E+02 -0.11125983773E+02  0.82500975535E+01  0.36820865672E+02  0.00000000000E+00 0. -1.
         11    1    4    4    0    0  0.24503397227E+01 -0.42400642515E+01 -0.98150448539E+01  0.10968929545E+02  0.51100000000E-03 0. -1.
        -11    1    4    4    0    0  0.17864035214E+02  0.13843183801E+02  0.12406513170E+02  0.25781370429E+02  0.51100000000E-03 0.  1.
        -12    1    4    4    0    0  0.13801963148E+02  0.15228642236E+01 -0.10841565870E+02  0.17616834355E+02  0.00000000000E+00 0.  1.
</event>
<event>
 8    1  0.2458065E-006  0.9118800E+02  0.7816164E-02  0.1184000E+00
        -11   -1    0    0    0    0  0.00000000000E+00  0.00000000000E+00  0.45593999997E+02  0.45594000000E+02  0.51100000000E-03 0. -1.
         11   -1    0    0    0    0 -0.00000000000E+00 -0.00000000000E+00 -0.45593999997E+02  0.45594000000E+02  0.51100000000E-03 0.  1.
         23    2    1    2    0    0  0.00000000000E+00  0.00000000000E+00  0.35527136788E-14  0.91188000000E+02  0.91188000000E+02 0.  0.
    9900012    2    3    3    0    0  0.98591393604E+01  0.15475572483E+02  0.31923099484E+02  0.54367078592E+02  0.39999987267E+02 0.  0.
        -12    1    3    3    0    0 -0.98591393604E+01 -0.15475572483E+02 -0.31923099484E+02  0.36820921408E+02  0.00000000000E+00 0.  1.
         11    1    4    4    0    0  0.20664381150E+01  0.81037816805E+01  0.29071070868E+02  0.30250100920E+02  0.51100000000E-03 0. -1.
        -11    1    4    4    0    0 -0.25935746649E+01  0.10388649259E+02 -0.38668760642E+01  0.11384348630E+02  0.51100000000E-03 0.  1.
        -12    1    4    4    0    0  0.10386275910E+02 -0.30168584559E+01  0.67189046805E+01  0.12732629042E+02  0.00000000000E+00 0.  1.
</event>
<event>
 8    1  0.2458065E-006  0.9118800E+02  0.7816164E-02  0.1184000E+00
        -11   -1    0    0    0    0  0.00000000000E+00  0.00000000000E+00  0.45593999997E+02  0.45594000000E+02  0.51100000000E-03 0.  1.
         11   -1    0    0    0    0 -0.00000000000E+00 -0.00000000000E+00 -0.45593999997E+02  0.45594000000E+02  0.51100000000E-03 0. -1.
         23    2    1    2    0    0 -0.17763568394E-14  0.35527136788E-14  0.35527136788E-14  0.91188000000E+02  0.91188000000E+02 0.  0.
    9900012    2    3    3    0    0 -0.14759934447E+02  0.28831723040E+02  0.17511579228E+02  0.54367091193E+02  0.40000015992E+02 0.  0.
         12    1    3    3    0    0  0.14759934447E+02 -0.28831723040E+02 -0.17511579228E+02  0.36820908807E+02  0.00000000000E+00 0. -1.
         11    1    4    4    0    0  0.44906859407E+00  0.52908523602E+00  0.27391116901E+01  0.28256551278E+01  0.51100000000E-03 0. -1.
        -11    1    4    4    0    0 -0.10103739676E+01  0.88696205515E+01 -0.12376766369E+02  0.15260254595E+02  0.51100000000E-03 0.  1.
        -12    1    4    4    0    0 -0.14198629073E+02  0.19433017253E+02  0.27149233907E+02  0.36281181470E+02  0.00000000000E+00 0.  1.
</event>
<event>
 8    1  0.2458065E-006  0.9118800E+02  0.7816164E-02  0.1184000E+00
        -11   -1    0    0    0    0  0.00000000000E+00  0.00000000000E+00  0.45593999997E+02  0.45594000000E+02  0.51100000000E-03 0.  1.
         11   -1    0    0    0    0 -0.00000000000E+00 -0.00000000000E+00 -0.45593999997E+02  0.45594000000E+02  0.51100000000E-03 0. -1.
         23    2    1    2    0    0  0.35527136788E-14  0.88817841970E-15  0.00000000000E+00  0.91188000000E+02  0.91188000000E+02 0.  0.
    9900012    2    3    3    0    0  0.30558054487E+02 -0.69071439545E+01  0.19346048848E+02  0.54367177933E+02  0.40000213734E+02 0.  0.
         12    1    3    3    0    0 -0.30558054487E+02  0.69071439545E+01 -0.19346048848E+02  0.36820822067E+02  0.00000000000E+00 0. -1.
         11    1    4    4    0    0 -0.44065714508E+01 -0.77200498646E+00  0.16240571515E+01  0.47593513783E+01  0.51100000000E-03 0. -1.
        -11    1    4    4    0    0 -0.14996998133E+01 -0.83072093785E+01  0.83986772145E+01  0.11907838024E+02  0.51100000000E-03 0.  1.
         12    1    4    4    0    0  0.36464325751E+02  0.21720704105E+01  0.93233144823E+01  0.37699988531E+02  0.00000000000E+00 0. -1.
</event>
<event>
 8    1  0.2458065E-006  0.9118800E+02  0.7816164E-02  0.1184000E+00
        -11   -1    0    0    0    0  0.00000000000E+00  0.00000000000E+00  0.45593999997E+02  0.45594000000E+02  0.51100000000E-03 0.  1.
         11   -1    0    0    0    0 -0.00000000000E+00 -0.00000000000E+00 -0.45593999997E+02  0.45594000000E+02  0.51100000000E-03 0. -1.
         23    2    1    2    0    0 -0.35527136788E-14  0.00000000000E+00  0.00000000000E+00  0.91188000000E+02  0.91188000000E+02 0.  0.
    9900012    2    3    3    0    0  0.31554030446E+02 -0.66765426375E+01 -0.17763640624E+02  0.54367082206E+02  0.39999995505E+02 0.  0.
        -12    1    3    3    0    0 -0.31554030446E+02  0.66765426375E+01  0.17763640624E+02  0.36820917794E+02  0.00000000000E+00 0.  1.
         11    1    4    4    0    0  0.53677215568E+01  0.11741554692E+02 -0.12172668350E+02  0.17744024243E+02  0.51100000000E-03 0. -1.
        -11    1    4    4    0    0  0.15325264346E+02 -0.19953462145E+02 -0.28791337755E+01  0.25323779149E+02  0.51100000000E-03 0.  1.
        -12    1    4    4    0    0  0.10861044543E+02  0.15353648149E+01 -0.27118384985E+01  0.11299278815E+02  0.00000000000E+00 0.  1.
</event>
<event>
 8    1  0.2458065E-006  0.9118800E+02  0.7816164E-02  0.1184000E+00
        -11   -1    0    0    0    0  0.00000000000E+00  0.00000000000E+00  0.45593999997E+02  0.45594000000E+02  0.51100000000E-03 0. -1.
         11   -1    0    0    0    0 -0.00000000000E+00 -0.00000000000E+00 -0.45593999997E+02  0.45594000000E+02  0.51100000000E-03 0.  1.
         23    2    1    2    0    0 -0.35527136788E-14  0.00000000000E+00  0.17763568394E-14  0.91188000000E+02  0.91188000000E+02 0.  0.
    9900012    2    3    3    0    0 -0.24909394727E+02 -0.24539867577E+02  0.11536747632E+02  0.54367087569E+02  0.40000007730E+02 0.  0.
         12    1    3    3    0    0  0.24909394727E+02  0.24539867577E+02 -0.11536747632E+02  0.36820912431E+02  0.00000000000E+00 0. -1.
         11    1    4    4    0    0 -0.31644356264E+01 -0.47623592239E+01  0.99073375681E+01  0.11438927229E+02  0.51100000000E-03 0. -1.
        -11    1    4    4    0    0 -0.20888049820E+02 -0.26348532467E+02  0.70642980306E+01  0.34357824369E+02  0.51100000000E-03 0.  1.
         12    1    4    4    0    0 -0.85690928075E+00  0.65710241144E+01 -0.54348879669E+01  0.85703359701E+01  0.00000000000E+00 0. -1.
</event>
<event>
 8    1  0.2458065E-006  0.9118800E+02  0.7816164E-02  0.1184000E+00
        -11   -1    0    0    0    0  0.00000000000E+00  0.00000000000E+00  0.45593999997E+02  0.45594000000E+02  0.51100000000E-03 0. -1.
         11   -1    0    0    0    0 -0.00000000000E+00 -0.00000000000E+00 -0.45593999997E+02  0.45594000000E+02  0.51100000000E-03 0.  1.
         23    2    1    2    0    0  0.00000000000E+00  0.71054273576E-14  0.22204460493E-14  0.91188000000E+02  0.91188000000E+02 0.  0.
    9900012    2    3    3    0    0  0.16666449510E+02  0.32826931093E+02 -0.63421173020E+00  0.54367079741E+02  0.39999989884E+02 0.  0.
         12    1    3    3    0    0 -0.16666449510E+02 -0.32826931093E+02  0.63421173020E+00  0.36820920259E+02  0.00000000000E+00 0. -1.
         11    1    4    4    0    0  0.11872695784E+01  0.76797886368E+01 -0.15100560299E+02  0.16982805545E+02  0.51100000000E-03 0. -1.
        -11    1    4    4    0    0  0.99211427497E+01  0.52508399778E+01 -0.14331649694E+01  0.11316110464E+02  0.51100000000E-03 0.  1.
         12    1    4    4    0    0  0.55580371814E+01  0.19896302478E+02  0.15899513538E+02  0.26068163732E+02  0.00000000000E+00 0. -1.
</event>
<event>
 8    1  0.2458065E-006  0.9118800E+02  0.7816164E-02  0.1184000E+00
        -11   -1    0    0    0    0  0.00000000000E+00  0.00000000000E+00  0.45593999997E+02  0.45594000000E+02  0.51100000000E-03 0. -1.
         11   -1    0    0    0    0 -0.00000000000E+00 -0.00000000000E+00 -0.45593999997E+02  0.45594000000E+02  0.51100000000E-03 0.  1.
         23    2    1    2    0    0  0.00000000000E+00  0.00000000000E+00 -0.35527136788E-14  0.91188000000E+02  0.91188000000E+02 0.  0.
    9900012    2    3    3    0    0  0.35036649626E+02  0.39117811035E+01  0.10625946767E+02  0.54367087557E+02  0.40000007704E+02 0.  0.
        -12    1    3    3    0    0 -0.35036649626E+02 -0.39117811035E+01 -0.10625946767E+02  0.36820912443E+02  0.00000000000E+00 0.  1.
         11    1    4    4    0    0  0.12621230978E+02 -0.83819097403E+01 -0.49892725034E+01  0.15951323540E+02  0.51100000000E-03 0.  1.
        -11    1    4    4    0    0  0.22428271437E+01 -0.32461733684E+01 -0.44856575987E+01  0.59740304224E+01  0.51100000000E-03 0. -1.
         12    1    4    4    0    0  0.20172591504E+02  0.15539864212E+02  0.20100876869E+02  0.32441733595E+02  0.00000000000E+00 0. -1.
</event>
<event>
 8    1  0.2458065E-006  0.9118800E+02  0.7816164E-02  0.1184000E+00
        -11   -1    0    0    0    0  0.00000000000E+00  0.00000000000E+00  0.45593999997E+02  0.45594000000E+02  0.51100000000E-03 0.  1.
         11   -1    0    0    0    0 -0.00000000000E+00 -0.00000000000E+00 -0.45593999997E+02  0.45594000000E+02  0.51100000000E-03 0. -1.
         23    2    1    2    0    0  0.44408920985E-15 -0.35527136788E-14  0.00000000000E+00  0.91188000000E+02  0.91188000000E+02 0.  0.
    9900012    2    3    3    0    0 -0.21022992097E+01  0.25225960782E+02 -0.26739730279E+02  0.54367055760E+02  0.39999935216E+02 0.  0.
        -12    1    3    3    0    0  0.21022992097E+01 -0.25225960782E+02  0.26739730279E+02  0.36820944240E+02  0.00000000000E+00 0.  1.
         11    1    4    4    0    0 -0.10943140851E+02  0.10578260138E+02 -0.12201498444E+02  0.19507139303E+02  0.51100000000E-03 0. -1.
        -11    1    4    4    0    0  0.88543805084E+01 -0.54353254955E+01 -0.58608361218E+00  0.10406070906E+02  0.51100000000E-03 0.  1.
         12    1    4    4    0    0 -0.13538866816E-01  0.20083026139E+02 -0.13952148223E+02  0.24453845551E+02  0.00000000000E+00 0. -1.
</event>
<event>
 8    1  0.2458065E-006  0.9118800E+02  0.7816164E-02  0.1184000E+00
        -11   -1    0    0    0    0  0.00000000000E+00  0.00000000000E+00  0.45593999997E+02  0.45594000000E+02  0.51100000000E-03 0. -1.
         11   -1    0    0    0    0 -0.00000000000E+00 -0.00000000000E+00 -0.45593999997E+02  0.45594000000E+02  0.51100000000E-03 0.  1.
         23    2    1    2    0    0  0.17763568394E-14  0.00000000000E+00  0.00000000000E+00  0.91188000000E+02  0.91188000000E+02 0.  0.
    9900012    2    3    3    0    0  0.12113367205E+02 -0.89719552518E+01 -0.33593865857E+02  0.54367116397E+02  0.40000073451E+02 0.  0.
         12    1    3    3    0    0 -0.12113367205E+02  0.89719552518E+01  0.33593865857E+02  0.36820883603E+02  0.00000000000E+00 0. -1.
         11    1    4    4    0    0  0.11120135291E+02 -0.48115596471E+01 -0.12211624454E+02  0.17202682558E+02  0.51100000000E-03 0.  1.
        -11    1    4    4    0    0 -0.97389476678E+01 -0.49616773801E+00  0.30592423077E+01  0.10220188250E+02  0.51100000000E-03 0. -1.
        -12    1    4    4    0    0  0.10732179582E+02 -0.36642278667E+01 -0.24441483710E+02  0.26944245589E+02  0.00000000000E+00 0.  1.
</event>
<event>
 8    1  0.2458065E-006  0.9118800E+02  0.7816164E-02  0.1184000E+00
        -11   -1    0    0    0    0  0.00000000000E+00  0.00000000000E+00  0.45593999997E+02  0.45594000000E+02  0.51100000000E-03 0.  1.
         11   -1    0    0    0    0 -0.00000000000E+00 -0.00000000000E+00 -0.45593999997E+02  0.45594000000E+02  0.51100000000E-03 0. -1.
         23    2    1    2    0    0  0.35527136788E-14  0.35527136788E-14  0.44408920985E-15  0.91188000000E+02  0.91188000000E+02 0.  0.
    9900012    2    3    3    0    0  0.20373791985E+02 -0.30665988320E+02 -0.53444404940E+00  0.54367083799E+02  0.39999999136E+02 0.  0.
         12    1    3    3    0    0 -0.20373791985E+02  0.30665988320E+02  0.53444404940E+00  0.36820916201E+02  0.00000000000E+00 0. -1.
         11    1    4    4    0    0 -0.37717300848E+01 -0.19914347612E+02 -0.15847215428E+01  0.20330236873E+02  0.51100000000E-03 0. -1.
        -11    1    4    4    0    0  0.19615065885E+02  0.47415965984E+00  0.66254086274E+01  0.20709217194E+02  0.51100000000E-03 0.  1.
        -12    1    4    4    0    0  0.45304561848E+01 -0.11225800367E+02 -0.55751311340E+01  0.13327629732E+02  0.00000000000E+00 0.  1.
</event>
<event>
 8    1  0.2458065E-006  0.9118800E+02  0.7816164E-02  0.1184000E+00
        -11   -1    0    0    0    0  0.00000000000E+00  0.00000000000E+00  0.45593999997E+02  0.45594000000E+02  0.51100000000E-03 0.  1.
         11   -1    0    0    0    0 -0.00000000000E+00 -0.00000000000E+00 -0.45593999997E+02  0.45594000000E+02  0.51100000000E-03 0. -1.
         23    2    1    2    0    0 -0.17763568394E-14 -0.35527136788E-14  0.00000000000E+00  0.91188000000E+02  0.91188000000E+02 0.  0.
    9900012    2    3    3    0    0  0.11570816705E+02  0.23003179142E+02 -0.26320130298E+02  0.54367091419E+02  0.40000016507E+02 0.  0.
        -12    1    3    3    0    0 -0.11570816705E+02 -0.23003179142E+02  0.26320130298E+02  0.36820908581E+02  0.00000000000E+00 0.  1.
         11    1    4    4    0    0  0.11195106793E+02  0.10617493212E+01 -0.25404370197E+01  0.11528727087E+02  0.51100000000E-03 0. -1.
        -11    1    4    4    0    0  0.60096782141E+01 -0.31700749065E+00  0.36724669133E+01  0.70500879056E+01  0.51100000000E-03 0.  1.
         12    1    4    4    0    0 -0.56339683022E+01  0.22258437311E+02 -0.27452160192E+02  0.35788276426E+02  0.00000000000E+00 0. -1.
</event>
<event>
 8    1  0.2458065E-006  0.9118800E+02  0.7816164E-02  0.1184000E+00
        -11   -1    0    0    0    0  0.00000000000E+00  0.00000000000E+00  0.45593999997E+02  0.45594000000E+02  0.51100000000E-03 0.  1.
         11   -1    0    0    0    0 -0.00000000000E+00 -0.00000000000E+00 -0.45593999997E+02  0.45594000000E+02  0.51100000000E-03 0. -1.
         23    2    1    2    0    0  0.00000000000E+00  0.00000000000E+00  0.44408920985E-15  0.91188000000E+02  0.91188000000E+02 0.  0.
    9900012    2    3    3    0    0 -0.12947947990E+02 -0.34351461059E+02 -0.28475002262E+01  0.54367075357E+02  0.39999979891E+02 0.  0.
         12    1    3    3    0    0  0.12947947990E+02  0.34351461059E+02  0.28475002262E+01  0.36820924643E+02  0.00000000000E+00 0. -1.
         11    1    4    4    0    0  0.15454625327E+01  0.12781099661E+01 -0.38543055022E+01  0.43448464519E+01  0.51100000000E-03 0. -1.
        -11    1    4    4    0    0  0.58597487822E+01 -0.24331643944E+02  0.69936331502E+01  0.25986082000E+02  0.51100000000E-03 0.  1.
        -12    1    4    4    0    0 -0.20353159305E+02 -0.11297927081E+02 -0.59868278742E+01  0.24036146904E+02  0.00000000000E+00 0.  1.
</event>
<event>
 8    1  0.2458065E-006  0.9118800E+02  0.7816164E-02  0.1184000E+00
        -11   -1    0    0    0    0  0.00000000000E+00  0.00000000000E+00  0.45593999997E+02  0.45594000000E+02  0.51100000000E-03 0.  1.
         11   -1    0    0    0    0 -0.00000000000E+00 -0.00000000000E+00 -0.45593999997E+02  0.45594000000E+02  0.51100000000E-03 0. -1.
         23    2    1    2    0    0  0.00000000000E+00  0.00000000000E+00 -0.35527136788E-14  0.91188000000E+02  0.91188000000E+02 0.  0.
    9900012    2    3    3    0    0 -0.25550345186E+02 -0.18157577326E+02 -0.19319988214E+02  0.54367086132E+02  0.40000004455E+02 0.  0.
        -12    1    3    3    0    0  0.25550345186E+02  0.18157577326E+02  0.19319988214E+02  0.36820913868E+02  0.00000000000E+00 0.  1.
         11    1    4    4    0    0 -0.20096630188E+02 -0.50292849417E+01 -0.18086076565E+02  0.27500443954E+02  0.51100000000E-03 0. -1.
        -11    1    4    4    0    0 -0.13902101160E+02 -0.43962904808E+01 -0.18693733286E+01  0.14700011686E+02  0.51100000000E-03 0.  1.
        -12    1    4    4    0    0  0.84483861617E+01 -0.87320019035E+01  0.63546167897E+00  0.12166630492E+02  0.00000000000E+00 0.  1.
</event>
<event>
 8    1  0.2458065E-006  0.9118800E+02  0.7816164E-02  0.1184000E+00
        -11   -1    0    0    0    0  0.00000000000E+00  0.00000000000E+00  0.45593999997E+02  0.45594000000E+02  0.51100000000E-03 0.  1.
         11   -1    0    0    0    0 -0.00000000000E+00 -0.00000000000E+00 -0.45593999997E+02  0.45594000000E+02  0.51100000000E-03 0. -1.
         23    2    1    2    0    0  0.00000000000E+00  0.17763568394E-14  0.00000000000E+00  0.91188000000E+02  0.91188000000E+02 0.  0.
    9900012    2    3    3    0    0 -0.17298040926E+02 -0.11848498860E+02 -0.30268310005E+02  0.54367085621E+02  0.40000003291E+02 0.  0.
        -12    1    3    3    0    0  0.17298040926E+02  0.11848498860E+02  0.30268310005E+02  0.36820914379E+02  0.00000000000E+00 0.  1.
         11    1    4    4    0    0 -0.78883969334E+01  0.57548322252E+01 -0.10250360432E+02  0.14156793046E+02  0.51100000000E-03 0. -1.
        -11    1    4    4    0    0 -0.16960923671E+01  0.78550933938E+01 -0.27404225051E+01  0.84905322160E+01  0.51100000000E-03 0.  1.
        -12    1    4    4    0    0 -0.77135516255E+01 -0.25458424479E+02 -0.17277527069E+02  0.31719760359E+02  0.00000000000E+00 0.  1.
</event>
<event>
 8    1  0.2458065E-006  0.9118800E+02  0.7816164E-02  0.1184000E+00
        -11   -1    0    0    0    0  0.00000000000E+00  0.00000000000E+00  0.45593999997E+02  0.45594000000E+02  0.51100000000E-03 0.  1.
         11   -1    0    0    0    0 -0.00000000000E+00 -0.00000000000E+00 -0.45593999997E+02  0.45594000000E+02  0.51100000000E-03 0. -1.
         23    2    1    2    0    0  0.17763568394E-14 -0.35527136788E-14  0.00000000000E+00  0.91188000000E+02  0.91188000000E+02 0.  0.
    9900012    2    3    3    0    0  0.67848859078E+01  0.27668705372E+02 -0.23327840835E+02  0.54367080786E+02  0.39999992268E+02 0.  0.
        -12    1    3    3    0    0 -0.67848859078E+01 -0.27668705372E+02  0.23327840835E+02  0.36820919214E+02  0.00000000000E+00 0.  1.
         11    1    4    4    0    0  0.29592380674E+01  0.10790330892E+02 -0.13906123190E+01  0.11274845169E+02  0.51100000000E-03 0. -1.
        -11    1    4    4    0    0 -0.92233628192E+01 -0.22333945757E+01 -0.16940173390E+02  0.19417207517E+02  0.51100000000E-03 0.  1.
        -12    1    4    4    0    0  0.13049010660E+02  0.19111769055E+02 -0.49970551266E+01  0.23675028100E+02  0.00000000000E+00 0.  1.
</event>
<event>
 8    1  0.2458065E-006  0.9118800E+02  0.7816164E-02  0.1184000E+00
        -11   -1    0    0    0    0  0.00000000000E+00  0.00000000000E+00  0.45593999997E+02  0.45594000000E+02  0.51100000000E-03 0. -1.
         11   -1    0    0    0    0 -0.00000000000E+00 -0.00000000000E+00 -0.45593999997E+02  0.45594000000E+02  0.51100000000E-03 0.  1.
         23    2    1    2    0    0  0.00000000000E+00  0.00000000000E+00  0.00000000000E+00  0.91188000000E+02  0.91188000000E+02 0.  0.
    9900012    2    3    3    0    0  0.15959206861E+02 -0.12937704478E+02  0.30556504516E+02  0.54367075935E+02  0.39999981209E+02 0.  0.
        -12    1    3    3    0    0 -0.15959206861E+02  0.12937704478E+02 -0.30556504516E+02  0.36820924065E+02  0.00000000000E+00 0.  1.
         11    1    4    4    0    0  0.62405015178E+01 -0.20824685843E+01  0.59274011206E+01  0.88552029284E+01  0.51100000000E-03 0. -1.
        -11    1    4    4    0    0  0.67986584822E+01 -0.86986750859E+01  0.33848527620E+02  0.35603532518E+02  0.51100000000E-03 0.  1.
        -12    1    4    4    0    0  0.29200468610E+01 -0.21565608081E+01 -0.92194242254E+01  0.99083404886E+01  0.00000000000E+00 0.  1.
</event>
<event>
 8    1  0.2458065E-006  0.9118800E+02  0.7816164E-02  0.1184000E+00
        -11   -1    0    0    0    0  0.00000000000E+00  0.00000000000E+00  0.45593999997E+02  0.45594000000E+02  0.51100000000E-03 0. -1.
         11   -1    0    0    0    0 -0.00000000000E+00 -0.00000000000E+00 -0.45593999997E+02  0.45594000000E+02  0.51100000000E-03 0.  1.
         23    2    1    2    0    0  0.00000000000E+00  0.00000000000E+00  0.00000000000E+00  0.91188000000E+02  0.91188000000E+02 0.  0.
    9900012    2    3    3    0    0 -0.30033090229E+02 -0.11108177079E+02  0.18176977927E+02  0.54367073432E+02  0.39999975503E+02 0.  0.
        -12    1    3    3    0    0  0.30033090229E+02  0.11108177079E+02 -0.18176977927E+02  0.36820926568E+02  0.00000000000E+00 0.  1.
         11    1    4    4    0    0 -0.11667391513E+02 -0.41223776055E+00  0.20313864411E+02  0.23429704485E+02  0.51100000000E-03 0. -1.
        -11    1    4    4    0    0 -0.43400165877E+01 -0.15179092544E+00 -0.10600690643E+02  0.11455715902E+02  0.51100000000E-03 0.  1.
        -12    1    4    4    0    0 -0.14025682129E+02 -0.10544148393E+02  0.84638041591E+01  0.19481653045E+02  0.00000000000E+00 0.  1.
</event>
<event>
 8    1  0.2458065E-006  0.9118800E+02  0.7816164E-02  0.1184000E+00
        -11   -1    0    0    0    0  0.00000000000E+00  0.00000000000E+00  0.45593999997E+02  0.45594000000E+02  0.51100000000E-03 0.  1.
         11   -1    0    0    0    0 -0.00000000000E+00 -0.00000000000E+00 -0.45593999997E+02  0.45594000000E+02  0.51100000000E-03 0. -1.
         23    2    1    2    0    0  0.00000000000E+00  0.00000000000E+00  0.17763568394E-14  0.91188000000E+02  0.91188000000E+02 0.  0.
    9900012    2    3    3    0    0 -0.84543971918E+01  0.33322225621E+02  0.13188337345E+02  0.54367084827E+02  0.40000001481E+02 0.  0.
         12    1    3    3    0    0  0.84543971918E+01 -0.33322225621E+02 -0.13188337345E+02  0.36820915173E+02  0.00000000000E+00 0. -1.
         11    1    4    4    0    0 -0.99155171197E+01 -0.53673403564E+01  0.31339258343E+01  0.11702449045E+02  0.51100000000E-03 0. -1.
        -11    1    4    4    0    0 -0.37305865454E+00  0.16948003583E+02 -0.30336652704E+01  0.17221414676E+02  0.51100000000E-03 0.  1.
        -12    1    4    4    0    0  0.18341785824E+01  0.21741562395E+02  0.13088076781E+02  0.25443221107E+02  0.00000000000E+00 0.  1.
</event>
<event>
 8    1  0.2458065E-006  0.9118800E+02  0.7816164E-02  0.1184000E+00
        -11   -1    0    0    0    0  0.00000000000E+00  0.00000000000E+00  0.45593999997E+02  0.45594000000E+02  0.51100000000E-03 0.  1.
         11   -1    0    0    0    0 -0.00000000000E+00 -0.00000000000E+00 -0.45593999997E+02  0.45594000000E+02  0.51100000000E-03 0. -1.
         23    2    1    2    0    0  0.17763568394E-14  0.00000000000E+00  0.00000000000E+00  0.91188000000E+02  0.91188000000E+02 0.  0.
    9900012    2    3    3    0    0  0.12986174254E+02 -0.20005317916E+02 -0.28052272176E+02  0.54367035307E+02  0.39999888590E+02 0.  0.
        -12    1    3    3    0    0 -0.12986174254E+02  0.20005317916E+02  0.28052272176E+02  0.36820964693E+02  0.00000000000E+00 0.  1.
         11    1    4    4    0    0  0.17809673319E+02 -0.85099199106E+01 -0.15643704191E+02  0.25185882587E+02  0.51100000000E-03 0. -1.
        -11    1    4    4    0    0 -0.24253232573E+01  0.29712961649E+01  0.50754627690E+01  0.63616913146E+01  0.51100000000E-03 0.  1.
         12    1    4    4    0    0 -0.23981758077E+01 -0.14466694170E+02 -0.17484030754E+02  0.22819461405E+02  0.00000000000E+00 0. -1.
</event>
<event>
 8    1  0.2458065E-006  0.9118800E+02  0.7816164E-02  0.1184000E+00
        -11   -1    0    0    0    0  0.00000000000E+00  0.00000000000E+00  0.45593999997E+02  0.45594000000E+02  0.51100000000E-03 0. -1.
         11   -1    0    0    0    0 -0.00000000000E+00 -0.00000000000E+00 -0.45593999997E+02  0.45594000000E+02  0.51100000000E-03 0.  1.
         23    2    1    2    0    0 -0.35527136788E-14  0.00000000000E+00  0.00000000000E+00  0.91188000000E+02  0.91188000000E+02 0.  0.
    9900012    2    3    3    0    0  0.23061977228E+02 -0.71483619714E+01  0.27799747312E+02  0.54367084433E+02  0.40000000582E+02 0.  0.
        -12    1    3    3    0    0 -0.23061977228E+02  0.71483619714E+01 -0.27799747312E+02  0.36820915567E+02  0.00000000000E+00 0.  1.
         11    1    4    4    0    0  0.28116797354E+02 -0.87792642647E+01  0.25205809163E+02  0.38768061472E+02  0.51100000000E-03 0. -1.
        -11    1    4    4    0    0 -0.43343517935E+01  0.78019906543E+01  0.28832864647E+01  0.93792859397E+01  0.51100000000E-03 0.  1.
         12    1    4    4    0    0 -0.72046833171E+00 -0.61710883610E+01 -0.28934831531E+00  0.62197370220E+01  0.00000000000E+00 0. -1.
</event>
<event>
 8    1  0.2458065E-006  0.9118800E+02  0.7816164E-02  0.1184000E+00
        -11   -1    0    0    0    0  0.00000000000E+00  0.00000000000E+00  0.45593999997E+02  0.45594000000E+02  0.51100000000E-03 0.  1.
         11   -1    0    0    0    0 -0.00000000000E+00 -0.00000000000E+00 -0.45593999997E+02  0.45594000000E+02  0.51100000000E-03 0. -1.
         23    2    1    2    0    0 -0.17763568394E-14  0.00000000000E+00 -0.35527136788E-14  0.91188000000E+02  0.91188000000E+02 0.  0.
    9900012    2    3    3    0    0 -0.64747011721E+01 -0.26299913272E+02 -0.24943369949E+02  0.54367097000E+02  0.40000029230E+02 0.  0.
        -12    1    3    3    0    0  0.64747011721E+01  0.26299913272E+02  0.24943369949E+02  0.36820903000E+02  0.00000000000E+00 0.  1.
         11    1    4    4    0    0  0.36870366273E+01 -0.37435805935E+01 -0.25118791810E+01  0.58239309776E+01  0.51100000000E-03 0. -1.
        -11    1    4    4    0    0 -0.91558792934E+00  0.95558195263E+01 -0.42212669465E+01  0.10486709826E+02  0.51100000000E-03 0.  1.
        -12    1    4    4    0    0 -0.92461498701E+01 -0.32112152204E+02 -0.18210223821E+02  0.38056456196E+02  0.00000000000E+00 0.  1.
</event>
<event>
 8    1  0.2458065E-006  0.9118800E+02  0.7816164E-02  0.1184000E+00
        -11   -1    0    0    0    0  0.00000000000E+00  0.00000000000E+00  0.45593999997E+02  0.45594000000E+02  0.51100000000E-03 0. -1.
         11   -1    0    0    0    0 -0.00000000000E+00 -0.00000000000E+00 -0.45593999997E+02  0.45594000000E+02  0.51100000000E-03 0.  1.
         23    2    1    2    0    0  0.35527136788E-14  0.00000000000E+00  0.00000000000E+00  0.91188000000E+02  0.91188000000E+02 0.  0.
    9900012    2    3    3    0    0 -0.28715419436E+02  0.12448408682E+02 -0.19397091739E+02  0.54367009247E+02  0.39999829180E+02 0.  0.
         12    1    3    3    0    0  0.28715419436E+02 -0.12448408682E+02  0.19397091739E+02  0.36820990753E+02  0.00000000000E+00 0. -1.
         11    1    4    4    0    0 -0.21838253423E+02  0.20027880892E+02 -0.84947038423E+01  0.30825076143E+02  0.51100000000E-03 0. -1.
        -11    1    4    4    0    0 -0.61442949615E+01 -0.71627790648E+01  0.27765649085E+01  0.98370258441E+01  0.51100000000E-03 0.  1.
        -12    1    4    4    0    0 -0.73287105206E+00 -0.41669314548E+00 -0.13678952805E+02  0.13704907260E+02  0.00000000000E+00 0.  1.
</event>
<event>
 8    1  0.2458065E-006  0.9118800E+02  0.7816164E-02  0.1184000E+00
        -11   -1    0    0    0    0  0.00000000000E+00  0.00000000000E+00  0.45593999997E+02  0.45594000000E+02  0.51100000000E-03 0.  1.
         11   -1    0    0    0    0 -0.00000000000E+00 -0.00000000000E+00 -0.45593999997E+02  0.45594000000E+02  0.51100000000E-03 0. -1.
         23    2    1    2    0    0  0.00000000000E+00 -0.17763568394E-14  0.00000000000E+00  0.91188000000E+02  0.91188000000E+02 0.  0.
    9900012    2    3    3    0    0  0.36133217777E+02 -0.64568896606E+01 -0.29119062613E+01  0.54367081366E+02  0.39999993590E+02 0.  0.
         12    1    3    3    0    0 -0.36133217777E+02  0.64568896606E+01  0.29119062613E+01  0.36820918634E+02  0.00000000000E+00 0. -1.
         11    1    4    4    0    0  0.13730906900E+02  0.96631614771E+01 -0.14308014781E+02  0.22059777453E+02  0.51100000000E-03 0. -1.
        -11    1    4    4    0    0  0.17385161087E+02 -0.85421372089E+01  0.23981882231E+01  0.19518279667E+02  0.51100000000E-03 0.  1.
        -12    1    4    4    0    0  0.50171497891E+01 -0.75779139288E+01  0.89979202964E+01  0.12789024247E+02  0.00000000000E+00 0.  1.
</event>
<event>
 8    1  0.2458065E-006  0.9118800E+02  0.7816164E-02  0.1184000E+00
        -11   -1    0    0    0    0  0.00000000000E+00  0.00000000000E+00  0.45593999997E+02  0.45594000000E+02  0.51100000000E-03 0. -1.
         11   -1    0    0    0    0 -0.00000000000E+00 -0.00000000000E+00 -0.45593999997E+02  0.45594000000E+02  0.51100000000E-03 0.  1.
         23    2    1    2    0    0  0.00000000000E+00  0.00000000000E+00  0.17763568394E-14  0.91188000000E+02  0.91188000000E+02 0.  0.
    9900012    2    3    3    0    0  0.23538416910E+02 -0.26402971626E+02  0.10227579856E+02  0.54367117732E+02  0.40000076494E+02 0.  0.
        -12    1    3    3    0    0 -0.23538416910E+02  0.26402971626E+02 -0.10227579856E+02  0.36820882268E+02  0.00000000000E+00 0.  1.
         11    1    4    4    0    0  0.10312569153E+02 -0.20456544266E+02  0.20736488580E+02  0.30900181953E+02  0.51100000000E-03 0. -1.
        -11    1    4    4    0    0  0.12066320795E+02 -0.10598479574E+02 -0.91500580581E+01  0.18483707137E+02  0.51100000000E-03 0.  1.
        -12    1    4    4    0    0  0.11595269615E+01  0.46520522135E+01 -0.13588506659E+01  0.49832286426E+01  0.00000000000E+00 0.  1.
</event>
<event>
 8    1  0.2458065E-006  0.9118800E+02  0.7816164E-02  0.1184000E+00
        -11   -1    0    0    0    0  0.00000000000E+00  0.00000000000E+00  0.45593999997E+02  0.45594000000E+02  0.51100000000E-03 0.  1.
         11   -1    0    0    0    0 -0.00000000000E+00 -0.00000000000E+00 -0.45593999997E+02  0.45594000000E+02  0.51100000000E-03 0. -1.
         23    2    1    2    0    0  0.00000000000E+00  0.00000000000E+00  0.35527136788E-14  0.91188000000E+02  0.91188000000E+02 0.  0.
    9900012    2    3    3    0    0 -0.17832162031E+02 -0.20373114609E+02 -0.24954487300E+02  0.54367133117E+02  0.40000111567E+02 0.  0.
        -12    1    3    3    0    0  0.17832162031E+02  0.20373114609E+02  0.24954487300E+02  0.36820866883E+02  0.00000000000E+00 0.  1.
         11    1    4    4    0    0 -0.12211443183E+02  0.36298807745E+01  0.25476258130E+01  0.12991758025E+02  0.51100000000E-03 0. -1.
        -11    1    4    4    0    0  0.61485833202E+01 -0.47070184551E+01 -0.10719839895E+02  0.13224071507E+02  0.51100000000E-03 0.  1.
         12    1    4    4    0    0 -0.11769302168E+02 -0.19295976929E+02 -0.16782273218E+02  0.28151303585E+02  0.00000000000E+00 0. -1.
</event>
<event>
 8    1  0.2458065E-006  0.9118800E+02  0.7816164E-02  0.1184000E+00
        -11   -1    0    0    0    0  0.00000000000E+00  0.00000000000E+00  0.45593999997E+02  0.45594000000E+02  0.51100000000E-03 0. -1.
         11   -1    0    0    0    0 -0.00000000000E+00 -0.00000000000E+00 -0.45593999997E+02  0.45594000000E+02  0.51100000000E-03 0.  1.
         23    2    1    2    0    0  0.17763568394E-14  0.35527136788E-14 -0.71054273576E-14  0.91188000000E+02  0.91188000000E+02 0.  0.
    9900012    2    3    3    0    0 -0.12258041527E+02 -0.14685367708E+02  0.31462060353E+02  0.54367070511E+02  0.39999968843E+02 0.  0.
        -12    1    3    3    0    0  0.12258041527E+02  0.14685367708E+02 -0.31462060353E+02  0.36820929489E+02  0.00000000000E+00 0.  1.
         11    1    4    4    0    0  0.74148374412E+01 -0.13023145769E+02  0.22774731803E+02  0.27262988628E+02  0.51100000000E-03 0. -1.
        -11    1    4    4    0    0 -0.22050527030E+02 -0.14746400800E+01  0.10136221956E+02  0.24313438701E+02  0.51100000000E-03 0.  1.
        -12    1    4    4    0    0  0.23776480621E+01 -0.18758185962E+00 -0.14488934063E+01  0.27906431811E+01  0.00000000000E+00 0.  1.
</event>
<event>
 8    1  0.2458065E-006  0.9118800E+02  0.7816164E-02  0.1184000E+00
        -11   -1    0    0    0    0  0.00000000000E+00  0.00000000000E+00  0.45593999997E+02  0.45594000000E+02  0.51100000000E-03 0. -1.
         11   -1    0    0    0    0 -0.00000000000E+00 -0.00000000000E+00 -0.45593999997E+02  0.45594000000E+02  0.51100000000E-03 0.  1.
         23    2    1    2    0    0  0.00000000000E+00  0.00000000000E+00  0.00000000000E+00  0.91188000000E+02  0.91188000000E+02 0.  0.
    9900012    2    3    3    0    0  0.35746155403E+02  0.15844787965E+01 -0.86880206963E+01  0.54367083352E+02  0.39999998118E+02 0.  0.
        -12    1    3    3    0    0 -0.35746155403E+02 -0.15844787965E+01  0.86880206963E+01  0.36820916648E+02  0.00000000000E+00 0.  1.
         11    1    4    4    0    0  0.21521852874E+02  0.17894219159E+02 -0.73685216676E+01  0.28942846132E+02  0.51100000000E-03 0. -1.
        -11    1    4    4    0    0  0.52520853258E+01 -0.44694426501E+01 -0.67087004177E+01  0.96211734954E+01  0.51100000000E-03 0.  1.
         12    1    4    4    0    0  0.89722172037E+01 -0.11840297712E+02  0.53892013891E+01  0.15803063724E+02  0.00000000000E+00 0. -1.
</event>
<event>
 8    1  0.2458065E-006  0.9118800E+02  0.7816164E-02  0.1184000E+00
        -11   -1    0    0    0    0  0.00000000000E+00  0.00000000000E+00  0.45593999997E+02  0.45594000000E+02  0.51100000000E-03 0. -1.
         11   -1    0    0    0    0 -0.00000000000E+00 -0.00000000000E+00 -0.45593999997E+02  0.45594000000E+02  0.51100000000E-03 0.  1.
         23    2    1    2    0    0  0.00000000000E+00  0.35527136788E-14  0.17763568394E-14  0.91188000000E+02  0.91188000000E+02 0.  0.
    9900012    2    3    3    0    0 -0.26930987210E+02 -0.19482760959E+02  0.15840540925E+02  0.54367098552E+02  0.40000032768E+02 0.  0.
        -12    1    3    3    0    0  0.26930987210E+02  0.19482760959E+02 -0.15840540925E+02  0.36820901448E+02  0.00000000000E+00 0.  1.
         11    1    4    4    0    0 -0.27906744836E+02 -0.19869728669E+02  0.17358155688E+02  0.38404402012E+02  0.51100000000E-03 0. -1.
        -11    1    4    4    0    0  0.73137274738E+01 -0.34636743378E+01 -0.25281197807E+01  0.84781507044E+01  0.51100000000E-03 0.  1.
         12    1    4    4    0    0 -0.63379698476E+01  0.38506420483E+01  0.10105050176E+01  0.74845458355E+01  0.00000000000E+00 0. -1.
</event>
<event>
 8    1  0.2458065E-006  0.9118800E+02  0.7816164E-02  0.1184000E+00
        -11   -1    0    0    0    0  0.00000000000E+00  0.00000000000E+00  0.45593999997E+02  0.45594000000E+02  0.51100000000E-03 0. -1.
         11   -1    0    0    0    0 -0.00000000000E+00 -0.00000000000E+00 -0.45593999997E+02  0.45594000000E+02  0.51100000000E-03 0.  1.
         23    2    1    2    0    0 -0.44408920985E-15  0.00000000000E+00 -0.35527136788E-14  0.91188000000E+02  0.91188000000E+02 0.  0.
    9900012    2    3    3    0    0 -0.24471014279E+01  0.23322167459E+02 -0.28387825356E+02  0.54367076209E+02  0.39999981833E+02 0.  0.
        -12    1    3    3    0    0  0.24471014279E+01 -0.23322167459E+02  0.28387825356E+02  0.36820923791E+02  0.00000000000E+00 0.  1.
         11    1    4    4    0    0  0.36066554201E+01  0.29007389204E+02 -0.19235127493E+02  0.34991809352E+02  0.51100000000E-03 0. -1.
        -11    1    4    4    0    0 -0.87991233143E-01  0.25950571651E+01  0.26921249162E+01  0.37402675001E+01  0.51100000000E-03 0.  1.
        -12    1    4    4    0    0 -0.59657656148E+01 -0.82802789102E+01 -0.11844822780E+02  0.15634999357E+02  0.00000000000E+00 0.  1.
</event>
<event>
 8    1  0.2458065E-006  0.9118800E+02  0.7816164E-02  0.1184000E+00
        -11   -1    0    0    0    0  0.00000000000E+00  0.00000000000E+00  0.45593999997E+02  0.45594000000E+02  0.51100000000E-03 0. -1.
         11   -1    0    0    0    0 -0.00000000000E+00 -0.00000000000E+00 -0.45593999997E+02  0.45594000000E+02  0.51100000000E-03 0.  1.
         23    2    1    2    0    0  0.00000000000E+00  0.00000000000E+00  0.00000000000E+00  0.91188000000E+02  0.91188000000E+02 0.  0.
    9900012    2    3    3    0    0 -0.16678232700E+02 -0.13313709169E+02 -0.30006010628E+02  0.54367095996E+02  0.40000026943E+02 0.  0.
         12    1    3    3    0    0  0.16678232700E+02  0.13313709169E+02  0.30006010628E+02  0.36820904004E+02  0.00000000000E+00 0. -1.
         11    1    4    4    0    0 -0.36974296099E+01  0.33944911950E+01 -0.31437871463E-01  0.50194167782E+01  0.51100000000E-03 0. -1.
        -11    1    4    4    0    0  0.63117810171E+01 -0.10348321165E+00 -0.21673397167E+02  0.22573999056E+02  0.51100000000E-03 0.  1.
        -12    1    4    4    0    0 -0.19292584107E+02 -0.16604717152E+02 -0.83011755901E+01  0.26773680162E+02  0.00000000000E+00 0.  1.
</event>
<event>
 8    1  0.2458065E-006  0.9118800E+02  0.7816164E-02  0.1184000E+00
        -11   -1    0    0    0    0  0.00000000000E+00  0.00000000000E+00  0.45593999997E+02  0.45594000000E+02  0.51100000000E-03 0. -1.
         11   -1    0    0    0    0 -0.00000000000E+00 -0.00000000000E+00 -0.45593999997E+02  0.45594000000E+02  0.51100000000E-03 0.  1.
         23    2    1    2    0    0  0.17763568394E-14  0.88817841970E-15  0.71054273576E-14  0.91188000000E+02  0.91188000000E+02 0.  0.
    9900012    2    3    3    0    0 -0.99587597708E+01 -0.46779832085E+01 -0.35138597594E+02  0.54367062153E+02  0.39999949791E+02 0.  0.
         12    1    3    3    0    0  0.99587597708E+01  0.46779832085E+01  0.35138597594E+02  0.36820937847E+02  0.00000000000E+00 0. -1.
         11    1    4    4    0    0  0.16014558540E+01  0.42792351448E+01  0.25616618238E+01  0.52381891754E+01  0.51100000000E-03 0. -1.
        -11    1    4    4    0    0  0.69012723640E+01  0.24319221046E+01 -0.24080339952E+01  0.77032741966E+01  0.51100000000E-03 0.  1.
        -12    1    4    4    0    0 -0.18461487989E+02 -0.11389140458E+02 -0.35292225422E+02  0.41425598781E+02  0.00000000000E+00 0.  1.
</event>
<event>
 8    1  0.2458065E-006  0.9118800E+02  0.7816164E-02  0.1184000E+00
        -11   -1    0    0    0    0  0.00000000000E+00  0.00000000000E+00  0.45593999997E+02  0.45594000000E+02  0.51100000000E-03 0.  1.
         11   -1    0    0    0    0 -0.00000000000E+00 -0.00000000000E+00 -0.45593999997E+02  0.45594000000E+02  0.51100000000E-03 0. -1.
         23    2    1    2    0    0  0.00000000000E+00  0.35527136788E-14  0.17763568394E-14  0.91188000000E+02  0.91188000000E+02 0.  0.
    9900012    2    3    3    0    0 -0.21343559597E+02 -0.28038085468E+02 -0.10681640392E+02  0.54367092699E+02  0.40000019426E+02 0.  0.
         12    1    3    3    0    0  0.21343559597E+02  0.28038085468E+02  0.10681640392E+02  0.36820907301E+02  0.00000000000E+00 0. -1.
         11    1    4    4    0    0 -0.14166879049E+02 -0.13838713818E+02 -0.25134003354E+01  0.19963157156E+02  0.51100000000E-03 0.  1.
        -11    1    4    4    0    0 -0.47592637516E+01  0.68009624396E+01  0.48149819312E+01  0.95962353463E+01  0.51100000000E-03 0. -1.
         12    1    4    4    0    0 -0.24174167960E+01 -0.21000334090E+02 -0.12983221988E+02  0.24807700197E+02  0.00000000000E+00 0. -1.
</event>
<event>
 8    1  0.2458065E-006  0.9118800E+02  0.7816164E-02  0.1184000E+00
        -11   -1    0    0    0    0  0.00000000000E+00  0.00000000000E+00  0.45593999997E+02  0.45594000000E+02  0.51100000000E-03 0.  1.
         11   -1    0    0    0    0 -0.00000000000E+00 -0.00000000000E+00 -0.45593999997E+02  0.45594000000E+02  0.51100000000E-03 0. -1.
         23    2    1    2    0    0 -0.17763568394E-14  0.00000000000E+00 -0.15543122345E-14  0.91188000000E+02  0.91188000000E+02 0.  0.
    9900012    2    3    3    0    0  0.13241283321E+02 -0.34341156212E+02 -0.10640745438E+01  0.54367097667E+02  0.40000030751E+02 0.  0.
         12    1    3    3    0    0 -0.13241283321E+02  0.34341156212E+02  0.10640745438E+01  0.36820902333E+02  0.00000000000E+00 0. -1.
         11    1    4    4    0    0 -0.12761855607E+01  0.25192232399E+01  0.47611458188E+01  0.55356702473E+01  0.51100000000E-03 0. -1.
        -11    1    4    4    0    0  0.22606200674E+02 -0.24079023453E+02 -0.66198350598E+01  0.33684742776E+02  0.51100000000E-03 0.  1.
        -12    1    4    4    0    0 -0.80887317923E+01 -0.12781355999E+02  0.79461469726E+00  0.15146684644E+02  0.00000000000E+00 0.  1.
</event>
<event>
 8    1  0.2458065E-006  0.9118800E+02  0.7816164E-02  0.1184000E+00
        -11   -1    0    0    0    0  0.00000000000E+00  0.00000000000E+00  0.45593999997E+02  0.45594000000E+02  0.51100000000E-03 0. -1.
         11   -1    0    0    0    0 -0.00000000000E+00 -0.00000000000E+00 -0.45593999997E+02  0.45594000000E+02  0.51100000000E-03 0.  1.
         23    2    1    2    0    0  0.00000000000E+00  0.00000000000E+00  0.00000000000E+00  0.91188000000E+02  0.91188000000E+02 0.  0.
    9900012    2    3    3    0    0 -0.32374678334E+02  0.12024537297E+02  0.12769895000E+02  0.54367088648E+02  0.40000010192E+02 0.  0.
        -12    1    3    3    0    0  0.32374678334E+02 -0.12024537297E+02 -0.12769895000E+02  0.36820911352E+02  0.00000000000E+00 0.  1.
         11    1    4    4    0    0 -0.25271466323E+02 -0.54713946131E+01  0.16066649127E+02  0.30442082445E+02  0.51100000000E-03 0. -1.
        -11    1    4    4    0    0  0.69318783600E+00  0.12810251540E+02  0.25931850667E+01  0.13088455330E+02  0.51100000000E-03 0.  1.
         12    1    4    4    0    0 -0.77963998475E+01  0.46856803703E+01 -0.58899391943E+01  0.10836550873E+02  0.00000000000E+00 0. -1.
</event>
<event>
 8    1  0.2458065E-006  0.9118800E+02  0.7816164E-02  0.1184000E+00
        -11   -1    0    0    0    0  0.00000000000E+00  0.00000000000E+00  0.45593999997E+02  0.45594000000E+02  0.51100000000E-03 0.  1.
         11   -1    0    0    0    0 -0.00000000000E+00 -0.00000000000E+00 -0.45593999997E+02  0.45594000000E+02  0.51100000000E-03 0. -1.
         23    2    1    2    0    0  0.00000000000E+00  0.00000000000E+00 -0.17763568394E-14  0.91188000000E+02  0.91188000000E+02 0.  0.
    9900012    2    3    3    0    0  0.28831951668E+02 -0.21413562601E+02 -0.81214420353E+01  0.54367083105E+02  0.39999997553E+02 0.  0.
         12    1    3    3    0    0 -0.28831951668E+02  0.21413562601E+02  0.81214420353E+01  0.36820916895E+02  0.00000000000E+00 0. -1.
         11    1    4    4    0    0 -0.78050203003E+01 -0.11262667920E+01 -0.21814226040E+01  0.81820183093E+01  0.51100000000E-03 0. -1.
        -11    1    4    4    0    0  0.23816941295E+02 -0.15058842234E+02 -0.12545491951E+02  0.30844850309E+02  0.51100000000E-03 0.  1.
        -12    1    4    4    0    0  0.12820030674E+02 -0.52284535756E+01  0.66054725193E+01  0.15340214486E+02  0.00000000000E+00 0.  1.
</event>
<event>
 8    1  0.2458065E-006  0.9118800E+02  0.7816164E-02  0.1184000E+00
        -11   -1    0    0    0    0  0.00000000000E+00  0.00000000000E+00  0.45593999997E+02  0.45594000000E+02  0.51100000000E-03 0. -1.
         11   -1    0    0    0    0 -0.00000000000E+00 -0.00000000000E+00 -0.45593999997E+02  0.45594000000E+02  0.51100000000E-03 0.  1.
         23    2    1    2    0    0  0.35527136788E-14  0.00000000000E+00  0.00000000000E+00  0.91188000000E+02  0.91188000000E+02 0.  0.
    9900012    2    3    3    0    0  0.27441906932E+02  0.17879545625E+02  0.16823903023E+02  0.54367080393E+02  0.39999991372E+02 0.  0.
         12    1    3    3    0    0 -0.27441906932E+02 -0.17879545625E+02 -0.16823903023E+02  0.36820919607E+02  0.00000000000E+00 0. -1.
         11    1    4    4    0    0  0.15379576189E+01  0.90128956074E+01  0.11237145821E+02  0.14486926773E+02  0.51100000000E-03 0. -1.
        -11    1    4    4    0    0  0.96528710237E+01  0.12698903974E+02  0.13963808087E+02  0.21199717397E+02  0.51100000000E-03 0.  1.
         12    1    4    4    0    0  0.16251078289E+02 -0.38322539568E+01 -0.83770508855E+01  0.18680436223E+02  0.00000000000E+00 0. -1.
</event>
<event>
 8    1  0.2458065E-006  0.9118800E+02  0.7816164E-02  0.1184000E+00
        -11   -1    0    0    0    0  0.00000000000E+00  0.00000000000E+00  0.45593999997E+02  0.45594000000E+02  0.51100000000E-03 0. -1.
         11   -1    0    0    0    0 -0.00000000000E+00 -0.00000000000E+00 -0.45593999997E+02  0.45594000000E+02  0.51100000000E-03 0.  1.
         23    2    1    2    0    0  0.00000000000E+00  0.00000000000E+00  0.00000000000E+00  0.91188000000E+02  0.91188000000E+02 0.  0.
    9900012    2    3    3    0    0  0.14346889793E+02 -0.11631304827E+02  0.31853727867E+02  0.54367075545E+02  0.39999980320E+02 0.  0.
        -12    1    3    3    0    0 -0.14346889793E+02  0.11631304827E+02 -0.31853727867E+02  0.36820924455E+02  0.00000000000E+00 0.  1.
         11    1    4    4    0    0 -0.21104899983E+01 -0.46097262819E+01  0.30372829758E+02  0.30793059806E+02  0.51100000000E-03 0. -1.
        -11    1    4    4    0    0 -0.88362573647E+00  0.14937692572E+01  0.37403507608E+01  0.41233924275E+01  0.51100000000E-03 0.  1.
        -12    1    4    4    0    0  0.17341005528E+02 -0.85153478019E+01 -0.22594526523E+01  0.19450623311E+02  0.00000000000E+00 0.  1.
</event>
<event>
 8    1  0.2458065E-006  0.9118800E+02  0.7816164E-02  0.1184000E+00
        -11   -1    0    0    0    0  0.00000000000E+00  0.00000000000E+00  0.45593999997E+02  0.45594000000E+02  0.51100000000E-03 0.  1.
         11   -1    0    0    0    0 -0.00000000000E+00 -0.00000000000E+00 -0.45593999997E+02  0.45594000000E+02  0.51100000000E-03 0. -1.
         23    2    1    2    0    0  0.00000000000E+00 -0.55511151231E-15  0.00000000000E+00  0.91188000000E+02  0.91188000000E+02 0.  0.
    9900012    2    3    3    0    0 -0.36243846235E+02  0.37657766739E+00  0.64824008636E+01  0.54367085813E+02  0.40000003728E+02 0.  0.
         12    1    3    3    0    0  0.36243846235E+02 -0.37657766739E+00 -0.64824008636E+01  0.36820914187E+02  0.00000000000E+00 0. -1.
         11    1    4    4    0    0  0.55621143687E+01  0.53206013744E+01 -0.48724104337E+01  0.91096816043E+01  0.51100000000E-03 0. -1.
        -11    1    4    4    0    0 -0.17806360853E+02  0.38967586216E+01  0.50914020349E+01  0.18925474618E+02  0.51100000000E-03 0.  1.
         12    1    4    4    0    0 -0.23999599750E+02 -0.88407823286E+01  0.62634092624E+01  0.26331929590E+02  0.00000000000E+00 0. -1.
</event>
<event>
 8    1  0.2458065E-006  0.9118800E+02  0.7816164E-02  0.1184000E+00
        -11   -1    0    0    0    0  0.00000000000E+00  0.00000000000E+00  0.45593999997E+02  0.45594000000E+02  0.51100000000E-03 0.  1.
         11   -1    0    0    0    0 -0.00000000000E+00 -0.00000000000E+00 -0.45593999997E+02  0.45594000000E+02  0.51100000000E-03 0. -1.
         23    2    1    2    0    0  0.35527136788E-14 -0.35527136788E-14  0.00000000000E+00  0.91188000000E+02  0.91188000000E+02 0.  0.
    9900012    2    3    3    0    0  0.19420236471E+02 -0.30160497337E+02  0.83053228788E+01  0.54367087839E+02  0.40000008347E+02 0.  0.
        -12    1    3    3    0    0 -0.19420236471E+02  0.30160497337E+02 -0.83053228788E+01  0.36820912161E+02  0.00000000000E+00 0.  1.
         11    1    4    4    0    0  0.20743308055E+02 -0.20434262764E+02 -0.14449025601E+01  0.29153587557E+02  0.51100000000E-03 0. -1.
        -11    1    4    4    0    0  0.61533781555E+01 -0.13364183056E+02  0.78842727101E+01  0.16692130119E+02  0.51100000000E-03 0.  1.
        -12    1    4    4    0    0 -0.74764497396E+01  0.36379484827E+01  0.18659527288E+01  0.85213701631E+01  0.00000000000E+00 0.  1.
</event>
<event>
 8    1  0.2458065E-006  0.9118800E+02  0.7816164E-02  0.1184000E+00
        -11   -1    0    0    0    0  0.00000000000E+00  0.00000000000E+00  0.45593999997E+02  0.45594000000E+02  0.51100000000E-03 0.  1.
         11   -1    0    0    0    0 -0.00000000000E+00 -0.00000000000E+00 -0.45593999997E+02  0.45594000000E+02  0.51100000000E-03 0. -1.
         23    2    1    2    0    0 -0.88817841970E-15 -0.35527136788E-14  0.00000000000E+00  0.91188000000E+02  0.91188000000E+02 0.  0.
    9900012    2    3    3    0    0  0.78963252592E+01  0.21803211961E+02  0.28601541172E+02  0.54367079834E+02  0.39999990098E+02 0.  0.
         12    1    3    3    0    0 -0.78963252592E+01 -0.21803211961E+02 -0.28601541172E+02  0.36820920166E+02  0.00000000000E+00 0. -1.
         11    1    4    4    0    0 -0.23369574785E+01  0.20507501290E+01  0.12242826645E+02  0.12631458779E+02  0.51100000000E-03 0. -1.
        -11    1    4    4    0    0  0.10870488701E+02  0.60235322316E+01  0.23248412900E+02  0.26361698879E+02  0.51100000000E-03 0.  1.
        -12    1    4    4    0    0 -0.63720596360E+00  0.13728929600E+02 -0.68896983731E+01  0.15373922176E+02  0.00000000000E+00 0.  1.
</event>
<event>
 8    1  0.2458065E-006  0.9118800E+02  0.7816164E-02  0.1184000E+00
        -11   -1    0    0    0    0  0.00000000000E+00  0.00000000000E+00  0.45593999997E+02  0.45594000000E+02  0.51100000000E-03 0.  1.
         11   -1    0    0    0    0 -0.00000000000E+00 -0.00000000000E+00 -0.45593999997E+02  0.45594000000E+02  0.51100000000E-03 0. -1.
         23    2    1    2    0    0 -0.35527136788E-14 -0.17763568394E-14  0.00000000000E+00  0.91188000000E+02  0.91188000000E+02 0.  0.
    9900012    2    3    3    0    0 -0.19420271042E+02 -0.14793677071E+02 -0.27564109681E+02  0.54367082696E+02  0.39999996621E+02 0.  0.
        -12    1    3    3    0    0  0.19420271042E+02  0.14793677071E+02  0.27564109681E+02  0.36820917304E+02  0.00000000000E+00 0.  1.
         11    1    4    4    0    0  0.30271824552E+01  0.57611502126E+01 -0.17729556892E+02  0.18886287969E+02  0.51100000000E-03 0.  1.
        -11    1    4    4    0    0  0.35267404215E+00 -0.59696738675E+00 -0.46960967424E+01  0.47470068376E+01  0.51100000000E-03 0. -1.
        -12    1    4    4    0    0 -0.22800127539E+02 -0.19957859897E+02 -0.51384560461E+01  0.30733787889E+02  0.00000000000E+00 0.  1.
</event>
<event>
 8    1  0.2458065E-006  0.9118800E+02  0.7816164E-02  0.1184000E+00
        -11   -1    0    0    0    0  0.00000000000E+00  0.00000000000E+00  0.45593999997E+02  0.45594000000E+02  0.51100000000E-03 0.  1.
         11   -1    0    0    0    0 -0.00000000000E+00 -0.00000000000E+00 -0.45593999997E+02  0.45594000000E+02  0.51100000000E-03 0. -1.
         23    2    1    2    0    0 -0.35527136788E-14  0.35527136788E-14  0.17763568394E-14  0.91188000000E+02  0.91188000000E+02 0.  0.
    9900012    2    3    3    0    0 -0.20985367912E+02  0.27836623732E+02  0.11854199957E+02  0.54367009467E+02  0.39999829681E+02 0.  0.
         12    1    3    3    0    0  0.20985367912E+02 -0.27836623732E+02 -0.11854199957E+02  0.36820990533E+02  0.00000000000E+00 0. -1.
         11    1    4    4    0    0 -0.11103019034E+02  0.22899924554E+01  0.69665836832E+01  0.13306178474E+02  0.51100000000E-03 0. -1.
        -11    1    4    4    0    0 -0.90420281559E+01  0.57571673078E+01  0.15301633847E+02  0.18682699142E+02  0.51100000000E-03 0.  1.
        -12    1    4    4    0    0 -0.84032072261E+00  0.19789463969E+02 -0.10414017574E+02  0.22378131851E+02  0.00000000000E+00 0.  1.
</event>
<event>
 8    1  0.2458065E-006  0.9118800E+02  0.7816164E-02  0.1184000E+00
        -11   -1    0    0    0    0  0.00000000000E+00  0.00000000000E+00  0.45593999997E+02  0.45594000000E+02  0.51100000000E-03 0.  1.
         11   -1    0    0    0    0 -0.00000000000E+00 -0.00000000000E+00 -0.45593999997E+02  0.45594000000E+02  0.51100000000E-03 0. -1.
         23    2    1    2    0    0  0.00000000000E+00 -0.17763568394E-14  0.00000000000E+00  0.91188000000E+02  0.91188000000E+02 0.  0.
    9900012    2    3    3    0    0 -0.69181198968E+01  0.10029319211E+02  0.34746699736E+02  0.54367071586E+02  0.39999971294E+02 0.  0.
         12    1    3    3    0    0  0.69181198968E+01 -0.10029319211E+02 -0.34746699736E+02  0.36820928414E+02  0.00000000000E+00 0. -1.
         11    1    4    4    0    0 -0.69824793870E+01  0.10550658676E+02  0.49967177625E+01  0.13602889603E+02  0.51100000000E-03 0. -1.
        -11    1    4    4    0    0  0.93977081822E+01 -0.69537792792E+01  0.35508492614E+01  0.12218039781E+02  0.51100000000E-03 0.  1.
         12    1    4    4    0    0 -0.93333486920E+01  0.64324398146E+01  0.26199132712E+02  0.28546142202E+02  0.00000000000E+00 0. -1.
</event>
<event>
 8    1  0.2458065E-006  0.9118800E+02  0.7816164E-02  0.1184000E+00
        -11   -1    0    0    0    0  0.00000000000E+00  0.00000000000E+00  0.45593999997E+02  0.45594000000E+02  0.51100000000E-03 0.  1.
         11   -1    0    0    0    0 -0.00000000000E+00 -0.00000000000E+00 -0.45593999997E+02  0.45594000000E+02  0.51100000000E-03 0. -1.
         23    2    1    2    0    0  0.00000000000E+00 -0.35527136788E-14  0.00000000000E+00  0.91188000000E+02  0.91188000000E+02 0.  0.
    9900012    2    3    3    0    0 -0.10407449649E+02 -0.21841412122E+02  0.27756414421E+02  0.54367070718E+02  0.39999969317E+02 0.  0.
         12    1    3    3    0    0  0.10407449649E+02  0.21841412122E+02 -0.27756414421E+02  0.36820929282E+02  0.00000000000E+00 0. -1.
         11    1    4    4    0    0 -0.18510097892E+02 -0.21608934339E+02  0.10367386208E+02  0.30282874108E+02  0.51100000000E-03 0. -1.
        -11    1    4    4    0    0  0.11885333016E+02 -0.26398297206E+01  0.12960632338E+02  0.17782233626E+02  0.51100000000E-03 0.  1.
         12    1    4    4    0    0 -0.37826847727E+01  0.24073519372E+01  0.44283958743E+01  0.63019629845E+01  0.00000000000E+00 0. -1.
</event>
<event>
 8    1  0.2458065E-006  0.9118800E+02  0.7816164E-02  0.1184000E+00
        -11   -1    0    0    0    0  0.00000000000E+00  0.00000000000E+00  0.45593999997E+02  0.45594000000E+02  0.51100000000E-03 0. -1.
         11   -1    0    0    0    0 -0.00000000000E+00 -0.00000000000E+00 -0.45593999997E+02  0.45594000000E+02  0.51100000000E-03 0.  1.
         23    2    1    2    0    0  0.35527136788E-14  0.00000000000E+00  0.17763568394E-14  0.91188000000E+02  0.91188000000E+02 0.  0.
    9900012    2    3    3    0    0 -0.16847680608E+02  0.32654621621E+02 -0.23690854680E+01  0.54367065451E+02  0.39999957308E+02 0.  0.
        -12    1    3    3    0    0  0.16847680608E+02 -0.32654621621E+02  0.23690854680E+01  0.36820934549E+02  0.00000000000E+00 0.  1.
         11    1    4    4    0    0  0.65444475427E+01  0.21469252497E+02  0.67944324927E+01  0.23450435168E+02  0.51100000000E-03 0. -1.
        -11    1    4    4    0    0 -0.15107451419E+02  0.87594943641E-01 -0.17516383536E+01  0.15208911810E+02  0.51100000000E-03 0.  1.
         12    1    4    4    0    0 -0.82846767319E+01  0.11097774181E+02 -0.74118796071E+01  0.15707718473E+02  0.00000000000E+00 0. -1.
</event>
<event>
 8    1  0.2458065E-006  0.9118800E+02  0.7816164E-02  0.1184000E+00
        -11   -1    0    0    0    0  0.00000000000E+00  0.00000000000E+00  0.45593999997E+02  0.45594000000E+02  0.51100000000E-03 0.  1.
         11   -1    0    0    0    0 -0.00000000000E+00 -0.00000000000E+00 -0.45593999997E+02  0.45594000000E+02  0.51100000000E-03 0. -1.
         23    2    1    2    0    0  0.35527136788E-14  0.44408920985E-15  0.00000000000E+00  0.91188000000E+02  0.91188000000E+02 0.  0.
    9900012    2    3    3    0    0 -0.16549149545E+02 -0.23488626436E+01  0.32808357261E+02  0.54367084577E+02  0.40000000911E+02 0.  0.
         12    1    3    3    0    0  0.16549149545E+02  0.23488626436E+01 -0.32808357261E+02  0.36820915423E+02  0.00000000000E+00 0. -1.
         11    1    4    4    0    0  0.19508705180E+01  0.10736430112E+02 -0.34405590798E+01  0.11441777587E+02  0.51100000000E-03 0. -1.
        -11    1    4    4    0    0 -0.15101282696E+02 -0.88169711187E+01  0.28773232958E+02  0.33670263645E+02  0.51100000000E-03 0.  1.
         12    1    4    4    0    0 -0.33987373670E+01 -0.42683216363E+01  0.74756833830E+01  0.92550433453E+01  0.00000000000E+00 0. -1.
</event>
<event>
 8    1  0.2458065E-006  0.9118800E+02  0.7816164E-02  0.1184000E+00
        -11   -1    0    0    0    0  0.00000000000E+00  0.00000000000E+00  0.45593999997E+02  0.45594000000E+02  0.51100000000E-03 0.  1.
         11   -1    0    0    0    0 -0.00000000000E+00 -0.00000000000E+00 -0.45593999997E+02  0.45594000000E+02  0.51100000000E-03 0. -1.
         23    2    1    2    0    0 -0.17763568394E-14  0.35527136788E-14  0.00000000000E+00  0.91188000000E+02  0.91188000000E+02 0.  0.
    9900012    2    3    3    0    0  0.91051401864E+01  0.30727527078E+02 -0.18129921424E+02  0.54367101735E+02  0.40000040026E+02 0.  0.
        -12    1    3    3    0    0 -0.91051401864E+01 -0.30727527078E+02  0.18129921424E+02  0.36820898265E+02  0.00000000000E+00 0.  1.
         11    1    4    4    0    0  0.12472707160E+02  0.12364821912E+01 -0.87322994549E+01  0.15275809836E+02  0.51100000000E-03 0. -1.
        -11    1    4    4    0    0  0.71666038399E+01  0.40198983348E+01  0.31577672796E+01  0.88029135900E+01  0.51100000000E-03 0.  1.
         12    1    4    4    0    0 -0.10534170814E+02  0.25471146552E+02 -0.12555389249E+02  0.30288378309E+02  0.00000000000E+00 0. -1.
</event>
<event>
 8    1  0.2458065E-006  0.9118800E+02  0.7816164E-02  0.1184000E+00
        -11   -1    0    0    0    0  0.00000000000E+00  0.00000000000E+00  0.45593999997E+02  0.45594000000E+02  0.51100000000E-03 0.  1.
         11   -1    0    0    0    0 -0.00000000000E+00 -0.00000000000E+00 -0.45593999997E+02  0.45594000000E+02  0.51100000000E-03 0. -1.
         23    2    1    2    0    0 -0.35527136788E-14  0.35527136788E-14  0.00000000000E+00  0.91188000000E+02  0.91188000000E+02 0.  0.
    9900012    2    3    3    0    0  0.30884428977E+02 -0.16519161230E+02 -0.11360001908E+02  0.54367078171E+02  0.39999986307E+02 0.  0.
         12    1    3    3    0    0 -0.30884428977E+02  0.16519161230E+02  0.11360001908E+02  0.36820921829E+02  0.00000000000E+00 0. -1.
         11    1    4    4    0    0 -0.11852794778E+01  0.47966998625E+01  0.25697228109E+01  0.55692632006E+01  0.51100000000E-03 0. -1.
        -11    1    4    4    0    0  0.33780616811E+02 -0.10109665236E+02 -0.87269855196E+01  0.36324863108E+02  0.51100000000E-03 0.  1.
        -12    1    4    4    0    0 -0.17109083563E+01 -0.11206195857E+02 -0.52027391996E+01  0.12472951863E+02  0.00000000000E+00 0.  1.
</event>
<event>
 8    1  0.2458065E-006  0.9118800E+02  0.7816164E-02  0.1184000E+00
        -11   -1    0    0    0    0  0.00000000000E+00  0.00000000000E+00  0.45593999997E+02  0.45594000000E+02  0.51100000000E-03 0. -1.
         11   -1    0    0    0    0 -0.00000000000E+00 -0.00000000000E+00 -0.45593999997E+02  0.45594000000E+02  0.51100000000E-03 0.  1.
         23    2    1    2    0    0  0.00000000000E+00 -0.22204460493E-15  0.00000000000E+00  0.91188000000E+02  0.91188000000E+02 0.  0.
    9900012    2    3    3    0    0  0.47845756729E+01  0.77380799495E+00 -0.36500570465E+02  0.54367046897E+02  0.39999915010E+02 0.  0.
         12    1    3    3    0    0 -0.47845756729E+01 -0.77380799495E+00  0.36500570465E+02  0.36820953103E+02  0.00000000000E+00 0. -1.
         11    1    4    4    0    0 -0.39924509550E+01  0.70096215361E+01  0.20461052289E+01  0.83223197233E+01  0.51100000000E-03 0. -1.
        -11    1    4    4    0    0  0.10670924968E+02 -0.69121005400E+01 -0.71556464147E+01  0.14589347121E+02  0.51100000000E-03 0.  1.
        -12    1    4    4    0    0 -0.18938983402E+01  0.67628699880E+00 -0.31391029279E+02  0.31455380052E+02  0.00000000000E+00 0.  1.
</event>
<event>
 8    1  0.2458065E-006  0.9118800E+02  0.7816164E-02  0.1184000E+00
        -11   -1    0    0    0    0  0.00000000000E+00  0.00000000000E+00  0.45593999997E+02  0.45594000000E+02  0.51100000000E-03 0.  1.
         11   -1    0    0    0    0 -0.00000000000E+00 -0.00000000000E+00 -0.45593999997E+02  0.45594000000E+02  0.51100000000E-03 0. -1.
         23    2    1    2    0    0  0.00000000000E+00  0.00000000000E+00 -0.17763568394E-14  0.91188000000E+02  0.91188000000E+02 0.  0.
    9900012    2    3    3    0    0 -0.23641364169E+02 -0.24577129604E+02 -0.13886380549E+02  0.54367068941E+02  0.39999965264E+02 0.  0.
        -12    1    3    3    0    0  0.23641364169E+02  0.24577129604E+02  0.13886380549E+02  0.36820931059E+02  0.00000000000E+00 0.  1.
         11    1    4    4    0    0 -0.13124766089E+02 -0.14913985176E+02 -0.21600318142E+02  0.29347234670E+02  0.51100000000E-03 0. -1.
        -11    1    4    4    0    0 -0.28643740507E+01 -0.13829331214E+02  0.81323732627E+01  0.16296948661E+02  0.51100000000E-03 0.  1.
         12    1    4    4    0    0 -0.76522240300E+01  0.41661867863E+01 -0.41843566968E+00  0.87228856093E+01  0.00000000000E+00 0. -1.
</event>
<event>
 8    1  0.2458065E-006  0.9118800E+02  0.7816164E-02  0.1184000E+00
        -11   -1    0    0    0    0  0.00000000000E+00  0.00000000000E+00  0.45593999997E+02  0.45594000000E+02  0.51100000000E-03 0. -1.
         11   -1    0    0    0    0 -0.00000000000E+00 -0.00000000000E+00 -0.45593999997E+02  0.45594000000E+02  0.51100000000E-03 0.  1.
         23    2    1    2    0    0  0.00000000000E+00  0.35527136788E-14  0.00000000000E+00  0.91188000000E+02  0.91188000000E+02 0.  0.
    9900012    2    3    3    0    0  0.84125945053E+01 -0.21991467499E+02 -0.28308710652E+02  0.54367088986E+02  0.40000010962E+02 0.  0.
         12    1    3    3    0    0 -0.84125945053E+01  0.21991467499E+02  0.28308710652E+02  0.36820911014E+02  0.00000000000E+00 0. -1.
         11    1    4    4    0    0 -0.59788908761E+01  0.13797746454E+01 -0.57205184326E+01  0.83889955048E+01  0.51100000000E-03 0. -1.
        -11    1    4    4    0    0  0.89764303431E+01 -0.15176163188E+01 -0.21602014972E+02  0.23441981830E+02  0.51100000000E-03 0.  1.
        -12    1    4    4    0    0  0.54150550383E+01 -0.21853625826E+02 -0.98617724730E+00  0.22536111651E+02  0.00000000000E+00 0.  1.
</event>
<event>
 8    1  0.2458065E-006  0.9118800E+02  0.7816164E-02  0.1184000E+00
        -11   -1    0    0    0    0  0.00000000000E+00  0.00000000000E+00  0.45593999997E+02  0.45594000000E+02  0.51100000000E-03 0.  1.
         11   -1    0    0    0    0 -0.00000000000E+00 -0.00000000000E+00 -0.45593999997E+02  0.45594000000E+02  0.51100000000E-03 0. -1.
         23    2    1    2    0    0  0.17763568394E-14  0.17763568394E-14 -0.71054273576E-14  0.91188000000E+02  0.91188000000E+02 0.  0.
    9900012    2    3    3    0    0  0.13420941083E+02  0.98064767755E+01 -0.32855615645E+02  0.54367080325E+02  0.39999991218E+02 0.  0.
        -12    1    3    3    0    0 -0.13420941083E+02 -0.98064767755E+01  0.32855615645E+02  0.36820919675E+02  0.00000000000E+00 0.  1.
         11    1    4    4    0    0  0.20792532192E+02 -0.30126530296E+01 -0.15632154233E+02  0.26187205263E+02  0.51100000000E-03 0. -1.
        -11    1    4    4    0    0  0.21798324043E+01  0.96560168108E+01 -0.14842085552E+02  0.17840342871E+02  0.51100000000E-03 0.  1.
        -12    1    4    4    0    0 -0.95514235138E+01  0.31631129943E+01 -0.23813758592E+01  0.10339532191E+02  0.00000000000E+00 0.  1.
</event>
<event>
 8    1  0.2458065E-006  0.9118800E+02  0.7816164E-02  0.1184000E+00
        -11   -1    0    0    0    0  0.00000000000E+00  0.00000000000E+00  0.45593999997E+02  0.45594000000E+02  0.51100000000E-03 0.  1.
         11   -1    0    0    0    0 -0.00000000000E+00 -0.00000000000E+00 -0.45593999997E+02  0.45594000000E+02  0.51100000000E-03 0. -1.
         23    2    1    2    0    0  0.00000000000E+00  0.00000000000E+00 -0.35527136788E-14  0.91188000000E+02  0.91188000000E+02 0.  0.
    9900012    2    3    3    0    0 -0.51905697026E+01  0.27670095270E+02 -0.23731902604E+02  0.54367090352E+02  0.40000014075E+02 0.  0.
        -12    1    3    3    0    0  0.51905697026E+01 -0.27670095270E+02  0.23731902604E+02  0.36820909648E+02  0.00000000000E+00 0.  1.
         11    1    4    4    0    0  0.14708332463E+02  0.94050778687E+01 -0.67587994279E+01  0.18720894837E+02  0.51100000000E-03 0. -1.
        -11    1    4    4    0    0 -0.18519164217E+02  0.20946028601E+02 -0.16817349439E+02  0.32626964307E+02  0.51100000000E-03 0.  1.
         12    1    4    4    0    0 -0.13797379482E+01 -0.26810111999E+01 -0.15575373769E+00  0.30192312078E+01  0.00000000000E+00 0. -1.
</event>
<event>
 8    1  0.2458065E-006  0.9118800E+02  0.7816164E-02  0.1184000E+00
        -11   -1    0    0    0    0  0.00000000000E+00  0.00000000000E+00  0.45593999997E+02  0.45594000000E+02  0.51100000000E-03 0.  1.
         11   -1    0    0    0    0 -0.00000000000E+00 -0.00000000000E+00 -0.45593999997E+02  0.45594000000E+02  0.51100000000E-03 0. -1.
         23    2    1    2    0    0  0.35527136788E-14  0.00000000000E+00 -0.35527136788E-14  0.91188000000E+02  0.91188000000E+02 0.  0.
    9900012    2    3    3    0    0  0.20493938929E+02 -0.14006149681E+02 -0.27195689665E+02  0.54367091563E+02  0.40000016837E+02 0.  0.
        -12    1    3    3    0    0 -0.20493938929E+02  0.14006149681E+02  0.27195689665E+02  0.36820908437E+02  0.00000000000E+00 0.  1.
         11    1    4    4    0    0 -0.41314407947E+01 -0.13595523699E+02 -0.78346183288E+01  0.16226161354E+02  0.51100000000E-03 0. -1.
        -11    1    4    4    0    0 -0.35322698389E+01  0.22795216314E+01 -0.72044637653E+00  0.42652306298E+01  0.51100000000E-03 0.  1.
         12    1    4    4    0    0  0.28157649563E+02 -0.26901476139E+01 -0.18640624960E+02  0.33875699579E+02  0.00000000000E+00 0. -1.
</event>
<event>
 8    1  0.2458065E-006  0.9118800E+02  0.7816164E-02  0.1184000E+00
        -11   -1    0    0    0    0  0.00000000000E+00  0.00000000000E+00  0.45593999997E+02  0.45594000000E+02  0.51100000000E-03 0. -1.
         11   -1    0    0    0    0 -0.00000000000E+00 -0.00000000000E+00 -0.45593999997E+02  0.45594000000E+02  0.51100000000E-03 0.  1.
         23    2    1    2    0    0  0.00000000000E+00  0.00000000000E+00  0.00000000000E+00  0.91188000000E+02  0.91188000000E+02 0.  0.
    9900012    2    3    3    0    0  0.26609254465E+02  0.24606983634E+02 -0.64979929649E+01  0.54367082313E+02  0.39999995749E+02 0.  0.
         12    1    3    3    0    0 -0.26609254465E+02 -0.24606983634E+02  0.64979929649E+01  0.36820917687E+02  0.00000000000E+00 0. -1.
         11    1    4    4    0    0 -0.97816236740E-01  0.10986614432E+02 -0.46443583095E+01  0.11928341421E+02  0.51100000000E-03 0. -1.
        -11    1    4    4    0    0  0.20221474531E+02  0.64440873366E+01 -0.15092574213E+02  0.26042659051E+02  0.51100000000E-03 0.  1.
         12    1    4    4    0    0  0.64855961713E+01  0.71762818650E+01  0.13238939558E+02  0.16396081841E+02  0.00000000000E+00 0. -1.
</event>
<event>
 8    1  0.2458065E-006  0.9118800E+02  0.7816164E-02  0.1184000E+00
        -11   -1    0    0    0    0  0.00000000000E+00  0.00000000000E+00  0.45593999997E+02  0.45594000000E+02  0.51100000000E-03 0. -1.
         11   -1    0    0    0    0 -0.00000000000E+00 -0.00000000000E+00 -0.45593999997E+02  0.45594000000E+02  0.51100000000E-03 0.  1.
         23    2    1    2    0    0  0.00000000000E+00  0.35527136788E-14 -0.17763568394E-14  0.91188000000E+02  0.91188000000E+02 0.  0.
    9900012    2    3    3    0    0  0.22289182028E+02  0.25725316921E+02 -0.14042032872E+02  0.54367105750E+02  0.40000049179E+02 0.  0.
         12    1    3    3    0    0 -0.22289182028E+02 -0.25725316921E+02  0.14042032872E+02  0.36820894250E+02  0.00000000000E+00 0. -1.
         11    1    4    4    0    0 -0.91470262701E+01  0.12817006696E+02 -0.73878256335E+01  0.17393208965E+02  0.51100000000E-03 0. -1.
        -11    1    4    4    0    0  0.86600442281E+01  0.77164976383E+01 -0.71176741705E+01  0.13608893698E+02  0.51100000000E-03 0.  1.
         12    1    4    4    0    0  0.22776164070E+02  0.51918125863E+01  0.46346693170E+00  0.23365003087E+02  0.00000000000E+00 0. -1.
</event>
<event>
 8    1  0.2458065E-006  0.9118800E+02  0.7816164E-02  0.1184000E+00
        -11   -1    0    0    0    0  0.00000000000E+00  0.00000000000E+00  0.45593999997E+02  0.45594000000E+02  0.51100000000E-03 0. -1.
         11   -1    0    0    0    0 -0.00000000000E+00 -0.00000000000E+00 -0.45593999997E+02  0.45594000000E+02  0.51100000000E-03 0.  1.
         23    2    1    2    0    0  0.35527136788E-14 -0.44408920985E-15  0.00000000000E+00  0.91188000000E+02  0.91188000000E+02 0.  0.
    9900012    2    3    3    0    0  0.25535661919E+02 -0.20123594719E+01  0.26451088097E+02  0.54367086353E+02  0.40000004959E+02 0.  0.
        -12    1    3    3    0    0 -0.25535661919E+02  0.20123594719E+01 -0.26451088097E+02  0.36820913647E+02  0.00000000000E+00 0.  1.
         11    1    4    4    0    0  0.14031573766E+02 -0.75439251468E+01  0.11788549091E+02  0.19818318771E+02  0.51100000000E-03 0. -1.
        -11    1    4    4    0    0  0.13153217859E+02  0.15958521410E+02  0.10586329205E+02  0.23232561459E+02  0.51100000000E-03 0.  1.
        -12    1    4    4    0    0 -0.16491297061E+01 -0.10426955735E+02  0.40762098010E+01  0.11316206123E+02  0.00000000000E+00 0.  1.
</event>
<event>
 8    1  0.2458065E-006  0.9118800E+02  0.7816164E-02  0.1184000E+00
        -11   -1    0    0    0    0  0.00000000000E+00  0.00000000000E+00  0.45593999997E+02  0.45594000000E+02  0.51100000000E-03 0. -1.
         11   -1    0    0    0    0 -0.00000000000E+00 -0.00000000000E+00 -0.45593999997E+02  0.45594000000E+02  0.51100000000E-03 0.  1.
         23    2    1    2    0    0  0.17763568394E-14  0.00000000000E+00  0.00000000000E+00  0.91188000000E+02  0.91188000000E+02 0.  0.
    9900012    2    3    3    0    0  0.88545648774E+01  0.24254153565E+02 -0.26250861776E+02  0.54367149544E+02  0.40000149015E+02 0.  0.
         12    1    3    3    0    0 -0.88545648774E+01 -0.24254153565E+02  0.26250861776E+02  0.36820850456E+02  0.00000000000E+00 0. -1.
         11    1    4    4    0    0 -0.10104581024E+01  0.14883825709E+02  0.43239206019E-01  0.14918148786E+02  0.51100000000E-03 0. -1.
        -11    1    4    4    0    0 -0.32006117455E+01  0.86943357152E+01  0.86290248987E+00  0.93048369164E+01  0.51100000000E-03 0.  1.
        -12    1    4    4    0    0  0.13065634725E+02  0.67599214081E+00 -0.27157003471E+02  0.30144163841E+02  0.00000000000E+00 0.  1.
</event>
<event>
 8    1  0.2458065E-006  0.9118800E+02  0.7816164E-02  0.1184000E+00
        -11   -1    0    0    0    0  0.00000000000E+00  0.00000000000E+00  0.45593999997E+02  0.45594000000E+02  0.51100000000E-03 0. -1.
         11   -1    0    0    0    0 -0.00000000000E+00 -0.00000000000E+00 -0.45593999997E+02  0.45594000000E+02  0.51100000000E-03 0.  1.
         23    2    1    2    0    0  0.17763568394E-14  0.00000000000E+00  0.00000000000E+00  0.91188000000E+02  0.91188000000E+02 0.  0.
    9900012    2    3    3    0    0 -0.15357902626E+02  0.16004042379E+02 -0.29390233588E+02  0.54367076928E+02  0.39999983473E+02 0.  0.
         12    1    3    3    0    0  0.15357902626E+02 -0.16004042379E+02  0.29390233588E+02  0.36820923072E+02  0.00000000000E+00 0. -1.
         11    1    4    4    0    0 -0.38631881065E+01  0.96079741903E+01 -0.23557936478E+02  0.25733514368E+02  0.51100000000E-03 0. -1.
        -11    1    4    4    0    0 -0.13878485597E+02  0.91948800970E+01 -0.12635814131E+02  0.20900286636E+02  0.51100000000E-03 0.  1.
         12    1    4    4    0    0  0.23837710774E+01 -0.27988119085E+01  0.68035170212E+01  0.77332759233E+01  0.00000000000E+00 0. -1.
</event>
<event>
 8    1  0.2458065E-006  0.9118800E+02  0.7816164E-02  0.1184000E+00
        -11   -1    0    0    0    0  0.00000000000E+00  0.00000000000E+00  0.45593999997E+02  0.45594000000E+02  0.51100000000E-03 0. -1.
         11   -1    0    0    0    0 -0.00000000000E+00 -0.00000000000E+00 -0.45593999997E+02  0.45594000000E+02  0.51100000000E-03 0.  1.
         23    2    1    2    0    0 -0.71054273576E-14  0.53290705182E-14  0.35527136788E-14  0.91188000000E+02  0.91188000000E+02 0.  0.
    9900012    2    3    3    0    0 -0.31569496955E+02  0.14134206823E+02  0.12623937304E+02  0.54367180705E+02  0.40000220052E+02 0.  0.
         12    1    3    3    0    0  0.31569496955E+02 -0.14134206823E+02 -0.12623937304E+02  0.36820819295E+02  0.00000000000E+00 0. -1.
         11    1    4    4    0    0 -0.38152401014E+01  0.18112082831E+02  0.16058024473E+02  0.24504361892E+02  0.51100000000E-03 0. -1.
        -11    1    4    4    0    0 -0.14707291852E+02 -0.28273972565E+00  0.27404108953E+01  0.14963095519E+02  0.51100000000E-03 0.  1.
        -12    1    4    4    0    0 -0.13046965001E+02 -0.36951362817E+01 -0.61744980643E+01  0.14899723294E+02  0.00000000000E+00 0.  1.
</event>
<event>
 8    1  0.2458065E-006  0.9118800E+02  0.7816164E-02  0.1184000E+00
        -11   -1    0    0    0    0  0.00000000000E+00  0.00000000000E+00  0.45593999997E+02  0.45594000000E+02  0.51100000000E-03 0. -1.
         11   -1    0    0    0    0 -0.00000000000E+00 -0.00000000000E+00 -0.45593999997E+02  0.45594000000E+02  0.51100000000E-03 0.  1.
         23    2    1    2    0    0  0.00000000000E+00 -0.22204460493E-14  0.00000000000E+00  0.91188000000E+02  0.91188000000E+02 0.  0.
    9900012    2    3    3    0    0 -0.33670068439E+02  0.23650248116E+01 -0.14714555411E+02  0.54367014245E+02  0.39999840574E+02 0.  0.
         12    1    3    3    0    0  0.33670068439E+02 -0.23650248116E+01  0.14714555411E+02  0.36820985755E+02  0.00000000000E+00 0. -1.
         11    1    4    4    0    0 -0.18767514630E+02 -0.12663185687E+02 -0.97640376667E+01  0.24655877777E+02  0.51100000000E-03 0. -1.
        -11    1    4    4    0    0 -0.10739860358E+02  0.19005395370E+02  0.42542015828E+00  0.21834162138E+02  0.51100000000E-03 0.  1.
        -12    1    4    4    0    0 -0.41626934511E+01 -0.39771848715E+01 -0.53759379021E+01  0.78769743301E+01  0.00000000000E+00 0.  1.
</event>
<event>
 8    1  0.2458065E-006  0.9118800E+02  0.7816164E-02  0.1184000E+00
        -11   -1    0    0    0    0  0.00000000000E+00  0.00000000000E+00  0.45593999997E+02  0.45594000000E+02  0.51100000000E-03 0. -1.
         11   -1    0    0    0    0 -0.00000000000E+00 -0.00000000000E+00 -0.45593999997E+02  0.45594000000E+02  0.51100000000E-03 0.  1.
         23    2    1    2    0    0  0.35527136788E-14 -0.88817841970E-15  0.35527136788E-14  0.91188000000E+02  0.91188000000E+02 0.  0.
    9900012    2    3    3    0    0 -0.24882310205E+02 -0.24512404962E+01 -0.27030397115E+02  0.54367077832E+02  0.39999985533E+02 0.  0.
         12    1    3    3    0    0  0.24882310205E+02  0.24512404962E+01  0.27030397115E+02  0.36820922168E+02  0.00000000000E+00 0. -1.
         11    1    4    4    0    0  0.28259147497E+01 -0.45780362955E+01 -0.67840496202E+01  0.86583797564E+01  0.51100000000E-03 0. -1.
        -11    1    4    4    0    0 -0.14368203644E+02 -0.94120952616E+01  0.20288311625E+01  0.17295923489E+02  0.51100000000E-03 0.  1.
         12    1    4    4    0    0 -0.13340021311E+02  0.11538891061E+02 -0.22275178657E+02  0.28412774587E+02  0.00000000000E+00 0. -1.
</event>
<event>
 8    1  0.2458065E-006  0.9118800E+02  0.7816164E-02  0.1184000E+00
        -11   -1    0    0    0    0  0.00000000000E+00  0.00000000000E+00  0.45593999997E+02  0.45594000000E+02  0.51100000000E-03 0. -1.
         11   -1    0    0    0    0 -0.00000000000E+00 -0.00000000000E+00 -0.45593999997E+02  0.45594000000E+02  0.51100000000E-03 0.  1.
         23    2    1    2    0    0  0.00000000000E+00 -0.17763568394E-14  0.71054273576E-14  0.91188000000E+02  0.91188000000E+02 0.  0.
    9900012    2    3    3    0    0 -0.26681547157E+01  0.11545083065E+02 -0.34862173975E+02  0.54367093345E+02  0.40000020899E+02 0.  0.
         12    1    3    3    0    0  0.26681547157E+01 -0.11545083065E+02  0.34862173975E+02  0.36820906655E+02  0.00000000000E+00 0. -1.
         11    1    4    4    0    0  0.15215153382E+01  0.22600231932E+01  0.86434113531E+01  0.90626306246E+01  0.51100000000E-03 0. -1.
        -11    1    4    4    0    0  0.15576647798E+01  0.53679288021E+01 -0.22174446468E+02  0.22868035675E+02  0.51100000000E-03 0.  1.
         12    1    4    4    0    0 -0.57473348337E+01  0.39171310702E+01 -0.21331138860E+02  0.22436427046E+02  0.00000000000E+00 0. -1.
</event>
<event>
 8    1  0.2458065E-006  0.9118800E+02  0.7816164E-02  0.1184000E+00
        -11   -1    0    0    0    0  0.00000000000E+00  0.00000000000E+00  0.45593999997E+02  0.45594000000E+02  0.51100000000E-03 0.  1.
         11   -1    0    0    0    0 -0.00000000000E+00 -0.00000000000E+00 -0.45593999997E+02  0.45594000000E+02  0.51100000000E-03 0. -1.
         23    2    1    2    0    0  0.35527136788E-14  0.22204460493E-15  0.35527136788E-14  0.91188000000E+02  0.91188000000E+02 0.  0.
    9900012    2    3    3    0    0 -0.28086907044E+02 -0.59351083971E+00 -0.23802361818E+02  0.54367095197E+02  0.40000025120E+02 0.  0.
         12    1    3    3    0    0  0.28086907044E+02  0.59351083971E+00  0.23802361818E+02  0.36820904803E+02  0.00000000000E+00 0. -1.
         11    1    4    4    0    0 -0.46465156162E+01  0.14813465050E+01  0.93880564809E+01  0.10579229631E+02  0.51100000000E-03 0.  1.
        -11    1    4    4    0    0  0.21777530818E+01  0.14387790175E+01 -0.41609699232E+01  0.49118595775E+01  0.51100000000E-03 0. -1.
        -12    1    4    4    0    0 -0.25618144509E+02 -0.35136363621E+01 -0.29029448376E+02  0.38876005988E+02  0.00000000000E+00 0.  1.
</event>
<event>
 8    1  0.2458065E-006  0.9118800E+02  0.7816164E-02  0.1184000E+00
        -11   -1    0    0    0    0  0.00000000000E+00  0.00000000000E+00  0.45593999997E+02  0.45594000000E+02  0.51100000000E-03 0. -1.
         11   -1    0    0    0    0 -0.00000000000E+00 -0.00000000000E+00 -0.45593999997E+02  0.45594000000E+02  0.51100000000E-03 0.  1.
         23    2    1    2    0    0 -0.17763568394E-14  0.00000000000E+00  0.00000000000E+00  0.91188000000E+02  0.91188000000E+02 0.  0.
    9900012    2    3    3    0    0 -0.51770767891E+01 -0.32142692606E+02  0.17199604062E+02  0.54367065846E+02  0.39999958210E+02 0.  0.
         12    1    3    3    0    0  0.51770767891E+01  0.32142692606E+02 -0.17199604062E+02  0.36820934154E+02  0.00000000000E+00 0. -1.
         11    1    4    4    0    0 -0.43347689971E+01 -0.15349369750E+02  0.10163094003E+02  0.18912478790E+02  0.51100000000E-03 0. -1.
        -11    1    4    4    0    0  0.90760894361E+01 -0.20943886015E+02  0.41951810910E+00  0.22829755946E+02  0.51100000000E-03 0.  1.
         12    1    4    4    0    0 -0.99183972281E+01  0.41505631590E+01  0.66169919498E+01  0.12624831111E+02  0.00000000000E+00 0. -1.
</event>
<event>
 8    1  0.2458065E-006  0.9118800E+02  0.7816164E-02  0.1184000E+00
        -11   -1    0    0    0    0  0.00000000000E+00  0.00000000000E+00  0.45593999997E+02  0.45594000000E+02  0.51100000000E-03 0.  1.
         11   -1    0    0    0    0 -0.00000000000E+00 -0.00000000000E+00 -0.45593999997E+02  0.45594000000E+02  0.51100000000E-03 0. -1.
         23    2    1    2    0    0 -0.17763568394E-14  0.35527136788E-14  0.71054273576E-14  0.91188000000E+02  0.91188000000E+02 0.  0.
    9900012    2    3    3    0    0  0.92934257349E+01 -0.18250965585E+02 -0.30599277137E+02  0.54367064814E+02  0.39999955857E+02 0.  0.
        -12    1    3    3    0    0 -0.92934257349E+01  0.18250965585E+02  0.30599277137E+02  0.36820935186E+02  0.00000000000E+00 0.  1.
         11    1    4    4    0    0  0.35759813047E+00  0.14174087993E+01 -0.11232431693E+02  0.11327155253E+02  0.51100000000E-03 0. -1.
        -11    1    4    4    0    0 -0.11501656725E+02 -0.33869884177E+01 -0.35877467605E+01  0.12515259687E+02  0.51100000000E-03 0.  1.
         12    1    4    4    0    0  0.20437484329E+02 -0.16281385967E+02 -0.15779098683E+02  0.30524649874E+02  0.00000000000E+00 0. -1.
</event>
<event>
 8    1  0.2458065E-006  0.9118800E+02  0.7816164E-02  0.1184000E+00
        -11   -1    0    0    0    0  0.00000000000E+00  0.00000000000E+00  0.45593999997E+02  0.45594000000E+02  0.51100000000E-03 0.  1.
         11   -1    0    0    0    0 -0.00000000000E+00 -0.00000000000E+00 -0.45593999997E+02  0.45594000000E+02  0.51100000000E-03 0. -1.
         23    2    1    2    0    0  0.00000000000E+00  0.00000000000E+00 -0.17763568394E-14  0.91188000000E+02  0.91188000000E+02 0.  0.
    9900012    2    3    3    0    0  0.13350771303E+02  0.33226790759E+02  0.85742453278E+01  0.54367076580E+02  0.39999982680E+02 0.  0.
         12    1    3    3    0    0 -0.13350771303E+02 -0.33226790759E+02 -0.85742453278E+01  0.36820923420E+02  0.00000000000E+00 0. -1.
         11    1    4    4    0    0  0.15833201159E+01  0.19627310957E+02 -0.10709985282E+02  0.22415218558E+02  0.51100000000E-03 0. -1.
        -11    1    4    4    0    0  0.95934004251E+01  0.16086945155E+02  0.21073954376E+02  0.28194586173E+02  0.51100000000E-03 0.  1.
        -12    1    4    4    0    0  0.21740507618E+01 -0.24874653523E+01 -0.17897237664E+01  0.37572718498E+01  0.00000000000E+00 0.  1.
</event>
<event>
 8    1  0.2458065E-006  0.9118800E+02  0.7816164E-02  0.1184000E+00
        -11   -1    0    0    0    0  0.00000000000E+00  0.00000000000E+00  0.45593999997E+02  0.45594000000E+02  0.51100000000E-03 0. -1.
         11   -1    0    0    0    0 -0.00000000000E+00 -0.00000000000E+00 -0.45593999997E+02  0.45594000000E+02  0.51100000000E-03 0.  1.
         23    2    1    2    0    0  0.00000000000E+00  0.00000000000E+00  0.00000000000E+00  0.91188000000E+02  0.91188000000E+02 0.  0.
    9900012    2    3    3    0    0 -0.91704414252E+01  0.12578611865E+02  0.33368647289E+02  0.54367012856E+02  0.39999837408E+02 0.  0.
        -12    1    3    3    0    0  0.91704414252E+01 -0.12578611865E+02 -0.33368647289E+02  0.36820987144E+02  0.00000000000E+00 0.  1.
         11    1    4    4    0    0  0.47373841554E+00  0.40495507079E+01  0.20995736648E+02  0.21387946294E+02  0.51100000000E-03 0. -1.
        -11    1    4    4    0    0 -0.54436903680E+01  0.16335618135E+02 -0.64330466030E+00  0.17230787150E+02  0.51100000000E-03 0.  1.
        -12    1    4    4    0    0 -0.42004894727E+01 -0.78065569784E+01  0.13016215301E+02  0.15748279412E+02  0.00000000000E+00 0.  1.
</event>
<event>
 8    1  0.2458065E-006  0.9118800E+02  0.7816164E-02  0.1184000E+00
        -11   -1    0    0    0    0  0.00000000000E+00  0.00000000000E+00  0.45593999997E+02  0.45594000000E+02  0.51100000000E-03 0.  1.
         11   -1    0    0    0    0 -0.00000000000E+00 -0.00000000000E+00 -0.45593999997E+02  0.45594000000E+02  0.51100000000E-03 0. -1.
         23    2    1    2    0    0  0.00000000000E+00  0.00000000000E+00  0.00000000000E+00  0.91188000000E+02  0.91188000000E+02 0.  0.
    9900012    2    3    3    0    0 -0.95383714924E+01 -0.10980376842E+02 -0.33826479229E+02  0.54367083345E+02  0.39999998101E+02 0.  0.
        -12    1    3    3    0    0  0.95383714924E+01  0.10980376842E+02  0.33826479229E+02  0.36820916655E+02  0.00000000000E+00 0.  1.
         11    1    4    4    0    0  0.85783138651E+00  0.68993449424E+01 -0.12401172587E+02  0.14217099462E+02  0.51100000000E-03 0. -1.
        -11    1    4    4    0    0 -0.15113592235E+02 -0.13463143161E+02 -0.25464931971E+02  0.32529058618E+02  0.51100000000E-03 0.  1.
        -12    1    4    4    0    0  0.47173893566E+01 -0.44165786231E+01  0.40396253297E+01  0.76209252640E+01  0.00000000000E+00 0.  1.
</event>
<event>
 8    1  0.2458065E-006  0.9118800E+02  0.7816164E-02  0.1184000E+00
        -11   -1    0    0    0    0  0.00000000000E+00  0.00000000000E+00  0.45593999997E+02  0.45594000000E+02  0.51100000000E-03 0. -1.
         11   -1    0    0    0    0 -0.00000000000E+00 -0.00000000000E+00 -0.45593999997E+02  0.45594000000E+02  0.51100000000E-03 0.  1.
         23    2    1    2    0    0  0.00000000000E+00  0.88817841970E-15  0.00000000000E+00  0.91188000000E+02  0.91188000000E+02 0.  0.
    9900012    2    3    3    0    0 -0.17084927196E+02  0.72327093372E+01  0.31805203300E+02  0.54367112197E+02  0.40000063875E+02 0.  0.
        -12    1    3    3    0    0  0.17084927196E+02 -0.72327093372E+01 -0.31805203300E+02  0.36820887803E+02  0.00000000000E+00 0.  1.
         11    1    4    4    0    0 -0.15794928790E+02  0.75449290542E+01  0.19831490554E+02  0.26451724854E+02  0.51100000000E-03 0. -1.
        -11    1    4    4    0    0  0.90328766481E+01  0.54304603950E+01  0.12172091357E+02  0.16101011425E+02  0.51100000000E-03 0.  1.
         12    1    4    4    0    0 -0.10322875054E+02 -0.57426801120E+01 -0.19837861044E+00  0.11814375918E+02  0.00000000000E+00 0. -1.
</event>
<event>
 8    1  0.2458065E-006  0.9118800E+02  0.7816164E-02  0.1184000E+00
        -11   -1    0    0    0    0  0.00000000000E+00  0.00000000000E+00  0.45593999997E+02  0.45594000000E+02  0.51100000000E-03 0.  1.
         11   -1    0    0    0    0 -0.00000000000E+00 -0.00000000000E+00 -0.45593999997E+02  0.45594000000E+02  0.51100000000E-03 0. -1.
         23    2    1    2    0    0  0.00000000000E+00  0.35527136788E-14  0.00000000000E+00  0.91188000000E+02  0.91188000000E+02 0.  0.
    9900012    2    3    3    0    0 -0.54499849597E+00 -0.82756067905E+01 -0.35874732894E+02  0.54367093556E+02  0.40000021380E+02 0.  0.
        -12    1    3    3    0    0  0.54499849597E+00  0.82756067905E+01  0.35874732894E+02  0.36820906444E+02  0.00000000000E+00 0.  1.
         11    1    4    4    0    0 -0.66979956141E+01  0.32153908740E+01 -0.55949648951E+00  0.74508335307E+01  0.51100000000E-03 0. -1.
        -11    1    4    4    0    0 -0.25833892038E+01  0.84383976445E+01 -0.73669361325E+01  0.11495747163E+02  0.51100000000E-03 0.  1.
         12    1    4    4    0    0  0.87363863219E+01 -0.19929395309E+02 -0.27948300272E+02  0.35420512863E+02  0.00000000000E+00 0. -1.
</event>
<event>
 8    1  0.2458065E-006  0.9118800E+02  0.7816164E-02  0.1184000E+00
        -11   -1    0    0    0    0  0.00000000000E+00  0.00000000000E+00  0.45593999997E+02  0.45594000000E+02  0.51100000000E-03 0.  1.
         11   -1    0    0    0    0 -0.00000000000E+00 -0.00000000000E+00 -0.45593999997E+02  0.45594000000E+02  0.51100000000E-03 0. -1.
         23    2    1    2    0    0  0.17763568394E-14  0.00000000000E+00 -0.17763568394E-14  0.91188000000E+02  0.91188000000E+02 0.  0.
    9900012    2    3    3    0    0 -0.14479614618E+02 -0.31979613025E+02 -0.11109676692E+02  0.54367084681E+02  0.40000001147E+02 0.  0.
        -12    1    3    3    0    0  0.14479614618E+02  0.31979613025E+02  0.11109676692E+02  0.36820915319E+02  0.00000000000E+00 0.  1.
         11    1    4    4    0    0  0.29683342251E+01  0.12452210176E+01  0.58889948277E+01  0.67113220603E+01  0.51100000000E-03 0. -1.
        -11    1    4    4    0    0 -0.12307134366E+02 -0.11250353700E+02  0.36474758454E+01  0.17068687559E+02  0.51100000000E-03 0.  1.
         12    1    4    4    0    0 -0.51408144776E+01 -0.21974480343E+02 -0.20646147365E+02  0.30587075062E+02  0.00000000000E+00 0. -1.
</event>
<event>
 8    1  0.2458065E-006  0.9118800E+02  0.7816164E-02  0.1184000E+00
        -11   -1    0    0    0    0  0.00000000000E+00  0.00000000000E+00  0.45593999997E+02  0.45594000000E+02  0.51100000000E-03 0. -1.
         11   -1    0    0    0    0 -0.00000000000E+00 -0.00000000000E+00 -0.45593999997E+02  0.45594000000E+02  0.51100000000E-03 0.  1.
         23    2    1    2    0    0  0.88817841970E-15  0.00000000000E+00  0.00000000000E+00  0.91188000000E+02  0.91188000000E+02 0.  0.
    9900012    2    3    3    0    0  0.68495841857E+01 -0.11602254122E+02  0.34267345284E+02  0.54367081257E+02  0.39999993342E+02 0.  0.
        -12    1    3    3    0    0 -0.68495841857E+01  0.11602254122E+02 -0.34267345284E+02  0.36820918743E+02  0.00000000000E+00 0.  1.
         11    1    4    4    0    0  0.11837323023E+02 -0.22392845547E+01  0.10223329377E+02  0.15800413775E+02  0.51100000000E-03 0. -1.
        -11    1    4    4    0    0 -0.78863123882E+01 -0.13642307993E+02  0.27951484532E+02  0.32087255699E+02  0.51100000000E-03 0.  1.
        -12    1    4    4    0    0  0.28985735511E+01  0.42793384261E+01 -0.39074686247E+01  0.64794117827E+01  0.00000000000E+00 0.  1.
</event>
<event>
 8    1  0.2458065E-006  0.9118800E+02  0.7816164E-02  0.1184000E+00
        -11   -1    0    0    0    0  0.00000000000E+00  0.00000000000E+00  0.45593999997E+02  0.45594000000E+02  0.51100000000E-03 0.  1.
         11   -1    0    0    0    0 -0.00000000000E+00 -0.00000000000E+00 -0.45593999997E+02  0.45594000000E+02  0.51100000000E-03 0. -1.
         23    2    1    2    0    0  0.35527136788E-14  0.17763568394E-14  0.00000000000E+00  0.91188000000E+02  0.91188000000E+02 0.  0.
    9900012    2    3    3    0    0 -0.27799566171E+02 -0.10448925452E+02  0.21766644224E+02  0.54367045054E+02  0.39999910809E+02 0.  0.
        -12    1    3    3    0    0  0.27799566171E+02  0.10448925452E+02 -0.21766644224E+02  0.36820954946E+02  0.00000000000E+00 0.  1.
         11    1    4    4    0    0 -0.16466042695E+02  0.52091406343E+01  0.17477970339E+02  0.24571226172E+02  0.51100000000E-03 0. -1.
        -11    1    4    4    0    0 -0.12950515846E+02  0.76193840580E+00  0.23307890839E+01  0.13180629303E+02  0.51100000000E-03 0.  1.
         12    1    4    4    0    0  0.16169923699E+01 -0.16420004492E+02  0.19578848015E+01  0.16615189579E+02  0.00000000000E+00 0. -1.
</event>
<event>
 8    1  0.2458065E-006  0.9118800E+02  0.7816164E-02  0.1184000E+00
        -11   -1    0    0    0    0  0.00000000000E+00  0.00000000000E+00  0.45593999997E+02  0.45594000000E+02  0.51100000000E-03 0. -1.
         11   -1    0    0    0    0 -0.00000000000E+00 -0.00000000000E+00 -0.45593999997E+02  0.45594000000E+02  0.51100000000E-03 0.  1.
         23    2    1    2    0    0 -0.35527136788E-14  0.00000000000E+00 -0.35527136788E-14  0.91188000000E+02  0.91188000000E+02 0.  0.
    9900012    2    3    3    0    0  0.19634105507E+02  0.24884635310E+02  0.18735986529E+02  0.54367077079E+02  0.39999983817E+02 0.  0.
         12    1    3    3    0    0 -0.19634105507E+02 -0.24884635310E+02 -0.18735986529E+02  0.36820922921E+02  0.00000000000E+00 0. -1.
         11    1    4    4    0    0 -0.14532734389E+01  0.54096229051E+00 -0.29906694942E+01  0.33687903130E+01  0.51100000000E-03 0. -1.
        -11    1    4    4    0    0  0.14217586600E+02  0.15487954591E+02 -0.53494966631E+01  0.21694091844E+02  0.51100000000E-03 0.  1.
        -12    1    4    4    0    0  0.68697923459E+01  0.88557184284E+01  0.27076152686E+02  0.29304194922E+02  0.00000000000E+00 0.  1.
</event>
<event>
 8    1  0.2458065E-006  0.9118800E+02  0.7816164E-02  0.1184000E+00
        -11   -1    0    0    0    0  0.00000000000E+00  0.00000000000E+00  0.45593999997E+02  0.45594000000E+02  0.51100000000E-03 0. -1.
         11   -1    0    0    0    0 -0.00000000000E+00 -0.00000000000E+00 -0.45593999997E+02  0.45594000000E+02  0.51100000000E-03 0.  1.
         23    2    1    2    0    0 -0.88817841970E-15  0.00000000000E+00 -0.16098233857E-14  0.91188000000E+02  0.91188000000E+02 0.  0.
    9900012    2    3    3    0    0  0.59229877573E+01  0.36339768259E+02  0.34141493890E+00  0.54367121341E+02  0.40000084720E+02 0.  0.
         12    1    3    3    0    0 -0.59229877573E+01 -0.36339768259E+02 -0.34141493890E+00  0.36820878659E+02  0.00000000000E+00 0. -1.
         11    1    4    4    0    0 -0.56938222780E+01  0.15254956241E+02  0.10621489852E+02  0.19440919448E+02  0.51100000000E-03 0. -1.
        -11    1    4    4    0    0  0.20086209555E+01  0.23318554961E+02 -0.59252739398E+01  0.24143289650E+02  0.51100000000E-03 0.  1.
        -12    1    4    4    0    0  0.96081890798E+01 -0.22337429421E+01 -0.43548009733E+01  0.10782912243E+02  0.00000000000E+00 0.  1.
</event>
<event>
 8    1  0.2458065E-006  0.9118800E+02  0.7816164E-02  0.1184000E+00
        -11   -1    0    0    0    0  0.00000000000E+00  0.00000000000E+00  0.45593999997E+02  0.45594000000E+02  0.51100000000E-03 0.  1.
         11   -1    0    0    0    0 -0.00000000000E+00 -0.00000000000E+00 -0.45593999997E+02  0.45594000000E+02  0.51100000000E-03 0. -1.
         23    2    1    2    0    0  0.00000000000E+00  0.44408920985E-15  0.00000000000E+00  0.91188000000E+02  0.91188000000E+02 0.  0.
    9900012    2    3    3    0    0 -0.36272879514E+02  0.17211615185E+01  0.60908345421E+01  0.54367048755E+02  0.39999919246E+02 0.  0.
         12    1    3    3    0    0  0.36272879514E+02 -0.17211615185E+01 -0.60908345421E+01  0.36820951245E+02  0.00000000000E+00 0. -1.
         11    1    4    4    0    0 -0.11699403584E+02 -0.14451347688E+02  0.30970862150E+01  0.18849653512E+02  0.51100000000E-03 0. -1.
        -11    1    4    4    0    0 -0.72923540044E+01  0.51011792155E+01  0.10409580766E+02  0.13695248384E+02  0.51100000000E-03 0.  1.
         12    1    4    4    0    0 -0.17281121925E+02  0.11071329991E+02 -0.74158324389E+01  0.21822146859E+02  0.00000000000E+00 0. -1.
</event>
<event>
 8    1  0.2458065E-006  0.9118800E+02  0.7816164E-02  0.1184000E+00
        -11   -1    0    0    0    0  0.00000000000E+00  0.00000000000E+00  0.45593999997E+02  0.45594000000E+02  0.51100000000E-03 0. -1.
         11   -1    0    0    0    0 -0.00000000000E+00 -0.00000000000E+00 -0.45593999997E+02  0.45594000000E+02  0.51100000000E-03 0.  1.
         23    2    1    2    0    0  0.00000000000E+00  0.00000000000E+00  0.16653345369E-15  0.91188000000E+02  0.91188000000E+02 0.  0.
    9900012    2    3    3    0    0 -0.25771903969E+02  0.26295217773E+02  0.38740242225E+00  0.54367087565E+02  0.40000007722E+02 0.  0.
        -12    1    3    3    0    0  0.25771903969E+02 -0.26295217773E+02 -0.38740242225E+00  0.36820912435E+02  0.00000000000E+00 0.  1.
         11    1    4    4    0    0 -0.16655709827E+02  0.22519446002E+01 -0.56887688918E+01  0.17743900814E+02  0.51100000000E-03 0. -1.
        -11    1    4    4    0    0 -0.14411432972E+02  0.21677480399E+02 -0.26287089098E+01  0.26163192993E+02  0.51100000000E-03 0.  1.
        -12    1    4    4    0    0  0.52952388307E+01  0.23657927733E+01  0.87048802238E+01  0.10459993759E+02  0.00000000000E+00 0.  1.
</event>
<event>
 8    1  0.2458065E-006  0.9118800E+02  0.7816164E-02  0.1184000E+00
        -11   -1    0    0    0    0  0.00000000000E+00  0.00000000000E+00  0.45593999997E+02  0.45594000000E+02  0.51100000000E-03 0. -1.
         11   -1    0    0    0    0 -0.00000000000E+00 -0.00000000000E+00 -0.45593999997E+02  0.45594000000E+02  0.51100000000E-03 0.  1.
         23    2    1    2    0    0  0.17763568394E-14  0.00000000000E+00  0.00000000000E+00  0.91188000000E+02  0.91188000000E+02 0.  0.
    9900012    2    3    3    0    0 -0.96810408822E+01 -0.35147821383E+01  0.35351143085E+02  0.54367087960E+02  0.40000008621E+02 0.  0.
        -12    1    3    3    0    0  0.96810408822E+01  0.35147821383E+01 -0.35351143085E+02  0.36820912040E+02  0.00000000000E+00 0.  1.
         11    1    4    4    0    0 -0.60936582255E+01  0.61879982526E+01  0.14136824070E+02  0.16591376916E+02  0.51100000000E-03 0. -1.
        -11    1    4    4    0    0 -0.70468343017E+01 -0.15116301513E+02  0.25197136574E+02  0.30216818775E+02  0.51100000000E-03 0.  1.
        -12    1    4    4    0    0  0.34594516450E+01  0.54135211222E+01 -0.39828175577E+01  0.75588922682E+01  0.00000000000E+00 0.  1.
</event>
<event>
 8    1  0.2458065E-006  0.9118800E+02  0.7816164E-02  0.1184000E+00
        -11   -1    0    0    0    0  0.00000000000E+00  0.00000000000E+00  0.45593999997E+02  0.45594000000E+02  0.51100000000E-03 0.  1.
         11   -1    0    0    0    0 -0.00000000000E+00 -0.00000000000E+00 -0.45593999997E+02  0.45594000000E+02  0.51100000000E-03 0. -1.
         23    2    1    2    0    0  0.00000000000E+00 -0.35527136788E-14  0.00000000000E+00  0.91188000000E+02  0.91188000000E+02 0.  0.
    9900012    2    3    3    0    0  0.10021792346E+02  0.31558151851E+02  0.16106704491E+02  0.54367092900E+02  0.40000019884E+02 0.  0.
         12    1    3    3    0    0 -0.10021792346E+02 -0.31558151851E+02 -0.16106704491E+02  0.36820907100E+02  0.00000000000E+00 0. -1.
         11    1    4    4    0    0  0.11102359149E+02  0.83967635474E+01  0.64803563639E+01  0.15354577025E+02  0.51100000000E-03 0. -1.
        -11    1    4    4    0    0 -0.71249170816E+01  0.27751338870E+02  0.27707245714E+01  0.28785033740E+02  0.51100000000E-03 0.  1.
         12    1    4    4    0    0  0.60443502787E+01 -0.45899505663E+01  0.68556235558E+01  0.10227482135E+02  0.00000000000E+00 0. -1.
</event>
<event>
 8    1  0.2458065E-006  0.9118800E+02  0.7816164E-02  0.1184000E+00
        -11   -1    0    0    0    0  0.00000000000E+00  0.00000000000E+00  0.45593999997E+02  0.45594000000E+02  0.51100000000E-03 0. -1.
         11   -1    0    0    0    0 -0.00000000000E+00 -0.00000000000E+00 -0.45593999997E+02  0.45594000000E+02  0.51100000000E-03 0.  1.
         23    2    1    2    0    0  0.71054273576E-14 -0.35527136788E-14 -0.17763568394E-14  0.91188000000E+02  0.91188000000E+02 0.  0.
    9900012    2    3    3    0    0 -0.29274139911E+02  0.19909515672E+02  0.10120054903E+02  0.54367087558E+02  0.40000007705E+02 0.  0.
        -12    1    3    3    0    0  0.29274139911E+02 -0.19909515672E+02 -0.10120054903E+02  0.36820912442E+02  0.00000000000E+00 0.  1.
         11    1    4    4    0    0  0.42596262119E+01  0.66593061494E+01 -0.56752007457E+01  0.97313245564E+01  0.51100000000E-03 0.  1.
        -11    1    4    4    0    0 -0.19697946299E+02  0.75607360464E+01 -0.22237613814E+01  0.21216006526E+02  0.51100000000E-03 0. -1.
         12    1    4    4    0    0 -0.13835819824E+02  0.56894734767E+01  0.18019017030E+02  0.23419756476E+02  0.00000000000E+00 0. -1.
</event>
<event>
 8    1  0.2458065E-006  0.9118800E+02  0.7816164E-02  0.1184000E+00
        -11   -1    0    0    0    0  0.00000000000E+00  0.00000000000E+00  0.45593999997E+02  0.45594000000E+02  0.51100000000E-03 0. -1.
         11   -1    0    0    0    0 -0.00000000000E+00 -0.00000000000E+00 -0.45593999997E+02  0.45594000000E+02  0.51100000000E-03 0.  1.
         23    2    1    2    0    0  0.00000000000E+00  0.13322676296E-14 -0.17763568394E-14  0.91188000000E+02  0.91188000000E+02 0.  0.
    9900012    2    3    3    0    0 -0.35509217257E+02 -0.38468822455E+01 -0.89485439442E+01  0.54367089474E+02  0.40000012075E+02 0.  0.
         12    1    3    3    0    0  0.35509217257E+02  0.38468822455E+01  0.89485439442E+01  0.36820910526E+02  0.00000000000E+00 0. -1.
         11    1    4    4    0    0 -0.46399939632E+01 -0.76616169636E+01 -0.86000353651E+00  0.89983067751E+01  0.51100000000E-03 0. -1.
        -11    1    4    4    0    0 -0.30073261432E+02  0.12728090183E+02  0.92287235229E+00  0.32668899989E+02  0.51100000000E-03 0.  1.
        -12    1    4    4    0    0 -0.79596186226E+00 -0.89133554648E+01 -0.90114127600E+01  0.12699882710E+02  0.00000000000E+00 0.  1.
</event>
<event>
 8    1  0.2458065E-006  0.9118800E+02  0.7816164E-02  0.1184000E+00
        -11   -1    0    0    0    0  0.00000000000E+00  0.00000000000E+00  0.45593999997E+02  0.45594000000E+02  0.51100000000E-03 0. -1.
         11   -1    0    0    0    0 -0.00000000000E+00 -0.00000000000E+00 -0.45593999997E+02  0.45594000000E+02  0.51100000000E-03 0.  1.
         23    2    1    2    0    0  0.17763568394E-14  0.35527136788E-14  0.00000000000E+00  0.91188000000E+02  0.91188000000E+02 0.  0.
    9900012    2    3    3    0    0  0.13721842102E+02  0.31583776744E+02 -0.13036699414E+02  0.54367089695E+02  0.40000012578E+02 0.  0.
         12    1    3    3    0    0 -0.13721842102E+02 -0.31583776744E+02  0.13036699414E+02  0.36820910305E+02  0.00000000000E+00 0. -1.
         11    1    4    4    0    0  0.18897487897E+02  0.60500842803E+01  0.60833552087E+01  0.20753934072E+02  0.51100000000E-03 0. -1.
        -11    1    4    4    0    0  0.24252247148E+01  0.10216292839E+02 -0.63446950611E+01  0.12268231738E+02  0.51100000000E-03 0.  1.
        -12    1    4    4    0    0 -0.76008705097E+01  0.15317399624E+02 -0.12775359561E+02  0.21344923886E+02  0.00000000000E+00 0.  1.
</event>
<event>
 8    1  0.2458065E-006  0.9118800E+02  0.7816164E-02  0.1184000E+00
        -11   -1    0    0    0    0  0.00000000000E+00  0.00000000000E+00  0.45593999997E+02  0.45594000000E+02  0.51100000000E-03 0.  1.
         11   -1    0    0    0    0 -0.00000000000E+00 -0.00000000000E+00 -0.45593999997E+02  0.45594000000E+02  0.51100000000E-03 0. -1.
         23    2    1    2    0    0  0.00000000000E+00  0.00000000000E+00  0.00000000000E+00  0.91188000000E+02  0.91188000000E+02 0.  0.
    9900012    2    3    3    0    0  0.16724832086E+02 -0.17533251733E+02  0.27724426860E+02  0.54367098743E+02  0.40000033205E+02 0.  0.
         12    1    3    3    0    0 -0.16724832086E+02  0.17533251733E+02 -0.27724426860E+02  0.36820901257E+02  0.00000000000E+00 0. -1.
         11    1    4    4    0    0 -0.70475466612E+00 -0.44442559309E+01  0.49481301409E+01  0.66882046971E+01  0.51100000000E-03 0. -1.
        -11    1    4    4    0    0 -0.89546589315E+01 -0.10179633446E+02  0.14617989450E+01  0.13636264521E+02  0.51100000000E-03 0.  1.
        -12    1    4    4    0    0  0.26384245683E+02 -0.29093623555E+01  0.21314497774E+02  0.34042629525E+02  0.00000000000E+00 0.  1.
</event>
<event>
 8    1  0.2458065E-006  0.9118800E+02  0.7816164E-02  0.1184000E+00
        -11   -1    0    0    0    0  0.00000000000E+00  0.00000000000E+00  0.45593999997E+02  0.45594000000E+02  0.51100000000E-03 0.  1.
         11   -1    0    0    0    0 -0.00000000000E+00 -0.00000000000E+00 -0.45593999997E+02  0.45594000000E+02  0.51100000000E-03 0. -1.
         23    2    1    2    0    0 -0.70776717820E-15  0.00000000000E+00  0.17763568394E-14  0.91188000000E+02  0.91188000000E+02 0.  0.
    9900012    2    3    3    0    0  0.50758384430E-01 -0.34145191160E+02  0.13779817078E+02  0.54367081836E+02  0.39999994662E+02 0.  0.
         12    1    3    3    0    0 -0.50758384430E-01  0.34145191160E+02 -0.13779817078E+02  0.36820918164E+02  0.00000000000E+00 0. -1.
         11    1    4    4    0    0 -0.96894908009E+01 -0.56222393805E+01  0.35628944882E+01  0.11755425344E+02  0.51100000000E-03 0. -1.
        -11    1    4    4    0    0  0.27617799191E+01 -0.90995833244E+01  0.18158254235E+02  0.20497610644E+02  0.51100000000E-03 0.  1.
        -12    1    4    4    0    0  0.69784692662E+01 -0.19423368455E+02 -0.79413316459E+01  0.22114045847E+02  0.00000000000E+00 0.  1.
</event>
<event>
 8    1  0.2458065E-006  0.9118800E+02  0.7816164E-02  0.1184000E+00
        -11   -1    0    0    0    0  0.00000000000E+00  0.00000000000E+00  0.45593999997E+02  0.45594000000E+02  0.51100000000E-03 0.  1.
         11   -1    0    0    0    0 -0.00000000000E+00 -0.00000000000E+00 -0.45593999997E+02  0.45594000000E+02  0.51100000000E-03 0. -1.
         23    2    1    2    0    0  0.00000000000E+00  0.00000000000E+00  0.35527136788E-14  0.91188000000E+02  0.91188000000E+02 0.  0.
    9900012    2    3    3    0    0 -0.19988514576E+02  0.47153468078E+01  0.30561513126E+02  0.54367064446E+02  0.39999955018E+02 0.  0.
         12    1    3    3    0    0  0.19988514576E+02 -0.47153468078E+01 -0.30561513126E+02  0.36820935554E+02  0.00000000000E+00 0. -1.
         11    1    4    4    0    0 -0.75469385249E+01 -0.10547510932E+01  0.43577065000E+01  0.87782906746E+01  0.51100000000E-03 0. -1.
        -11    1    4    4    0    0  0.30828937867E+00  0.86571526320E+01 -0.61964356820E+01  0.10650687746E+02  0.51100000000E-03 0.  1.
        -12    1    4    4    0    0 -0.12749865430E+02 -0.28870547310E+01  0.32400242308E+02  0.34938086026E+02  0.00000000000E+00 0.  1.
</event>
<event>
 8    1  0.2458065E-006  0.9118800E+02  0.7816164E-02  0.1184000E+00
        -11   -1    0    0    0    0  0.00000000000E+00  0.00000000000E+00  0.45593999997E+02  0.45594000000E+02  0.51100000000E-03 0.  1.
         11   -1    0    0    0    0 -0.00000000000E+00 -0.00000000000E+00 -0.45593999997E+02  0.45594000000E+02  0.51100000000E-03 0. -1.
         23    2    1    2    0    0 -0.44408920985E-15  0.00000000000E+00  0.55511151231E-15  0.91188000000E+02  0.91188000000E+02 0.  0.
    9900012    2    3    3    0    0  0.37973119374E+01  0.36611161932E+02  0.99021884637E+00  0.54367118841E+02  0.40000079021E+02 0.  0.
        -12    1    3    3    0    0 -0.37973119374E+01 -0.36611161932E+02 -0.99021884637E+00  0.36820881159E+02  0.00000000000E+00 0.  1.
         11    1    4    4    0    0  0.98441355611E+01  0.32076219639E+02  0.13822659598E+02  0.36288521462E+02  0.51100000000E-03 0. -1.
        -11    1    4    4    0    0 -0.17127961977E+01 -0.58357357612E+00  0.14375727501E+01  0.23110267429E+01  0.51100000000E-03 0.  1.
         12    1    4    4    0    0 -0.43340274259E+01  0.51185158693E+01 -0.14270013501E+02  0.15767570636E+02  0.00000000000E+00 0. -1.
</event>
<event>
 8    1  0.2458065E-006  0.9118800E+02  0.7816164E-02  0.1184000E+00
        -11   -1    0    0    0    0  0.00000000000E+00  0.00000000000E+00  0.45593999997E+02  0.45594000000E+02  0.51100000000E-03 0. -1.
         11   -1    0    0    0    0 -0.00000000000E+00 -0.00000000000E+00 -0.45593999997E+02  0.45594000000E+02  0.51100000000E-03 0.  1.
         23    2    1    2    0    0 -0.35527136788E-14  0.00000000000E+00  0.35527136788E-14  0.91188000000E+02  0.91188000000E+02 0.  0.
    9900012    2    3    3    0    0 -0.16566839076E+02 -0.24658379301E+02  0.21755155974E+02  0.54367046208E+02  0.39999913441E+02 0.  0.
        -12    1    3    3    0    0  0.16566839076E+02  0.24658379301E+02 -0.21755155974E+02  0.36820953792E+02  0.00000000000E+00 0.  1.
         11    1    4    4    0    0  0.40662952542E+01  0.19322211270E-01  0.11799354245E+02  0.12480380254E+02  0.51100000000E-03 0. -1.
        -11    1    4    4    0    0  0.18108721747E+01  0.21918385548E+01 -0.33852860455E+01  0.44208117076E+01  0.51100000000E-03 0.  1.
         12    1    4    4    0    0 -0.22444006505E+02 -0.26869540067E+02  0.13341087774E+02  0.37465854246E+02  0.00000000000E+00 0. -1.
</event>
<event>
 8    1  0.2458065E-006  0.9118800E+02  0.7816164E-02  0.1184000E+00
        -11   -1    0    0    0    0  0.00000000000E+00  0.00000000000E+00  0.45593999997E+02  0.45594000000E+02  0.51100000000E-03 0.  1.
         11   -1    0    0    0    0 -0.00000000000E+00 -0.00000000000E+00 -0.45593999997E+02  0.45594000000E+02  0.51100000000E-03 0. -1.
         23    2    1    2    0    0 -0.35527136788E-14  0.24980018054E-15  0.00000000000E+00  0.91188000000E+02  0.91188000000E+02 0.  0.
    9900012    2    3    3    0    0  0.16775390764E+02  0.22649279206E+00  0.32776736528E+02  0.54367088934E+02  0.40000010844E+02 0.  0.
         12    1    3    3    0    0 -0.16775390764E+02 -0.22649279206E+00 -0.32776736528E+02  0.36820911066E+02  0.00000000000E+00 0. -1.
         11    1    4    4    0    0  0.44141576425E+01 -0.75317178790E+01  0.21532497427E+01  0.89915541825E+01  0.51100000000E-03 0. -1.
        -11    1    4    4    0    0  0.80597170405E+01 -0.60303469318E+01 -0.14782822425E+01  0.10173958991E+02  0.51100000000E-03 0.  1.
        -12    1    4    4    0    0  0.43015160812E+01  0.13788557603E+02  0.32101769028E+02  0.35201575761E+02  0.00000000000E+00 0.  1.
</event>
<event>
 8    1  0.2458065E-006  0.9118800E+02  0.7816164E-02  0.1184000E+00
        -11   -1    0    0    0    0  0.00000000000E+00  0.00000000000E+00  0.45593999997E+02  0.45594000000E+02  0.51100000000E-03 0.  1.
         11   -1    0    0    0    0 -0.00000000000E+00 -0.00000000000E+00 -0.45593999997E+02  0.45594000000E+02  0.51100000000E-03 0. -1.
         23    2    1    2    0    0 -0.35527136788E-14  0.35527136788E-14 -0.17763568394E-14  0.91188000000E+02  0.91188000000E+02 0.  0.
    9900012    2    3    3    0    0  0.28435473383E+02 -0.17638035200E+02 -0.15365665098E+02  0.54367080727E+02  0.39999992134E+02 0.  0.
        -12    1    3    3    0    0 -0.28435473383E+02  0.17638035200E+02  0.15365665098E+02  0.36820919273E+02  0.00000000000E+00 0.  1.
         11    1    4    4    0    0  0.58191146834E+01  0.11588282922E+02 -0.10708992353E+01  0.13011426602E+02  0.51100000000E-03 0. -1.
        -11    1    4    4    0    0 -0.48606124289E+00  0.19463241818E+00  0.85036922097E+00  0.99863175552E+00  0.51100000000E-03 0.  1.
         12    1    4    4    0    0  0.23102419942E+02 -0.29420950540E+02 -0.15145135084E+02  0.40357022370E+02  0.00000000000E+00 0. -1.
</event>
<event>
 8    1  0.2458065E-006  0.9118800E+02  0.7816164E-02  0.1184000E+00
        -11   -1    0    0    0    0  0.00000000000E+00  0.00000000000E+00  0.45593999997E+02  0.45594000000E+02  0.51100000000E-03 0. -1.
         11   -1    0    0    0    0 -0.00000000000E+00 -0.00000000000E+00 -0.45593999997E+02  0.45594000000E+02  0.51100000000E-03 0.  1.
         23    2    1    2    0    0  0.00000000000E+00  0.17763568394E-14  0.00000000000E+00  0.91188000000E+02  0.91188000000E+02 0.  0.
    9900012    2    3    3    0    0  0.16979615823E+02  0.89916159398E+01  0.31410522958E+02  0.54367116480E+02  0.40000073640E+02 0.  0.
        -12    1    3    3    0    0 -0.16979615823E+02 -0.89916159398E+01 -0.31410522958E+02  0.36820883520E+02  0.00000000000E+00 0.  1.
         11    1    4    4    0    0  0.23793937893E+02 -0.31333544954E+01  0.17552426287E+02  0.29733097041E+02  0.51100000000E-03 0. -1.
        -11    1    4    4    0    0 -0.94783031754E+01  0.25664356929E+01  0.38697164255E+01  0.10554597516E+02  0.51100000000E-03 0.  1.
         12    1    4    4    0    0  0.26639811050E+01  0.95585347422E+01  0.99883802456E+01  0.14079421923E+02  0.00000000000E+00 0. -1.
</event>
<event>
 8    1  0.2458065E-006  0.9118800E+02  0.7816164E-02  0.1184000E+00
        -11   -1    0    0    0    0  0.00000000000E+00  0.00000000000E+00  0.45593999997E+02  0.45594000000E+02  0.51100000000E-03 0.  1.
         11   -1    0    0    0    0 -0.00000000000E+00 -0.00000000000E+00 -0.45593999997E+02  0.45594000000E+02  0.51100000000E-03 0. -1.
         23    2    1    2    0    0  0.35527136788E-14 -0.44408920985E-15  0.00000000000E+00  0.91188000000E+02  0.91188000000E+02 0.  0.
    9900012    2    3    3    0    0 -0.16516690068E+02 -0.14836617253E+01  0.32875192085E+02  0.54367074461E+02  0.39999977848E+02 0.  0.
         12    1    3    3    0    0  0.16516690068E+02  0.14836617253E+01 -0.32875192085E+02  0.36820925539E+02  0.00000000000E+00 0. -1.
         11    1    4    4    0    0 -0.25011981435E+02 -0.34522682521E+01  0.17299067811E+02  0.30606782235E+02  0.51100000000E-03 0. -1.
        -11    1    4    4    0    0  0.83836472635E+01  0.72477579112E+01  0.14697451021E+02  0.18407351872E+02  0.51100000000E-03 0.  1.
         12    1    4    4    0    0  0.11164410282E+00 -0.52791513844E+01  0.87867325307E+00  0.53529403537E+01  0.00000000000E+00 0. -1.
</event>
<event>
 8    1  0.2458065E-006  0.9118800E+02  0.7816164E-02  0.1184000E+00
        -11   -1    0    0    0    0  0.00000000000E+00  0.00000000000E+00  0.45593999997E+02  0.45594000000E+02  0.51100000000E-03 0.  1.
         11   -1    0    0    0    0 -0.00000000000E+00 -0.00000000000E+00 -0.45593999997E+02  0.45594000000E+02  0.51100000000E-03 0. -1.
         23    2    1    2    0    0 -0.17763568394E-14  0.17763568394E-14  0.71054273576E-14  0.91188000000E+02  0.91188000000E+02 0.  0.
    9900012    2    3    3    0    0  0.10740881412E+02 -0.82710382182E+01 -0.34234552152E+02  0.54367066175E+02  0.39999958959E+02 0.  0.
        -12    1    3    3    0    0 -0.10740881412E+02  0.82710382182E+01  0.34234552152E+02  0.36820933825E+02  0.00000000000E+00 0.  1.
         11    1    4    4    0    0 -0.21776989393E+00 -0.24788145423E+01 -0.14536234412E+02  0.14747679695E+02  0.51100000000E-03 0. -1.
        -11    1    4    4    0    0 -0.62401320220E+01 -0.12342797965E+02 -0.17998598008E+01  0.13947164759E+02  0.51100000000E-03 0.  1.
        -12    1    4    4    0    0  0.17198783328E+02  0.65505742887E+01 -0.17898457939E+02  0.25672221721E+02  0.00000000000E+00 0.  1.
</event>
<event>
 8    1  0.2458065E-006  0.9118800E+02  0.7816164E-02  0.1184000E+00
        -11   -1    0    0    0    0  0.00000000000E+00  0.00000000000E+00  0.45593999997E+02  0.45594000000E+02  0.51100000000E-03 0.  1.
         11   -1    0    0    0    0 -0.00000000000E+00 -0.00000000000E+00 -0.45593999997E+02  0.45594000000E+02  0.51100000000E-03 0. -1.
         23    2    1    2    0    0  0.00000000000E+00 -0.17763568394E-14  0.00000000000E+00  0.91188000000E+02  0.91188000000E+02 0.  0.
    9900012    2    3    3    0    0  0.32702556277E+02 -0.12809671459E+02  0.11055807892E+02  0.54367139634E+02  0.40000126425E+02 0.  0.
        -12    1    3    3    0    0 -0.32702556277E+02  0.12809671459E+02 -0.11055807892E+02  0.36820860366E+02  0.00000000000E+00 0.  1.
         11    1    4    4    0    0 -0.19496296261E+01 -0.92517713201E+01 -0.71669539687E+01  0.11864297606E+02  0.51100000000E-03 0. -1.
        -11    1    4    4    0    0 -0.17040206667E+00  0.20127444195E+01 -0.10902751829E+01  0.22954034936E+01  0.51100000000E-03 0.  1.
        -12    1    4    4    0    0  0.34822587970E+02 -0.55706445581E+01  0.19313037043E+02  0.40207438535E+02  0.00000000000E+00 0.  1.
</event>
<event>
 8    1  0.2458065E-006  0.9118800E+02  0.7816164E-02  0.1184000E+00
        -11   -1    0    0    0    0  0.00000000000E+00  0.00000000000E+00  0.45593999997E+02  0.45594000000E+02  0.51100000000E-03 0.  1.
         11   -1    0    0    0    0 -0.00000000000E+00 -0.00000000000E+00 -0.45593999997E+02  0.45594000000E+02  0.51100000000E-03 0. -1.
         23    2    1    2    0    0 -0.88817841970E-15  0.00000000000E+00  0.00000000000E+00  0.91188000000E+02  0.91188000000E+02 0.  0.
    9900012    2    3    3    0    0  0.42560383162E+01  0.34631678683E+02 -0.11760631035E+02  0.54367089190E+02  0.40000011426E+02 0.  0.
        -12    1    3    3    0    0 -0.42560383162E+01 -0.34631678683E+02  0.11760631035E+02  0.36820910810E+02  0.00000000000E+00 0.  1.
         11    1    4    4    0    0  0.93910287540E+01  0.77776215746E+01  0.80720593981E+01  0.14623302008E+02  0.51100000000E-03 0. -1.
        -11    1    4    4    0    0 -0.53305666568E+01 -0.51709672371E+00  0.86818729953E+00  0.54255026820E+01  0.51100000000E-03 0.  1.
         12    1    4    4    0    0  0.19557621906E+00  0.27371153832E+02 -0.20700877733E+02  0.34318284500E+02  0.00000000000E+00 0. -1.
</event>
<event>
 8    1  0.2458065E-006  0.9118800E+02  0.7816164E-02  0.1184000E+00
        -11   -1    0    0    0    0  0.00000000000E+00  0.00000000000E+00  0.45593999997E+02  0.45594000000E+02  0.51100000000E-03 0. -1.
         11   -1    0    0    0    0 -0.00000000000E+00 -0.00000000000E+00 -0.45593999997E+02  0.45594000000E+02  0.51100000000E-03 0.  1.
         23    2    1    2    0    0 -0.13322676296E-14  0.71054273576E-14  0.35527136788E-14  0.91188000000E+02  0.91188000000E+02 0.  0.
    9900012    2    3    3    0    0  0.15825637085E+01  0.28088785787E+02  0.23754886354E+02  0.54367095332E+02  0.40000025428E+02 0.  0.
        -12    1    3    3    0    0 -0.15825637085E+01 -0.28088785787E+02 -0.23754886354E+02  0.36820904668E+02  0.00000000000E+00 0.  1.
         11    1    4    4    0    0  0.81839691620E+01  0.22443721458E+02  0.10400346442E+02  0.26055041556E+02  0.51100000000E-03 0. -1.
        -11    1    4    4    0    0 -0.12748789574E+02  0.55070616623E+01  0.16367027945E+02  0.21464830951E+02  0.51100000000E-03 0.  1.
        -12    1    4    4    0    0  0.61473841206E+01  0.13800266710E+00 -0.30124880330E+01  0.68472228248E+01  0.00000000000E+00 0.  1.
</event>
<event>
 8    1  0.2458065E-006  0.9118800E+02  0.7816164E-02  0.1184000E+00
        -11   -1    0    0    0    0  0.00000000000E+00  0.00000000000E+00  0.45593999997E+02  0.45594000000E+02  0.51100000000E-03 0.  1.
         11   -1    0    0    0    0 -0.00000000000E+00 -0.00000000000E+00 -0.45593999997E+02  0.45594000000E+02  0.51100000000E-03 0. -1.
         23    2    1    2    0    0  0.00000000000E+00  0.00000000000E+00  0.00000000000E+00  0.91188000000E+02  0.91188000000E+02 0.  0.
    9900012    2    3    3    0    0  0.21017652874E+02  0.11776069144E+02  0.27845329196E+02  0.54367083460E+02  0.39999998363E+02 0.  0.
         12    1    3    3    0    0 -0.21017652874E+02 -0.11776069144E+02 -0.27845329196E+02  0.36820916540E+02  0.00000000000E+00 0. -1.
         11    1    4    4    0    0  0.74353212103E+00 -0.16334341770E+01  0.19294246535E+02  0.19377535881E+02  0.51100000000E-03 0. -1.
        -11    1    4    4    0    0  0.81611965581E+01  0.12014180613E+02  0.15264803374E+02  0.21070355654E+02  0.51100000000E-03 0.  1.
         12    1    4    4    0    0  0.12112924195E+02  0.13953227079E+01 -0.67137207131E+01  0.13919191924E+02  0.00000000000E+00 0. -1.
</event>
<event>
 8    1  0.2458065E-006  0.9118800E+02  0.7816164E-02  0.1184000E+00
        -11   -1    0    0    0    0  0.00000000000E+00  0.00000000000E+00  0.45593999997E+02  0.45594000000E+02  0.51100000000E-03 0. -1.
         11   -1    0    0    0    0 -0.00000000000E+00 -0.00000000000E+00 -0.45593999997E+02  0.45594000000E+02  0.51100000000E-03 0.  1.
         23    2    1    2    0    0  0.11102230246E-15 -0.14210854715E-13 -0.17763568394E-14  0.91188000000E+02  0.91188000000E+02 0.  0.
    9900012    2    3    3    0    0 -0.85966325268E+00  0.35713336807E+02  0.89217887304E+01  0.54367085278E+02  0.40000002509E+02 0.  0.
         12    1    3    3    0    0  0.85966325268E+00 -0.35713336807E+02 -0.89217887304E+01  0.36820914722E+02  0.00000000000E+00 0. -1.
         11    1    4    4    0    0  0.51340718978E+01  0.36532915449E+00 -0.35361120803E+01  0.62446976347E+01  0.51100000000E-03 0. -1.
        -11    1    4    4    0    0  0.82961506221E+01  0.21292862110E+02 -0.26744517757E+01  0.23007928732E+02  0.51100000000E-03 0.  1.
         12    1    4    4    0    0 -0.14289885773E+02  0.14055145543E+02  0.15132352586E+02  0.25114458912E+02  0.00000000000E+00 0. -1.
</event>
<event>
 8    1  0.2458065E-006  0.9118800E+02  0.7816164E-02  0.1184000E+00
        -11   -1    0    0    0    0  0.00000000000E+00  0.00000000000E+00  0.45593999997E+02  0.45594000000E+02  0.51100000000E-03 0. -1.
         11   -1    0    0    0    0 -0.00000000000E+00 -0.00000000000E+00 -0.45593999997E+02  0.45594000000E+02  0.51100000000E-03 0.  1.
         23    2    1    2    0    0  0.44408920985E-15  0.00000000000E+00  0.17763568394E-14  0.91188000000E+02  0.91188000000E+02 0.  0.
    9900012    2    3    3    0    0 -0.39921040653E+01  0.34978339819E+02  0.10786828127E+02  0.54367125318E+02  0.40000093787E+02 0.  0.
        -12    1    3    3    0    0  0.39921040653E+01 -0.34978339819E+02 -0.10786828127E+02  0.36820874682E+02  0.00000000000E+00 0.  1.
         11    1    4    4    0    0 -0.14114179485E+02  0.17832078699E+02  0.18957118271E+02  0.29606847631E+02  0.51100000000E-03 0. -1.
        -11    1    4    4    0    0  0.20528189124E+00  0.11970553984E+02 -0.25471366482E+01  0.12240269961E+02  0.51100000000E-03 0.  1.
         12    1    4    4    0    0  0.99167935280E+01  0.51757071350E+01 -0.56231534956E+01  0.12520007726E+02  0.00000000000E+00 0. -1.
</event>
<event>
 8    1  0.2458065E-006  0.9118800E+02  0.7816164E-02  0.1184000E+00
        -11   -1    0    0    0    0  0.00000000000E+00  0.00000000000E+00  0.45593999997E+02  0.45594000000E+02  0.51100000000E-03 0.  1.
         11   -1    0    0    0    0 -0.00000000000E+00 -0.00000000000E+00 -0.45593999997E+02  0.45594000000E+02  0.51100000000E-03 0. -1.
         23    2    1    2    0    0  0.71054273576E-14  0.84654505628E-15  0.00000000000E+00  0.91188000000E+02  0.91188000000E+02 0.  0.
    9900012    2    3    3    0    0 -0.33837887591E+02 -0.98992668735E-01 -0.14517821402E+02  0.54367087811E+02  0.40000008282E+02 0.  0.
        -12    1    3    3    0    0  0.33837887591E+02  0.98992668735E-01  0.14517821402E+02  0.36820912189E+02  0.00000000000E+00 0.  1.
         11    1    4    4    0    0 -0.10201473525E+02 -0.29918797233E+01 -0.10932397446E+02  0.15249220326E+02  0.51100000000E-03 0. -1.
        -11    1    4    4    0    0 -0.15404592844E+02  0.10321374643E+02  0.10407967059E+02  0.21264007942E+02  0.51100000000E-03 0.  1.
        -12    1    4    4    0    0 -0.82318212221E+01 -0.74284875886E+01 -0.13993391015E+02  0.17853859543E+02  0.00000000000E+00 0.  1.
</event>
<event>
 8    1  0.2458065E-006  0.9118800E+02  0.7816164E-02  0.1184000E+00
        -11   -1    0    0    0    0  0.00000000000E+00  0.00000000000E+00  0.45593999997E+02  0.45594000000E+02  0.51100000000E-03 0. -1.
         11   -1    0    0    0    0 -0.00000000000E+00 -0.00000000000E+00 -0.45593999997E+02  0.45594000000E+02  0.51100000000E-03 0.  1.
         23    2    1    2    0    0  0.00000000000E+00  0.00000000000E+00  0.00000000000E+00  0.91188000000E+02  0.91188000000E+02 0.  0.
    9900012    2    3    3    0    0  0.17745567422E+02 -0.21892963708E+02  0.23697535054E+02  0.54367079443E+02  0.39999989206E+02 0.  0.
        -12    1    3    3    0    0 -0.17745567422E+02  0.21892963708E+02 -0.23697535054E+02  0.36820920557E+02  0.00000000000E+00 0.  1.
         11    1    4    4    0    0  0.25704064930E+02 -0.22617408189E+02  0.17954985020E+02  0.38660413791E+02  0.51100000000E-03 0. -1.
        -11    1    4    4    0    0 -0.27771165627E+01  0.37247743895E+01  0.80463170405E+01  0.92913690505E+01  0.51100000000E-03 0.  1.
         12    1    4    4    0    0 -0.51813809458E+01 -0.30003299084E+01 -0.23037670068E+01  0.64152966016E+01  0.00000000000E+00 0. -1.
</event>
<event>
 8    1  0.2458065E-006  0.9118800E+02  0.7816164E-02  0.1184000E+00
        -11   -1    0    0    0    0  0.00000000000E+00  0.00000000000E+00  0.45593999997E+02  0.45594000000E+02  0.51100000000E-03 0. -1.
         11   -1    0    0    0    0 -0.00000000000E+00 -0.00000000000E+00 -0.45593999997E+02  0.45594000000E+02  0.51100000000E-03 0.  1.
         23    2    1    2    0    0  0.35527136788E-14  0.35527136788E-14 -0.35527136788E-14  0.91188000000E+02  0.91188000000E+02 0.  0.
    9900012    2    3    3    0    0 -0.24738262951E+02 -0.14282603056E+02  0.23233699604E+02  0.54367092880E+02  0.40000019838E+02 0.  0.
        -12    1    3    3    0    0  0.24738262951E+02  0.14282603056E+02 -0.23233699604E+02  0.36820907120E+02  0.00000000000E+00 0.  1.
         11    1    4    4    0    0  0.36785097419E+01  0.37809577131E+01  0.75171795575E+01  0.91834124327E+01  0.51100000000E-03 0. -1.
        -11    1    4    4    0    0  0.35336946522E+01  0.12535684164E+01 -0.15389178327E+01  0.40529865564E+01  0.51100000000E-03 0.  1.
         12    1    4    4    0    0 -0.31950467345E+02 -0.19317129185E+02  0.17255437879E+02  0.41130693891E+02  0.00000000000E+00 0. -1.
</event>
<event>
 8    1  0.2458065E-006  0.9118800E+02  0.7816164E-02  0.1184000E+00
        -11   -1    0    0    0    0  0.00000000000E+00  0.00000000000E+00  0.45593999997E+02  0.45594000000E+02  0.51100000000E-03 0.  1.
         11   -1    0    0    0    0 -0.00000000000E+00 -0.00000000000E+00 -0.45593999997E+02  0.45594000000E+02  0.51100000000E-03 0. -1.
         23    2    1    2    0    0 -0.35527136788E-14  0.00000000000E+00 -0.35527136788E-14  0.91188000000E+02  0.91188000000E+02 0.  0.
    9900012    2    3    3    0    0  0.13289085476E+02  0.31180172122E+02  0.14386689608E+02  0.54367085234E+02  0.40000002407E+02 0.  0.
         12    1    3    3    0    0 -0.13289085476E+02 -0.31180172122E+02 -0.14386689608E+02  0.36820914766E+02  0.00000000000E+00 0. -1.
         11    1    4    4    0    0  0.16873909536E+02  0.24481426891E+02  0.17701446358E+02  0.34603616705E+02  0.51100000000E-03 0. -1.
        -11    1    4    4    0    0  0.71889702683E+01  0.44767158618E+01 -0.18143256247E+01  0.86610655325E+01  0.51100000000E-03 0.  1.
         12    1    4    4    0    0 -0.10773794328E+02  0.22220293697E+01 -0.15004311254E+01  0.11102402996E+02  0.00000000000E+00 0. -1.
</event>
<event>
 8    1  0.2458065E-006  0.9118800E+02  0.7816164E-02  0.1184000E+00
        -11   -1    0    0    0    0  0.00000000000E+00  0.00000000000E+00  0.45593999997E+02  0.45594000000E+02  0.51100000000E-03 0. -1.
         11   -1    0    0    0    0 -0.00000000000E+00 -0.00000000000E+00 -0.45593999997E+02  0.45594000000E+02  0.51100000000E-03 0.  1.
         23    2    1    2    0    0  0.00000000000E+00  0.00000000000E+00  0.00000000000E+00  0.91188000000E+02  0.91188000000E+02 0.  0.
    9900012    2    3    3    0    0  0.16125180017E+02  0.86080942710E+01 -0.31963412105E+02  0.54367076180E+02  0.39999981768E+02 0.  0.
         12    1    3    3    0    0 -0.16125180017E+02 -0.86080942710E+01  0.31963412105E+02  0.36820923820E+02  0.00000000000E+00 0. -1.
         11    1    4    4    0    0  0.99112273248E+01 -0.46551307371E+01 -0.22755258206E+02  0.25252810646E+02  0.51100000000E-03 0. -1.
        -11    1    4    4    0    0  0.15076950621E+02  0.10087369140E+02 -0.51106632821E+01  0.18846440928E+02  0.51100000000E-03 0.  1.
         12    1    4    4    0    0 -0.88629979291E+01  0.31758558680E+01 -0.40974906170E+01  0.10267824606E+02  0.00000000000E+00 0. -1.
</event>
<event>
 8    1  0.2458065E-006  0.9118800E+02  0.7816164E-02  0.1184000E+00
        -11   -1    0    0    0    0  0.00000000000E+00  0.00000000000E+00  0.45593999997E+02  0.45594000000E+02  0.51100000000E-03 0.  1.
         11   -1    0    0    0    0 -0.00000000000E+00 -0.00000000000E+00 -0.45593999997E+02  0.45594000000E+02  0.51100000000E-03 0. -1.
         23    2    1    2    0    0 -0.17763568394E-14  0.71054273576E-14  0.00000000000E+00  0.91188000000E+02  0.91188000000E+02 0.  0.
    9900012    2    3    3    0    0 -0.83084274553E+01 -0.31038367085E+02  0.17982448932E+02  0.54367100125E+02  0.40000036354E+02 0.  0.
         12    1    3    3    0    0  0.83084274553E+01  0.31038367085E+02 -0.17982448932E+02  0.36820899875E+02  0.00000000000E+00 0. -1.
         11    1    4    4    0    0  0.59369915288E+01 -0.14574023623E+02 -0.20050508412E+01  0.15864118700E+02  0.51100000000E-03 0.  1.
        -11    1    4    4    0    0 -0.86886940847E+01 -0.22320854099E+02  0.10806306485E+02  0.26277180075E+02  0.51100000000E-03 0. -1.
        -12    1    4    4    0    0 -0.55567248993E+01  0.58565106373E+01  0.91811932881E+01  0.12225801350E+02  0.00000000000E+00 0.  1.
</event>
<event>
 8    1  0.2458065E-006  0.9118800E+02  0.7816164E-02  0.1184000E+00
        -11   -1    0    0    0    0  0.00000000000E+00  0.00000000000E+00  0.45593999997E+02  0.45594000000E+02  0.51100000000E-03 0. -1.
         11   -1    0    0    0    0 -0.00000000000E+00 -0.00000000000E+00 -0.45593999997E+02  0.45594000000E+02  0.51100000000E-03 0.  1.
         23    2    1    2    0    0  0.35527136788E-14 -0.35527136788E-14  0.00000000000E+00  0.91188000000E+02  0.91188000000E+02 0.  0.
    9900012    2    3    3    0    0 -0.13713970684E+02 -0.30030885752E+02 -0.16305007925E+02  0.54367076948E+02  0.39999983519E+02 0.  0.
         12    1    3    3    0    0  0.13713970684E+02  0.30030885752E+02  0.16305007925E+02  0.36820923052E+02  0.00000000000E+00 0. -1.
         11    1    4    4    0    0  0.54791645511E+01 -0.14319062861E+01  0.87605251524E+01  0.10431605869E+02  0.51100000000E-03 0. -1.
        -11    1    4    4    0    0 -0.48453791232E+01 -0.16189254475E+02 -0.94266432308E+01  0.19350226411E+02  0.51100000000E-03 0.  1.
         12    1    4    4    0    0 -0.14347756112E+02 -0.12409724990E+02 -0.15638889846E+02  0.24585244668E+02  0.00000000000E+00 0. -1.
</event>
<event>
 8    1  0.2458065E-006  0.9118800E+02  0.7816164E-02  0.1184000E+00
        -11   -1    0    0    0    0  0.00000000000E+00  0.00000000000E+00  0.45593999997E+02  0.45594000000E+02  0.51100000000E-03 0.  1.
         11   -1    0    0    0    0 -0.00000000000E+00 -0.00000000000E+00 -0.45593999997E+02  0.45594000000E+02  0.51100000000E-03 0. -1.
         23    2    1    2    0    0  0.35527136788E-14  0.00000000000E+00 -0.35527136788E-14  0.91188000000E+02  0.91188000000E+02 0.  0.
    9900012    2    3    3    0    0 -0.29109043330E+02  0.66515681807E+01  0.21545230716E+02  0.54367126444E+02  0.40000096353E+02 0.  0.
         12    1    3    3    0    0  0.29109043330E+02 -0.66515681807E+01 -0.21545230716E+02  0.36820873556E+02  0.00000000000E+00 0. -1.
         11    1    4    4    0    0 -0.20156110959E+02  0.49529591390E+01  0.69677306325E+00  0.20767428974E+02  0.51100000000E-03 0. -1.
        -11    1    4    4    0    0 -0.58810546609E+01  0.54463849339E+01  0.25592408823E+02  0.26818301631E+02  0.51100000000E-03 0.  1.
        -12    1    4    4    0    0 -0.30718777098E+01 -0.37477758922E+01 -0.47439511704E+01  0.67813958378E+01  0.00000000000E+00 0.  1.
</event>
<event>
 8    1  0.2458065E-006  0.9118800E+02  0.7816164E-02  0.1184000E+00
        -11   -1    0    0    0    0  0.00000000000E+00  0.00000000000E+00  0.45593999997E+02  0.45594000000E+02  0.51100000000E-03 0. -1.
         11   -1    0    0    0    0 -0.00000000000E+00 -0.00000000000E+00 -0.45593999997E+02  0.45594000000E+02  0.51100000000E-03 0.  1.
         23    2    1    2    0    0  0.00000000000E+00  0.35527136788E-14  0.00000000000E+00  0.91188000000E+02  0.91188000000E+02 0.  0.
    9900012    2    3    3    0    0  0.15381780107E+02  0.23127183476E+02  0.24172617784E+02  0.54367065393E+02  0.39999957176E+02 0.  0.
        -12    1    3    3    0    0 -0.15381780107E+02 -0.23127183476E+02 -0.24172617784E+02  0.36820934607E+02  0.00000000000E+00 0.  1.
         11    1    4    4    0    0 -0.36616315240E+01  0.13793986256E+02  0.21690168556E+02  0.25964302696E+02  0.51100000000E-03 0. -1.
        -11    1    4    4    0    0  0.15958663402E+02 -0.86180935411E+00  0.61692263374E+01  0.17131287366E+02  0.51100000000E-03 0.  1.
        -12    1    4    4    0    0  0.30847482283E+01  0.10195006574E+02 -0.36867771090E+01  0.11271475331E+02  0.00000000000E+00 0.  1.
</event>
<event>
 8    1  0.2458065E-006  0.9118800E+02  0.7816164E-02  0.1184000E+00
        -11   -1    0    0    0    0  0.00000000000E+00  0.00000000000E+00  0.45593999997E+02  0.45594000000E+02  0.51100000000E-03 0. -1.
         11   -1    0    0    0    0 -0.00000000000E+00 -0.00000000000E+00 -0.45593999997E+02  0.45594000000E+02  0.51100000000E-03 0.  1.
         23    2    1    2    0    0  0.00000000000E+00  0.35527136788E-14  0.35527136788E-14  0.91188000000E+02  0.91188000000E+02 0.  0.
    9900012    2    3    3    0    0  0.10602284893E+02 -0.25844454394E+02  0.23988238310E+02  0.54367084135E+02  0.39999999903E+02 0.  0.
        -12    1    3    3    0    0 -0.10602284893E+02  0.25844454394E+02 -0.23988238310E+02  0.36820915865E+02  0.00000000000E+00 0.  1.
         11    1    4    4    0    0 -0.32108675410E+01  0.17778350923E+01  0.12101864614E+02  0.12646165244E+02  0.51100000000E-03 0. -1.
        -11    1    4    4    0    0 -0.40080107555E+01 -0.16679701987E+02  0.11777113160E+02  0.20808099463E+02  0.51100000000E-03 0.  1.
         12    1    4    4    0    0  0.17821163189E+02 -0.10942587499E+02  0.10926053663E+00  0.20912819429E+02  0.00000000000E+00 0. -1.
</event>
<event>
 8    1  0.2458065E-006  0.9118800E+02  0.7816164E-02  0.1184000E+00
        -11   -1    0    0    0    0  0.00000000000E+00  0.00000000000E+00  0.45593999997E+02  0.45594000000E+02  0.51100000000E-03 0.  1.
         11   -1    0    0    0    0 -0.00000000000E+00 -0.00000000000E+00 -0.45593999997E+02  0.45594000000E+02  0.51100000000E-03 0. -1.
         23    2    1    2    0    0  0.00000000000E+00 -0.71054273576E-14 -0.35527136788E-14  0.91188000000E+02  0.91188000000E+02 0.  0.
    9900012    2    3    3    0    0  0.11685941819E+02 -0.32556590429E+02 -0.12620846317E+02  0.54367101337E+02  0.40000039119E+02 0.  0.
        -12    1    3    3    0    0 -0.11685941819E+02  0.32556590429E+02  0.12620846317E+02  0.36820898663E+02  0.00000000000E+00 0.  1.
         11    1    4    4    0    0  0.11219193737E+02 -0.19385963448E+02 -0.12119779400E+02  0.25467134505E+02  0.51100000000E-03 0. -1.
        -11    1    4    4    0    0  0.12863063546E+00 -0.17994764441E+02  0.75445852118E+01  0.19512787074E+02  0.51100000000E-03 0.  1.
         12    1    4    4    0    0  0.33811744667E+00  0.48241374600E+01 -0.80456521289E+01  0.93871797586E+01  0.00000000000E+00 0. -1.
</event>
<event>
 8    1  0.2458065E-006  0.9118800E+02  0.7816164E-02  0.1184000E+00
        -11   -1    0    0    0    0  0.00000000000E+00  0.00000000000E+00  0.45593999997E+02  0.45594000000E+02  0.51100000000E-03 0.  1.
         11   -1    0    0    0    0 -0.00000000000E+00 -0.00000000000E+00 -0.45593999997E+02  0.45594000000E+02  0.51100000000E-03 0. -1.
         23    2    1    2    0    0 -0.71054273576E-14 -0.35527136788E-14 -0.17763568394E-14  0.91188000000E+02  0.91188000000E+02 0.  0.
    9900012    2    3    3    0    0  0.28546574611E+02  0.21611774267E+02  0.85909599726E+01  0.54367077928E+02  0.39999985752E+02 0.  0.
         12    1    3    3    0    0 -0.28546574611E+02 -0.21611774267E+02 -0.85909599726E+01  0.36820922072E+02  0.00000000000E+00 0. -1.
         11    1    4    4    0    0 -0.55183024836E+01 -0.87836005973E+00 -0.64064273590E+01  0.85009111549E+01  0.51100000000E-03 0. -1.
        -11    1    4    4    0    0  0.15521270974E+02  0.12098360474E+02  0.14774300721E+02  0.24608131601E+02  0.51100000000E-03 0.  1.
        -12    1    4    4    0    0  0.18543606120E+02  0.10391773853E+02  0.22308661038E+00  0.21258035172E+02  0.00000000000E+00 0.  1.
</event>
<event>
 8    1  0.2458065E-006  0.9118800E+02  0.7816164E-02  0.1184000E+00
        -11   -1    0    0    0    0  0.00000000000E+00  0.00000000000E+00  0.45593999997E+02  0.45594000000E+02  0.51100000000E-03 0.  1.
         11   -1    0    0    0    0 -0.00000000000E+00 -0.00000000000E+00 -0.45593999997E+02  0.45594000000E+02  0.51100000000E-03 0. -1.
         23    2    1    2    0    0  0.35527136788E-14  0.17763568394E-14  0.00000000000E+00  0.91188000000E+02  0.91188000000E+02 0.  0.
    9900012    2    3    3    0    0  0.28122716631E+02  0.12748688903E+02  0.20059002279E+02  0.54367084315E+02  0.40000000313E+02 0.  0.
         12    1    3    3    0    0 -0.28122716631E+02 -0.12748688903E+02 -0.20059002279E+02  0.36820915685E+02  0.00000000000E+00 0. -1.
         11    1    4    4    0    0  0.17032085610E+02  0.48949831067E+01 -0.66744322146E-01  0.17721660613E+02  0.51100000000E-03 0.  1.
        -11    1    4    4    0    0  0.12182219646E+02 -0.71956180733E+01  0.15216554439E+02  0.20778039470E+02  0.51100000000E-03 0. -1.
         12    1    4    4    0    0 -0.10915886249E+01  0.15049323870E+02  0.49091921622E+01  0.15867384231E+02  0.00000000000E+00 0. -1.
</event>
<event>
 8    1  0.2458065E-006  0.9118800E+02  0.7816164E-02  0.1184000E+00
        -11   -1    0    0    0    0  0.00000000000E+00  0.00000000000E+00  0.45593999997E+02  0.45594000000E+02  0.51100000000E-03 0.  1.
         11   -1    0    0    0    0 -0.00000000000E+00 -0.00000000000E+00 -0.45593999997E+02  0.45594000000E+02  0.51100000000E-03 0. -1.
         23    2    1    2    0    0  0.00000000000E+00  0.71054273576E-14 -0.35527136788E-14  0.91188000000E+02  0.91188000000E+02 0.  0.
    9900012    2    3    3    0    0 -0.21575101969E+02  0.22474854848E+02  0.19625880857E+02  0.54367091200E+02  0.40000016010E+02 0.  0.
         12    1    3    3    0    0  0.21575101969E+02 -0.22474854848E+02 -0.19625880857E+02  0.36820908800E+02  0.00000000000E+00 0. -1.
         11    1    4    4    0    0 -0.17127593437E+02  0.15508012781E-01 -0.64018665499E+01  0.18284928029E+02  0.51100000000E-03 0. -1.
        -11    1    4    4    0    0  0.44189851264E+00  0.10642446172E+02  0.18201046127E+02  0.21088741433E+02  0.51100000000E-03 0.  1.
         12    1    4    4    0    0 -0.48894070448E+01  0.11816900663E+02  0.78267012799E+01  0.14993421739E+02  0.00000000000E+00 0. -1.
</event>
<event>
 8    1  0.2458065E-006  0.9118800E+02  0.7816164E-02  0.1184000E+00
        -11   -1    0    0    0    0  0.00000000000E+00  0.00000000000E+00  0.45593999997E+02  0.45594000000E+02  0.51100000000E-03 0.  1.
         11   -1    0    0    0    0 -0.00000000000E+00 -0.00000000000E+00 -0.45593999997E+02  0.45594000000E+02  0.51100000000E-03 0. -1.
         23    2    1    2    0    0  0.00000000000E+00  0.00000000000E+00  0.22204460493E-15  0.91188000000E+02  0.91188000000E+02 0.  0.
    9900012    2    3    3    0    0 -0.19883562419E+02  0.30986789368E+02  0.49308753288E+00  0.54367077889E+02  0.39999985663E+02 0.  0.
         12    1    3    3    0    0  0.19883562419E+02 -0.30986789368E+02 -0.49308753288E+00  0.36820922111E+02  0.00000000000E+00 0. -1.
         11    1    4    4    0    0  0.23842029517E+01 -0.13653380045E+01  0.76022140333E-01  0.27485180021E+01  0.51100000000E-03 0. -1.
        -11    1    4    4    0    0 -0.30357518324E+02  0.27075645779E+02  0.48977184869E+01  0.40971418815E+02  0.51100000000E-03 0.  1.
        -12    1    4    4    0    0  0.80897529524E+01  0.52764815934E+01 -0.44806530944E+01  0.10647141071E+02  0.00000000000E+00 0.  1.
</event>
<event>
 8    1  0.2458065E-006  0.9118800E+02  0.7816164E-02  0.1184000E+00
        -11   -1    0    0    0    0  0.00000000000E+00  0.00000000000E+00  0.45593999997E+02  0.45594000000E+02  0.51100000000E-03 0. -1.
         11   -1    0    0    0    0 -0.00000000000E+00 -0.00000000000E+00 -0.45593999997E+02  0.45594000000E+02  0.51100000000E-03 0.  1.
         23    2    1    2    0    0  0.00000000000E+00  0.00000000000E+00  0.00000000000E+00  0.91188000000E+02  0.91188000000E+02 0.  0.
    9900012    2    3    3    0    0 -0.16304429894E+02  0.32789027523E+02 -0.38504638060E+01  0.54367070740E+02  0.39999969366E+02 0.  0.
        -12    1    3    3    0    0  0.16304429894E+02 -0.32789027523E+02  0.38504638060E+01  0.36820929260E+02  0.00000000000E+00 0.  1.
         11    1    4    4    0    0 -0.16327119782E+02  0.17888590346E+02  0.97246511072E+00  0.24238857102E+02  0.51100000000E-03 0. -1.
        -11    1    4    4    0    0 -0.90636135988E+01  0.12928181853E+02 -0.10750734732E+02  0.19101446936E+02  0.51100000000E-03 0.  1.
        -12    1    4    4    0    0  0.90863034875E+01  0.19722553234E+01  0.59278058154E+01  0.11026766703E+02  0.00000000000E+00 0.  1.
</event>
<event>
 8    1  0.2458065E-006  0.9118800E+02  0.7816164E-02  0.1184000E+00
        -11   -1    0    0    0    0  0.00000000000E+00  0.00000000000E+00  0.45593999997E+02  0.45594000000E+02  0.51100000000E-03 0.  1.
         11   -1    0    0    0    0 -0.00000000000E+00 -0.00000000000E+00 -0.45593999997E+02  0.45594000000E+02  0.51100000000E-03 0. -1.
         23    2    1    2    0    0  0.00000000000E+00  0.00000000000E+00 -0.13322676296E-14  0.91188000000E+02  0.91188000000E+02 0.  0.
    9900012    2    3    3    0    0  0.14567711856E+02  0.33733259457E+02 -0.23723964701E+01  0.54367091710E+02  0.40000017171E+02 0.  0.
        -12    1    3    3    0    0 -0.14567711856E+02 -0.33733259457E+02  0.23723964701E+01  0.36820908290E+02  0.00000000000E+00 0.  1.
         11    1    4    4    0    0  0.58432254426E+01  0.10133850870E+02 -0.94991432446E+01  0.15068906386E+02  0.51100000000E-03 0. -1.
        -11    1    4    4    0    0  0.17843990966E+02  0.99318036739E+01 -0.19713526145E+01  0.20516699764E+02  0.51100000000E-03 0.  1.
        -12    1    4    4    0    0 -0.91195045526E+01  0.13667604913E+02  0.90980993890E+01  0.18781485560E+02  0.00000000000E+00 0.  1.
</event>
<event>
 8    1  0.2458065E-006  0.9118800E+02  0.7816164E-02  0.1184000E+00
        -11   -1    0    0    0    0  0.00000000000E+00  0.00000000000E+00  0.45593999997E+02  0.45594000000E+02  0.51100000000E-03 0.  1.
         11   -1    0    0    0    0 -0.00000000000E+00 -0.00000000000E+00 -0.45593999997E+02  0.45594000000E+02  0.51100000000E-03 0. -1.
         23    2    1    2    0    0  0.00000000000E+00  0.00000000000E+00  0.35527136788E-14  0.91188000000E+02  0.91188000000E+02 0.  0.
    9900012    2    3    3    0    0  0.18949407936E+02 -0.17509081048E+02 -0.26270333817E+02  0.54367103499E+02  0.40000044047E+02 0.  0.
        -12    1    3    3    0    0 -0.18949407936E+02  0.17509081048E+02  0.26270333817E+02  0.36820896501E+02  0.00000000000E+00 0.  1.
         11    1    4    4    0    0  0.48829106229E+01 -0.19011259147E+01 -0.23424173919E+01  0.57396877436E+01  0.51100000000E-03 0. -1.
        -11    1    4    4    0    0  0.24356538224E+02 -0.17221081870E+02 -0.10478757001E+02  0.31616624798E+02  0.51100000000E-03 0.  1.
        -12    1    4    4    0    0 -0.10290040910E+02  0.16131267374E+01 -0.13449159424E+02  0.17010790958E+02  0.00000000000E+00 0.  1.
</event>
<event>
 8    1  0.2458065E-006  0.9118800E+02  0.7816164E-02  0.1184000E+00
        -11   -1    0    0    0    0  0.00000000000E+00  0.00000000000E+00  0.45593999997E+02  0.45594000000E+02  0.51100000000E-03 0.  1.
         11   -1    0    0    0    0 -0.00000000000E+00 -0.00000000000E+00 -0.45593999997E+02  0.45594000000E+02  0.51100000000E-03 0. -1.
         23    2    1    2    0    0  0.00000000000E+00  0.35527136788E-14  0.17763568394E-14  0.91188000000E+02  0.91188000000E+02 0.  0.
    9900012    2    3    3    0    0 -0.23676438648E+02  0.26895539342E+02 -0.84756267819E+01  0.54367081585E+02  0.39999994089E+02 0.  0.
        -12    1    3    3    0    0  0.23676438648E+02 -0.26895539342E+02  0.84756267819E+01  0.36820918415E+02  0.00000000000E+00 0.  1.
         11    1    4    4    0    0 -0.12330401252E+02  0.14499306498E+02  0.20449915461E+01  0.19142901416E+02  0.51100000000E-03 0. -1.
        -11    1    4    4    0    0  0.75109331219E+00  0.31646324576E+01  0.95203643472E+01  0.10060635036E+02  0.51100000000E-03 0.  1.
         12    1    4    4    0    0 -0.12097130709E+02  0.92316003870E+01 -0.20040982675E+02  0.25163545133E+02  0.00000000000E+00 0. -1.
</event>
<event>
 8    1  0.2458065E-006  0.9118800E+02  0.7816164E-02  0.1184000E+00
        -11   -1    0    0    0    0  0.00000000000E+00  0.00000000000E+00  0.45593999997E+02  0.45594000000E+02  0.51100000000E-03 0. -1.
         11   -1    0    0    0    0 -0.00000000000E+00 -0.00000000000E+00 -0.45593999997E+02  0.45594000000E+02  0.51100000000E-03 0.  1.
         23    2    1    2    0    0 -0.35527136788E-14 -0.35527136788E-14  0.00000000000E+00  0.91188000000E+02  0.91188000000E+02 0.  0.
    9900012    2    3    3    0    0 -0.26729172074E+02 -0.18522231654E+02 -0.17270124062E+02  0.54367097101E+02  0.40000029462E+02 0.  0.
         12    1    3    3    0    0  0.26729172074E+02  0.18522231654E+02  0.17270124062E+02  0.36820902899E+02  0.00000000000E+00 0. -1.
         11    1    4    4    0    0 -0.38630154439E+01 -0.10857365181E+02 -0.14334533206E+02  0.18392501447E+02  0.51100000000E-03 0. -1.
        -11    1    4    4    0    0 -0.19751784632E+02  0.66174076165E+01  0.93884402012E+00  0.20851966527E+02  0.51100000000E-03 0.  1.
        -12    1    4    4    0    0 -0.31143719980E+01 -0.14282274089E+02 -0.38744348760E+01  0.15122629127E+02  0.00000000000E+00 0.  1.
</event>
<event>
 8    1  0.2458065E-006  0.9118800E+02  0.7816164E-02  0.1184000E+00
        -11   -1    0    0    0    0  0.00000000000E+00  0.00000000000E+00  0.45593999997E+02  0.45594000000E+02  0.51100000000E-03 0.  1.
         11   -1    0    0    0    0 -0.00000000000E+00 -0.00000000000E+00 -0.45593999997E+02  0.45594000000E+02  0.51100000000E-03 0. -1.
         23    2    1    2    0    0 -0.88817841970E-15  0.00000000000E+00  0.00000000000E+00  0.91188000000E+02  0.91188000000E+02 0.  0.
    9900012    2    3    3    0    0  0.59222839855E+01 -0.11528725868E+02  0.34464404831E+02  0.54367079749E+02  0.39999989904E+02 0.  0.
         12    1    3    3    0    0 -0.59222839855E+01  0.11528725868E+02 -0.34464404831E+02  0.36820920251E+02  0.00000000000E+00 0. -1.
         11    1    4    4    0    0 -0.91519097105E+01 -0.60448968474E+01  0.98239256973E+01  0.14724392878E+02  0.51100000000E-03 0. -1.
        -11    1    4    4    0    0  0.36945141715E-01 -0.13693468762E+02  0.85793177694E+01  0.16159119572E+02  0.51100000000E-03 0.  1.
         12    1    4    4    0    0  0.15037248554E+02  0.82096397413E+01  0.16061161364E+02  0.23483567300E+02  0.00000000000E+00 0. -1.
</event>
<event>
 8    1  0.2458065E-006  0.9118800E+02  0.7816164E-02  0.1184000E+00
        -11   -1    0    0    0    0  0.00000000000E+00  0.00000000000E+00  0.45593999997E+02  0.45594000000E+02  0.51100000000E-03 0.  1.
         11   -1    0    0    0    0 -0.00000000000E+00 -0.00000000000E+00 -0.45593999997E+02  0.45594000000E+02  0.51100000000E-03 0. -1.
         23    2    1    2    0    0  0.35527136788E-14  0.00000000000E+00  0.00000000000E+00  0.91188000000E+02  0.91188000000E+02 0.  0.
    9900012    2    3    3    0    0  0.30807964746E+02  0.90105441822E+01  0.18040490601E+02  0.54367083399E+02  0.39999998224E+02 0.  0.
         12    1    3    3    0    0 -0.30807964746E+02 -0.90105441822E+01 -0.18040490601E+02  0.36820916601E+02  0.00000000000E+00 0. -1.
         11    1    4    4    0    0  0.80839460755E+01  0.10550334618E+02  0.18777331279E+02  0.23005388824E+02  0.51100000000E-03 0. -1.
        -11    1    4    4    0    0  0.11906748044E+02  0.89630832946E+01 -0.49551661937E+01  0.15705450754E+02  0.51100000000E-03 0.  1.
         12    1    4    4    0    0  0.10817270627E+02 -0.10502873731E+02  0.42183255148E+01  0.15656243820E+02  0.00000000000E+00 0. -1.
</event>
<event>
 8    1  0.2458065E-006  0.9118800E+02  0.7816164E-02  0.1184000E+00
        -11   -1    0    0    0    0  0.00000000000E+00  0.00000000000E+00  0.45593999997E+02  0.45594000000E+02  0.51100000000E-03 0.  1.
         11   -1    0    0    0    0 -0.00000000000E+00 -0.00000000000E+00 -0.45593999997E+02  0.45594000000E+02  0.51100000000E-03 0. -1.
         23    2    1    2    0    0 -0.33306690739E-15  0.35527136788E-14  0.35527136788E-14  0.91188000000E+02  0.91188000000E+02 0.  0.
    9900012    2    3    3    0    0  0.44200629979E+00 -0.24595723063E+02 -0.27397702071E+02  0.54367095050E+02  0.40000024786E+02 0.  0.
        -12    1    3    3    0    0 -0.44200629979E+00  0.24595723063E+02  0.27397702071E+02  0.36820904950E+02  0.00000000000E+00 0.  1.
         11    1    4    4    0    0 -0.17168963517E+02 -0.24478522214E+01 -0.12002925970E+02  0.21091124219E+02  0.51100000000E-03 0. -1.
        -11    1    4    4    0    0  0.52272343552E+01 -0.85458167329E+01 -0.12995540039E+01  0.10101673302E+02  0.51100000000E-03 0.  1.
         12    1    4    4    0    0  0.12383735461E+02 -0.13602054109E+02 -0.14095222097E+02  0.23174297528E+02  0.00000000000E+00 0. -1.
</event>
<event>
 8    1  0.2458065E-006  0.9118800E+02  0.7816164E-02  0.1184000E+00
        -11   -1    0    0    0    0  0.00000000000E+00  0.00000000000E+00  0.45593999997E+02  0.45594000000E+02  0.51100000000E-03 0. -1.
         11   -1    0    0    0    0 -0.00000000000E+00 -0.00000000000E+00 -0.45593999997E+02  0.45594000000E+02  0.51100000000E-03 0.  1.
         23    2    1    2    0    0  0.00000000000E+00  0.00000000000E+00 -0.35527136788E-14  0.91188000000E+02  0.91188000000E+02 0.  0.
    9900012    2    3    3    0    0 -0.90223080035E+01  0.28308402867E+02  0.21748824955E+02  0.54367094233E+02  0.40000022923E+02 0.  0.
        -12    1    3    3    0    0  0.90223080035E+01 -0.28308402867E+02 -0.21748824955E+02  0.36820905767E+02  0.00000000000E+00 0.  1.
         11    1    4    4    0    0 -0.28078918989E+01  0.59458523196E+01  0.18706694705E+02  0.19828712610E+02  0.51100000000E-03 0. -1.
        -11    1    4    4    0    0 -0.19675966413E+01 -0.10194898832E+01 -0.80234376031E+01  0.83238421055E+01  0.51100000000E-03 0.  1.
         12    1    4    4    0    0 -0.42468194633E+01  0.23382040430E+02  0.11065567854E+02  0.26214539518E+02  0.00000000000E+00 0. -1.
</event>
<event>
 8    1  0.2458065E-006  0.9118800E+02  0.7816164E-02  0.1184000E+00
        -11   -1    0    0    0    0  0.00000000000E+00  0.00000000000E+00  0.45593999997E+02  0.45594000000E+02  0.51100000000E-03 0.  1.
         11   -1    0    0    0    0 -0.00000000000E+00 -0.00000000000E+00 -0.45593999997E+02  0.45594000000E+02  0.51100000000E-03 0. -1.
         23    2    1    2    0    0 -0.35527136788E-14  0.00000000000E+00 -0.88817841970E-15  0.91188000000E+02  0.91188000000E+02 0.  0.
    9900012    2    3    3    0    0 -0.31123514206E+02  0.19578943075E+02 -0.19421922444E+01  0.54367078513E+02  0.39999987086E+02 0.  0.
        -12    1    3    3    0    0  0.31123514206E+02 -0.19578943075E+02  0.19421922444E+01  0.36820921487E+02  0.00000000000E+00 0.  1.
         11    1    4    4    0    0 -0.32842045846E+02  0.87837767777E+01 -0.11546326090E+02  0.35903653801E+02  0.51100000000E-03 0. -1.
        -11    1    4    4    0    0  0.14903322032E+01 -0.22189425137E+01  0.96795311905E+00  0.28428382748E+01  0.51100000000E-03 0.  1.
        -12    1    4    4    0    0  0.22819943663E+00  0.13014108811E+02  0.86361807263E+01  0.15620586438E+02  0.00000000000E+00 0.  1.
</event>
<event>
 8    1  0.2458065E-006  0.9118800E+02  0.7816164E-02  0.1184000E+00
        -11   -1    0    0    0    0  0.00000000000E+00  0.00000000000E+00  0.45593999997E+02  0.45594000000E+02  0.51100000000E-03 0.  1.
         11   -1    0    0    0    0 -0.00000000000E+00 -0.00000000000E+00 -0.45593999997E+02  0.45594000000E+02  0.51100000000E-03 0. -1.
         23    2    1    2    0    0  0.00000000000E+00  0.00000000000E+00  0.00000000000E+00  0.91188000000E+02  0.91188000000E+02 0.  0.
    9900012    2    3    3    0    0 -0.54735792461E+01  0.17642665667E+02  0.31852093740E+02  0.54367087502E+02  0.40000007578E+02 0.  0.
         12    1    3    3    0    0  0.54735792461E+01 -0.17642665667E+02 -0.31852093740E+02  0.36820912498E+02  0.00000000000E+00 0. -1.
         11    1    4    4    0    0  0.63367027409E+01  0.71866349393E+01  0.41230727345E+01  0.10430783883E+02  0.51100000000E-03 0. -1.
        -11    1    4    4    0    0 -0.48010293411E+01 -0.99780554543E+01  0.38202849786E+01  0.11713498664E+02  0.51100000000E-03 0.  1.
        -12    1    4    4    0    0 -0.70092526458E+01  0.20434086182E+02  0.23908736027E+02  0.32222804954E+02  0.00000000000E+00 0.  1.
</event>
<event>
 8    1  0.2458065E-006  0.9118800E+02  0.7816164E-02  0.1184000E+00
        -11   -1    0    0    0    0  0.00000000000E+00  0.00000000000E+00  0.45593999997E+02  0.45594000000E+02  0.51100000000E-03 0.  1.
         11   -1    0    0    0    0 -0.00000000000E+00 -0.00000000000E+00 -0.45593999997E+02  0.45594000000E+02  0.51100000000E-03 0. -1.
         23    2    1    2    0    0 -0.35527136788E-14 -0.35527136788E-14  0.71054273576E-14  0.91188000000E+02  0.91188000000E+02 0.  0.
    9900012    2    3    3    0    0  0.22941701754E+02  0.19286297363E+02 -0.21389183028E+02  0.54367080729E+02  0.39999992139E+02 0.  0.
        -12    1    3    3    0    0 -0.22941701754E+02 -0.19286297363E+02  0.21389183028E+02  0.36820919271E+02  0.00000000000E+00 0.  1.
         11    1    4    4    0    0 -0.97115848372E+00  0.47070650173E+01 -0.20470525000E+02  0.21027172989E+02  0.51100000000E-03 0. -1.
        -11    1    4    4    0    0  0.18168462231E+02  0.77018799322E+00  0.12481598380E+01  0.18227564637E+02  0.51100000000E-03 0.  1.
        -12    1    4    4    0    0  0.57443980071E+01  0.13809044353E+02 -0.21668178658E+01  0.15112343103E+02  0.00000000000E+00 0.  1.
</event>
<event>
 8    1  0.2458065E-006  0.9118800E+02  0.7816164E-02  0.1184000E+00
        -11   -1    0    0    0    0  0.00000000000E+00  0.00000000000E+00  0.45593999997E+02  0.45594000000E+02  0.51100000000E-03 0. -1.
         11   -1    0    0    0    0 -0.00000000000E+00 -0.00000000000E+00 -0.45593999997E+02  0.45594000000E+02  0.51100000000E-03 0.  1.
         23    2    1    2    0    0  0.00000000000E+00 -0.88817841970E-15  0.00000000000E+00  0.91188000000E+02  0.91188000000E+02 0.  0.
    9900012    2    3    3    0    0  0.35592140777E+02  0.58369486205E+01  0.74102533524E+01  0.54367050677E+02  0.39999923629E+02 0.  0.
        -12    1    3    3    0    0 -0.35592140777E+02 -0.58369486205E+01 -0.74102533524E+01  0.36820949323E+02  0.00000000000E+00 0.  1.
         11    1    4    4    0    0  0.15679671431E+02 -0.70798550684E+01 -0.64199330008E+01  0.18362788022E+02  0.51100000000E-03 0. -1.
        -11    1    4    4    0    0  0.50739337222E+01 -0.37793670197E+01 -0.39465764935E+01  0.74568012423E+01  0.51100000000E-03 0.  1.
         12    1    4    4    0    0  0.14838535624E+02  0.16696170709E+02  0.17776762847E+02  0.28547461413E+02  0.00000000000E+00 0. -1.
</event>
<event>
 8    1  0.2458065E-006  0.9118800E+02  0.7816164E-02  0.1184000E+00
        -11   -1    0    0    0    0  0.00000000000E+00  0.00000000000E+00  0.45593999997E+02  0.45594000000E+02  0.51100000000E-03 0. -1.
         11   -1    0    0    0    0 -0.00000000000E+00 -0.00000000000E+00 -0.45593999997E+02  0.45594000000E+02  0.51100000000E-03 0.  1.
         23    2    1    2    0    0  0.00000000000E+00  0.88817841970E-15  0.00000000000E+00  0.91188000000E+02  0.91188000000E+02 0.  0.
    9900012    2    3    3    0    0 -0.12801826555E+02 -0.38571131866E+01 -0.34307650959E+02  0.54367095617E+02  0.40000026078E+02 0.  0.
         12    1    3    3    0    0  0.12801826555E+02  0.38571131866E+01  0.34307650959E+02  0.36820904383E+02  0.00000000000E+00 0. -1.
         11    1    4    4    0    0 -0.16417181282E+02 -0.12289210495E+02 -0.12479709264E+02  0.24006075886E+02  0.51100000000E-03 0. -1.
        -11    1    4    4    0    0 -0.72635212320E+01  0.14096828989E+01 -0.12030062434E+02  0.14123326414E+02  0.51100000000E-03 0.  1.
         12    1    4    4    0    0  0.10878875960E+02  0.70224144094E+01 -0.97978792603E+01  0.16237693318E+02  0.00000000000E+00 0. -1.
</event>
<event>
 8    1  0.2458065E-006  0.9118800E+02  0.7816164E-02  0.1184000E+00
        -11   -1    0    0    0    0  0.00000000000E+00  0.00000000000E+00  0.45593999997E+02  0.45594000000E+02  0.51100000000E-03 0.  1.
         11   -1    0    0    0    0 -0.00000000000E+00 -0.00000000000E+00 -0.45593999997E+02  0.45594000000E+02  0.51100000000E-03 0. -1.
         23    2    1    2    0    0  0.00000000000E+00  0.35527136788E-14  0.88817841970E-15  0.91188000000E+02  0.91188000000E+02 0.  0.
    9900012    2    3    3    0    0  0.18254606554E+02  0.31200853938E+02 -0.70040483464E+01  0.54367073339E+02  0.39999975292E+02 0.  0.
        -12    1    3    3    0    0 -0.18254606554E+02 -0.31200853938E+02  0.70040483464E+01  0.36820926661E+02  0.00000000000E+00 0.  1.
         11    1    4    4    0    0  0.98041111492E+01  0.17184092600E+02  0.10268349088E+02  0.22290191277E+02  0.51100000000E-03 0. -1.
        -11    1    4    4    0    0 -0.28946251367E+01  0.11459849535E+02 -0.16665343080E+02  0.20431364768E+02  0.51100000000E-03 0.  1.
        -12    1    4    4    0    0  0.11345120541E+02  0.25569118030E+01 -0.60705435435E+00  0.11645517294E+02  0.00000000000E+00 0.  1.
</event>
<event>
 8    1  0.2458065E-006  0.9118800E+02  0.7816164E-02  0.1184000E+00
        -11   -1    0    0    0    0  0.00000000000E+00  0.00000000000E+00  0.45593999997E+02  0.45594000000E+02  0.51100000000E-03 0.  1.
         11   -1    0    0    0    0 -0.00000000000E+00 -0.00000000000E+00 -0.45593999997E+02  0.45594000000E+02  0.51100000000E-03 0. -1.
         23    2    1    2    0    0  0.17763568394E-14  0.00000000000E+00 -0.35527136788E-14  0.91188000000E+02  0.91188000000E+02 0.  0.
    9900012    2    3    3    0    0  0.15720360387E+02 -0.14610726557E+02  0.29919561309E+02  0.54367038441E+02  0.39999895734E+02 0.  0.
         12    1    3    3    0    0 -0.15720360387E+02  0.14610726557E+02 -0.29919561309E+02  0.36820961559E+02  0.00000000000E+00 0. -1.
         11    1    4    4    0    0  0.13135188886E+01 -0.13982221965E+02  0.60630488099E+01  0.15296680166E+02  0.51100000000E-03 0. -1.
        -11    1    4    4    0    0  0.71202210630E+01 -0.98663494646E+01  0.24428298107E+02  0.27290733746E+02  0.51100000000E-03 0.  1.
        -12    1    4    4    0    0  0.72866204353E+01  0.92378448731E+01 -0.57178560828E+00  0.11779624529E+02  0.00000000000E+00 0.  1.
</event>
<event>
 8    1  0.2458065E-006  0.9118800E+02  0.7816164E-02  0.1184000E+00
        -11   -1    0    0    0    0  0.00000000000E+00  0.00000000000E+00  0.45593999997E+02  0.45594000000E+02  0.51100000000E-03 0.  1.
         11   -1    0    0    0    0 -0.00000000000E+00 -0.00000000000E+00 -0.45593999997E+02  0.45594000000E+02  0.51100000000E-03 0. -1.
         23    2    1    2    0    0  0.35527136788E-14 -0.35527136788E-14 -0.17763568394E-14  0.91188000000E+02  0.91188000000E+02 0.  0.
    9900012    2    3    3    0    0 -0.23182474271E+02 -0.25065204632E+02 -0.13787254448E+02  0.54367082279E+02  0.39999995672E+02 0.  0.
        -12    1    3    3    0    0  0.23182474271E+02  0.25065204632E+02  0.13787254448E+02  0.36820917721E+02  0.00000000000E+00 0.  1.
         11    1    4    4    0    0  0.11787162096E+01  0.44811817670E+01 -0.13304300209E+02  0.14088107263E+02  0.51100000000E-03 0. -1.
        -11    1    4    4    0    0 -0.75767294406E+01 -0.15555329271E+02  0.44765615638E+01  0.17872176741E+02  0.51100000000E-03 0.  1.
         12    1    4    4    0    0 -0.16784461040E+02 -0.13991057128E+02 -0.49595158024E+01  0.22406798276E+02  0.00000000000E+00 0. -1.
</event>
<event>
 8    1  0.2458065E-006  0.9118800E+02  0.7816164E-02  0.1184000E+00
        -11   -1    0    0    0    0  0.00000000000E+00  0.00000000000E+00  0.45593999997E+02  0.45594000000E+02  0.51100000000E-03 0.  1.
         11   -1    0    0    0    0 -0.00000000000E+00 -0.00000000000E+00 -0.45593999997E+02  0.45594000000E+02  0.51100000000E-03 0. -1.
         23    2    1    2    0    0  0.35527136788E-14  0.71054273576E-14  0.00000000000E+00  0.91188000000E+02  0.91188000000E+02 0.  0.
    9900012    2    3    3    0    0 -0.22062586388E+02 -0.24595050576E+02 -0.16250908354E+02  0.54367268703E+02  0.40000420660E+02 0.  0.
        -12    1    3    3    0    0  0.22062586388E+02  0.24595050576E+02  0.16250908354E+02  0.36820731297E+02  0.00000000000E+00 0.  1.
         11    1    4    4    0    0 -0.12918960001E+02 -0.49104732973E+01  0.26332110612E+01  0.14069331052E+02  0.51100000000E-03 0. -1.
        -11    1    4    4    0    0  0.52929049676E+01  0.44207623098E+01 -0.94201274436E+00  0.69602708760E+01  0.51100000000E-03 0.  1.
        -12    1    4    4    0    0 -0.14436531355E+02 -0.24105339588E+02 -0.17942106671E+02  0.33337666775E+02  0.00000000000E+00 0.  1.
</event>
<event>
 8    1  0.2458065E-006  0.9118800E+02  0.7816164E-02  0.1184000E+00
        -11   -1    0    0    0    0  0.00000000000E+00  0.00000000000E+00  0.45593999997E+02  0.45594000000E+02  0.51100000000E-03 0.  1.
         11   -1    0    0    0    0 -0.00000000000E+00 -0.00000000000E+00 -0.45593999997E+02  0.45594000000E+02  0.51100000000E-03 0. -1.
         23    2    1    2    0    0  0.00000000000E+00  0.00000000000E+00  0.00000000000E+00  0.91188000000E+02  0.91188000000E+02 0.  0.
    9900012    2    3    3    0    0  0.32919807680E+02  0.16482517795E+02  0.62658985068E+00  0.54367085489E+02  0.40000002989E+02 0.  0.
         12    1    3    3    0    0 -0.32919807680E+02 -0.16482517795E+02 -0.62658985068E+00  0.36820914511E+02  0.00000000000E+00 0. -1.
         11    1    4    4    0    0  0.21501068409E+02  0.14752241195E+02  0.23113059299E+01  0.26177599171E+02  0.51100000000E-03 0. -1.
        -11    1    4    4    0    0 -0.69208823976E+01  0.56371477360E+01 -0.29360979009E+01  0.93966333813E+01  0.51100000000E-03 0.  1.
        -12    1    4    4    0    0  0.18339621669E+02 -0.39068711359E+01  0.12513818217E+01  0.18792852936E+02  0.00000000000E+00 0.  1.
</event>
<event>
 8    1  0.2458065E-006  0.9118800E+02  0.7816164E-02  0.1184000E+00
        -11   -1    0    0    0    0  0.00000000000E+00  0.00000000000E+00  0.45593999997E+02  0.45594000000E+02  0.51100000000E-03 0.  1.
         11   -1    0    0    0    0 -0.00000000000E+00 -0.00000000000E+00 -0.45593999997E+02  0.45594000000E+02  0.51100000000E-03 0. -1.
         23    2    1    2    0    0 -0.35527136788E-14  0.00000000000E+00  0.88817841970E-15  0.91188000000E+02  0.91188000000E+02 0.  0.
    9900012    2    3    3    0    0 -0.22955973719E+02  0.27780178883E+02 -0.75538382593E+01  0.54367142587E+02  0.40000133156E+02 0.  0.
        -12    1    3    3    0    0  0.22955973719E+02 -0.27780178883E+02  0.75538382593E+01  0.36820857413E+02  0.00000000000E+00 0.  1.
         11    1    4    4    0    0 -0.14586647148E+02  0.96387128278E+00 -0.69642125923E+00  0.14635037605E+02  0.51100000000E-03 0. -1.
        -11    1    4    4    0    0  0.44374897923E+01  0.46433671295E+01 -0.12004008077E+02  0.13614271340E+02  0.51100000000E-03 0.  1.
        -12    1    4    4    0    0 -0.12806816363E+02  0.22172940471E+02  0.51465910765E+01  0.26117833643E+02  0.00000000000E+00 0.  1.
</event>
<event>
 8    1  0.2458065E-006  0.9118800E+02  0.7816164E-02  0.1184000E+00
        -11   -1    0    0    0    0  0.00000000000E+00  0.00000000000E+00  0.45593999997E+02  0.45594000000E+02  0.51100000000E-03 0.  1.
         11   -1    0    0    0    0 -0.00000000000E+00 -0.00000000000E+00 -0.45593999997E+02  0.45594000000E+02  0.51100000000E-03 0. -1.
         23    2    1    2    0    0  0.00000000000E+00  0.00000000000E+00 -0.71054273576E-14  0.91188000000E+02  0.91188000000E+02 0.  0.
    9900012    2    3    3    0    0 -0.16942508065E+02  0.64290605286E+01  0.32053055347E+02  0.54367085347E+02  0.40000002665E+02 0.  0.
         12    1    3    3    0    0  0.16942508065E+02 -0.64290605286E+01 -0.32053055347E+02  0.36820914653E+02  0.00000000000E+00 0. -1.
         11    1    4    4    0    0 -0.14701802031E+02  0.47773203948E+01  0.25646576604E+01  0.15669819472E+02  0.51100000000E-03 0.  1.
        -11    1    4    4    0    0  0.50195646055E+01  0.72997389157E+01  0.28014011377E+02  0.29381406548E+02  0.51100000000E-03 0. -1.
         12    1    4    4    0    0 -0.72602706396E+01 -0.56479987819E+01  0.14743863100E+01  0.93158593266E+01  0.00000000000E+00 0. -1.
</event>
<event>
 8    1  0.2458065E-006  0.9118800E+02  0.7816164E-02  0.1184000E+00
        -11   -1    0    0    0    0  0.00000000000E+00  0.00000000000E+00  0.45593999997E+02  0.45594000000E+02  0.51100000000E-03 0. -1.
         11   -1    0    0    0    0 -0.00000000000E+00 -0.00000000000E+00 -0.45593999997E+02  0.45594000000E+02  0.51100000000E-03 0.  1.
         23    2    1    2    0    0  0.00000000000E+00 -0.17763568394E-14  0.35527136788E-14  0.91188000000E+02  0.91188000000E+02 0.  0.
    9900012    2    3    3    0    0 -0.21568734219E+02 -0.13309973841E+02 -0.26709819855E+02  0.54367079641E+02  0.39999989657E+02 0.  0.
         12    1    3    3    0    0  0.21568734219E+02  0.13309973841E+02  0.26709819855E+02  0.36820920359E+02  0.00000000000E+00 0. -1.
         11    1    4    4    0    0 -0.63720043441E-01 -0.34311844985E+01  0.24961768075E+01  0.42435817680E+01  0.51100000000E-03 0. -1.
        -11    1    4    4    0    0 -0.17698002787E+02 -0.37088963790E+01 -0.35937525683E+02  0.40230348836E+02  0.51100000000E-03 0.  1.
        -12    1    4    4    0    0 -0.38070113886E+01 -0.61698929630E+01  0.67315290211E+01  0.98931490361E+01  0.00000000000E+00 0.  1.
</event>
<event>
 8    1  0.2458065E-006  0.9118800E+02  0.7816164E-02  0.1184000E+00
        -11   -1    0    0    0    0  0.00000000000E+00  0.00000000000E+00  0.45593999997E+02  0.45594000000E+02  0.51100000000E-03 0. -1.
         11   -1    0    0    0    0 -0.00000000000E+00 -0.00000000000E+00 -0.45593999997E+02  0.45594000000E+02  0.51100000000E-03 0.  1.
         23    2    1    2    0    0 -0.35527136788E-14  0.00000000000E+00  0.22204460493E-15  0.91188000000E+02  0.91188000000E+02 0.  0.
    9900012    2    3    3    0    0  0.20791051180E+02  0.30363748822E+02  0.12471315209E+01  0.54367076753E+02  0.39999983075E+02 0.  0.
        -12    1    3    3    0    0 -0.20791051180E+02 -0.30363748822E+02 -0.12471315209E+01  0.36820923247E+02  0.00000000000E+00 0.  1.
         11    1    4    4    0    0  0.18398666990E+02  0.24003101364E+02 -0.21358073130E+01  0.30318665789E+02  0.51100000000E-03 0. -1.
        -11    1    4    4    0    0 -0.20492272790E+01  0.14296015686E+02  0.29686293804E+00  0.14445190369E+02  0.51100000000E-03 0.  1.
         12    1    4    4    0    0  0.44416114699E+01 -0.79353682282E+01  0.30860758958E+01  0.96032205953E+01  0.00000000000E+00 0. -1.
</event>
<event>
 8    1  0.2458065E-006  0.9118800E+02  0.7816164E-02  0.1184000E+00
        -11   -1    0    0    0    0  0.00000000000E+00  0.00000000000E+00  0.45593999997E+02  0.45594000000E+02  0.51100000000E-03 0.  1.
         11   -1    0    0    0    0 -0.00000000000E+00 -0.00000000000E+00 -0.45593999997E+02  0.45594000000E+02  0.51100000000E-03 0. -1.
         23    2    1    2    0    0  0.00000000000E+00 -0.35527136788E-14  0.00000000000E+00  0.91188000000E+02  0.91188000000E+02 0.  0.
    9900012    2    3    3    0    0 -0.98316158058E+01  0.28995936992E+02 -0.20453731538E+02  0.54367079788E+02  0.39999989994E+02 0.  0.
        -12    1    3    3    0    0  0.98316158058E+01 -0.28995936992E+02  0.20453731538E+02  0.36820920212E+02  0.00000000000E+00 0.  1.
         11    1    4    4    0    0  0.51412317770E+01  0.27488742515E+02 -0.10155763352E+02  0.29752357197E+02  0.51100000000E-03 0. -1.
        -11    1    4    4    0    0 -0.11425682136E+02 -0.36825368088E+01  0.61556712768E+00  0.12020241794E+02  0.51100000000E-03 0.  1.
        -12    1    4    4    0    0 -0.35471654463E+01  0.51897312858E+01 -0.10913535314E+02  0.12594480798E+02  0.00000000000E+00 0.  1.
</event>
<event>
 8    1  0.2458065E-006  0.9118800E+02  0.7816164E-02  0.1184000E+00
        -11   -1    0    0    0    0  0.00000000000E+00  0.00000000000E+00  0.45593999997E+02  0.45594000000E+02  0.51100000000E-03 0.  1.
         11   -1    0    0    0    0 -0.00000000000E+00 -0.00000000000E+00 -0.45593999997E+02  0.45594000000E+02  0.51100000000E-03 0. -1.
         23    2    1    2    0    0  0.00000000000E+00 -0.17763568394E-14 -0.71054273576E-14  0.91188000000E+02  0.91188000000E+02 0.  0.
    9900012    2    3    3    0    0 -0.29189459292E+02 -0.79586052826E+01 -0.20986133003E+02  0.54367058809E+02  0.39999942166E+02 0.  0.
        -12    1    3    3    0    0  0.29189459292E+02  0.79586052826E+01  0.20986133003E+02  0.36820941191E+02  0.00000000000E+00 0.  1.
         11    1    4    4    0    0 -0.22439689939E+02 -0.18474995930E+01 -0.16775986277E+02  0.28078223860E+02  0.51100000000E-03 0. -1.
        -11    1    4    4    0    0 -0.16646089017E+01  0.46541297349E+01 -0.11368605520E+02  0.12396654311E+02  0.51100000000E-03 0.  1.
        -12    1    4    4    0    0 -0.50851604518E+01 -0.10765235424E+02  0.71584587943E+01  0.13892180638E+02  0.00000000000E+00 0.  1.
</event>
<event>
 8    1  0.2458065E-006  0.9118800E+02  0.7816164E-02  0.1184000E+00
        -11   -1    0    0    0    0  0.00000000000E+00  0.00000000000E+00  0.45593999997E+02  0.45594000000E+02  0.51100000000E-03 0.  1.
         11   -1    0    0    0    0 -0.00000000000E+00 -0.00000000000E+00 -0.45593999997E+02  0.45594000000E+02  0.51100000000E-03 0. -1.
         23    2    1    2    0    0  0.00000000000E+00  0.00000000000E+00  0.35527136788E-14  0.91188000000E+02  0.91188000000E+02 0.  0.
    9900012    2    3    3    0    0 -0.92078834264E+01  0.17596082730E+02  0.31006044759E+02  0.54367054110E+02  0.39999931454E+02 0.  0.
         12    1    3    3    0    0  0.92078834264E+01 -0.17596082730E+02 -0.31006044759E+02  0.36820945890E+02  0.00000000000E+00 0. -1.
         11    1    4    4    0    0 -0.23287291084E+00  0.13946142732E+02 -0.69427995198E+00  0.13965355412E+02  0.51100000000E-03 0. -1.
        -11    1    4    4    0    0 -0.60293019731E+01  0.11046072790E+02  0.68937394521E+01  0.14348932025E+02  0.51100000000E-03 0.  1.
        -12    1    4    4    0    0 -0.29457085424E+01 -0.73961327910E+01  0.24806585259E+02  0.26052766673E+02  0.00000000000E+00 0.  1.
</event>
<event>
 8    1  0.2458065E-006  0.9118800E+02  0.7816164E-02  0.1184000E+00
        -11   -1    0    0    0    0  0.00000000000E+00  0.00000000000E+00  0.45593999997E+02  0.45594000000E+02  0.51100000000E-03 0.  1.
         11   -1    0    0    0    0 -0.00000000000E+00 -0.00000000000E+00 -0.45593999997E+02  0.45594000000E+02  0.51100000000E-03 0. -1.
         23    2    1    2    0    0  0.00000000000E+00  0.35527136788E-14  0.71054273576E-14  0.91188000000E+02  0.91188000000E+02 0.  0.
    9900012    2    3    3    0    0  0.14874305834E+02  0.13079834884E+02  0.31039520025E+02  0.54367097539E+02  0.40000030461E+02 0.  0.
         12    1    3    3    0    0 -0.14874305834E+02 -0.13079834884E+02 -0.31039520025E+02  0.36820902461E+02  0.00000000000E+00 0. -1.
         11    1    4    4    0    0 -0.55218327684E+01  0.41214182832E+00  0.76545161290E+01  0.94473337741E+01  0.51100000000E-03 0. -1.
        -11    1    4    4    0    0 -0.70015043182E+01  0.69111475851E+01  0.94747400081E+01  0.13658540264E+02  0.51100000000E-03 0.  1.
         12    1    4    4    0    0  0.27397642921E+02  0.57565454703E+01  0.13910263888E+02  0.31261223501E+02  0.00000000000E+00 0. -1.
</event>
<event>
 8    1  0.2458065E-006  0.9118800E+02  0.7816164E-02  0.1184000E+00
        -11   -1    0    0    0    0  0.00000000000E+00  0.00000000000E+00  0.45593999997E+02  0.45594000000E+02  0.51100000000E-03 0.  1.
         11   -1    0    0    0    0 -0.00000000000E+00 -0.00000000000E+00 -0.45593999997E+02  0.45594000000E+02  0.51100000000E-03 0. -1.
         23    2    1    2    0    0  0.00000000000E+00  0.00000000000E+00  0.00000000000E+00  0.91188000000E+02  0.91188000000E+02 0.  0.
    9900012    2    3    3    0    0  0.29703515037E+02 -0.41077746610E+01 -0.21368395331E+02  0.54367069305E+02  0.39999966094E+02 0.  0.
        -12    1    3    3    0    0 -0.29703515037E+02  0.41077746610E+01  0.21368395331E+02  0.36820930695E+02  0.00000000000E+00 0.  1.
         11    1    4    4    0    0 -0.32437331566E+01 -0.32512157010E-01 -0.19984546539E+01  0.38100765211E+01  0.51100000000E-03 0. -1.
        -11    1    4    4    0    0 -0.28320078690E+01 -0.10030837998E+02 -0.46237467709E+01  0.11402500339E+02  0.51100000000E-03 0.  1.
         12    1    4    4    0    0  0.35779256063E+02  0.59555754940E+01 -0.14746193906E+02  0.39154492445E+02  0.00000000000E+00 0. -1.
</event>
<event>
 8    1  0.2458065E-006  0.9118800E+02  0.7816164E-02  0.1184000E+00
        -11   -1    0    0    0    0  0.00000000000E+00  0.00000000000E+00  0.45593999997E+02  0.45594000000E+02  0.51100000000E-03 0. -1.
         11   -1    0    0    0    0 -0.00000000000E+00 -0.00000000000E+00 -0.45593999997E+02  0.45594000000E+02  0.51100000000E-03 0.  1.
         23    2    1    2    0    0  0.00000000000E+00  0.00000000000E+00  0.00000000000E+00  0.91188000000E+02  0.91188000000E+02 0.  0.
    9900012    2    3    3    0    0  0.20017795857E+02  0.20506919575E+02  0.23119991160E+02  0.54367083490E+02  0.39999998431E+02 0.  0.
        -12    1    3    3    0    0 -0.20017795857E+02 -0.20506919575E+02 -0.23119991160E+02  0.36820916510E+02  0.00000000000E+00 0.  1.
         11    1    4    4    0    0  0.57030343475E+01 -0.78082232836E+01  0.69557807330E+01  0.11911164405E+02  0.51100000000E-03 0. -1.
        -11    1    4    4    0    0  0.15520318995E+02  0.26434304401E+02  0.20980910286E+02  0.37146350394E+02  0.51100000000E-03 0.  1.
        -12    1    4    4    0    0 -0.12055574857E+01  0.18808384573E+01 -0.48166998590E+01  0.53095686911E+01  0.00000000000E+00 0.  1.
</event>
<event>
 8    1  0.2458065E-006  0.9118800E+02  0.7816164E-02  0.1184000E+00
        -11   -1    0    0    0    0  0.00000000000E+00  0.00000000000E+00  0.45593999997E+02  0.45594000000E+02  0.51100000000E-03 0.  1.
         11   -1    0    0    0    0 -0.00000000000E+00 -0.00000000000E+00 -0.45593999997E+02  0.45594000000E+02  0.51100000000E-03 0. -1.
         23    2    1    2    0    0 -0.35527136788E-14  0.00000000000E+00  0.35527136788E-14  0.91188000000E+02  0.91188000000E+02 0.  0.
    9900012    2    3    3    0    0 -0.28287492725E+02  0.58471211641E+01  0.22834384090E+02  0.54367079760E+02  0.39999989928E+02 0.  0.
         12    1    3    3    0    0  0.28287492725E+02 -0.58471211641E+01 -0.22834384090E+02  0.36820920240E+02  0.00000000000E+00 0. -1.
         11    1    4    4    0    0 -0.13348967642E+02 -0.13302788278E+02  0.30126455465E+01  0.19084945547E+02  0.51100000000E-03 0. -1.
        -11    1    4    4    0    0  0.17261799347E+01  0.36712949127E+00  0.67434088806E+01  0.69705125222E+01  0.51100000000E-03 0.  1.
        -12    1    4    4    0    0 -0.16664705018E+02  0.18782779950E+02  0.13078329662E+02  0.28311621691E+02  0.00000000000E+00 0.  1.
</event>
<event>
 8    1  0.2458065E-006  0.9118800E+02  0.7816164E-02  0.1184000E+00
        -11   -1    0    0    0    0  0.00000000000E+00  0.00000000000E+00  0.45593999997E+02  0.45594000000E+02  0.51100000000E-03 0. -1.
         11   -1    0    0    0    0 -0.00000000000E+00 -0.00000000000E+00 -0.45593999997E+02  0.45594000000E+02  0.51100000000E-03 0.  1.
         23    2    1    2    0    0  0.17763568394E-14  0.00000000000E+00  0.00000000000E+00  0.91188000000E+02  0.91188000000E+02 0.  0.
    9900012    2    3    3    0    0 -0.10515350469E+02  0.21358437348E+02  0.28089582324E+02  0.54367080992E+02  0.39999992738E+02 0.  0.
        -12    1    3    3    0    0  0.10515350469E+02 -0.21358437348E+02 -0.28089582324E+02  0.36820919008E+02  0.00000000000E+00 0.  1.
         11    1    4    4    0    0 -0.12439977801E+02  0.23031233378E+02  0.30109673932E+02  0.39897158084E+02  0.51100000000E-03 0. -1.
        -11    1    4    4    0    0  0.23993122117E+01  0.53563475257E+01  0.21879388687E+01  0.62637237056E+01  0.51100000000E-03 0.  1.
         12    1    4    4    0    0 -0.47468487914E+00 -0.70291435557E+01 -0.42080304766E+01  0.82061992026E+01  0.00000000000E+00 0. -1.
</event>
<event>
 8    1  0.2458065E-006  0.9118800E+02  0.7816164E-02  0.1184000E+00
        -11   -1    0    0    0    0  0.00000000000E+00  0.00000000000E+00  0.45593999997E+02  0.45594000000E+02  0.51100000000E-03 0.  1.
         11   -1    0    0    0    0 -0.00000000000E+00 -0.00000000000E+00 -0.45593999997E+02  0.45594000000E+02  0.51100000000E-03 0. -1.
         23    2    1    2    0    0  0.71054273576E-14  0.00000000000E+00  0.00000000000E+00  0.91188000000E+02  0.91188000000E+02 0.  0.
    9900012    2    3    3    0    0  0.34120100219E+02 -0.10276318071E+02 -0.92732819767E+01  0.54367113119E+02  0.40000065977E+02 0.  0.
        -12    1    3    3    0    0 -0.34120100219E+02  0.10276318071E+02  0.92732819767E+01  0.36820886881E+02  0.00000000000E+00 0.  1.
         11    1    4    4    0    0  0.17420451246E+02 -0.13202850496E+02 -0.93706369439E+01  0.23782266919E+02  0.51100000000E-03 0. -1.
        -11    1    4    4    0    0 -0.24569210327E+01 -0.48012514060E+01  0.69717892154E+01  0.88144382209E+01  0.51100000000E-03 0.  1.
        -12    1    4    4    0    0  0.19156570007E+02  0.77277838302E+01 -0.68744342482E+01  0.21770407979E+02  0.00000000000E+00 0.  1.
</event>
<event>
 8    1  0.2458065E-006  0.9118800E+02  0.7816164E-02  0.1184000E+00
        -11   -1    0    0    0    0  0.00000000000E+00  0.00000000000E+00  0.45593999997E+02  0.45594000000E+02  0.51100000000E-03 0. -1.
         11   -1    0    0    0    0 -0.00000000000E+00 -0.00000000000E+00 -0.45593999997E+02  0.45594000000E+02  0.51100000000E-03 0.  1.
         23    2    1    2    0    0  0.22204460493E-15 -0.17763568394E-14  0.00000000000E+00  0.91188000000E+02  0.91188000000E+02 0.  0.
    9900012    2    3    3    0    0  0.11995097393E+01  0.68515431770E+01 -0.36157985440E+02  0.54367049732E+02  0.39999921474E+02 0.  0.
         12    1    3    3    0    0 -0.11995097393E+01 -0.68515431770E+01  0.36157985440E+02  0.36820950268E+02  0.00000000000E+00 0. -1.
         11    1    4    4    0    0  0.37685579400E+01 -0.14158501767E+02 -0.11097135047E+02  0.18379652003E+02  0.51100000000E-03 0. -1.
        -11    1    4    4    0    0 -0.47033308867E+01  0.20436134058E+02 -0.15245948473E+02  0.25926739898E+02  0.51100000000E-03 0.  1.
        -12    1    4    4    0    0  0.21342826860E+01  0.57391088628E+00 -0.98149019202E+01  0.10060657831E+02  0.00000000000E+00 0.  1.
</event>
<event>
 8    1  0.2458065E-006  0.9118800E+02  0.7816164E-02  0.1184000E+00
        -11   -1    0    0    0    0  0.00000000000E+00  0.00000000000E+00  0.45593999997E+02  0.45594000000E+02  0.51100000000E-03 0. -1.
         11   -1    0    0    0    0 -0.00000000000E+00 -0.00000000000E+00 -0.45593999997E+02  0.45594000000E+02  0.51100000000E-03 0.  1.
         23    2    1    2    0    0  0.00000000000E+00  0.00000000000E+00  0.35527136788E-14  0.91188000000E+02  0.91188000000E+02 0.  0.
    9900012    2    3    3    0    0 -0.90929877867E+01 -0.19813063961E+02 -0.29673838920E+02  0.54367127567E+02  0.40000098915E+02 0.  0.
         12    1    3    3    0    0  0.90929877867E+01  0.19813063961E+02  0.29673838920E+02  0.36820872433E+02  0.00000000000E+00 0. -1.
         11    1    4    4    0    0  0.56838579905E+01  0.41301445437E+01 -0.16480656259E+02  0.17915813311E+02  0.51100000000E-03 0.  1.
        -11    1    4    4    0    0  0.22833651933E+01 -0.11983299947E+02 -0.83589434121E+00  0.12227508079E+02  0.51100000000E-03 0. -1.
         12    1    4    4    0    0 -0.17060210970E+02 -0.11959908558E+02 -0.12357288320E+02  0.24223806177E+02  0.00000000000E+00 0. -1.
</event>
<event>
 8    1  0.2458065E-006  0.9118800E+02  0.7816164E-02  0.1184000E+00
        -11   -1    0    0    0    0  0.00000000000E+00  0.00000000000E+00  0.45593999997E+02  0.45594000000E+02  0.51100000000E-03 0.  1.
         11   -1    0    0    0    0 -0.00000000000E+00 -0.00000000000E+00 -0.45593999997E+02  0.45594000000E+02  0.51100000000E-03 0. -1.
         23    2    1    2    0    0 -0.24424906542E-14  0.71054273576E-14  0.00000000000E+00  0.91188000000E+02  0.91188000000E+02 0.  0.
    9900012    2    3    3    0    0 -0.16065672212E+01  0.30276014609E+02 -0.20894063827E+02  0.54367081733E+02  0.39999994426E+02 0.  0.
        -12    1    3    3    0    0  0.16065672212E+01 -0.30276014609E+02  0.20894063827E+02  0.36820918267E+02  0.00000000000E+00 0.  1.
         11    1    4    4    0    0 -0.17221348881E+02  0.94052346306E+01 -0.18029660168E+01  0.19704922797E+02  0.51100000000E-03 0. -1.
        -11    1    4    4    0    0  0.15838339605E+02  0.22355861681E+02 -0.18439805261E+02  0.33025202063E+02  0.51100000000E-03 0.  1.
         12    1    4    4    0    0 -0.22355794531E+00 -0.14850817029E+01 -0.65129254909E+00  0.16369568729E+01  0.00000000000E+00 0. -1.
</event>
<event>
 8    1  0.2458065E-006  0.9118800E+02  0.7816164E-02  0.1184000E+00
        -11   -1    0    0    0    0  0.00000000000E+00  0.00000000000E+00  0.45593999997E+02  0.45594000000E+02  0.51100000000E-03 0.  1.
         11   -1    0    0    0    0 -0.00000000000E+00 -0.00000000000E+00 -0.45593999997E+02  0.45594000000E+02  0.51100000000E-03 0. -1.
         23    2    1    2    0    0  0.00000000000E+00 -0.44408920985E-15  0.00000000000E+00  0.91188000000E+02  0.91188000000E+02 0.  0.
    9900012    2    3    3    0    0  0.35454960656E+02 -0.39888279050E+01  0.91003727573E+01  0.54367058031E+02  0.39999940392E+02 0.  0.
        -12    1    3    3    0    0 -0.35454960656E+02  0.39888279050E+01 -0.91003727573E+01  0.36820941969E+02  0.00000000000E+00 0.  1.
         11    1    4    4    0    0  0.32368963844E+01 -0.11986285504E+02  0.75966075280E+00  0.12438875476E+02  0.51100000000E-03 0. -1.
        -11    1    4    4    0    0  0.34426373790E+02  0.17655373176E+01  0.72813541680E+01  0.35232235994E+02  0.51100000000E-03 0.  1.
        -12    1    4    4    0    0 -0.22083095180E+01  0.62319202814E+01  0.10593578365E+01  0.66959465609E+01  0.00000000000E+00 0.  1.
</event>
<event>
 8    1  0.2458065E-006  0.9118800E+02  0.7816164E-02  0.1184000E+00
        -11   -1    0    0    0    0  0.00000000000E+00  0.00000000000E+00  0.45593999997E+02  0.45594000000E+02  0.51100000000E-03 0. -1.
         11   -1    0    0    0    0 -0.00000000000E+00 -0.00000000000E+00 -0.45593999997E+02  0.45594000000E+02  0.51100000000E-03 0.  1.
         23    2    1    2    0    0  0.17763568394E-14  0.66613381478E-15 -0.71054273576E-14  0.91188000000E+02  0.91188000000E+02 0.  0.
    9900012    2    3    3    0    0 -0.81452008452E+01 -0.87964172302E+00  0.35897942563E+02  0.54367077325E+02  0.39999984379E+02 0.  0.
        -12    1    3    3    0    0  0.81452008452E+01  0.87964172302E+00 -0.35897942563E+02  0.36820922675E+02  0.00000000000E+00 0.  1.
         11    1    4    4    0    0  0.41529064032E+01  0.35933189647E+01  0.13952809286E+02  0.14994647713E+02  0.51100000000E-03 0. -1.
        -11    1    4    4    0    0  0.89797723977E+01  0.38077748556E+01  0.51633190471E+01  0.11036091949E+02  0.51100000000E-03 0.  1.
         12    1    4    4    0    0 -0.21277879646E+02 -0.82807355433E+01  0.16781814229E+02  0.28336337664E+02  0.00000000000E+00 0. -1.
</event>
<event>
 8    1  0.2458065E-006  0.9118800E+02  0.7816164E-02  0.1184000E+00
        -11   -1    0    0    0    0  0.00000000000E+00  0.00000000000E+00  0.45593999997E+02  0.45594000000E+02  0.51100000000E-03 0.  1.
         11   -1    0    0    0    0 -0.00000000000E+00 -0.00000000000E+00 -0.45593999997E+02  0.45594000000E+02  0.51100000000E-03 0. -1.
         23    2    1    2    0    0  0.35527136788E-14  0.00000000000E+00 -0.17763568394E-14  0.91188000000E+02  0.91188000000E+02 0.  0.
    9900012    2    3    3    0    0 -0.28893582535E+02  0.16574535573E+02 -0.15691600777E+02  0.54367072851E+02  0.39999974178E+02 0.  0.
        -12    1    3    3    0    0  0.28893582535E+02 -0.16574535573E+02  0.15691600777E+02  0.36820927149E+02  0.00000000000E+00 0.  1.
         11    1    4    4    0    0 -0.39942189222E+01  0.11438754879E+02 -0.17035547689E+02  0.20904755041E+02  0.51100000000E-03 0. -1.
        -11    1    4    4    0    0  0.83299937404E+00  0.42013606347E+01 -0.53536927172E+01  0.68561902767E+01  0.51100000000E-03 0.  1.
        -12    1    4    4    0    0 -0.25732362987E+02  0.93442005910E+00  0.66976396285E+01  0.26606127534E+02  0.00000000000E+00 0.  1.
</event>
<event>
 8    1  0.2458065E-006  0.9118800E+02  0.7816164E-02  0.1184000E+00
        -11   -1    0    0    0    0  0.00000000000E+00  0.00000000000E+00  0.45593999997E+02  0.45594000000E+02  0.51100000000E-03 0.  1.
         11   -1    0    0    0    0 -0.00000000000E+00 -0.00000000000E+00 -0.45593999997E+02  0.45594000000E+02  0.51100000000E-03 0. -1.
         23    2    1    2    0    0  0.00000000000E+00  0.35527136788E-14  0.88817841970E-15  0.91188000000E+02  0.91188000000E+02 0.  0.
    9900012    2    3    3    0    0  0.26712044077E+02 -0.24665092652E+02 -0.58206804839E+01  0.54367076389E+02  0.39999982243E+02 0.  0.
        -12    1    3    3    0    0 -0.26712044077E+02  0.24665092652E+02  0.58206804839E+01  0.36820923611E+02  0.00000000000E+00 0.  1.
         11    1    4    4    0    0  0.78281720954E+01 -0.17875223207E+02 -0.21975511292E+01  0.19637543489E+02  0.51100000000E-03 0. -1.
        -11    1    4    4    0    0  0.80463015084E+01 -0.45604223808E+01 -0.15780439485E+02  0.18291054941E+02  0.51100000000E-03 0.  1.
        -12    1    4    4    0    0  0.10837570473E+02 -0.22294470644E+01  0.12157310131E+02  0.16438477958E+02  0.00000000000E+00 0.  1.
</event>
<event>
 8    1  0.2458065E-006  0.9118800E+02  0.7816164E-02  0.1184000E+00
        -11   -1    0    0    0    0  0.00000000000E+00  0.00000000000E+00  0.45593999997E+02  0.45594000000E+02  0.51100000000E-03 0.  1.
         11   -1    0    0    0    0 -0.00000000000E+00 -0.00000000000E+00 -0.45593999997E+02  0.45594000000E+02  0.51100000000E-03 0. -1.
         23    2    1    2    0    0 -0.17763568394E-14  0.00000000000E+00  0.00000000000E+00  0.91188000000E+02  0.91188000000E+02 0.  0.
    9900012    2    3    3    0    0 -0.88833589167E+01 -0.35633927858E+02  0.26623246979E+01  0.54367097607E+02  0.40000030615E+02 0.  0.
        -12    1    3    3    0    0  0.88833589167E+01  0.35633927858E+02 -0.26623246979E+01  0.36820902393E+02  0.00000000000E+00 0.  1.
         11    1    4    4    0    0  0.10996061681E+01 -0.27909711797E+02 -0.35691629557E+01  0.28158481330E+02  0.51100000000E-03 0. -1.
        -11    1    4    4    0    0  0.69987226848E+01 -0.54434881786E+00  0.17340574448E+01  0.72308637338E+01  0.51100000000E-03 0.  1.
        -12    1    4    4    0    0 -0.16981687770E+02 -0.71798672428E+01  0.44974302087E+01  0.18977752544E+02  0.00000000000E+00 0.  1.
</event>
<event>
 8    1  0.2458065E-006  0.9118800E+02  0.7816164E-02  0.1184000E+00
        -11   -1    0    0    0    0  0.00000000000E+00  0.00000000000E+00  0.45593999997E+02  0.45594000000E+02  0.51100000000E-03 0.  1.
         11   -1    0    0    0    0 -0.00000000000E+00 -0.00000000000E+00 -0.45593999997E+02  0.45594000000E+02  0.51100000000E-03 0. -1.
         23    2    1    2    0    0  0.00000000000E+00  0.00000000000E+00  0.35527136788E-14  0.91188000000E+02  0.91188000000E+02 0.  0.
    9900012    2    3    3    0    0  0.12384504722E+02 -0.29302491537E+02  0.18540989712E+02  0.54367078407E+02  0.39999986843E+02 0.  0.
         12    1    3    3    0    0 -0.12384504722E+02  0.29302491537E+02 -0.18540989712E+02  0.36820921593E+02  0.00000000000E+00 0. -1.
         11    1    4    4    0    0 -0.81890826428E+01 -0.21854518556E+02  0.31424533706E+01  0.23549014190E+02  0.51100000000E-03 0. -1.
        -11    1    4    4    0    0  0.65497965514E+01 -0.11977010257E+01  0.13873932304E+02  0.15388967492E+02  0.51100000000E-03 0.  1.
         12    1    4    4    0    0  0.14023790813E+02 -0.62502719554E+01  0.15246040369E+01  0.15429096725E+02  0.00000000000E+00 0. -1.
</event>
<event>
 8    1  0.2458065E-006  0.9118800E+02  0.7816164E-02  0.1184000E+00
        -11   -1    0    0    0    0  0.00000000000E+00  0.00000000000E+00  0.45593999997E+02  0.45594000000E+02  0.51100000000E-03 0.  1.
         11   -1    0    0    0    0 -0.00000000000E+00 -0.00000000000E+00 -0.45593999997E+02  0.45594000000E+02  0.51100000000E-03 0. -1.
         23    2    1    2    0    0  0.00000000000E+00  0.17763568394E-14  0.00000000000E+00  0.91188000000E+02  0.91188000000E+02 0.  0.
    9900012    2    3    3    0    0 -0.11501084401E+02  0.64873792505E+01 -0.34371776060E+02  0.54367081741E+02  0.39999994445E+02 0.  0.
        -12    1    3    3    0    0  0.11501084401E+02 -0.64873792505E+01  0.34371776060E+02  0.36820918259E+02  0.00000000000E+00 0.  1.
         11    1    4    4    0    0 -0.60767331604E+01 -0.11638214390E+02 -0.15651814667E+02  0.20429244301E+02  0.51100000000E-03 0. -1.
        -11    1    4    4    0    0 -0.26038152993E+01 -0.42567500051E+01 -0.67659452435E+01  0.84070083869E+01  0.51100000000E-03 0.  1.
        -12    1    4    4    0    0 -0.28205359413E+01  0.22382343645E+02 -0.11954016149E+02  0.25530829053E+02  0.00000000000E+00 0.  1.
</event>
<event>
 8    1  0.2458065E-006  0.9118800E+02  0.7816164E-02  0.1184000E+00
        -11   -1    0    0    0    0  0.00000000000E+00  0.00000000000E+00  0.45593999997E+02  0.45594000000E+02  0.51100000000E-03 0.  1.
         11   -1    0    0    0    0 -0.00000000000E+00 -0.00000000000E+00 -0.45593999997E+02  0.45594000000E+02  0.51100000000E-03 0. -1.
         23    2    1    2    0    0  0.00000000000E+00  0.00000000000E+00  0.00000000000E+00  0.91188000000E+02  0.91188000000E+02 0.  0.
    9900012    2    3    3    0    0  0.24469653503E+02 -0.25203381045E+02  0.11036547269E+02  0.54367085640E+02  0.40000003335E+02 0.  0.
        -12    1    3    3    0    0 -0.24469653503E+02  0.25203381045E+02 -0.11036547269E+02  0.36820914360E+02  0.00000000000E+00 0.  1.
         11    1    4    4    0    0 -0.51409344664E+01  0.41079743303E+01  0.55435265800E+01  0.86043795529E+01  0.51100000000E-03 0.  1.
        -11    1    4    4    0    0  0.12853031425E+02 -0.16847713303E+02  0.11395263987E+02  0.24060297213E+02  0.51100000000E-03 0. -1.
         12    1    4    4    0    0  0.16757556544E+02 -0.12463642072E+02 -0.59022432980E+01  0.21702408875E+02  0.00000000000E+00 0. -1.
</event>
<event>
 8    1  0.2458065E-006  0.9118800E+02  0.7816164E-02  0.1184000E+00
        -11   -1    0    0    0    0  0.00000000000E+00  0.00000000000E+00  0.45593999997E+02  0.45594000000E+02  0.51100000000E-03 0.  1.
         11   -1    0    0    0    0 -0.00000000000E+00 -0.00000000000E+00 -0.45593999997E+02  0.45594000000E+02  0.51100000000E-03 0. -1.
         23    2    1    2    0    0  0.00000000000E+00 -0.88817841970E-15  0.00000000000E+00  0.91188000000E+02  0.91188000000E+02 0.  0.
    9900012    2    3    3    0    0 -0.18536486994E+02  0.58727892418E+01  0.31267877437E+02  0.54367202033E+02  0.40000268673E+02 0.  0.
         12    1    3    3    0    0  0.18536486994E+02 -0.58727892418E+01 -0.31267877437E+02  0.36820797967E+02  0.00000000000E+00 0. -1.
         11    1    4    4    0    0  0.24556081990E+01  0.14615895641E+02  0.30383538487E+01  0.15128979192E+02  0.51100000000E-03 0. -1.
        -11    1    4    4    0    0  0.61839086445E+00 -0.24891643591E+01 -0.63471329932E+00  0.26421975137E+01  0.51100000000E-03 0.  1.
        -12    1    4    4    0    0 -0.21610486057E+02 -0.62539420400E+01  0.28864236888E+02  0.36596025327E+02  0.00000000000E+00 0.  1.
</event>
<event>
 8    1  0.2458065E-006  0.9118800E+02  0.7816164E-02  0.1184000E+00
        -11   -1    0    0    0    0  0.00000000000E+00  0.00000000000E+00  0.45593999997E+02  0.45594000000E+02  0.51100000000E-03 0.  1.
         11   -1    0    0    0    0 -0.00000000000E+00 -0.00000000000E+00 -0.45593999997E+02  0.45594000000E+02  0.51100000000E-03 0. -1.
         23    2    1    2    0    0  0.00000000000E+00  0.44408920985E-15  0.35527136788E-14  0.91188000000E+02  0.91188000000E+02 0.  0.
    9900012    2    3    3    0    0 -0.29229178537E+02 -0.25671813704E+01 -0.22244962955E+02  0.54367167920E+02  0.40000190907E+02 0.  0.
        -12    1    3    3    0    0  0.29229178537E+02  0.25671813704E+01  0.22244962955E+02  0.36820832080E+02  0.00000000000E+00 0.  1.
         11    1    4    4    0    0 -0.83978744545E+01 -0.10825838148E+02 -0.21203554879E+01  0.13864305775E+02  0.51100000000E-03 0. -1.
        -11    1    4    4    0    0 -0.12002144717E+02 -0.50741933430E+01  0.20217147601E+01  0.13186593446E+02  0.51100000000E-03 0.  1.
        -12    1    4    4    0    0 -0.88291593664E+01  0.13332850121E+02 -0.22146322228E+02  0.27316268699E+02  0.00000000000E+00 0.  1.
</event>
<event>
 8    1  0.2458065E-006  0.9118800E+02  0.7816164E-02  0.1184000E+00
        -11   -1    0    0    0    0  0.00000000000E+00  0.00000000000E+00  0.45593999997E+02  0.45594000000E+02  0.51100000000E-03 0. -1.
         11   -1    0    0    0    0 -0.00000000000E+00 -0.00000000000E+00 -0.45593999997E+02  0.45594000000E+02  0.51100000000E-03 0.  1.
         23    2    1    2    0    0  0.00000000000E+00  0.00000000000E+00  0.00000000000E+00  0.91188000000E+02  0.91188000000E+02 0.  0.
    9900012    2    3    3    0    0 -0.13489711104E+02 -0.80987969182E+01  0.33289897719E+02  0.54367080575E+02  0.39999991786E+02 0.  0.
        -12    1    3    3    0    0  0.13489711104E+02  0.80987969182E+01 -0.33289897719E+02  0.36820919425E+02  0.00000000000E+00 0.  1.
         11    1    4    4    0    0 -0.28393100059E+01  0.87246877647E+01  0.86817383944E+01  0.12631486045E+02  0.51100000000E-03 0. -1.
        -11    1    4    4    0    0 -0.19920995367E+02 -0.11388848151E+02  0.16152592515E+02  0.28061684978E+02  0.51100000000E-03 0.  1.
        -12    1    4    4    0    0  0.92705942689E+01 -0.54346365324E+01  0.84555668095E+01  0.13673909551E+02  0.00000000000E+00 0.  1.
</event>
<event>
 8    1  0.2458065E-006  0.9118800E+02  0.7816164E-02  0.1184000E+00
        -11   -1    0    0    0    0  0.00000000000E+00  0.00000000000E+00  0.45593999997E+02  0.45594000000E+02  0.51100000000E-03 0.  1.
         11   -1    0    0    0    0 -0.00000000000E+00 -0.00000000000E+00 -0.45593999997E+02  0.45594000000E+02  0.51100000000E-03 0. -1.
         23    2    1    2    0    0  0.00000000000E+00 -0.35527136788E-14  0.88817841970E-15  0.91188000000E+02  0.91188000000E+02 0.  0.
    9900012    2    3    3    0    0  0.34748123689E+02  0.10697608797E+02  0.58231839507E+01  0.54367076529E+02  0.39999982564E+02 0.  0.
        -12    1    3    3    0    0 -0.34748123689E+02 -0.10697608797E+02 -0.58231839507E+01  0.36820923471E+02  0.00000000000E+00 0.  1.
         11    1    4    4    0    0  0.64406346944E+01  0.12538138061E+02  0.12664794446E+02  0.18949503949E+02  0.51100000000E-03 0. -1.
        -11    1    4    4    0    0  0.94678925109E+01 -0.89262028997E+01 -0.79680739623E+01  0.15258056552E+02  0.51100000000E-03 0.  1.
        -12    1    4    4    0    0  0.18839596484E+02  0.70856736359E+01  0.11264634674E+01  0.20159516028E+02  0.00000000000E+00 0.  1.
</event>
<event>
 8    1  0.2458065E-006  0.9118800E+02  0.7816164E-02  0.1184000E+00
        -11   -1    0    0    0    0  0.00000000000E+00  0.00000000000E+00  0.45593999997E+02  0.45594000000E+02  0.51100000000E-03 0. -1.
         11   -1    0    0    0    0 -0.00000000000E+00 -0.00000000000E+00 -0.45593999997E+02  0.45594000000E+02  0.51100000000E-03 0.  1.
         23    2    1    2    0    0  0.35527136788E-14  0.00000000000E+00  0.00000000000E+00  0.91188000000E+02  0.91188000000E+02 0.  0.
    9900012    2    3    3    0    0  0.26889380877E+02  0.17822582500E+02 -0.17750960372E+02  0.54367084137E+02  0.39999999907E+02 0.  0.
         12    1    3    3    0    0 -0.26889380877E+02 -0.17822582500E+02  0.17750960372E+02  0.36820915863E+02  0.00000000000E+00 0. -1.
         11    1    4    4    0    0 -0.68588690863E+01  0.12712463007E+02 -0.37582492724E+01  0.14925657061E+02  0.51100000000E-03 0. -1.
        -11    1    4    4    0    0  0.16096989638E+02 -0.16292970660E+01 -0.43270839245E+00  0.16185021506E+02  0.51100000000E-03 0.  1.
         12    1    4    4    0    0  0.17651260325E+02  0.67394165587E+01 -0.13560002707E+02  0.23256405569E+02  0.00000000000E+00 0. -1.
</event>
<event>
 8    1  0.2458065E-006  0.9118800E+02  0.7816164E-02  0.1184000E+00
        -11   -1    0    0    0    0  0.00000000000E+00  0.00000000000E+00  0.45593999997E+02  0.45594000000E+02  0.51100000000E-03 0. -1.
         11   -1    0    0    0    0 -0.00000000000E+00 -0.00000000000E+00 -0.45593999997E+02  0.45594000000E+02  0.51100000000E-03 0.  1.
         23    2    1    2    0    0  0.48849813084E-14 -0.13322676296E-14  0.00000000000E+00  0.91188000000E+02  0.91188000000E+02 0.  0.
    9900012    2    3    3    0    0  0.12008457748E+01 -0.38407982926E+01  0.36600343892E+02  0.54367096493E+02  0.40000028074E+02 0.  0.
        -12    1    3    3    0    0 -0.12008457748E+01  0.38407982926E+01 -0.36600343892E+02  0.36820903507E+02  0.00000000000E+00 0.  1.
         11    1    4    4    0    0 -0.16001441047E+02  0.37887106160E+01  0.11390934232E+02  0.20003845297E+02  0.51100000000E-03 0.  1.
        -11    1    4    4    0    0  0.17603902747E+02 -0.20104894657E+01  0.19045023407E+02  0.26012542679E+02  0.51100000000E-03 0. -1.
         12    1    4    4    0    0 -0.40161592465E+00 -0.56190194429E+01  0.61643862533E+01  0.83507085166E+01  0.00000000000E+00 0. -1.
</event>
<event>
 8    1  0.2458065E-006  0.9118800E+02  0.7816164E-02  0.1184000E+00
        -11   -1    0    0    0    0  0.00000000000E+00  0.00000000000E+00  0.45593999997E+02  0.45594000000E+02  0.51100000000E-03 0.  1.
         11   -1    0    0    0    0 -0.00000000000E+00 -0.00000000000E+00 -0.45593999997E+02  0.45594000000E+02  0.51100000000E-03 0. -1.
         23    2    1    2    0    0  0.00000000000E+00 -0.71054273576E-14  0.44408920985E-15  0.91188000000E+02  0.91188000000E+02 0.  0.
    9900012    2    3    3    0    0 -0.32751999950E+01 -0.36561514923E+02 -0.28825740265E+01  0.54367074679E+02  0.39999978346E+02 0.  0.
        -12    1    3    3    0    0  0.32751999950E+01  0.36561514923E+02  0.28825740265E+01  0.36820925321E+02  0.00000000000E+00 0.  1.
         11    1    4    4    0    0 -0.54411014185E+01 -0.10029580162E+02  0.59723815389E+01  0.12878951991E+02  0.51100000000E-03 0. -1.
        -11    1    4    4    0    0 -0.12981716724E+01 -0.90248400517E+00  0.95916392767E+01  0.97210735696E+01  0.51100000000E-03 0.  1.
         12    1    4    4    0    0  0.34640730959E+01 -0.25629450756E+02 -0.18446594842E+02  0.31767049119E+02  0.00000000000E+00 0. -1.
</event>
<event>
 8    1  0.2458065E-006  0.9118800E+02  0.7816164E-02  0.1184000E+00
        -11   -1    0    0    0    0  0.00000000000E+00  0.00000000000E+00  0.45593999997E+02  0.45594000000E+02  0.51100000000E-03 0.  1.
         11   -1    0    0    0    0 -0.00000000000E+00 -0.00000000000E+00 -0.45593999997E+02  0.45594000000E+02  0.51100000000E-03 0. -1.
         23    2    1    2    0    0 -0.35527136788E-14  0.00000000000E+00  0.35527136788E-14  0.91188000000E+02  0.91188000000E+02 0.  0.
    9900012    2    3    3    0    0  0.27873316810E+02 -0.11755571329E+02  0.20992030909E+02  0.54367073763E+02  0.39999976258E+02 0.  0.
         12    1    3    3    0    0 -0.27873316810E+02  0.11755571329E+02 -0.20992030909E+02  0.36820926237E+02  0.00000000000E+00 0. -1.
         11    1    4    4    0    0 -0.94103885661E+01 -0.62414237062E+01  0.18787962350E+01  0.11447299175E+02  0.51100000000E-03 0. -1.
        -11    1    4    4    0    0  0.17381486978E+02 -0.60777693751E+01  0.10772444456E+02  0.21333094711E+02  0.51100000000E-03 0.  1.
         12    1    4    4    0    0  0.19902218398E+02  0.56362175260E+00  0.83407902182E+01  0.21586679877E+02  0.00000000000E+00 0. -1.
</event>
<event>
 8    1  0.2458065E-006  0.9118800E+02  0.7816164E-02  0.1184000E+00
        -11   -1    0    0    0    0  0.00000000000E+00  0.00000000000E+00  0.45593999997E+02  0.45594000000E+02  0.51100000000E-03 0. -1.
         11   -1    0    0    0    0 -0.00000000000E+00 -0.00000000000E+00 -0.45593999997E+02  0.45594000000E+02  0.51100000000E-03 0.  1.
         23    2    1    2    0    0  0.00000000000E+00  0.00000000000E+00  0.00000000000E+00  0.91188000000E+02  0.91188000000E+02 0.  0.
    9900012    2    3    3    0    0 -0.34673799174E+02  0.40922225786E+01 -0.11694502539E+02  0.54367081700E+02  0.39999994351E+02 0.  0.
        -12    1    3    3    0    0  0.34673799174E+02 -0.40922225786E+01  0.11694502539E+02  0.36820918300E+02  0.00000000000E+00 0.  1.
         11    1    4    4    0    0 -0.95405454572E+00  0.40333828102E+01 -0.49571938082E+01  0.64615917299E+01  0.51100000000E-03 0. -1.
        -11    1    4    4    0    0 -0.51580983897E+01 -0.12104817701E+02 -0.10228423436E+02  0.16665930422E+02  0.51100000000E-03 0.  1.
         12    1    4    4    0    0 -0.28561646239E+02  0.12163657470E+02  0.34911147044E+01  0.31239559549E+02  0.00000000000E+00 0. -1.
</event>
<event>
 8    1  0.2458065E-006  0.9118800E+02  0.7816164E-02  0.1184000E+00
        -11   -1    0    0    0    0  0.00000000000E+00  0.00000000000E+00  0.45593999997E+02  0.45594000000E+02  0.51100000000E-03 0.  1.
         11   -1    0    0    0    0 -0.00000000000E+00 -0.00000000000E+00 -0.45593999997E+02  0.45594000000E+02  0.51100000000E-03 0. -1.
         23    2    1    2    0    0  0.00000000000E+00  0.00000000000E+00  0.00000000000E+00  0.91188000000E+02  0.91188000000E+02 0.  0.
    9900012    2    3    3    0    0 -0.20666495517E+02 -0.86570933751E+01 -0.29218665912E+02  0.54367085559E+02  0.40000003148E+02 0.  0.
        -12    1    3    3    0    0  0.20666495517E+02  0.86570933751E+01  0.29218665912E+02  0.36820914441E+02  0.00000000000E+00 0.  1.
         11    1    4    4    0    0 -0.15021174648E+02 -0.11619334557E+02 -0.26951496973E+02  0.32970104833E+02  0.51100000000E-03 0. -1.
        -11    1    4    4    0    0  0.56111162163E+01  0.19834208491E+01 -0.69641527974E+01  0.91606772623E+01  0.51100000000E-03 0.  1.
         12    1    4    4    0    0 -0.11256437085E+02  0.97882033313E+00  0.46969838581E+01  0.12236303463E+02  0.00000000000E+00 0. -1.
</event>
<event>
 8    1  0.2458065E-006  0.9118800E+02  0.7816164E-02  0.1184000E+00
        -11   -1    0    0    0    0  0.00000000000E+00  0.00000000000E+00  0.45593999997E+02  0.45594000000E+02  0.51100000000E-03 0. -1.
         11   -1    0    0    0    0 -0.00000000000E+00 -0.00000000000E+00 -0.45593999997E+02  0.45594000000E+02  0.51100000000E-03 0.  1.
         23    2    1    2    0    0  0.00000000000E+00 -0.66613381478E-15 -0.17763568394E-14  0.91188000000E+02  0.91188000000E+02 0.  0.
    9900012    2    3    3    0    0 -0.36605309835E+02 -0.10178618194E+01  0.38464695382E+01  0.54367080963E+02  0.39999992671E+02 0.  0.
        -12    1    3    3    0    0  0.36605309835E+02  0.10178618194E+01 -0.38464695382E+01  0.36820919037E+02  0.00000000000E+00 0.  1.
         11    1    4    4    0    0 -0.31557210483E+02  0.53203136872E+01  0.10886532515E+02  0.33803548063E+02  0.51100000000E-03 0. -1.
        -11    1    4    4    0    0  0.47324159266E+01  0.16093231680E+01  0.16404112637E+01  0.52608583840E+01  0.51100000000E-03 0.  1.
         12    1    4    4    0    0 -0.97805152793E+01 -0.79474986746E+01 -0.86804742403E+01  0.15302674516E+02  0.00000000000E+00 0. -1.
</event>
<event>
 8    1  0.2458065E-006  0.9118800E+02  0.7816164E-02  0.1184000E+00
        -11   -1    0    0    0    0  0.00000000000E+00  0.00000000000E+00  0.45593999997E+02  0.45594000000E+02  0.51100000000E-03 0.  1.
         11   -1    0    0    0    0 -0.00000000000E+00 -0.00000000000E+00 -0.45593999997E+02  0.45594000000E+02  0.51100000000E-03 0. -1.
         23    2    1    2    0    0 -0.88817841970E-15  0.00000000000E+00  0.00000000000E+00  0.91188000000E+02  0.91188000000E+02 0.  0.
    9900012    2    3    3    0    0 -0.71389533866E+01 -0.74569389016E+01 -0.35344127656E+02  0.54367109828E+02  0.40000058476E+02 0.  0.
        -12    1    3    3    0    0  0.71389533866E+01  0.74569389016E+01  0.35344127656E+02  0.36820890172E+02  0.00000000000E+00 0.  1.
         11    1    4    4    0    0  0.47114736212E+01  0.65981549172E+01 -0.14828923375E+02  0.16900609478E+02  0.51100000000E-03 0. -1.
        -11    1    4    4    0    0 -0.59191957447E+01  0.71498855528E+01 -0.51335163913E+01  0.10607107640E+02  0.51100000000E-03 0.  1.
        -12    1    4    4    0    0 -0.59312312630E+01 -0.21204979372E+02 -0.15381687890E+02  0.26859392711E+02  0.00000000000E+00 0.  1.
</event>
<event>
 8    1  0.2458065E-006  0.9118800E+02  0.7816164E-02  0.1184000E+00
        -11   -1    0    0    0    0  0.00000000000E+00  0.00000000000E+00  0.45593999997E+02  0.45594000000E+02  0.51100000000E-03 0.  1.
         11   -1    0    0    0    0 -0.00000000000E+00 -0.00000000000E+00 -0.45593999997E+02  0.45594000000E+02  0.51100000000E-03 0. -1.
         23    2    1    2    0    0  0.00000000000E+00  0.00000000000E+00  0.00000000000E+00  0.91188000000E+02  0.91188000000E+02 0.  0.
    9900012    2    3    3    0    0 -0.17367840741E+02  0.16048196558E+02 -0.28223990565E+02  0.54367080020E+02  0.39999990522E+02 0.  0.
        -12    1    3    3    0    0  0.17367840741E+02 -0.16048196558E+02  0.28223990565E+02  0.36820919980E+02  0.00000000000E+00 0.  1.
         11    1    4    4    0    0  0.74606821789E+00 -0.10451755793E+01 -0.16044688345E+02  0.16095994350E+02  0.51100000000E-03 0. -1.
        -11    1    4    4    0    0  0.69181476195E+01  0.31768264661E+01 -0.31787384779E+01  0.82496891731E+01  0.51100000000E-03 0.  1.
        -12    1    4    4    0    0 -0.25032056578E+02  0.13916545671E+02 -0.90005637420E+01  0.30021396497E+02  0.00000000000E+00 0.  1.
</event>
<event>
 8    1  0.2458065E-006  0.9118800E+02  0.7816164E-02  0.1184000E+00
        -11   -1    0    0    0    0  0.00000000000E+00  0.00000000000E+00  0.45593999997E+02  0.45594000000E+02  0.51100000000E-03 0. -1.
         11   -1    0    0    0    0 -0.00000000000E+00 -0.00000000000E+00 -0.45593999997E+02  0.45594000000E+02  0.51100000000E-03 0.  1.
         23    2    1    2    0    0  0.00000000000E+00  0.44408920985E-15 -0.17763568394E-14  0.91188000000E+02  0.91188000000E+02 0.  0.
    9900012    2    3    3    0    0  0.33892121154E+02  0.26979731494E+01 -0.14135974399E+02  0.54367072423E+02  0.39999973203E+02 0.  0.
         12    1    3    3    0    0 -0.33892121154E+02 -0.26979731494E+01  0.14135974399E+02  0.36820927577E+02  0.00000000000E+00 0. -1.
         11    1    4    4    0    0  0.29510139288E-01 -0.54023625021E+01 -0.33345039597E+00  0.54127239797E+01  0.51100000000E-03 0. -1.
        -11    1    4    4    0    0  0.16869583334E+02  0.20959667194E+01 -0.23095315977E+02  0.28676986220E+02  0.51100000000E-03 0.  1.
         12    1    4    4    0    0  0.16993027681E+02  0.60043689321E+01  0.92927919743E+01  0.20277362223E+02  0.00000000000E+00 0. -1.
</event>
<event>
 8    1  0.2458065E-006  0.9118800E+02  0.7816164E-02  0.1184000E+00
        -11   -1    0    0    0    0  0.00000000000E+00  0.00000000000E+00  0.45593999997E+02  0.45594000000E+02  0.51100000000E-03 0.  1.
         11   -1    0    0    0    0 -0.00000000000E+00 -0.00000000000E+00 -0.45593999997E+02  0.45594000000E+02  0.51100000000E-03 0. -1.
         23    2    1    2    0    0  0.00000000000E+00  0.00000000000E+00 -0.88817841970E-15  0.91188000000E+02  0.91188000000E+02 0.  0.
    9900012    2    3    3    0    0  0.36453061063E+02 -0.27035784072E+01  0.44322891407E+01  0.54367079532E+02  0.39999989410E+02 0.  0.
         12    1    3    3    0    0 -0.36453061063E+02  0.27035784072E+01 -0.44322891407E+01  0.36820920468E+02  0.00000000000E+00 0. -1.
         11    1    4    4    0    0 -0.45696227637E+00  0.42452075528E+01 -0.10970135157E+01  0.44084056759E+01  0.51100000000E-03 0. -1.
        -11    1    4    4    0    0  0.41131170848E+02 -0.34416562455E+01  0.10461454122E+02  0.42580045040E+02  0.51100000000E-03 0.  1.
        -12    1    4    4    0    0 -0.42211475088E+01 -0.35071297145E+01 -0.49321514656E+01  0.73786288160E+01  0.00000000000E+00 0.  1.
</event>
<event>
 8    1  0.2458065E-006  0.9118800E+02  0.7816164E-02  0.1184000E+00
        -11   -1    0    0    0    0  0.00000000000E+00  0.00000000000E+00  0.45593999997E+02  0.45594000000E+02  0.51100000000E-03 0. -1.
         11   -1    0    0    0    0 -0.00000000000E+00 -0.00000000000E+00 -0.45593999997E+02  0.45594000000E+02  0.51100000000E-03 0.  1.
         23    2    1    2    0    0  0.00000000000E+00  0.00000000000E+00  0.00000000000E+00  0.91188000000E+02  0.91188000000E+02 0.  0.
    9900012    2    3    3    0    0  0.28897314705E+02  0.24352720538E+01  0.22689079580E+02  0.54367086387E+02  0.40000005036E+02 0.  0.
        -12    1    3    3    0    0 -0.28897314705E+02 -0.24352720538E+01 -0.22689079580E+02  0.36820913613E+02  0.00000000000E+00 0.  1.
         11    1    4    4    0    0  0.24269553395E+02  0.12294248744E+02  0.26628299328E+02  0.38068702362E+02  0.51100000000E-03 0. -1.
        -11    1    4    4    0    0  0.13637372908E+01 -0.11042443978E+02 -0.10641774730E+00  0.11126844719E+02  0.51100000000E-03 0.  1.
         12    1    4    4    0    0  0.32640240187E+01  0.11834672876E+01 -0.38328020010E+01  0.51715393061E+01  0.00000000000E+00 0. -1.
</event>
<event>
 8    1  0.2458065E-006  0.9118800E+02  0.7816164E-02  0.1184000E+00
        -11   -1    0    0    0    0  0.00000000000E+00  0.00000000000E+00  0.45593999997E+02  0.45594000000E+02  0.51100000000E-03 0. -1.
         11   -1    0    0    0    0 -0.00000000000E+00 -0.00000000000E+00 -0.45593999997E+02  0.45594000000E+02  0.51100000000E-03 0.  1.
         23    2    1    2    0    0 -0.17763568394E-14  0.71054273576E-14  0.00000000000E+00  0.91188000000E+02  0.91188000000E+02 0.  0.
    9900012    2    3    3    0    0 -0.12359672452E+02 -0.34600388938E+02 -0.24149283741E+01  0.54367078001E+02  0.39999985919E+02 0.  0.
        -12    1    3    3    0    0  0.12359672452E+02  0.34600388938E+02  0.24149283741E+01  0.36820921999E+02  0.00000000000E+00 0.  1.
         11    1    4    4    0    0  0.64410125151E+01 -0.17024471406E+02 -0.70122210575E+01  0.19506166032E+02  0.51100000000E-03 0. -1.
        -11    1    4    4    0    0 -0.12303898580E+02  0.27002880979E+01 -0.15697452616E+01  0.12694155211E+02  0.51100000000E-03 0.  1.
         12    1    4    4    0    0 -0.64967863872E+01 -0.20276205630E+02  0.61670379450E+01  0.22166756757E+02  0.00000000000E+00 0. -1.
</event>
<event>
 8    1  0.2458065E-006  0.9118800E+02  0.7816164E-02  0.1184000E+00
        -11   -1    0    0    0    0  0.00000000000E+00  0.00000000000E+00  0.45593999997E+02  0.45594000000E+02  0.51100000000E-03 0.  1.
         11   -1    0    0    0    0 -0.00000000000E+00 -0.00000000000E+00 -0.45593999997E+02  0.45594000000E+02  0.51100000000E-03 0. -1.
         23    2    1    2    0    0  0.35527136788E-14 -0.71054273576E-14 -0.17763568394E-14  0.91188000000E+02  0.91188000000E+02 0.  0.
    9900012    2    3    3    0    0  0.12053209834E+02 -0.32446073448E+02 -0.12559950263E+02  0.54367083388E+02  0.39999998200E+02 0.  0.
        -12    1    3    3    0    0 -0.12053209834E+02  0.32446073448E+02  0.12559950263E+02  0.36820916612E+02  0.00000000000E+00 0.  1.
         11    1    4    4    0    0  0.15028315805E+02 -0.21297720040E+02 -0.14160341544E+02  0.29664093240E+02  0.51100000000E-03 0. -1.
        -11    1    4    4    0    0  0.48013024171E+01  0.21368439772E+01  0.66738973608E+01  0.84946755869E+01  0.51100000000E-03 0.  1.
        -12    1    4    4    0    0 -0.77764083877E+01 -0.13285197386E+02 -0.50735060799E+01  0.16208314562E+02  0.00000000000E+00 0.  1.
</event>
<event>
 8    1  0.2458065E-006  0.9118800E+02  0.7816164E-02  0.1184000E+00
        -11   -1    0    0    0    0  0.00000000000E+00  0.00000000000E+00  0.45593999997E+02  0.45594000000E+02  0.51100000000E-03 0. -1.
         11   -1    0    0    0    0 -0.00000000000E+00 -0.00000000000E+00 -0.45593999997E+02  0.45594000000E+02  0.51100000000E-03 0.  1.
         23    2    1    2    0    0  0.00000000000E+00  0.88817841970E-15  0.00000000000E+00  0.91188000000E+02  0.91188000000E+02 0.  0.
    9900012    2    3    3    0    0 -0.26959315399E+02 -0.45349937855E+01  0.24665945957E+02  0.54367085490E+02  0.40000002992E+02 0.  0.
        -12    1    3    3    0    0  0.26959315399E+02  0.45349937855E+01 -0.24665945957E+02  0.36820914510E+02  0.00000000000E+00 0.  1.
         11    1    4    4    0    0 -0.23070961207E+02  0.26752721762E+01  0.73974560364E+01  0.24375165401E+02  0.51100000000E-03 0. -1.
        -11    1    4    4    0    0 -0.55929095318E+00 -0.48935510861E+01 -0.51987853298E+01  0.71614954981E+01  0.51100000000E-03 0.  1.
         12    1    4    4    0    0 -0.33290632388E+01 -0.23167148755E+01  0.22467275250E+02  0.22830424591E+02  0.00000000000E+00 0. -1.
</event>
<event>
 8    1  0.2458065E-006  0.9118800E+02  0.7816164E-02  0.1184000E+00
        -11   -1    0    0    0    0  0.00000000000E+00  0.00000000000E+00  0.45593999997E+02  0.45594000000E+02  0.51100000000E-03 0. -1.
         11   -1    0    0    0    0 -0.00000000000E+00 -0.00000000000E+00 -0.45593999997E+02  0.45594000000E+02  0.51100000000E-03 0.  1.
         23    2    1    2    0    0 -0.11102230246E-14  0.00000000000E+00 -0.35527136788E-14  0.91188000000E+02  0.91188000000E+02 0.  0.
    9900012    2    3    3    0    0  0.12285382691E+01 -0.32108395706E+02  0.17981162009E+02  0.54367074315E+02  0.39999977517E+02 0.  0.
        -12    1    3    3    0    0 -0.12285382691E+01  0.32108395706E+02 -0.17981162009E+02  0.36820925685E+02  0.00000000000E+00 0.  1.
         11    1    4    4    0    0 -0.73143533159E+01 -0.18466654636E+02 -0.90414299454E+01  0.21823486284E+02  0.51100000000E-03 0. -1.
        -11    1    4    4    0    0  0.20669908646E+01 -0.84033054699E+01  0.19442528877E+02  0.21281445521E+02  0.51100000000E-03 0.  1.
         12    1    4    4    0    0  0.64759007204E+01 -0.52384355999E+01  0.75800630771E+01  0.11262142511E+02  0.00000000000E+00 0. -1.
</event>
<event>
 8    1  0.2458065E-006  0.9118800E+02  0.7816164E-02  0.1184000E+00
        -11   -1    0    0    0    0  0.00000000000E+00  0.00000000000E+00  0.45593999997E+02  0.45594000000E+02  0.51100000000E-03 0. -1.
         11   -1    0    0    0    0 -0.00000000000E+00 -0.00000000000E+00 -0.45593999997E+02  0.45594000000E+02  0.51100000000E-03 0.  1.
         23    2    1    2    0    0  0.44408920985E-15 -0.35527136788E-14  0.35527136788E-14  0.91188000000E+02  0.91188000000E+02 0.  0.
    9900012    2    3    3    0    0  0.29953556995E+01  0.28402903231E+02 -0.23239704843E+02  0.54367069147E+02  0.39999965733E+02 0.  0.
        -12    1    3    3    0    0 -0.29953556995E+01 -0.28402903231E+02  0.23239704843E+02  0.36820930853E+02  0.00000000000E+00 0.  1.
         11    1    4    4    0    0  0.12576580705E+01  0.83884868851E+01 -0.42518588862E+01  0.94882411591E+01  0.51100000000E-03 0. -1.
        -11    1    4    4    0    0 -0.59103901106E+01  0.17639906568E+02 -0.27493630456E+02  0.33196366230E+02  0.51100000000E-03 0.  1.
        -12    1    4    4    0    0  0.76480877396E+01  0.23745097786E+01  0.85057844994E+01  0.11682461757E+02  0.00000000000E+00 0.  1.
</event>
<event>
 8    1  0.2458065E-006  0.9118800E+02  0.7816164E-02  0.1184000E+00
        -11   -1    0    0    0    0  0.00000000000E+00  0.00000000000E+00  0.45593999997E+02  0.45594000000E+02  0.51100000000E-03 0. -1.
         11   -1    0    0    0    0 -0.00000000000E+00 -0.00000000000E+00 -0.45593999997E+02  0.45594000000E+02  0.51100000000E-03 0.  1.
         23    2    1    2    0    0  0.00000000000E+00  0.35527136788E-14  0.35527136788E-14  0.91188000000E+02  0.91188000000E+02 0.  0.
    9900012    2    3    3    0    0  0.19772724946E+02 -0.18993581333E+02  0.24577701086E+02  0.54367079665E+02  0.39999989712E+02 0.  0.
        -12    1    3    3    0    0 -0.19772724946E+02  0.18993581333E+02 -0.24577701086E+02  0.36820920335E+02  0.00000000000E+00 0.  1.
         11    1    4    4    0    0 -0.28722864180E+01 -0.31306458424E+00  0.50188698935E+01  0.57911219958E+01  0.51100000000E-03 0. -1.
        -11    1    4    4    0    0  0.69731175001E+01 -0.15445745495E+02 -0.63718341335E+01  0.18105128888E+02  0.51100000000E-03 0.  1.
         12    1    4    4    0    0  0.15671893864E+02 -0.32347712540E+01  0.25930665326E+02  0.30470828781E+02  0.00000000000E+00 0. -1.
</event>
<event>
 8    1  0.2458065E-006  0.9118800E+02  0.7816164E-02  0.1184000E+00
        -11   -1    0    0    0    0  0.00000000000E+00  0.00000000000E+00  0.45593999997E+02  0.45594000000E+02  0.51100000000E-03 0.  1.
         11   -1    0    0    0    0 -0.00000000000E+00 -0.00000000000E+00 -0.45593999997E+02  0.45594000000E+02  0.51100000000E-03 0. -1.
         23    2    1    2    0    0  0.00000000000E+00  0.00000000000E+00  0.00000000000E+00  0.91188000000E+02  0.91188000000E+02 0.  0.
    9900012    2    3    3    0    0  0.29813413990E+02 -0.18157333575E+02 -0.11715513207E+02  0.54367059410E+02  0.39999943536E+02 0.  0.
        -12    1    3    3    0    0 -0.29813413990E+02  0.18157333575E+02  0.11715513207E+02  0.36820940590E+02  0.00000000000E+00 0.  1.
         11    1    4    4    0    0  0.81648767092E+01  0.11096128579E+01 -0.98467886468E+01  0.12839614452E+02  0.51100000000E-03 0. -1.
        -11    1    4    4    0    0  0.11762947096E+01 -0.17398951838E+02  0.74416476647E+01  0.18960097957E+02  0.51100000000E-03 0.  1.
        -12    1    4    4    0    0  0.20472242571E+02 -0.18679945950E+01 -0.93103722246E+01  0.22567347001E+02  0.00000000000E+00 0.  1.
</event>
<event>
 8    1  0.2458065E-006  0.9118800E+02  0.7816164E-02  0.1184000E+00
        -11   -1    0    0    0    0  0.00000000000E+00  0.00000000000E+00  0.45593999997E+02  0.45594000000E+02  0.51100000000E-03 0.  1.
         11   -1    0    0    0    0 -0.00000000000E+00 -0.00000000000E+00 -0.45593999997E+02  0.45594000000E+02  0.51100000000E-03 0. -1.
         23    2    1    2    0    0  0.00000000000E+00  0.00000000000E+00  0.00000000000E+00  0.91188000000E+02  0.91188000000E+02 0.  0.
    9900012    2    3    3    0    0  0.33911005454E+02 -0.53310304624E+01 -0.13319314962E+02  0.54367077582E+02  0.39999984963E+02 0.  0.
        -12    1    3    3    0    0 -0.33911005454E+02  0.53310304624E+01  0.13319314962E+02  0.36820922418E+02  0.00000000000E+00 0.  1.
         11    1    4    4    0    0  0.23278855379E+01  0.82271961944E+01  0.68963198406E+01  0.10984763807E+02  0.51100000000E-03 0. -1.
        -11    1    4    4    0    0  0.20486466701E+02 -0.62994180005E+01 -0.29846903713E+01  0.21639925183E+02  0.51100000000E-03 0.  1.
         12    1    4    4    0    0  0.11096653215E+02 -0.72588086563E+01 -0.17230944431E+02  0.21742388592E+02  0.00000000000E+00 0. -1.
</event>
<event>
 8    1  0.2458065E-006  0.9118800E+02  0.7816164E-02  0.1184000E+00
        -11   -1    0    0    0    0  0.00000000000E+00  0.00000000000E+00  0.45593999997E+02  0.45594000000E+02  0.51100000000E-03 0.  1.
         11   -1    0    0    0    0 -0.00000000000E+00 -0.00000000000E+00 -0.45593999997E+02  0.45594000000E+02  0.51100000000E-03 0. -1.
         23    2    1    2    0    0  0.00000000000E+00 -0.44408920985E-15  0.00000000000E+00  0.91188000000E+02  0.91188000000E+02 0.  0.
    9900012    2    3    3    0    0 -0.31226113486E+02  0.14814590915E+01  0.19455493419E+02  0.54367066977E+02  0.39999960788E+02 0.  0.
         12    1    3    3    0    0  0.31226113486E+02 -0.14814590915E+01 -0.19455493419E+02  0.36820933023E+02  0.00000000000E+00 0. -1.
         11    1    4    4    0    0 -0.64445169897E+01  0.28084966942E+01  0.26367791135E+00  0.70348403830E+01  0.51100000000E-03 0. -1.
        -11    1    4    4    0    0 -0.21676035098E+02 -0.16835466175E+02  0.12501861617E+02  0.30159243410E+02  0.51100000000E-03 0.  1.
        -12    1    4    4    0    0 -0.31055613982E+01  0.15508428573E+02  0.66899538910E+01  0.17172983185E+02  0.00000000000E+00 0.  1.
</event>
<event>
 8    1  0.2458065E-006  0.9118800E+02  0.7816164E-02  0.1184000E+00
        -11   -1    0    0    0    0  0.00000000000E+00  0.00000000000E+00  0.45593999997E+02  0.45594000000E+02  0.51100000000E-03 0.  1.
         11   -1    0    0    0    0 -0.00000000000E+00 -0.00000000000E+00 -0.45593999997E+02  0.45594000000E+02  0.51100000000E-03 0. -1.
         23    2    1    2    0    0  0.17763568394E-14  0.00000000000E+00 -0.35527136788E-14  0.91188000000E+02  0.91188000000E+02 0.  0.
    9900012    2    3    3    0    0  0.89480745097E+01 -0.31895590390E+02 -0.16074287783E+02  0.54367089481E+02  0.40000012089E+02 0.  0.
        -12    1    3    3    0    0 -0.89480745097E+01  0.31895590390E+02  0.16074287783E+02  0.36820910519E+02  0.00000000000E+00 0.  1.
         11    1    4    4    0    0  0.20959863776E+01 -0.11700213792E+02 -0.31795708733E+01  0.12304382669E+02  0.51100000000E-03 0. -1.
        -11    1    4    4    0    0  0.10883393797E+02 -0.20518620459E+02  0.49647852423E+01  0.23751023954E+02  0.51100000000E-03 0.  1.
         12    1    4    4    0    0 -0.40313056644E+01  0.32324386161E+00 -0.17859502152E+02  0.18311682858E+02  0.00000000000E+00 0. -1.
</event>
<event>
 8    1  0.2458065E-006  0.9118800E+02  0.7816164E-02  0.1184000E+00
        -11   -1    0    0    0    0  0.00000000000E+00  0.00000000000E+00  0.45593999997E+02  0.45594000000E+02  0.51100000000E-03 0.  1.
         11   -1    0    0    0    0 -0.00000000000E+00 -0.00000000000E+00 -0.45593999997E+02  0.45594000000E+02  0.51100000000E-03 0. -1.
         23    2    1    2    0    0  0.00000000000E+00  0.00000000000E+00  0.00000000000E+00  0.91188000000E+02  0.91188000000E+02 0.  0.
    9900012    2    3    3    0    0 -0.18690398003E+02 -0.10838580422E+02 -0.29815667002E+02  0.54367084723E+02  0.40000001243E+02 0.  0.
        -12    1    3    3    0    0  0.18690398003E+02  0.10838580422E+02  0.29815667002E+02  0.36820915277E+02  0.00000000000E+00 0.  1.
         11    1    4    4    0    0  0.49338778469E+01 -0.42564407950E+01 -0.26157604210E+02  0.26957015731E+02  0.51100000000E-03 0. -1.
        -11    1    4    4    0    0 -0.13472108648E+02 -0.44050954015E+01 -0.78618608857E+01  0.16208375420E+02  0.51100000000E-03 0.  1.
         12    1    4    4    0    0 -0.10152167202E+02 -0.21770442252E+01  0.42037980942E+01  0.11201693571E+02  0.00000000000E+00 0. -1.
</event>
<event>
 8    1  0.2458065E-006  0.9118800E+02  0.7816164E-02  0.1184000E+00
        -11   -1    0    0    0    0  0.00000000000E+00  0.00000000000E+00  0.45593999997E+02  0.45594000000E+02  0.51100000000E-03 0.  1.
         11   -1    0    0    0    0 -0.00000000000E+00 -0.00000000000E+00 -0.45593999997E+02  0.45594000000E+02  0.51100000000E-03 0. -1.
         23    2    1    2    0    0  0.00000000000E+00  0.71054273576E-14  0.35527136788E-14  0.91188000000E+02  0.91188000000E+02 0.  0.
    9900012    2    3    3    0    0  0.52141669383E+01 -0.32187776289E+02  0.17103771549E+02  0.54367089087E+02  0.40000011191E+02 0.  0.
         12    1    3    3    0    0 -0.52141669383E+01  0.32187776289E+02 -0.17103771549E+02  0.36820910913E+02  0.00000000000E+00 0. -1.
         11    1    4    4    0    0  0.63338742378E+01 -0.24029575250E+01 -0.38685140457E+01  0.78011261309E+01  0.51100000000E-03 0. -1.
        -11    1    4    4    0    0 -0.86425268431E+01 -0.22213458211E+02  0.92378168922E+00  0.23853393234E+02  0.51100000000E-03 0.  1.
        -12    1    4    4    0    0  0.75228195436E+01 -0.75713605528E+01  0.20048503906E+02  0.22712569722E+02  0.00000000000E+00 0.  1.
</event>
<event>
 8    1  0.2458065E-006  0.9118800E+02  0.7816164E-02  0.1184000E+00
        -11   -1    0    0    0    0  0.00000000000E+00  0.00000000000E+00  0.45593999997E+02  0.45594000000E+02  0.51100000000E-03 0. -1.
         11   -1    0    0    0    0 -0.00000000000E+00 -0.00000000000E+00 -0.45593999997E+02  0.45594000000E+02  0.51100000000E-03 0.  1.
         23    2    1    2    0    0  0.00000000000E+00  0.26645352591E-14 -0.17763568394E-14  0.91188000000E+02  0.91188000000E+02 0.  0.
    9900012    2    3    3    0    0  0.34607573665E+02 -0.30373574270E+01 -0.12201231879E+02  0.54367085366E+02  0.40000002710E+02 0.  0.
        -12    1    3    3    0    0 -0.34607573665E+02  0.30373574270E+01  0.12201231879E+02  0.36820914634E+02  0.00000000000E+00 0.  1.
         11    1    4    4    0    0  0.13966868720E+02 -0.16896042549E+02  0.21948579152E+00  0.21922542050E+02  0.51100000000E-03 0.  1.
        -11    1    4    4    0    0  0.14810528120E+02  0.15402544588E+02 -0.34646033521E+01  0.21647022881E+02  0.51100000000E-03 0. -1.
         12    1    4    4    0    0  0.58301768243E+01 -0.15438594664E+01 -0.89561143186E+01  0.10797520435E+02  0.00000000000E+00 0. -1.
</event>
<event>
 8    1  0.2458065E-006  0.9118800E+02  0.7816164E-02  0.1184000E+00
        -11   -1    0    0    0    0  0.00000000000E+00  0.00000000000E+00  0.45593999997E+02  0.45594000000E+02  0.51100000000E-03 0. -1.
         11   -1    0    0    0    0 -0.00000000000E+00 -0.00000000000E+00 -0.45593999997E+02  0.45594000000E+02  0.51100000000E-03 0.  1.
         23    2    1    2    0    0 -0.35527136788E-14 -0.35527136788E-14  0.00000000000E+00  0.91188000000E+02  0.91188000000E+02 0.  0.
    9900012    2    3    3    0    0  0.22168198901E+02  0.25876706133E+02  0.13955135867E+02  0.54367098601E+02  0.40000032880E+02 0.  0.
        -12    1    3    3    0    0 -0.22168198901E+02 -0.25876706133E+02 -0.13955135867E+02  0.36820901399E+02  0.00000000000E+00 0.  1.
         11    1    4    4    0    0  0.20744433453E+02  0.52845745416E+01  0.94558320212E+00  0.21427841124E+02  0.51100000000E-03 0. -1.
        -11    1    4    4    0    0 -0.36294382892E+01  0.42255634331E+01 -0.54247379039E+01  0.77753450219E+01  0.51100000000E-03 0.  1.
        -12    1    4    4    0    0  0.50532037372E+01  0.16366568158E+02  0.18434290568E+02  0.25163912455E+02  0.00000000000E+00 0.  1.
</event>
<event>
 8    1  0.2458065E-006  0.9118800E+02  0.7816164E-02  0.1184000E+00
        -11   -1    0    0    0    0  0.00000000000E+00  0.00000000000E+00  0.45593999997E+02  0.45594000000E+02  0.51100000000E-03 0.  1.
         11   -1    0    0    0    0 -0.00000000000E+00 -0.00000000000E+00 -0.45593999997E+02  0.45594000000E+02  0.51100000000E-03 0. -1.
         23    2    1    2    0    0  0.00000000000E+00 -0.22204460493E-14 -0.88817841970E-15  0.91188000000E+02  0.91188000000E+02 0.  0.
    9900012    2    3    3    0    0  0.36391301466E+02 -0.35590554794E+01 -0.43343392761E+01  0.54367079381E+02  0.39999989064E+02 0.  0.
         12    1    3    3    0    0 -0.36391301466E+02  0.35590554794E+01  0.43343392761E+01  0.36820920619E+02  0.00000000000E+00 0. -1.
         11    1    4    4    0    0  0.63289657242E+00  0.53857279023E+01 -0.36049255006E+00  0.54347565032E+01  0.51100000000E-03 0. -1.
        -11    1    4    4    0    0  0.11779863143E+02  0.61519655314E+01  0.10664367129E+02  0.17039383266E+02  0.51100000000E-03 0.  1.
        -12    1    4    4    0    0  0.23978541750E+02 -0.15096748913E+02 -0.14638213855E+02  0.31892939612E+02  0.00000000000E+00 0.  1.
</event>
<event>
 8    1  0.2458065E-006  0.9118800E+02  0.7816164E-02  0.1184000E+00
        -11   -1    0    0    0    0  0.00000000000E+00  0.00000000000E+00  0.45593999997E+02  0.45594000000E+02  0.51100000000E-03 0.  1.
         11   -1    0    0    0    0 -0.00000000000E+00 -0.00000000000E+00 -0.45593999997E+02  0.45594000000E+02  0.51100000000E-03 0. -1.
         23    2    1    2    0    0  0.35527136788E-14 -0.35527136788E-14  0.88817841970E-15  0.91188000000E+02  0.91188000000E+02 0.  0.
    9900012    2    3    3    0    0 -0.22551075328E+02 -0.28493907114E+02  0.59436611666E+01  0.54367070501E+02  0.39999968822E+02 0.  0.
        -12    1    3    3    0    0  0.22551075328E+02  0.28493907114E+02 -0.59436611666E+01  0.36820929499E+02  0.00000000000E+00 0.  1.
         11    1    4    4    0    0 -0.20072029555E+02 -0.27117124589E+02 -0.28248554392E+01  0.33855643915E+02  0.51100000000E-03 0. -1.
        -11    1    4    4    0    0  0.49792688904E+01  0.52272884430E+01 -0.31469364514E-01  0.72193250191E+01  0.51100000000E-03 0.  1.
        -12    1    4    4    0    0 -0.74583146642E+01 -0.66040709684E+01  0.87999859704E+01  0.13292101567E+02  0.00000000000E+00 0.  1.
</event>
<event>
 8    1  0.2458065E-006  0.9118800E+02  0.7816164E-02  0.1184000E+00
        -11   -1    0    0    0    0  0.00000000000E+00  0.00000000000E+00  0.45593999997E+02  0.45594000000E+02  0.51100000000E-03 0.  1.
         11   -1    0    0    0    0 -0.00000000000E+00 -0.00000000000E+00 -0.45593999997E+02  0.45594000000E+02  0.51100000000E-03 0. -1.
         23    2    1    2    0    0  0.35527136788E-14  0.00000000000E+00 -0.35527136788E-14  0.91188000000E+02  0.91188000000E+02 0.  0.
    9900012    2    3    3    0    0  0.17390452405E+02 -0.13766722565E+02 -0.29390991933E+02  0.54367069922E+02  0.39999967501E+02 0.  0.
        -12    1    3    3    0    0 -0.17390452405E+02  0.13766722565E+02  0.29390991933E+02  0.36820930078E+02  0.00000000000E+00 0.  1.
         11    1    4    4    0    0 -0.98606841812E+01 -0.87913277646E+01 -0.71679931277E+01  0.15029992087E+02  0.51100000000E-03 0. -1.
        -11    1    4    4    0    0  0.63248882759E+01  0.34042585946E+00  0.22310819587E+01  0.67154916749E+01  0.51100000000E-03 0.  1.
         12    1    4    4    0    0  0.20926248310E+02 -0.53158206600E+01 -0.24454080764E+02  0.32621586160E+02  0.00000000000E+00 0. -1.
</event>
<event>
 8    1  0.2458065E-006  0.9118800E+02  0.7816164E-02  0.1184000E+00
        -11   -1    0    0    0    0  0.00000000000E+00  0.00000000000E+00  0.45593999997E+02  0.45594000000E+02  0.51100000000E-03 0. -1.
         11   -1    0    0    0    0 -0.00000000000E+00 -0.00000000000E+00 -0.45593999997E+02  0.45594000000E+02  0.51100000000E-03 0.  1.
         23    2    1    2    0    0  0.00000000000E+00 -0.17763568394E-14 -0.35527136788E-14  0.91188000000E+02  0.91188000000E+02 0.  0.
    9900012    2    3    3    0    0 -0.33325774945E+02 -0.11440302511E+02 -0.10690787230E+02  0.54367072136E+02  0.39999972547E+02 0.  0.
         12    1    3    3    0    0  0.33325774945E+02  0.11440302511E+02  0.10690787230E+02  0.36820927864E+02  0.00000000000E+00 0. -1.
         11    1    4    4    0    0 -0.11011251702E+01 -0.10650085718E+02  0.53942491416E+01  0.11988941842E+02  0.51100000000E-03 0. -1.
        -11    1    4    4    0    0 -0.70420419454E+01 -0.86429448519E+01  0.60157386038E+00  0.11164799230E+02  0.51100000000E-03 0.  1.
        -12    1    4    4    0    0 -0.25182607829E+02  0.78527280585E+01 -0.16686610232E+02  0.31213331063E+02  0.00000000000E+00 0.  1.
</event>
<event>
 8    1  0.2458065E-006  0.9118800E+02  0.7816164E-02  0.1184000E+00
        -11   -1    0    0    0    0  0.00000000000E+00  0.00000000000E+00  0.45593999997E+02  0.45594000000E+02  0.51100000000E-03 0.  1.
         11   -1    0    0    0    0 -0.00000000000E+00 -0.00000000000E+00 -0.45593999997E+02  0.45594000000E+02  0.51100000000E-03 0. -1.
         23    2    1    2    0    0 -0.35527136788E-14 -0.17763568394E-14  0.00000000000E+00  0.91188000000E+02  0.91188000000E+02 0.  0.
    9900012    2    3    3    0    0 -0.27649107789E+02 -0.78660169541E+01 -0.23009421137E+02  0.54367070553E+02  0.39999968941E+02 0.  0.
        -12    1    3    3    0    0  0.27649107789E+02  0.78660169541E+01  0.23009421137E+02  0.36820929447E+02  0.00000000000E+00 0.  1.
         11    1    4    4    0    0 -0.10054767405E+02  0.27176142260E+01 -0.14928200524E+02  0.18202608214E+02  0.51100000000E-03 0. -1.
        -11    1    4    4    0    0 -0.18401804862E+02  0.53975683002E+01 -0.32587429096E+01  0.19451981168E+02  0.51100000000E-03 0.  1.
        -12    1    4    4    0    0  0.80746447818E+00 -0.15981199480E+02 -0.48224777039E+01  0.16712481172E+02  0.00000000000E+00 0.  1.
</event>
<event>
 8    1  0.2458065E-006  0.9118800E+02  0.7816164E-02  0.1184000E+00
        -11   -1    0    0    0    0  0.00000000000E+00  0.00000000000E+00  0.45593999997E+02  0.45594000000E+02  0.51100000000E-03 0.  1.
         11   -1    0    0    0    0 -0.00000000000E+00 -0.00000000000E+00 -0.45593999997E+02  0.45594000000E+02  0.51100000000E-03 0. -1.
         23    2    1    2    0    0  0.00000000000E+00  0.35527136788E-14 -0.13322676296E-14  0.91188000000E+02  0.91188000000E+02 0.  0.
    9900012    2    3    3    0    0 -0.21949458597E+02  0.29510604967E+02  0.17677510967E+01  0.54367089064E+02  0.40000011139E+02 0.  0.
        -12    1    3    3    0    0  0.21949458597E+02 -0.29510604967E+02 -0.17677510967E+01  0.36820910936E+02  0.00000000000E+00 0.  1.
         11    1    4    4    0    0 -0.15830337742E+00  0.10753140726E+02 -0.11680336831E+02  0.15877196358E+02  0.51100000000E-03 0. -1.
        -11    1    4    4    0    0 -0.17475765040E+02  0.41504527987E+01  0.14695923013E+02  0.23207730946E+02  0.51100000000E-03 0.  1.
        -12    1    4    4    0    0 -0.43153901799E+01  0.14607011442E+02 -0.12478350853E+01  0.15282161761E+02  0.00000000000E+00 0.  1.
</event>
<event>
 8    1  0.2458065E-006  0.9118800E+02  0.7816164E-02  0.1184000E+00
        -11   -1    0    0    0    0  0.00000000000E+00  0.00000000000E+00  0.45593999997E+02  0.45594000000E+02  0.51100000000E-03 0. -1.
         11   -1    0    0    0    0 -0.00000000000E+00 -0.00000000000E+00 -0.45593999997E+02  0.45594000000E+02  0.51100000000E-03 0.  1.
         23    2    1    2    0    0  0.17763568394E-14 -0.35527136788E-14  0.00000000000E+00  0.91188000000E+02  0.91188000000E+02 0.  0.
    9900012    2    3    3    0    0  0.87481080135E+01 -0.29735330095E+02  0.19876128097E+02  0.54367085864E+02  0.40000003845E+02 0.  0.
        -12    1    3    3    0    0 -0.87481080135E+01  0.29735330095E+02 -0.19876128097E+02  0.36820914136E+02  0.00000000000E+00 0.  1.
         11    1    4    4    0    0  0.13800648276E+02 -0.17472819018E+02  0.12211556536E+02  0.25394475985E+02  0.51100000000E-03 0. -1.
        -11    1    4    4    0    0 -0.11722817774E+02 -0.44210605155E+01  0.12412001236E+02  0.17635986153E+02  0.51100000000E-03 0.  1.
        -12    1    4    4    0    0  0.66702775115E+01 -0.78414505612E+01 -0.47474296751E+01  0.11336623726E+02  0.00000000000E+00 0.  1.
</event>
<event>
 8    1  0.2458065E-006  0.9118800E+02  0.7816164E-02  0.1184000E+00
        -11   -1    0    0    0    0  0.00000000000E+00  0.00000000000E+00  0.45593999997E+02  0.45594000000E+02  0.51100000000E-03 0. -1.
         11   -1    0    0    0    0 -0.00000000000E+00 -0.00000000000E+00 -0.45593999997E+02  0.45594000000E+02  0.51100000000E-03 0.  1.
         23    2    1    2    0    0 -0.17763568394E-14 -0.13322676296E-14  0.00000000000E+00  0.91188000000E+02  0.91188000000E+02 0.  0.
    9900012    2    3    3    0    0  0.15691784582E+02 -0.26674244406E+01  0.33202889235E+02  0.54367094117E+02  0.40000022658E+02 0.  0.
        -12    1    3    3    0    0 -0.15691784582E+02  0.26674244406E+01 -0.33202889235E+02  0.36820905883E+02  0.00000000000E+00 0.  1.
         11    1    4    4    0    0  0.13697458631E+02 -0.99834533787E+01  0.59401530948E+01  0.17960376760E+02  0.51100000000E-03 0. -1.
        -11    1    4    4    0    0  0.52155914452E+00  0.88100672610E+01 -0.23543846779E+00  0.88286318656E+01  0.51100000000E-03 0.  1.
        -12    1    4    4    0    0  0.14727668065E+01 -0.14940383230E+01  0.27498174608E+02  0.27578085491E+02  0.00000000000E+00 0.  1.
</event>
<event>
 8    1  0.2458065E-006  0.9118800E+02  0.7816164E-02  0.1184000E+00
        -11   -1    0    0    0    0  0.00000000000E+00  0.00000000000E+00  0.45593999997E+02  0.45594000000E+02  0.51100000000E-03 0.  1.
         11   -1    0    0    0    0 -0.00000000000E+00 -0.00000000000E+00 -0.45593999997E+02  0.45594000000E+02  0.51100000000E-03 0. -1.
         23    2    1    2    0    0  0.35527136788E-14  0.71054273576E-14 -0.35527136788E-14  0.91188000000E+02  0.91188000000E+02 0.  0.
    9900012    2    3    3    0    0 -0.22006987023E+02 -0.23728120145E+02  0.17562708221E+02  0.54367083614E+02  0.39999998716E+02 0.  0.
         12    1    3    3    0    0  0.22006987023E+02  0.23728120145E+02 -0.17562708221E+02  0.36820916386E+02  0.00000000000E+00 0. -1.
         11    1    4    4    0    0  0.29061864393E+01 -0.35885261718E+00 -0.36682808076E+01  0.46937169882E+01  0.51100000000E-03 0. -1.
        -11    1    4    4    0    0  0.92555561183E+00 -0.61618884281E+00 -0.57971349749E+01  0.59028057785E+01  0.51100000000E-03 0.  1.
        -12    1    4    4    0    0 -0.25838729074E+02 -0.22753078685E+02  0.27028124003E+02  0.43770560848E+02  0.00000000000E+00 0.  1.
</event>
<event>
 8    1  0.2458065E-006  0.9118800E+02  0.7816164E-02  0.1184000E+00
        -11   -1    0    0    0    0  0.00000000000E+00  0.00000000000E+00  0.45593999997E+02  0.45594000000E+02  0.51100000000E-03 0.  1.
         11   -1    0    0    0    0 -0.00000000000E+00 -0.00000000000E+00 -0.45593999997E+02  0.45594000000E+02  0.51100000000E-03 0. -1.
         23    2    1    2    0    0  0.00000000000E+00  0.00000000000E+00 -0.17763568394E-14  0.91188000000E+02  0.91188000000E+02 0.  0.
    9900012    2    3    3    0    0  0.12230284023E+02 -0.33805753907E+02 -0.79607250971E+01  0.54367055028E+02  0.39999933548E+02 0.  0.
        -12    1    3    3    0    0 -0.12230284023E+02  0.33805753907E+02  0.79607250971E+01  0.36820944972E+02  0.00000000000E+00 0.  1.
         11    1    4    4    0    0  0.96113351123E+01 -0.18101695434E+02 -0.15905022466E+02  0.25942607427E+02  0.51100000000E-03 0. -1.
        -11    1    4    4    0    0 -0.88127112323E+01 -0.94547603773E+01 -0.43814341912E+00  0.12932453092E+02  0.51100000000E-03 0.  1.
         12    1    4    4    0    0  0.11431660143E+02 -0.62492980961E+01  0.83824407878E+01  0.15491994509E+02  0.00000000000E+00 0. -1.
</event>
<event>
 8    1  0.2458065E-006  0.9118800E+02  0.7816164E-02  0.1184000E+00
        -11   -1    0    0    0    0  0.00000000000E+00  0.00000000000E+00  0.45593999997E+02  0.45594000000E+02  0.51100000000E-03 0. -1.
         11   -1    0    0    0    0 -0.00000000000E+00 -0.00000000000E+00 -0.45593999997E+02  0.45594000000E+02  0.51100000000E-03 0.  1.
         23    2    1    2    0    0  0.00000000000E+00  0.00000000000E+00  0.00000000000E+00  0.91188000000E+02  0.91188000000E+02 0.  0.
    9900012    2    3    3    0    0  0.29738673993E+02  0.18262114345E+02  0.11742422565E+02  0.54367108662E+02  0.40000055818E+02 0.  0.
        -12    1    3    3    0    0 -0.29738673993E+02 -0.18262114345E+02 -0.11742422565E+02  0.36820891338E+02  0.00000000000E+00 0.  1.
         11    1    4    4    0    0  0.52461700621E+01  0.23002776576E+02  0.60169507216E+01  0.24348587778E+02  0.51100000000E-03 0. -1.
        -11    1    4    4    0    0  0.39399752970E+01 -0.36759390964E+01  0.76405257942E+01  0.93495223543E+01  0.51100000000E-03 0.  1.
         12    1    4    4    0    0  0.20552528634E+02 -0.10647231352E+01 -0.19150539510E+01  0.20668998530E+02  0.00000000000E+00 0. -1.
</event>
<event>
 8    1  0.2458065E-006  0.9118800E+02  0.7816164E-02  0.1184000E+00
        -11   -1    0    0    0    0  0.00000000000E+00  0.00000000000E+00  0.45593999997E+02  0.45594000000E+02  0.51100000000E-03 0. -1.
         11   -1    0    0    0    0 -0.00000000000E+00 -0.00000000000E+00 -0.45593999997E+02  0.45594000000E+02  0.51100000000E-03 0.  1.
         23    2    1    2    0    0  0.00000000000E+00 -0.35527136788E-14  0.66613381478E-15  0.91188000000E+02  0.91188000000E+02 0.  0.
    9900012    2    3    3    0    0  0.32887341459E+02 -0.16453906804E+02  0.18625713728E+01  0.54367116666E+02  0.40000074064E+02 0.  0.
         12    1    3    3    0    0 -0.32887341459E+02  0.16453906804E+02 -0.18625713728E+01  0.36820883334E+02  0.00000000000E+00 0. -1.
         11    1    4    4    0    0  0.10193439399E+01  0.16711218922E+01  0.12410642203E+02  0.12564065846E+02  0.51100000000E-03 0. -1.
        -11    1    4    4    0    0  0.71326109241E+00 -0.15375644866E+01  0.34415910849E+01  0.38363257674E+01  0.51100000000E-03 0.  1.
        -12    1    4    4    0    0  0.31154736427E+02 -0.16587464210E+02 -0.13989661915E+02  0.37966725053E+02  0.00000000000E+00 0.  1.
</event>
<event>
 8    1  0.2458065E-006  0.9118800E+02  0.7816164E-02  0.1184000E+00
        -11   -1    0    0    0    0  0.00000000000E+00  0.00000000000E+00  0.45593999997E+02  0.45594000000E+02  0.51100000000E-03 0.  1.
         11   -1    0    0    0    0 -0.00000000000E+00 -0.00000000000E+00 -0.45593999997E+02  0.45594000000E+02  0.51100000000E-03 0. -1.
         23    2    1    2    0    0 -0.35527136788E-14  0.00000000000E+00 -0.35527136788E-14  0.91188000000E+02  0.91188000000E+02 0.  0.
    9900012    2    3    3    0    0 -0.31961799526E+02 -0.11177390661E+02  0.14466959212E+02  0.54367033150E+02  0.39999883672E+02 0.  0.
        -12    1    3    3    0    0  0.31961799526E+02  0.11177390661E+02 -0.14466959212E+02  0.36820966850E+02  0.00000000000E+00 0.  1.
         11    1    4    4    0    0 -0.27497756186E+02  0.50991757850E+00  0.18456663925E+02  0.33121519510E+02  0.51100000000E-03 0. -1.
        -11    1    4    4    0    0 -0.58114400356E+01 -0.13740476516E+02 -0.77056538868E+01  0.16791385656E+02  0.51100000000E-03 0.  1.
        -12    1    4    4    0    0  0.13473966952E+01  0.20531682766E+01  0.37159491744E+01  0.44541279834E+01  0.00000000000E+00 0.  1.
</event>
<event>
 8    1  0.2458065E-006  0.9118800E+02  0.7816164E-02  0.1184000E+00
        -11   -1    0    0    0    0  0.00000000000E+00  0.00000000000E+00  0.45593999997E+02  0.45594000000E+02  0.51100000000E-03 0.  1.
         11   -1    0    0    0    0 -0.00000000000E+00 -0.00000000000E+00 -0.45593999997E+02  0.45594000000E+02  0.51100000000E-03 0. -1.
         23    2    1    2    0    0  0.35527136788E-14  0.00000000000E+00 -0.17763568394E-14  0.91188000000E+02  0.91188000000E+02 0.  0.
    9900012    2    3    3    0    0 -0.28524662927E+02 -0.18278911782E+02 -0.14422364738E+02  0.54367087251E+02  0.40000007005E+02 0.  0.
        -12    1    3    3    0    0  0.28524662927E+02  0.18278911782E+02  0.14422364738E+02  0.36820912749E+02  0.00000000000E+00 0.  1.
         11    1    4    4    0    0 -0.28423270190E+01 -0.18275665226E+02 -0.16879217400E+00  0.18496141581E+02  0.51100000000E-03 0. -1.
        -11    1    4    4    0    0 -0.21086448696E+02 -0.55884208044E+01 -0.23479693617E+01  0.21940413079E+02  0.51100000000E-03 0.  1.
         12    1    4    4    0    0 -0.45958872125E+01  0.55851742479E+01 -0.11905603203E+02  0.13930532591E+02  0.00000000000E+00 0. -1.
</event>
<event>
 8    1  0.2458065E-006  0.9118800E+02  0.7816164E-02  0.1184000E+00
        -11   -1    0    0    0    0  0.00000000000E+00  0.00000000000E+00  0.45593999997E+02  0.45594000000E+02  0.51100000000E-03 0. -1.
         11   -1    0    0    0    0 -0.00000000000E+00 -0.00000000000E+00 -0.45593999997E+02  0.45594000000E+02  0.51100000000E-03 0.  1.
         23    2    1    2    0    0  0.00000000000E+00  0.00000000000E+00  0.00000000000E+00  0.91188000000E+02  0.91188000000E+02 0.  0.
    9900012    2    3    3    0    0  0.62987136410E+01 -0.12891556470E+02 -0.33910384773E+02  0.54367079083E+02  0.39999988385E+02 0.  0.
         12    1    3    3    0    0 -0.62987136410E+01  0.12891556470E+02  0.33910384773E+02  0.36820920917E+02  0.00000000000E+00 0. -1.
         11    1    4    4    0    0  0.56445903105E+01 -0.20217123086E+02 -0.69638915622E+01  0.22115362344E+02  0.51100000000E-03 0. -1.
        -11    1    4    4    0    0 -0.20459315715E+01  0.23615114133E+00 -0.24039615739E+02  0.24127675571E+02  0.51100000000E-03 0.  1.
        -12    1    4    4    0    0  0.27000549020E+01  0.70894154750E+01 -0.29068774722E+01  0.81240411674E+01  0.00000000000E+00 0.  1.
</event>
<event>
 8    1  0.2458065E-006  0.9118800E+02  0.7816164E-02  0.1184000E+00
        -11   -1    0    0    0    0  0.00000000000E+00  0.00000000000E+00  0.45593999997E+02  0.45594000000E+02  0.51100000000E-03 0.  1.
         11   -1    0    0    0    0 -0.00000000000E+00 -0.00000000000E+00 -0.45593999997E+02  0.45594000000E+02  0.51100000000E-03 0. -1.
         23    2    1    2    0    0  0.00000000000E+00  0.00000000000E+00 -0.17763568394E-14  0.91188000000E+02  0.91188000000E+02 0.  0.
    9900012    2    3    3    0    0 -0.34430853331E+02  0.94745031238E+01 -0.89738136784E+01  0.54367092862E+02  0.40000019797E+02 0.  0.
        -12    1    3    3    0    0  0.34430853331E+02 -0.94745031238E+01  0.89738136784E+01  0.36820907138E+02  0.00000000000E+00 0.  1.
         11    1    4    4    0    0 -0.11831265352E+02 -0.17930386826E+01 -0.13596146988E+01  0.12043354181E+02  0.51100000000E-03 0. -1.
        -11    1    4    4    0    0 -0.12633464746E+02  0.21742335674E+02 -0.11043252512E+02  0.27464286234E+02  0.51100000000E-03 0.  1.
        -12    1    4    4    0    0 -0.99661232331E+01 -0.10474793868E+02  0.34290535324E+01  0.14859452446E+02  0.00000000000E+00 0.  1.
</event>
<event>
 8    1  0.2458065E-006  0.9118800E+02  0.7816164E-02  0.1184000E+00
        -11   -1    0    0    0    0  0.00000000000E+00  0.00000000000E+00  0.45593999997E+02  0.45594000000E+02  0.51100000000E-03 0. -1.
         11   -1    0    0    0    0 -0.00000000000E+00 -0.00000000000E+00 -0.45593999997E+02  0.45594000000E+02  0.51100000000E-03 0.  1.
         23    2    1    2    0    0  0.00000000000E+00  0.00000000000E+00  0.00000000000E+00  0.91188000000E+02  0.91188000000E+02 0.  0.
    9900012    2    3    3    0    0  0.11774361523E+02 -0.33743309995E+02  0.88618280142E+01  0.54367101661E+02  0.40000039858E+02 0.  0.
        -12    1    3    3    0    0 -0.11774361523E+02  0.33743309995E+02 -0.88618280142E+01  0.36820898339E+02  0.00000000000E+00 0.  1.
         11    1    4    4    0    0  0.15847688004E+02 -0.27355478803E+02 -0.88407447573E+00  0.31626777003E+02  0.51100000000E-03 0. -1.
        -11    1    4    4    0    0  0.68838624918E+01 -0.85508414305E+00  0.75816003434E+01  0.10276156661E+02  0.51100000000E-03 0.  1.
         12    1    4    4    0    0 -0.10957188973E+02 -0.55327470486E+01  0.21643021465E+01  0.12464167997E+02  0.00000000000E+00 0. -1.
</event>
<event>
 8    1  0.2458065E-006  0.9118800E+02  0.7816164E-02  0.1184000E+00
        -11   -1    0    0    0    0  0.00000000000E+00  0.00000000000E+00  0.45593999997E+02  0.45594000000E+02  0.51100000000E-03 0. -1.
         11   -1    0    0    0    0 -0.00000000000E+00 -0.00000000000E+00 -0.45593999997E+02  0.45594000000E+02  0.51100000000E-03 0.  1.
         23    2    1    2    0    0  0.00000000000E+00  0.35527136788E-14  0.00000000000E+00  0.91188000000E+02  0.91188000000E+02 0.  0.
    9900012    2    3    3    0    0 -0.10018133000E+02 -0.20677599503E+02 -0.28772452686E+02  0.54367080082E+02  0.39999990663E+02 0.  0.
         12    1    3    3    0    0  0.10018133000E+02  0.20677599503E+02  0.28772452686E+02  0.36820919918E+02  0.00000000000E+00 0. -1.
         11    1    4    4    0    0  0.38217547827E+01 -0.68943161704E-01 -0.51050601245E+01  0.63774761398E+01  0.51100000000E-03 0. -1.
        -11    1    4    4    0    0  0.34107260422E+01 -0.23181304050E+01  0.71275828964E+01  0.82346353238E+01  0.51100000000E-03 0.  1.
        -12    1    4    4    0    0 -0.17250613825E+02 -0.18290525937E+02 -0.30794975458E+02  0.39754968618E+02  0.00000000000E+00 0.  1.
</event>
<event>
 8    1  0.2458065E-006  0.9118800E+02  0.7816164E-02  0.1184000E+00
        -11   -1    0    0    0    0  0.00000000000E+00  0.00000000000E+00  0.45593999997E+02  0.45594000000E+02  0.51100000000E-03 0.  1.
         11   -1    0    0    0    0 -0.00000000000E+00 -0.00000000000E+00 -0.45593999997E+02  0.45594000000E+02  0.51100000000E-03 0. -1.
         23    2    1    2    0    0  0.00000000000E+00 -0.17763568394E-14  0.17763568394E-14  0.91188000000E+02  0.91188000000E+02 0.  0.
    9900012    2    3    3    0    0  0.32855456839E+02  0.15147795077E+02  0.68441084696E+01  0.54367101579E+02  0.40000039669E+02 0.  0.
         12    1    3    3    0    0 -0.32855456839E+02 -0.15147795077E+02 -0.68441084696E+01  0.36820898421E+02  0.00000000000E+00 0. -1.
         11    1    4    4    0    0  0.10995050814E+02 -0.47069938900E+01 -0.14933428453E+01  0.12053091180E+02  0.51100000000E-03 0. -1.
        -11    1    4    4    0    0  0.50446964514E+01  0.34558813867E+01 -0.10536477970E+02  0.12182341594E+02  0.51100000000E-03 0.  1.
        -12    1    4    4    0    0  0.16815709574E+02  0.16398907580E+02  0.18873929285E+02  0.30131668804E+02  0.00000000000E+00 0.  1.
</event>
<event>
 8    1  0.2458065E-006  0.9118800E+02  0.7816164E-02  0.1184000E+00
        -11   -1    0    0    0    0  0.00000000000E+00  0.00000000000E+00  0.45593999997E+02  0.45594000000E+02  0.51100000000E-03 0.  1.
         11   -1    0    0    0    0 -0.00000000000E+00 -0.00000000000E+00 -0.45593999997E+02  0.45594000000E+02  0.51100000000E-03 0. -1.
         23    2    1    2    0    0  0.19428902931E-15  0.00000000000E+00  0.35527136788E-14  0.91188000000E+02  0.91188000000E+02 0.  0.
    9900012    2    3    3    0    0  0.19832216021E+00  0.20330969615E+02 -0.30698433468E+02  0.54367062009E+02  0.39999949462E+02 0.  0.
        -12    1    3    3    0    0 -0.19832216021E+00 -0.20330969615E+02  0.30698433468E+02  0.36820937991E+02  0.00000000000E+00 0.  1.
         11    1    4    4    0    0 -0.66924511378E+00  0.12533424875E+02 -0.10912295576E+02  0.16631681308E+02  0.51100000000E-03 0. -1.
        -11    1    4    4    0    0  0.10841432719E+02 -0.76456329043E+01 -0.11554787085E+02  0.17592767569E+02  0.51100000000E-03 0.  1.
        -12    1    4    4    0    0 -0.99738654453E+01  0.15443177644E+02 -0.82313508070E+01  0.20142613132E+02  0.00000000000E+00 0.  1.
</event>
<event>
 8    1  0.2458065E-006  0.9118800E+02  0.7816164E-02  0.1184000E+00
        -11   -1    0    0    0    0  0.00000000000E+00  0.00000000000E+00  0.45593999997E+02  0.45594000000E+02  0.51100000000E-03 0. -1.
         11   -1    0    0    0    0 -0.00000000000E+00 -0.00000000000E+00 -0.45593999997E+02  0.45594000000E+02  0.51100000000E-03 0.  1.
         23    2    1    2    0    0  0.00000000000E+00  0.00000000000E+00  0.00000000000E+00  0.91188000000E+02  0.91188000000E+02 0.  0.
    9900012    2    3    3    0    0  0.14214851861E+02 -0.33586635978E+02  0.50651243126E+01  0.54367087273E+02  0.40000007057E+02 0.  0.
        -12    1    3    3    0    0 -0.14214851861E+02  0.33586635978E+02 -0.50651243126E+01  0.36820912727E+02  0.00000000000E+00 0.  1.
         11    1    4    4    0    0  0.36259807444E+01 -0.16409509543E+01  0.76524249316E+01  0.86255471704E+01  0.51100000000E-03 0. -1.
        -11    1    4    4    0    0  0.11447956342E+02 -0.24754121974E+02  0.11736145977E+02  0.29691065689E+02  0.51100000000E-03 0.  1.
        -12    1    4    4    0    0 -0.85908522530E+00 -0.71915630490E+01 -0.14323446596E+02  0.16050474414E+02  0.00000000000E+00 0.  1.
</event>
<event>
 8    1  0.2458065E-006  0.9118800E+02  0.7816164E-02  0.1184000E+00
        -11   -1    0    0    0    0  0.00000000000E+00  0.00000000000E+00  0.45593999997E+02  0.45594000000E+02  0.51100000000E-03 0. -1.
         11   -1    0    0    0    0 -0.00000000000E+00 -0.00000000000E+00 -0.45593999997E+02  0.45594000000E+02  0.51100000000E-03 0.  1.
         23    2    1    2    0    0  0.35527136788E-14  0.00000000000E+00  0.00000000000E+00  0.91188000000E+02  0.91188000000E+02 0.  0.
    9900012    2    3    3    0    0  0.21600479706E+02 -0.29489706688E+02  0.44223805100E+01  0.54367068813E+02  0.39999964974E+02 0.  0.
         12    1    3    3    0    0 -0.21600479706E+02  0.29489706688E+02 -0.44223805100E+01  0.36820931187E+02  0.00000000000E+00 0. -1.
         11    1    4    4    0    0  0.19287516836E+02 -0.17814337597E+02  0.11212080934E+02  0.28549425368E+02  0.51100000000E-03 0. -1.
        -11    1    4    4    0    0  0.65478835206E+01  0.46270671616E+01 -0.29399548857E+01  0.85397812682E+01  0.51100000000E-03 0.  1.
         12    1    4    4    0    0 -0.42349206508E+01 -0.16302436253E+02 -0.38497455385E+01  0.17277862177E+02  0.00000000000E+00 0. -1.
</event>
<event>
 8    1  0.2458065E-006  0.9118800E+02  0.7816164E-02  0.1184000E+00
        -11   -1    0    0    0    0  0.00000000000E+00  0.00000000000E+00  0.45593999997E+02  0.45594000000E+02  0.51100000000E-03 0.  1.
         11   -1    0    0    0    0 -0.00000000000E+00 -0.00000000000E+00 -0.45593999997E+02  0.45594000000E+02  0.51100000000E-03 0. -1.
         23    2    1    2    0    0  0.71054273576E-14  0.00000000000E+00 -0.17763568394E-14  0.91188000000E+02  0.91188000000E+02 0.  0.
    9900012    2    3    3    0    0  0.32654858237E+02  0.13555549055E+02 -0.10280447443E+02  0.54367078280E+02  0.39999986556E+02 0.  0.
        -12    1    3    3    0    0 -0.32654858237E+02 -0.13555549055E+02  0.10280447443E+02  0.36820921720E+02  0.00000000000E+00 0.  1.
         11    1    4    4    0    0  0.14400998747E+02  0.54701505414E+01  0.59567574535E+01  0.16516484840E+02  0.51100000000E-03 0. -1.
        -11    1    4    4    0    0 -0.56451219293E+00  0.16478427062E+00  0.69388673458E+01  0.69637423973E+01  0.51100000000E-03 0.  1.
         12    1    4    4    0    0  0.18818371683E+02  0.79206142425E+01 -0.23176072242E+02  0.30886851043E+02  0.00000000000E+00 0. -1.
</event>
<event>
 8    1  0.2458065E-006  0.9118800E+02  0.7816164E-02  0.1184000E+00
        -11   -1    0    0    0    0  0.00000000000E+00  0.00000000000E+00  0.45593999997E+02  0.45594000000E+02  0.51100000000E-03 0. -1.
         11   -1    0    0    0    0 -0.00000000000E+00 -0.00000000000E+00 -0.45593999997E+02  0.45594000000E+02  0.51100000000E-03 0.  1.
         23    2    1    2    0    0  0.00000000000E+00  0.00000000000E+00 -0.88817841970E-15  0.91188000000E+02  0.91188000000E+02 0.  0.
    9900012    2    3    3    0    0 -0.29544861241E+02 -0.21782433559E+02 -0.28994498824E+01  0.54367081392E+02  0.39999993649E+02 0.  0.
        -12    1    3    3    0    0  0.29544861241E+02  0.21782433559E+02  0.28994498824E+01  0.36820918608E+02  0.00000000000E+00 0.  1.
         11    1    4    4    0    0 -0.31101218346E+02 -0.15284414453E+02  0.47144181545E+01  0.34973201835E+02  0.51100000000E-03 0. -1.
        -11    1    4    4    0    0 -0.57308152049E+01  0.23913218348E+01 -0.15602108079E+01  0.64027276262E+01  0.51100000000E-03 0.  1.
         12    1    4    4    0    0  0.72871723101E+01 -0.88893409406E+01 -0.60536572291E+01  0.12991151931E+02  0.00000000000E+00 0. -1.
</event>
<event>
 8    1  0.2458065E-006  0.9118800E+02  0.7816164E-02  0.1184000E+00
        -11   -1    0    0    0    0  0.00000000000E+00  0.00000000000E+00  0.45593999997E+02  0.45594000000E+02  0.51100000000E-03 0.  1.
         11   -1    0    0    0    0 -0.00000000000E+00 -0.00000000000E+00 -0.45593999997E+02  0.45594000000E+02  0.51100000000E-03 0. -1.
         23    2    1    2    0    0  0.00000000000E+00 -0.35527136788E-14 -0.35527136788E-14  0.91188000000E+02  0.91188000000E+02 0.  0.
    9900012    2    3    3    0    0 -0.17350175131E+02 -0.16663084561E+02  0.27876383360E+02  0.54367085924E+02  0.40000003981E+02 0.  0.
         12    1    3    3    0    0  0.17350175131E+02  0.16663084561E+02 -0.27876383360E+02  0.36820914076E+02  0.00000000000E+00 0. -1.
         11    1    4    4    0    0  0.28238598575E+01  0.35499057824E+01  0.29195127083E+01  0.53944017531E+01  0.51100000000E-03 0. -1.
        -11    1    4    4    0    0 -0.57236232754E+01 -0.23504938386E+02  0.24068756149E+02  0.34125459920E+02  0.51100000000E-03 0.  1.
        -12    1    4    4    0    0 -0.14450411713E+02  0.32919480427E+01  0.88811450280E+00  0.14847224251E+02  0.00000000000E+00 0.  1.
</event>
<event>
 8    1  0.2458065E-006  0.9118800E+02  0.7816164E-02  0.1184000E+00
        -11   -1    0    0    0    0  0.00000000000E+00  0.00000000000E+00  0.45593999997E+02  0.45594000000E+02  0.51100000000E-03 0. -1.
         11   -1    0    0    0    0 -0.00000000000E+00 -0.00000000000E+00 -0.45593999997E+02  0.45594000000E+02  0.51100000000E-03 0.  1.
         23    2    1    2    0    0  0.00000000000E+00  0.00000000000E+00  0.10658141036E-13  0.91188000000E+02  0.91188000000E+02 0.  0.
    9900012    2    3    3    0    0 -0.11818912835E+02 -0.16768166573E+02 -0.30576488762E+02  0.54367085076E+02  0.40000002047E+02 0.  0.
         12    1    3    3    0    0  0.11818912835E+02  0.16768166573E+02  0.30576488762E+02  0.36820914924E+02  0.00000000000E+00 0. -1.
         11    1    4    4    0    0 -0.28813318873E+01  0.14121597239E+01  0.86065586580E+01  0.91852665027E+01  0.51100000000E-03 0. -1.
        -11    1    4    4    0    0 -0.43655838406E+01 -0.17200099062E+02 -0.29435590651E+02  0.34370855783E+02  0.51100000000E-03 0.  1.
         12    1    4    4    0    0 -0.45719971075E+01 -0.98022723526E+00 -0.97474567694E+01  0.10810962790E+02  0.00000000000E+00 0. -1.
</event>
<event>
 8    1  0.2458065E-006  0.9118800E+02  0.7816164E-02  0.1184000E+00
        -11   -1    0    0    0    0  0.00000000000E+00  0.00000000000E+00  0.45593999997E+02  0.45594000000E+02  0.51100000000E-03 0. -1.
         11   -1    0    0    0    0 -0.00000000000E+00 -0.00000000000E+00 -0.45593999997E+02  0.45594000000E+02  0.51100000000E-03 0.  1.
         23    2    1    2    0    0  0.44408920985E-15  0.00000000000E+00 -0.17763568394E-14  0.91188000000E+02  0.91188000000E+02 0.  0.
    9900012    2    3    3    0    0 -0.15202127886E+01  0.33442209671E+02  0.15332581776E+02  0.54367075262E+02  0.39999979675E+02 0.  0.
        -12    1    3    3    0    0  0.15202127886E+01 -0.33442209671E+02 -0.15332581776E+02  0.36820924738E+02  0.00000000000E+00 0.  1.
         11    1    4    4    0    0 -0.10822301286E+02  0.10476636907E+02  0.86187965478E+01  0.17354128621E+02  0.51100000000E-03 0.  1.
        -11    1    4    4    0    0  0.35372352295E+01  0.12128557462E+02  0.16873344294E+02  0.21078986862E+02  0.51100000000E-03 0. -1.
        -12    1    4    4    0    0  0.57648532674E+01  0.10837015302E+02 -0.10159559066E+02  0.15933959780E+02  0.00000000000E+00 0.  1.
</event>
<event>
 8    1  0.2458065E-006  0.9118800E+02  0.7816164E-02  0.1184000E+00
        -11   -1    0    0    0    0  0.00000000000E+00  0.00000000000E+00  0.45593999997E+02  0.45594000000E+02  0.51100000000E-03 0. -1.
         11   -1    0    0    0    0 -0.00000000000E+00 -0.00000000000E+00 -0.45593999997E+02  0.45594000000E+02  0.51100000000E-03 0.  1.
         23    2    1    2    0    0  0.00000000000E+00  0.00000000000E+00  0.88817841970E-15  0.91188000000E+02  0.91188000000E+02 0.  0.
    9900012    2    3    3    0    0  0.26522884276E+02 -0.24751306598E+02 -0.62999519928E+01  0.54367082524E+02  0.39999996231E+02 0.  0.
         12    1    3    3    0    0 -0.26522884276E+02  0.24751306598E+02  0.62999519928E+01  0.36820917476E+02  0.00000000000E+00 0. -1.
         11    1    4    4    0    0 -0.16566301736E+01  0.79195747905E+00 -0.10642032142E+01  0.21222980288E+01  0.51100000000E-03 0. -1.
        -11    1    4    4    0    0  0.11904433435E+02 -0.98863766779E+01 -0.19981948475E+02  0.25273192207E+02  0.51100000000E-03 0.  1.
        -12    1    4    4    0    0  0.16275081015E+02 -0.15656887399E+02  0.14746199697E+02  0.26971592288E+02  0.00000000000E+00 0.  1.
</event>
<event>
 8    1  0.2458065E-006  0.9118800E+02  0.7816164E-02  0.1184000E+00
        -11   -1    0    0    0    0  0.00000000000E+00  0.00000000000E+00  0.45593999997E+02  0.45594000000E+02  0.51100000000E-03 0.  1.
         11   -1    0    0    0    0 -0.00000000000E+00 -0.00000000000E+00 -0.45593999997E+02  0.45594000000E+02  0.51100000000E-03 0. -1.
         23    2    1    2    0    0  0.00000000000E+00 -0.35527136788E-14  0.00000000000E+00  0.91188000000E+02  0.91188000000E+02 0.  0.
    9900012    2    3    3    0    0  0.25742512330E+02  0.17806436387E+02 -0.19391597942E+02  0.54367079470E+02  0.39999989269E+02 0.  0.
        -12    1    3    3    0    0 -0.25742512330E+02 -0.17806436387E+02  0.19391597942E+02  0.36820920530E+02  0.00000000000E+00 0.  1.
         11    1    4    4    0    0 -0.17932919504E+01  0.11228890544E+02  0.37296037555E+01  0.11967197805E+02  0.51100000000E-03 0. -1.
        -11    1    4    4    0    0  0.30405463422E+01 -0.66422967559E+01 -0.23661159341E+01  0.76787715898E+01  0.51100000000E-03 0.  1.
         12    1    4    4    0    0  0.24495257938E+02  0.13219842599E+02 -0.20755085764E+02  0.34721110075E+02  0.00000000000E+00 0. -1.
</event>
<event>
 8    1  0.2458065E-006  0.9118800E+02  0.7816164E-02  0.1184000E+00
        -11   -1    0    0    0    0  0.00000000000E+00  0.00000000000E+00  0.45593999997E+02  0.45594000000E+02  0.51100000000E-03 0.  1.
         11   -1    0    0    0    0 -0.00000000000E+00 -0.00000000000E+00 -0.45593999997E+02  0.45594000000E+02  0.51100000000E-03 0. -1.
         23    2    1    2    0    0  0.00000000000E+00 -0.35527136788E-14  0.00000000000E+00  0.91188000000E+02  0.91188000000E+02 0.  0.
    9900012    2    3    3    0    0 -0.50020791584E+01  0.20544471819E+02 -0.30144375091E+02  0.54367089258E+02  0.40000011582E+02 0.  0.
        -12    1    3    3    0    0  0.50020791584E+01 -0.20544471819E+02  0.30144375091E+02  0.36820910742E+02  0.00000000000E+00 0.  1.
         11    1    4    4    0    0 -0.78772643757E+01  0.22784638939E+02 -0.31231510360E+02  0.39453748938E+02  0.51100000000E-03 0. -1.
        -11    1    4    4    0    0  0.11675865760E+01  0.97658763380E+00  0.74381057119E+01  0.75922591276E+01  0.51100000000E-03 0.  1.
         12    1    4    4    0    0  0.17075986413E+01 -0.32167547540E+01 -0.63509704427E+01  0.73210811928E+01  0.00000000000E+00 0. -1.
</event>
<event>
 8    1  0.2458065E-006  0.9118800E+02  0.7816164E-02  0.1184000E+00
        -11   -1    0    0    0    0  0.00000000000E+00  0.00000000000E+00  0.45593999997E+02  0.45594000000E+02  0.51100000000E-03 0. -1.
         11   -1    0    0    0    0 -0.00000000000E+00 -0.00000000000E+00 -0.45593999997E+02  0.45594000000E+02  0.51100000000E-03 0.  1.
         23    2    1    2    0    0  0.25535129566E-14 -0.88817841970E-15  0.00000000000E+00  0.91188000000E+02  0.91188000000E+02 0.  0.
    9900012    2    3    3    0    0  0.32722038878E+00 -0.67896103763E+01 -0.36187993353E+02  0.54367126230E+02  0.40000095867E+02 0.  0.
         12    1    3    3    0    0 -0.32722038878E+00  0.67896103763E+01  0.36187993353E+02  0.36820873770E+02  0.00000000000E+00 0. -1.
         11    1    4    4    0    0 -0.16118920670E+02 -0.18577787934E+01 -0.31365602293E+02  0.35313905945E+02  0.51100000000E-03 0.  1.
        -11    1    4    4    0    0  0.47520614162E+01 -0.43141637073E+01 -0.33814024998E+01  0.72545144099E+01  0.51100000000E-03 0. -1.
         12    1    4    4    0    0  0.11694079643E+02 -0.61766787563E+00 -0.14409885603E+01  0.11798705875E+02  0.00000000000E+00 0. -1.
</event>
<event>
 8    1  0.2458065E-006  0.9118800E+02  0.7816164E-02  0.1184000E+00
        -11   -1    0    0    0    0  0.00000000000E+00  0.00000000000E+00  0.45593999997E+02  0.45594000000E+02  0.51100000000E-03 0.  1.
         11   -1    0    0    0    0 -0.00000000000E+00 -0.00000000000E+00 -0.45593999997E+02  0.45594000000E+02  0.51100000000E-03 0. -1.
         23    2    1    2    0    0 -0.71054273576E-14  0.35527136788E-14  0.00000000000E+00  0.91188000000E+02  0.91188000000E+02 0.  0.
    9900012    2    3    3    0    0  0.26193768822E+02 -0.16344571931E+02  0.20062939872E+02  0.54367080497E+02  0.39999991609E+02 0.  0.
         12    1    3    3    0    0 -0.26193768822E+02  0.16344571931E+02 -0.20062939872E+02  0.36820919503E+02  0.00000000000E+00 0. -1.
         11    1    4    4    0    0  0.27352211392E+01  0.32057784028E+01 -0.20682731277E+01  0.46942735157E+01  0.51100000000E-03 0.  1.
        -11    1    4    4    0    0 -0.46275698773E+01 -0.12834391359E+02  0.60858749948E+00  0.13656734000E+02  0.51100000000E-03 0. -1.
        -12    1    4    4    0    0  0.28086117560E+02 -0.67159589744E+01  0.21522625501E+02  0.36016072981E+02  0.00000000000E+00 0.  1.
</event>
<event>
 8    1  0.2458065E-006  0.9118800E+02  0.7816164E-02  0.1184000E+00
        -11   -1    0    0    0    0  0.00000000000E+00  0.00000000000E+00  0.45593999997E+02  0.45594000000E+02  0.51100000000E-03 0. -1.
         11   -1    0    0    0    0 -0.00000000000E+00 -0.00000000000E+00 -0.45593999997E+02  0.45594000000E+02  0.51100000000E-03 0.  1.
         23    2    1    2    0    0  0.35527136788E-14  0.00000000000E+00  0.00000000000E+00  0.91188000000E+02  0.91188000000E+02 0.  0.
    9900012    2    3    3    0    0 -0.25763111897E+02 -0.24393758416E+02 -0.98482419405E+01  0.54367065009E+02  0.39999956302E+02 0.  0.
        -12    1    3    3    0    0  0.25763111897E+02  0.24393758416E+02  0.98482419405E+01  0.36820934991E+02  0.00000000000E+00 0.  1.
         11    1    4    4    0    0 -0.33850626146E+02 -0.10822935327E+02 -0.49136545003E+01  0.35876800588E+02  0.51100000000E-03 0. -1.
        -11    1    4    4    0    0  0.27647983497E+01  0.25005846854E+00 -0.19222011649E+01  0.33766102428E+01  0.51100000000E-03 0.  1.
         12    1    4    4    0    0  0.53227158998E+01 -0.13820881557E+02 -0.30123862753E+01  0.15113654179E+02  0.00000000000E+00 0. -1.
</event>
<event>
 8    1  0.2458065E-006  0.9118800E+02  0.7816164E-02  0.1184000E+00
        -11   -1    0    0    0    0  0.00000000000E+00  0.00000000000E+00  0.45593999997E+02  0.45594000000E+02  0.51100000000E-03 0.  1.
         11   -1    0    0    0    0 -0.00000000000E+00 -0.00000000000E+00 -0.45593999997E+02  0.45594000000E+02  0.51100000000E-03 0. -1.
         23    2    1    2    0    0  0.00000000000E+00  0.00000000000E+00  0.00000000000E+00  0.91188000000E+02  0.91188000000E+02 0.  0.
    9900012    2    3    3    0    0  0.23173627288E+02  0.28115528925E+02  0.53179086972E+01  0.54367080385E+02  0.39999991354E+02 0.  0.
         12    1    3    3    0    0 -0.23173627288E+02 -0.28115528925E+02 -0.53179086972E+01  0.36820919615E+02  0.00000000000E+00 0. -1.
         11    1    4    4    0    0  0.37297691811E+00 -0.16639720889E+00 -0.30691290718E+01  0.30961836724E+01  0.51100000000E-03 0. -1.
        -11    1    4    4    0    0 -0.75449419903E+00 -0.76029261195E+01  0.82395313540E+00  0.76845719533E+01  0.51100000000E-03 0.  1.
        -12    1    4    4    0    0  0.23555144569E+02  0.35884852253E+02  0.75630846336E+01  0.43586324759E+02  0.00000000000E+00 0.  1.
</event>
<event>
 8    1  0.2458065E-006  0.9118800E+02  0.7816164E-02  0.1184000E+00
        -11   -1    0    0    0    0  0.00000000000E+00  0.00000000000E+00  0.45593999997E+02  0.45594000000E+02  0.51100000000E-03 0. -1.
         11   -1    0    0    0    0 -0.00000000000E+00 -0.00000000000E+00 -0.45593999997E+02  0.45594000000E+02  0.51100000000E-03 0.  1.
         23    2    1    2    0    0 -0.35527136788E-14  0.00000000000E+00  0.00000000000E+00  0.91188000000E+02  0.91188000000E+02 0.  0.
    9900012    2    3    3    0    0 -0.27853608543E+02 -0.11850107308E+02  0.20964999207E+02  0.54367085510E+02  0.40000003038E+02 0.  0.
        -12    1    3    3    0    0  0.27853608543E+02  0.11850107308E+02 -0.20964999207E+02  0.36820914490E+02  0.00000000000E+00 0.  1.
         11    1    4    4    0    0  0.42598068396E+01 -0.63184593488E+01  0.44565160829E+01  0.88277640833E+01  0.51100000000E-03 0. -1.
        -11    1    4    4    0    0 -0.30104414880E+02 -0.14344323006E+02  0.13932086516E+02  0.36140537250E+02  0.51100000000E-03 0.  1.
        -12    1    4    4    0    0 -0.20090005025E+01  0.88126750476E+01  0.25763966086E+01  0.93987841766E+01  0.00000000000E+00 0.  1.
</event>
<event>
 8    1  0.2458065E-006  0.9118800E+02  0.7816164E-02  0.1184000E+00
        -11   -1    0    0    0    0  0.00000000000E+00  0.00000000000E+00  0.45593999997E+02  0.45594000000E+02  0.51100000000E-03 0.  1.
         11   -1    0    0    0    0 -0.00000000000E+00 -0.00000000000E+00 -0.45593999997E+02  0.45594000000E+02  0.51100000000E-03 0. -1.
         23    2    1    2    0    0  0.11102230246E-14  0.71054273576E-14  0.71054273576E-14  0.91188000000E+02  0.91188000000E+02 0.  0.
    9900012    2    3    3    0    0  0.10844068719E+01  0.19265167699E+02  0.31360100105E+02  0.54367102355E+02  0.40000041440E+02 0.  0.
         12    1    3    3    0    0 -0.10844068719E+01 -0.19265167699E+02 -0.31360100105E+02  0.36820897645E+02  0.00000000000E+00 0. -1.
         11    1    4    4    0    0  0.58396549523E+01 -0.18861150134E+01 -0.21670440852E+01  0.65080780676E+01  0.51100000000E-03 0. -1.
        -11    1    4    4    0    0 -0.11631183866E+02  0.81311809377E+00  0.65217618358E+01  0.13359602421E+02  0.51100000000E-03 0.  1.
        -12    1    4    4    0    0  0.68759357855E+01  0.20338164619E+02  0.27005382355E+02  0.34499421866E+02  0.00000000000E+00 0.  1.
</event>
<event>
 8    1  0.2458065E-006  0.9118800E+02  0.7816164E-02  0.1184000E+00
        -11   -1    0    0    0    0  0.00000000000E+00  0.00000000000E+00  0.45593999997E+02  0.45594000000E+02  0.51100000000E-03 0.  1.
         11   -1    0    0    0    0 -0.00000000000E+00 -0.00000000000E+00 -0.45593999997E+02  0.45594000000E+02  0.51100000000E-03 0. -1.
         23    2    1    2    0    0  0.00000000000E+00  0.00000000000E+00  0.17763568394E-14  0.91188000000E+02  0.91188000000E+02 0.  0.
    9900012    2    3    3    0    0  0.89783759091E+01 -0.33873728459E+02  0.11302200551E+02  0.54367075908E+02  0.39999981147E+02 0.  0.
        -12    1    3    3    0    0 -0.89783759091E+01  0.33873728459E+02 -0.11302200551E+02  0.36820924092E+02  0.00000000000E+00 0.  1.
         11    1    4    4    0    0 -0.31904922498E+01 -0.13486064954E+02 -0.15150875430E+01  0.13940899515E+02  0.51100000000E-03 0. -1.
        -11    1    4    4    0    0 -0.79316577743E+01 -0.49647291224E+01 -0.38298353395E+01  0.10110755130E+02  0.51100000000E-03 0.  1.
        -12    1    4    4    0    0  0.20100525933E+02 -0.15422934383E+02  0.16647123434E+02  0.30315421263E+02  0.00000000000E+00 0.  1.
</event>
<event>
 8    1  0.2458065E-006  0.9118800E+02  0.7816164E-02  0.1184000E+00
        -11   -1    0    0    0    0  0.00000000000E+00  0.00000000000E+00  0.45593999997E+02  0.45594000000E+02  0.51100000000E-03 0.  1.
         11   -1    0    0    0    0 -0.00000000000E+00 -0.00000000000E+00 -0.45593999997E+02  0.45594000000E+02  0.51100000000E-03 0. -1.
         23    2    1    2    0    0  0.17763568394E-14  0.00000000000E+00  0.71054273576E-14  0.91188000000E+02  0.91188000000E+02 0.  0.
    9900012    2    3    3    0    0  0.11833491625E+02 -0.12121969006E+02  0.32692582710E+02  0.54367100759E+02  0.40000037801E+02 0.  0.
         12    1    3    3    0    0 -0.11833491625E+02  0.12121969006E+02 -0.32692582710E+02  0.36820899241E+02  0.00000000000E+00 0. -1.
         11    1    4    4    0    0  0.15991287630E+02 -0.19458196573E+01  0.19657525223E+02  0.25415070182E+02  0.51100000000E-03 0. -1.
        -11    1    4    4    0    0  0.18838844100E+01 -0.15738107048E+02  0.13365457375E+02  0.20733366466E+02  0.51100000000E-03 0.  1.
        -12    1    4    4    0    0 -0.60416804147E+01  0.55619576991E+01 -0.33039988741E+00  0.82186641108E+01  0.00000000000E+00 0.  1.
</event>
<event>
 8    1  0.2458065E-006  0.9118800E+02  0.7816164E-02  0.1184000E+00
        -11   -1    0    0    0    0  0.00000000000E+00  0.00000000000E+00  0.45593999997E+02  0.45594000000E+02  0.51100000000E-03 0.  1.
         11   -1    0    0    0    0 -0.00000000000E+00 -0.00000000000E+00 -0.45593999997E+02  0.45594000000E+02  0.51100000000E-03 0. -1.
         23    2    1    2    0    0  0.11102230246E-14  0.00000000000E+00  0.71054273576E-14  0.91188000000E+02  0.91188000000E+02 0.  0.
    9900012    2    3    3    0    0  0.87570191423E+00 -0.20563339097E+02 -0.30531233200E+02  0.54367163924E+02  0.40000181797E+02 0.  0.
        -12    1    3    3    0    0 -0.87570191423E+00  0.20563339097E+02  0.30531233200E+02  0.36820836076E+02  0.00000000000E+00 0.  1.
         11    1    4    4    0    0  0.75130927456E+01 -0.24802025487E+02 -0.90481629225E+01  0.27449158155E+02  0.51100000000E-03 0. -1.
        -11    1    4    4    0    0 -0.27537470159E+01  0.26449442365E+01 -0.22314255335E+02  0.22638569832E+02  0.51100000000E-03 0.  1.
         12    1    4    4    0    0 -0.38836438155E+01  0.15937421537E+01  0.83118505754E+00  0.42794359369E+01  0.00000000000E+00 0. -1.
</event>
<event>
 8    1  0.2458065E-006  0.9118800E+02  0.7816164E-02  0.1184000E+00
        -11   -1    0    0    0    0  0.00000000000E+00  0.00000000000E+00  0.45593999997E+02  0.45594000000E+02  0.51100000000E-03 0. -1.
         11   -1    0    0    0    0 -0.00000000000E+00 -0.00000000000E+00 -0.45593999997E+02  0.45594000000E+02  0.51100000000E-03 0.  1.
         23    2    1    2    0    0  0.35527136788E-14  0.00000000000E+00  0.00000000000E+00  0.91188000000E+02  0.91188000000E+02 0.  0.
    9900012    2    3    3    0    0  0.25193050025E+02 -0.14337466577E+02  0.22705321300E+02  0.54367023197E+02  0.39999860983E+02 0.  0.
         12    1    3    3    0    0 -0.25193050025E+02  0.14337466577E+02 -0.22705321300E+02  0.36820976803E+02  0.00000000000E+00 0. -1.
         11    1    4    4    0    0  0.75320248276E+00  0.10234171598E+02  0.11672011139E+02  0.15541603089E+02  0.51100000000E-03 0. -1.
        -11    1    4    4    0    0  0.30111182662E+01 -0.11814925422E+02  0.49259095933E+01  0.13150052529E+02  0.51100000000E-03 0.  1.
        -12    1    4    4    0    0  0.21428729276E+02 -0.12756712754E+02  0.61074005675E+01  0.25675367579E+02  0.00000000000E+00 0.  1.
</event>
<event>
 8    1  0.2458065E-006  0.9118800E+02  0.7816164E-02  0.1184000E+00
        -11   -1    0    0    0    0  0.00000000000E+00  0.00000000000E+00  0.45593999997E+02  0.45594000000E+02  0.51100000000E-03 0.  1.
         11   -1    0    0    0    0 -0.00000000000E+00 -0.00000000000E+00 -0.45593999997E+02  0.45594000000E+02  0.51100000000E-03 0. -1.
         23    2    1    2    0    0  0.00000000000E+00  0.71054273576E-14  0.17763568394E-14  0.91188000000E+02  0.91188000000E+02 0.  0.
    9900012    2    3    3    0    0 -0.40624231050E+01  0.34345864022E+02  0.12634784256E+02  0.54367089771E+02  0.40000012751E+02 0.  0.
         12    1    3    3    0    0  0.40624231050E+01 -0.34345864022E+02 -0.12634784256E+02  0.36820910229E+02  0.00000000000E+00 0. -1.
         11    1    4    4    0    0 -0.29696426437E+01  0.10305074494E+01  0.46567494690E+01  0.56183662138E+01  0.51100000000E-03 0. -1.
        -11    1    4    4    0    0 -0.57985161018E+01  0.23929058702E+01  0.15376830636E+02  0.16607098126E+02  0.51100000000E-03 0.  1.
         12    1    4    4    0    0  0.47057356405E+01  0.30922450702E+02 -0.73987958489E+01  0.32141625431E+02  0.00000000000E+00 0. -1.
</event>
<event>
 8    1  0.2458065E-006  0.9118800E+02  0.7816164E-02  0.1184000E+00
        -11   -1    0    0    0    0  0.00000000000E+00  0.00000000000E+00  0.45593999997E+02  0.45594000000E+02  0.51100000000E-03 0.  1.
         11   -1    0    0    0    0 -0.00000000000E+00 -0.00000000000E+00 -0.45593999997E+02  0.45594000000E+02  0.51100000000E-03 0. -1.
         23    2    1    2    0    0  0.00000000000E+00  0.00000000000E+00  0.00000000000E+00  0.91188000000E+02  0.91188000000E+02 0.  0.
    9900012    2    3    3    0    0  0.30273834365E+02  0.17120545693E+02 -0.12089736026E+02  0.54367084080E+02  0.39999999778E+02 0.  0.
        -12    1    3    3    0    0 -0.30273834365E+02 -0.17120545693E+02  0.12089736026E+02  0.36820915920E+02  0.00000000000E+00 0.  1.
         11    1    4    4    0    0 -0.47975403711E+01  0.24506036961E+01 -0.12155699837E+02  0.13295972732E+02  0.51100000000E-03 0. -1.
        -11    1    4    4    0    0  0.30260346610E+02  0.10884985515E+02 -0.57022253973E+01  0.32660172403E+02  0.51100000000E-03 0.  1.
         12    1    4    4    0    0  0.48110281262E+01  0.37849564819E+01  0.57681892091E+01  0.84109389460E+01  0.00000000000E+00 0. -1.
</event>
<event>
 8    1  0.2458065E-006  0.9118800E+02  0.7816164E-02  0.1184000E+00
        -11   -1    0    0    0    0  0.00000000000E+00  0.00000000000E+00  0.45593999997E+02  0.45594000000E+02  0.51100000000E-03 0. -1.
         11   -1    0    0    0    0 -0.00000000000E+00 -0.00000000000E+00 -0.45593999997E+02  0.45594000000E+02  0.51100000000E-03 0.  1.
         23    2    1    2    0    0 -0.17763568394E-14  0.88817841970E-15  0.00000000000E+00  0.91188000000E+02  0.91188000000E+02 0.  0.
    9900012    2    3    3    0    0  0.84215049396E+01 -0.31965371510E+01  0.35702109579E+02  0.54367078996E+02  0.39999988187E+02 0.  0.
        -12    1    3    3    0    0 -0.84215049396E+01  0.31965371510E+01 -0.35702109579E+02  0.36820921004E+02  0.00000000000E+00 0.  1.
         11    1    4    4    0    0  0.51542785501E+01 -0.12768495940E+02  0.13204762476E+02  0.19077914672E+02  0.51100000000E-03 0. -1.
        -11    1    4    4    0    0  0.97928323395E+01  0.11478075566E+02  0.23979389557E+02  0.28331200252E+02  0.51100000000E-03 0.  1.
        -12    1    4    4    0    0 -0.65256059501E+01 -0.19061167773E+01 -0.14820424539E+01  0.69579640714E+01  0.00000000000E+00 0.  1.
</event>
<event>
 8    1  0.2458065E-006  0.9118800E+02  0.7816164E-02  0.1184000E+00
        -11   -1    0    0    0    0  0.00000000000E+00  0.00000000000E+00  0.45593999997E+02  0.45594000000E+02  0.51100000000E-03 0.  1.
         11   -1    0    0    0    0 -0.00000000000E+00 -0.00000000000E+00 -0.45593999997E+02  0.45594000000E+02  0.51100000000E-03 0. -1.
         23    2    1    2    0    0 -0.71054273576E-14 -0.44408920985E-15 -0.35527136788E-14  0.91188000000E+02  0.91188000000E+02 0.  0.
    9900012    2    3    3    0    0 -0.32101877163E+02 -0.29500452075E+01  0.17791739420E+02  0.54367091867E+02  0.40000017530E+02 0.  0.
         12    1    3    3    0    0  0.32101877163E+02  0.29500452075E+01 -0.17791739420E+02  0.36820908133E+02  0.00000000000E+00 0. -1.
         11    1    4    4    0    0  0.22570239522E+01 -0.68217846174E+01  0.57172642108E+01  0.91824840214E+01  0.51100000000E-03 0. -1.
        -11    1    4    4    0    0 -0.74933209658E+01  0.80012549206E+01 -0.60442507900E+01  0.12518103182E+02  0.51100000000E-03 0.  1.
        -12    1    4    4    0    0 -0.26865580149E+02 -0.41295155108E+01  0.18118726000E+02  0.32666504664E+02  0.00000000000E+00 0.  1.
</event>
<event>
 8    1  0.2458065E-006  0.9118800E+02  0.7816164E-02  0.1184000E+00
        -11   -1    0    0    0    0  0.00000000000E+00  0.00000000000E+00  0.45593999997E+02  0.45594000000E+02  0.51100000000E-03 0.  1.
         11   -1    0    0    0    0 -0.00000000000E+00 -0.00000000000E+00 -0.45593999997E+02  0.45594000000E+02  0.51100000000E-03 0. -1.
         23    2    1    2    0    0  0.00000000000E+00  0.00000000000E+00 -0.35527136788E-14  0.91188000000E+02  0.91188000000E+02 0.  0.
    9900012    2    3    3    0    0  0.14471410071E+02 -0.22888531841E+02  0.24949403013E+02  0.54367091402E+02  0.40000016469E+02 0.  0.
        -12    1    3    3    0    0 -0.14471410071E+02  0.22888531841E+02 -0.24949403013E+02  0.36820908598E+02  0.00000000000E+00 0.  1.
         11    1    4    4    0    0  0.11398676451E+02 -0.23870431394E+02  0.61139484398E+01  0.27149727172E+02  0.51100000000E-03 0. -1.
        -11    1    4    4    0    0  0.72307020303E+01 -0.59866627900E+01  0.37910700792E+01  0.10124000979E+02  0.51100000000E-03 0.  1.
        -12    1    4    4    0    0 -0.41579684105E+01  0.69685623424E+01  0.15044384494E+02  0.17093363251E+02  0.00000000000E+00 0.  1.
</event>
<event>
 8    1  0.2458065E-006  0.9118800E+02  0.7816164E-02  0.1184000E+00
        -11   -1    0    0    0    0  0.00000000000E+00  0.00000000000E+00  0.45593999997E+02  0.45594000000E+02  0.51100000000E-03 0.  1.
         11   -1    0    0    0    0 -0.00000000000E+00 -0.00000000000E+00 -0.45593999997E+02  0.45594000000E+02  0.51100000000E-03 0. -1.
         23    2    1    2    0    0  0.00000000000E+00  0.00000000000E+00  0.00000000000E+00  0.91188000000E+02  0.91188000000E+02 0.  0.
    9900012    2    3    3    0    0  0.14414450491E+02 -0.27392078829E+02 -0.19941840366E+02  0.54367090686E+02  0.40000014836E+02 0.  0.
        -12    1    3    3    0    0 -0.14414450491E+02  0.27392078829E+02  0.19941840366E+02  0.36820909314E+02  0.00000000000E+00 0.  1.
         11    1    4    4    0    0 -0.56248448665E+01 -0.10233082809E+00 -0.40904504765E+01  0.69556550182E+01  0.51100000000E-03 0. -1.
        -11    1    4    4    0    0  0.10760086990E+02 -0.26198175473E+02 -0.22309711211E+02  0.36053392139E+02  0.51100000000E-03 0.  1.
        -12    1    4    4    0    0  0.92792083669E+01 -0.10915725279E+01  0.64583213211E+01  0.11358043528E+02  0.00000000000E+00 0.  1.
</event>
<event>
 8    1  0.2458065E-006  0.9118800E+02  0.7816164E-02  0.1184000E+00
        -11   -1    0    0    0    0  0.00000000000E+00  0.00000000000E+00  0.45593999997E+02  0.45594000000E+02  0.51100000000E-03 0.  1.
         11   -1    0    0    0    0 -0.00000000000E+00 -0.00000000000E+00 -0.45593999997E+02  0.45594000000E+02  0.51100000000E-03 0. -1.
         23    2    1    2    0    0  0.00000000000E+00 -0.22204460493E-15  0.00000000000E+00  0.91188000000E+02  0.91188000000E+02 0.  0.
    9900012    2    3    3    0    0 -0.23063988512E+02  0.72908705202E+00 -0.28693221743E+02  0.54367080566E+02  0.39999991766E+02 0.  0.
        -12    1    3    3    0    0  0.23063988512E+02 -0.72908705202E+00  0.28693221743E+02  0.36820919434E+02  0.00000000000E+00 0.  1.
         11    1    4    4    0    0 -0.20016349800E+02 -0.62362780024E+01 -0.22470313457E+02  0.30732074609E+02  0.51100000000E-03 0. -1.
        -11    1    4    4    0    0 -0.88824908475E+01  0.12101355934E+02 -0.45235929985E+01  0.15678148901E+02  0.51100000000E-03 0.  1.
         12    1    4    4    0    0  0.58348521358E+01 -0.51359908793E+01 -0.16993152872E+01  0.79568570557E+01  0.00000000000E+00 0. -1.
</event>
<event>
 8    1  0.2458065E-006  0.9118800E+02  0.7816164E-02  0.1184000E+00
        -11   -1    0    0    0    0  0.00000000000E+00  0.00000000000E+00  0.45593999997E+02  0.45594000000E+02  0.51100000000E-03 0.  1.
         11   -1    0    0    0    0 -0.00000000000E+00 -0.00000000000E+00 -0.45593999997E+02  0.45594000000E+02  0.51100000000E-03 0. -1.
         23    2    1    2    0    0  0.00000000000E+00 -0.35527136788E-14  0.00000000000E+00  0.91188000000E+02  0.91188000000E+02 0.  0.
    9900012    2    3    3    0    0 -0.85882066039E+01  0.26567832979E+02  0.24003574035E+02  0.54367100930E+02  0.40000038189E+02 0.  0.
         12    1    3    3    0    0  0.85882066039E+01 -0.26567832979E+02 -0.24003574035E+02  0.36820899070E+02  0.00000000000E+00 0. -1.
         11    1    4    4    0    0  0.27466505277E+01  0.23810908444E+01  0.28362965647E+01  0.46106681939E+01  0.51100000000E-03 0. -1.
        -11    1    4    4    0    0 -0.59141813111E+01 -0.62813899240E+01 -0.43354659045E+01  0.96555509853E+01  0.51100000000E-03 0.  1.
        -12    1    4    4    0    0 -0.54206758204E+01  0.30468132059E+02  0.25502743375E+02  0.40100881750E+02  0.00000000000E+00 0.  1.
</event>
<event>
 8    1  0.2458065E-006  0.9118800E+02  0.7816164E-02  0.1184000E+00
        -11   -1    0    0    0    0  0.00000000000E+00  0.00000000000E+00  0.45593999997E+02  0.45594000000E+02  0.51100000000E-03 0.  1.
         11   -1    0    0    0    0 -0.00000000000E+00 -0.00000000000E+00 -0.45593999997E+02  0.45594000000E+02  0.51100000000E-03 0. -1.
         23    2    1    2    0    0  0.00000000000E+00  0.00000000000E+00  0.13322676296E-14  0.91188000000E+02  0.91188000000E+02 0.  0.
    9900012    2    3    3    0    0  0.19739414948E+02 -0.31016709112E+02  0.20246877075E+01  0.54367080580E+02  0.39999991798E+02 0.  0.
         12    1    3    3    0    0 -0.19739414948E+02  0.31016709112E+02 -0.20246877075E+01  0.36820919420E+02  0.00000000000E+00 0. -1.
         11    1    4    4    0    0  0.18730514852E+02 -0.29998838750E+00  0.60599382188E+01  0.19688703135E+02  0.51100000000E-03 0. -1.
        -11    1    4    4    0    0  0.64699515065E+01 -0.56890316622E+01 -0.26937255707E+01  0.90267109991E+01  0.51100000000E-03 0.  1.
        -12    1    4    4    0    0 -0.54610514104E+01 -0.25027689062E+02 -0.13415249405E+01  0.25651666446E+02  0.00000000000E+00 0.  1.
</event>
<event>
 8    1  0.2458065E-006  0.9118800E+02  0.7816164E-02  0.1184000E+00
        -11   -1    0    0    0    0  0.00000000000E+00  0.00000000000E+00  0.45593999997E+02  0.45594000000E+02  0.51100000000E-03 0. -1.
         11   -1    0    0    0    0 -0.00000000000E+00 -0.00000000000E+00 -0.45593999997E+02  0.45594000000E+02  0.51100000000E-03 0.  1.
         23    2    1    2    0    0  0.00000000000E+00 -0.35527136788E-14  0.00000000000E+00  0.91188000000E+02  0.91188000000E+02 0.  0.
    9900012    2    3    3    0    0  0.32421848041E+02  0.15179369758E+02 -0.86134326761E+01  0.54367072267E+02  0.39999972848E+02 0.  0.
         12    1    3    3    0    0 -0.32421848041E+02 -0.15179369758E+02  0.86134326761E+01  0.36820927733E+02  0.00000000000E+00 0. -1.
         11    1    4    4    0    0 -0.38887012371E+01 -0.28432498817E+01 -0.77562075287E+01  0.91304338720E+01  0.51100000000E-03 0. -1.
        -11    1    4    4    0    0  0.36264959514E+02  0.15370061199E+02 -0.56182979795E+01  0.39786321045E+02  0.51100000000E-03 0.  1.
        -12    1    4    4    0    0  0.45589763252E-01  0.26525584404E+01  0.47610728321E+01  0.54503173503E+01  0.00000000000E+00 0.  1.
</event>
<event>
 8    1  0.2458065E-006  0.9118800E+02  0.7816164E-02  0.1184000E+00
        -11   -1    0    0    0    0  0.00000000000E+00  0.00000000000E+00  0.45593999997E+02  0.45594000000E+02  0.51100000000E-03 0.  1.
         11   -1    0    0    0    0 -0.00000000000E+00 -0.00000000000E+00 -0.45593999997E+02  0.45594000000E+02  0.51100000000E-03 0. -1.
         23    2    1    2    0    0  0.00000000000E+00  0.35527136788E-14  0.00000000000E+00  0.91188000000E+02  0.91188000000E+02 0.  0.
    9900012    2    3    3    0    0 -0.28365696358E+02 -0.21242838655E+02  0.99954683873E+01  0.54367077791E+02  0.39999985440E+02 0.  0.
        -12    1    3    3    0    0  0.28365696358E+02  0.21242838655E+02 -0.99954683873E+01  0.36820922209E+02  0.00000000000E+00 0.  1.
         11    1    4    4    0    0 -0.17135032724E+02 -0.11537716355E+02  0.77756270061E+01  0.22072349688E+02  0.51100000000E-03 0. -1.
        -11    1    4    4    0    0 -0.78717852920E+00 -0.72834563655E+01 -0.12257681098E+02  0.14280025659E+02  0.51100000000E-03 0.  1.
        -12    1    4    4    0    0 -0.10443485105E+02 -0.24216659351E+01  0.14477522479E+02  0.18014702445E+02  0.00000000000E+00 0.  1.
</event>
<event>
 8    1  0.2458065E-006  0.9118800E+02  0.7816164E-02  0.1184000E+00
        -11   -1    0    0    0    0  0.00000000000E+00  0.00000000000E+00  0.45593999997E+02  0.45594000000E+02  0.51100000000E-03 0. -1.
         11   -1    0    0    0    0 -0.00000000000E+00 -0.00000000000E+00 -0.45593999997E+02  0.45594000000E+02  0.51100000000E-03 0.  1.
         23    2    1    2    0    0  0.00000000000E+00  0.17763568394E-14 -0.17763568394E-14  0.91188000000E+02  0.91188000000E+02 0.  0.
    9900012    2    3    3    0    0  0.33883136957E+02 -0.12677087247E+02 -0.68559975854E+01  0.54367079126E+02  0.39999988484E+02 0.  0.
        -12    1    3    3    0    0 -0.33883136957E+02  0.12677087247E+02  0.68559975854E+01  0.36820920874E+02  0.00000000000E+00 0.  1.
         11    1    4    4    0    0  0.15960444325E+01  0.31505035609E+00 -0.65834585639E+00  0.17550025884E+01  0.51100000000E-03 0. -1.
        -11    1    4    4    0    0 -0.29175213558E+01  0.67212365063E+01 -0.96498803730E+01  0.12116399734E+02  0.51100000000E-03 0.  1.
         12    1    4    4    0    0  0.35204613880E+02 -0.19713374109E+02  0.34522286440E+01  0.40495676804E+02  0.00000000000E+00 0. -1.
</event>
<event>
 8    1  0.2458065E-006  0.9118800E+02  0.7816164E-02  0.1184000E+00
        -11   -1    0    0    0    0  0.00000000000E+00  0.00000000000E+00  0.45593999997E+02  0.45594000000E+02  0.51100000000E-03 0. -1.
         11   -1    0    0    0    0 -0.00000000000E+00 -0.00000000000E+00 -0.45593999997E+02  0.45594000000E+02  0.51100000000E-03 0.  1.
         23    2    1    2    0    0  0.35527136788E-14 -0.35527136788E-14 -0.35527136788E-14  0.91188000000E+02  0.91188000000E+02 0.  0.
    9900012    2    3    3    0    0  0.28145981782E+02 -0.14942698679E+02 -0.18446929417E+02  0.54367221366E+02  0.40000312748E+02 0.  0.
         12    1    3    3    0    0 -0.28145981782E+02  0.14942698679E+02  0.18446929417E+02  0.36820778634E+02  0.00000000000E+00 0. -1.
         11    1    4    4    0    0  0.18843415408E+02  0.92213746871E+01 -0.16653598782E+02  0.26785264756E+02  0.51100000000E-03 0. -1.
        -11    1    4    4    0    0  0.96745755540E+01 -0.13047699278E+02 -0.25116553722E+01  0.16436188170E+02  0.51100000000E-03 0.  1.
         12    1    4    4    0    0 -0.37200918063E+00 -0.11116374089E+02  0.71832473728E+00  0.11145768441E+02  0.00000000000E+00 0. -1.
</event>
<event>
 8    1  0.2458065E-006  0.9118800E+02  0.7816164E-02  0.1184000E+00
        -11   -1    0    0    0    0  0.00000000000E+00  0.00000000000E+00  0.45593999997E+02  0.45594000000E+02  0.51100000000E-03 0.  1.
         11   -1    0    0    0    0 -0.00000000000E+00 -0.00000000000E+00 -0.45593999997E+02  0.45594000000E+02  0.51100000000E-03 0. -1.
         23    2    1    2    0    0  0.00000000000E+00  0.00000000000E+00  0.44408920985E-15  0.91188000000E+02  0.91188000000E+02 0.  0.
    9900012    2    3    3    0    0 -0.53202572698E+01  0.36248890761E+02 -0.36732121720E+01  0.54367086018E+02  0.40000004194E+02 0.  0.
         12    1    3    3    0    0  0.53202572698E+01 -0.36248890761E+02  0.36732121720E+01  0.36820913982E+02  0.00000000000E+00 0. -1.
         11    1    4    4    0    0  0.63345832631E+01  0.18218912882E+02  0.15477936120E+02  0.24730997523E+02  0.51100000000E-03 0. -1.
        -11    1    4    4    0    0 -0.10228591371E+02  0.94965210196E+01 -0.12200977929E+02  0.18538388700E+02  0.51100000000E-03 0.  1.
         12    1    4    4    0    0 -0.14262491615E+01  0.85334568598E+01 -0.69501703625E+01  0.11097699794E+02  0.00000000000E+00 0. -1.
</event>
<event>
 8    1  0.2458065E-006  0.9118800E+02  0.7816164E-02  0.1184000E+00
        -11   -1    0    0    0    0  0.00000000000E+00  0.00000000000E+00  0.45593999997E+02  0.45594000000E+02  0.51100000000E-03 0.  1.
         11   -1    0    0    0    0 -0.00000000000E+00 -0.00000000000E+00 -0.45593999997E+02  0.45594000000E+02  0.51100000000E-03 0. -1.
         23    2    1    2    0    0  0.00000000000E+00 -0.88817841970E-15 -0.71054273576E-14  0.91188000000E+02  0.91188000000E+02 0.  0.
    9900012    2    3    3    0    0 -0.18789310649E+02 -0.40867162962E+01  0.31401285257E+02  0.54367079852E+02  0.39999990138E+02 0.  0.
         12    1    3    3    0    0  0.18789310649E+02  0.40867162962E+01 -0.31401285257E+02  0.36820920148E+02  0.00000000000E+00 0. -1.
         11    1    4    4    0    0 -0.10899759996E+00  0.36615571646E+01  0.12206616859E+01  0.38612040298E+01  0.51100000000E-03 0. -1.
        -11    1    4    4    0    0 -0.71273668197E+01  0.11341569339E+02  0.54110305923E+00  0.13406093601E+02  0.51100000000E-03 0.  1.
        -12    1    4    4    0    0 -0.11552946229E+02 -0.19089842800E+02  0.29639520512E+02  0.37099782221E+02  0.00000000000E+00 0.  1.
</event>
<event>
 8    1  0.2458065E-006  0.9118800E+02  0.7816164E-02  0.1184000E+00
        -11   -1    0    0    0    0  0.00000000000E+00  0.00000000000E+00  0.45593999997E+02  0.45594000000E+02  0.51100000000E-03 0. -1.
         11   -1    0    0    0    0 -0.00000000000E+00 -0.00000000000E+00 -0.45593999997E+02  0.45594000000E+02  0.51100000000E-03 0.  1.
         23    2    1    2    0    0  0.11102230246E-15  0.00000000000E+00  0.00000000000E+00  0.91188000000E+02  0.91188000000E+02 0.  0.
    9900012    2    3    3    0    0 -0.37122885937E+00  0.17489168090E+02  0.32400169062E+02  0.54367085202E+02  0.40000002334E+02 0.  0.
        -12    1    3    3    0    0  0.37122885937E+00 -0.17489168090E+02 -0.32400169062E+02  0.36820914798E+02  0.00000000000E+00 0.  1.
         11    1    4    4    0    0  0.66536298344E+01 -0.34945982731E+01  0.30808654853E+01  0.81224835773E+01  0.51100000000E-03 0. -1.
        -11    1    4    4    0    0 -0.47727030539E+01  0.23768922049E+02  0.93937406537E+01  0.25999667566E+02  0.51100000000E-03 0.  1.
         12    1    4    4    0    0 -0.22521556399E+01 -0.27851556863E+01  0.19925562923E+02  0.20244934058E+02  0.00000000000E+00 0. -1.
</event>
<event>
 8    1  0.2458065E-006  0.9118800E+02  0.7816164E-02  0.1184000E+00
        -11   -1    0    0    0    0  0.00000000000E+00  0.00000000000E+00  0.45593999997E+02  0.45594000000E+02  0.51100000000E-03 0.  1.
         11   -1    0    0    0    0 -0.00000000000E+00 -0.00000000000E+00 -0.45593999997E+02  0.45594000000E+02  0.51100000000E-03 0. -1.
         23    2    1    2    0    0  0.00000000000E+00  0.00000000000E+00  0.00000000000E+00  0.91188000000E+02  0.91188000000E+02 0.  0.
    9900012    2    3    3    0    0  0.20527725119E+01 -0.36473050722E+02 -0.46133017846E+01  0.54367083970E+02  0.39999999526E+02 0.  0.
        -12    1    3    3    0    0 -0.20527725119E+01  0.36473050722E+02  0.46133017846E+01  0.36820916030E+02  0.00000000000E+00 0.  1.
         11    1    4    4    0    0 -0.25122427659E+01 -0.86807895353E+01  0.22620959752E+01  0.93158225151E+01  0.51100000000E-03 0. -1.
        -11    1    4    4    0    0  0.75461598496E+01 -0.35428890983E+02 -0.67808746758E+01  0.36852830372E+02  0.51100000000E-03 0.  1.
        -12    1    4    4    0    0 -0.29811445717E+01  0.76366297966E+01 -0.94523084018E-01  0.81984310829E+01  0.00000000000E+00 0.  1.
</event>
<event>
 8    1  0.2458065E-006  0.9118800E+02  0.7816164E-02  0.1184000E+00
        -11   -1    0    0    0    0  0.00000000000E+00  0.00000000000E+00  0.45593999997E+02  0.45594000000E+02  0.51100000000E-03 0.  1.
         11   -1    0    0    0    0 -0.00000000000E+00 -0.00000000000E+00 -0.45593999997E+02  0.45594000000E+02  0.51100000000E-03 0. -1.
         23    2    1    2    0    0 -0.35527136788E-14 -0.71054273576E-14 -0.88817841970E-15  0.91188000000E+02  0.91188000000E+02 0.  0.
    9900012    2    3    3    0    0 -0.18174129028E+02 -0.31171486324E+02 -0.73361225516E+01  0.54367092629E+02  0.40000019266E+02 0.  0.
        -12    1    3    3    0    0  0.18174129028E+02  0.31171486324E+02  0.73361225516E+01  0.36820907371E+02  0.00000000000E+00 0.  1.
         11    1    4    4    0    0  0.24080250565E+00 -0.26520137684E+02 -0.50464890390E+01  0.26997087630E+02  0.51100000000E-03 0. -1.
        -11    1    4    4    0    0  0.17088180172E+01 -0.67842851008E+01 -0.12489814481E+01  0.71067952175E+01  0.51100000000E-03 0.  1.
        -12    1    4    4    0    0 -0.20123749551E+02  0.21329364611E+01 -0.10406520645E+01  0.20263209781E+02  0.00000000000E+00 0.  1.
</event>
<event>
 8    1  0.2458065E-006  0.9118800E+02  0.7816164E-02  0.1184000E+00
        -11   -1    0    0    0    0  0.00000000000E+00  0.00000000000E+00  0.45593999997E+02  0.45594000000E+02  0.51100000000E-03 0. -1.
         11   -1    0    0    0    0 -0.00000000000E+00 -0.00000000000E+00 -0.45593999997E+02  0.45594000000E+02  0.51100000000E-03 0.  1.
         23    2    1    2    0    0 -0.36082248300E-15  0.00000000000E+00  0.00000000000E+00  0.91188000000E+02  0.91188000000E+02 0.  0.
    9900012    2    3    3    0    0 -0.17560266658E+00 -0.16406176375E+02  0.32963406697E+02  0.54367086912E+02  0.40000006234E+02 0.  0.
        -12    1    3    3    0    0  0.17560266658E+00  0.16406176375E+02 -0.32963406697E+02  0.36820913088E+02  0.00000000000E+00 0.  1.
         11    1    4    4    0    0 -0.77346682642E+01 -0.61308419659E+01  0.68512243098E+01  0.12014640701E+02  0.51100000000E-03 0. -1.
        -11    1    4    4    0    0  0.58259478318E+01 -0.18467109337E+02  0.55394298031E+01  0.20141029720E+02  0.51100000000E-03 0.  1.
        -12    1    4    4    0    0  0.17331177658E+01  0.81917749279E+01  0.20572752584E+02  0.22211416491E+02  0.00000000000E+00 0.  1.
</event>
<event>
 8    1  0.2458065E-006  0.9118800E+02  0.7816164E-02  0.1184000E+00
        -11   -1    0    0    0    0  0.00000000000E+00  0.00000000000E+00  0.45593999997E+02  0.45594000000E+02  0.51100000000E-03 0.  1.
         11   -1    0    0    0    0 -0.00000000000E+00 -0.00000000000E+00 -0.45593999997E+02  0.45594000000E+02  0.51100000000E-03 0. -1.
         23    2    1    2    0    0 -0.35527136788E-14  0.00000000000E+00  0.35527136788E-14  0.91188000000E+02  0.91188000000E+02 0.  0.
    9900012    2    3    3    0    0 -0.17507423347E+02  0.27741097933E+02  0.16724282945E+02  0.54367081668E+02  0.39999994279E+02 0.  0.
         12    1    3    3    0    0  0.17507423347E+02 -0.27741097933E+02 -0.16724282945E+02  0.36820918332E+02  0.00000000000E+00 0. -1.
         11    1    4    4    0    0 -0.34768468094E+01  0.19853129818E+01  0.17659370753E+02  0.18107548344E+02  0.51100000000E-03 0. -1.
        -11    1    4    4    0    0 -0.58745437527E+01  0.26669770181E+02  0.23704298673E+01  0.27411782937E+02  0.51100000000E-03 0.  1.
         12    1    4    4    0    0 -0.81560327852E+01 -0.91398522970E+00 -0.33055176757E+01  0.88477503863E+01  0.00000000000E+00 0. -1.
</event>
<event>
 8    1  0.2458065E-006  0.9118800E+02  0.7816164E-02  0.1184000E+00
        -11   -1    0    0    0    0  0.00000000000E+00  0.00000000000E+00  0.45593999997E+02  0.45594000000E+02  0.51100000000E-03 0.  1.
         11   -1    0    0    0    0 -0.00000000000E+00 -0.00000000000E+00 -0.45593999997E+02  0.45594000000E+02  0.51100000000E-03 0. -1.
         23    2    1    2    0    0 -0.25535129566E-14 -0.11102230246E-14  0.00000000000E+00  0.91188000000E+02  0.91188000000E+02 0.  0.
    9900012    2    3    3    0    0 -0.64441817416E+00  0.17881741658E+01 -0.36771823110E+02  0.54367084524E+02  0.40000000790E+02 0.  0.
        -12    1    3    3    0    0  0.64441817416E+00 -0.17881741658E+01  0.36771823110E+02  0.36820915476E+02  0.00000000000E+00 0.  1.
         11    1    4    4    0    0 -0.10869679124E+02  0.49151356538E+01 -0.27148495977E+02  0.29653824657E+02  0.51100000000E-03 0. -1.
        -11    1    4    4    0    0  0.10724895701E+02  0.59077024180E+01 -0.97685634073E+01  0.15663625601E+02  0.51100000000E-03 0.  1.
        -12    1    4    4    0    0 -0.49963475104E+00 -0.90346639060E+01  0.14523627375E+00  0.90496342663E+01  0.00000000000E+00 0.  1.
</event>
<event>
 8    1  0.2458065E-006  0.9118800E+02  0.7816164E-02  0.1184000E+00
        -11   -1    0    0    0    0  0.00000000000E+00  0.00000000000E+00  0.45593999997E+02  0.45594000000E+02  0.51100000000E-03 0.  1.
         11   -1    0    0    0    0 -0.00000000000E+00 -0.00000000000E+00 -0.45593999997E+02  0.45594000000E+02  0.51100000000E-03 0. -1.
         23    2    1    2    0    0  0.00000000000E+00 -0.88817841970E-15 -0.35527136788E-14  0.91188000000E+02  0.91188000000E+02 0.  0.
    9900012    2    3    3    0    0 -0.17814381014E+02  0.77309647502E+01  0.31283435133E+02  0.54367173005E+02  0.40000202499E+02 0.  0.
         12    1    3    3    0    0  0.17814381014E+02 -0.77309647502E+01 -0.31283435133E+02  0.36820826995E+02  0.00000000000E+00 0. -1.
         11    1    4    4    0    0 -0.14769426373E+02 -0.15037989771E+01  0.18925424887E+02  0.24053462831E+02  0.51100000000E-03 0. -1.
        -11    1    4    4    0    0  0.36087706036E+01 -0.72080566977E+01 -0.98016689916E+00  0.81203469161E+01  0.51100000000E-03 0.  1.
        -12    1    4    4    0    0 -0.66537252453E+01  0.16442820425E+02  0.13338177144E+02  0.22193363258E+02  0.00000000000E+00 0.  1.
</event>
<event>
 8    1  0.2458065E-006  0.9118800E+02  0.7816164E-02  0.1184000E+00
        -11   -1    0    0    0    0  0.00000000000E+00  0.00000000000E+00  0.45593999997E+02  0.45594000000E+02  0.51100000000E-03 0.  1.
         11   -1    0    0    0    0 -0.00000000000E+00 -0.00000000000E+00 -0.45593999997E+02  0.45594000000E+02  0.51100000000E-03 0. -1.
         23    2    1    2    0    0 -0.17763568394E-14  0.22204460493E-15  0.00000000000E+00  0.91188000000E+02  0.91188000000E+02 0.  0.
    9900012    2    3    3    0    0 -0.94301940716E+01 -0.18602151727E+01 -0.35544191959E+02  0.54367101821E+02  0.40000040221E+02 0.  0.
        -12    1    3    3    0    0  0.94301940716E+01  0.18602151727E+01  0.35544191959E+02  0.36820898179E+02  0.00000000000E+00 0.  1.
         11    1    4    4    0    0 -0.25231346861E+01  0.13635450080E+02 -0.20279009623E+02  0.24566846340E+02  0.51100000000E-03 0. -1.
        -11    1    4    4    0    0  0.36738245691E+01 -0.81122812833E+01 -0.14320190149E+02  0.16863390547E+02  0.51100000000E-03 0.  1.
        -12    1    4    4    0    0 -0.10580883955E+02 -0.73833839690E+01 -0.94499218658E+00  0.12936864934E+02  0.00000000000E+00 0.  1.
</event>
<event>
 8    1  0.2458065E-006  0.9118800E+02  0.7816164E-02  0.1184000E+00
        -11   -1    0    0    0    0  0.00000000000E+00  0.00000000000E+00  0.45593999997E+02  0.45594000000E+02  0.51100000000E-03 0.  1.
         11   -1    0    0    0    0 -0.00000000000E+00 -0.00000000000E+00 -0.45593999997E+02  0.45594000000E+02  0.51100000000E-03 0. -1.
         23    2    1    2    0    0 -0.17763568394E-14  0.44408920985E-15 -0.71054273576E-14  0.91188000000E+02  0.91188000000E+02 0.  0.
    9900012    2    3    3    0    0 -0.10315298610E+02 -0.20683514603E+01 -0.35285976587E+02  0.54367033054E+02  0.39999883453E+02 0.  0.
        -12    1    3    3    0    0  0.10315298610E+02  0.20683514603E+01  0.35285976587E+02  0.36820966946E+02  0.00000000000E+00 0.  1.
         11    1    4    4    0    0 -0.15530405520E+02  0.95194965156E+01 -0.55739478921E+01  0.19049493560E+02  0.51100000000E-03 0. -1.
        -11    1    4    4    0    0  0.64389056736E+01  0.78620632695E+00 -0.12512734543E+02  0.14094188613E+02  0.51100000000E-03 0.  1.
         12    1    4    4    0    0 -0.12237987638E+01 -0.12374054303E+02 -0.17199294152E+02  0.21223350881E+02  0.00000000000E+00 0. -1.
</event>
<event>
 8    1  0.2458065E-006  0.9118800E+02  0.7816164E-02  0.1184000E+00
        -11   -1    0    0    0    0  0.00000000000E+00  0.00000000000E+00  0.45593999997E+02  0.45594000000E+02  0.51100000000E-03 0.  1.
         11   -1    0    0    0    0 -0.00000000000E+00 -0.00000000000E+00 -0.45593999997E+02  0.45594000000E+02  0.51100000000E-03 0. -1.
         23    2    1    2    0    0  0.00000000000E+00 -0.17763568394E-14 -0.88817841970E-15  0.91188000000E+02  0.91188000000E+02 0.  0.
    9900012    2    3    3    0    0  0.35343187752E+02  0.96784527068E+01  0.36008814549E+01  0.54367085909E+02  0.40000003946E+02 0.  0.
        -12    1    3    3    0    0 -0.35343187752E+02 -0.96784527068E+01 -0.36008814549E+01  0.36820914091E+02  0.00000000000E+00 0.  1.
         11    1    4    4    0    0  0.42091505482E+01 -0.54059198113E+01 -0.53639492139E+01  0.87013141981E+01  0.51100000000E-03 0. -1.
        -11    1    4    4    0    0  0.23176151072E+02 -0.44983740902E+01  0.55718384332E+01  0.24257261423E+02  0.51100000000E-03 0.  1.
        -12    1    4    4    0    0  0.79578861316E+01  0.19582746608E+02  0.33929922357E+01  0.21408510287E+02  0.00000000000E+00 0.  1.
</event>
<event>
 8    1  0.2458065E-006  0.9118800E+02  0.7816164E-02  0.1184000E+00
        -11   -1    0    0    0    0  0.00000000000E+00  0.00000000000E+00  0.45593999997E+02  0.45594000000E+02  0.51100000000E-03 0.  1.
         11   -1    0    0    0    0 -0.00000000000E+00 -0.00000000000E+00 -0.45593999997E+02  0.45594000000E+02  0.51100000000E-03 0. -1.
         23    2    1    2    0    0  0.88817841970E-15  0.00000000000E+00  0.00000000000E+00  0.91188000000E+02  0.91188000000E+02 0.  0.
    9900012    2    3    3    0    0  0.48824970101E+01  0.32326554038E+02  0.16939149999E+02  0.54367086436E+02  0.40000005148E+02 0.  0.
         12    1    3    3    0    0 -0.48824970101E+01 -0.32326554038E+02 -0.16939149999E+02  0.36820913564E+02  0.00000000000E+00 0. -1.
         11    1    4    4    0    0 -0.57943277668E+01  0.23681615886E+02  0.10807366432E+01  0.24404121725E+02  0.51100000000E-03 0. -1.
        -11    1    4    4    0    0 -0.64613689159E+01  0.20969570551E+01  0.63501162666E+01  0.92989512322E+01  0.51100000000E-03 0.  1.
        -12    1    4    4    0    0  0.17138193693E+02  0.65479810970E+01  0.95082970889E+01  0.20664013478E+02  0.00000000000E+00 0.  1.
</event>
<event>
 8    1  0.2458065E-006  0.9118800E+02  0.7816164E-02  0.1184000E+00
        -11   -1    0    0    0    0  0.00000000000E+00  0.00000000000E+00  0.45593999997E+02  0.45594000000E+02  0.51100000000E-03 0. -1.
         11   -1    0    0    0    0 -0.00000000000E+00 -0.00000000000E+00 -0.45593999997E+02  0.45594000000E+02  0.51100000000E-03 0.  1.
         23    2    1    2    0    0  0.35527136788E-14  0.00000000000E+00  0.35527136788E-14  0.91188000000E+02  0.91188000000E+02 0.  0.
    9900012    2    3    3    0    0  0.26583674904E+02 -0.19987933139E+02  0.15798232303E+02  0.54366900255E+02  0.39999580708E+02 0.  0.
        -12    1    3    3    0    0 -0.26583674904E+02  0.19987933139E+02 -0.15798232303E+02  0.36821099745E+02  0.00000000000E+00 0.  1.
         11    1    4    4    0    0  0.69430774678E+01 -0.17837253717E+02 -0.83625364733E+01  0.20887938180E+02  0.51100000000E-03 0. -1.
        -11    1    4    4    0    0 -0.84422327480E+00 -0.13856171638E+01 -0.20686481850E+00  0.16356775894E+01  0.51100000000E-03 0.  1.
        -12    1    4    4    0    0  0.20484820711E+02 -0.76506225872E+00  0.24367633594E+02  0.31843284485E+02  0.00000000000E+00 0.  1.
</event>
<event>
 8    1  0.2458065E-006  0.9118800E+02  0.7816164E-02  0.1184000E+00
        -11   -1    0    0    0    0  0.00000000000E+00  0.00000000000E+00  0.45593999997E+02  0.45594000000E+02  0.51100000000E-03 0. -1.
         11   -1    0    0    0    0 -0.00000000000E+00 -0.00000000000E+00 -0.45593999997E+02  0.45594000000E+02  0.51100000000E-03 0.  1.
         23    2    1    2    0    0  0.88817841970E-15  0.00000000000E+00 -0.35527136788E-14  0.91188000000E+02  0.91188000000E+02 0.  0.
    9900012    2    3    3    0    0  0.21093457627E+01  0.24109837734E+02  0.27749720783E+02  0.54367073631E+02  0.39999975958E+02 0.  0.
        -12    1    3    3    0    0 -0.21093457627E+01 -0.24109837734E+02 -0.27749720783E+02  0.36820926369E+02  0.00000000000E+00 0.  1.
         11    1    4    4    0    0  0.10920139934E+02  0.45919497051E+01  0.23395203430E+02  0.26223481883E+02  0.51100000000E-03 0. -1.
        -11    1    4    4    0    0  0.20537579986E+01  0.84487556484E+01 -0.50009177184E+01  0.10030382456E+02  0.51100000000E-03 0.  1.
        -12    1    4    4    0    0 -0.10864552170E+02  0.11069132380E+02  0.93554350719E+01  0.18113209293E+02  0.00000000000E+00 0.  1.
</event>
<event>
 8    1  0.2458065E-006  0.9118800E+02  0.7816164E-02  0.1184000E+00
        -11   -1    0    0    0    0  0.00000000000E+00  0.00000000000E+00  0.45593999997E+02  0.45594000000E+02  0.51100000000E-03 0.  1.
         11   -1    0    0    0    0 -0.00000000000E+00 -0.00000000000E+00 -0.45593999997E+02  0.45594000000E+02  0.51100000000E-03 0. -1.
         23    2    1    2    0    0  0.00000000000E+00  0.17763568394E-14 -0.17763568394E-14  0.91188000000E+02  0.91188000000E+02 0.  0.
    9900012    2    3    3    0    0 -0.32416929534E+02 -0.11504858856E+02 -0.13136093265E+02  0.54367135751E+02  0.40000117573E+02 0.  0.
        -12    1    3    3    0    0  0.32416929534E+02  0.11504858856E+02  0.13136093265E+02  0.36820864249E+02  0.00000000000E+00 0.  1.
         11    1    4    4    0    0 -0.16888178855E+02  0.26585505714E+01  0.34385826540E+01  0.17438529959E+02  0.51100000000E-03 0. -1.
        -11    1    4    4    0    0  0.14056284709E+01 -0.11004313710E+02  0.23476406204E+01  0.11339405998E+02  0.51100000000E-03 0.  1.
         12    1    4    4    0    0 -0.16934379150E+02 -0.31590957174E+01 -0.18922316539E+02  0.25589199795E+02  0.00000000000E+00 0. -1.
</event>
<event>
 8    1  0.2458065E-006  0.9118800E+02  0.7816164E-02  0.1184000E+00
        -11   -1    0    0    0    0  0.00000000000E+00  0.00000000000E+00  0.45593999997E+02  0.45594000000E+02  0.51100000000E-03 0. -1.
         11   -1    0    0    0    0 -0.00000000000E+00 -0.00000000000E+00 -0.45593999997E+02  0.45594000000E+02  0.51100000000E-03 0.  1.
         23    2    1    2    0    0  0.00000000000E+00 -0.35527136788E-14  0.35527136788E-14  0.91188000000E+02  0.91188000000E+02 0.  0.
    9900012    2    3    3    0    0 -0.23293150472E+02 -0.21674537443E+02  0.18531717325E+02  0.54367068734E+02  0.39999964793E+02 0.  0.
        -12    1    3    3    0    0  0.23293150472E+02  0.21674537443E+02 -0.18531717325E+02  0.36820931266E+02  0.00000000000E+00 0.  1.
         11    1    4    4    0    0 -0.73432561284E+01 -0.70589417981E+01  0.65589521685E+01  0.12114946293E+02  0.51100000000E-03 0. -1.
        -11    1    4    4    0    0  0.80254265299E+01 -0.13986714996E+02  0.77819977652E+01  0.17905171232E+02  0.51100000000E-03 0.  1.
         12    1    4    4    0    0 -0.23975320873E+02 -0.62888064936E+00  0.41907673915E+01  0.24346951209E+02  0.00000000000E+00 0. -1.
</event>
<event>
 8    1  0.2458065E-006  0.9118800E+02  0.7816164E-02  0.1184000E+00
        -11   -1    0    0    0    0  0.00000000000E+00  0.00000000000E+00  0.45593999997E+02  0.45594000000E+02  0.51100000000E-03 0. -1.
         11   -1    0    0    0    0 -0.00000000000E+00 -0.00000000000E+00 -0.45593999997E+02  0.45594000000E+02  0.51100000000E-03 0.  1.
         23    2    1    2    0    0 -0.17763568394E-14  0.71054273576E-14  0.35527136788E-14  0.91188000000E+02  0.91188000000E+02 0.  0.
    9900012    2    3    3    0    0 -0.99204942899E+01 -0.31563609502E+02 -0.16158661229E+02  0.54367082243E+02  0.39999995590E+02 0.  0.
         12    1    3    3    0    0  0.99204942899E+01  0.31563609502E+02  0.16158661229E+02  0.36820917757E+02  0.00000000000E+00 0. -1.
         11    1    4    4    0    0  0.11280236990E+02  0.62487595488E+00 -0.90186108300E+01  0.14455779400E+02  0.51100000000E-03 0. -1.
        -11    1    4    4    0    0 -0.87388848286E+01 -0.18436437706E+02 -0.62211930047E+01  0.21330109845E+02  0.51100000000E-03 0.  1.
         12    1    4    4    0    0 -0.12461846451E+02 -0.13752047751E+02 -0.91885739463E+00  0.18581192998E+02  0.00000000000E+00 0. -1.
</event>
<event>
 8    1  0.2458065E-006  0.9118800E+02  0.7816164E-02  0.1184000E+00
        -11   -1    0    0    0    0  0.00000000000E+00  0.00000000000E+00  0.45593999997E+02  0.45594000000E+02  0.51100000000E-03 0. -1.
         11   -1    0    0    0    0 -0.00000000000E+00 -0.00000000000E+00 -0.45593999997E+02  0.45594000000E+02  0.51100000000E-03 0.  1.
         23    2    1    2    0    0  0.00000000000E+00  0.35527136788E-14  0.35527136788E-14  0.91188000000E+02  0.91188000000E+02 0.  0.
    9900012    2    3    3    0    0  0.12414818832E+02 -0.20044836803E+02 -0.28281742889E+02  0.54367079453E+02  0.39999989229E+02 0.  0.
         12    1    3    3    0    0 -0.12414818832E+02  0.20044836803E+02  0.28281742889E+02  0.36820920547E+02  0.00000000000E+00 0. -1.
         11    1    4    4    0    0  0.55912103982E+01  0.66678410146E+01 -0.32422116412E+01  0.92862088120E+01  0.51100000000E-03 0. -1.
        -11    1    4    4    0    0 -0.66644760899E+01 -0.12916691151E+01 -0.11321539995E+02  0.13200792354E+02  0.51100000000E-03 0.  1.
         12    1    4    4    0    0  0.13488084524E+02 -0.25421008702E+02 -0.13717991253E+02  0.31880078287E+02  0.00000000000E+00 0. -1.
</event>
<event>
 8    1  0.2458065E-006  0.9118800E+02  0.7816164E-02  0.1184000E+00
        -11   -1    0    0    0    0  0.00000000000E+00  0.00000000000E+00  0.45593999997E+02  0.45594000000E+02  0.51100000000E-03 0.  1.
         11   -1    0    0    0    0 -0.00000000000E+00 -0.00000000000E+00 -0.45593999997E+02  0.45594000000E+02  0.51100000000E-03 0. -1.
         23    2    1    2    0    0  0.00000000000E+00  0.00000000000E+00  0.00000000000E+00  0.91188000000E+02  0.91188000000E+02 0.  0.
    9900012    2    3    3    0    0 -0.22950005124E+02  0.41158789103E+01  0.28498010355E+02  0.54367084903E+02  0.40000001653E+02 0.  0.
         12    1    3    3    0    0  0.22950005124E+02 -0.41158789103E+01 -0.28498010355E+02  0.36820915097E+02  0.00000000000E+00 0. -1.
         11    1    4    4    0    0 -0.10102566594E+01  0.94423012466E+01  0.81215795977E+01  0.12495508264E+02  0.51100000000E-03 0. -1.
        -11    1    4    4    0    0 -0.11021912225E+02  0.58633991060E+01  0.22855133470E+02  0.26042640503E+02  0.51100000000E-03 0.  1.
         12    1    4    4    0    0 -0.10917836240E+02 -0.11189821442E+02 -0.24787027121E+01  0.15828936136E+02  0.00000000000E+00 0. -1.
</event>
<event>
 8    1  0.2458065E-006  0.9118800E+02  0.7816164E-02  0.1184000E+00
        -11   -1    0    0    0    0  0.00000000000E+00  0.00000000000E+00  0.45593999997E+02  0.45594000000E+02  0.51100000000E-03 0.  1.
         11   -1    0    0    0    0 -0.00000000000E+00 -0.00000000000E+00 -0.45593999997E+02  0.45594000000E+02  0.51100000000E-03 0. -1.
         23    2    1    2    0    0  0.71054273576E-14  0.35527136788E-14  0.17763568394E-14  0.91188000000E+02  0.91188000000E+02 0.  0.
    9900012    2    3    3    0    0 -0.33643259219E+02 -0.90139618018E+01 -0.11943972460E+02  0.54367097291E+02  0.40000029893E+02 0.  0.
        -12    1    3    3    0    0  0.33643259219E+02  0.90139618018E+01  0.11943972460E+02  0.36820902709E+02  0.00000000000E+00 0.  1.
         11    1    4    4    0    0 -0.37061848329E+01  0.57312614203E+01 -0.34190284795E+01  0.76336701192E+01  0.51100000000E-03 0. -1.
        -11    1    4    4    0    0 -0.20419166690E+02 -0.13208120896E+01  0.92978809222E+01  0.22475264243E+02  0.51100000000E-03 0.  1.
         12    1    4    4    0    0 -0.95179076958E+01 -0.13424411132E+02 -0.17822824903E+02  0.24258162929E+02  0.00000000000E+00 0. -1.
</event>
<event>
 8    1  0.2458065E-006  0.9118800E+02  0.7816164E-02  0.1184000E+00
        -11   -1    0    0    0    0  0.00000000000E+00  0.00000000000E+00  0.45593999997E+02  0.45594000000E+02  0.51100000000E-03 0.  1.
         11   -1    0    0    0    0 -0.00000000000E+00 -0.00000000000E+00 -0.45593999997E+02  0.45594000000E+02  0.51100000000E-03 0. -1.
         23    2    1    2    0    0 -0.35527136788E-14  0.35527136788E-14  0.00000000000E+00  0.91188000000E+02  0.91188000000E+02 0.  0.
    9900012    2    3    3    0    0 -0.27027821943E+02  0.16263787745E+02 -0.18993457040E+02  0.54367280817E+02  0.40000448276E+02 0.  0.
        -12    1    3    3    0    0  0.27027821943E+02 -0.16263787745E+02  0.18993457040E+02  0.36820719183E+02  0.00000000000E+00 0.  1.
         11    1    4    4    0    0  0.24545518718E+01  0.11745384107E+02 -0.75727844791E+01  0.14188937160E+02  0.51100000000E-03 0.  1.
        -11    1    4    4    0    0 -0.19763519577E+01  0.92161658984E+01 -0.74050234961E+01  0.11986578084E+02  0.51100000000E-03 0. -1.
         12    1    4    4    0    0 -0.27506021857E+02 -0.46977622608E+01 -0.40156490651E+01  0.28191765573E+02  0.00000000000E+00 0. -1.
</event>
<event>
 8    1  0.2458065E-006  0.9118800E+02  0.7816164E-02  0.1184000E+00
        -11   -1    0    0    0    0  0.00000000000E+00  0.00000000000E+00  0.45593999997E+02  0.45594000000E+02  0.51100000000E-03 0.  1.
         11   -1    0    0    0    0 -0.00000000000E+00 -0.00000000000E+00 -0.45593999997E+02  0.45594000000E+02  0.51100000000E-03 0. -1.
         23    2    1    2    0    0  0.00000000000E+00 -0.17763568394E-14 -0.44408920985E-15  0.91188000000E+02  0.91188000000E+02 0.  0.
    9900012    2    3    3    0    0  0.33479153962E+02 -0.15151978403E+02 -0.23117057567E+01  0.54367079547E+02  0.39999989443E+02 0.  0.
        -12    1    3    3    0    0 -0.33479153962E+02  0.15151978403E+02  0.23117057567E+01  0.36820920453E+02  0.00000000000E+00 0.  1.
         11    1    4    4    0    0  0.23356193345E+01  0.66424490432E+01  0.15538274325E+01  0.72105219588E+01  0.51100000000E-03 0. -1.
        -11    1    4    4    0    0 -0.43440368658E+01 -0.70959826468E+01 -0.26290543380E+01  0.87255689206E+01  0.51100000000E-03 0.  1.
         12    1    4    4    0    0  0.35487571493E+02 -0.14698444799E+02 -0.12364788512E+01  0.38430988667E+02  0.00000000000E+00 0. -1.
</event>
<event>
 8    1  0.2458065E-006  0.9118800E+02  0.7816164E-02  0.1184000E+00
        -11   -1    0    0    0    0  0.00000000000E+00  0.00000000000E+00  0.45593999997E+02  0.45594000000E+02  0.51100000000E-03 0.  1.
         11   -1    0    0    0    0 -0.00000000000E+00 -0.00000000000E+00 -0.45593999997E+02  0.45594000000E+02  0.51100000000E-03 0. -1.
         23    2    1    2    0    0  0.00000000000E+00  0.00000000000E+00  0.00000000000E+00  0.91188000000E+02  0.91188000000E+02 0.  0.
    9900012    2    3    3    0    0  0.27525585195E+02 -0.95545721205E+01  0.22512926241E+02  0.54367088324E+02  0.40000009453E+02 0.  0.
         12    1    3    3    0    0 -0.27525585195E+02  0.95545721205E+01 -0.22512926241E+02  0.36820911676E+02  0.00000000000E+00 0. -1.
         11    1    4    4    0    0 -0.29930621291E+01  0.73936312908E+01  0.16859113837E+02  0.18650842453E+02  0.51100000000E-03 0. -1.
        -11    1    4    4    0    0  0.95574934686E+01 -0.80227138407E+01  0.22949644088E+01  0.12687650715E+02  0.51100000000E-03 0.  1.
         12    1    4    4    0    0  0.20961153855E+02 -0.89254895707E+01  0.33588479954E+01  0.23028595156E+02  0.00000000000E+00 0. -1.
</event>
<event>
 8    1  0.2458065E-006  0.9118800E+02  0.7816164E-02  0.1184000E+00
        -11   -1    0    0    0    0  0.00000000000E+00  0.00000000000E+00  0.45593999997E+02  0.45594000000E+02  0.51100000000E-03 0.  1.
         11   -1    0    0    0    0 -0.00000000000E+00 -0.00000000000E+00 -0.45593999997E+02  0.45594000000E+02  0.51100000000E-03 0. -1.
         23    2    1    2    0    0  0.00000000000E+00 -0.13322676296E-14  0.00000000000E+00  0.91188000000E+02  0.91188000000E+02 0.  0.
    9900012    2    3    3    0    0  0.16827121844E+02 -0.13522715557E+01 -0.32723080376E+02  0.54367073108E+02  0.39999974764E+02 0.  0.
        -12    1    3    3    0    0 -0.16827121844E+02  0.13522715557E+01  0.32723080376E+02  0.36820926892E+02  0.00000000000E+00 0.  1.
         11    1    4    4    0    0 -0.12778012059E+01 -0.10306528201E+02 -0.27936695456E+02  0.29804634753E+02  0.51100000000E-03 0. -1.
        -11    1    4    4    0    0  0.17628277738E+02  0.30032801306E+01 -0.20640520416E+01  0.18001004934E+02  0.51100000000E-03 0.  1.
        -12    1    4    4    0    0  0.47664531177E+00  0.59509765151E+01 -0.27223328786E+01  0.65614334210E+01  0.00000000000E+00 0.  1.
</event>
<event>
 8    1  0.2458065E-006  0.9118800E+02  0.7816164E-02  0.1184000E+00
        -11   -1    0    0    0    0  0.00000000000E+00  0.00000000000E+00  0.45593999997E+02  0.45594000000E+02  0.51100000000E-03 0.  1.
         11   -1    0    0    0    0 -0.00000000000E+00 -0.00000000000E+00 -0.45593999997E+02  0.45594000000E+02  0.51100000000E-03 0. -1.
         23    2    1    2    0    0  0.66613381478E-15  0.00000000000E+00  0.00000000000E+00  0.91188000000E+02  0.91188000000E+02 0.  0.
    9900012    2    3    3    0    0 -0.55077424800E+00  0.16729649585E+02 -0.32796292093E+02  0.54367064345E+02  0.39999954786E+02 0.  0.
        -12    1    3    3    0    0  0.55077424800E+00 -0.16729649585E+02  0.32796292093E+02  0.36820935655E+02  0.00000000000E+00 0.  1.
         11    1    4    4    0    0  0.21402782307E+01  0.20837160037E+02 -0.11125488667E+02  0.23718021158E+02  0.51100000000E-03 0. -1.
        -11    1    4    4    0    0 -0.94636622961E+01  0.43971605083E+01 -0.78159180651E+01  0.13037810401E+02  0.51100000000E-03 0.  1.
         12    1    4    4    0    0  0.67726098173E+01 -0.85046709599E+01 -0.13854885361E+02  0.17611232786E+02  0.00000000000E+00 0. -1.
</event>
<event>
 8    1  0.2458065E-006  0.9118800E+02  0.7816164E-02  0.1184000E+00
        -11   -1    0    0    0    0  0.00000000000E+00  0.00000000000E+00  0.45593999997E+02  0.45594000000E+02  0.51100000000E-03 0. -1.
         11   -1    0    0    0    0 -0.00000000000E+00 -0.00000000000E+00 -0.45593999997E+02  0.45594000000E+02  0.51100000000E-03 0.  1.
         23    2    1    2    0    0  0.00000000000E+00  0.00000000000E+00  0.00000000000E+00  0.91188000000E+02  0.91188000000E+02 0.  0.
    9900012    2    3    3    0    0 -0.47150776713E+01  0.36327092957E+02 -0.37269777665E+01  0.54367081985E+02  0.39999995002E+02 0.  0.
         12    1    3    3    0    0  0.47150776713E+01 -0.36327092957E+02  0.37269777665E+01  0.36820918015E+02  0.00000000000E+00 0. -1.
         11    1    4    4    0    0 -0.28797274918E+01  0.93749825411E+01  0.21528462901E+01  0.10040810499E+02  0.51100000000E-03 0. -1.
        -11    1    4    4    0    0 -0.10612067324E+02  0.32041954439E+02 -0.37702594256E+01  0.33963475582E+02  0.51100000000E-03 0.  1.
        -12    1    4    4    0    0  0.87767171447E+01 -0.50898440232E+01 -0.21095646309E+01  0.10362795904E+02  0.00000000000E+00 0.  1.
</event>
<event>
 8    1  0.2458065E-006  0.9118800E+02  0.7816164E-02  0.1184000E+00
        -11   -1    0    0    0    0  0.00000000000E+00  0.00000000000E+00  0.45593999997E+02  0.45594000000E+02  0.51100000000E-03 0. -1.
         11   -1    0    0    0    0 -0.00000000000E+00 -0.00000000000E+00 -0.45593999997E+02  0.45594000000E+02  0.51100000000E-03 0.  1.
         23    2    1    2    0    0 -0.13322676296E-14  0.00000000000E+00 -0.33306690739E-15  0.91188000000E+02  0.91188000000E+02 0.  0.
    9900012    2    3    3    0    0  0.34999330591E+01  0.36653869717E+02 -0.15190059891E+00  0.54367098729E+02  0.40000033172E+02 0.  0.
         12    1    3    3    0    0 -0.34999330591E+01 -0.36653869717E+02  0.15190059891E+00  0.36820901271E+02  0.00000000000E+00 0. -1.
         11    1    4    4    0    0  0.15502394483E+02  0.95373522398E+01 -0.74276058328E+00  0.18216394155E+02  0.51100000000E-03 0. -1.
        -11    1    4    4    0    0 -0.87999008833E+01  0.56926307019E+01  0.80768052500E+01  0.13231745281E+02  0.51100000000E-03 0.  1.
        -12    1    4    4    0    0 -0.32025605408E+01  0.21423886775E+02 -0.74859452656E+01  0.22918959293E+02  0.00000000000E+00 0.  1.
</event>
<event>
 8    1  0.2458065E-006  0.9118800E+02  0.7816164E-02  0.1184000E+00
        -11   -1    0    0    0    0  0.00000000000E+00  0.00000000000E+00  0.45593999997E+02  0.45594000000E+02  0.51100000000E-03 0.  1.
         11   -1    0    0    0    0 -0.00000000000E+00 -0.00000000000E+00 -0.45593999997E+02  0.45594000000E+02  0.51100000000E-03 0. -1.
         23    2    1    2    0    0  0.35527136788E-14  0.00000000000E+00  0.00000000000E+00  0.91188000000E+02  0.91188000000E+02 0.  0.
    9900012    2    3    3    0    0  0.30021908362E+02  0.14008582616E+02 -0.16069362682E+02  0.54367084943E+02  0.40000001745E+02 0.  0.
         12    1    3    3    0    0 -0.30021908362E+02 -0.14008582616E+02  0.16069362682E+02  0.36820915057E+02  0.00000000000E+00 0. -1.
         11    1    4    4    0    0 -0.29812681582E+00  0.71022308572E+01  0.67443420666E+01  0.97988118116E+01  0.51100000000E-03 0. -1.
        -11    1    4    4    0    0  0.24445859091E+02 -0.11910840722E+01 -0.24259362901E+02  0.34460635464E+02  0.51100000000E-03 0.  1.
        -12    1    4    4    0    0  0.58741760859E+01  0.80974358313E+01  0.14456581515E+01  0.10107637668E+02  0.00000000000E+00 0.  1.
</event>
<event>
 8    1  0.2458065E-006  0.9118800E+02  0.7816164E-02  0.1184000E+00
        -11   -1    0    0    0    0  0.00000000000E+00  0.00000000000E+00  0.45593999997E+02  0.45594000000E+02  0.51100000000E-03 0. -1.
         11   -1    0    0    0    0 -0.00000000000E+00 -0.00000000000E+00 -0.45593999997E+02  0.45594000000E+02  0.51100000000E-03 0.  1.
         23    2    1    2    0    0  0.17763568394E-14  0.35527136788E-14  0.00000000000E+00  0.91188000000E+02  0.91188000000E+02 0.  0.
    9900012    2    3    3    0    0 -0.14558664653E+02 -0.25712150221E+02 -0.21970674986E+02  0.54367082782E+02  0.39999996817E+02 0.  0.
         12    1    3    3    0    0  0.14558664653E+02  0.25712150221E+02  0.21970674986E+02  0.36820917218E+02  0.00000000000E+00 0. -1.
         11    1    4    4    0    0 -0.60145947659E+01 -0.54358110330E+01 -0.18750721300E+00  0.81091646303E+01  0.51100000000E-03 0. -1.
        -11    1    4    4    0    0 -0.55313458498E+01  0.45463226467E+01 -0.19938550071E+02  0.21185150830E+02  0.51100000000E-03 0.  1.
        -12    1    4    4    0    0 -0.30127240372E+01 -0.24822661834E+02 -0.18446177028E+01  0.25072767321E+02  0.00000000000E+00 0.  1.
</event>
<event>
 8    1  0.2458065E-006  0.9118800E+02  0.7816164E-02  0.1184000E+00
        -11   -1    0    0    0    0  0.00000000000E+00  0.00000000000E+00  0.45593999997E+02  0.45594000000E+02  0.51100000000E-03 0.  1.
         11   -1    0    0    0    0 -0.00000000000E+00 -0.00000000000E+00 -0.45593999997E+02  0.45594000000E+02  0.51100000000E-03 0. -1.
         23    2    1    2    0    0  0.00000000000E+00  0.00000000000E+00  0.00000000000E+00  0.91188000000E+02  0.91188000000E+02 0.  0.
    9900012    2    3    3    0    0  0.12746588642E+02 -0.33456408546E+02 -0.86007856043E+01  0.54367077853E+02  0.39999985580E+02 0.  0.
        -12    1    3    3    0    0 -0.12746588642E+02  0.33456408546E+02  0.86007856043E+01  0.36820922147E+02  0.00000000000E+00 0.  1.
         11    1    4    4    0    0  0.80274877682E+01 -0.40664444130E+02 -0.22879636594E+01  0.41512315694E+02  0.51100000000E-03 0. -1.
        -11    1    4    4    0    0  0.21073197862E+00 -0.14095646097E+01 -0.43159802874E+00  0.14891465594E+01  0.51100000000E-03 0.  1.
        -12    1    4    4    0    0  0.45083688951E+01  0.86176001943E+01 -0.58812239162E+01  0.11365615599E+02  0.00000000000E+00 0.  1.
</event>
<event>
 8    1  0.2458065E-006  0.9118800E+02  0.7816164E-02  0.1184000E+00
        -11   -1    0    0    0    0  0.00000000000E+00  0.00000000000E+00  0.45593999997E+02  0.45594000000E+02  0.51100000000E-03 0.  1.
         11   -1    0    0    0    0 -0.00000000000E+00 -0.00000000000E+00 -0.45593999997E+02  0.45594000000E+02  0.51100000000E-03 0. -1.
         23    2    1    2    0    0  0.17763568394E-14  0.00000000000E+00  0.00000000000E+00  0.91188000000E+02  0.91188000000E+02 0.  0.
    9900012    2    3    3    0    0  0.15293563118E+02 -0.28179199341E+02 -0.18105784396E+02  0.54367085061E+02  0.40000002013E+02 0.  0.
        -12    1    3    3    0    0 -0.15293563118E+02  0.28179199341E+02  0.18105784396E+02  0.36820914939E+02  0.00000000000E+00 0.  1.
         11    1    4    4    0    0  0.34617454681E+01 -0.32601580969E+02 -0.12888255204E+02  0.35227175388E+02  0.51100000000E-03 0. -1.
        -11    1    4    4    0    0  0.14732512141E+02  0.32076489427E+01 -0.32301328900E+01  0.15419782244E+02  0.51100000000E-03 0.  1.
        -12    1    4    4    0    0 -0.29006944908E+01  0.12147326844E+01 -0.19873963021E+01  0.37201274286E+01  0.00000000000E+00 0.  1.
</event>
<event>
 8    1  0.2458065E-006  0.9118800E+02  0.7816164E-02  0.1184000E+00
        -11   -1    0    0    0    0  0.00000000000E+00  0.00000000000E+00  0.45593999997E+02  0.45594000000E+02  0.51100000000E-03 0. -1.
         11   -1    0    0    0    0 -0.00000000000E+00 -0.00000000000E+00 -0.45593999997E+02  0.45594000000E+02  0.51100000000E-03 0.  1.
         23    2    1    2    0    0  0.00000000000E+00  0.00000000000E+00  0.00000000000E+00  0.91188000000E+02  0.91188000000E+02 0.  0.
    9900012    2    3    3    0    0  0.22326205402E+01  0.22200704056E+02  0.29290342550E+02  0.54367081737E+02  0.39999994436E+02 0.  0.
        -12    1    3    3    0    0 -0.22326205402E+01 -0.22200704056E+02 -0.29290342550E+02  0.36820918263E+02  0.00000000000E+00 0.  1.
         11    1    4    4    0    0 -0.18476661889E+01  0.17699367515E+02 -0.29609892048E+01  0.18040203383E+02  0.51100000000E-03 0. -1.
        -11    1    4    4    0    0 -0.37341866519E+01 -0.34990606554E+01  0.14177606921E+02  0.15072893342E+02  0.51100000000E-03 0.  1.
         12    1    4    4    0    0  0.78144733810E+01  0.80003971960E+01  0.18073724833E+02  0.21253985012E+02  0.00000000000E+00 0. -1.
</event>
<event>
 8    1  0.2458065E-006  0.9118800E+02  0.7816164E-02  0.1184000E+00
        -11   -1    0    0    0    0  0.00000000000E+00  0.00000000000E+00  0.45593999997E+02  0.45594000000E+02  0.51100000000E-03 0.  1.
         11   -1    0    0    0    0 -0.00000000000E+00 -0.00000000000E+00 -0.45593999997E+02  0.45594000000E+02  0.51100000000E-03 0. -1.
         23    2    1    2    0    0  0.00000000000E+00  0.00000000000E+00  0.00000000000E+00  0.91188000000E+02  0.91188000000E+02 0.  0.
    9900012    2    3    3    0    0  0.21901398454E+02 -0.21792210001E+02 -0.20030176342E+02  0.54367086985E+02  0.40000006399E+02 0.  0.
        -12    1    3    3    0    0 -0.21901398454E+02  0.21792210001E+02  0.20030176342E+02  0.36820913015E+02  0.00000000000E+00 0.  1.
         11    1    4    4    0    0  0.11335432235E+02  0.21668879142E+01 -0.28158429502E+01  0.11879242357E+02  0.51100000000E-03 0. -1.
        -11    1    4    4    0    0  0.11347233137E+02 -0.15911319870E+01  0.35110513625E+01  0.11984109595E+02  0.51100000000E-03 0.  1.
         12    1    4    4    0    0 -0.78126691738E+00 -0.22367965928E+02 -0.20725384754E+02  0.30503735033E+02  0.00000000000E+00 0. -1.
</event>
<event>
 8    1  0.2458065E-006  0.9118800E+02  0.7816164E-02  0.1184000E+00
        -11   -1    0    0    0    0  0.00000000000E+00  0.00000000000E+00  0.45593999997E+02  0.45594000000E+02  0.51100000000E-03 0.  1.
         11   -1    0    0    0    0 -0.00000000000E+00 -0.00000000000E+00 -0.45593999997E+02  0.45594000000E+02  0.51100000000E-03 0. -1.
         23    2    1    2    0    0  0.00000000000E+00  0.35527136788E-14 -0.35527136788E-14  0.91188000000E+02  0.91188000000E+02 0.  0.
    9900012    2    3    3    0    0  0.27553308799E+02 -0.17629128618E+02  0.16905885687E+02  0.54367082406E+02  0.39999995962E+02 0.  0.
         12    1    3    3    0    0 -0.27553308799E+02  0.17629128618E+02 -0.16905885687E+02  0.36820917594E+02  0.00000000000E+00 0. -1.
         11    1    4    4    0    0  0.21381873801E+01 -0.15544701874E+02  0.91592458216E+01  0.18168692466E+02  0.51100000000E-03 0. -1.
        -11    1    4    4    0    0  0.19214461550E+02 -0.11489179590E+02  0.10307137473E+02  0.24646173404E+02  0.51100000000E-03 0.  1.
         12    1    4    4    0    0  0.62006598685E+01  0.94047528468E+01 -0.25604976074E+01  0.11552216537E+02  0.00000000000E+00 0. -1.
</event>
<event>
 8    1  0.2458065E-006  0.9118800E+02  0.7816164E-02  0.1184000E+00
        -11   -1    0    0    0    0  0.00000000000E+00  0.00000000000E+00  0.45593999997E+02  0.45594000000E+02  0.51100000000E-03 0.  1.
         11   -1    0    0    0    0 -0.00000000000E+00 -0.00000000000E+00 -0.45593999997E+02  0.45594000000E+02  0.51100000000E-03 0. -1.
         23    2    1    2    0    0 -0.35527136788E-14  0.00000000000E+00  0.00000000000E+00  0.91188000000E+02  0.91188000000E+02 0.  0.
    9900012    2    3    3    0    0  0.25037928016E+02 -0.18069721616E+02  0.20059081845E+02  0.54367089594E+02  0.40000012348E+02 0.  0.
         12    1    3    3    0    0 -0.25037928016E+02  0.18069721616E+02 -0.20059081845E+02  0.36820910406E+02  0.00000000000E+00 0. -1.
         11    1    4    4    0    0 -0.10358258334E+02 -0.83215058992E+00  0.53045624682E+01  0.11667235043E+02  0.51100000000E-03 0. -1.
        -11    1    4    4    0    0  0.21749567094E+02 -0.99149295672E+01  0.50721394714E+01  0.24435140601E+02  0.51100000000E-03 0.  1.
         12    1    4    4    0    0  0.13646619256E+02 -0.73226414590E+01  0.96823799054E+01  0.18264713950E+02  0.00000000000E+00 0. -1.
</event>
<event>
 8    1  0.2458065E-006  0.9118800E+02  0.7816164E-02  0.1184000E+00
        -11   -1    0    0    0    0  0.00000000000E+00  0.00000000000E+00  0.45593999997E+02  0.45594000000E+02  0.51100000000E-03 0. -1.
         11   -1    0    0    0    0 -0.00000000000E+00 -0.00000000000E+00 -0.45593999997E+02  0.45594000000E+02  0.51100000000E-03 0.  1.
         23    2    1    2    0    0  0.71054273576E-14 -0.35527136788E-14 -0.33306690739E-15  0.91188000000E+02  0.91188000000E+02 0.  0.
    9900012    2    3    3    0    0  0.26751210605E+02  0.25290962176E+02 -0.72116436683E+00  0.54367080475E+02  0.39999991560E+02 0.  0.
        -12    1    3    3    0    0 -0.26751210605E+02 -0.25290962176E+02  0.72116436683E+00  0.36820919525E+02  0.00000000000E+00 0.  1.
         11    1    4    4    0    0  0.29636697714E+02  0.28376198015E+02 -0.37971196777E+01  0.41206317274E+02  0.51100000000E-03 0. -1.
        -11    1    4    4    0    0  0.34765760515E+01 -0.24727343891E+01  0.49165966325E+01  0.65095252598E+01  0.51100000000E-03 0.  1.
        -12    1    4    4    0    0 -0.63620631604E+01 -0.61250144996E+00 -0.18406413216E+01  0.66512379417E+01  0.00000000000E+00 0.  1.
</event>
<event>
 8    1  0.2458065E-006  0.9118800E+02  0.7816164E-02  0.1184000E+00
        -11   -1    0    0    0    0  0.00000000000E+00  0.00000000000E+00  0.45593999997E+02  0.45594000000E+02  0.51100000000E-03 0.  1.
         11   -1    0    0    0    0 -0.00000000000E+00 -0.00000000000E+00 -0.45593999997E+02  0.45594000000E+02  0.51100000000E-03 0. -1.
         23    2    1    2    0    0  0.00000000000E+00  0.00000000000E+00  0.00000000000E+00  0.91188000000E+02  0.91188000000E+02 0.  0.
    9900012    2    3    3    0    0 -0.23721760697E+02 -0.23234232165E+02  0.15913133726E+02  0.54367091540E+02  0.40000016784E+02 0.  0.
         12    1    3    3    0    0  0.23721760697E+02  0.23234232165E+02 -0.15913133726E+02  0.36820908460E+02  0.00000000000E+00 0. -1.
         11    1    4    4    0    0 -0.74542786359E+01 -0.95304825126E+01 -0.66418430255E+00  0.12117652741E+02  0.51100000000E-03 0. -1.
        -11    1    4    4    0    0 -0.14082971046E+02 -0.96240145714E+01 -0.68411776710E+01  0.18378069598E+02  0.51100000000E-03 0.  1.
        -12    1    4    4    0    0 -0.21845110145E+01 -0.40797350809E+01  0.23418495699E+02  0.23871369201E+02  0.00000000000E+00 0.  1.
</event>
<event>
 8    1  0.2458065E-006  0.9118800E+02  0.7816164E-02  0.1184000E+00
        -11   -1    0    0    0    0  0.00000000000E+00  0.00000000000E+00  0.45593999997E+02  0.45594000000E+02  0.51100000000E-03 0.  1.
         11   -1    0    0    0    0 -0.00000000000E+00 -0.00000000000E+00 -0.45593999997E+02  0.45594000000E+02  0.51100000000E-03 0. -1.
         23    2    1    2    0    0  0.17763568394E-14  0.00000000000E+00 -0.71054273576E-14  0.91188000000E+02  0.91188000000E+02 0.  0.
    9900012    2    3    3    0    0  0.10852175372E+02 -0.85773019003E+01 -0.34123883717E+02  0.54367092107E+02  0.40000018076E+02 0.  0.
        -12    1    3    3    0    0 -0.10852175372E+02  0.85773019003E+01  0.34123883717E+02  0.36820907893E+02  0.00000000000E+00 0.  1.
         11    1    4    4    0    0  0.13219955925E+02 -0.28200001336E+01 -0.36055116364E+02  0.38505727518E+02  0.51100000000E-03 0. -1.
        -11    1    4    4    0    0  0.60877276267E+01 -0.24810023865E+01  0.17010187674E+01  0.67903803727E+01  0.51100000000E-03 0.  1.
        -12    1    4    4    0    0 -0.84555081804E+01 -0.32762993802E+01  0.23021387965E+00  0.90709842161E+01  0.00000000000E+00 0.  1.
</event>
<event>
 8    1  0.2458065E-006  0.9118800E+02  0.7816164E-02  0.1184000E+00
        -11   -1    0    0    0    0  0.00000000000E+00  0.00000000000E+00  0.45593999997E+02  0.45594000000E+02  0.51100000000E-03 0. -1.
         11   -1    0    0    0    0 -0.00000000000E+00 -0.00000000000E+00 -0.45593999997E+02  0.45594000000E+02  0.51100000000E-03 0.  1.
         23    2    1    2    0    0  0.00000000000E+00  0.00000000000E+00  0.00000000000E+00  0.91188000000E+02  0.91188000000E+02 0.  0.
    9900012    2    3    3    0    0 -0.11650246128E+02 -0.24273653643E+02 -0.25116549707E+02  0.54367087936E+02  0.40000008567E+02 0.  0.
         12    1    3    3    0    0  0.11650246128E+02  0.24273653643E+02  0.25116549707E+02  0.36820912064E+02  0.00000000000E+00 0. -1.
         11    1    4    4    0    0 -0.35006587235E+01  0.74249052472E+01  0.26107324692E+00  0.82129159822E+01  0.51100000000E-03 0. -1.
        -11    1    4    4    0    0 -0.12250226559E+02 -0.28970577948E+02 -0.15388120032E+02  0.35016520041E+02  0.51100000000E-03 0.  1.
        -12    1    4    4    0    0  0.41006391547E+01 -0.27279809425E+01 -0.99895029223E+01  0.11137651913E+02  0.00000000000E+00 0.  1.
</event>
<event>
 8    1  0.2458065E-006  0.9118800E+02  0.7816164E-02  0.1184000E+00
        -11   -1    0    0    0    0  0.00000000000E+00  0.00000000000E+00  0.45593999997E+02  0.45594000000E+02  0.51100000000E-03 0.  1.
         11   -1    0    0    0    0 -0.00000000000E+00 -0.00000000000E+00 -0.45593999997E+02  0.45594000000E+02  0.51100000000E-03 0. -1.
         23    2    1    2    0    0  0.00000000000E+00 -0.88817841970E-15  0.35527136788E-14  0.91188000000E+02  0.91188000000E+02 0.  0.
    9900012    2    3    3    0    0  0.25773560639E+02  0.53399162075E+01 -0.25748481483E+02  0.54367144065E+02  0.40000136524E+02 0.  0.
        -12    1    3    3    0    0 -0.25773560639E+02 -0.53399162075E+01  0.25748481483E+02  0.36820855935E+02  0.00000000000E+00 0.  1.
         11    1    4    4    0    0  0.18715559903E+00 -0.14568491937E+01  0.50248590303E+01  0.52351356551E+01  0.51100000000E-03 0. -1.
        -11    1    4    4    0    0 -0.22097348010E+01 -0.42175687434E+01  0.16389318631E+01  0.50355647061E+01  0.51100000000E-03 0.  1.
         12    1    4    4    0    0  0.27796139841E+02  0.11014334145E+02 -0.32412272376E+02  0.44096443704E+02  0.00000000000E+00 0. -1.
</event>
<event>
 8    1  0.2458065E-006  0.9118800E+02  0.7816164E-02  0.1184000E+00
        -11   -1    0    0    0    0  0.00000000000E+00  0.00000000000E+00  0.45593999997E+02  0.45594000000E+02  0.51100000000E-03 0. -1.
         11   -1    0    0    0    0 -0.00000000000E+00 -0.00000000000E+00 -0.45593999997E+02  0.45594000000E+02  0.51100000000E-03 0.  1.
         23    2    1    2    0    0  0.88817841970E-15  0.00000000000E+00  0.00000000000E+00  0.91188000000E+02  0.91188000000E+02 0.  0.
    9900012    2    3    3    0    0  0.21100208842E+01  0.30370169779E+02 -0.20711849022E+02  0.54367080804E+02  0.39999992308E+02 0.  0.
         12    1    3    3    0    0 -0.21100208842E+01 -0.30370169779E+02  0.20711849022E+02  0.36820919196E+02  0.00000000000E+00 0. -1.
         11    1    4    4    0    0  0.17682363029E+02  0.22186904461E+02 -0.53745826878E+01  0.28875782780E+02  0.51100000000E-03 0. -1.
        -11    1    4    4    0    0 -0.45718075489E+01  0.69181125972E+01 -0.27722488387E+01  0.87434015152E+01  0.51100000000E-03 0.  1.
         12    1    4    4    0    0 -0.11000534596E+02  0.12651527211E+01 -0.12565017496E+02  0.16747896509E+02  0.00000000000E+00 0. -1.
</event>
<event>
 8    1  0.2458065E-006  0.9118800E+02  0.7816164E-02  0.1184000E+00
        -11   -1    0    0    0    0  0.00000000000E+00  0.00000000000E+00  0.45593999997E+02  0.45594000000E+02  0.51100000000E-03 0. -1.
         11   -1    0    0    0    0 -0.00000000000E+00 -0.00000000000E+00 -0.45593999997E+02  0.45594000000E+02  0.51100000000E-03 0.  1.
         23    2    1    2    0    0  0.00000000000E+00  0.00000000000E+00  0.00000000000E+00  0.91188000000E+02  0.91188000000E+02 0.  0.
    9900012    2    3    3    0    0 -0.24600879236E+02 -0.83889079361E+01 -0.26080712866E+02  0.54367073625E+02  0.39999975942E+02 0.  0.
         12    1    3    3    0    0  0.24600879236E+02  0.83889079361E+01  0.26080712866E+02  0.36820926375E+02  0.00000000000E+00 0. -1.
         11    1    4    4    0    0  0.49617836531E+01  0.22824995804E+01 -0.11730311457E+02  0.12939447766E+02  0.51100000000E-03 0. -1.
        -11    1    4    4    0    0 -0.28367585816E+02 -0.33879316731E+01 -0.17389713687E+02  0.33445480239E+02  0.51100000000E-03 0.  1.
        -12    1    4    4    0    0 -0.11950770731E+01 -0.72834758434E+01  0.30393122775E+01  0.79821456196E+01  0.00000000000E+00 0.  1.
</event>
<event>
 8    1  0.2458065E-006  0.9118800E+02  0.7816164E-02  0.1184000E+00
        -11   -1    0    0    0    0  0.00000000000E+00  0.00000000000E+00  0.45593999997E+02  0.45594000000E+02  0.51100000000E-03 0. -1.
         11   -1    0    0    0    0 -0.00000000000E+00 -0.00000000000E+00 -0.45593999997E+02  0.45594000000E+02  0.51100000000E-03 0.  1.
         23    2    1    2    0    0  0.00000000000E+00  0.71054273576E-14 -0.88817841970E-15  0.91188000000E+02  0.91188000000E+02 0.  0.
    9900012    2    3    3    0    0 -0.72321529353E+01  0.35489968476E+02 -0.66285212330E+01  0.54367093001E+02  0.40000020115E+02 0.  0.
        -12    1    3    3    0    0  0.72321529353E+01 -0.35489968476E+02  0.66285212330E+01  0.36820906999E+02  0.00000000000E+00 0.  1.
         11    1    4    4    0    0 -0.13069208226E+02  0.18490058480E+02  0.37616849758E+00  0.22645705315E+02  0.51100000000E-03 0.  1.
        -11    1    4    4    0    0 -0.69421860950E+01  0.91408045201E+01  0.49875241054E+01  0.12514937156E+02  0.51100000000E-03 0. -1.
        -12    1    4    4    0    0  0.12779241386E+02  0.78591054759E+01 -0.11992213836E+02  0.19206450530E+02  0.00000000000E+00 0.  1.
</event>
<event>
 8    1  0.2458065E-006  0.9118800E+02  0.7816164E-02  0.1184000E+00
        -11   -1    0    0    0    0  0.00000000000E+00  0.00000000000E+00  0.45593999997E+02  0.45594000000E+02  0.51100000000E-03 0.  1.
         11   -1    0    0    0    0 -0.00000000000E+00 -0.00000000000E+00 -0.45593999997E+02  0.45594000000E+02  0.51100000000E-03 0. -1.
         23    2    1    2    0    0 -0.17763568394E-14  0.35527136788E-14  0.17763568394E-14  0.91188000000E+02  0.91188000000E+02 0.  0.
    9900012    2    3    3    0    0  0.15187257697E+02 -0.30435977690E+02  0.14098851118E+02  0.54367093749E+02  0.40000021820E+02 0.  0.
         12    1    3    3    0    0 -0.15187257697E+02  0.30435977690E+02 -0.14098851118E+02  0.36820906251E+02  0.00000000000E+00 0. -1.
         11    1    4    4    0    0  0.13603241963E+02 -0.37373725362E+01 -0.25361916926E+01  0.14333471803E+02  0.51100000000E-03 0. -1.
        -11    1    4    4    0    0  0.11666217117E+02 -0.61472239021E+01  0.35070062130E+01  0.13645075169E+02  0.51100000000E-03 0.  1.
         12    1    4    4    0    0 -0.10082201383E+02 -0.20551381252E+02  0.13128036597E+02  0.26388546777E+02  0.00000000000E+00 0. -1.
</event>
<event>
 8    1  0.2458065E-006  0.9118800E+02  0.7816164E-02  0.1184000E+00
        -11   -1    0    0    0    0  0.00000000000E+00  0.00000000000E+00  0.45593999997E+02  0.45594000000E+02  0.51100000000E-03 0.  1.
         11   -1    0    0    0    0 -0.00000000000E+00 -0.00000000000E+00 -0.45593999997E+02  0.45594000000E+02  0.51100000000E-03 0. -1.
         23    2    1    2    0    0  0.00000000000E+00 -0.17763568394E-14  0.00000000000E+00  0.91188000000E+02  0.91188000000E+02 0.  0.
    9900012    2    3    3    0    0  0.22293055092E+02  0.68225647433E+01 -0.28500033847E+02  0.54367087134E+02  0.40000006739E+02 0.  0.
        -12    1    3    3    0    0 -0.22293055092E+02 -0.68225647433E+01  0.28500033847E+02  0.36820912866E+02  0.00000000000E+00 0.  1.
         11    1    4    4    0    0  0.12406676070E+02  0.17810928008E+02 -0.21530489587E+01  0.21812619918E+02  0.51100000000E-03 0.  1.
        -11    1    4    4    0    0  0.68343976805E+01 -0.14525734787E+00 -0.15390676506E+02  0.16840517063E+02  0.51100000000E-03 0. -1.
        -12    1    4    4    0    0  0.30519813417E+01 -0.10843105917E+02 -0.10956308382E+02  0.15713950153E+02  0.00000000000E+00 0.  1.
</event>
<event>
 8    1  0.2458065E-006  0.9118800E+02  0.7816164E-02  0.1184000E+00
        -11   -1    0    0    0    0  0.00000000000E+00  0.00000000000E+00  0.45593999997E+02  0.45594000000E+02  0.51100000000E-03 0.  1.
         11   -1    0    0    0    0 -0.00000000000E+00 -0.00000000000E+00 -0.45593999997E+02  0.45594000000E+02  0.51100000000E-03 0. -1.
         23    2    1    2    0    0  0.00000000000E+00  0.00000000000E+00  0.00000000000E+00  0.91188000000E+02  0.91188000000E+02 0.  0.
    9900012    2    3    3    0    0 -0.15070358678E+02  0.17640020860E+02 -0.28591856581E+02  0.54367077831E+02  0.39999985531E+02 0.  0.
        -12    1    3    3    0    0  0.15070358678E+02 -0.17640020860E+02  0.28591856581E+02  0.36820922169E+02  0.00000000000E+00 0.  1.
         11    1    4    4    0    0 -0.11294833557E+02  0.18300224164E+02 -0.18436930705E+02  0.28326522618E+02  0.51100000000E-03 0. -1.
        -11    1    4    4    0    0 -0.22689530680E+01  0.11309085528E+02 -0.26567585745E+01  0.11836466106E+02  0.51100000000E-03 0.  1.
        -12    1    4    4    0    0 -0.15065720531E+01 -0.11969288831E+02 -0.74981673013E+01  0.14204089107E+02  0.00000000000E+00 0.  1.
</event>
<event>
 8    1  0.2458065E-006  0.9118800E+02  0.7816164E-02  0.1184000E+00
        -11   -1    0    0    0    0  0.00000000000E+00  0.00000000000E+00  0.45593999997E+02  0.45594000000E+02  0.51100000000E-03 0.  1.
         11   -1    0    0    0    0 -0.00000000000E+00 -0.00000000000E+00 -0.45593999997E+02  0.45594000000E+02  0.51100000000E-03 0. -1.
         23    2    1    2    0    0  0.00000000000E+00  0.35527136788E-14  0.00000000000E+00  0.91188000000E+02  0.91188000000E+02 0.  0.
    9900012    2    3    3    0    0  0.22050757354E+02 -0.22815435807E+02 -0.18681539378E+02  0.54367083058E+02  0.39999997447E+02 0.  0.
        -12    1    3    3    0    0 -0.22050757354E+02  0.22815435807E+02  0.18681539378E+02  0.36820916942E+02  0.00000000000E+00 0.  1.
         11    1    4    4    0    0  0.12293508074E+02 -0.21402628273E+02 -0.78893337604E+01  0.25912244696E+02  0.51100000000E-03 0. -1.
        -11    1    4    4    0    0 -0.49229050766E+01  0.76348154483E+01 -0.36791073177E+01  0.98010832176E+01  0.51100000000E-03 0.  1.
        -12    1    4    4    0    0  0.14680154357E+02 -0.90476229818E+01 -0.71130982998E+01  0.18653755144E+02  0.00000000000E+00 0.  1.
</event>
<event>
 8    1  0.2458065E-006  0.9118800E+02  0.7816164E-02  0.1184000E+00
        -11   -1    0    0    0    0  0.00000000000E+00  0.00000000000E+00  0.45593999997E+02  0.45594000000E+02  0.51100000000E-03 0.  1.
         11   -1    0    0    0    0 -0.00000000000E+00 -0.00000000000E+00 -0.45593999997E+02  0.45594000000E+02  0.51100000000E-03 0. -1.
         23    2    1    2    0    0  0.00000000000E+00  0.00000000000E+00  0.17763568394E-14  0.91188000000E+02  0.91188000000E+02 0.  0.
    9900012    2    3    3    0    0  0.16201087202E+02  0.31262329618E+02  0.10769041169E+02  0.54367072155E+02  0.39999972591E+02 0.  0.
         12    1    3    3    0    0 -0.16201087202E+02 -0.31262329618E+02 -0.10769041169E+02  0.36820927845E+02  0.00000000000E+00 0. -1.
         11    1    4    4    0    0  0.11069267900E+02  0.98227414396E+01 -0.56285963067E+01  0.15833383652E+02  0.51100000000E-03 0. -1.
        -11    1    4    4    0    0 -0.51733873823E+01  0.23687518425E+02  0.10233764740E+02  0.26317150437E+02  0.51100000000E-03 0.  1.
         12    1    4    4    0    0  0.10305206684E+02 -0.22479302463E+01  0.61638727358E+01  0.12216538065E+02  0.00000000000E+00 0. -1.
</event>
<event>
 8    1  0.2458065E-006  0.9118800E+02  0.7816164E-02  0.1184000E+00
        -11   -1    0    0    0    0  0.00000000000E+00  0.00000000000E+00  0.45593999997E+02  0.45594000000E+02  0.51100000000E-03 0. -1.
         11   -1    0    0    0    0 -0.00000000000E+00 -0.00000000000E+00 -0.45593999997E+02  0.45594000000E+02  0.51100000000E-03 0.  1.
         23    2    1    2    0    0  0.71054273576E-14  0.35527136788E-14  0.00000000000E+00  0.91188000000E+02  0.91188000000E+02 0.  0.
    9900012    2    3    3    0    0 -0.18670391497E+02 -0.25681965424E+02 -0.18644923963E+02  0.54367081268E+02  0.39999993366E+02 0.  0.
         12    1    3    3    0    0  0.18670391497E+02  0.25681965424E+02  0.18644923963E+02  0.36820918732E+02  0.00000000000E+00 0. -1.
         11    1    4    4    0    0  0.36951237093E+01 -0.44539886762E+01  0.36163211393E+00  0.57985112229E+01  0.51100000000E-03 0. -1.
        -11    1    4    4    0    0  0.74632317182E+01 -0.10565698978E+02 -0.41884597254E+01  0.13596948838E+02  0.51100000000E-03 0.  1.
        -12    1    4    4    0    0 -0.29828746924E+02 -0.10662277770E+02 -0.14818096351E+02  0.34971621206E+02  0.00000000000E+00 0.  1.
</event>
<event>
 8    1  0.2458065E-006  0.9118800E+02  0.7816164E-02  0.1184000E+00
        -11   -1    0    0    0    0  0.00000000000E+00  0.00000000000E+00  0.45593999997E+02  0.45594000000E+02  0.51100000000E-03 0. -1.
         11   -1    0    0    0    0 -0.00000000000E+00 -0.00000000000E+00 -0.45593999997E+02  0.45594000000E+02  0.51100000000E-03 0.  1.
         23    2    1    2    0    0  0.00000000000E+00 -0.35527136788E-14  0.88817841970E-15  0.91188000000E+02  0.91188000000E+02 0.  0.
    9900012    2    3    3    0    0 -0.21385373827E+02  0.29381189071E+02 -0.59322632901E+01  0.54367078872E+02  0.39999987905E+02 0.  0.
        -12    1    3    3    0    0  0.21385373827E+02 -0.29381189071E+02  0.59322632901E+01  0.36820921128E+02  0.00000000000E+00 0.  1.
         11    1    4    4    0    0 -0.51963131509E+01  0.38969026615E+01  0.13487118242E+02  0.14969631908E+02  0.51100000000E-03 0. -1.
        -11    1    4    4    0    0 -0.36097061637E+01  0.20372165036E+02 -0.11234663207E+02  0.23542997780E+02  0.51100000000E-03 0.  1.
        -12    1    4    4    0    0 -0.12579354513E+02  0.51121213736E+01 -0.81847183251E+01  0.15854449185E+02  0.00000000000E+00 0.  1.
</event>
<event>
 8    1  0.2458065E-006  0.9118800E+02  0.7816164E-02  0.1184000E+00
        -11   -1    0    0    0    0  0.00000000000E+00  0.00000000000E+00  0.45593999997E+02  0.45594000000E+02  0.51100000000E-03 0.  1.
         11   -1    0    0    0    0 -0.00000000000E+00 -0.00000000000E+00 -0.45593999997E+02  0.45594000000E+02  0.51100000000E-03 0. -1.
         23    2    1    2    0    0  0.44408920985E-15  0.35527136788E-14  0.35527136788E-14  0.91188000000E+02  0.91188000000E+02 0.  0.
    9900012    2    3    3    0    0 -0.38851345410E+01 -0.22937523915E+02  0.28540417841E+02  0.54367085776E+02  0.40000003644E+02 0.  0.
         12    1    3    3    0    0  0.38851345410E+01  0.22937523915E+02 -0.28540417841E+02  0.36820914224E+02  0.00000000000E+00 0. -1.
         11    1    4    4    0    0 -0.95724533168E+01 -0.28088386295E+01  0.22675163196E+02  0.24772655553E+02  0.51100000000E-03 0. -1.
        -11    1    4    4    0    0 -0.23140126942E+01 -0.88631361381E+01 -0.63543962357E+01  0.11148461272E+02  0.51100000000E-03 0.  1.
        -12    1    4    4    0    0  0.80013314700E+01 -0.11265549147E+02  0.12219650881E+02  0.18445968951E+02  0.00000000000E+00 0.  1.
</event>
<event>
 8    1  0.2458065E-006  0.9118800E+02  0.7816164E-02  0.1184000E+00
        -11   -1    0    0    0    0  0.00000000000E+00  0.00000000000E+00  0.45593999997E+02  0.45594000000E+02  0.51100000000E-03 0.  1.
         11   -1    0    0    0    0 -0.00000000000E+00 -0.00000000000E+00 -0.45593999997E+02  0.45594000000E+02  0.51100000000E-03 0. -1.
         23    2    1    2    0    0 -0.11102230246E-15 -0.71054273576E-14  0.00000000000E+00  0.91188000000E+02  0.91188000000E+02 0.  0.
    9900012    2    3    3    0    0  0.96522509404E+00 -0.35774173810E+02 -0.86634423565E+01  0.54367103695E+02  0.40000044494E+02 0.  0.
        -12    1    3    3    0    0 -0.96522509404E+00  0.35774173810E+02  0.86634423565E+01  0.36820896305E+02  0.00000000000E+00 0.  1.
         11    1    4    4    0    0  0.22504186180E+01  0.14998689051E+01  0.18815360206E+01  0.32945665491E+01  0.51100000000E-03 0. -1.
        -11    1    4    4    0    0 -0.50245755567E+01 -0.18482622223E+02  0.11122636340E+02  0.22148740894E+02  0.51100000000E-03 0.  1.
         12    1    4    4    0    0  0.37393820328E+01 -0.18791420491E+02 -0.21667614717E+02  0.28923796252E+02  0.00000000000E+00 0. -1.
</event>
<event>
 8    1  0.2458065E-006  0.9118800E+02  0.7816164E-02  0.1184000E+00
        -11   -1    0    0    0    0  0.00000000000E+00  0.00000000000E+00  0.45593999997E+02  0.45594000000E+02  0.51100000000E-03 0. -1.
         11   -1    0    0    0    0 -0.00000000000E+00 -0.00000000000E+00 -0.45593999997E+02  0.45594000000E+02  0.51100000000E-03 0.  1.
         23    2    1    2    0    0  0.00000000000E+00  0.44408920985E-15  0.00000000000E+00  0.91188000000E+02  0.91188000000E+02 0.  0.
    9900012    2    3    3    0    0 -0.82912003913E+01  0.32638337544E+01 -0.35726504348E+02  0.54367085730E+02  0.40000003539E+02 0.  0.
         12    1    3    3    0    0  0.82912003913E+01 -0.32638337544E+01  0.35726504348E+02  0.36820914270E+02  0.00000000000E+00 0. -1.
         11    1    4    4    0    0 -0.90239350972E+01  0.14686330470E+02 -0.54609409770E+01  0.18081526040E+02  0.51100000000E-03 0.  1.
        -11    1    4    4    0    0  0.73040772074E+01 -0.32296010527E+01 -0.64801553183E+01  0.10284565135E+02  0.51100000000E-03 0. -1.
        -12    1    4    4    0    0 -0.65713425016E+01 -0.81928956629E+01 -0.23785408053E+02  0.26000994555E+02  0.00000000000E+00 0.  1.
</event>
<event>
 8    1  0.2458065E-006  0.9118800E+02  0.7816164E-02  0.1184000E+00
        -11   -1    0    0    0    0  0.00000000000E+00  0.00000000000E+00  0.45593999997E+02  0.45594000000E+02  0.51100000000E-03 0. -1.
         11   -1    0    0    0    0 -0.00000000000E+00 -0.00000000000E+00 -0.45593999997E+02  0.45594000000E+02  0.51100000000E-03 0.  1.
         23    2    1    2    0    0  0.35527136788E-14  0.22204460493E-15  0.00000000000E+00  0.91188000000E+02  0.91188000000E+02 0.  0.
    9900012    2    3    3    0    0  0.30529636607E+02  0.59045977502E+00 -0.20576019795E+02  0.54367082783E+02  0.39999996820E+02 0.  0.
         12    1    3    3    0    0 -0.30529636607E+02 -0.59045977502E+00  0.20576019795E+02  0.36820917217E+02  0.00000000000E+00 0. -1.
         11    1    4    4    0    0  0.30142726209E+02  0.59653499652E+01 -0.21540177371E+02  0.37525305927E+02  0.51100000000E-03 0. -1.
        -11    1    4    4    0    0 -0.50271755062E+01 -0.36345527118E+01 -0.54586340346E+01  0.82631200385E+01  0.51100000000E-03 0.  1.
         12    1    4    4    0    0  0.54140859044E+01 -0.17403374784E+01  0.64227916104E+01  0.85786568173E+01  0.00000000000E+00 0. -1.
</event>
<event>
 8    1  0.2458065E-006  0.9118800E+02  0.7816164E-02  0.1184000E+00
        -11   -1    0    0    0    0  0.00000000000E+00  0.00000000000E+00  0.45593999997E+02  0.45594000000E+02  0.51100000000E-03 0.  1.
         11   -1    0    0    0    0 -0.00000000000E+00 -0.00000000000E+00 -0.45593999997E+02  0.45594000000E+02  0.51100000000E-03 0. -1.
         23    2    1    2    0    0  0.35527136788E-14  0.00000000000E+00  0.00000000000E+00  0.91188000000E+02  0.91188000000E+02 0.  0.
    9900012    2    3    3    0    0 -0.31008009045E+02  0.16978858495E+02 -0.10295730839E+02  0.54367077494E+02  0.39999984762E+02 0.  0.
        -12    1    3    3    0    0  0.31008009045E+02 -0.16978858495E+02  0.10295730839E+02  0.36820922506E+02  0.00000000000E+00 0.  1.
         11    1    4    4    0    0 -0.18430365656E+02  0.10859891081E+02  0.25400663640E+01  0.21542227134E+02  0.51100000000E-03 0.  1.
        -11    1    4    4    0    0 -0.67020330043E+01  0.16756850322E+02 -0.72342395763E+01  0.19443340804E+02  0.51100000000E-03 0. -1.
         12    1    4    4    0    0 -0.58756103847E+01 -0.10637882908E+02 -0.56015576264E+01  0.13381509556E+02  0.00000000000E+00 0. -1.
</event>
<event>
 8    1  0.2458065E-006  0.9118800E+02  0.7816164E-02  0.1184000E+00
        -11   -1    0    0    0    0  0.00000000000E+00  0.00000000000E+00  0.45593999997E+02  0.45594000000E+02  0.51100000000E-03 0.  1.
         11   -1    0    0    0    0 -0.00000000000E+00 -0.00000000000E+00 -0.45593999997E+02  0.45594000000E+02  0.51100000000E-03 0. -1.
         23    2    1    2    0    0  0.00000000000E+00 -0.35527136788E-14  0.00000000000E+00  0.91188000000E+02  0.91188000000E+02 0.  0.
    9900012    2    3    3    0    0 -0.11298622987E+02  0.28388173003E+02 -0.20548400439E+02  0.54367027601E+02  0.39999871021E+02 0.  0.
         12    1    3    3    0    0  0.11298622987E+02 -0.28388173003E+02  0.20548400439E+02  0.36820972399E+02  0.00000000000E+00 0. -1.
         11    1    4    4    0    0  0.61062741673E+01 -0.26319176371E+01 -0.10695308686E+02  0.12593776352E+02  0.51100000000E-03 0. -1.
        -11    1    4    4    0    0 -0.39316081074E+01 -0.78173246445E+00  0.29087667683E+01  0.49527338238E+01  0.51100000000E-03 0.  1.
         12    1    4    4    0    0 -0.13473289047E+02  0.31801823104E+02 -0.12761858521E+02  0.36820517424E+02  0.00000000000E+00 0. -1.
</event>
<event>
 8    1  0.2458065E-006  0.9118800E+02  0.7816164E-02  0.1184000E+00
        -11   -1    0    0    0    0  0.00000000000E+00  0.00000000000E+00  0.45593999997E+02  0.45594000000E+02  0.51100000000E-03 0. -1.
         11   -1    0    0    0    0 -0.00000000000E+00 -0.00000000000E+00 -0.45593999997E+02  0.45594000000E+02  0.51100000000E-03 0.  1.
         23    2    1    2    0    0  0.00000000000E+00 -0.17763568394E-14  0.00000000000E+00  0.91188000000E+02  0.91188000000E+02 0.  0.
    9900012    2    3    3    0    0 -0.21884123194E+02  0.15780566472E+02 -0.25056739961E+02  0.54367063786E+02  0.39999953514E+02 0.  0.
         12    1    3    3    0    0  0.21884123194E+02 -0.15780566472E+02  0.25056739961E+02  0.36820936214E+02  0.00000000000E+00 0. -1.
         11    1    4    4    0    0  0.21531782098E+01 -0.77117578056E+00  0.55429660212E+01  0.59962789346E+01  0.51100000000E-03 0. -1.
        -11    1    4    4    0    0 -0.17986221980E+02  0.22542985842E+02 -0.22038422333E+02  0.36295763540E+02  0.51100000000E-03 0.  1.
        -12    1    4    4    0    0 -0.60510794247E+01 -0.59912435896E+01 -0.85612836493E+01  0.12075021312E+02  0.00000000000E+00 0.  1.
</event>
<event>
 8    1  0.2458065E-006  0.9118800E+02  0.7816164E-02  0.1184000E+00
        -11   -1    0    0    0    0  0.00000000000E+00  0.00000000000E+00  0.45593999997E+02  0.45594000000E+02  0.51100000000E-03 0. -1.
         11   -1    0    0    0    0 -0.00000000000E+00 -0.00000000000E+00 -0.45593999997E+02  0.45594000000E+02  0.51100000000E-03 0.  1.
         23    2    1    2    0    0  0.35527136788E-14  0.00000000000E+00  0.00000000000E+00  0.91188000000E+02  0.91188000000E+02 0.  0.
    9900012    2    3    3    0    0 -0.23770144059E+02  0.20289028776E+02 -0.19470899278E+02  0.54367077199E+02  0.39999984090E+02 0.  0.
         12    1    3    3    0    0  0.23770144059E+02 -0.20289028776E+02  0.19470899278E+02  0.36820922801E+02  0.00000000000E+00 0. -1.
         11    1    4    4    0    0 -0.12342803210E+02  0.15988638806E+02  0.19150008731E+01  0.20289124933E+02  0.51100000000E-03 0. -1.
        -11    1    4    4    0    0  0.30408818547E+01  0.97158160428E+01 -0.12961805307E+02  0.16481882202E+02  0.51100000000E-03 0.  1.
        -12    1    4    4    0    0 -0.14468222704E+02 -0.54154260726E+01 -0.84240948444E+01  0.17596070064E+02  0.00000000000E+00 0.  1.
</event>
<event>
 8    1  0.2458065E-006  0.9118800E+02  0.7816164E-02  0.1184000E+00
        -11   -1    0    0    0    0  0.00000000000E+00  0.00000000000E+00  0.45593999997E+02  0.45594000000E+02  0.51100000000E-03 0.  1.
         11   -1    0    0    0    0 -0.00000000000E+00 -0.00000000000E+00 -0.45593999997E+02  0.45594000000E+02  0.51100000000E-03 0. -1.
         23    2    1    2    0    0  0.00000000000E+00  0.00000000000E+00  0.00000000000E+00  0.91188000000E+02  0.91188000000E+02 0.  0.
    9900012    2    3    3    0    0 -0.14178726131E+02  0.14543287619E+01  0.33950378437E+02  0.54367088240E+02  0.40000009260E+02 0.  0.
         12    1    3    3    0    0  0.14178726131E+02 -0.14543287619E+01 -0.33950378437E+02  0.36820911760E+02  0.00000000000E+00 0. -1.
         11    1    4    4    0    0 -0.27456088458E+01  0.99157059829E+01  0.28241604098E+00  0.10292684400E+02  0.51100000000E-03 0. -1.
        -11    1    4    4    0    0 -0.10788413234E+02  0.31837020051E+01  0.35788022078E+01  0.11803967302E+02  0.51100000000E-03 0.  1.
        -12    1    4    4    0    0 -0.64470405151E+00 -0.11645079226E+02  0.30089160188E+02  0.32270436538E+02  0.00000000000E+00 0.  1.
</event>
<event>
 8    1  0.2458065E-006  0.9118800E+02  0.7816164E-02  0.1184000E+00
        -11   -1    0    0    0    0  0.00000000000E+00  0.00000000000E+00  0.45593999997E+02  0.45594000000E+02  0.51100000000E-03 0. -1.
         11   -1    0    0    0    0 -0.00000000000E+00 -0.00000000000E+00 -0.45593999997E+02  0.45594000000E+02  0.51100000000E-03 0.  1.
         23    2    1    2    0    0  0.00000000000E+00  0.00000000000E+00 -0.17763568394E-14  0.91188000000E+02  0.91188000000E+02 0.  0.
    9900012    2    3    3    0    0  0.25518642087E+02  0.24367947536E+02  0.10525318023E+02  0.54367078222E+02  0.39999986423E+02 0.  0.
        -12    1    3    3    0    0 -0.25518642087E+02 -0.24367947536E+02 -0.10525318023E+02  0.36820921778E+02  0.00000000000E+00 0.  1.
         11    1    4    4    0    0  0.14765810344E+02  0.13591944706E+01  0.14187117614E+02  0.20521960705E+02  0.51100000000E-03 0. -1.
        -11    1    4    4    0    0  0.14171743420E+02  0.54855690458E+01  0.14735180749E+01  0.15267646678E+02  0.51100000000E-03 0.  1.
        -12    1    4    4    0    0 -0.34189116767E+01  0.17523184020E+02 -0.51353176659E+01  0.18577470839E+02  0.00000000000E+00 0.  1.
</event>
<event>
 8    1  0.2458065E-006  0.9118800E+02  0.7816164E-02  0.1184000E+00
        -11   -1    0    0    0    0  0.00000000000E+00  0.00000000000E+00  0.45593999997E+02  0.45594000000E+02  0.51100000000E-03 0. -1.
         11   -1    0    0    0    0 -0.00000000000E+00 -0.00000000000E+00 -0.45593999997E+02  0.45594000000E+02  0.51100000000E-03 0.  1.
         23    2    1    2    0    0  0.00000000000E+00 -0.35527136788E-14  0.00000000000E+00  0.91188000000E+02  0.91188000000E+02 0.  0.
    9900012    2    3    3    0    0  0.18442649413E+02 -0.26251863823E+02  0.18068967663E+02  0.54367092027E+02  0.40000017894E+02 0.  0.
        -12    1    3    3    0    0 -0.18442649413E+02  0.26251863823E+02 -0.18068967663E+02  0.36820907973E+02  0.00000000000E+00 0.  1.
         11    1    4    4    0    0  0.12256200753E+02  0.41640337406E-01  0.15130759854E+02  0.19471930691E+02  0.51100000000E-03 0. -1.
        -11    1    4    4    0    0  0.13433438655E+02 -0.18316584788E+02 -0.24492706005E+01  0.22846301213E+02  0.51100000000E-03 0.  1.
         12    1    4    4    0    0 -0.72469899945E+01 -0.79769193716E+01  0.53874784101E+01  0.12048860123E+02  0.00000000000E+00 0. -1.
</event>
<event>
 8    1  0.2458065E-006  0.9118800E+02  0.7816164E-02  0.1184000E+00
        -11   -1    0    0    0    0  0.00000000000E+00  0.00000000000E+00  0.45593999997E+02  0.45594000000E+02  0.51100000000E-03 0. -1.
         11   -1    0    0    0    0 -0.00000000000E+00 -0.00000000000E+00 -0.45593999997E+02  0.45594000000E+02  0.51100000000E-03 0.  1.
         23    2    1    2    0    0 -0.71054273576E-14  0.44408920985E-15 -0.13322676296E-14  0.91188000000E+02  0.91188000000E+02 0.  0.
    9900012    2    3    3    0    0 -0.36624882875E+02  0.36387279796E+01 -0.10760064515E+01  0.54367079631E+02  0.39999989634E+02 0.  0.
        -12    1    3    3    0    0  0.36624882875E+02 -0.36387279796E+01  0.10760064515E+01  0.36820920369E+02  0.00000000000E+00 0.  1.
         11    1    4    4    0    0 -0.29344343058E+00  0.89453969823E+01 -0.13637467867E+01  0.90535099148E+01  0.51100000000E-03 0. -1.
        -11    1    4    4    0    0 -0.15296114639E+02 -0.64065464923E+01 -0.12414866972E+02  0.20715788259E+02  0.51100000000E-03 0.  1.
         12    1    4    4    0    0 -0.21035324806E+02  0.10998774896E+01  0.12702607307E+02  0.24597781457E+02  0.00000000000E+00 0. -1.
</event>
<event>
 8    1  0.2458065E-006  0.9118800E+02  0.7816164E-02  0.1184000E+00
        -11   -1    0    0    0    0  0.00000000000E+00  0.00000000000E+00  0.45593999997E+02  0.45594000000E+02  0.51100000000E-03 0.  1.
         11   -1    0    0    0    0 -0.00000000000E+00 -0.00000000000E+00 -0.45593999997E+02  0.45594000000E+02  0.51100000000E-03 0. -1.
         23    2    1    2    0    0  0.00000000000E+00  0.88817841970E-15 -0.88817841970E-15  0.91188000000E+02  0.91188000000E+02 0.  0.
    9900012    2    3    3    0    0  0.35976448781E+02 -0.43123053530E+01  0.65481972748E+01  0.54367085673E+02  0.40000003409E+02 0.  0.
         12    1    3    3    0    0 -0.35976448781E+02  0.43123053530E+01 -0.65481972748E+01  0.36820914327E+02  0.00000000000E+00 0. -1.
         11    1    4    4    0    0  0.20675228388E+02 -0.13187228283E+02 -0.86639113503E+01  0.26008295193E+02  0.51100000000E-03 0. -1.
        -11    1    4    4    0    0  0.84224850198E+01  0.23692270753E+00 -0.12686195559E+01  0.85207852993E+01  0.51100000000E-03 0.  1.
        -12    1    4    4    0    0  0.68787353730E+01  0.86380002226E+01  0.16480728181E+02  0.19838005181E+02  0.00000000000E+00 0.  1.
</event>
<event>
 8    1  0.2458065E-006  0.9118800E+02  0.7816164E-02  0.1184000E+00
        -11   -1    0    0    0    0  0.00000000000E+00  0.00000000000E+00  0.45593999997E+02  0.45594000000E+02  0.51100000000E-03 0.  1.
         11   -1    0    0    0    0 -0.00000000000E+00 -0.00000000000E+00 -0.45593999997E+02  0.45594000000E+02  0.51100000000E-03 0. -1.
         23    2    1    2    0    0 -0.71054273576E-14  0.44408920985E-15  0.17763568394E-14  0.91188000000E+02  0.91188000000E+02 0.  0.
    9900012    2    3    3    0    0 -0.36574607524E+02 -0.18648434921E+01  0.38210599060E+01  0.54367081277E+02  0.39999993388E+02 0.  0.
         12    1    3    3    0    0  0.36574607524E+02  0.18648434921E+01 -0.38210599060E+01  0.36820918723E+02  0.00000000000E+00 0. -1.
         11    1    4    4    0    0 -0.83151822540E+01  0.26865242274E+01 -0.10492870270E+02  0.13655035522E+02  0.51100000000E-03 0. -1.
        -11    1    4    4    0    0 -0.19518913549E+02  0.93556140768E+01  0.71905079712E+01  0.22808307829E+02  0.51100000000E-03 0.  1.
         12    1    4    4    0    0 -0.87405117211E+01 -0.13906981796E+02  0.71234222047E+01  0.17903737926E+02  0.00000000000E+00 0. -1.
</event>
<event>
 8    1  0.2458065E-006  0.9118800E+02  0.7816164E-02  0.1184000E+00
        -11   -1    0    0    0    0  0.00000000000E+00  0.00000000000E+00  0.45593999997E+02  0.45594000000E+02  0.51100000000E-03 0. -1.
         11   -1    0    0    0    0 -0.00000000000E+00 -0.00000000000E+00 -0.45593999997E+02  0.45594000000E+02  0.51100000000E-03 0.  1.
         23    2    1    2    0    0  0.17763568394E-14  0.00000000000E+00  0.00000000000E+00  0.91188000000E+02  0.91188000000E+02 0.  0.
    9900012    2    3    3    0    0 -0.11707185859E+02 -0.31987461138E+02 -0.13982971705E+02  0.54367090607E+02  0.40000014658E+02 0.  0.
         12    1    3    3    0    0  0.11707185859E+02  0.31987461138E+02  0.13982971705E+02  0.36820909393E+02  0.00000000000E+00 0. -1.
         11    1    4    4    0    0 -0.16264874701E+02 -0.41490904220E+01 -0.38044972081E+00  0.16790051895E+02  0.51100000000E-03 0. -1.
        -11    1    4    4    0    0 -0.38501553690E+01 -0.25907116096E+02 -0.11969372451E+02  0.28797017865E+02  0.51100000000E-03 0.  1.
         12    1    4    4    0    0  0.84078442115E+01 -0.19312546204E+01 -0.16331495332E+01  0.87800208480E+01  0.00000000000E+00 0. -1.
</event>
<event>
 8    1  0.2458065E-006  0.9118800E+02  0.7816164E-02  0.1184000E+00
        -11   -1    0    0    0    0  0.00000000000E+00  0.00000000000E+00  0.45593999997E+02  0.45594000000E+02  0.51100000000E-03 0.  1.
         11   -1    0    0    0    0 -0.00000000000E+00 -0.00000000000E+00 -0.45593999997E+02  0.45594000000E+02  0.51100000000E-03 0. -1.
         23    2    1    2    0    0  0.00000000000E+00  0.44408920985E-15 -0.71054273576E-14  0.91188000000E+02  0.91188000000E+02 0.  0.
    9900012    2    3    3    0    0  0.25012761669E+02 -0.23713682249E+01  0.26916872629E+02  0.54367086572E+02  0.40000005458E+02 0.  0.
         12    1    3    3    0    0 -0.25012761669E+02  0.23713682249E+01 -0.26916872629E+02  0.36820913428E+02  0.00000000000E+00 0. -1.
         11    1    4    4    0    0  0.46794056105E+01  0.19595035784E+00  0.90185976236E+01  0.10162201374E+02  0.51100000000E-03 0. -1.
        -11    1    4    4    0    0  0.25681737491E+02  0.91346368707E+01  0.96207422569E+01  0.28905914847E+02  0.51100000000E-03 0.  1.
         12    1    4    4    0    0 -0.53483814329E+01 -0.11701955453E+02  0.82775327482E+01  0.15298970350E+02  0.00000000000E+00 0. -1.
</event>
<event>
 8    1  0.2458065E-006  0.9118800E+02  0.7816164E-02  0.1184000E+00
        -11   -1    0    0    0    0  0.00000000000E+00  0.00000000000E+00  0.45593999997E+02  0.45594000000E+02  0.51100000000E-03 0. -1.
         11   -1    0    0    0    0 -0.00000000000E+00 -0.00000000000E+00 -0.45593999997E+02  0.45594000000E+02  0.51100000000E-03 0.  1.
         23    2    1    2    0    0  0.00000000000E+00  0.00000000000E+00 -0.17763568394E-14  0.91188000000E+02  0.91188000000E+02 0.  0.
    9900012    2    3    3    0    0  0.23983870019E+02  0.22924950477E+02 -0.15968713358E+02  0.54367093143E+02  0.40000020438E+02 0.  0.
        -12    1    3    3    0    0 -0.23983870019E+02 -0.22924950477E+02  0.15968713358E+02  0.36820906857E+02  0.00000000000E+00 0.  1.
         11    1    4    4    0    0  0.14177265177E+02  0.12723134243E+02  0.11062805178E+02  0.22028587143E+02  0.51100000000E-03 0. -1.
        -11    1    4    4    0    0  0.58999350304E+01  0.97770110283E+01 -0.11084031012E+02  0.15913985099E+02  0.51100000000E-03 0.  1.
         12    1    4    4    0    0  0.39066698115E+01  0.42480520574E+00 -0.15947487524E+02  0.16424520901E+02  0.00000000000E+00 0. -1.
</event>
<event>
 8    1  0.2458065E-006  0.9118800E+02  0.7816164E-02  0.1184000E+00
        -11   -1    0    0    0    0  0.00000000000E+00  0.00000000000E+00  0.45593999997E+02  0.45594000000E+02  0.51100000000E-03 0.  1.
         11   -1    0    0    0    0 -0.00000000000E+00 -0.00000000000E+00 -0.45593999997E+02  0.45594000000E+02  0.51100000000E-03 0. -1.
         23    2    1    2    0    0 -0.22204460493E-14  0.00000000000E+00 -0.88817841970E-15  0.91188000000E+02  0.91188000000E+02 0.  0.
    9900012    2    3    3    0    0  0.22011260425E+01 -0.36644375994E+02  0.28501251361E+01  0.54367102929E+02  0.40000042747E+02 0.  0.
        -12    1    3    3    0    0 -0.22011260425E+01  0.36644375994E+02 -0.28501251361E+01  0.36820897071E+02  0.00000000000E+00 0.  1.
         11    1    4    4    0    0  0.97893461667E+01 -0.88297276633E+01  0.14443690758E+01  0.13262035714E+02  0.51100000000E-03 0.  1.
        -11    1    4    4    0    0 -0.10203274662E+02 -0.72725257593E+00 -0.72618523546E+01  0.12544728376E+02  0.51100000000E-03 0. -1.
        -12    1    4    4    0    0  0.26150545379E+01 -0.27087395755E+02  0.86676084149E+01  0.28560338840E+02  0.00000000000E+00 0.  1.
</event>
<event>
 8    1  0.2458065E-006  0.9118800E+02  0.7816164E-02  0.1184000E+00
        -11   -1    0    0    0    0  0.00000000000E+00  0.00000000000E+00  0.45593999997E+02  0.45594000000E+02  0.51100000000E-03 0.  1.
         11   -1    0    0    0    0 -0.00000000000E+00 -0.00000000000E+00 -0.45593999997E+02  0.45594000000E+02  0.51100000000E-03 0. -1.
         23    2    1    2    0    0  0.00000000000E+00 -0.17763568394E-14  0.00000000000E+00  0.91188000000E+02  0.91188000000E+02 0.  0.
    9900012    2    3    3    0    0 -0.50104525792E+01 -0.12268623408E+02  0.34353405134E+02  0.54367079320E+02  0.39999988927E+02 0.  0.
         12    1    3    3    0    0  0.50104525792E+01  0.12268623408E+02 -0.34353405134E+02  0.36820920680E+02  0.00000000000E+00 0. -1.
         11    1    4    4    0    0 -0.59927372111E+01 -0.75741719981E+01  0.62501722114E+01  0.11504157234E+02  0.51100000000E-03 0.  1.
        -11    1    4    4    0    0 -0.44701263330E+01  0.71068089506E+01 -0.31864814881E+01  0.89801128851E+01  0.51100000000E-03 0. -1.
         12    1    4    4    0    0  0.54524109649E+01 -0.11801260361E+02  0.31289714411E+02  0.33882809201E+02  0.00000000000E+00 0. -1.
</event>
<event>
 8    1  0.2458065E-006  0.9118800E+02  0.7816164E-02  0.1184000E+00
        -11   -1    0    0    0    0  0.00000000000E+00  0.00000000000E+00  0.45593999997E+02  0.45594000000E+02  0.51100000000E-03 0.  1.
         11   -1    0    0    0    0 -0.00000000000E+00 -0.00000000000E+00 -0.45593999997E+02  0.45594000000E+02  0.51100000000E-03 0. -1.
         23    2    1    2    0    0  0.00000000000E+00  0.00000000000E+00  0.00000000000E+00  0.91188000000E+02  0.91188000000E+02 0.  0.
    9900012    2    3    3    0    0  0.25770629386E+02  0.54412933733E+01  0.25730258466E+02  0.54367092715E+02  0.40000019463E+02 0.  0.
         12    1    3    3    0    0 -0.25770629386E+02 -0.54412933733E+01 -0.25730258466E+02  0.36820907285E+02  0.00000000000E+00 0. -1.
         11    1    4    4    0    0  0.12940486534E+02 -0.10244543040E+01  0.34417648660E+01  0.13429499023E+02  0.51100000000E-03 0. -1.
        -11    1    4    4    0    0  0.76562071922E+01  0.11771471833E+02 -0.31926751450E+01  0.14400633060E+02  0.51100000000E-03 0.  1.
        -12    1    4    4    0    0  0.51739356606E+01 -0.53057241554E+01  0.25481168745E+02  0.26536960633E+02  0.00000000000E+00 0.  1.
</event>
<event>
 8    1  0.2458065E-006  0.9118800E+02  0.7816164E-02  0.1184000E+00
        -11   -1    0    0    0    0  0.00000000000E+00  0.00000000000E+00  0.45593999997E+02  0.45594000000E+02  0.51100000000E-03 0. -1.
         11   -1    0    0    0    0 -0.00000000000E+00 -0.00000000000E+00 -0.45593999997E+02  0.45594000000E+02  0.51100000000E-03 0.  1.
         23    2    1    2    0    0  0.35527136788E-14  0.00000000000E+00  0.35527136788E-14  0.91188000000E+02  0.91188000000E+02 0.  0.
    9900012    2    3    3    0    0  0.21995228676E+02 -0.45766506992E+01  0.29172652203E+02  0.54367089464E+02  0.40000012052E+02 0.  0.
        -12    1    3    3    0    0 -0.21995228676E+02  0.45766506992E+01 -0.29172652203E+02  0.36820910536E+02  0.00000000000E+00 0.  1.
         11    1    4    4    0    0  0.66330366578E+01  0.11123792032E+01  0.22758484900E+02  0.23731481159E+02  0.51100000000E-03 0. -1.
        -11    1    4    4    0    0  0.63665034407E+01  0.47236803072E+00  0.15294510549E+02  0.16573398891E+02  0.51100000000E-03 0.  1.
        -12    1    4    4    0    0  0.89956885770E+01 -0.61613979332E+01 -0.88803432451E+01  0.14062209414E+02  0.00000000000E+00 0.  1.
</event>
<event>
 8    1  0.2458065E-006  0.9118800E+02  0.7816164E-02  0.1184000E+00
        -11   -1    0    0    0    0  0.00000000000E+00  0.00000000000E+00  0.45593999997E+02  0.45594000000E+02  0.51100000000E-03 0.  1.
         11   -1    0    0    0    0 -0.00000000000E+00 -0.00000000000E+00 -0.45593999997E+02  0.45594000000E+02  0.51100000000E-03 0. -1.
         23    2    1    2    0    0  0.00000000000E+00  0.00000000000E+00  0.00000000000E+00  0.91188000000E+02  0.91188000000E+02 0.  0.
    9900012    2    3    3    0    0 -0.13814371734E+02  0.48181268297E+01  0.33789467478E+02  0.54367091198E+02  0.40000016004E+02 0.  0.
         12    1    3    3    0    0  0.13814371734E+02 -0.48181268297E+01 -0.33789467478E+02  0.36820908802E+02  0.00000000000E+00 0. -1.
         11    1    4    4    0    0 -0.67693683338E+01 -0.68624877396E+01  0.10464219195E+02  0.14227366912E+02  0.51100000000E-03 0. -1.
        -11    1    4    4    0    0 -0.15581427921E+02  0.40265753404E+01  0.23890266219E+01  0.16269654375E+02  0.51100000000E-03 0.  1.
        -12    1    4    4    0    0  0.85364245210E+01  0.76540392290E+01  0.20936221661E+02  0.23870069911E+02  0.00000000000E+00 0.  1.
</event>
<event>
 8    1  0.2458065E-006  0.9118800E+02  0.7816164E-02  0.1184000E+00
        -11   -1    0    0    0    0  0.00000000000E+00  0.00000000000E+00  0.45593999997E+02  0.45594000000E+02  0.51100000000E-03 0.  1.
         11   -1    0    0    0    0 -0.00000000000E+00 -0.00000000000E+00 -0.45593999997E+02  0.45594000000E+02  0.51100000000E-03 0. -1.
         23    2    1    2    0    0 -0.17763568394E-14  0.88817841970E-15  0.00000000000E+00  0.91188000000E+02  0.91188000000E+02 0.  0.
    9900012    2    3    3    0    0  0.14020517240E+02  0.25107173628E+01  0.33954405587E+02  0.54367078445E+02  0.39999986931E+02 0.  0.
         12    1    3    3    0    0 -0.14020517240E+02 -0.25107173628E+01 -0.33954405587E+02  0.36820921555E+02  0.00000000000E+00 0. -1.
         11    1    4    4    0    0 -0.47157800767E+01 -0.16049834194E+00  0.49541630994E+01  0.68416426190E+01  0.51100000000E-03 0. -1.
        -11    1    4    4    0    0  0.21122977519E+02 -0.83370990967E+01  0.28236974751E+02  0.36235537031E+02  0.51100000000E-03 0.  1.
        -12    1    4    4    0    0 -0.23866802024E+01  0.11008314801E+02  0.76326773724E+00  0.11289898795E+02  0.00000000000E+00 0.  1.
</event>
<event>
 8    1  0.2458065E-006  0.9118800E+02  0.7816164E-02  0.1184000E+00
        -11   -1    0    0    0    0  0.00000000000E+00  0.00000000000E+00  0.45593999997E+02  0.45594000000E+02  0.51100000000E-03 0.  1.
         11   -1    0    0    0    0 -0.00000000000E+00 -0.00000000000E+00 -0.45593999997E+02  0.45594000000E+02  0.51100000000E-03 0. -1.
         23    2    1    2    0    0 -0.17763568394E-14  0.00000000000E+00  0.17763568394E-14  0.91188000000E+02  0.91188000000E+02 0.  0.
    9900012    2    3    3    0    0 -0.15286628935E+02  0.32981006504E+02  0.58612928859E+01  0.54367047154E+02  0.39999915596E+02 0.  0.
         12    1    3    3    0    0  0.15286628935E+02 -0.32981006504E+02 -0.58612928859E+01  0.36820952846E+02  0.00000000000E+00 0. -1.
         11    1    4    4    0    0 -0.10641506498E+02  0.24568890378E+02  0.34797300833E+01  0.26999639936E+02  0.51100000000E-03 0. -1.
        -11    1    4    4    0    0  0.89298247582E+01 -0.81003844919E+00  0.56989060455E+01  0.10624286464E+02  0.51100000000E-03 0.  1.
         12    1    4    4    0    0 -0.13574947196E+02  0.92221545752E+01 -0.33173432428E+01  0.16743120753E+02  0.00000000000E+00 0. -1.
</event>
<event>
 8    1  0.2458065E-006  0.9118800E+02  0.7816164E-02  0.1184000E+00
        -11   -1    0    0    0    0  0.00000000000E+00  0.00000000000E+00  0.45593999997E+02  0.45594000000E+02  0.51100000000E-03 0. -1.
         11   -1    0    0    0    0 -0.00000000000E+00 -0.00000000000E+00 -0.45593999997E+02  0.45594000000E+02  0.51100000000E-03 0.  1.
         23    2    1    2    0    0 -0.17763568394E-14  0.22204460493E-14  0.00000000000E+00  0.91188000000E+02  0.91188000000E+02 0.  0.
    9900012    2    3    3    0    0 -0.50570950181E+01 -0.30724488038E+01 -0.36342338439E+02  0.54367085904E+02  0.40000003936E+02 0.  0.
         12    1    3    3    0    0  0.50570950181E+01  0.30724488038E+01  0.36342338439E+02  0.36820914096E+02  0.00000000000E+00 0. -1.
         11    1    4    4    0    0 -0.19998612777E+02  0.71846516307E+01 -0.18399728969E+02  0.28108962244E+02  0.51100000000E-03 0. -1.
        -11    1    4    4    0    0  0.17716179185E+01  0.72491611017E+00 -0.27343295525E+01  0.33377674842E+01  0.51100000000E-03 0.  1.
         12    1    4    4    0    0  0.13169899840E+02 -0.10982016545E+02 -0.15208279917E+02  0.22920356176E+02  0.00000000000E+00 0. -1.
</event>
<event>
 8    1  0.2458065E-006  0.9118800E+02  0.7816164E-02  0.1184000E+00
        -11   -1    0    0    0    0  0.00000000000E+00  0.00000000000E+00  0.45593999997E+02  0.45594000000E+02  0.51100000000E-03 0.  1.
         11   -1    0    0    0    0 -0.00000000000E+00 -0.00000000000E+00 -0.45593999997E+02  0.45594000000E+02  0.51100000000E-03 0. -1.
         23    2    1    2    0    0  0.00000000000E+00 -0.88817841970E-15  0.71054273576E-14  0.91188000000E+02  0.91188000000E+02 0.  0.
    9900012    2    3    3    0    0  0.64818125073E+01 -0.19184500696E+01 -0.36195116308E+02  0.54367071324E+02  0.39999970697E+02 0.  0.
        -12    1    3    3    0    0 -0.64818125073E+01  0.19184500696E+01  0.36195116308E+02  0.36820928676E+02  0.00000000000E+00 0.  1.
         11    1    4    4    0    0  0.12018112181E+02 -0.29648547740E+01 -0.76390810952E+01  0.14545822234E+02  0.51100000000E-03 0. -1.
        -11    1    4    4    0    0  0.64076300943E-01  0.12703244796E+02 -0.65403512928E+01  0.14288202455E+02  0.51100000000E-03 0.  1.
         12    1    4    4    0    0 -0.56003759749E+01 -0.11656840091E+02 -0.22015683920E+02  0.25533046634E+02  0.00000000000E+00 0. -1.
</event>
<event>
 8    1  0.2458065E-006  0.9118800E+02  0.7816164E-02  0.1184000E+00
        -11   -1    0    0    0    0  0.00000000000E+00  0.00000000000E+00  0.45593999997E+02  0.45594000000E+02  0.51100000000E-03 0.  1.
         11   -1    0    0    0    0 -0.00000000000E+00 -0.00000000000E+00 -0.45593999997E+02  0.45594000000E+02  0.51100000000E-03 0. -1.
         23    2    1    2    0    0 -0.88817841970E-15  0.00000000000E+00  0.00000000000E+00  0.91188000000E+02  0.91188000000E+02 0.  0.
    9900012    2    3    3    0    0 -0.52005446974E+01  0.25029461580E+02  0.26500179836E+02  0.54367093663E+02  0.40000021623E+02 0.  0.
         12    1    3    3    0    0  0.52005446974E+01 -0.25029461580E+02 -0.26500179836E+02  0.36820906337E+02  0.00000000000E+00 0. -1.
         11    1    4    4    0    0  0.56058044209E+01 -0.10962653212E+01 -0.31534636425E+01  0.65246589233E+01  0.51100000000E-03 0. -1.
        -11    1    4    4    0    0  0.50084433834E+01  0.15319731004E+02  0.55311934427E+01  0.17040327588E+02  0.51100000000E-03 0.  1.
        -12    1    4    4    0    0 -0.15814792502E+02  0.10805995897E+02  0.24122450036E+02  0.30802107151E+02  0.00000000000E+00 0.  1.
</event>
<event>
 8    1  0.2458065E-006  0.9118800E+02  0.7816164E-02  0.1184000E+00
        -11   -1    0    0    0    0  0.00000000000E+00  0.00000000000E+00  0.45593999997E+02  0.45594000000E+02  0.51100000000E-03 0.  1.
         11   -1    0    0    0    0 -0.00000000000E+00 -0.00000000000E+00 -0.45593999997E+02  0.45594000000E+02  0.51100000000E-03 0. -1.
         23    2    1    2    0    0  0.00000000000E+00 -0.88817841970E-15  0.00000000000E+00  0.91188000000E+02  0.91188000000E+02 0.  0.
    9900012    2    3    3    0    0  0.26659267976E+02  0.42409660069E+01 -0.25041452269E+02  0.54367126933E+02  0.40000097468E+02 0.  0.
        -12    1    3    3    0    0 -0.26659267976E+02 -0.42409660069E+01  0.25041452269E+02  0.36820873067E+02  0.00000000000E+00 0.  1.
         11    1    4    4    0    0  0.56222807845E+01 -0.20579241870E+01 -0.23699025823E+02  0.24443586447E+02  0.51100000000E-03 0. -1.
        -11    1    4    4    0    0 -0.17062871553E+01 -0.19033268967E+00  0.51244635325E+01  0.54044212592E+01  0.51100000000E-03 0.  1.
         12    1    4    4    0    0  0.22743274347E+02  0.64892228835E+01 -0.64668899790E+01  0.24519119226E+02  0.00000000000E+00 0. -1.
</event>
<event>
 8    1  0.2458065E-006  0.9118800E+02  0.7816164E-02  0.1184000E+00
        -11   -1    0    0    0    0  0.00000000000E+00  0.00000000000E+00  0.45593999997E+02  0.45594000000E+02  0.51100000000E-03 0.  1.
         11   -1    0    0    0    0 -0.00000000000E+00 -0.00000000000E+00 -0.45593999997E+02  0.45594000000E+02  0.51100000000E-03 0. -1.
         23    2    1    2    0    0 -0.35527136788E-14 -0.44408920985E-15  0.00000000000E+00  0.91188000000E+02  0.91188000000E+02 0.  0.
    9900012    2    3    3    0    0  0.28510481448E+02  0.36751701712E+01 -0.23009268378E+02  0.54367070361E+02  0.39999968503E+02 0.  0.
        -12    1    3    3    0    0 -0.28510481448E+02 -0.36751701712E+01  0.23009268378E+02  0.36820929639E+02  0.00000000000E+00 0.  1.
         11    1    4    4    0    0  0.66410779526E+01  0.47140245376E+01 -0.21764947218E+02  0.23238736441E+02  0.51100000000E-03 0. -1.
        -11    1    4    4    0    0  0.14620589498E+02  0.65418511239E+01 -0.87303648570E+01  0.18242168846E+02  0.51100000000E-03 0.  1.
        -12    1    4    4    0    0  0.72488139968E+01 -0.75807054903E+01  0.74860436969E+01  0.12886165074E+02  0.00000000000E+00 0.  1.
</event>
