<LesHouchesEvents version="3.0">
<header>
<!--
#*********************************************************************
#                                                                    *
#                        MadGraph5_aMC@NLO                           *
#                                                                    *
#                           Going Beyond                             *
#                                                                    *
#                   http://madgraph.hep.uiuc.edu                     *
#                   http://madgraph.phys.ucl.ac.be                   *
#                   http://amcatnlo.cern.ch                          *
#                                                                    *
#                     The MadGraph5_aMC@NLO team                     *
#                                                                    *
#....................................................................*
#                                                                    *
# This file contains all the information necessary to reproduce      *
# the events generated:                                              *
#                                                                    *
# 1. software version                                                *
# 2. proc_card          : code generation info including model       *
# 3. param_card         : model primary parameters in the LH format  *
# 4. run_card           : running parameters (collider and cuts)     *
# 5. pythia_card        : present only if pythia has been run        *
# 6. pgs_card           : present only if pgs has been run           *
# 7. delphes_cards      : present only if delphes has been run       *
#                                                                    *
#                                                                    *
#*********************************************************************
-->
<MGVersion>
2.6.7
</MGVersion>
<MG5ProcCard>
<![CDATA[
#************************************************************
#*                     MadGraph5_aMC@NLO                    *
#*                                                          *
#*                *                       *                 *
#*                  *        * *        *                   *
#*                    * * * * 5 * * * *                     *
#*                  *        * *        *                   *
#*                *                       *                 *
#*                                                          *
#*                                                          *
#*         VERSION 2.6.7                 2019-10-16         *
#*                                                          *
#*    The MadGraph5_aMC@NLO Development Team - Find us at   *
#*    https://server06.fynu.ucl.ac.be/projects/madgraph     *
#*                                                          *
#************************************************************
#*                                                          *
#*               Command File for MadGraph5_aMC@NLO         *
#*                                                          *
#*     run as ./bin/mg5_aMC  filename                       *
#*                                                          *
#************************************************************
set low_mem_multicore_nlo_generation False
set default_unset_couplings 99
set group_subprocesses Auto
set ignore_six_quark_processes False
set loop_optimized_output True
set loop_color_flows False
set gauge unitary
set complex_mass_scheme False
set max_npoint_for_channel 0
import model sm
define p = g u c d s u~ c~ d~ s~
define j = g u c d s u~ c~ d~ s~
define l+ = e+ mu+
define l- = e- mu-
define vl = ve vm vt
define vl~ = ve~ vm~ vt~
import model SM_HeavyN_CKM_AllMasses_LO
define e = e+ e-
define nue = ve ve~
generate e+ e- > z, z > n1 ve , (n1 > z ve, z > e+ e-)
add process e+ e- > z, z > n1 ve~ , (n1 > z ve~, z > e+ e-)
add process e+ e- > z, z > n1 ve , (n1 > w+ e-, w+ > ve e+)
add process e+ e- > z, z > n1 ve~ , (n1 > w- e+, w- > ve~ e-)
add process e+ e- > z, z > n1 ve , (n1 > z ve~ , z > e+ e-)
add process e+ e- > z, z > n1 ve~ , (n1 > z ve, z > e+ e-)
add process e+ e- > z, z > n1 ve , (n1 > w- e+ , w- > e- ve~)
add process e+ e- > z, z > n1 ve~ , (n1 > w+ e- , w+ > e+ ve)
output HNL_Majorana_20GeV_1e-3Ve
]]>
</MG5ProcCard>
<MGProcCard>
#*********************************************************************
#                        MadGraph/MadEvent                           *
#                   http://madgraph.hep.uiuc.edu                     *
#                                                                    *
#                          proc_card.dat                             *
#*********************************************************************
#                                                                    *
#            This Files is generated by MADGRAPH 5                   *
#                                                                    *
# WARNING: This Files is generated for MADEVENT (compatibility issue)*
#          This files is NOT a valid MG4 proc_card.dat               *
#          Running this in MG4 will NEVER reproduce the result of MG5*
#                                                                    *
#*********************************************************************
#*********************************************************************
# Process(es) requested : mg2 input                                  *
#*********************************************************************
# Begin PROCESS # This is TAG. Do not modify this line
e+ e- > z , z > n1 ve , (n1 > z ve , z > e+ e-)           #Process
# Be carefull the coupling are here in MG5 convention
          
end_coup           # End the couplings input

done               # this tells MG there are no more procs
# End PROCESS  # This is TAG. Do not modify this line
#*********************************************************************
# Model information                                                  *
#*********************************************************************
# Begin MODEL  # This is TAG. Do not modify this line
SM_HeavyN_CKM_AllMasses_LO
# End   MODEL  # This is TAG. Do not modify this line
#*********************************************************************
# Start multiparticle definitions                                    *
#*********************************************************************
# Begin MULTIPARTICLES # This is TAG. Do not modify this line

# End  MULTIPARTICLES # This is TAG. Do not modify this line
</MGProcCard>
<MGRunCard>
<![CDATA[
#*********************************************************************
#                       MadGraph5_aMC@NLO                            *
#                                                                    *
#                     run_card.dat MadEvent                          *
#                                                                    *
#  This file is used to set the parameters of the run.               *
#                                                                    *
#  Some notation/conventions:                                        *
#                                                                    *
#   Lines starting with a '# ' are info or comments                  *
#                                                                    *
#   mind the format:   value    = variable     ! comment             *
#                                                                    *
#   To display more options, you can type the command:               *
#      update full_run_card                                          *
#*********************************************************************
#
#*******************                                                 
# Running parameters
#*******************                                                 
#                                                                    
#*********************************************************************
# Tag name for the run (one word)                                    *
#*********************************************************************
  tag_1	= run_tag ! name of the run 
#*********************************************************************
# Number of events and rnd seed                                      *
# Warning: Do not generate more than 1M events in a single run       *
#*********************************************************************
  1000	= nevents ! Number of unweighted events requested 
 21 = iseed ! rnd seed (0=assigned automatically=default))
#*********************************************************************
# Collider type and energy                                           *
# lpp: 0=No PDF, 1=proton, -1=antiproton, 2=photon from proton,      *
#                                         3=photon from electron     *
#*********************************************************************
  0	= lpp1 ! beam 1 type 
  0	= lpp2 ! beam 2 type
  45.594	= ebeam1 ! beam 1 total energy in GeV
  45.594	= ebeam2 ! beam 2 total energy in GeV
#*********************************************************************
# Beam polarization from -100 (left-handed) to 100 (right-handed)    *
#*********************************************************************
  0.0	= polbeam1 ! beam polarization for beam 1
  0.0	= polbeam2 ! beam polarization for beam 2

#*********************************************************************
# PDF CHOICE: this automatically fixes also alpha_s and its evol.    *
#*********************************************************************
  nn23lo1	= pdlabel ! PDF set                                     
  230000	= lhaid ! if pdlabel=lhapdf, this is the lhapdf number
# To see heavy ion options: type "update ion_pdf"
#*********************************************************************
# Renormalization and factorization scales                           *
#*********************************************************************
  False	= fixed_ren_scale ! if .true. use fixed ren scale
  False	= fixed_fac_scale ! if .true. use fixed fac scale
  91.188	= scale ! fixed ren scale
  91.188	= dsqrt_q2fact1 ! fixed fact scale for pdf1
  91.188	= dsqrt_q2fact2 ! fixed fact scale for pdf2
  -1	= dynamical_scale_choice ! Choose one of the preselected dynamical choices
  1.0	= scalefact ! scale factor for event-by-event scales
#*********************************************************************
# Type and output format
#*********************************************************************
  False	= gridpack !True = setting up the grid pack
  0.0	= time_of_flight ! threshold (in mm) below which the invariant livetime is not written (-1 means not written)
  3.0	= lhe_version ! Change the way clustering information pass to shower.        
  True	= clusinfo ! include clustering tag in output
  average	= event_norm ! average/sum. Normalization of the weight in the LHEF

#*********************************************************************
# Matching parameter (MLM only)
#*********************************************************************
  0	= ickkw ! 0 no matching, 1 MLM
  1.0	= alpsfact ! scale factor for QCD emission vx
  False	= chcluster ! cluster only according to channel diag
  5	= asrwgtflavor ! highest quark flavor for a_s reweight
  True	= auto_ptj_mjj ! Automatic setting of ptj and mjj if xqcut >0
                                   ! (turn off for VBF and single top processes) 
  0.0	= xqcut ! minimum kt jet measure between partons
#*********************************************************************
#
#*********************************************************************
# handling of the helicities:
#  0: sum over all helicities
#  1: importance sampling over helicities
#*********************************************************************
  0	= nhel ! using helicities importance sampling or not.
#*********************************************************************
# Generation bias, check the wiki page below for more information:   *
#  'cp3.irmp.ucl.ac.be/projects/madgraph/wiki/LOEventGenerationBias' *
#*********************************************************************
  None	= bias_module ! Bias type of bias, [None, ptj_bias, -custom_folder-]
  {}	= bias_parameters ! Specifies the parameters of the module.
#
#*******************************                                                 
# Parton level cuts definition *
#*******************************                                     
#                                                                    
#
#*********************************************************************
# BW cutoff (M+/-bwcutoff*Gamma) ! Define on/off-shell for "$" and decay  
#*********************************************************************
  15.0	= bwcutoff ! (M+/-bwcutoff*Gamma)
#*********************************************************************
# Apply pt/E/eta/dr/mij/kt_durham cuts on decay products or not
# (note that etmiss/ptll/ptheavy/ht/sorted cuts always apply)
#*********************************************************************
  False	= cut_decays ! Cut decay products 
#*********************************************************************
# Standard Cuts                                                      *
#*********************************************************************
# Minimum and maximum pt's (for max, -1 means no cut)                *
#*********************************************************************
  0.0	= ptj ! minimum pt for the jets 
  0.0	= ptb ! minimum pt for the b 
  0.0	= pta ! minimum pt for the photons 
  0.0	= ptl ! minimum pt for the charged leptons 
  0.0	= misset ! minimum missing Et (sum of neutrino's momenta)
  -1.0	= ptjmax ! maximum pt for the jets
  -1.0	= ptbmax ! maximum pt for the b
  -1.0	= ptamax ! maximum pt for the photons
  -1.0	= ptlmax ! maximum pt for the charged leptons
  -1.0	= missetmax ! maximum missing Et (sum of neutrino's momenta)
  {}	= pt_min_pdg ! pt cut for other particles (use pdg code). Applied on particle and anti-particle
  {}	= pt_max_pdg ! pt cut for other particles (syntax e.g. {6: 100, 25: 50}) 
#*********************************************************************
# Minimum and maximum E's (in the center of mass frame)              *
#*********************************************************************
  0.0	= ej ! minimum E for the jets
  0.0	= eb ! minimum E for the b
  0.0	= ea ! minimum E for the photons
  0.0	= el ! minimum E for the charged leptons
  -1.0	= ejmax ! maximum E for the jets
  -1.0	= ebmax ! maximum E for the b
  -1.0	= eamax ! maximum E for the photons
  -1.0	= elmax ! maximum E for the charged leptons
  {}	= e_min_pdg ! E cut for other particles (use pdg code). Applied on particle and anti-particle
  {}	= e_max_pdg ! E cut for other particles (syntax e.g. {6: 100, 25: 50})

#*********************************************************************
# Maximum and minimum absolute rapidity (for max, -1 means no cut)   *
#*********************************************************************
  -1.0	= etaj ! max rap for the jets 
  -1.0	= etab ! max rap for the b
  -1.0	= etaa ! max rap for the photons 
  -1.0	= etal ! max rap for the charged leptons 
  0.0	= etajmin ! min rap for the jets
  0.0	= etabmin ! min rap for the b
  0.0	= etaamin ! min rap for the photons
  0.0	= etalmin ! main rap for the charged leptons
  {}	= eta_min_pdg ! rap cut for other particles (use pdg code). Applied on particle and anti-particle
  {}	= eta_max_pdg ! rap cut for other particles (syntax e.g. {6: 2.5, 23: 5})
#*********************************************************************
# Minimum and maximum DeltaR distance                                *
#*********************************************************************
  0.0	= drjj ! min distance between jets 
  0.0	= drbb ! min distance between b's 
  0.0	= drll ! min distance between leptons 
  0.0	= draa ! min distance between gammas 
  0.0	= drbj ! min distance between b and jet 
  0.0	= draj ! min distance between gamma and jet 
  0.0	= drjl ! min distance between jet and lepton 
  0.0	= drab ! min distance between gamma and b 
  0.0	= drbl ! min distance between b and lepton 
  0.0	= dral ! min distance between gamma and lepton 
  -1.0	= drjjmax ! max distance between jets
  -1.0	= drbbmax ! max distance between b's
  -1.0	= drllmax ! max distance between leptons
  -1.0	= draamax ! max distance between gammas
  -1.0	= drbjmax ! max distance between b and jet
  -1.0	= drajmax ! max distance between gamma and jet
  -1.0	= drjlmax ! max distance between jet and lepton
  -1.0	= drabmax ! max distance between gamma and b
  -1.0	= drblmax ! max distance between b and lepton
  -1.0	= dralmax ! maxdistance between gamma and lepton
#*********************************************************************
# Minimum and maximum invariant mass for pairs                       *
# WARNING: for four lepton final state mmll cut require to have      *
#          different lepton masses for each flavor!                  *           
#*********************************************************************
  0.0	= mmjj ! min invariant mass of a jet pair 
  0.0	= mmbb ! min invariant mass of a b pair 
  0.0	= mmaa ! min invariant mass of gamma gamma pair
  0.0	= mmll ! min invariant mass of l+l- (same flavour) lepton pair
  -1.0	= mmjjmax ! max invariant mass of a jet pair
  -1.0	= mmbbmax ! max invariant mass of a b pair
  -1.0	= mmaamax ! max invariant mass of gamma gamma pair
  -1.0	= mmllmax ! max invariant mass of l+l- (same flavour) lepton pair
  {}	= mxx_min_pdg ! min invariant mass of a pair of particles X/X~ (e.g. {6:250})
  {'default': False}	= mxx_only_part_antipart ! if True the invariant mass is applied only 
                       ! to pairs of particle/antiparticle and not to pairs of the same pdg codes.  
#*********************************************************************
# Minimum and maximum invariant mass for all letpons                 *
#*********************************************************************
  0.0	= mmnl ! min invariant mass for all letpons (l+- and vl) 
  -1.0	= mmnlmax ! max invariant mass for all letpons (l+- and vl) 
#*********************************************************************
# Minimum and maximum pt for 4-momenta sum of leptons                *
#*********************************************************************
  0.0	= ptllmin ! Minimum pt for 4-momenta sum of leptons(l and vl)
  -1.0	= ptllmax ! Maximum pt for 4-momenta sum of leptons(l and vl)
#*********************************************************************
# Inclusive cuts                                                     *
#*********************************************************************
  0.0	= ptheavy ! minimum pt for at least one heavy final state
  0.0	= xptj ! minimum pt for at least one jet  
  0.0	= xptb ! minimum pt for at least one b 
  0.0	= xpta ! minimum pt for at least one photon 
  0.0	= xptl ! minimum pt for at least one charged lepton 
#*********************************************************************
# Control the pt's of the jets sorted by pt                          *
#*********************************************************************
  0.0	= ptj1min ! minimum pt for the leading jet in pt
  0.0	= ptj2min ! minimum pt for the second jet in pt
  0.0	= ptj3min ! minimum pt for the third jet in pt
  0.0	= ptj4min ! minimum pt for the fourth jet in pt
  -1.0	= ptj1max ! maximum pt for the leading jet in pt 
  -1.0	= ptj2max ! maximum pt for the second jet in pt
  -1.0	= ptj3max ! maximum pt for the third jet in pt
  -1.0	= ptj4max ! maximum pt for the fourth jet in pt
  0	= cutuse ! reject event if fails any (0) / all (1) jet pt cuts
#*********************************************************************
# Control the pt's of leptons sorted by pt                           *
#*********************************************************************
  0.0	= ptl1min ! minimum pt for the leading lepton in pt
  0.0	= ptl2min ! minimum pt for the second lepton in pt
  0.0	= ptl3min ! minimum pt for the third lepton in pt
  0.0	= ptl4min ! minimum pt for the fourth lepton in pt
  -1.0	= ptl1max ! maximum pt for the leading lepton in pt 
  -1.0	= ptl2max ! maximum pt for the second lepton in pt
  -1.0	= ptl3max ! maximum pt for the third lepton in pt
  -1.0	= ptl4max ! maximum pt for the fourth lepton in pt
#*********************************************************************
# Control the Ht(k)=Sum of k leading jets                            *
#*********************************************************************
  0.0	= htjmin ! minimum jet HT=Sum(jet pt)
  -1.0	= htjmax ! maximum jet HT=Sum(jet pt)
  0.0	= ihtmin !inclusive Ht for all partons (including b)
  -1.0	= ihtmax !inclusive Ht for all partons (including b)
  0.0	= ht2min ! minimum Ht for the two leading jets
  0.0	= ht3min ! minimum Ht for the three leading jets
  0.0	= ht4min ! minimum Ht for the four leading jets
  -1.0	= ht2max ! maximum Ht for the two leading jets
  -1.0	= ht3max ! maximum Ht for the three leading jets
  -1.0	= ht4max ! maximum Ht for the four leading jets
#***********************************************************************
# Photon-isolation cuts, according to hep-ph/9801442                   *
# When ptgmin=0, all the other parameters are ignored                  *
# When ptgmin>0, pta and draj are not going to be used                 *
#***********************************************************************
  0.0	= ptgmin ! Min photon transverse momentum
  0.4	= r0gamma ! Radius of isolation code
  1.0	= xn ! n parameter of eq.(3.4) in hep-ph/9801442
  1.0	= epsgamma ! epsilon_gamma parameter of eq.(3.4) in hep-ph/9801442
  True	= isoem ! isolate photons from EM energy (photons and leptons)
#*********************************************************************
# WBF cuts                                                           *
#*********************************************************************
  0.0	= xetamin ! minimum rapidity for two jets in the WBF case  
  -1.0	= deltaeta ! minimum rapidity for two jets in the WBF case 
#***********************************************************************
# Turn on either the ktdurham or ptlund cut to activate                *
# CKKW(L) merging with Pythia8 [arXiv:1410.3012, arXiv:1109.4829]      *
#***********************************************************************
  0.0	= ktdurham 
  0.0	= dparameter 
  0.0	= ptlund 
  1, 2, 3, 4, 5, 6, 21	= pdgs_for_merging_cut ! PDGs for two cuts above   
#*********************************************************************
# maximal pdg code for quark to be considered as a light jet         *
# (otherwise b cuts are applied)                                     *
#*********************************************************************
  4	= maxjetflavor ! Maximum jet pdg code
#*********************************************************************
#
#*********************************************************************
# Store info for systematics studies                                 *
# WARNING: Do not use for interference type of computation           *
#*********************************************************************
  False	= use_syst ! Enable systematics studies
#
  systematics	= systematics_program ! none, systematics [python], SysCalc [depreceted, C++]
['--mur=0.5,1,2', '--muf=0.5,1,2', '--pdf=errorset'] = systematics_arguments ! see: https://cp3.irmp.ucl.ac.be/projects/madgraph/wiki/Systematics#Systematicspythonmodule
# Syscalc is deprecated but to see the associate options type'update syscalc'#********************************************************************* 
#  Additional hidden parameters
#*********************************************************************
  ['--mur=0.5,1,2', '--muf=0.5,1,2', '--pdf=errorset']	= systematics_arguments # Choose the argment to pass to the systematics command. like --mur=0.25,1,4. Look at the help of the systematics function for more details.
]]>
</MGRunCard>
<slha>
######################################################################
## PARAM_CARD AUTOMATICALY GENERATED BY MG5                       ####
######################################################################
###################################
## INFORMATION FOR CKMBLOCK
###################################
BLOCK CKMBLOCK # 
      1 2.275910e-01 # cabi
      2 3.508000e-03 # th13
      3 4.153900e-02 # th23
      4 1.200000e+00 # del13
###################################
## INFORMATION FOR MASS
###################################
BLOCK MASS # 
      1 5.040000e-03 # md
      2 2.550000e-03 # mu
      3 1.010000e-01 # ms
      4 1.270000e+00 # mc
      5 4.700000e+00 # mb
      6 1.733000e+02 # mt
      11 5.110000e-04 # me
      13 1.056600e-01 # mmu
      15 1.777000e+00 # mta
      23 9.118760e+01 # mz
      25 1.257000e+02 # mh
      9900012 2.000000e+01 # mn1
      9900014 1.000000e+04 # mn2
      9900016 1.000000e+04 # mn3
      12 0.000000e+00 # ve : 0.0
      14 0.000000e+00 # vm : 0.0
      16 0.000000e+00 # vt : 0.0
      21 0.000000e+00 # g : 0.0
      22 0.000000e+00 # a : 0.0
      24 7.995123e+01 # w+ : cmath.sqrt(mz__exp__2/2. + cmath.sqrt(mz__exp__4/4. - (aew*cmath.pi*mz__exp__2)/(gf*sqrt__2)))
###################################
## INFORMATION FOR NUMIXING
###################################
BLOCK NUMIXING # 
      1 1.000000e-03 # ven1
      2 0.000000e+00 # ven2
      3 0.000000e+00 # ven3
      4 0.000000e+00 # vmun1
      5 1.000000e+00 # vmun2
      6 0.000000e+00 # vmun3
      7 0.000000e+00 # vtan1
      8 0.000000e+00 # vtan2
      9 1.000000e+00 # vtan3
###################################
## INFORMATION FOR SMINPUTS
###################################
BLOCK SMINPUTS # 
      1 1.279400e+02 # aewm1
      2 1.174560e-05 # gf
      3 1.184000e-01 # as
###################################
## INFORMATION FOR YUKAWA
###################################
BLOCK YUKAWA # 
      1 5.040000e-03 # ymdo
      2 2.550000e-03 # ymup
      3 1.010000e-01 # yms
      4 1.270000e+00 # ymc
      5 4.700000e+00 # ymb
      6 1.733000e+02 # ymt
      11 5.110000e-04 # yme
      13 1.056600e-01 # ymm
      15 1.777000e+00 # ymtau
###################################
## INFORMATION FOR DECAY
###################################
BLOCK QNUMBERS 9900012 #   n1
      1 0 # 3 times electric charge
      2 2 # number of spin states (2s+1)
      3 1 # colour rep (1: singlet, 3: triplet, 8: octet)
      4 0 # particle/antiparticle distinction (0=own anti)
###################################
## INFORMATION FOR QNUMBERS 9900014
###################################
BLOCK QNUMBERS 9900014 #   n2
      1 0 # 3 times electric charge
      2 2 # number of spin states (2s+1)
      3 1 # colour rep (1: singlet, 3: triplet, 8: octet)
      4 0 # particle/antiparticle distinction (0=own anti)
###################################
## INFORMATION FOR QNUMBERS 9900016
###################################
BLOCK QNUMBERS 9900016 #   n3
      1 0 # 3 times electric charge
      2 2 # number of spin states (2s+1)
      3 1 # colour rep (1: singlet, 3: triplet, 8: octet)
      4 0 # particle/antiparticle distinction (0=own anti)
#
#*************************
#      Decay widths      *
#*************************
#
#      PDG        Width
DECAY  1   0.000000e+00
#
#      PDG        Width
DECAY  2   0.000000e+00
#
#      PDG        Width
DECAY  3   0.000000e+00
#
#      PDG        Width
DECAY  4   0.000000e+00
#
#      PDG        Width
DECAY  5   0.000000e+00
#
#      PDG        Width
DECAY  6   1.350000e+00
#
#      PDG        Width
DECAY  11   0.000000e+00
#
#      PDG        Width
DECAY  12   0.000000e+00
#
#      PDG        Width
DECAY  13   0.000000e+00
#
#      PDG        Width
DECAY  14   0.000000e+00
#
#      PDG        Width
DECAY  15   0.000000e+00
#
#      PDG        Width
DECAY  16   0.000000e+00
#
#      PDG        Width
DECAY  21   0.000000e+00
#
#      PDG        Width
DECAY  22   0.000000e+00
#
#      PDG        Width
DECAY  23   2.495200e+00
#
#      PDG        Width
DECAY  24   2.085000e+00
#
#      PDG        Width
DECAY  25   4.170000e-03
#
#      PDG        Width
DECAY  9900012   1.753366e-12
#  BR             NDA  ID1    ID2   ...
   1.249711e-01   3    -1  2  11 # 2.19120077723e-13
   1.234426e-01   3    -11  -2  1 # 2.16440057792e-13
   1.204826e-01   3    -11  -4  3 # 2.11250094432e-13
   1.203799e-01   3    -3  4  11 # 2.11070023743e-13
   4.411915e-02   3    -14  -11  13 # 7.73570175589e-14
   4.404843e-02   3    -13  11  14 # 7.72330195154e-14
   4.141977e-02   3    -16  -11  15 # 7.26240164458e-14
   4.127205e-02   3    -15  11  16 # 7.23650092203e-14
   2.595580e-02   3    -11  11  12 # 4.55100172228e-14
   2.570371e-02   3    -12  -11  11 # 4.50680111879e-14
   2.441191e-02   3    -3  3  12 # 4.28030129891e-14
   2.418206e-02   3    -1  1  12 # 4.2400001814e-14
   2.417294e-02   3    -12  -1  1 # 4.2384011116e-14
   2.401781e-02   3    -12  -3  3 # 4.21120114485e-14
   1.872627e-02   3    -12  -2  2 # 3.28340051248e-14
   1.853749e-02   3    -2  2  12 # 3.25030046913e-14
   1.761812e-02   3    -4  4  12 # 3.08910125919e-14
   1.751717e-02   3    -12  -4  4 # 3.07140102942e-14
   1.085398e-02   3    -14  12  14 # 1.90309994967e-14
   1.085398e-02   3    -16  12  16 # 1.90309994967e-14
   1.081007e-02   3    -14  -12  14 # 1.89540091956e-14
   1.081007e-02   3    -16  -12  16 # 1.89540091956e-14
   9.092228e-03   3    -5  5  12 # 1.59420034394e-14
   9.039758e-03   3    -12  -5  5 # 1.58500043254e-14
   6.751587e-03   3    -3  2  11 # 1.18380030918e-14
   6.744743e-03   3    -11  -2  3 # 1.18260030549e-14
   6.466991e-03   3    -11  -4  1 # 1.13390021417e-14
   6.458436e-03   3    -1  4  11 # 1.13240020956e-14
   5.493948e-03   3    -13  12  13 # 9.63290162897e-15
   5.436630e-03   3    -13  -12  13 # 9.53240219658e-15
   5.426022e-03   3    -12  12  12 # 9.51380249005e-15
   5.409368e-03   3    -12  -12  12 # 9.48460193269e-15
   4.706092e-03   3    -15  12  15 # 8.25150170567e-15
   4.667253e-03   3    -15  -12  15 # 8.1834027236e-15
#
#      PDG        Width
DECAY  9900014   1.500000e+00
#
#      PDG        Width
DECAY  9900016   1.230000e+01
</slha>
<MGGenerationInfo>
#  Number of Events        :       1000
#  Integrated weight (pb)  :       0.0295119
</MGGenerationInfo>
</header>
<init>
-11 11 4.559400e+01 4.559400e+01 0 0 247000 247000 -4 8
3.690000e-03 5.822000e-06 2.951190e-02 1
3.692300e-03 6.604800e-06 2.951190e-02 3
3.690900e-03 5.703900e-06 2.951190e-02 2
3.674100e-03 8.204500e-06 2.951190e-02 5
3.689000e-03 6.556600e-06 2.951190e-02 4
3.692200e-03 6.264700e-06 2.951190e-02 7
3.688800e-03 5.737200e-06 2.951190e-02 6
3.694600e-03 5.695700e-06 2.951190e-02 8
<generator name='MadGraph5_aMC@NLO' version='2.6.7'>please cite 1405.0301 </generator>
</init>
<event>
 5      3 +2.9511900e-02 9.11880000e+01 7.81616400e-03 1.18400000e-01
      -11 -1    0    0    0    0 +0.0000000000e+00 +0.0000000000e+00 +4.5593999997e+01 4.5594000000e+01 5.1100000000e-04 0.0000e+00 -1.0000e+00
       11 -1    0    0    0    0 -0.0000000000e+00 -0.0000000000e+00 -4.5593999997e+01 4.5594000000e+01 5.1100000000e-04 0.0000e+00 1.0000e+00
       23  2    1    2    0    0 +0.0000000000e+00 +0.0000000000e+00 +0.0000000000e+00 9.1188000000e+01 9.1188000000e+01 4.0499e-14 0.0000e+00
  9900012  1    3    3    0    0 -6.4777202264e-01 -3.2539806827e+01 -2.8711750851e+01 4.7787271044e+01 2.0000000000e+01 2.5990e-02 1.0000e+00
       12  1    3    3    0    0 +6.4777202264e-01 +3.2539806827e+01 +2.8711750851e+01 4.3400728956e+01 0.0000000000e+00 0.0000e+00 -1.0000e+00
</event>
<event>
 5      6 +2.9511900e-02 9.11880000e+01 7.81616400e-03 1.18400000e-01
      -11 -1    0    0    0    0 +0.0000000000e+00 +0.0000000000e+00 +4.5593999997e+01 4.5594000000e+01 5.1100000000e-04 0.0000e+00 -1.0000e+00
       11 -1    0    0    0    0 -0.0000000000e+00 -0.0000000000e+00 -4.5593999997e+01 4.5594000000e+01 5.1100000000e-04 0.0000e+00 1.0000e+00
       23  2    1    2    0    0 +0.0000000000e+00 +0.0000000000e+00 +0.0000000000e+00 9.1188000000e+01 9.1188000000e+01 4.6309e-14 0.0000e+00
  9900012  1    3    3    0    0 -2.6839119209e+01 -2.9797333954e+01 -1.6595295815e+01 4.7787271044e+01 2.0000000000e+01 8.6595e-02 -1.0000e+00
      -12  1    3    3    0    0 +2.6839119209e+01 +2.9797333954e+01 +1.6595295815e+01 4.3400728956e+01 0.0000000000e+00 0.0000e+00 1.0000e+00
</event>
<event>
 5      3 +2.9511900e-02 9.11880000e+01 7.81616400e-03 1.18400000e-01
      -11 -1    0    0    0    0 +0.0000000000e+00 +0.0000000000e+00 +4.5593999997e+01 4.5594000000e+01 5.1100000000e-04 0.0000e+00 1.0000e+00
       11 -1    0    0    0    0 -0.0000000000e+00 -0.0000000000e+00 -4.5593999997e+01 4.5594000000e+01 5.1100000000e-04 0.0000e+00 -1.0000e+00
       23  2    1    2    0    0 +0.0000000000e+00 +0.0000000000e+00 +0.0000000000e+00 9.1188000000e+01 9.1188000000e+01 7.6312e-14 0.0000e+00
  9900012  1    3    3    0    0 +1.5845918829e+01 -1.9645040791e+01 +3.5307258498e+01 4.7787271044e+01 2.0000000000e+01 5.6447e-02 1.0000e+00
       12  1    3    3    0    0 -1.5845918829e+01 +1.9645040791e+01 -3.5307258498e+01 4.3400728956e+01 0.0000000000e+00 0.0000e+00 -1.0000e+00
</event>
<event>
 5      8 +2.9511900e-02 9.11880000e+01 7.81616400e-03 1.18400000e-01
      -11 -1    0    0    0    0 +0.0000000000e+00 +0.0000000000e+00 +4.5593999997e+01 4.5594000000e+01 5.1100000000e-04 0.0000e+00 1.0000e+00
       11 -1    0    0    0    0 -0.0000000000e+00 -0.0000000000e+00 -4.5593999997e+01 4.5594000000e+01 5.1100000000e-04 0.0000e+00 -1.0000e+00
       23  2    1    2    0    0 +0.0000000000e+00 +0.0000000000e+00 +0.0000000000e+00 9.1188000000e+01 9.1188000000e+01 6.9540e-14 0.0000e+00
  9900012  1    3    3    0    0 +3.9401553974e+01 -1.7049449500e+01 +6.3605888148e+00 4.7787271044e+01 2.0000000000e+01 2.6799e-01 -1.0000e+00
      -12  1    3    3    0    0 -3.9401553974e+01 +1.7049449500e+01 -6.3605888148e+00 4.3400728956e+01 0.0000000000e+00 0.0000e+00 1.0000e+00
</event>
<event>
 5      1 +2.9511900e-02 9.11880000e+01 7.81616400e-03 1.18400000e-01
      -11 -1    0    0    0    0 +0.0000000000e+00 +0.0000000000e+00 +4.5593999997e+01 4.5594000000e+01 5.1100000000e-04 0.0000e+00 1.0000e+00
       11 -1    0    0    0    0 -0.0000000000e+00 -0.0000000000e+00 -4.5593999997e+01 4.5594000000e+01 5.1100000000e-04 0.0000e+00 -1.0000e+00
       23  2    1    2    0    0 +0.0000000000e+00 +0.0000000000e+00 +0.0000000000e+00 9.1188000000e+01 9.1188000000e+01 1.1659e-13 0.0000e+00
  9900012  1    3    3    0    0 -3.4362991078e+01 +1.2448111290e+01 +2.3406252228e+01 4.7787271044e+01 2.0000000000e+01 2.2642e-01 1.0000e+00
       12  1    3    3    0    0 +3.4362991078e+01 -1.2448111290e+01 -2.3406252228e+01 4.3400728956e+01 0.0000000000e+00 0.0000e+00 -1.0000e+00
</event>
<event>
 5      7 +2.9511900e-02 9.11880000e+01 7.81616400e-03 1.18400000e-01
      -11 -1    0    0    0    0 +0.0000000000e+00 +0.0000000000e+00 +4.5593999997e+01 4.5594000000e+01 5.1100000000e-04 0.0000e+00 -1.0000e+00
       11 -1    0    0    0    0 -0.0000000000e+00 -0.0000000000e+00 -4.5593999997e+01 4.5594000000e+01 5.1100000000e-04 0.0000e+00 1.0000e+00
       23  2    1    2    0    0 +0.0000000000e+00 +0.0000000000e+00 +0.0000000000e+00 9.1188000000e+01 9.1188000000e+01 1.3120e-13 0.0000e+00
  9900012  1    3    3    0    0 -2.3484363640e+01 -4.5072312441e+00 -3.6218680329e+01 4.7787271044e+01 2.0000000000e+01 9.9021e-03 1.0000e+00
       12  1    3    3    0    0 +2.3484363640e+01 +4.5072312441e+00 +3.6218680329e+01 4.3400728956e+01 0.0000000000e+00 0.0000e+00 -1.0000e+00
</event>
<event>
 5      8 +2.9511900e-02 9.11880000e+01 7.81616400e-03 1.18400000e-01
      -11 -1    0    0    0    0 +0.0000000000e+00 +0.0000000000e+00 +4.5593999997e+01 4.5594000000e+01 5.1100000000e-04 0.0000e+00 1.0000e+00
       11 -1    0    0    0    0 -0.0000000000e+00 -0.0000000000e+00 -4.5593999997e+01 4.5594000000e+01 5.1100000000e-04 0.0000e+00 -1.0000e+00
       23  2    1    2    0    0 +0.0000000000e+00 +0.0000000000e+00 +0.0000000000e+00 9.1188000000e+01 9.1188000000e+01 1.6317e-13 0.0000e+00
  9900012  1    3    3    0    0 -1.7194007662e+01 +3.0757951420e+01 -2.5336491447e+01 4.7787271044e+01 2.0000000000e+01 1.0260e-01 -1.0000e+00
      -12  1    3    3    0    0 +1.7194007662e+01 -3.0757951420e+01 +2.5336491447e+01 4.3400728956e+01 0.0000000000e+00 0.0000e+00 1.0000e+00
</event>
<event>
 5      6 +2.9511900e-02 9.11880000e+01 7.81616400e-03 1.18400000e-01
      -11 -1    0    0    0    0 +0.0000000000e+00 +0.0000000000e+00 +4.5593999997e+01 4.5594000000e+01 5.1100000000e-04 0.0000e+00 -1.0000e+00
       11 -1    0    0    0    0 -0.0000000000e+00 -0.0000000000e+00 -4.5593999997e+01 4.5594000000e+01 5.1100000000e-04 0.0000e+00 1.0000e+00
       23  2    1    2    0    0 +0.0000000000e+00 +0.0000000000e+00 +0.0000000000e+00 9.1188000000e+01 9.1188000000e+01 7.2405e-14 0.0000e+00
  9900012  1    3    3    0    0 +3.5079182422e+01 +2.0964634729e+01 +1.4613634907e+01 4.7787271044e+01 2.0000000000e+01 1.5115e-01 -1.0000e+00
      -12  1    3    3    0    0 -3.5079182422e+01 -2.0964634729e+01 -1.4613634907e+01 4.3400728956e+01 0.0000000000e+00 0.0000e+00 1.0000e+00
</event>
<event>
 5      1 +2.9511900e-02 9.11880000e+01 7.81616400e-03 1.18400000e-01
      -11 -1    0    0    0    0 +0.0000000000e+00 +0.0000000000e+00 +4.5593999997e+01 4.5594000000e+01 5.1100000000e-04 0.0000e+00 -1.0000e+00
       11 -1    0    0    0    0 -0.0000000000e+00 -0.0000000000e+00 -4.5593999997e+01 4.5594000000e+01 5.1100000000e-04 0.0000e+00 1.0000e+00
       23  2    1    2    0    0 +0.0000000000e+00 +0.0000000000e+00 +0.0000000000e+00 9.1188000000e+01 9.1188000000e+01 1.4017e-14 0.0000e+00
  9900012  1    3    3    0    0 -4.1673549599e+01 -1.1982660816e+01 -1.8314959686e+00 4.7787271044e+01 2.0000000000e+01 8.0134e-03 1.0000e+00
       12  1    3    3    0    0 +4.1673549599e+01 +1.1982660816e+01 +1.8314959686e+00 4.3400728956e+01 0.0000000000e+00 0.0000e+00 -1.0000e+00
</event>
<event>
 5      7 +2.9511900e-02 9.11880000e+01 7.81616400e-03 1.18400000e-01
      -11 -1    0    0    0    0 +0.0000000000e+00 +0.0000000000e+00 +4.5593999997e+01 4.5594000000e+01 5.1100000000e-04 0.0000e+00 -1.0000e+00
       11 -1    0    0    0    0 -0.0000000000e+00 -0.0000000000e+00 -4.5593999997e+01 4.5594000000e+01 5.1100000000e-04 0.0000e+00 1.0000e+00
       23  2    1    2    0    0 +0.0000000000e+00 +0.0000000000e+00 +0.0000000000e+00 9.1188000000e+01 9.1188000000e+01 5.4152e-14 0.0000e+00
  9900012  1    3    3    0    0 +2.2340932424e+01 -2.2222134910e+01 -2.9844308206e+01 4.7787271044e+01 2.0000000000e+01 6.5138e-04 1.0000e+00
       12  1    3    3    0    0 -2.2340932424e+01 +2.2222134910e+01 +2.9844308206e+01 4.3400728956e+01 0.0000000000e+00 0.0000e+00 -1.0000e+00
</event>
<event>
 5      7 +2.9511900e-02 9.11880000e+01 7.81616400e-03 1.18400000e-01
      -11 -1    0    0    0    0 +0.0000000000e+00 +0.0000000000e+00 +4.5593999997e+01 4.5594000000e+01 5.1100000000e-04 0.0000e+00 -1.0000e+00
       11 -1    0    0    0    0 -0.0000000000e+00 -0.0000000000e+00 -4.5593999997e+01 4.5594000000e+01 5.1100000000e-04 0.0000e+00 1.0000e+00
       23  2    1    2    0    0 +0.0000000000e+00 +0.0000000000e+00 +0.0000000000e+00 9.1188000000e+01 9.1188000000e+01 1.9521e-14 0.0000e+00
  9900012  1    3    3    0    0 +1.8208690849e+00 +1.3193367398e+01 -4.1306691544e+01 4.7787271044e+01 2.0000000000e+01 2.7271e-01 1.0000e+00
       12  1    3    3    0    0 -1.8208690849e+00 -1.3193367398e+01 +4.1306691544e+01 4.3400728956e+01 0.0000000000e+00 0.0000e+00 -1.0000e+00
</event>
<event>
 5      6 +2.9511900e-02 9.11880000e+01 7.81616400e-03 1.18400000e-01
      -11 -1    0    0    0    0 +0.0000000000e+00 +0.0000000000e+00 +4.5593999997e+01 4.5594000000e+01 5.1100000000e-04 0.0000e+00 -1.0000e+00
       11 -1    0    0    0    0 -0.0000000000e+00 -0.0000000000e+00 -4.5593999997e+01 4.5594000000e+01 5.1100000000e-04 0.0000e+00 1.0000e+00
       23  2    1    2    0    0 +0.0000000000e+00 +0.0000000000e+00 +0.0000000000e+00 9.1188000000e+01 9.1188000000e+01 3.3850e-14 0.0000e+00
  9900012  1    3    3    0    0 -1.1781632962e+01 +4.3381336564e+00 +4.1545119990e+01 4.7787271044e+01 2.0000000000e+01 3.2825e-01 -1.0000e+00
      -12  1    3    3    0    0 +1.1781632962e+01 -4.3381336564e+00 -4.1545119990e+01 4.3400728956e+01 0.0000000000e+00 0.0000e+00 1.0000e+00
</event>
<event>
 5      8 +2.9511900e-02 9.11880000e+01 7.81616400e-03 1.18400000e-01
      -11 -1    0    0    0    0 +0.0000000000e+00 +0.0000000000e+00 +4.5593999997e+01 4.5594000000e+01 5.1100000000e-04 0.0000e+00 1.0000e+00
       11 -1    0    0    0    0 -0.0000000000e+00 -0.0000000000e+00 -4.5593999997e+01 4.5594000000e+01 5.1100000000e-04 0.0000e+00 -1.0000e+00
       23  2    1    2    0    0 +0.0000000000e+00 +0.0000000000e+00 +0.0000000000e+00 9.1188000000e+01 9.1188000000e+01 1.2954e-13 0.0000e+00
  9900012  1    3    3    0    0 +3.6617899262e+01 +2.3134078715e+01 -2.7508416075e+00 4.7787271044e+01 2.0000000000e+01 6.3958e-02 -1.0000e+00
      -12  1    3    3    0    0 -3.6617899262e+01 -2.3134078715e+01 +2.7508416075e+00 4.3400728956e+01 0.0000000000e+00 0.0000e+00 1.0000e+00
</event>
<event>
 5      4 +2.9511900e-02 9.11880000e+01 7.81616400e-03 1.18400000e-01
      -11 -1    0    0    0    0 +0.0000000000e+00 +0.0000000000e+00 +4.5593999997e+01 4.5594000000e+01 5.1100000000e-04 0.0000e+00 -1.0000e+00
       11 -1    0    0    0    0 -0.0000000000e+00 -0.0000000000e+00 -4.5593999997e+01 4.5594000000e+01 5.1100000000e-04 0.0000e+00 1.0000e+00
       23  2    1    2    0    0 +0.0000000000e+00 +0.0000000000e+00 +0.0000000000e+00 9.1188000000e+01 9.1188000000e+01 3.4354e-16 0.0000e+00
  9900012  1    3    3    0    0 -9.8740197131e+00 -3.3079677153e+01 +2.6303269151e+01 4.7787271044e+01 2.0000000000e+01 4.9363e-02 -1.0000e+00
      -12  1    3    3    0    0 +9.8740197131e+00 +3.3079677153e+01 -2.6303269151e+01 4.3400728956e+01 0.0000000000e+00 0.0000e+00 1.0000e+00
</event>
<event>
 5      7 +2.9511900e-02 9.11880000e+01 7.81616400e-03 1.18400000e-01
      -11 -1    0    0    0    0 +0.0000000000e+00 +0.0000000000e+00 +4.5593999997e+01 4.5594000000e+01 5.1100000000e-04 0.0000e+00 1.0000e+00
       11 -1    0    0    0    0 -0.0000000000e+00 -0.0000000000e+00 -4.5593999997e+01 4.5594000000e+01 5.1100000000e-04 0.0000e+00 -1.0000e+00
       23  2    1    2    0    0 +0.0000000000e+00 +0.0000000000e+00 +0.0000000000e+00 9.1188000000e+01 9.1188000000e+01 2.0024e-13 0.0000e+00
  9900012  1    3    3    0    0 +1.8008084671e+01 -5.0488736570e+00 +3.9164282646e+01 4.7787271044e+01 2.0000000000e+01 1.7044e-01 1.0000e+00
       12  1    3    3    0    0 -1.8008084671e+01 +5.0488736570e+00 -3.9164282646e+01 4.3400728956e+01 0.0000000000e+00 0.0000e+00 -1.0000e+00
</event>
<event>
 5      2 +2.9511900e-02 9.11880000e+01 7.81616400e-03 1.18400000e-01
      -11 -1    0    0    0    0 +0.0000000000e+00 +0.0000000000e+00 +4.5593999997e+01 4.5594000000e+01 5.1100000000e-04 0.0000e+00 1.0000e+00
       11 -1    0    0    0    0 -0.0000000000e+00 -0.0000000000e+00 -4.5593999997e+01 4.5594000000e+01 5.1100000000e-04 0.0000e+00 -1.0000e+00
       23  2    1    2    0    0 +0.0000000000e+00 +0.0000000000e+00 +0.0000000000e+00 9.1188000000e+01 9.1188000000e+01 2.7596e-13 0.0000e+00
  9900012  1    3    3    0    0 -2.7956896485e+01 -3.3189755115e+01 +6.8946951039e-01 4.7787271044e+01 2.0000000000e+01 4.2199e-02 -1.0000e+00
      -12  1    3    3    0    0 +2.7956896485e+01 +3.3189755115e+01 -6.8946951039e-01 4.3400728956e+01 0.0000000000e+00 0.0000e+00 1.0000e+00
</event>
<event>
 5      2 +2.9511900e-02 9.11880000e+01 7.81616400e-03 1.18400000e-01
      -11 -1    0    0    0    0 +0.0000000000e+00 +0.0000000000e+00 +4.5593999997e+01 4.5594000000e+01 5.1100000000e-04 0.0000e+00 1.0000e+00
       11 -1    0    0    0    0 -0.0000000000e+00 -0.0000000000e+00 -4.5593999997e+01 4.5594000000e+01 5.1100000000e-04 0.0000e+00 -1.0000e+00
       23  2    1    2    0    0 +0.0000000000e+00 +0.0000000000e+00 +0.0000000000e+00 9.1188000000e+01 9.1188000000e+01 6.7984e-14 0.0000e+00
  9900012  1    3    3    0    0 -1.8083456336e+00 -1.3242642396e+01 -4.1291471060e+01 4.7787271044e+01 2.0000000000e+01 2.2489e-01 -1.0000e+00
      -12  1    3    3    0    0 +1.8083456336e+00 +1.3242642396e+01 +4.1291471060e+01 4.3400728956e+01 0.0000000000e+00 0.0000e+00 1.0000e+00
</event>
<event>
 5      7 +2.9511900e-02 9.11880000e+01 7.81616400e-03 1.18400000e-01
      -11 -1    0    0    0    0 +0.0000000000e+00 +0.0000000000e+00 +4.5593999997e+01 4.5594000000e+01 5.1100000000e-04 0.0000e+00 1.0000e+00
       11 -1    0    0    0    0 -0.0000000000e+00 -0.0000000000e+00 -4.5593999997e+01 4.5594000000e+01 5.1100000000e-04 0.0000e+00 -1.0000e+00
       23  2    1    2    0    0 +0.0000000000e+00 +0.0000000000e+00 +0.0000000000e+00 9.1188000000e+01 9.1188000000e+01 1.6638e-14 0.0000e+00
  9900012  1    3    3    0    0 +3.8320538582e+01 -1.4151875631e+01 +1.4658922634e+01 4.7787271044e+01 2.0000000000e+01 6.8105e-02 1.0000e+00
       12  1    3    3    0    0 -3.8320538582e+01 +1.4151875631e+01 -1.4658922634e+01 4.3400728956e+01 0.0000000000e+00 0.0000e+00 -1.0000e+00
</event>
<event>
 5      6 +2.9511900e-02 9.11880000e+01 7.81616400e-03 1.18400000e-01
      -11 -1    0    0    0    0 +0.0000000000e+00 +0.0000000000e+00 +4.5593999997e+01 4.5594000000e+01 5.1100000000e-04 0.0000e+00 -1.0000e+00
       11 -1    0    0    0    0 -0.0000000000e+00 -0.0000000000e+00 -4.5593999997e+01 4.5594000000e+01 5.1100000000e-04 0.0000e+00 1.0000e+00
       23  2    1    2    0    0 +0.0000000000e+00 +0.0000000000e+00 +0.0000000000e+00 9.1188000000e+01 9.1188000000e+01 3.7284e-15 0.0000e+00
  9900012  1    3    3    0    0 +1.9035187461e+01 +2.0393082602e+01 +3.3247662988e+01 4.7787271044e+01 2.0000000000e+01 7.4032e-02 -1.0000e+00
      -12  1    3    3    0    0 -1.9035187461e+01 -2.0393082602e+01 -3.3247662988e+01 4.3400728956e+01 0.0000000000e+00 0.0000e+00 1.0000e+00
</event>
<event>
 5      5 +2.9511900e-02 9.11880000e+01 7.81616400e-03 1.18400000e-01
      -11 -1    0    0    0    0 +0.0000000000e+00 +0.0000000000e+00 +4.5593999997e+01 4.5594000000e+01 5.1100000000e-04 0.0000e+00 -1.0000e+00
       11 -1    0    0    0    0 -0.0000000000e+00 -0.0000000000e+00 -4.5593999997e+01 4.5594000000e+01 5.1100000000e-04 0.0000e+00 1.0000e+00
       23  2    1    2    0    0 +0.0000000000e+00 +0.0000000000e+00 +0.0000000000e+00 9.1188000000e+01 9.1188000000e+01 1.0242e-14 0.0000e+00
  9900012  1    3    3    0    0 +7.2787686070e+00 +1.1024251693e+01 -4.1341367612e+01 4.7787271044e+01 2.0000000000e+01 3.3613e-01 1.0000e+00
       12  1    3    3    0    0 -7.2787686070e+00 -1.1024251693e+01 +4.1341367612e+01 4.3400728956e+01 0.0000000000e+00 0.0000e+00 -1.0000e+00
</event>
<event>
 5      6 +2.9511900e-02 9.11880000e+01 7.81616400e-03 1.18400000e-01
      -11 -1    0    0    0    0 +0.0000000000e+00 +0.0000000000e+00 +4.5593999997e+01 4.5594000000e+01 5.1100000000e-04 0.0000e+00 1.0000e+00
       11 -1    0    0    0    0 -0.0000000000e+00 -0.0000000000e+00 -4.5593999997e+01 4.5594000000e+01 5.1100000000e-04 0.0000e+00 -1.0000e+00
       23  2    1    2    0    0 +0.0000000000e+00 +0.0000000000e+00 +0.0000000000e+00 9.1188000000e+01 9.1188000000e+01 1.6270e-14 0.0000e+00
  9900012  1    3    3    0    0 -3.5870601848e+01 -1.5975599654e+01 -1.8485221465e+01 4.7787271044e+01 2.0000000000e+01 2.8930e-01 -1.0000e+00
      -12  1    3    3    0    0 +3.5870601848e+01 +1.5975599654e+01 +1.8485221465e+01 4.3400728956e+01 0.0000000000e+00 0.0000e+00 1.0000e+00
</event>
<event>
 5      7 +2.9511900e-02 9.11880000e+01 7.81616400e-03 1.18400000e-01
      -11 -1    0    0    0    0 +0.0000000000e+00 +0.0000000000e+00 +4.5593999997e+01 4.5594000000e+01 5.1100000000e-04 0.0000e+00 1.0000e+00
       11 -1    0    0    0    0 -0.0000000000e+00 -0.0000000000e+00 -4.5593999997e+01 4.5594000000e+01 5.1100000000e-04 0.0000e+00 -1.0000e+00
       23  2    1    2    0    0 +0.0000000000e+00 +0.0000000000e+00 +0.0000000000e+00 9.1188000000e+01 9.1188000000e+01 9.9923e-14 0.0000e+00
  9900012  1    3    3    0    0 -4.3346149751e+00 -3.4641155144e+01 +2.5784195880e+01 4.7787271044e+01 2.0000000000e+01 3.4157e-02 -1.0000e+00
       12  1    3    3    0    0 +4.3346149751e+00 +3.4641155144e+01 -2.5784195880e+01 4.3400728956e+01 0.0000000000e+00 0.0000e+00 -1.0000e+00
</event>
<event>
 5      5 +2.9511900e-02 9.11880000e+01 7.81616400e-03 1.18400000e-01
      -11 -1    0    0    0    0 +0.0000000000e+00 +0.0000000000e+00 +4.5593999997e+01 4.5594000000e+01 5.1100000000e-04 0.0000e+00 1.0000e+00
       11 -1    0    0    0    0 -0.0000000000e+00 -0.0000000000e+00 -4.5593999997e+01 4.5594000000e+01 5.1100000000e-04 0.0000e+00 -1.0000e+00
       23  2    1    2    0    0 +0.0000000000e+00 +0.0000000000e+00 +0.0000000000e+00 9.1188000000e+01 9.1188000000e+01 2.3737e-14 0.0000e+00
  9900012  1    3    3    0    0 +4.9319440698e+00 -3.5424645746e+01 -2.4584419362e+01 4.7787271044e+01 2.0000000000e+01 5.5540e-03 1.0000e+00
       12  1    3    3    0    0 -4.9319440698e+00 +3.5424645746e+01 +2.4584419362e+01 4.3400728956e+01 0.0000000000e+00 0.0000e+00 -1.0000e+00
</event>
<event>
 5      8 +2.9511900e-02 9.11880000e+01 7.81616400e-03 1.18400000e-01
      -11 -1    0    0    0    0 +0.0000000000e+00 +0.0000000000e+00 +4.5593999997e+01 4.5594000000e+01 5.1100000000e-04 0.0000e+00 -1.0000e+00
       11 -1    0    0    0    0 -0.0000000000e+00 -0.0000000000e+00 -4.5593999997e+01 4.5594000000e+01 5.1100000000e-04 0.0000e+00 1.0000e+00
       23  2    1    2    0    0 +0.0000000000e+00 +0.0000000000e+00 +0.0000000000e+00 9.1188000000e+01 9.1188000000e+01 1.8508e-14 0.0000e+00
  9900012  1    3    3    0    0 +3.0490182596e+01 -1.3859513492e+01 +2.7602281154e+01 4.7787271044e+01 2.0000000000e+01 3.4455e-02 -1.0000e+00
      -12  1    3    3    0    0 -3.0490182596e+01 +1.3859513492e+01 -2.7602281154e+01 4.3400728956e+01 0.0000000000e+00 0.0000e+00 1.0000e+00
</event>
<event>
 5      4 +2.9511900e-02 9.11880000e+01 7.81616400e-03 1.18400000e-01
      -11 -1    0    0    0    0 +0.0000000000e+00 +0.0000000000e+00 +4.5593999997e+01 4.5594000000e+01 5.1100000000e-04 0.0000e+00 -1.0000e+00
       11 -1    0    0    0    0 -0.0000000000e+00 -0.0000000000e+00 -4.5593999997e+01 4.5594000000e+01 5.1100000000e-04 0.0000e+00 1.0000e+00
       23  2    1    2    0    0 +0.0000000000e+00 +0.0000000000e+00 +0.0000000000e+00 9.1188000000e+01 9.1188000000e+01 6.3646e-14 0.0000e+00
  9900012  1    3    3    0    0 -3.6158962548e+01 -2.3502504464e+01 -4.8769852599e+00 4.7787271044e+01 2.0000000000e+01 3.4398e-02 -1.0000e+00
      -12  1    3    3    0    0 +3.6158962548e+01 +2.3502504464e+01 +4.8769852599e+00 4.3400728956e+01 0.0000000000e+00 0.0000e+00 1.0000e+00
</event>
<event>
 5      8 +2.9511900e-02 9.11880000e+01 7.81616400e-03 1.18400000e-01
      -11 -1    0    0    0    0 +0.0000000000e+00 +0.0000000000e+00 +4.5593999997e+01 4.5594000000e+01 5.1100000000e-04 0.0000e+00 1.0000e+00
       11 -1    0    0    0    0 -0.0000000000e+00 -0.0000000000e+00 -4.5593999997e+01 4.5594000000e+01 5.1100000000e-04 0.0000e+00 -1.0000e+00
       23  2    1    2    0    0 +0.0000000000e+00 +0.0000000000e+00 +0.0000000000e+00 9.1188000000e+01 9.1188000000e+01 3.2170e-14 0.0000e+00
  9900012  1    3    3    0    0 +1.8196902711e+01 -2.7208913300e+01 -2.8498614749e+01 4.7787271044e+01 2.0000000000e+01 4.0583e-02 -1.0000e+00
      -12  1    3    3    0    0 -1.8196902711e+01 +2.7208913300e+01 +2.8498614749e+01 4.3400728956e+01 0.0000000000e+00 0.0000e+00 1.0000e+00
</event>
<event>
 5      3 +2.9511900e-02 9.11880000e+01 7.81616400e-03 1.18400000e-01
      -11 -1    0    0    0    0 +0.0000000000e+00 +0.0000000000e+00 +4.5593999997e+01 4.5594000000e+01 5.1100000000e-04 0.0000e+00 1.0000e+00
       11 -1    0    0    0    0 -0.0000000000e+00 -0.0000000000e+00 -4.5593999997e+01 4.5594000000e+01 5.1100000000e-04 0.0000e+00 -1.0000e+00
       23  2    1    2    0    0 +0.0000000000e+00 +0.0000000000e+00 +0.0000000000e+00 9.1188000000e+01 9.1188000000e+01 3.3022e-14 0.0000e+00
  9900012  1    3    3    0    0 -1.6803806275e+00 -6.6571862373e+00 +4.2854188433e+01 4.7787271044e+01 2.0000000000e+01 2.7418e-02 1.0000e+00
       12  1    3    3    0    0 +1.6803806275e+00 +6.6571862373e+00 -4.2854188433e+01 4.3400728956e+01 0.0000000000e+00 0.0000e+00 -1.0000e+00
</event>
<event>
 5      6 +2.9511900e-02 9.11880000e+01 7.81616400e-03 1.18400000e-01
      -11 -1    0    0    0    0 +0.0000000000e+00 +0.0000000000e+00 +4.5593999997e+01 4.5594000000e+01 5.1100000000e-04 0.0000e+00 1.0000e+00
       11 -1    0    0    0    0 -0.0000000000e+00 -0.0000000000e+00 -4.5593999997e+01 4.5594000000e+01 5.1100000000e-04 0.0000e+00 -1.0000e+00
       23  2    1    2    0    0 +0.0000000000e+00 +0.0000000000e+00 +0.0000000000e+00 9.1188000000e+01 9.1188000000e+01 2.8857e-14 0.0000e+00
  9900012  1    3    3    0    0 -4.3255475179e+01 -1.4759044709e-01 -3.5447648675e+00 4.7787271044e+01 2.0000000000e+01 1.6292e-01 -1.0000e+00
      -12  1    3    3    0    0 +4.3255475179e+01 +1.4759044709e-01 +3.5447648675e+00 4.3400728956e+01 0.0000000000e+00 0.0000e+00 1.0000e+00
</event>
<event>
 5      7 +2.9511900e-02 9.11880000e+01 7.81616400e-03 1.18400000e-01
      -11 -1    0    0    0    0 +0.0000000000e+00 +0.0000000000e+00 +4.5593999997e+01 4.5594000000e+01 5.1100000000e-04 0.0000e+00 1.0000e+00
       11 -1    0    0    0    0 -0.0000000000e+00 -0.0000000000e+00 -4.5593999997e+01 4.5594000000e+01 5.1100000000e-04 0.0000e+00 -1.0000e+00
       23  2    1    2    0    0 +0.0000000000e+00 +0.0000000000e+00 +0.0000000000e+00 9.1188000000e+01 9.1188000000e+01 2.6402e-14 0.0000e+00
  9900012  1    3    3    0    0 +8.0861889870e+00 -4.0718360350e+01 +1.2659065997e+01 4.7787271044e+01 2.0000000000e+01 4.6313e-02 1.0000e+00
       12  1    3    3    0    0 -8.0861889870e+00 +4.0718360350e+01 -1.2659065997e+01 4.3400728956e+01 0.0000000000e+00 0.0000e+00 -1.0000e+00
</event>
<event>
 5      4 +2.9511900e-02 9.11880000e+01 7.81616400e-03 1.18400000e-01
      -11 -1    0    0    0    0 +0.0000000000e+00 +0.0000000000e+00 +4.5593999997e+01 4.5594000000e+01 5.1100000000e-04 0.0000e+00 -1.0000e+00
       11 -1    0    0    0    0 -0.0000000000e+00 -0.0000000000e+00 -4.5593999997e+01 4.5594000000e+01 5.1100000000e-04 0.0000e+00 1.0000e+00
       23  2    1    2    0    0 +0.0000000000e+00 +0.0000000000e+00 +0.0000000000e+00 9.1188000000e+01 9.1188000000e+01 8.0149e-14 0.0000e+00
  9900012  1    3    3    0    0 -1.5158324765e+01 -3.8110078160e+01 +1.4194027152e+01 4.7787271044e+01 2.0000000000e+01 3.3990e-02 -1.0000e+00
      -12  1    3    3    0    0 +1.5158324765e+01 +3.8110078160e+01 -1.4194027152e+01 4.3400728956e+01 0.0000000000e+00 0.0000e+00 1.0000e+00
</event>
<event>
 5      2 +2.9511900e-02 9.11880000e+01 7.81616400e-03 1.18400000e-01
      -11 -1    0    0    0    0 +0.0000000000e+00 +0.0000000000e+00 +4.5593999997e+01 4.5594000000e+01 5.1100000000e-04 0.0000e+00 1.0000e+00
       11 -1    0    0    0    0 -0.0000000000e+00 -0.0000000000e+00 -4.5593999997e+01 4.5594000000e+01 5.1100000000e-04 0.0000e+00 -1.0000e+00
       23  2    1    2    0    0 +0.0000000000e+00 +0.0000000000e+00 +0.0000000000e+00 9.1188000000e+01 9.1188000000e+01 9.4050e-14 0.0000e+00
  9900012  1    3    3    0    0 +2.2277967466e+01 +9.9001181433e+00 -3.5906867034e+01 4.7787271044e+01 2.0000000000e+01 1.0786e-01 -1.0000e+00
      -12  1    3    3    0    0 -2.2277967466e+01 -9.9001181433e+00 +3.5906867034e+01 4.3400728956e+01 0.0000000000e+00 0.0000e+00 1.0000e+00
</event>
<event>
 5      4 +2.9511900e-02 9.11880000e+01 7.81616400e-03 1.18400000e-01
      -11 -1    0    0    0    0 +0.0000000000e+00 +0.0000000000e+00 +4.5593999997e+01 4.5594000000e+01 5.1100000000e-04 0.0000e+00 1.0000e+00
       11 -1    0    0    0    0 -0.0000000000e+00 -0.0000000000e+00 -4.5593999997e+01 4.5594000000e+01 5.1100000000e-04 0.0000e+00 -1.0000e+00
       23  2    1    2    0    0 +0.0000000000e+00 +0.0000000000e+00 +0.0000000000e+00 9.1188000000e+01 9.1188000000e+01 2.5815e-13 0.0000e+00
  9900012  1    3    3    0    0 -6.4189915036e+00 -1.3888489071e+01 -4.0614402535e+01 4.7787271044e+01 2.0000000000e+01 1.9872e-01 -1.0000e+00
      -12  1    3    3    0    0 +6.4189915036e+00 +1.3888489071e+01 +4.0614402535e+01 4.3400728956e+01 0.0000000000e+00 0.0000e+00 1.0000e+00
</event>
<event>
 5      5 +2.9511900e-02 9.11880000e+01 7.81616400e-03 1.18400000e-01
      -11 -1    0    0    0    0 +0.0000000000e+00 +0.0000000000e+00 +4.5593999997e+01 4.5594000000e+01 5.1100000000e-04 0.0000e+00 -1.0000e+00
       11 -1    0    0    0    0 -0.0000000000e+00 -0.0000000000e+00 -4.5593999997e+01 4.5594000000e+01 5.1100000000e-04 0.0000e+00 1.0000e+00
       23  2    1    2    0    0 +0.0000000000e+00 +0.0000000000e+00 +0.0000000000e+00 9.1188000000e+01 9.1188000000e+01 5.1644e-15 0.0000e+00
  9900012  1    3    3    0    0 -2.2537389121e+01 -2.4208764895e+01 -2.8100268108e+01 4.7787271044e+01 2.0000000000e+01 4.9666e-02 1.0000e+00
       12  1    3    3    0    0 +2.2537389121e+01 +2.4208764895e+01 +2.8100268108e+01 4.3400728956e+01 0.0000000000e+00 0.0000e+00 -1.0000e+00
</event>
<event>
 5      4 +2.9511900e-02 9.11880000e+01 7.81616400e-03 1.18400000e-01
      -11 -1    0    0    0    0 +0.0000000000e+00 +0.0000000000e+00 +4.5593999997e+01 4.5594000000e+01 5.1100000000e-04 0.0000e+00 -1.0000e+00
       11 -1    0    0    0    0 -0.0000000000e+00 -0.0000000000e+00 -4.5593999997e+01 4.5594000000e+01 5.1100000000e-04 0.0000e+00 1.0000e+00
       23  2    1    2    0    0 +0.0000000000e+00 +0.0000000000e+00 +0.0000000000e+00 9.1188000000e+01 9.1188000000e+01 1.6354e-13 0.0000e+00
  9900012  1    3    3    0    0 +1.3270620004e+01 +3.8844332311e+00 +4.1139094509e+01 4.7787271044e+01 2.0000000000e+01 8.2866e-03 -1.0000e+00
      -12  1    3    3    0    0 -1.3270620004e+01 -3.8844332311e+00 -4.1139094509e+01 4.3400728956e+01 0.0000000000e+00 0.0000e+00 1.0000e+00
</event>
<event>
 5      4 +2.9511900e-02 9.11880000e+01 7.81616400e-03 1.18400000e-01
      -11 -1    0    0    0    0 +0.0000000000e+00 +0.0000000000e+00 +4.5593999997e+01 4.5594000000e+01 5.1100000000e-04 0.0000e+00 1.0000e+00
       11 -1    0    0    0    0 -0.0000000000e+00 -0.0000000000e+00 -4.5593999997e+01 4.5594000000e+01 5.1100000000e-04 0.0000e+00 -1.0000e+00
       23  2    1    2    0    0 +0.0000000000e+00 +0.0000000000e+00 +0.0000000000e+00 9.1188000000e+01 9.1188000000e+01 2.9134e-15 0.0000e+00
  9900012  1    3    3    0    0 +3.5187268245e+01 +8.3125343865e+00 -2.4007940341e+01 4.7787271044e+01 2.0000000000e+01 2.4747e-03 -1.0000e+00
      -12  1    3    3    0    0 -3.5187268245e+01 -8.3125343865e+00 +2.4007940341e+01 4.3400728956e+01 0.0000000000e+00 0.0000e+00 1.0000e+00
</event>
<event>
 5      6 +2.9511900e-02 9.11880000e+01 7.81616400e-03 1.18400000e-01
      -11 -1    0    0    0    0 +0.0000000000e+00 +0.0000000000e+00 +4.5593999997e+01 4.5594000000e+01 5.1100000000e-04 0.0000e+00 1.0000e+00
       11 -1    0    0    0    0 -0.0000000000e+00 -0.0000000000e+00 -4.5593999997e+01 4.5594000000e+01 5.1100000000e-04 0.0000e+00 -1.0000e+00
       23  2    1    2    0    0 +0.0000000000e+00 +0.0000000000e+00 +0.0000000000e+00 9.1188000000e+01 9.1188000000e+01 6.6536e-14 0.0000e+00
  9900012  1    3    3    0    0 +2.1223627587e+01 -7.4127367314e-02 -3.7857303272e+01 4.7787271044e+01 2.0000000000e+01 1.2534e-02 -1.0000e+00
      -12  1    3    3    0    0 -2.1223627587e+01 +7.4127367314e-02 +3.7857303272e+01 4.3400728956e+01 0.0000000000e+00 0.0000e+00 1.0000e+00
</event>
<event>
 5      3 +2.9511900e-02 9.11880000e+01 7.81616400e-03 1.18400000e-01
      -11 -1    0    0    0    0 +0.0000000000e+00 +0.0000000000e+00 +4.5593999997e+01 4.5594000000e+01 5.1100000000e-04 0.0000e+00 1.0000e+00
       11 -1    0    0    0    0 -0.0000000000e+00 -0.0000000000e+00 -4.5593999997e+01 4.5594000000e+01 5.1100000000e-04 0.0000e+00 -1.0000e+00
       23  2    1    2    0    0 +0.0000000000e+00 +0.0000000000e+00 +0.0000000000e+00 9.1188000000e+01 9.1188000000e+01 6.2102e-14 0.0000e+00
  9900012  1    3    3    0    0 -2.8482355102e+01 +2.5017052639e+01 +2.1131157067e+01 4.7787271044e+01 2.0000000000e+01 1.1448e-01 1.0000e+00
       12  1    3    3    0    0 +2.8482355102e+01 -2.5017052639e+01 -2.1131157067e+01 4.3400728956e+01 0.0000000000e+00 0.0000e+00 -1.0000e+00
</event>
<event>
 5      6 +2.9511900e-02 9.11880000e+01 7.81616400e-03 1.18400000e-01
      -11 -1    0    0    0    0 +0.0000000000e+00 +0.0000000000e+00 +4.5593999997e+01 4.5594000000e+01 5.1100000000e-04 0.0000e+00 -1.0000e+00
       11 -1    0    0    0    0 -0.0000000000e+00 -0.0000000000e+00 -4.5593999997e+01 4.5594000000e+01 5.1100000000e-04 0.0000e+00 1.0000e+00
       23  2    1    2    0    0 +0.0000000000e+00 +0.0000000000e+00 +0.0000000000e+00 9.1188000000e+01 9.1188000000e+01 2.6174e-15 0.0000e+00
  9900012  1    3    3    0    0 +2.1408528541e+01 -3.2053540153e+01 +1.9946647419e+01 4.7787271044e+01 2.0000000000e+01 6.0736e-01 -1.0000e+00
      -12  1    3    3    0    0 -2.1408528541e+01 +3.2053540153e+01 -1.9946647419e+01 4.3400728956e+01 0.0000000000e+00 0.0000e+00 1.0000e+00
</event>
<event>
 5      5 +2.9511900e-02 9.11880000e+01 7.81616400e-03 1.18400000e-01
      -11 -1    0    0    0    0 +0.0000000000e+00 +0.0000000000e+00 +4.5593999997e+01 4.5594000000e+01 5.1100000000e-04 0.0000e+00 -1.0000e+00
       11 -1    0    0    0    0 -0.0000000000e+00 -0.0000000000e+00 -4.5593999997e+01 4.5594000000e+01 5.1100000000e-04 0.0000e+00 1.0000e+00
       23  2    1    2    0    0 +0.0000000000e+00 +0.0000000000e+00 +0.0000000000e+00 9.1188000000e+01 9.1188000000e+01 6.2316e-14 0.0000e+00
  9900012  1    3    3    0    0 +3.2718042353e+01 -2.2922728421e+01 -1.6961765833e+01 4.7787271044e+01 2.0000000000e+01 4.0324e-01 1.0000e+00
       12  1    3    3    0    0 -3.2718042353e+01 +2.2922728421e+01 +1.6961765833e+01 4.3400728956e+01 0.0000000000e+00 0.0000e+00 -1.0000e+00
</event>
<event>
 5      6 +2.9511900e-02 9.11880000e+01 7.81616400e-03 1.18400000e-01
      -11 -1    0    0    0    0 +0.0000000000e+00 +0.0000000000e+00 +4.5593999997e+01 4.5594000000e+01 5.1100000000e-04 0.0000e+00 1.0000e+00
       11 -1    0    0    0    0 -0.0000000000e+00 -0.0000000000e+00 -4.5593999997e+01 4.5594000000e+01 5.1100000000e-04 0.0000e+00 -1.0000e+00
       23  2    1    2    0    0 +0.0000000000e+00 +0.0000000000e+00 +0.0000000000e+00 9.1188000000e+01 9.1188000000e+01 4.3191e-14 0.0000e+00
  9900012  1    3    3    0    0 -2.4046666885e+01 -3.5411589396e+01 +7.1694087654e+00 4.7787271044e+01 2.0000000000e+01 4.2769e-02 -1.0000e+00
      -12  1    3    3    0    0 +2.4046666885e+01 +3.5411589396e+01 -7.1694087654e+00 4.3400728956e+01 0.0000000000e+00 0.0000e+00 1.0000e+00
</event>
<event>
 5      3 +2.9511900e-02 9.11880000e+01 7.81616400e-03 1.18400000e-01
      -11 -1    0    0    0    0 +0.0000000000e+00 +0.0000000000e+00 +4.5593999997e+01 4.5594000000e+01 5.1100000000e-04 0.0000e+00 -1.0000e+00
       11 -1    0    0    0    0 -0.0000000000e+00 -0.0000000000e+00 -4.5593999997e+01 4.5594000000e+01 5.1100000000e-04 0.0000e+00 1.0000e+00
       23  2    1    2    0    0 +0.0000000000e+00 +0.0000000000e+00 +0.0000000000e+00 9.1188000000e+01 9.1188000000e+01 2.7928e-14 0.0000e+00
  9900012  1    3    3    0    0 -3.5354285160e+01 +9.6751888656e+00 -2.3239804541e+01 4.7787271044e+01 2.0000000000e+01 6.3473e-03 -1.0000e+00
       12  1    3    3    0    0 +3.5354285160e+01 -9.6751888656e+00 +2.3239804541e+01 4.3400728956e+01 0.0000000000e+00 0.0000e+00 -1.0000e+00
</event>
<event>
 5      5 +2.9511900e-02 9.11880000e+01 7.81616400e-03 1.18400000e-01
      -11 -1    0    0    0    0 +0.0000000000e+00 +0.0000000000e+00 +4.5593999997e+01 4.5594000000e+01 5.1100000000e-04 0.0000e+00 -1.0000e+00
       11 -1    0    0    0    0 -0.0000000000e+00 -0.0000000000e+00 -4.5593999997e+01 4.5594000000e+01 5.1100000000e-04 0.0000e+00 1.0000e+00
       23  2    1    2    0    0 +0.0000000000e+00 +0.0000000000e+00 +0.0000000000e+00 9.1188000000e+01 9.1188000000e+01 3.1416e-14 0.0000e+00
  9900012  1    3    3    0    0 +3.8340300849e+01 -8.7782962964e-01 -2.0319301657e+01 4.7787271044e+01 2.0000000000e+01 2.4150e-01 1.0000e+00
       12  1    3    3    0    0 -3.8340300849e+01 +8.7782962964e-01 +2.0319301657e+01 4.3400728956e+01 0.0000000000e+00 0.0000e+00 -1.0000e+00
</event>
<event>
 5      4 +2.9511900e-02 9.11880000e+01 7.81616400e-03 1.18400000e-01
      -11 -1    0    0    0    0 +0.0000000000e+00 +0.0000000000e+00 +4.5593999997e+01 4.5594000000e+01 5.1100000000e-04 0.0000e+00 1.0000e+00
       11 -1    0    0    0    0 -0.0000000000e+00 -0.0000000000e+00 -4.5593999997e+01 4.5594000000e+01 5.1100000000e-04 0.0000e+00 -1.0000e+00
       23  2    1    2    0    0 +0.0000000000e+00 +0.0000000000e+00 +0.0000000000e+00 9.1188000000e+01 9.1188000000e+01 3.0076e-14 0.0000e+00
  9900012  1    3    3    0    0 -4.1850346135e+01 +3.2247441775e-02 -1.1496554368e+01 4.7787271044e+01 2.0000000000e+01 8.6909e-03 -1.0000e+00
      -12  1    3    3    0    0 +4.1850346135e+01 -3.2247441775e-02 +1.1496554368e+01 4.3400728956e+01 0.0000000000e+00 0.0000e+00 1.0000e+00
</event>
<event>
 5      6 +2.9511900e-02 9.11880000e+01 7.81616400e-03 1.18400000e-01
      -11 -1    0    0    0    0 +0.0000000000e+00 +0.0000000000e+00 +4.5593999997e+01 4.5594000000e+01 5.1100000000e-04 0.0000e+00 -1.0000e+00
       11 -1    0    0    0    0 -0.0000000000e+00 -0.0000000000e+00 -4.5593999997e+01 4.5594000000e+01 5.1100000000e-04 0.0000e+00 1.0000e+00
       23  2    1    2    0    0 +0.0000000000e+00 +0.0000000000e+00 +0.0000000000e+00 9.1188000000e+01 9.1188000000e+01 5.4395e-14 0.0000e+00
  9900012  1    3    3    0    0 -2.3469411035e+01 +3.6506892656e+01 -2.3834455051e-01 4.7787271044e+01 2.0000000000e+01 4.8481e-03 -1.0000e+00
      -12  1    3    3    0    0 +2.3469411035e+01 -3.6506892656e+01 +2.3834455051e-01 4.3400728956e+01 0.0000000000e+00 0.0000e+00 1.0000e+00
</event>
<event>
 5      4 +2.9511900e-02 9.11880000e+01 7.81616400e-03 1.18400000e-01
      -11 -1    0    0    0    0 +0.0000000000e+00 +0.0000000000e+00 +4.5593999997e+01 4.5594000000e+01 5.1100000000e-04 0.0000e+00 -1.0000e+00
       11 -1    0    0    0    0 -0.0000000000e+00 -0.0000000000e+00 -4.5593999997e+01 4.5594000000e+01 5.1100000000e-04 0.0000e+00 1.0000e+00
       23  2    1    2    0    0 +0.0000000000e+00 +0.0000000000e+00 +0.0000000000e+00 9.1188000000e+01 9.1188000000e+01 9.1558e-14 0.0000e+00
  9900012  1    3    3    0    0 +2.4480019429e+01 -2.4391330766e+01 +2.6256711639e+01 4.7787271044e+01 2.0000000000e+01 5.1733e-01 -1.0000e+00
      -12  1    3    3    0    0 -2.4480019429e+01 +2.4391330766e+01 -2.6256711639e+01 4.3400728956e+01 0.0000000000e+00 0.0000e+00 1.0000e+00
</event>
<event>
 5      7 +2.9511900e-02 9.11880000e+01 7.81616400e-03 1.18400000e-01
      -11 -1    0    0    0    0 +0.0000000000e+00 +0.0000000000e+00 +4.5593999997e+01 4.5594000000e+01 5.1100000000e-04 0.0000e+00 1.0000e+00
       11 -1    0    0    0    0 -0.0000000000e+00 -0.0000000000e+00 -4.5593999997e+01 4.5594000000e+01 5.1100000000e-04 0.0000e+00 -1.0000e+00
       23  2    1    2    0    0 +0.0000000000e+00 +0.0000000000e+00 +0.0000000000e+00 9.1188000000e+01 9.1188000000e+01 4.2082e-13 0.0000e+00
  9900012  1    3    3    0    0 -6.5035868642e+00 -1.6706679352e+01 +3.9524846575e+01 4.7787271044e+01 2.0000000000e+01 1.4454e-01 1.0000e+00
       12  1    3    3    0    0 +6.5035868642e+00 +1.6706679352e+01 -3.9524846575e+01 4.3400728956e+01 0.0000000000e+00 0.0000e+00 -1.0000e+00
</event>
<event>
 5      7 +2.9511900e-02 9.11880000e+01 7.81616400e-03 1.18400000e-01
      -11 -1    0    0    0    0 +0.0000000000e+00 +0.0000000000e+00 +4.5593999997e+01 4.5594000000e+01 5.1100000000e-04 0.0000e+00 1.0000e+00
       11 -1    0    0    0    0 -0.0000000000e+00 -0.0000000000e+00 -4.5593999997e+01 4.5594000000e+01 5.1100000000e-04 0.0000e+00 -1.0000e+00
       23  2    1    2    0    0 +0.0000000000e+00 +0.0000000000e+00 +0.0000000000e+00 9.1188000000e+01 9.1188000000e+01 8.1616e-14 0.0000e+00
  9900012  1    3    3    0    0 +3.1515407408e+01 +3.0836447086e+00 +2.9679850153e+01 4.7787271044e+01 2.0000000000e+01 8.7912e-02 1.0000e+00
       12  1    3    3    0    0 -3.1515407408e+01 -3.0836447086e+00 -2.9679850153e+01 4.3400728956e+01 0.0000000000e+00 0.0000e+00 -1.0000e+00
</event>
<event>
 5      7 +2.9511900e-02 9.11880000e+01 7.81616400e-03 1.18400000e-01
      -11 -1    0    0    0    0 +0.0000000000e+00 +0.0000000000e+00 +4.5593999997e+01 4.5594000000e+01 5.1100000000e-04 0.0000e+00 -1.0000e+00
       11 -1    0    0    0    0 -0.0000000000e+00 -0.0000000000e+00 -4.5593999997e+01 4.5594000000e+01 5.1100000000e-04 0.0000e+00 1.0000e+00
       23  2    1    2    0    0 +0.0000000000e+00 +0.0000000000e+00 +0.0000000000e+00 9.1188000000e+01 9.1188000000e+01 9.3406e-14 0.0000e+00
  9900012  1    3    3    0    0 +3.6404955455e+01 +1.2542903891e+01 -2.0024436426e+01 4.7787271044e+01 2.0000000000e+01 5.9886e-02 1.0000e+00
       12  1    3    3    0    0 -3.6404955455e+01 -1.2542903891e+01 +2.0024436426e+01 4.3400728956e+01 0.0000000000e+00 0.0000e+00 -1.0000e+00
</event>
<event>
 5      7 +2.9511900e-02 9.11880000e+01 7.81616400e-03 1.18400000e-01
      -11 -1    0    0    0    0 +0.0000000000e+00 +0.0000000000e+00 +4.5593999997e+01 4.5594000000e+01 5.1100000000e-04 0.0000e+00 1.0000e+00
       11 -1    0    0    0    0 -0.0000000000e+00 -0.0000000000e+00 -4.5593999997e+01 4.5594000000e+01 5.1100000000e-04 0.0000e+00 -1.0000e+00
       23  2    1    2    0    0 +0.0000000000e+00 +0.0000000000e+00 +0.0000000000e+00 9.1188000000e+01 9.1188000000e+01 3.8086e-14 0.0000e+00
  9900012  1    3    3    0    0 +3.6073658120e+01 -1.7486979836e+01 +1.6628890521e+01 4.7787271044e+01 2.0000000000e+01 7.7964e-02 1.0000e+00
       12  1    3    3    0    0 -3.6073658120e+01 +1.7486979836e+01 -1.6628890521e+01 4.3400728956e+01 0.0000000000e+00 0.0000e+00 -1.0000e+00
</event>
<event>
 5      1 +2.9511900e-02 9.11880000e+01 7.81616400e-03 1.18400000e-01
      -11 -1    0    0    0    0 +0.0000000000e+00 +0.0000000000e+00 +4.5593999997e+01 4.5594000000e+01 5.1100000000e-04 0.0000e+00 -1.0000e+00
       11 -1    0    0    0    0 -0.0000000000e+00 -0.0000000000e+00 -4.5593999997e+01 4.5594000000e+01 5.1100000000e-04 0.0000e+00 1.0000e+00
       23  2    1    2    0    0 +0.0000000000e+00 +0.0000000000e+00 +0.0000000000e+00 9.1188000000e+01 9.1188000000e+01 1.0978e-13 0.0000e+00
  9900012  1    3    3    0    0 +2.6514570075e+00 +2.9991886619e+00 -4.3215713774e+01 4.7787271044e+01 2.0000000000e+01 3.3755e-02 1.0000e+00
       12  1    3    3    0    0 -2.6514570075e+00 -2.9991886619e+00 +4.3215713774e+01 4.3400728956e+01 0.0000000000e+00 0.0000e+00 -1.0000e+00
</event>
<event>
 5      7 +2.9511900e-02 9.11880000e+01 7.81616400e-03 1.18400000e-01
      -11 -1    0    0    0    0 +0.0000000000e+00 +0.0000000000e+00 +4.5593999997e+01 4.5594000000e+01 5.1100000000e-04 0.0000e+00 -1.0000e+00
       11 -1    0    0    0    0 -0.0000000000e+00 -0.0000000000e+00 -4.5593999997e+01 4.5594000000e+01 5.1100000000e-04 0.0000e+00 1.0000e+00
       23  2    1    2    0    0 +0.0000000000e+00 +0.0000000000e+00 +0.0000000000e+00 9.1188000000e+01 9.1188000000e+01 1.2866e-14 0.0000e+00
  9900012  1    3    3    0    0 +5.9677084643e+00 -1.7445502475e+01 -3.9289491890e+01 4.7787271044e+01 2.0000000000e+01 7.3426e-02 1.0000e+00
       12  1    3    3    0    0 -5.9677084643e+00 +1.7445502475e+01 +3.9289491890e+01 4.3400728956e+01 0.0000000000e+00 0.0000e+00 -1.0000e+00
</event>
<event>
 5      5 +2.9511900e-02 9.11880000e+01 7.81616400e-03 1.18400000e-01
      -11 -1    0    0    0    0 +0.0000000000e+00 +0.0000000000e+00 +4.5593999997e+01 4.5594000000e+01 5.1100000000e-04 0.0000e+00 -1.0000e+00
       11 -1    0    0    0    0 -0.0000000000e+00 -0.0000000000e+00 -4.5593999997e+01 4.5594000000e+01 5.1100000000e-04 0.0000e+00 1.0000e+00
       23  2    1    2    0    0 +0.0000000000e+00 +0.0000000000e+00 +0.0000000000e+00 9.1188000000e+01 9.1188000000e+01 8.8073e-14 0.0000e+00
  9900012  1    3    3    0    0 +3.5216501342e+01 +2.5193250526e+01 +2.9532075751e+00 4.7787271044e+01 2.0000000000e+01 9.8228e-03 1.0000e+00
       12  1    3    3    0    0 -3.5216501342e+01 -2.5193250526e+01 -2.9532075751e+00 4.3400728956e+01 0.0000000000e+00 0.0000e+00 -1.0000e+00
</event>
<event>
 5      2 +2.9511900e-02 9.11880000e+01 7.81616400e-03 1.18400000e-01
      -11 -1    0    0    0    0 +0.0000000000e+00 +0.0000000000e+00 +4.5593999997e+01 4.5594000000e+01 5.1100000000e-04 0.0000e+00 -1.0000e+00
       11 -1    0    0    0    0 -0.0000000000e+00 -0.0000000000e+00 -4.5593999997e+01 4.5594000000e+01 5.1100000000e-04 0.0000e+00 1.0000e+00
       23  2    1    2    0    0 +0.0000000000e+00 +0.0000000000e+00 +0.0000000000e+00 9.1188000000e+01 9.1188000000e+01 5.2672e-14 0.0000e+00
  9900012  1    3    3    0    0 -3.3514641704e+01 +1.3920070790e+01 +2.3803858816e+01 4.7787271044e+01 2.0000000000e+01 1.2706e-01 -1.0000e+00
      -12  1    3    3    0    0 +3.3514641704e+01 -1.3920070790e+01 -2.3803858816e+01 4.3400728956e+01 0.0000000000e+00 0.0000e+00 1.0000e+00
</event>
<event>
 5      8 +2.9511900e-02 9.11880000e+01 7.81616400e-03 1.18400000e-01
      -11 -1    0    0    0    0 +0.0000000000e+00 +0.0000000000e+00 +4.5593999997e+01 4.5594000000e+01 5.1100000000e-04 0.0000e+00 -1.0000e+00
       11 -1    0    0    0    0 -0.0000000000e+00 -0.0000000000e+00 -4.5593999997e+01 4.5594000000e+01 5.1100000000e-04 0.0000e+00 1.0000e+00
       23  2    1    2    0    0 +0.0000000000e+00 +0.0000000000e+00 +0.0000000000e+00 9.1188000000e+01 9.1188000000e+01 3.4266e-13 0.0000e+00
  9900012  1    3    3    0    0 -1.9364897752e+01 +3.8124367149e+01 -7.4267515364e+00 4.7787271044e+01 2.0000000000e+01 1.0913e-01 -1.0000e+00
      -12  1    3    3    0    0 +1.9364897752e+01 -3.8124367149e+01 +7.4267515364e+00 4.3400728956e+01 0.0000000000e+00 0.0000e+00 1.0000e+00
</event>
<event>
 5      7 +2.9511900e-02 9.11880000e+01 7.81616400e-03 1.18400000e-01
      -11 -1    0    0    0    0 +0.0000000000e+00 +0.0000000000e+00 +4.5593999997e+01 4.5594000000e+01 5.1100000000e-04 0.0000e+00 1.0000e+00
       11 -1    0    0    0    0 -0.0000000000e+00 -0.0000000000e+00 -4.5593999997e+01 4.5594000000e+01 5.1100000000e-04 0.0000e+00 -1.0000e+00
       23  2    1    2    0    0 +0.0000000000e+00 +0.0000000000e+00 +0.0000000000e+00 9.1188000000e+01 9.1188000000e+01 1.0936e-13 0.0000e+00
  9900012  1    3    3    0    0 -3.3564573444e+01 +1.7850522020e+01 +2.0938040668e+01 4.7787271044e+01 2.0000000000e+01 3.8841e-02 1.0000e+00
       12  1    3    3    0    0 +3.3564573444e+01 -1.7850522020e+01 -2.0938040668e+01 4.3400728956e+01 0.0000000000e+00 0.0000e+00 -1.0000e+00
</event>
<event>
 5      7 +2.9511900e-02 9.11880000e+01 7.81616400e-03 1.18400000e-01
      -11 -1    0    0    0    0 +0.0000000000e+00 +0.0000000000e+00 +4.5593999997e+01 4.5594000000e+01 5.1100000000e-04 0.0000e+00 -1.0000e+00
       11 -1    0    0    0    0 -0.0000000000e+00 -0.0000000000e+00 -4.5593999997e+01 4.5594000000e+01 5.1100000000e-04 0.0000e+00 1.0000e+00
       23  2    1    2    0    0 +0.0000000000e+00 +0.0000000000e+00 +0.0000000000e+00 9.1188000000e+01 9.1188000000e+01 1.0921e-13 0.0000e+00
  9900012  1    3    3    0    0 -1.7325437902e+01 -3.6317933348e+00 -3.9626538488e+01 4.7787271044e+01 2.0000000000e+01 2.1194e-01 1.0000e+00
       12  1    3    3    0    0 +1.7325437902e+01 +3.6317933348e+00 +3.9626538488e+01 4.3400728956e+01 0.0000000000e+00 0.0000e+00 -1.0000e+00
</event>
<event>
 5      8 +2.9511900e-02 9.11880000e+01 7.81616400e-03 1.18400000e-01
      -11 -1    0    0    0    0 +0.0000000000e+00 +0.0000000000e+00 +4.5593999997e+01 4.5594000000e+01 5.1100000000e-04 0.0000e+00 -1.0000e+00
       11 -1    0    0    0    0 -0.0000000000e+00 -0.0000000000e+00 -4.5593999997e+01 4.5594000000e+01 5.1100000000e-04 0.0000e+00 1.0000e+00
       23  2    1    2    0    0 +0.0000000000e+00 +0.0000000000e+00 +0.0000000000e+00 9.1188000000e+01 9.1188000000e+01 7.2767e-14 0.0000e+00
  9900012  1    3    3    0    0 -2.5108460382e+01 -2.2579332480e+01 +2.7264670104e+01 4.7787271044e+01 2.0000000000e+01 2.1877e-01 -1.0000e+00
      -12  1    3    3    0    0 +2.5108460382e+01 +2.2579332480e+01 -2.7264670104e+01 4.3400728956e+01 0.0000000000e+00 0.0000e+00 1.0000e+00
</event>
<event>
 5      4 +2.9511900e-02 9.11880000e+01 7.81616400e-03 1.18400000e-01
      -11 -1    0    0    0    0 +0.0000000000e+00 +0.0000000000e+00 +4.5593999997e+01 4.5594000000e+01 5.1100000000e-04 0.0000e+00 1.0000e+00
       11 -1    0    0    0    0 -0.0000000000e+00 -0.0000000000e+00 -4.5593999997e+01 4.5594000000e+01 5.1100000000e-04 0.0000e+00 -1.0000e+00
       23  2    1    2    0    0 +0.0000000000e+00 +0.0000000000e+00 +0.0000000000e+00 9.1188000000e+01 9.1188000000e+01 6.1807e-14 0.0000e+00
  9900012  1    3    3    0    0 +2.6677092558e+01 -1.1491644096e+01 -3.2247451411e+01 4.7787271044e+01 2.0000000000e+01 9.0071e-03 -1.0000e+00
      -12  1    3    3    0    0 -2.6677092558e+01 +1.1491644096e+01 +3.2247451411e+01 4.3400728956e+01 0.0000000000e+00 0.0000e+00 1.0000e+00
</event>
<event>
 5      1 +2.9511900e-02 9.11880000e+01 7.81616400e-03 1.18400000e-01
      -11 -1    0    0    0    0 +0.0000000000e+00 +0.0000000000e+00 +4.5593999997e+01 4.5594000000e+01 5.1100000000e-04 0.0000e+00 -1.0000e+00
       11 -1    0    0    0    0 -0.0000000000e+00 -0.0000000000e+00 -4.5593999997e+01 4.5594000000e+01 5.1100000000e-04 0.0000e+00 1.0000e+00
       23  2    1    2    0    0 +0.0000000000e+00 +0.0000000000e+00 +0.0000000000e+00 9.1188000000e+01 9.1188000000e+01 8.6535e-15 0.0000e+00
  9900012  1    3    3    0    0 -1.4859791646e+01 +1.8346034221e+01 +3.6417480617e+01 4.7787271044e+01 2.0000000000e+01 1.1117e-01 -1.0000e+00
       12  1    3    3    0    0 +1.4859791646e+01 -1.8346034221e+01 -3.6417480617e+01 4.3400728956e+01 0.0000000000e+00 0.0000e+00 -1.0000e+00
</event>
<event>
 5      7 +2.9511900e-02 9.11880000e+01 7.81616400e-03 1.18400000e-01
      -11 -1    0    0    0    0 +0.0000000000e+00 +0.0000000000e+00 +4.5593999997e+01 4.5594000000e+01 5.1100000000e-04 0.0000e+00 1.0000e+00
       11 -1    0    0    0    0 -0.0000000000e+00 -0.0000000000e+00 -4.5593999997e+01 4.5594000000e+01 5.1100000000e-04 0.0000e+00 -1.0000e+00
       23  2    1    2    0    0 +0.0000000000e+00 +0.0000000000e+00 +0.0000000000e+00 9.1188000000e+01 9.1188000000e+01 2.0954e-14 0.0000e+00
  9900012  1    3    3    0    0 +1.5661236936e+01 -3.7152763098e+01 +1.6063036005e+01 4.7787271044e+01 2.0000000000e+01 1.4424e-01 1.0000e+00
       12  1    3    3    0    0 -1.5661236936e+01 +3.7152763098e+01 -1.6063036005e+01 4.3400728956e+01 0.0000000000e+00 0.0000e+00 -1.0000e+00
</event>
<event>
 5      2 +2.9511900e-02 9.11880000e+01 7.81616400e-03 1.18400000e-01
      -11 -1    0    0    0    0 +0.0000000000e+00 +0.0000000000e+00 +4.5593999997e+01 4.5594000000e+01 5.1100000000e-04 0.0000e+00 1.0000e+00
       11 -1    0    0    0    0 -0.0000000000e+00 -0.0000000000e+00 -4.5593999997e+01 4.5594000000e+01 5.1100000000e-04 0.0000e+00 -1.0000e+00
       23  2    1    2    0    0 +0.0000000000e+00 +0.0000000000e+00 +0.0000000000e+00 9.1188000000e+01 9.1188000000e+01 1.3509e-14 0.0000e+00
  9900012  1    3    3    0    0 -4.1732398288e+01 +7.9888026270e+00 -8.8435987942e+00 4.7787271044e+01 2.0000000000e+01 2.5793e-01 -1.0000e+00
      -12  1    3    3    0    0 +4.1732398288e+01 -7.9888026270e+00 +8.8435987942e+00 4.3400728956e+01 0.0000000000e+00 0.0000e+00 1.0000e+00
</event>
<event>
 5      4 +2.9511900e-02 9.11880000e+01 7.81616400e-03 1.18400000e-01
      -11 -1    0    0    0    0 +0.0000000000e+00 +0.0000000000e+00 +4.5593999997e+01 4.5594000000e+01 5.1100000000e-04 0.0000e+00 1.0000e+00
       11 -1    0    0    0    0 -0.0000000000e+00 -0.0000000000e+00 -4.5593999997e+01 4.5594000000e+01 5.1100000000e-04 0.0000e+00 -1.0000e+00
       23  2    1    2    0    0 +0.0000000000e+00 +0.0000000000e+00 +0.0000000000e+00 9.1188000000e+01 9.1188000000e+01 7.8379e-14 0.0000e+00
  9900012  1    3    3    0    0 -1.7028192747e+01 +3.9511560636e+01 +5.7009211363e+00 4.7787271044e+01 2.0000000000e+01 2.7835e-03 -1.0000e+00
      -12  1    3    3    0    0 +1.7028192747e+01 -3.9511560636e+01 -5.7009211363e+00 4.3400728956e+01 0.0000000000e+00 0.0000e+00 1.0000e+00
</event>
<event>
 5      2 +2.9511900e-02 9.11880000e+01 7.81616400e-03 1.18400000e-01
      -11 -1    0    0    0    0 +0.0000000000e+00 +0.0000000000e+00 +4.5593999997e+01 4.5594000000e+01 5.1100000000e-04 0.0000e+00 1.0000e+00
       11 -1    0    0    0    0 -0.0000000000e+00 -0.0000000000e+00 -4.5593999997e+01 4.5594000000e+01 5.1100000000e-04 0.0000e+00 -1.0000e+00
       23  2    1    2    0    0 +0.0000000000e+00 +0.0000000000e+00 +0.0000000000e+00 9.1188000000e+01 9.1188000000e+01 8.7992e-14 0.0000e+00
  9900012  1    3    3    0    0 +3.1325582886e+01 -2.0923873582e+01 -2.1552787408e+01 4.7787271044e+01 2.0000000000e+01 5.7174e-02 -1.0000e+00
      -12  1    3    3    0    0 -3.1325582886e+01 +2.0923873582e+01 +2.1552787408e+01 4.3400728956e+01 0.0000000000e+00 0.0000e+00 1.0000e+00
</event>
<event>
 5      1 +2.9511900e-02 9.11880000e+01 7.81616400e-03 1.18400000e-01
      -11 -1    0    0    0    0 +0.0000000000e+00 +0.0000000000e+00 +4.5593999997e+01 4.5594000000e+01 5.1100000000e-04 0.0000e+00 1.0000e+00
       11 -1    0    0    0    0 -0.0000000000e+00 -0.0000000000e+00 -4.5593999997e+01 4.5594000000e+01 5.1100000000e-04 0.0000e+00 -1.0000e+00
       23  2    1    2    0    0 +0.0000000000e+00 +0.0000000000e+00 +0.0000000000e+00 9.1188000000e+01 9.1188000000e+01 1.6050e-14 0.0000e+00
  9900012  1    3    3    0    0 +1.1526360955e+00 -4.2774002678e+01 +7.2580575104e+00 4.7787271044e+01 2.0000000000e+01 3.8401e-02 1.0000e+00
       12  1    3    3    0    0 -1.1526360955e+00 +4.2774002678e+01 -7.2580575104e+00 4.3400728956e+01 0.0000000000e+00 0.0000e+00 -1.0000e+00
</event>
<event>
 5      2 +2.9511900e-02 9.11880000e+01 7.81616400e-03 1.18400000e-01
      -11 -1    0    0    0    0 +0.0000000000e+00 +0.0000000000e+00 +4.5593999997e+01 4.5594000000e+01 5.1100000000e-04 0.0000e+00 -1.0000e+00
       11 -1    0    0    0    0 -0.0000000000e+00 -0.0000000000e+00 -4.5593999997e+01 4.5594000000e+01 5.1100000000e-04 0.0000e+00 1.0000e+00
       23  2    1    2    0    0 +0.0000000000e+00 +0.0000000000e+00 +0.0000000000e+00 9.1188000000e+01 9.1188000000e+01 8.4266e-14 0.0000e+00
  9900012  1    3    3    0    0 +2.0718659839e+01 +1.2028635033e+01 +3.6189395513e+01 4.7787271044e+01 2.0000000000e+01 1.5466e-01 -1.0000e+00
      -12  1    3    3    0    0 -2.0718659839e+01 -1.2028635033e+01 -3.6189395513e+01 4.3400728956e+01 0.0000000000e+00 0.0000e+00 1.0000e+00
</event>
<event>
 5      1 +2.9511900e-02 9.11880000e+01 7.81616400e-03 1.18400000e-01
      -11 -1    0    0    0    0 +0.0000000000e+00 +0.0000000000e+00 +4.5593999997e+01 4.5594000000e+01 5.1100000000e-04 0.0000e+00 1.0000e+00
       11 -1    0    0    0    0 -0.0000000000e+00 -0.0000000000e+00 -4.5593999997e+01 4.5594000000e+01 5.1100000000e-04 0.0000e+00 -1.0000e+00
       23  2    1    2    0    0 +0.0000000000e+00 +0.0000000000e+00 +0.0000000000e+00 9.1188000000e+01 9.1188000000e+01 2.5664e-13 0.0000e+00
  9900012  1    3    3    0    0 -3.2651248806e+01 -9.4161428743e+00 +2.6997323546e+01 4.7787271044e+01 2.0000000000e+01 1.9656e-01 1.0000e+00
       12  1    3    3    0    0 +3.2651248806e+01 +9.4161428743e+00 -2.6997323546e+01 4.3400728956e+01 0.0000000000e+00 0.0000e+00 -1.0000e+00
</event>
<event>
 5      5 +2.9511900e-02 9.11880000e+01 7.81616400e-03 1.18400000e-01
      -11 -1    0    0    0    0 +0.0000000000e+00 +0.0000000000e+00 +4.5593999997e+01 4.5594000000e+01 5.1100000000e-04 0.0000e+00 1.0000e+00
       11 -1    0    0    0    0 -0.0000000000e+00 -0.0000000000e+00 -4.5593999997e+01 4.5594000000e+01 5.1100000000e-04 0.0000e+00 -1.0000e+00
       23  2    1    2    0    0 +0.0000000000e+00 +0.0000000000e+00 +0.0000000000e+00 9.1188000000e+01 9.1188000000e+01 1.9391e-13 0.0000e+00
  9900012  1    3    3    0    0 -7.4434006509e+00 +1.9162621807e+01 +3.8223199580e+01 4.7787271044e+01 2.0000000000e+01 1.2124e-01 1.0000e+00
       12  1    3    3    0    0 +7.4434006509e+00 -1.9162621807e+01 -3.8223199580e+01 4.3400728956e+01 0.0000000000e+00 0.0000e+00 -1.0000e+00
</event>
<event>
 5      7 +2.9511900e-02 9.11880000e+01 7.81616400e-03 1.18400000e-01
      -11 -1    0    0    0    0 +0.0000000000e+00 +0.0000000000e+00 +4.5593999997e+01 4.5594000000e+01 5.1100000000e-04 0.0000e+00 -1.0000e+00
       11 -1    0    0    0    0 -0.0000000000e+00 -0.0000000000e+00 -4.5593999997e+01 4.5594000000e+01 5.1100000000e-04 0.0000e+00 1.0000e+00
       23  2    1    2    0    0 +0.0000000000e+00 +0.0000000000e+00 +0.0000000000e+00 9.1188000000e+01 9.1188000000e+01 7.3679e-14 0.0000e+00
  9900012  1    3    3    0    0 -2.7481933297e+01 -4.3807860496e+00 -3.3304283955e+01 4.7787271044e+01 2.0000000000e+01 1.7786e-01 1.0000e+00
       12  1    3    3    0    0 +2.7481933297e+01 +4.3807860496e+00 +3.3304283955e+01 4.3400728956e+01 0.0000000000e+00 0.0000e+00 -1.0000e+00
</event>
<event>
 5      5 +2.9511900e-02 9.11880000e+01 7.81616400e-03 1.18400000e-01
      -11 -1    0    0    0    0 +0.0000000000e+00 +0.0000000000e+00 +4.5593999997e+01 4.5594000000e+01 5.1100000000e-04 0.0000e+00 1.0000e+00
       11 -1    0    0    0    0 -0.0000000000e+00 -0.0000000000e+00 -4.5593999997e+01 4.5594000000e+01 5.1100000000e-04 0.0000e+00 -1.0000e+00
       23  2    1    2    0    0 +0.0000000000e+00 +0.0000000000e+00 +0.0000000000e+00 9.1188000000e+01 9.1188000000e+01 8.0656e-14 0.0000e+00
  9900012  1    3    3    0    0 -1.7389756869e+01 -3.4539982336e+01 +1.9703026421e+01 4.7787271044e+01 2.0000000000e+01 4.2698e-02 1.0000e+00
       12  1    3    3    0    0 +1.7389756869e+01 +3.4539982336e+01 -1.9703026421e+01 4.3400728956e+01 0.0000000000e+00 0.0000e+00 -1.0000e+00
</event>
<event>
 5      5 +2.9511900e-02 9.11880000e+01 7.81616400e-03 1.18400000e-01
      -11 -1    0    0    0    0 +0.0000000000e+00 +0.0000000000e+00 +4.5593999997e+01 4.5594000000e+01 5.1100000000e-04 0.0000e+00 1.0000e+00
       11 -1    0    0    0    0 -0.0000000000e+00 -0.0000000000e+00 -4.5593999997e+01 4.5594000000e+01 5.1100000000e-04 0.0000e+00 -1.0000e+00
       23  2    1    2    0    0 +0.0000000000e+00 +0.0000000000e+00 +0.0000000000e+00 9.1188000000e+01 9.1188000000e+01 6.5072e-14 0.0000e+00
  9900012  1    3    3    0    0 +2.4650198669e+01 -3.4833968847e+01 +7.9111057301e+00 4.7787271044e+01 2.0000000000e+01 2.5570e-01 1.0000e+00
       12  1    3    3    0    0 -2.4650198669e+01 +3.4833968847e+01 -7.9111057301e+00 4.3400728956e+01 0.0000000000e+00 0.0000e+00 -1.0000e+00
</event>
<event>
 5      2 +2.9511900e-02 9.11880000e+01 7.81616400e-03 1.18400000e-01
      -11 -1    0    0    0    0 +0.0000000000e+00 +0.0000000000e+00 +4.5593999997e+01 4.5594000000e+01 5.1100000000e-04 0.0000e+00 -1.0000e+00
       11 -1    0    0    0    0 -0.0000000000e+00 -0.0000000000e+00 -4.5593999997e+01 4.5594000000e+01 5.1100000000e-04 0.0000e+00 1.0000e+00
       23  2    1    2    0    0 +0.0000000000e+00 +0.0000000000e+00 +0.0000000000e+00 9.1188000000e+01 9.1188000000e+01 7.6392e-14 0.0000e+00
  9900012  1    3    3    0    0 -8.4560831343e+00 -2.7242548791e+01 +3.2710265473e+01 4.7787271044e+01 2.0000000000e+01 1.3847e-01 -1.0000e+00
      -12  1    3    3    0    0 +8.4560831343e+00 +2.7242548791e+01 -3.2710265473e+01 4.3400728956e+01 0.0000000000e+00 0.0000e+00 1.0000e+00
</event>
<event>
 5      5 +2.9511900e-02 9.11880000e+01 7.81616400e-03 1.18400000e-01
      -11 -1    0    0    0    0 +0.0000000000e+00 +0.0000000000e+00 +4.5593999997e+01 4.5594000000e+01 5.1100000000e-04 0.0000e+00 -1.0000e+00
       11 -1    0    0    0    0 -0.0000000000e+00 -0.0000000000e+00 -4.5593999997e+01 4.5594000000e+01 5.1100000000e-04 0.0000e+00 1.0000e+00
       23  2    1    2    0    0 +0.0000000000e+00 +0.0000000000e+00 +0.0000000000e+00 9.1188000000e+01 9.1188000000e+01 5.2183e-14 0.0000e+00
  9900012  1    3    3    0    0 -4.2993367801e+01 -3.1652870249e+00 -5.0174253370e+00 4.7787271044e+01 2.0000000000e+01 7.8554e-02 1.0000e+00
       12  1    3    3    0    0 +4.2993367801e+01 +3.1652870249e+00 +5.0174253370e+00 4.3400728956e+01 0.0000000000e+00 0.0000e+00 -1.0000e+00
</event>
<event>
 5      4 +2.9511900e-02 9.11880000e+01 7.81616400e-03 1.18400000e-01
      -11 -1    0    0    0    0 +0.0000000000e+00 +0.0000000000e+00 +4.5593999997e+01 4.5594000000e+01 5.1100000000e-04 0.0000e+00 -1.0000e+00
       11 -1    0    0    0    0 -0.0000000000e+00 -0.0000000000e+00 -4.5593999997e+01 4.5594000000e+01 5.1100000000e-04 0.0000e+00 1.0000e+00
       23  2    1    2    0    0 +0.0000000000e+00 +0.0000000000e+00 +0.0000000000e+00 9.1188000000e+01 9.1188000000e+01 1.8129e-13 0.0000e+00
  9900012  1    3    3    0    0 -3.4456008759e+01 +2.6183847347e+01 -3.2882932251e+00 4.7787271044e+01 2.0000000000e+01 8.0663e-03 -1.0000e+00
      -12  1    3    3    0    0 +3.4456008759e+01 -2.6183847347e+01 +3.2882932251e+00 4.3400728956e+01 0.0000000000e+00 0.0000e+00 1.0000e+00
</event>
<event>
 5      2 +2.9511900e-02 9.11880000e+01 7.81616400e-03 1.18400000e-01
      -11 -1    0    0    0    0 +0.0000000000e+00 +0.0000000000e+00 +4.5593999997e+01 4.5594000000e+01 5.1100000000e-04 0.0000e+00 -1.0000e+00
       11 -1    0    0    0    0 -0.0000000000e+00 -0.0000000000e+00 -4.5593999997e+01 4.5594000000e+01 5.1100000000e-04 0.0000e+00 1.0000e+00
       23  2    1    2    0    0 +0.0000000000e+00 +0.0000000000e+00 +0.0000000000e+00 9.1188000000e+01 9.1188000000e+01 1.2606e-13 0.0000e+00
  9900012  1    3    3    0    0 +3.8942969469e+01 -8.5543653604e+00 +1.7143256286e+01 4.7787271044e+01 2.0000000000e+01 3.5964e-02 -1.0000e+00
      -12  1    3    3    0    0 -3.8942969469e+01 +8.5543653604e+00 -1.7143256286e+01 4.3400728956e+01 0.0000000000e+00 0.0000e+00 1.0000e+00
</event>
<event>
 5      2 +2.9511900e-02 9.11880000e+01 7.81616400e-03 1.18400000e-01
      -11 -1    0    0    0    0 +0.0000000000e+00 +0.0000000000e+00 +4.5593999997e+01 4.5594000000e+01 5.1100000000e-04 0.0000e+00 1.0000e+00
       11 -1    0    0    0    0 -0.0000000000e+00 -0.0000000000e+00 -4.5593999997e+01 4.5594000000e+01 5.1100000000e-04 0.0000e+00 -1.0000e+00
       23  2    1    2    0    0 +0.0000000000e+00 +0.0000000000e+00 +0.0000000000e+00 9.1188000000e+01 9.1188000000e+01 4.6650e-15 0.0000e+00
  9900012  1    3    3    0    0 -3.5928415225e+01 -2.1400275866e+01 -1.1610359432e+01 4.7787271044e+01 2.0000000000e+01 2.3945e-01 -1.0000e+00
      -12  1    3    3    0    0 +3.5928415225e+01 +2.1400275866e+01 +1.1610359432e+01 4.3400728956e+01 0.0000000000e+00 0.0000e+00 1.0000e+00
</event>
<event>
 5      4 +2.9511900e-02 9.11880000e+01 7.81616400e-03 1.18400000e-01
      -11 -1    0    0    0    0 +0.0000000000e+00 +0.0000000000e+00 +4.5593999997e+01 4.5594000000e+01 5.1100000000e-04 0.0000e+00 -1.0000e+00
       11 -1    0    0    0    0 -0.0000000000e+00 -0.0000000000e+00 -4.5593999997e+01 4.5594000000e+01 5.1100000000e-04 0.0000e+00 1.0000e+00
       23  2    1    2    0    0 +0.0000000000e+00 +0.0000000000e+00 +0.0000000000e+00 9.1188000000e+01 9.1188000000e+01 2.8278e-14 0.0000e+00
  9900012  1    3    3    0    0 -2.8106152457e+00 +1.4144520071e+01 +4.0934780661e+01 4.7787271044e+01 2.0000000000e+01 9.4366e-02 -1.0000e+00
      -12  1    3    3    0    0 +2.8106152457e+00 -1.4144520071e+01 -4.0934780661e+01 4.3400728956e+01 0.0000000000e+00 0.0000e+00 1.0000e+00
</event>
<event>
 5      6 +2.9511900e-02 9.11880000e+01 7.81616400e-03 1.18400000e-01
      -11 -1    0    0    0    0 +0.0000000000e+00 +0.0000000000e+00 +4.5593999997e+01 4.5594000000e+01 5.1100000000e-04 0.0000e+00 1.0000e+00
       11 -1    0    0    0    0 -0.0000000000e+00 -0.0000000000e+00 -4.5593999997e+01 4.5594000000e+01 5.1100000000e-04 0.0000e+00 -1.0000e+00
       23  2    1    2    0    0 +0.0000000000e+00 +0.0000000000e+00 +0.0000000000e+00 9.1188000000e+01 9.1188000000e+01 9.4303e-14 0.0000e+00
  9900012  1    3    3    0    0 -4.0245059201e+00 +1.4903659995e+01 -4.0562390767e+01 4.7787271044e+01 2.0000000000e+01 1.3745e-02 -1.0000e+00
      -12  1    3    3    0    0 +4.0245059201e+00 -1.4903659995e+01 +4.0562390767e+01 4.3400728956e+01 0.0000000000e+00 0.0000e+00 1.0000e+00
</event>
<event>
 5      3 +2.9511900e-02 9.11880000e+01 7.81616400e-03 1.18400000e-01
      -11 -1    0    0    0    0 +0.0000000000e+00 +0.0000000000e+00 +4.5593999997e+01 4.5594000000e+01 5.1100000000e-04 0.0000e+00 1.0000e+00
       11 -1    0    0    0    0 -0.0000000000e+00 -0.0000000000e+00 -4.5593999997e+01 4.5594000000e+01 5.1100000000e-04 0.0000e+00 -1.0000e+00
       23  2    1    2    0    0 +0.0000000000e+00 +0.0000000000e+00 +0.0000000000e+00 9.1188000000e+01 9.1188000000e+01 2.2245e-15 0.0000e+00
  9900012  1    3    3    0    0 +3.5934809865e+01 +2.4241952648e+01 +2.1541693646e+00 4.7787271044e+01 2.0000000000e+01 3.6914e-02 1.0000e+00
       12  1    3    3    0    0 -3.5934809865e+01 -2.4241952648e+01 -2.1541693646e+00 4.3400728956e+01 0.0000000000e+00 0.0000e+00 -1.0000e+00
</event>
<event>
 5      7 +2.9511900e-02 9.11880000e+01 7.81616400e-03 1.18400000e-01
      -11 -1    0    0    0    0 +0.0000000000e+00 +0.0000000000e+00 +4.5593999997e+01 4.5594000000e+01 5.1100000000e-04 0.0000e+00 1.0000e+00
       11 -1    0    0    0    0 -0.0000000000e+00 -0.0000000000e+00 -4.5593999997e+01 4.5594000000e+01 5.1100000000e-04 0.0000e+00 -1.0000e+00
       23  2    1    2    0    0 +0.0000000000e+00 +0.0000000000e+00 +0.0000000000e+00 9.1188000000e+01 9.1188000000e+01 7.0877e-14 0.0000e+00
  9900012  1    3    3    0    0 -4.1797762760e+00 +3.9027976047e+01 +1.8519444641e+01 4.7787271044e+01 2.0000000000e+01 3.1707e-02 1.0000e+00
       12  1    3    3    0    0 +4.1797762760e+00 -3.9027976047e+01 -1.8519444641e+01 4.3400728956e+01 0.0000000000e+00 0.0000e+00 -1.0000e+00
</event>
<event>
 5      1 +2.9511900e-02 9.11880000e+01 7.81616400e-03 1.18400000e-01
      -11 -1    0    0    0    0 +0.0000000000e+00 +0.0000000000e+00 +4.5593999997e+01 4.5594000000e+01 5.1100000000e-04 0.0000e+00 -1.0000e+00
       11 -1    0    0    0    0 -0.0000000000e+00 -0.0000000000e+00 -4.5593999997e+01 4.5594000000e+01 5.1100000000e-04 0.0000e+00 1.0000e+00
       23  2    1    2    0    0 +0.0000000000e+00 +0.0000000000e+00 +0.0000000000e+00 9.1188000000e+01 9.1188000000e+01 3.5052e-15 0.0000e+00
  9900012  1    3    3    0    0 +1.1285193732e+00 +4.2328743584e+01 +9.5198311174e+00 4.7787271044e+01 2.0000000000e+01 8.3822e-02 1.0000e+00
       12  1    3    3    0    0 -1.1285193732e+00 -4.2328743584e+01 -9.5198311174e+00 4.3400728956e+01 0.0000000000e+00 0.0000e+00 -1.0000e+00
</event>
<event>
 5      1 +2.9511900e-02 9.11880000e+01 7.81616400e-03 1.18400000e-01
      -11 -1    0    0    0    0 +0.0000000000e+00 +0.0000000000e+00 +4.5593999997e+01 4.5594000000e+01 5.1100000000e-04 0.0000e+00 1.0000e+00
       11 -1    0    0    0    0 -0.0000000000e+00 -0.0000000000e+00 -4.5593999997e+01 4.5594000000e+01 5.1100000000e-04 0.0000e+00 -1.0000e+00
       23  2    1    2    0    0 +0.0000000000e+00 +0.0000000000e+00 +0.0000000000e+00 9.1188000000e+01 9.1188000000e+01 6.3953e-14 0.0000e+00
  9900012  1    3    3    0    0 +1.6842625682e+01 +3.9287697401e+01 -7.5117286247e+00 4.7787271044e+01 2.0000000000e+01 1.9742e-01 1.0000e+00
       12  1    3    3    0    0 -1.6842625682e+01 -3.9287697401e+01 +7.5117286247e+00 4.3400728956e+01 0.0000000000e+00 0.0000e+00 -1.0000e+00
</event>
<event>
 5      4 +2.9511900e-02 9.11880000e+01 7.81616400e-03 1.18400000e-01
      -11 -1    0    0    0    0 +0.0000000000e+00 +0.0000000000e+00 +4.5593999997e+01 4.5594000000e+01 5.1100000000e-04 0.0000e+00 -1.0000e+00
       11 -1    0    0    0    0 -0.0000000000e+00 -0.0000000000e+00 -4.5593999997e+01 4.5594000000e+01 5.1100000000e-04 0.0000e+00 1.0000e+00
       23  2    1    2    0    0 +0.0000000000e+00 +0.0000000000e+00 +0.0000000000e+00 9.1188000000e+01 9.1188000000e+01 3.8344e-14 0.0000e+00
  9900012  1    3    3    0    0 +1.5669435299e+01 -2.0235516982e+01 +3.5051617990e+01 4.7787271044e+01 2.0000000000e+01 7.3437e-02 -1.0000e+00
      -12  1    3    3    0    0 -1.5669435299e+01 +2.0235516982e+01 -3.5051617990e+01 4.3400728956e+01 0.0000000000e+00 0.0000e+00 1.0000e+00
</event>
<event>
 5      8 +2.9511900e-02 9.11880000e+01 7.81616400e-03 1.18400000e-01
      -11 -1    0    0    0    0 +0.0000000000e+00 +0.0000000000e+00 +4.5593999997e+01 4.5594000000e+01 5.1100000000e-04 0.0000e+00 -1.0000e+00
       11 -1    0    0    0    0 -0.0000000000e+00 -0.0000000000e+00 -4.5593999997e+01 4.5594000000e+01 5.1100000000e-04 0.0000e+00 1.0000e+00
       23  2    1    2    0    0 +0.0000000000e+00 +0.0000000000e+00 +0.0000000000e+00 9.1188000000e+01 9.1188000000e+01 6.7116e-14 0.0000e+00
  9900012  1    3    3    0    0 -3.6455280464e+00 +3.9697573676e+01 +1.7159138771e+01 4.7787271044e+01 2.0000000000e+01 1.7466e-02 -1.0000e+00
      -12  1    3    3    0    0 +3.6455280464e+00 -3.9697573676e+01 -1.7159138771e+01 4.3400728956e+01 0.0000000000e+00 0.0000e+00 1.0000e+00
</event>
<event>
 5      1 +2.9511900e-02 9.11880000e+01 7.81616400e-03 1.18400000e-01
      -11 -1    0    0    0    0 +0.0000000000e+00 +0.0000000000e+00 +4.5593999997e+01 4.5594000000e+01 5.1100000000e-04 0.0000e+00 1.0000e+00
       11 -1    0    0    0    0 -0.0000000000e+00 -0.0000000000e+00 -4.5593999997e+01 4.5594000000e+01 5.1100000000e-04 0.0000e+00 -1.0000e+00
       23  2    1    2    0    0 +0.0000000000e+00 +0.0000000000e+00 +0.0000000000e+00 9.1188000000e+01 9.1188000000e+01 6.3840e-14 0.0000e+00
  9900012  1    3    3    0    0 +9.7785132638e+00 -2.3470808198e+01 +3.5172789408e+01 4.7787271044e+01 2.0000000000e+01 1.3883e-01 1.0000e+00
       12  1    3    3    0    0 -9.7785132638e+00 +2.3470808198e+01 -3.5172789408e+01 4.3400728956e+01 0.0000000000e+00 0.0000e+00 -1.0000e+00
</event>
<event>
 5      4 +2.9511900e-02 9.11880000e+01 7.81616400e-03 1.18400000e-01
      -11 -1    0    0    0    0 +0.0000000000e+00 +0.0000000000e+00 +4.5593999997e+01 4.5594000000e+01 5.1100000000e-04 0.0000e+00 1.0000e+00
       11 -1    0    0    0    0 -0.0000000000e+00 -0.0000000000e+00 -4.5593999997e+01 4.5594000000e+01 5.1100000000e-04 0.0000e+00 -1.0000e+00
       23  2    1    2    0    0 +0.0000000000e+00 +0.0000000000e+00 +0.0000000000e+00 9.1188000000e+01 9.1188000000e+01 2.2070e-14 0.0000e+00
  9900012  1    3    3    0    0 +2.7908071810e+01 +5.6990661222e+00 -3.2745739373e+01 4.7787271044e+01 2.0000000000e+01 1.4637e-02 -1.0000e+00
      -12  1    3    3    0    0 -2.7908071810e+01 -5.6990661222e+00 +3.2745739373e+01 4.3400728956e+01 0.0000000000e+00 0.0000e+00 1.0000e+00
</event>
<event>
 5      5 +2.9511900e-02 9.11880000e+01 7.81616400e-03 1.18400000e-01
      -11 -1    0    0    0    0 +0.0000000000e+00 +0.0000000000e+00 +4.5593999997e+01 4.5594000000e+01 5.1100000000e-04 0.0000e+00 -1.0000e+00
       11 -1    0    0    0    0 -0.0000000000e+00 -0.0000000000e+00 -4.5593999997e+01 4.5594000000e+01 5.1100000000e-04 0.0000e+00 1.0000e+00
       23  2    1    2    0    0 +0.0000000000e+00 +0.0000000000e+00 +0.0000000000e+00 9.1188000000e+01 9.1188000000e+01 1.0343e-13 0.0000e+00
  9900012  1    3    3    0    0 -1.9517475961e+01 -1.6432567682e+01 -3.5109288306e+01 4.7787271044e+01 2.0000000000e+01 3.1119e-03 1.0000e+00
       12  1    3    3    0    0 +1.9517475961e+01 +1.6432567682e+01 +3.5109288306e+01 4.3400728956e+01 0.0000000000e+00 0.0000e+00 -1.0000e+00
</event>
<event>
 5      4 +2.9511900e-02 9.11880000e+01 7.81616400e-03 1.18400000e-01
      -11 -1    0    0    0    0 +0.0000000000e+00 +0.0000000000e+00 +4.5593999997e+01 4.5594000000e+01 5.1100000000e-04 0.0000e+00 1.0000e+00
       11 -1    0    0    0    0 -0.0000000000e+00 -0.0000000000e+00 -4.5593999997e+01 4.5594000000e+01 5.1100000000e-04 0.0000e+00 -1.0000e+00
       23  2    1    2    0    0 +0.0000000000e+00 +0.0000000000e+00 +0.0000000000e+00 9.1188000000e+01 9.1188000000e+01 2.4683e-14 0.0000e+00
  9900012  1    3    3    0    0 +4.4327586747e+00 -4.3006728310e+01 +3.7941065440e+00 4.7787271044e+01 2.0000000000e+01 8.6405e-02 -1.0000e+00
      -12  1    3    3    0    0 -4.4327586747e+00 +4.3006728310e+01 -3.7941065440e+00 4.3400728956e+01 0.0000000000e+00 0.0000e+00 1.0000e+00
</event>
<event>
 5      1 +2.9511900e-02 9.11880000e+01 7.81616400e-03 1.18400000e-01
      -11 -1    0    0    0    0 +0.0000000000e+00 +0.0000000000e+00 +4.5593999997e+01 4.5594000000e+01 5.1100000000e-04 0.0000e+00 1.0000e+00
       11 -1    0    0    0    0 -0.0000000000e+00 -0.0000000000e+00 -4.5593999997e+01 4.5594000000e+01 5.1100000000e-04 0.0000e+00 -1.0000e+00
       23  2    1    2    0    0 +0.0000000000e+00 +0.0000000000e+00 +0.0000000000e+00 9.1188000000e+01 9.1188000000e+01 2.4348e-14 0.0000e+00
  9900012  1    3    3    0    0 +7.6101081476e+00 +2.7107341791e+00 +4.2642249566e+01 4.7787271044e+01 2.0000000000e+01 1.5399e-01 1.0000e+00
       12  1    3    3    0    0 -7.6101081476e+00 -2.7107341791e+00 -4.2642249566e+01 4.3400728956e+01 0.0000000000e+00 0.0000e+00 -1.0000e+00
</event>
<event>
 5      3 +2.9511900e-02 9.11880000e+01 7.81616400e-03 1.18400000e-01
      -11 -1    0    0    0    0 +0.0000000000e+00 +0.0000000000e+00 +4.5593999997e+01 4.5594000000e+01 5.1100000000e-04 0.0000e+00 1.0000e+00
       11 -1    0    0    0    0 -0.0000000000e+00 -0.0000000000e+00 -4.5593999997e+01 4.5594000000e+01 5.1100000000e-04 0.0000e+00 -1.0000e+00
       23  2    1    2    0    0 +0.0000000000e+00 +0.0000000000e+00 +0.0000000000e+00 9.1188000000e+01 9.1188000000e+01 7.9932e-14 0.0000e+00
  9900012  1    3    3    0    0 +1.8050373666e+01 -3.2198986881e+01 +2.2826136954e+01 4.7787271044e+01 2.0000000000e+01 3.1576e-03 1.0000e+00
       12  1    3    3    0    0 -1.8050373666e+01 +3.2198986881e+01 -2.2826136954e+01 4.3400728956e+01 0.0000000000e+00 0.0000e+00 -1.0000e+00
</event>
<event>
 5      3 +2.9511900e-02 9.11880000e+01 7.81616400e-03 1.18400000e-01
      -11 -1    0    0    0    0 +0.0000000000e+00 +0.0000000000e+00 +4.5593999997e+01 4.5594000000e+01 5.1100000000e-04 0.0000e+00 -1.0000e+00
       11 -1    0    0    0    0 -0.0000000000e+00 -0.0000000000e+00 -4.5593999997e+01 4.5594000000e+01 5.1100000000e-04 0.0000e+00 1.0000e+00
       23  2    1    2    0    0 +0.0000000000e+00 +0.0000000000e+00 +0.0000000000e+00 9.1188000000e+01 9.1188000000e+01 1.3324e-13 0.0000e+00
  9900012  1    3    3    0    0 -1.9171284699e+01 +3.8912712560e+01 -1.3732873155e+00 4.7787271044e+01 2.0000000000e+01 2.6719e-02 1.0000e+00
       12  1    3    3    0    0 +1.9171284699e+01 -3.8912712560e+01 +1.3732873155e+00 4.3400728956e+01 0.0000000000e+00 0.0000e+00 -1.0000e+00
</event>
<event>
 5      4 +2.9511900e-02 9.11880000e+01 7.81616400e-03 1.18400000e-01
      -11 -1    0    0    0    0 +0.0000000000e+00 +0.0000000000e+00 +4.5593999997e+01 4.5594000000e+01 5.1100000000e-04 0.0000e+00 -1.0000e+00
       11 -1    0    0    0    0 -0.0000000000e+00 -0.0000000000e+00 -4.5593999997e+01 4.5594000000e+01 5.1100000000e-04 0.0000e+00 1.0000e+00
       23  2    1    2    0    0 +0.0000000000e+00 +0.0000000000e+00 +0.0000000000e+00 9.1188000000e+01 9.1188000000e+01 8.7242e-14 0.0000e+00
  9900012  1    3    3    0    0 -7.7566495721e+00 +3.8712569933e+01 +1.8022058442e+01 4.7787271044e+01 2.0000000000e+01 5.1571e-02 -1.0000e+00
      -12  1    3    3    0    0 +7.7566495721e+00 -3.8712569933e+01 -1.8022058442e+01 4.3400728956e+01 0.0000000000e+00 0.0000e+00 1.0000e+00
</event>
<event>
 5      1 +2.9511900e-02 9.11880000e+01 7.81616400e-03 1.18400000e-01
      -11 -1    0    0    0    0 +0.0000000000e+00 +0.0000000000e+00 +4.5593999997e+01 4.5594000000e+01 5.1100000000e-04 0.0000e+00 -1.0000e+00
       11 -1    0    0    0    0 -0.0000000000e+00 -0.0000000000e+00 -4.5593999997e+01 4.5594000000e+01 5.1100000000e-04 0.0000e+00 1.0000e+00
       23  2    1    2    0    0 +0.0000000000e+00 +0.0000000000e+00 +0.0000000000e+00 9.1188000000e+01 9.1188000000e+01 6.0072e-14 0.0000e+00
  9900012  1    3    3    0    0 +1.3098942485e+01 +2.9413448362e+01 -2.9101375141e+01 4.7787271044e+01 2.0000000000e+01 1.3733e-01 1.0000e+00
       12  1    3    3    0    0 -1.3098942485e+01 -2.9413448362e+01 +2.9101375141e+01 4.3400728956e+01 0.0000000000e+00 0.0000e+00 -1.0000e+00
</event>
<event>
 5      2 +2.9511900e-02 9.11880000e+01 7.81616400e-03 1.18400000e-01
      -11 -1    0    0    0    0 +0.0000000000e+00 +0.0000000000e+00 +4.5593999997e+01 4.5594000000e+01 5.1100000000e-04 0.0000e+00 -1.0000e+00
       11 -1    0    0    0    0 -0.0000000000e+00 -0.0000000000e+00 -4.5593999997e+01 4.5594000000e+01 5.1100000000e-04 0.0000e+00 1.0000e+00
       23  2    1    2    0    0 +0.0000000000e+00 +0.0000000000e+00 +0.0000000000e+00 9.1188000000e+01 9.1188000000e+01 4.3207e-14 0.0000e+00
  9900012  1    3    3    0    0 +9.2288612508e-01 -2.9838941535e+01 +3.1502525663e+01 4.7787271044e+01 2.0000000000e+01 1.4978e-03 -1.0000e+00
      -12  1    3    3    0    0 -9.2288612508e-01 +2.9838941535e+01 -3.1502525663e+01 4.3400728956e+01 0.0000000000e+00 0.0000e+00 1.0000e+00
</event>
<event>
 5      1 +2.9511900e-02 9.11880000e+01 7.81616400e-03 1.18400000e-01
      -11 -1    0    0    0    0 +0.0000000000e+00 +0.0000000000e+00 +4.5593999997e+01 4.5594000000e+01 5.1100000000e-04 0.0000e+00 1.0000e+00
       11 -1    0    0    0    0 -0.0000000000e+00 -0.0000000000e+00 -4.5593999997e+01 4.5594000000e+01 5.1100000000e-04 0.0000e+00 -1.0000e+00
       23  2    1    2    0    0 +0.0000000000e+00 +0.0000000000e+00 +0.0000000000e+00 9.1188000000e+01 9.1188000000e+01 5.8933e-14 0.0000e+00
  9900012  1    3    3    0    0 +6.9656087139e+00 +1.0672449091e+01 +4.1487376388e+01 4.7787271044e+01 2.0000000000e+01 8.3902e-02 1.0000e+00
       12  1    3    3    0    0 -6.9656087139e+00 -1.0672449091e+01 -4.1487376388e+01 4.3400728956e+01 0.0000000000e+00 0.0000e+00 -1.0000e+00
</event>
<event>
 5      6 +2.9511900e-02 9.11880000e+01 7.81616400e-03 1.18400000e-01
      -11 -1    0    0    0    0 +0.0000000000e+00 +0.0000000000e+00 +4.5593999997e+01 4.5594000000e+01 5.1100000000e-04 0.0000e+00 -1.0000e+00
       11 -1    0    0    0    0 -0.0000000000e+00 -0.0000000000e+00 -4.5593999997e+01 4.5594000000e+01 5.1100000000e-04 0.0000e+00 1.0000e+00
       23  2    1    2    0    0 +0.0000000000e+00 +0.0000000000e+00 +0.0000000000e+00 9.1188000000e+01 9.1188000000e+01 4.0825e-14 0.0000e+00
  9900012  1    3    3    0    0 +4.0164652484e+01 -1.0970769118e+01 +1.2250150598e+01 4.7787271044e+01 2.0000000000e+01 1.6101e-01 -1.0000e+00
      -12  1    3    3    0    0 -4.0164652484e+01 +1.0970769118e+01 -1.2250150598e+01 4.3400728956e+01 0.0000000000e+00 0.0000e+00 1.0000e+00
</event>
<event>
 5      5 +2.9511900e-02 9.11880000e+01 7.81616400e-03 1.18400000e-01
      -11 -1    0    0    0    0 +0.0000000000e+00 +0.0000000000e+00 +4.5593999997e+01 4.5594000000e+01 5.1100000000e-04 0.0000e+00 -1.0000e+00
       11 -1    0    0    0    0 -0.0000000000e+00 -0.0000000000e+00 -4.5593999997e+01 4.5594000000e+01 5.1100000000e-04 0.0000e+00 1.0000e+00
       23  2    1    2    0    0 +0.0000000000e+00 +0.0000000000e+00 +0.0000000000e+00 9.1188000000e+01 9.1188000000e+01 2.6252e-13 0.0000e+00
  9900012  1    3    3    0    0 -3.5897800591e+01 +2.2557652138e+01 +9.2802756743e+00 4.7787271044e+01 2.0000000000e+01 3.6025e-02 1.0000e+00
       12  1    3    3    0    0 +3.5897800591e+01 -2.2557652138e+01 -9.2802756743e+00 4.3400728956e+01 0.0000000000e+00 0.0000e+00 -1.0000e+00
</event>
<event>
 5      3 +2.9511900e-02 9.11880000e+01 7.81616400e-03 1.18400000e-01
      -11 -1    0    0    0    0 +0.0000000000e+00 +0.0000000000e+00 +4.5593999997e+01 4.5594000000e+01 5.1100000000e-04 0.0000e+00 1.0000e+00
       11 -1    0    0    0    0 -0.0000000000e+00 -0.0000000000e+00 -4.5593999997e+01 4.5594000000e+01 5.1100000000e-04 0.0000e+00 -1.0000e+00
       23  2    1    2    0    0 +0.0000000000e+00 +0.0000000000e+00 +0.0000000000e+00 9.1188000000e+01 9.1188000000e+01 1.0316e-14 0.0000e+00
  9900012  1    3    3    0    0 +2.9794496329e+01 +2.1112496852e+01 +2.3455782635e+01 4.7787271044e+01 2.0000000000e+01 3.6658e-02 1.0000e+00
       12  1    3    3    0    0 -2.9794496329e+01 -2.1112496852e+01 -2.3455782635e+01 4.3400728956e+01 0.0000000000e+00 0.0000e+00 -1.0000e+00
</event>
<event>
 5      4 +2.9511900e-02 9.11880000e+01 7.81616400e-03 1.18400000e-01
      -11 -1    0    0    0    0 +0.0000000000e+00 +0.0000000000e+00 +4.5593999997e+01 4.5594000000e+01 5.1100000000e-04 0.0000e+00 1.0000e+00
       11 -1    0    0    0    0 -0.0000000000e+00 -0.0000000000e+00 -4.5593999997e+01 4.5594000000e+01 5.1100000000e-04 0.0000e+00 -1.0000e+00
       23  2    1    2    0    0 +0.0000000000e+00 +0.0000000000e+00 +0.0000000000e+00 9.1188000000e+01 9.1188000000e+01 1.5205e-14 0.0000e+00
  9900012  1    3    3    0    0 -2.0649315017e+01 -3.7021588640e+01 -9.3075795882e+00 4.7787271044e+01 2.0000000000e+01 1.0842e-01 -1.0000e+00
      -12  1    3    3    0    0 +2.0649315017e+01 +3.7021588640e+01 +9.3075795882e+00 4.3400728956e+01 0.0000000000e+00 0.0000e+00 1.0000e+00
</event>
<event>
 5      7 +2.9511900e-02 9.11880000e+01 7.81616400e-03 1.18400000e-01
      -11 -1    0    0    0    0 +0.0000000000e+00 +0.0000000000e+00 +4.5593999997e+01 4.5594000000e+01 5.1100000000e-04 0.0000e+00 -1.0000e+00
       11 -1    0    0    0    0 -0.0000000000e+00 -0.0000000000e+00 -4.5593999997e+01 4.5594000000e+01 5.1100000000e-04 0.0000e+00 1.0000e+00
       23  2    1    2    0    0 +0.0000000000e+00 +0.0000000000e+00 +0.0000000000e+00 9.1188000000e+01 9.1188000000e+01 3.0583e-14 0.0000e+00
  9900012  1    3    3    0    0 +5.0861722611e+00 -5.2909620022e+00 -4.2775692241e+01 4.7787271044e+01 2.0000000000e+01 1.4020e-01 1.0000e+00
       12  1    3    3    0    0 -5.0861722611e+00 +5.2909620022e+00 +4.2775692241e+01 4.3400728956e+01 0.0000000000e+00 0.0000e+00 -1.0000e+00
</event>
<event>
 5      7 +2.9511900e-02 9.11880000e+01 7.81616400e-03 1.18400000e-01
      -11 -1    0    0    0    0 +0.0000000000e+00 +0.0000000000e+00 +4.5593999997e+01 4.5594000000e+01 5.1100000000e-04 0.0000e+00 1.0000e+00
       11 -1    0    0    0    0 -0.0000000000e+00 -0.0000000000e+00 -4.5593999997e+01 4.5594000000e+01 5.1100000000e-04 0.0000e+00 -1.0000e+00
       23  2    1    2    0    0 +0.0000000000e+00 +0.0000000000e+00 +0.0000000000e+00 9.1188000000e+01 9.1188000000e+01 1.1610e-13 0.0000e+00
  9900012  1    3    3    0    0 -3.5726071866e+00 +1.0370416643e+01 +4.1991835045e+01 4.7787271044e+01 2.0000000000e+01 1.5675e-02 1.0000e+00
       12  1    3    3    0    0 +3.5726071866e+00 -1.0370416643e+01 -4.1991835045e+01 4.3400728956e+01 0.0000000000e+00 0.0000e+00 -1.0000e+00
</event>
<event>
 5      6 +2.9511900e-02 9.11880000e+01 7.81616400e-03 1.18400000e-01
      -11 -1    0    0    0    0 +0.0000000000e+00 +0.0000000000e+00 +4.5593999997e+01 4.5594000000e+01 5.1100000000e-04 0.0000e+00 -1.0000e+00
       11 -1    0    0    0    0 -0.0000000000e+00 -0.0000000000e+00 -4.5593999997e+01 4.5594000000e+01 5.1100000000e-04 0.0000e+00 1.0000e+00
       23  2    1    2    0    0 +0.0000000000e+00 +0.0000000000e+00 +0.0000000000e+00 9.1188000000e+01 9.1188000000e+01 9.1028e-14 0.0000e+00
  9900012  1    3    3    0    0 -3.8176319747e+01 -5.4272746284e+00 +1.9918247276e+01 4.7787271044e+01 2.0000000000e+01 2.2606e-02 -1.0000e+00
      -12  1    3    3    0    0 +3.8176319747e+01 +5.4272746284e+00 -1.9918247276e+01 4.3400728956e+01 0.0000000000e+00 0.0000e+00 1.0000e+00
</event>
<event>
 5      5 +2.9511900e-02 9.11880000e+01 7.81616400e-03 1.18400000e-01
      -11 -1    0    0    0    0 +0.0000000000e+00 +0.0000000000e+00 +4.5593999997e+01 4.5594000000e+01 5.1100000000e-04 0.0000e+00 -1.0000e+00
       11 -1    0    0    0    0 -0.0000000000e+00 -0.0000000000e+00 -4.5593999997e+01 4.5594000000e+01 5.1100000000e-04 0.0000e+00 1.0000e+00
       23  2    1    2    0    0 +0.0000000000e+00 +0.0000000000e+00 +0.0000000000e+00 9.1188000000e+01 9.1188000000e+01 2.2731e-14 0.0000e+00
  9900012  1    3    3    0    0 +6.9565807775e+00 -4.2358572617e+01 +6.4016078945e+00 4.7787271044e+01 2.0000000000e+01 9.3020e-02 -1.0000e+00
       12  1    3    3    0    0 -6.9565807775e+00 +4.2358572617e+01 -6.4016078945e+00 4.3400728956e+01 0.0000000000e+00 0.0000e+00 -1.0000e+00
</event>
<event>
 5      3 +2.9511900e-02 9.11880000e+01 7.81616400e-03 1.18400000e-01
      -11 -1    0    0    0    0 +0.0000000000e+00 +0.0000000000e+00 +4.5593999997e+01 4.5594000000e+01 5.1100000000e-04 0.0000e+00 -1.0000e+00
       11 -1    0    0    0    0 -0.0000000000e+00 -0.0000000000e+00 -4.5593999997e+01 4.5594000000e+01 5.1100000000e-04 0.0000e+00 1.0000e+00
       23  2    1    2    0    0 +0.0000000000e+00 +0.0000000000e+00 +0.0000000000e+00 9.1188000000e+01 9.1188000000e+01 3.0849e-13 0.0000e+00
  9900012  1    3    3    0    0 +1.0692695559e+01 +3.8965411933e+01 -1.5842544253e+01 4.7787271044e+01 2.0000000000e+01 2.5364e-02 1.0000e+00
       12  1    3    3    0    0 -1.0692695559e+01 -3.8965411933e+01 +1.5842544253e+01 4.3400728956e+01 0.0000000000e+00 0.0000e+00 -1.0000e+00
</event>
<event>
 5      2 +2.9511900e-02 9.11880000e+01 7.81616400e-03 1.18400000e-01
      -11 -1    0    0    0    0 +0.0000000000e+00 +0.0000000000e+00 +4.5593999997e+01 4.5594000000e+01 5.1100000000e-04 0.0000e+00 1.0000e+00
       11 -1    0    0    0    0 -0.0000000000e+00 -0.0000000000e+00 -4.5593999997e+01 4.5594000000e+01 5.1100000000e-04 0.0000e+00 -1.0000e+00
       23  2    1    2    0    0 +0.0000000000e+00 +0.0000000000e+00 +0.0000000000e+00 9.1188000000e+01 9.1188000000e+01 5.9115e-14 0.0000e+00
  9900012  1    3    3    0    0 +7.3865200772e+00 -2.7810610825e+01 -3.2490498927e+01 4.7787271044e+01 2.0000000000e+01 2.8382e-01 -1.0000e+00
      -12  1    3    3    0    0 -7.3865200772e+00 +2.7810610825e+01 +3.2490498927e+01 4.3400728956e+01 0.0000000000e+00 0.0000e+00 1.0000e+00
</event>
<event>
 5      6 +2.9511900e-02 9.11880000e+01 7.81616400e-03 1.18400000e-01
      -11 -1    0    0    0    0 +0.0000000000e+00 +0.0000000000e+00 +4.5593999997e+01 4.5594000000e+01 5.1100000000e-04 0.0000e+00 -1.0000e+00
       11 -1    0    0    0    0 -0.0000000000e+00 -0.0000000000e+00 -4.5593999997e+01 4.5594000000e+01 5.1100000000e-04 0.0000e+00 1.0000e+00
       23  2    1    2    0    0 +0.0000000000e+00 +0.0000000000e+00 +0.0000000000e+00 9.1188000000e+01 9.1188000000e+01 6.1841e-14 0.0000e+00
  9900012  1    3    3    0    0 +1.8210783225e+01 -1.7429884911e+01 -3.5329729127e+01 4.7787271044e+01 2.0000000000e+01 5.7138e-01 -1.0000e+00
      -12  1    3    3    0    0 -1.8210783225e+01 +1.7429884911e+01 +3.5329729127e+01 4.3400728956e+01 0.0000000000e+00 0.0000e+00 1.0000e+00
</event>
<event>
 5      2 +2.9511900e-02 9.11880000e+01 7.81616400e-03 1.18400000e-01
      -11 -1    0    0    0    0 +0.0000000000e+00 +0.0000000000e+00 +4.5593999997e+01 4.5594000000e+01 5.1100000000e-04 0.0000e+00 1.0000e+00
       11 -1    0    0    0    0 -0.0000000000e+00 -0.0000000000e+00 -4.5593999997e+01 4.5594000000e+01 5.1100000000e-04 0.0000e+00 -1.0000e+00
       23  2    1    2    0    0 +0.0000000000e+00 +0.0000000000e+00 +0.0000000000e+00 9.1188000000e+01 9.1188000000e+01 5.7951e-14 0.0000e+00
  9900012  1    3    3    0    0 +5.3863153122e+00 +1.7745770673e+01 -3.9238992144e+01 4.7787271044e+01 2.0000000000e+01 8.9703e-02 -1.0000e+00
      -12  1    3    3    0    0 -5.3863153122e+00 -1.7745770673e+01 +3.9238992144e+01 4.3400728956e+01 0.0000000000e+00 0.0000e+00 1.0000e+00
</event>
<event>
 5      8 +2.9511900e-02 9.11880000e+01 7.81616400e-03 1.18400000e-01
      -11 -1    0    0    0    0 +0.0000000000e+00 +0.0000000000e+00 +4.5593999997e+01 4.5594000000e+01 5.1100000000e-04 0.0000e+00 -1.0000e+00
       11 -1    0    0    0    0 -0.0000000000e+00 -0.0000000000e+00 -4.5593999997e+01 4.5594000000e+01 5.1100000000e-04 0.0000e+00 1.0000e+00
       23  2    1    2    0    0 +0.0000000000e+00 +0.0000000000e+00 +0.0000000000e+00 9.1188000000e+01 9.1188000000e+01 5.6715e-14 0.0000e+00
  9900012  1    3    3    0    0 +3.3880184463e+01 -2.9813392038e+00 +2.6960489446e+01 4.7787271044e+01 2.0000000000e+01 3.6733e-02 -1.0000e+00
      -12  1    3    3    0    0 -3.3880184463e+01 +2.9813392038e+00 -2.6960489446e+01 4.3400728956e+01 0.0000000000e+00 0.0000e+00 1.0000e+00
</event>
<event>
 5      1 +2.9511900e-02 9.11880000e+01 7.81616400e-03 1.18400000e-01
      -11 -1    0    0    0    0 +0.0000000000e+00 +0.0000000000e+00 +4.5593999997e+01 4.5594000000e+01 5.1100000000e-04 0.0000e+00 -1.0000e+00
       11 -1    0    0    0    0 -0.0000000000e+00 -0.0000000000e+00 -4.5593999997e+01 4.5594000000e+01 5.1100000000e-04 0.0000e+00 1.0000e+00
       23  2    1    2    0    0 +0.0000000000e+00 +0.0000000000e+00 +0.0000000000e+00 9.1188000000e+01 9.1188000000e+01 2.7915e-14 0.0000e+00
  9900012  1    3    3    0    0 -6.2703171618e+00 +4.0903850275e+01 -1.3083632113e+01 4.7787271044e+01 2.0000000000e+01 1.4995e-01 1.0000e+00
       12  1    3    3    0    0 +6.2703171618e+00 -4.0903850275e+01 +1.3083632113e+01 4.3400728956e+01 0.0000000000e+00 0.0000e+00 -1.0000e+00
</event>
<event>
 5      5 +2.9511900e-02 9.11880000e+01 7.81616400e-03 1.18400000e-01
      -11 -1    0    0    0    0 +0.0000000000e+00 +0.0000000000e+00 +4.5593999997e+01 4.5594000000e+01 5.1100000000e-04 0.0000e+00 1.0000e+00
       11 -1    0    0    0    0 -0.0000000000e+00 -0.0000000000e+00 -4.5593999997e+01 4.5594000000e+01 5.1100000000e-04 0.0000e+00 -1.0000e+00
       23  2    1    2    0    0 +0.0000000000e+00 +0.0000000000e+00 +0.0000000000e+00 9.1188000000e+01 9.1188000000e+01 2.9063e-14 0.0000e+00
  9900012  1    3    3    0    0 +3.5961455542e+01 -1.9989220396e+01 +1.3814052886e+01 4.7787271044e+01 2.0000000000e+01 1.3064e-01 1.0000e+00
       12  1    3    3    0    0 -3.5961455542e+01 +1.9989220396e+01 -1.3814052886e+01 4.3400728956e+01 0.0000000000e+00 0.0000e+00 -1.0000e+00
</event>
<event>
 5      3 +2.9511900e-02 9.11880000e+01 7.81616400e-03 1.18400000e-01
      -11 -1    0    0    0    0 +0.0000000000e+00 +0.0000000000e+00 +4.5593999997e+01 4.5594000000e+01 5.1100000000e-04 0.0000e+00 1.0000e+00
       11 -1    0    0    0    0 -0.0000000000e+00 -0.0000000000e+00 -4.5593999997e+01 4.5594000000e+01 5.1100000000e-04 0.0000e+00 -1.0000e+00
       23  2    1    2    0    0 +0.0000000000e+00 +0.0000000000e+00 +0.0000000000e+00 9.1188000000e+01 9.1188000000e+01 8.9481e-14 0.0000e+00
  9900012  1    3    3    0    0 +6.3283298437e+00 -2.0319592463e+00 +4.2888770755e+01 4.7787271044e+01 2.0000000000e+01 3.9189e-02 1.0000e+00
       12  1    3    3    0    0 -6.3283298437e+00 +2.0319592463e+00 -4.2888770755e+01 4.3400728956e+01 0.0000000000e+00 0.0000e+00 -1.0000e+00
</event>
<event>
 5      3 +2.9511900e-02 9.11880000e+01 7.81616400e-03 1.18400000e-01
      -11 -1    0    0    0    0 +0.0000000000e+00 +0.0000000000e+00 +4.5593999997e+01 4.5594000000e+01 5.1100000000e-04 0.0000e+00 -1.0000e+00
       11 -1    0    0    0    0 -0.0000000000e+00 -0.0000000000e+00 -4.5593999997e+01 4.5594000000e+01 5.1100000000e-04 0.0000e+00 1.0000e+00
       23  2    1    2    0    0 +0.0000000000e+00 +0.0000000000e+00 +0.0000000000e+00 9.1188000000e+01 9.1188000000e+01 8.8239e-15 0.0000e+00
  9900012  1    3    3    0    0 +3.4396693009e+01 +2.6460945869e+01 -5.5599249850e-01 4.7787271044e+01 2.0000000000e+01 5.6638e-02 1.0000e+00
       12  1    3    3    0    0 -3.4396693009e+01 -2.6460945869e+01 +5.5599249850e-01 4.3400728956e+01 0.0000000000e+00 0.0000e+00 -1.0000e+00
</event>
<event>
 5      2 +2.9511900e-02 9.11880000e+01 7.81616400e-03 1.18400000e-01
      -11 -1    0    0    0    0 +0.0000000000e+00 +0.0000000000e+00 +4.5593999997e+01 4.5594000000e+01 5.1100000000e-04 0.0000e+00 1.0000e+00
       11 -1    0    0    0    0 -0.0000000000e+00 -0.0000000000e+00 -4.5593999997e+01 4.5594000000e+01 5.1100000000e-04 0.0000e+00 -1.0000e+00
       23  2    1    2    0    0 +0.0000000000e+00 +0.0000000000e+00 +0.0000000000e+00 9.1188000000e+01 9.1188000000e+01 6.1584e-15 0.0000e+00
  9900012  1    3    3    0    0 +4.1422873127e+00 +3.5295184364e+01 -2.4914146392e+01 4.7787271044e+01 2.0000000000e+01 6.1862e-02 -1.0000e+00
      -12  1    3    3    0    0 -4.1422873127e+00 -3.5295184364e+01 +2.4914146392e+01 4.3400728956e+01 0.0000000000e+00 0.0000e+00 1.0000e+00
</event>
<event>
 5      7 +2.9511900e-02 9.11880000e+01 7.81616400e-03 1.18400000e-01
      -11 -1    0    0    0    0 +0.0000000000e+00 +0.0000000000e+00 +4.5593999997e+01 4.5594000000e+01 5.1100000000e-04 0.0000e+00 -1.0000e+00
       11 -1    0    0    0    0 -0.0000000000e+00 -0.0000000000e+00 -4.5593999997e+01 4.5594000000e+01 5.1100000000e-04 0.0000e+00 1.0000e+00
       23  2    1    2    0    0 +0.0000000000e+00 +0.0000000000e+00 +0.0000000000e+00 9.1188000000e+01 9.1188000000e+01 8.5731e-16 0.0000e+00
  9900012  1    3    3    0    0 +7.6402464435e+00 +4.0744261609e+01 -1.2851266634e+01 4.7787271044e+01 2.0000000000e+01 4.9487e-02 1.0000e+00
       12  1    3    3    0    0 -7.6402464435e+00 -4.0744261609e+01 +1.2851266634e+01 4.3400728956e+01 0.0000000000e+00 0.0000e+00 -1.0000e+00
</event>
<event>
 5      3 +2.9511900e-02 9.11880000e+01 7.81616400e-03 1.18400000e-01
      -11 -1    0    0    0    0 +0.0000000000e+00 +0.0000000000e+00 +4.5593999997e+01 4.5594000000e+01 5.1100000000e-04 0.0000e+00 1.0000e+00
       11 -1    0    0    0    0 -0.0000000000e+00 -0.0000000000e+00 -4.5593999997e+01 4.5594000000e+01 5.1100000000e-04 0.0000e+00 -1.0000e+00
       23  2    1    2    0    0 +0.0000000000e+00 +0.0000000000e+00 +0.0000000000e+00 9.1188000000e+01 9.1188000000e+01 1.9966e-14 0.0000e+00
  9900012  1    3    3    0    0 +3.3469249539e+01 +7.5403971122e+00 -2.6581478901e+01 4.7787271044e+01 2.0000000000e+01 5.0542e-02 1.0000e+00
       12  1    3    3    0    0 -3.3469249539e+01 -7.5403971122e+00 +2.6581478901e+01 4.3400728956e+01 0.0000000000e+00 0.0000e+00 -1.0000e+00
</event>
<event>
 5      3 +2.9511900e-02 9.11880000e+01 7.81616400e-03 1.18400000e-01
      -11 -1    0    0    0    0 +0.0000000000e+00 +0.0000000000e+00 +4.5593999997e+01 4.5594000000e+01 5.1100000000e-04 0.0000e+00 1.0000e+00
       11 -1    0    0    0    0 -0.0000000000e+00 -0.0000000000e+00 -4.5593999997e+01 4.5594000000e+01 5.1100000000e-04 0.0000e+00 -1.0000e+00
       23  2    1    2    0    0 +0.0000000000e+00 +0.0000000000e+00 +0.0000000000e+00 9.1188000000e+01 9.1188000000e+01 1.9826e-13 0.0000e+00
  9900012  1    3    3    0    0 +3.7478550742e+01 +6.8480260881e+00 +2.0786679553e+01 4.7787271044e+01 2.0000000000e+01 2.1257e-01 1.0000e+00
       12  1    3    3    0    0 -3.7478550742e+01 -6.8480260881e+00 -2.0786679553e+01 4.3400728956e+01 0.0000000000e+00 0.0000e+00 -1.0000e+00
</event>
<event>
 5      6 +2.9511900e-02 9.11880000e+01 7.81616400e-03 1.18400000e-01
      -11 -1    0    0    0    0 +0.0000000000e+00 +0.0000000000e+00 +4.5593999997e+01 4.5594000000e+01 5.1100000000e-04 0.0000e+00 -1.0000e+00
       11 -1    0    0    0    0 -0.0000000000e+00 -0.0000000000e+00 -4.5593999997e+01 4.5594000000e+01 5.1100000000e-04 0.0000e+00 1.0000e+00
       23  2    1    2    0    0 +0.0000000000e+00 +0.0000000000e+00 +0.0000000000e+00 9.1188000000e+01 9.1188000000e+01 4.0922e-13 0.0000e+00
  9900012  1    3    3    0    0 +1.4371536173e+01 -1.9121307188e+01 +3.6214055743e+01 4.7787271044e+01 2.0000000000e+01 1.5871e-01 -1.0000e+00
      -12  1    3    3    0    0 -1.4371536173e+01 +1.9121307188e+01 -3.6214055743e+01 4.3400728956e+01 0.0000000000e+00 0.0000e+00 1.0000e+00
</event>
<event>
 5      4 +2.9511900e-02 9.11880000e+01 7.81616400e-03 1.18400000e-01
      -11 -1    0    0    0    0 +0.0000000000e+00 +0.0000000000e+00 +4.5593999997e+01 4.5594000000e+01 5.1100000000e-04 0.0000e+00 1.0000e+00
       11 -1    0    0    0    0 -0.0000000000e+00 -0.0000000000e+00 -4.5593999997e+01 4.5594000000e+01 5.1100000000e-04 0.0000e+00 -1.0000e+00
       23  2    1    2    0    0 +0.0000000000e+00 +0.0000000000e+00 +0.0000000000e+00 9.1188000000e+01 9.1188000000e+01 8.1771e-14 0.0000e+00
  9900012  1    3    3    0    0 -1.2881793042e+00 -9.5772275666e+00 -4.2311234679e+01 4.7787271044e+01 2.0000000000e+01 3.7853e-02 -1.0000e+00
      -12  1    3    3    0    0 +1.2881793042e+00 +9.5772275666e+00 +4.2311234679e+01 4.3400728956e+01 0.0000000000e+00 0.0000e+00 1.0000e+00
</event>
<event>
 5      6 +2.9511900e-02 9.11880000e+01 7.81616400e-03 1.18400000e-01
      -11 -1    0    0    0    0 +0.0000000000e+00 +0.0000000000e+00 +4.5593999997e+01 4.5594000000e+01 5.1100000000e-04 0.0000e+00 1.0000e+00
       11 -1    0    0    0    0 -0.0000000000e+00 -0.0000000000e+00 -4.5593999997e+01 4.5594000000e+01 5.1100000000e-04 0.0000e+00 -1.0000e+00
       23  2    1    2    0    0 +0.0000000000e+00 +0.0000000000e+00 +0.0000000000e+00 9.1188000000e+01 9.1188000000e+01 7.2398e-14 0.0000e+00
  9900012  1    3    3    0    0 -3.6560656824e+01 +1.9906104425e+01 -1.2275530665e+01 4.7787271044e+01 2.0000000000e+01 9.7046e-02 -1.0000e+00
      -12  1    3    3    0    0 +3.6560656824e+01 -1.9906104425e+01 +1.2275530665e+01 4.3400728956e+01 0.0000000000e+00 0.0000e+00 1.0000e+00
</event>
<event>
 5      7 +2.9511900e-02 9.11880000e+01 7.81616400e-03 1.18400000e-01
      -11 -1    0    0    0    0 +0.0000000000e+00 +0.0000000000e+00 +4.5593999997e+01 4.5594000000e+01 5.1100000000e-04 0.0000e+00 1.0000e+00
       11 -1    0    0    0    0 -0.0000000000e+00 -0.0000000000e+00 -4.5593999997e+01 4.5594000000e+01 5.1100000000e-04 0.0000e+00 -1.0000e+00
       23  2    1    2    0    0 +0.0000000000e+00 +0.0000000000e+00 +0.0000000000e+00 9.1188000000e+01 9.1188000000e+01 7.1082e-14 0.0000e+00
  9900012  1    3    3    0    0 +2.4647528140e+01 +1.3740545207e+01 +3.2974536356e+01 4.7787271044e+01 2.0000000000e+01 5.0608e-02 1.0000e+00
       12  1    3    3    0    0 -2.4647528140e+01 -1.3740545207e+01 -3.2974536356e+01 4.3400728956e+01 0.0000000000e+00 0.0000e+00 -1.0000e+00
</event>
<event>
 5      7 +2.9511900e-02 9.11880000e+01 7.81616400e-03 1.18400000e-01
      -11 -1    0    0    0    0 +0.0000000000e+00 +0.0000000000e+00 +4.5593999997e+01 4.5594000000e+01 5.1100000000e-04 0.0000e+00 1.0000e+00
       11 -1    0    0    0    0 -0.0000000000e+00 -0.0000000000e+00 -4.5593999997e+01 4.5594000000e+01 5.1100000000e-04 0.0000e+00 -1.0000e+00
       23  2    1    2    0    0 +0.0000000000e+00 +0.0000000000e+00 +0.0000000000e+00 9.1188000000e+01 9.1188000000e+01 1.9097e-15 0.0000e+00
  9900012  1    3    3    0    0 +3.0786028425e+01 +5.8929727670e+00 +3.0018604226e+01 4.7787271044e+01 2.0000000000e+01 3.5001e-01 1.0000e+00
       12  1    3    3    0    0 -3.0786028425e+01 -5.8929727670e+00 -3.0018604226e+01 4.3400728956e+01 0.0000000000e+00 0.0000e+00 -1.0000e+00
</event>
<event>
 5      2 +2.9511900e-02 9.11880000e+01 7.81616400e-03 1.18400000e-01
      -11 -1    0    0    0    0 +0.0000000000e+00 +0.0000000000e+00 +4.5593999997e+01 4.5594000000e+01 5.1100000000e-04 0.0000e+00 -1.0000e+00
       11 -1    0    0    0    0 -0.0000000000e+00 -0.0000000000e+00 -4.5593999997e+01 4.5594000000e+01 5.1100000000e-04 0.0000e+00 1.0000e+00
       23  2    1    2    0    0 +0.0000000000e+00 +0.0000000000e+00 +0.0000000000e+00 9.1188000000e+01 9.1188000000e+01 3.4890e-14 0.0000e+00
  9900012  1    3    3    0    0 +4.1498173573e+01 +1.0817559899e+01 -6.6712264105e+00 4.7787271044e+01 2.0000000000e+01 5.0079e-02 -1.0000e+00
      -12  1    3    3    0    0 -4.1498173573e+01 -1.0817559899e+01 +6.6712264105e+00 4.3400728956e+01 0.0000000000e+00 0.0000e+00 1.0000e+00
</event>
<event>
 5      8 +2.9511900e-02 9.11880000e+01 7.81616400e-03 1.18400000e-01
      -11 -1    0    0    0    0 +0.0000000000e+00 +0.0000000000e+00 +4.5593999997e+01 4.5594000000e+01 5.1100000000e-04 0.0000e+00 1.0000e+00
       11 -1    0    0    0    0 -0.0000000000e+00 -0.0000000000e+00 -4.5593999997e+01 4.5594000000e+01 5.1100000000e-04 0.0000e+00 -1.0000e+00
       23  2    1    2    0    0 +0.0000000000e+00 +0.0000000000e+00 +0.0000000000e+00 9.1188000000e+01 9.1188000000e+01 2.3531e-13 0.0000e+00
  9900012  1    3    3    0    0 +2.9319856324e+01 +3.1359922409e+01 -6.3658907907e+00 4.7787271044e+01 2.0000000000e+01 2.4747e-02 -1.0000e+00
      -12  1    3    3    0    0 -2.9319856324e+01 -3.1359922409e+01 +6.3658907907e+00 4.3400728956e+01 0.0000000000e+00 0.0000e+00 1.0000e+00
</event>
<event>
 5      5 +2.9511900e-02 9.11880000e+01 7.81616400e-03 1.18400000e-01
      -11 -1    0    0    0    0 +0.0000000000e+00 +0.0000000000e+00 +4.5593999997e+01 4.5594000000e+01 5.1100000000e-04 0.0000e+00 -1.0000e+00
       11 -1    0    0    0    0 -0.0000000000e+00 -0.0000000000e+00 -4.5593999997e+01 4.5594000000e+01 5.1100000000e-04 0.0000e+00 1.0000e+00
       23  2    1    2    0    0 +0.0000000000e+00 +0.0000000000e+00 +0.0000000000e+00 9.1188000000e+01 9.1188000000e+01 1.6871e-13 0.0000e+00
  9900012  1    3    3    0    0 +2.3210292351e+01 +5.1343898717e+00 -3.6311756271e+01 4.7787271044e+01 2.0000000000e+01 2.9395e-01 1.0000e+00
       12  1    3    3    0    0 -2.3210292351e+01 -5.1343898717e+00 +3.6311756271e+01 4.3400728956e+01 0.0000000000e+00 0.0000e+00 -1.0000e+00
</event>
<event>
 5      7 +2.9511900e-02 9.11880000e+01 7.81616400e-03 1.18400000e-01
      -11 -1    0    0    0    0 +0.0000000000e+00 +0.0000000000e+00 +4.5593999997e+01 4.5594000000e+01 5.1100000000e-04 0.0000e+00 1.0000e+00
       11 -1    0    0    0    0 -0.0000000000e+00 -0.0000000000e+00 -4.5593999997e+01 4.5594000000e+01 5.1100000000e-04 0.0000e+00 -1.0000e+00
       23  2    1    2    0    0 +0.0000000000e+00 +0.0000000000e+00 +0.0000000000e+00 9.1188000000e+01 9.1188000000e+01 1.2011e-13 0.0000e+00
  9900012  1    3    3    0    0 -4.5703471632e+00 +4.3138979676e+01 +1.3280185165e+00 4.7787271044e+01 2.0000000000e+01 7.8260e-02 1.0000e+00
       12  1    3    3    0    0 +4.5703471632e+00 -4.3138979676e+01 -1.3280185165e+00 4.3400728956e+01 0.0000000000e+00 0.0000e+00 -1.0000e+00
</event>
<event>
 5      1 +2.9511900e-02 9.11880000e+01 7.81616400e-03 1.18400000e-01
      -11 -1    0    0    0    0 +0.0000000000e+00 +0.0000000000e+00 +4.5593999997e+01 4.5594000000e+01 5.1100000000e-04 0.0000e+00 -1.0000e+00
       11 -1    0    0    0    0 -0.0000000000e+00 -0.0000000000e+00 -4.5593999997e+01 4.5594000000e+01 5.1100000000e-04 0.0000e+00 1.0000e+00
       23  2    1    2    0    0 +0.0000000000e+00 +0.0000000000e+00 +0.0000000000e+00 9.1188000000e+01 9.1188000000e+01 6.5974e-14 0.0000e+00
  9900012  1    3    3    0    0 -3.8860018238e+01 +1.9009118406e+01 +3.4893658272e+00 4.7787271044e+01 2.0000000000e+01 1.4346e-02 -1.0000e+00
       12  1    3    3    0    0 +3.8860018238e+01 -1.9009118406e+01 -3.4893658272e+00 4.3400728956e+01 0.0000000000e+00 0.0000e+00 -1.0000e+00
</event>
<event>
 5      5 +2.9511900e-02 9.11880000e+01 7.81616400e-03 1.18400000e-01
      -11 -1    0    0    0    0 +0.0000000000e+00 +0.0000000000e+00 +4.5593999997e+01 4.5594000000e+01 5.1100000000e-04 0.0000e+00 1.0000e+00
       11 -1    0    0    0    0 -0.0000000000e+00 -0.0000000000e+00 -4.5593999997e+01 4.5594000000e+01 5.1100000000e-04 0.0000e+00 -1.0000e+00
       23  2    1    2    0    0 +0.0000000000e+00 +0.0000000000e+00 +0.0000000000e+00 9.1188000000e+01 9.1188000000e+01 1.1471e-14 0.0000e+00
  9900012  1    3    3    0    0 -3.2837883663e+01 -1.3472074025e+01 +2.4975986304e+01 4.7787271044e+01 2.0000000000e+01 2.6448e-01 1.0000e+00
       12  1    3    3    0    0 +3.2837883663e+01 +1.3472074025e+01 -2.4975986304e+01 4.3400728956e+01 0.0000000000e+00 0.0000e+00 -1.0000e+00
</event>
<event>
 5      2 +2.9511900e-02 9.11880000e+01 7.81616400e-03 1.18400000e-01
      -11 -1    0    0    0    0 +0.0000000000e+00 +0.0000000000e+00 +4.5593999997e+01 4.5594000000e+01 5.1100000000e-04 0.0000e+00 -1.0000e+00
       11 -1    0    0    0    0 -0.0000000000e+00 -0.0000000000e+00 -4.5593999997e+01 4.5594000000e+01 5.1100000000e-04 0.0000e+00 1.0000e+00
       23  2    1    2    0    0 +0.0000000000e+00 +0.0000000000e+00 +0.0000000000e+00 9.1188000000e+01 9.1188000000e+01 2.7030e-13 0.0000e+00
  9900012  1    3    3    0    0 +2.6502614953e+01 +7.1469015816e+00 +3.3617799933e+01 4.7787271044e+01 2.0000000000e+01 4.8549e-02 -1.0000e+00
      -12  1    3    3    0    0 -2.6502614953e+01 -7.1469015816e+00 -3.3617799933e+01 4.3400728956e+01 0.0000000000e+00 0.0000e+00 1.0000e+00
</event>
<event>
 5      7 +2.9511900e-02 9.11880000e+01 7.81616400e-03 1.18400000e-01
      -11 -1    0    0    0    0 +0.0000000000e+00 +0.0000000000e+00 +4.5593999997e+01 4.5594000000e+01 5.1100000000e-04 0.0000e+00 -1.0000e+00
       11 -1    0    0    0    0 -0.0000000000e+00 -0.0000000000e+00 -4.5593999997e+01 4.5594000000e+01 5.1100000000e-04 0.0000e+00 1.0000e+00
       23  2    1    2    0    0 +0.0000000000e+00 +0.0000000000e+00 +0.0000000000e+00 9.1188000000e+01 9.1188000000e+01 1.5526e-13 0.0000e+00
  9900012  1    3    3    0    0 +1.7220630521e+01 -3.4357131360e+01 -2.0165829589e+01 4.7787271044e+01 2.0000000000e+01 6.6642e-02 1.0000e+00
       12  1    3    3    0    0 -1.7220630521e+01 +3.4357131360e+01 +2.0165829589e+01 4.3400728956e+01 0.0000000000e+00 0.0000e+00 -1.0000e+00
</event>
<event>
 5      7 +2.9511900e-02 9.11880000e+01 7.81616400e-03 1.18400000e-01
      -11 -1    0    0    0    0 +0.0000000000e+00 +0.0000000000e+00 +4.5593999997e+01 4.5594000000e+01 5.1100000000e-04 0.0000e+00 -1.0000e+00
       11 -1    0    0    0    0 -0.0000000000e+00 -0.0000000000e+00 -4.5593999997e+01 4.5594000000e+01 5.1100000000e-04 0.0000e+00 1.0000e+00
       23  2    1    2    0    0 +0.0000000000e+00 +0.0000000000e+00 +0.0000000000e+00 9.1188000000e+01 9.1188000000e+01 3.3033e-13 0.0000e+00
  9900012  1    3    3    0    0 +2.3970961275e+01 +2.6166516504e+01 -2.4986590472e+01 4.7787271044e+01 2.0000000000e+01 1.3610e-01 1.0000e+00
       12  1    3    3    0    0 -2.3970961275e+01 -2.6166516504e+01 +2.4986590472e+01 4.3400728956e+01 0.0000000000e+00 0.0000e+00 -1.0000e+00
</event>
<event>
 5      8 +2.9511900e-02 9.11880000e+01 7.81616400e-03 1.18400000e-01
      -11 -1    0    0    0    0 +0.0000000000e+00 +0.0000000000e+00 +4.5593999997e+01 4.5594000000e+01 5.1100000000e-04 0.0000e+00 -1.0000e+00
       11 -1    0    0    0    0 -0.0000000000e+00 -0.0000000000e+00 -4.5593999997e+01 4.5594000000e+01 5.1100000000e-04 0.0000e+00 1.0000e+00
       23  2    1    2    0    0 +0.0000000000e+00 +0.0000000000e+00 +0.0000000000e+00 9.1188000000e+01 9.1188000000e+01 7.6189e-16 0.0000e+00
  9900012  1    3    3    0    0 +1.6267305432e+01 +4.0020183204e+01 +4.1692906104e+00 4.7787271044e+01 2.0000000000e+01 3.6208e-01 -1.0000e+00
      -12  1    3    3    0    0 -1.6267305432e+01 -4.0020183204e+01 -4.1692906104e+00 4.3400728956e+01 0.0000000000e+00 0.0000e+00 1.0000e+00
</event>
<event>
 5      8 +2.9511900e-02 9.11880000e+01 7.81616400e-03 1.18400000e-01
      -11 -1    0    0    0    0 +0.0000000000e+00 +0.0000000000e+00 +4.5593999997e+01 4.5594000000e+01 5.1100000000e-04 0.0000e+00 -1.0000e+00
       11 -1    0    0    0    0 -0.0000000000e+00 -0.0000000000e+00 -4.5593999997e+01 4.5594000000e+01 5.1100000000e-04 0.0000e+00 1.0000e+00
       23  2    1    2    0    0 +0.0000000000e+00 +0.0000000000e+00 +0.0000000000e+00 9.1188000000e+01 9.1188000000e+01 1.1915e-13 0.0000e+00
  9900012  1    3    3    0    0 +3.8275587027e+01 -9.9747710959e+00 -1.7863556566e+01 4.7787271044e+01 2.0000000000e+01 4.5125e-02 -1.0000e+00
      -12  1    3    3    0    0 -3.8275587027e+01 +9.9747710959e+00 +1.7863556566e+01 4.3400728956e+01 0.0000000000e+00 0.0000e+00 1.0000e+00
</event>
<event>
 5      6 +2.9511900e-02 9.11880000e+01 7.81616400e-03 1.18400000e-01
      -11 -1    0    0    0    0 +0.0000000000e+00 +0.0000000000e+00 +4.5593999997e+01 4.5594000000e+01 5.1100000000e-04 0.0000e+00 -1.0000e+00
       11 -1    0    0    0    0 -0.0000000000e+00 -0.0000000000e+00 -4.5593999997e+01 4.5594000000e+01 5.1100000000e-04 0.0000e+00 1.0000e+00
       23  2    1    2    0    0 +0.0000000000e+00 +0.0000000000e+00 +0.0000000000e+00 9.1188000000e+01 9.1188000000e+01 2.3816e-14 0.0000e+00
  9900012  1    3    3    0    0 -1.2834001637e+01 +4.1258477656e+01 +4.0804040712e+00 4.7787271044e+01 2.0000000000e+01 1.8986e-01 -1.0000e+00
      -12  1    3    3    0    0 +1.2834001637e+01 -4.1258477656e+01 -4.0804040712e+00 4.3400728956e+01 0.0000000000e+00 0.0000e+00 1.0000e+00
</event>
<event>
 5      2 +2.9511900e-02 9.11880000e+01 7.81616400e-03 1.18400000e-01
      -11 -1    0    0    0    0 +0.0000000000e+00 +0.0000000000e+00 +4.5593999997e+01 4.5594000000e+01 5.1100000000e-04 0.0000e+00 -1.0000e+00
       11 -1    0    0    0    0 -0.0000000000e+00 -0.0000000000e+00 -4.5593999997e+01 4.5594000000e+01 5.1100000000e-04 0.0000e+00 1.0000e+00
       23  2    1    2    0    0 +0.0000000000e+00 +0.0000000000e+00 +0.0000000000e+00 9.1188000000e+01 9.1188000000e+01 9.3936e-14 0.0000e+00
  9900012  1    3    3    0    0 +7.9636282844e+00 -2.5755046875e+01 +3.4012960161e+01 4.7787271044e+01 2.0000000000e+01 1.3951e-01 -1.0000e+00
      -12  1    3    3    0    0 -7.9636282844e+00 +2.5755046875e+01 -3.4012960161e+01 4.3400728956e+01 0.0000000000e+00 0.0000e+00 1.0000e+00
</event>
<event>
 5      5 +2.9511900e-02 9.11880000e+01 7.81616400e-03 1.18400000e-01
      -11 -1    0    0    0    0 +0.0000000000e+00 +0.0000000000e+00 +4.5593999997e+01 4.5594000000e+01 5.1100000000e-04 0.0000e+00 -1.0000e+00
       11 -1    0    0    0    0 -0.0000000000e+00 -0.0000000000e+00 -4.5593999997e+01 4.5594000000e+01 5.1100000000e-04 0.0000e+00 1.0000e+00
       23  2    1    2    0    0 +0.0000000000e+00 +0.0000000000e+00 +0.0000000000e+00 9.1188000000e+01 9.1188000000e+01 5.6939e-16 0.0000e+00
  9900012  1    3    3    0    0 +3.6531668569e+01 +1.1940405689e+01 -2.0161527161e+01 4.7787271044e+01 2.0000000000e+01 1.7048e-02 1.0000e+00
       12  1    3    3    0    0 -3.6531668569e+01 -1.1940405689e+01 +2.0161527161e+01 4.3400728956e+01 0.0000000000e+00 0.0000e+00 -1.0000e+00
</event>
<event>
 5      3 +2.9511900e-02 9.11880000e+01 7.81616400e-03 1.18400000e-01
      -11 -1    0    0    0    0 +0.0000000000e+00 +0.0000000000e+00 +4.5593999997e+01 4.5594000000e+01 5.1100000000e-04 0.0000e+00 -1.0000e+00
       11 -1    0    0    0    0 -0.0000000000e+00 -0.0000000000e+00 -4.5593999997e+01 4.5594000000e+01 5.1100000000e-04 0.0000e+00 1.0000e+00
       23  2    1    2    0    0 +0.0000000000e+00 +0.0000000000e+00 +0.0000000000e+00 9.1188000000e+01 9.1188000000e+01 1.9306e-13 0.0000e+00
  9900012  1    3    3    0    0 +2.2453788576e+01 -2.5285595415e+01 -2.7204582647e+01 4.7787271044e+01 2.0000000000e+01 2.4981e-01 1.0000e+00
       12  1    3    3    0    0 -2.2453788576e+01 +2.5285595415e+01 +2.7204582647e+01 4.3400728956e+01 0.0000000000e+00 0.0000e+00 -1.0000e+00
</event>
<event>
 5      2 +2.9511900e-02 9.11880000e+01 7.81616400e-03 1.18400000e-01
      -11 -1    0    0    0    0 +0.0000000000e+00 +0.0000000000e+00 +4.5593999997e+01 4.5594000000e+01 5.1100000000e-04 0.0000e+00 1.0000e+00
       11 -1    0    0    0    0 -0.0000000000e+00 -0.0000000000e+00 -4.5593999997e+01 4.5594000000e+01 5.1100000000e-04 0.0000e+00 -1.0000e+00
       23  2    1    2    0    0 +0.0000000000e+00 +0.0000000000e+00 +0.0000000000e+00 9.1188000000e+01 9.1188000000e+01 2.3114e-15 0.0000e+00
  9900012  1    3    3    0    0 +2.1020977818e+01 +1.3743989782e+00 -3.7945392249e+01 4.7787271044e+01 2.0000000000e+01 5.4787e-02 -1.0000e+00
      -12  1    3    3    0    0 -2.1020977818e+01 -1.3743989782e+00 +3.7945392249e+01 4.3400728956e+01 0.0000000000e+00 0.0000e+00 1.0000e+00
</event>
<event>
 5      6 +2.9511900e-02 9.11880000e+01 7.81616400e-03 1.18400000e-01
      -11 -1    0    0    0    0 +0.0000000000e+00 +0.0000000000e+00 +4.5593999997e+01 4.5594000000e+01 5.1100000000e-04 0.0000e+00 1.0000e+00
       11 -1    0    0    0    0 -0.0000000000e+00 -0.0000000000e+00 -4.5593999997e+01 4.5594000000e+01 5.1100000000e-04 0.0000e+00 -1.0000e+00
       23  2    1    2    0    0 +0.0000000000e+00 +0.0000000000e+00 +0.0000000000e+00 9.1188000000e+01 9.1188000000e+01 5.1306e-14 0.0000e+00
  9900012  1    3    3    0    0 +2.7652340792e+01 +1.5421934688e+01 -2.9683922467e+01 4.7787271044e+01 2.0000000000e+01 7.0959e-02 -1.0000e+00
      -12  1    3    3    0    0 -2.7652340792e+01 -1.5421934688e+01 +2.9683922467e+01 4.3400728956e+01 0.0000000000e+00 0.0000e+00 1.0000e+00
</event>
<event>
 5      5 +2.9511900e-02 9.11880000e+01 7.81616400e-03 1.18400000e-01
      -11 -1    0    0    0    0 +0.0000000000e+00 +0.0000000000e+00 +4.5593999997e+01 4.5594000000e+01 5.1100000000e-04 0.0000e+00 -1.0000e+00
       11 -1    0    0    0    0 -0.0000000000e+00 -0.0000000000e+00 -4.5593999997e+01 4.5594000000e+01 5.1100000000e-04 0.0000e+00 1.0000e+00
       23  2    1    2    0    0 +0.0000000000e+00 +0.0000000000e+00 +0.0000000000e+00 9.1188000000e+01 9.1188000000e+01 2.1059e-14 0.0000e+00
  9900012  1    3    3    0    0 +9.8661516752e+00 -8.3084468711e+00 -4.1439739811e+01 4.7787271044e+01 2.0000000000e+01 1.2779e-01 1.0000e+00
       12  1    3    3    0    0 -9.8661516752e+00 +8.3084468711e+00 +4.1439739811e+01 4.3400728956e+01 0.0000000000e+00 0.0000e+00 -1.0000e+00
</event>
<event>
 5      1 +2.9511900e-02 9.11880000e+01 7.81616400e-03 1.18400000e-01
      -11 -1    0    0    0    0 +0.0000000000e+00 +0.0000000000e+00 +4.5593999997e+01 4.5594000000e+01 5.1100000000e-04 0.0000e+00 1.0000e+00
       11 -1    0    0    0    0 -0.0000000000e+00 -0.0000000000e+00 -4.5593999997e+01 4.5594000000e+01 5.1100000000e-04 0.0000e+00 -1.0000e+00
       23  2    1    2    0    0 +0.0000000000e+00 +0.0000000000e+00 +0.0000000000e+00 9.1188000000e+01 9.1188000000e+01 7.6450e-14 0.0000e+00
  9900012  1    3    3    0    0 -3.9025243001e-01 +3.9592132397e+01 +1.7774533163e+01 4.7787271044e+01 2.0000000000e+01 1.3820e-01 1.0000e+00
       12  1    3    3    0    0 +3.9025243001e-01 -3.9592132397e+01 -1.7774533163e+01 4.3400728956e+01 0.0000000000e+00 0.0000e+00 -1.0000e+00
</event>
<event>
 5      2 +2.9511900e-02 9.11880000e+01 7.81616400e-03 1.18400000e-01
      -11 -1    0    0    0    0 +0.0000000000e+00 +0.0000000000e+00 +4.5593999997e+01 4.5594000000e+01 5.1100000000e-04 0.0000e+00 1.0000e+00
       11 -1    0    0    0    0 -0.0000000000e+00 -0.0000000000e+00 -4.5593999997e+01 4.5594000000e+01 5.1100000000e-04 0.0000e+00 -1.0000e+00
       23  2    1    2    0    0 +0.0000000000e+00 +0.0000000000e+00 +0.0000000000e+00 9.1188000000e+01 9.1188000000e+01 1.2104e-13 0.0000e+00
  9900012  1    3    3    0    0 +1.6478277010e-01 -2.1963327383e+01 -3.7432717918e+01 4.7787271044e+01 2.0000000000e+01 2.2184e-01 -1.0000e+00
      -12  1    3    3    0    0 -1.6478277010e-01 +2.1963327383e+01 +3.7432717918e+01 4.3400728956e+01 0.0000000000e+00 0.0000e+00 1.0000e+00
</event>
<event>
 5      4 +2.9511900e-02 9.11880000e+01 7.81616400e-03 1.18400000e-01
      -11 -1    0    0    0    0 +0.0000000000e+00 +0.0000000000e+00 +4.5593999997e+01 4.5594000000e+01 5.1100000000e-04 0.0000e+00 -1.0000e+00
       11 -1    0    0    0    0 -0.0000000000e+00 -0.0000000000e+00 -4.5593999997e+01 4.5594000000e+01 5.1100000000e-04 0.0000e+00 1.0000e+00
       23  2    1    2    0    0 +0.0000000000e+00 +0.0000000000e+00 +0.0000000000e+00 9.1188000000e+01 9.1188000000e+01 9.5316e-14 0.0000e+00
  9900012  1    3    3    0    0 +5.8229589294e+00 +5.0338496394e+00 +4.2712723877e+01 4.7787271044e+01 2.0000000000e+01 2.2908e-01 -1.0000e+00
      -12  1    3    3    0    0 -5.8229589294e+00 -5.0338496394e+00 -4.2712723877e+01 4.3400728956e+01 0.0000000000e+00 0.0000e+00 1.0000e+00
</event>
<event>
 5      3 +2.9511900e-02 9.11880000e+01 7.81616400e-03 1.18400000e-01
      -11 -1    0    0    0    0 +0.0000000000e+00 +0.0000000000e+00 +4.5593999997e+01 4.5594000000e+01 5.1100000000e-04 0.0000e+00 1.0000e+00
       11 -1    0    0    0    0 -0.0000000000e+00 -0.0000000000e+00 -4.5593999997e+01 4.5594000000e+01 5.1100000000e-04 0.0000e+00 -1.0000e+00
       23  2    1    2    0    0 +0.0000000000e+00 +0.0000000000e+00 +0.0000000000e+00 9.1188000000e+01 9.1188000000e+01 9.8964e-14 0.0000e+00
  9900012  1    3    3    0    0 -1.2628128561e+01 +2.8627921878e+01 +3.0076497999e+01 4.7787271044e+01 2.0000000000e+01 4.2920e-02 1.0000e+00
       12  1    3    3    0    0 +1.2628128561e+01 -2.8627921878e+01 -3.0076497999e+01 4.3400728956e+01 0.0000000000e+00 0.0000e+00 -1.0000e+00
</event>
<event>
 5      1 +2.9511900e-02 9.11880000e+01 7.81616400e-03 1.18400000e-01
      -11 -1    0    0    0    0 +0.0000000000e+00 +0.0000000000e+00 +4.5593999997e+01 4.5594000000e+01 5.1100000000e-04 0.0000e+00 1.0000e+00
       11 -1    0    0    0    0 -0.0000000000e+00 -0.0000000000e+00 -4.5593999997e+01 4.5594000000e+01 5.1100000000e-04 0.0000e+00 -1.0000e+00
       23  2    1    2    0    0 +0.0000000000e+00 +0.0000000000e+00 +0.0000000000e+00 9.1188000000e+01 9.1188000000e+01 2.2902e-13 0.0000e+00
  9900012  1    3    3    0    0 +2.8890967834e+01 +3.1226853892e+01 -8.5917895387e+00 4.7787271044e+01 2.0000000000e+01 9.4942e-02 1.0000e+00
       12  1    3    3    0    0 -2.8890967834e+01 -3.1226853892e+01 +8.5917895387e+00 4.3400728956e+01 0.0000000000e+00 0.0000e+00 -1.0000e+00
</event>
<event>
 5      6 +2.9511900e-02 9.11880000e+01 7.81616400e-03 1.18400000e-01
      -11 -1    0    0    0    0 +0.0000000000e+00 +0.0000000000e+00 +4.5593999997e+01 4.5594000000e+01 5.1100000000e-04 0.0000e+00 -1.0000e+00
       11 -1    0    0    0    0 -0.0000000000e+00 -0.0000000000e+00 -4.5593999997e+01 4.5594000000e+01 5.1100000000e-04 0.0000e+00 1.0000e+00
       23  2    1    2    0    0 +0.0000000000e+00 +0.0000000000e+00 +0.0000000000e+00 9.1188000000e+01 9.1188000000e+01 7.0291e-14 0.0000e+00
  9900012  1    3    3    0    0 +2.9055823492e+01 +3.4130032293e+00 +3.2058287603e+01 4.7787271044e+01 2.0000000000e+01 1.7305e-02 -1.0000e+00
      -12  1    3    3    0    0 -2.9055823492e+01 -3.4130032293e+00 -3.2058287603e+01 4.3400728956e+01 0.0000000000e+00 0.0000e+00 1.0000e+00
</event>
<event>
 5      8 +2.9511900e-02 9.11880000e+01 7.81616400e-03 1.18400000e-01
      -11 -1    0    0    0    0 +0.0000000000e+00 +0.0000000000e+00 +4.5593999997e+01 4.5594000000e+01 5.1100000000e-04 0.0000e+00 1.0000e+00
       11 -1    0    0    0    0 -0.0000000000e+00 -0.0000000000e+00 -4.5593999997e+01 4.5594000000e+01 5.1100000000e-04 0.0000e+00 -1.0000e+00
       23  2    1    2    0    0 +0.0000000000e+00 +0.0000000000e+00 +0.0000000000e+00 9.1188000000e+01 9.1188000000e+01 1.4297e-14 0.0000e+00
  9900012  1    3    3    0    0 +1.7953359877e+01 +3.0716432797e+01 -2.4855600963e+01 4.7787271044e+01 2.0000000000e+01 6.2177e-03 -1.0000e+00
      -12  1    3    3    0    0 -1.7953359877e+01 -3.0716432797e+01 +2.4855600963e+01 4.3400728956e+01 0.0000000000e+00 0.0000e+00 1.0000e+00
</event>
<event>
 5      5 +2.9511900e-02 9.11880000e+01 7.81616400e-03 1.18400000e-01
      -11 -1    0    0    0    0 +0.0000000000e+00 +0.0000000000e+00 +4.5593999997e+01 4.5594000000e+01 5.1100000000e-04 0.0000e+00 1.0000e+00
       11 -1    0    0    0    0 -0.0000000000e+00 -0.0000000000e+00 -4.5593999997e+01 4.5594000000e+01 5.1100000000e-04 0.0000e+00 -1.0000e+00
       23  2    1    2    0    0 +0.0000000000e+00 +0.0000000000e+00 +0.0000000000e+00 9.1188000000e+01 9.1188000000e+01 7.7004e-14 0.0000e+00
  9900012  1    3    3    0    0 +2.3085219914e+01 -3.2497452336e+01 +1.7164250262e+01 4.7787271044e+01 2.0000000000e+01 3.2367e-02 1.0000e+00
       12  1    3    3    0    0 -2.3085219914e+01 +3.2497452336e+01 -1.7164250262e+01 4.3400728956e+01 0.0000000000e+00 0.0000e+00 -1.0000e+00
</event>
<event>
 5      1 +2.9511900e-02 9.11880000e+01 7.81616400e-03 1.18400000e-01
      -11 -1    0    0    0    0 +0.0000000000e+00 +0.0000000000e+00 +4.5593999997e+01 4.5594000000e+01 5.1100000000e-04 0.0000e+00 -1.0000e+00
       11 -1    0    0    0    0 -0.0000000000e+00 -0.0000000000e+00 -4.5593999997e+01 4.5594000000e+01 5.1100000000e-04 0.0000e+00 1.0000e+00
       23  2    1    2    0    0 +0.0000000000e+00 +0.0000000000e+00 +0.0000000000e+00 9.1188000000e+01 9.1188000000e+01 2.0433e-14 0.0000e+00
  9900012  1    3    3    0    0 +8.6581428226e+00 +4.2466398583e+01 +2.2945213264e+00 4.7787271044e+01 2.0000000000e+01 4.0378e-02 1.0000e+00
       12  1    3    3    0    0 -8.6581428226e+00 -4.2466398583e+01 -2.2945213264e+00 4.3400728956e+01 0.0000000000e+00 0.0000e+00 -1.0000e+00
</event>
<event>
 5      4 +2.9511900e-02 9.11880000e+01 7.81616400e-03 1.18400000e-01
      -11 -1    0    0    0    0 +0.0000000000e+00 +0.0000000000e+00 +4.5593999997e+01 4.5594000000e+01 5.1100000000e-04 0.0000e+00 1.0000e+00
       11 -1    0    0    0    0 -0.0000000000e+00 -0.0000000000e+00 -4.5593999997e+01 4.5594000000e+01 5.1100000000e-04 0.0000e+00 -1.0000e+00
       23  2    1    2    0    0 +0.0000000000e+00 +0.0000000000e+00 +0.0000000000e+00 9.1188000000e+01 9.1188000000e+01 4.1580e-14 0.0000e+00
  9900012  1    3    3    0    0 -1.6227579586e+01 -3.9249431941e+01 -8.9314627578e+00 4.7787271044e+01 2.0000000000e+01 1.0426e-01 -1.0000e+00
      -12  1    3    3    0    0 +1.6227579586e+01 +3.9249431941e+01 +8.9314627578e+00 4.3400728956e+01 0.0000000000e+00 0.0000e+00 1.0000e+00
</event>
<event>
 5      2 +2.9511900e-02 9.11880000e+01 7.81616400e-03 1.18400000e-01
      -11 -1    0    0    0    0 +0.0000000000e+00 +0.0000000000e+00 +4.5593999997e+01 4.5594000000e+01 5.1100000000e-04 0.0000e+00 1.0000e+00
       11 -1    0    0    0    0 -0.0000000000e+00 -0.0000000000e+00 -4.5593999997e+01 4.5594000000e+01 5.1100000000e-04 0.0000e+00 -1.0000e+00
       23  2    1    2    0    0 +0.0000000000e+00 +0.0000000000e+00 +0.0000000000e+00 9.1188000000e+01 9.1188000000e+01 5.4798e-14 0.0000e+00
  9900012  1    3    3    0    0 -3.2902065798e+01 -2.7899360457e+01 -4.7647692690e+00 4.7787271044e+01 2.0000000000e+01 1.4842e-01 -1.0000e+00
      -12  1    3    3    0    0 +3.2902065798e+01 +2.7899360457e+01 +4.7647692690e+00 4.3400728956e+01 0.0000000000e+00 0.0000e+00 1.0000e+00
</event>
<event>
 5      3 +2.9511900e-02 9.11880000e+01 7.81616400e-03 1.18400000e-01
      -11 -1    0    0    0    0 +0.0000000000e+00 +0.0000000000e+00 +4.5593999997e+01 4.5594000000e+01 5.1100000000e-04 0.0000e+00 -1.0000e+00
       11 -1    0    0    0    0 -0.0000000000e+00 -0.0000000000e+00 -4.5593999997e+01 4.5594000000e+01 5.1100000000e-04 0.0000e+00 1.0000e+00
       23  2    1    2    0    0 +0.0000000000e+00 +0.0000000000e+00 +0.0000000000e+00 9.1188000000e+01 9.1188000000e+01 1.9010e-13 0.0000e+00
  9900012  1    3    3    0    0 -1.1979878781e+01 +3.6574894477e+01 +2.0059483350e+01 4.7787271044e+01 2.0000000000e+01 7.7534e-02 1.0000e+00
       12  1    3    3    0    0 +1.1979878781e+01 -3.6574894477e+01 -2.0059483350e+01 4.3400728956e+01 0.0000000000e+00 0.0000e+00 -1.0000e+00
</event>
<event>
 5      5 +2.9511900e-02 9.11880000e+01 7.81616400e-03 1.18400000e-01
      -11 -1    0    0    0    0 +0.0000000000e+00 +0.0000000000e+00 +4.5593999997e+01 4.5594000000e+01 5.1100000000e-04 0.0000e+00 1.0000e+00
       11 -1    0    0    0    0 -0.0000000000e+00 -0.0000000000e+00 -4.5593999997e+01 4.5594000000e+01 5.1100000000e-04 0.0000e+00 -1.0000e+00
       23  2    1    2    0    0 +0.0000000000e+00 +0.0000000000e+00 +0.0000000000e+00 9.1188000000e+01 9.1188000000e+01 4.2523e-14 0.0000e+00
  9900012  1    3    3    0    0 +3.0119743447e+01 +7.9921331489e+00 -3.0208444784e+01 4.7787271044e+01 2.0000000000e+01 3.0037e-01 1.0000e+00
       12  1    3    3    0    0 -3.0119743447e+01 -7.9921331489e+00 +3.0208444784e+01 4.3400728956e+01 0.0000000000e+00 0.0000e+00 -1.0000e+00
</event>
<event>
 5      1 +2.9511900e-02 9.11880000e+01 7.81616400e-03 1.18400000e-01
      -11 -1    0    0    0    0 +0.0000000000e+00 +0.0000000000e+00 +4.5593999997e+01 4.5594000000e+01 5.1100000000e-04 0.0000e+00 1.0000e+00
       11 -1    0    0    0    0 -0.0000000000e+00 -0.0000000000e+00 -4.5593999997e+01 4.5594000000e+01 5.1100000000e-04 0.0000e+00 -1.0000e+00
       23  2    1    2    0    0 +0.0000000000e+00 +0.0000000000e+00 +0.0000000000e+00 9.1188000000e+01 9.1188000000e+01 4.7772e-14 0.0000e+00
  9900012  1    3    3    0    0 -2.3414590868e+01 +1.4502435788e+01 +3.3541907587e+01 4.7787271044e+01 2.0000000000e+01 1.3069e-02 1.0000e+00
       12  1    3    3    0    0 +2.3414590868e+01 -1.4502435788e+01 -3.3541907587e+01 4.3400728956e+01 0.0000000000e+00 0.0000e+00 -1.0000e+00
</event>
<event>
 5      1 +2.9511900e-02 9.11880000e+01 7.81616400e-03 1.18400000e-01
      -11 -1    0    0    0    0 +0.0000000000e+00 +0.0000000000e+00 +4.5593999997e+01 4.5594000000e+01 5.1100000000e-04 0.0000e+00 1.0000e+00
       11 -1    0    0    0    0 -0.0000000000e+00 -0.0000000000e+00 -4.5593999997e+01 4.5594000000e+01 5.1100000000e-04 0.0000e+00 -1.0000e+00
       23  2    1    2    0    0 +0.0000000000e+00 +0.0000000000e+00 +0.0000000000e+00 9.1188000000e+01 9.1188000000e+01 4.3812e-14 0.0000e+00
  9900012  1    3    3    0    0 +1.3615548599e+01 +3.1488043321e+01 +2.6584642899e+01 4.7787271044e+01 2.0000000000e+01 1.4151e-01 1.0000e+00
       12  1    3    3    0    0 -1.3615548599e+01 -3.1488043321e+01 -2.6584642899e+01 4.3400728956e+01 0.0000000000e+00 0.0000e+00 -1.0000e+00
</event>
<event>
 5      4 +2.9511900e-02 9.11880000e+01 7.81616400e-03 1.18400000e-01
      -11 -1    0    0    0    0 +0.0000000000e+00 +0.0000000000e+00 +4.5593999997e+01 4.5594000000e+01 5.1100000000e-04 0.0000e+00 -1.0000e+00
       11 -1    0    0    0    0 -0.0000000000e+00 -0.0000000000e+00 -4.5593999997e+01 4.5594000000e+01 5.1100000000e-04 0.0000e+00 1.0000e+00
       23  2    1    2    0    0 +0.0000000000e+00 +0.0000000000e+00 +0.0000000000e+00 9.1188000000e+01 9.1188000000e+01 2.8537e-14 0.0000e+00
  9900012  1    3    3    0    0 +3.9585724617e+01 +1.4398432306e+01 +1.0453651397e+01 4.7787271044e+01 2.0000000000e+01 5.5294e-02 -1.0000e+00
      -12  1    3    3    0    0 -3.9585724617e+01 -1.4398432306e+01 -1.0453651397e+01 4.3400728956e+01 0.0000000000e+00 0.0000e+00 1.0000e+00
</event>
<event>
 5      3 +2.9511900e-02 9.11880000e+01 7.81616400e-03 1.18400000e-01
      -11 -1    0    0    0    0 +0.0000000000e+00 +0.0000000000e+00 +4.5593999997e+01 4.5594000000e+01 5.1100000000e-04 0.0000e+00 -1.0000e+00
       11 -1    0    0    0    0 -0.0000000000e+00 -0.0000000000e+00 -4.5593999997e+01 4.5594000000e+01 5.1100000000e-04 0.0000e+00 1.0000e+00
       23  2    1    2    0    0 +0.0000000000e+00 +0.0000000000e+00 +0.0000000000e+00 9.1188000000e+01 9.1188000000e+01 1.8772e-14 0.0000e+00
  9900012  1    3    3    0    0 -1.2428062711e+01 -3.5566644827e+01 -2.1544844090e+01 4.7787271044e+01 2.0000000000e+01 2.0661e-01 1.0000e+00
       12  1    3    3    0    0 +1.2428062711e+01 +3.5566644827e+01 +2.1544844090e+01 4.3400728956e+01 0.0000000000e+00 0.0000e+00 -1.0000e+00
</event>
<event>
 5      2 +2.9511900e-02 9.11880000e+01 7.81616400e-03 1.18400000e-01
      -11 -1    0    0    0    0 +0.0000000000e+00 +0.0000000000e+00 +4.5593999997e+01 4.5594000000e+01 5.1100000000e-04 0.0000e+00 -1.0000e+00
       11 -1    0    0    0    0 -0.0000000000e+00 -0.0000000000e+00 -4.5593999997e+01 4.5594000000e+01 5.1100000000e-04 0.0000e+00 1.0000e+00
       23  2    1    2    0    0 +0.0000000000e+00 +0.0000000000e+00 +0.0000000000e+00 9.1188000000e+01 9.1188000000e+01 8.6896e-14 0.0000e+00
  9900012  1    3    3    0    0 +2.3130749633e+01 +3.2451546677e+01 +1.7189788060e+01 4.7787271044e+01 2.0000000000e+01 1.3508e-03 -1.0000e+00
      -12  1    3    3    0    0 -2.3130749633e+01 -3.2451546677e+01 -1.7189788060e+01 4.3400728956e+01 0.0000000000e+00 0.0000e+00 1.0000e+00
</event>
<event>
 5      1 +2.9511900e-02 9.11880000e+01 7.81616400e-03 1.18400000e-01
      -11 -1    0    0    0    0 +0.0000000000e+00 +0.0000000000e+00 +4.5593999997e+01 4.5594000000e+01 5.1100000000e-04 0.0000e+00 -1.0000e+00
       11 -1    0    0    0    0 -0.0000000000e+00 -0.0000000000e+00 -4.5593999997e+01 4.5594000000e+01 5.1100000000e-04 0.0000e+00 1.0000e+00
       23  2    1    2    0    0 +0.0000000000e+00 +0.0000000000e+00 +0.0000000000e+00 9.1188000000e+01 9.1188000000e+01 6.2561e-14 0.0000e+00
  9900012  1    3    3    0    0 -6.6289009823e+00 +1.9799130200e+01 -3.8048329647e+01 4.7787271044e+01 2.0000000000e+01 1.9852e-03 1.0000e+00
       12  1    3    3    0    0 +6.6289009823e+00 -1.9799130200e+01 +3.8048329647e+01 4.3400728956e+01 0.0000000000e+00 0.0000e+00 -1.0000e+00
</event>
<event>
 5      3 +2.9511900e-02 9.11880000e+01 7.81616400e-03 1.18400000e-01
      -11 -1    0    0    0    0 +0.0000000000e+00 +0.0000000000e+00 +4.5593999997e+01 4.5594000000e+01 5.1100000000e-04 0.0000e+00 -1.0000e+00
       11 -1    0    0    0    0 -0.0000000000e+00 -0.0000000000e+00 -4.5593999997e+01 4.5594000000e+01 5.1100000000e-04 0.0000e+00 1.0000e+00
       23  2    1    2    0    0 +0.0000000000e+00 +0.0000000000e+00 +0.0000000000e+00 9.1188000000e+01 9.1188000000e+01 3.3364e-14 0.0000e+00
  9900012  1    3    3    0    0 +2.4544880704e+01 +8.6123036580e+00 -3.4741910293e+01 4.7787271044e+01 2.0000000000e+01 8.9107e-03 1.0000e+00
       12  1    3    3    0    0 -2.4544880704e+01 -8.6123036580e+00 +3.4741910293e+01 4.3400728956e+01 0.0000000000e+00 0.0000e+00 -1.0000e+00
</event>
<event>
 5      4 +2.9511900e-02 9.11880000e+01 7.81616400e-03 1.18400000e-01
      -11 -1    0    0    0    0 +0.0000000000e+00 +0.0000000000e+00 +4.5593999997e+01 4.5594000000e+01 5.1100000000e-04 0.0000e+00 1.0000e+00
       11 -1    0    0    0    0 -0.0000000000e+00 -0.0000000000e+00 -4.5593999997e+01 4.5594000000e+01 5.1100000000e-04 0.0000e+00 -1.0000e+00
       23  2    1    2    0    0 +0.0000000000e+00 +0.0000000000e+00 +0.0000000000e+00 9.1188000000e+01 9.1188000000e+01 1.2520e-13 0.0000e+00
  9900012  1    3    3    0    0 +3.9950434175e+00 +1.4100604498e+01 -4.0851387428e+01 4.7787271044e+01 2.0000000000e+01 6.1296e-02 -1.0000e+00
      -12  1    3    3    0    0 -3.9950434175e+00 -1.4100604498e+01 +4.0851387428e+01 4.3400728956e+01 0.0000000000e+00 0.0000e+00 1.0000e+00
</event>
<event>
 5      6 +2.9511900e-02 9.11880000e+01 7.81616400e-03 1.18400000e-01
      -11 -1    0    0    0    0 +0.0000000000e+00 +0.0000000000e+00 +4.5593999997e+01 4.5594000000e+01 5.1100000000e-04 0.0000e+00 1.0000e+00
       11 -1    0    0    0    0 -0.0000000000e+00 -0.0000000000e+00 -4.5593999997e+01 4.5594000000e+01 5.1100000000e-04 0.0000e+00 -1.0000e+00
       23  2    1    2    0    0 +0.0000000000e+00 +0.0000000000e+00 +0.0000000000e+00 9.1188000000e+01 9.1188000000e+01 4.1751e-14 0.0000e+00
  9900012  1    3    3    0    0 -3.1198187844e+01 -2.1035372848e+01 -2.1628902845e+01 4.7787271044e+01 2.0000000000e+01 1.4803e-01 -1.0000e+00
      -12  1    3    3    0    0 +3.1198187844e+01 +2.1035372848e+01 +2.1628902845e+01 4.3400728956e+01 0.0000000000e+00 0.0000e+00 1.0000e+00
</event>
<event>
 5      4 +2.9511900e-02 9.11880000e+01 7.81616400e-03 1.18400000e-01
      -11 -1    0    0    0    0 +0.0000000000e+00 +0.0000000000e+00 +4.5593999997e+01 4.5594000000e+01 5.1100000000e-04 0.0000e+00 1.0000e+00
       11 -1    0    0    0    0 -0.0000000000e+00 -0.0000000000e+00 -4.5593999997e+01 4.5594000000e+01 5.1100000000e-04 0.0000e+00 -1.0000e+00
       23  2    1    2    0    0 +0.0000000000e+00 +0.0000000000e+00 +0.0000000000e+00 9.1188000000e+01 9.1188000000e+01 9.9053e-15 0.0000e+00
  9900012  1    3    3    0    0 -2.2215198547e+01 +1.7362367751e+01 -3.2994793733e+01 4.7787271044e+01 2.0000000000e+01 1.7332e-01 -1.0000e+00
      -12  1    3    3    0    0 +2.2215198547e+01 -1.7362367751e+01 +3.2994793733e+01 4.3400728956e+01 0.0000000000e+00 0.0000e+00 1.0000e+00
</event>
<event>
 5      8 +2.9511900e-02 9.11880000e+01 7.81616400e-03 1.18400000e-01
      -11 -1    0    0    0    0 +0.0000000000e+00 +0.0000000000e+00 +4.5593999997e+01 4.5594000000e+01 5.1100000000e-04 0.0000e+00 -1.0000e+00
       11 -1    0    0    0    0 -0.0000000000e+00 -0.0000000000e+00 -4.5593999997e+01 4.5594000000e+01 5.1100000000e-04 0.0000e+00 1.0000e+00
       23  2    1    2    0    0 +0.0000000000e+00 +0.0000000000e+00 +0.0000000000e+00 9.1188000000e+01 9.1188000000e+01 2.9762e-14 0.0000e+00
  9900012  1    3    3    0    0 +8.4068321788e-01 +3.6912979513e+01 +2.2811147912e+01 4.7787271044e+01 2.0000000000e+01 1.6451e-01 -1.0000e+00
      -12  1    3    3    0    0 -8.4068321788e-01 -3.6912979513e+01 -2.2811147912e+01 4.3400728956e+01 0.0000000000e+00 0.0000e+00 1.0000e+00
</event>
<event>
 5      1 +2.9511900e-02 9.11880000e+01 7.81616400e-03 1.18400000e-01
      -11 -1    0    0    0    0 +0.0000000000e+00 +0.0000000000e+00 +4.5593999997e+01 4.5594000000e+01 5.1100000000e-04 0.0000e+00 1.0000e+00
       11 -1    0    0    0    0 -0.0000000000e+00 -0.0000000000e+00 -4.5593999997e+01 4.5594000000e+01 5.1100000000e-04 0.0000e+00 -1.0000e+00
       23  2    1    2    0    0 +0.0000000000e+00 +0.0000000000e+00 +0.0000000000e+00 9.1188000000e+01 9.1188000000e+01 3.3209e-15 0.0000e+00
  9900012  1    3    3    0    0 -3.3175976753e+01 -6.8472437082e+00 -2.7131035623e+01 4.7787271044e+01 2.0000000000e+01 1.6710e-02 1.0000e+00
       12  1    3    3    0    0 +3.3175976753e+01 +6.8472437082e+00 +2.7131035623e+01 4.3400728956e+01 0.0000000000e+00 0.0000e+00 -1.0000e+00
</event>
<event>
 5      6 +2.9511900e-02 9.11880000e+01 7.81616400e-03 1.18400000e-01
      -11 -1    0    0    0    0 +0.0000000000e+00 +0.0000000000e+00 +4.5593999997e+01 4.5594000000e+01 5.1100000000e-04 0.0000e+00 1.0000e+00
       11 -1    0    0    0    0 -0.0000000000e+00 -0.0000000000e+00 -4.5593999997e+01 4.5594000000e+01 5.1100000000e-04 0.0000e+00 -1.0000e+00
       23  2    1    2    0    0 +0.0000000000e+00 +0.0000000000e+00 +0.0000000000e+00 9.1188000000e+01 9.1188000000e+01 2.9868e-13 0.0000e+00
  9900012  1    3    3    0    0 +1.9601433255e+01 -1.6474352886e+01 -3.5042870676e+01 4.7787271044e+01 2.0000000000e+01 6.7449e-02 -1.0000e+00
      -12  1    3    3    0    0 -1.9601433255e+01 +1.6474352886e+01 +3.5042870676e+01 4.3400728956e+01 0.0000000000e+00 0.0000e+00 1.0000e+00
</event>
<event>
 5      8 +2.9511900e-02 9.11880000e+01 7.81616400e-03 1.18400000e-01
      -11 -1    0    0    0    0 +0.0000000000e+00 +0.0000000000e+00 +4.5593999997e+01 4.5594000000e+01 5.1100000000e-04 0.0000e+00 1.0000e+00
       11 -1    0    0    0    0 -0.0000000000e+00 -0.0000000000e+00 -4.5593999997e+01 4.5594000000e+01 5.1100000000e-04 0.0000e+00 -1.0000e+00
       23  2    1    2    0    0 +0.0000000000e+00 +0.0000000000e+00 +0.0000000000e+00 9.1188000000e+01 9.1188000000e+01 1.3324e-13 0.0000e+00
  9900012  1    3    3    0    0 +1.6243040365e+01 +9.6444835445e+00 -3.9073915221e+01 4.7787271044e+01 2.0000000000e+01 6.6666e-02 -1.0000e+00
      -12  1    3    3    0    0 -1.6243040365e+01 -9.6444835445e+00 +3.9073915221e+01 4.3400728956e+01 0.0000000000e+00 0.0000e+00 1.0000e+00
</event>
<event>
 5      7 +2.9511900e-02 9.11880000e+01 7.81616400e-03 1.18400000e-01
      -11 -1    0    0    0    0 +0.0000000000e+00 +0.0000000000e+00 +4.5593999997e+01 4.5594000000e+01 5.1100000000e-04 0.0000e+00 1.0000e+00
       11 -1    0    0    0    0 -0.0000000000e+00 -0.0000000000e+00 -4.5593999997e+01 4.5594000000e+01 5.1100000000e-04 0.0000e+00 -1.0000e+00
       23  2    1    2    0    0 +0.0000000000e+00 +0.0000000000e+00 +0.0000000000e+00 9.1188000000e+01 9.1188000000e+01 5.5996e-14 0.0000e+00
  9900012  1    3    3    0    0 +3.2426277014e+01 +2.6980680196e+01 +1.0207973796e+01 4.7787271044e+01 2.0000000000e+01 3.4677e-02 1.0000e+00
       12  1    3    3    0    0 -3.2426277014e+01 -2.6980680196e+01 -1.0207973796e+01 4.3400728956e+01 0.0000000000e+00 0.0000e+00 -1.0000e+00
</event>
<event>
 5      4 +2.9511900e-02 9.11880000e+01 7.81616400e-03 1.18400000e-01
      -11 -1    0    0    0    0 +0.0000000000e+00 +0.0000000000e+00 +4.5593999997e+01 4.5594000000e+01 5.1100000000e-04 0.0000e+00 -1.0000e+00
       11 -1    0    0    0    0 -0.0000000000e+00 -0.0000000000e+00 -4.5593999997e+01 4.5594000000e+01 5.1100000000e-04 0.0000e+00 1.0000e+00
       23  2    1    2    0    0 +0.0000000000e+00 +0.0000000000e+00 +0.0000000000e+00 9.1188000000e+01 9.1188000000e+01 1.3070e-13 0.0000e+00
  9900012  1    3    3    0    0 -1.8761483388e+01 +3.1012589483e+01 +2.3871516679e+01 4.7787271044e+01 2.0000000000e+01 6.4140e-02 -1.0000e+00
      -12  1    3    3    0    0 +1.8761483388e+01 -3.1012589483e+01 -2.3871516679e+01 4.3400728956e+01 0.0000000000e+00 0.0000e+00 1.0000e+00
</event>
<event>
 5      6 +2.9511900e-02 9.11880000e+01 7.81616400e-03 1.18400000e-01
      -11 -1    0    0    0    0 +0.0000000000e+00 +0.0000000000e+00 +4.5593999997e+01 4.5594000000e+01 5.1100000000e-04 0.0000e+00 1.0000e+00
       11 -1    0    0    0    0 -0.0000000000e+00 -0.0000000000e+00 -4.5593999997e+01 4.5594000000e+01 5.1100000000e-04 0.0000e+00 -1.0000e+00
       23  2    1    2    0    0 +0.0000000000e+00 +0.0000000000e+00 +0.0000000000e+00 9.1188000000e+01 9.1188000000e+01 9.3664e-15 0.0000e+00
  9900012  1    3    3    0    0 +2.6474897156e+01 +7.1361354030e+00 -3.3641918286e+01 4.7787271044e+01 2.0000000000e+01 1.4992e-03 -1.0000e+00
      -12  1    3    3    0    0 -2.6474897156e+01 -7.1361354030e+00 +3.3641918286e+01 4.3400728956e+01 0.0000000000e+00 0.0000e+00 1.0000e+00
</event>
<event>
 5      8 +2.9511900e-02 9.11880000e+01 7.81616400e-03 1.18400000e-01
      -11 -1    0    0    0    0 +0.0000000000e+00 +0.0000000000e+00 +4.5593999997e+01 4.5594000000e+01 5.1100000000e-04 0.0000e+00 -1.0000e+00
       11 -1    0    0    0    0 -0.0000000000e+00 -0.0000000000e+00 -4.5593999997e+01 4.5594000000e+01 5.1100000000e-04 0.0000e+00 1.0000e+00
       23  2    1    2    0    0 +0.0000000000e+00 +0.0000000000e+00 +0.0000000000e+00 9.1188000000e+01 9.1188000000e+01 3.1944e-14 0.0000e+00
  9900012  1    3    3    0    0 -3.0023161025e+01 -3.0106659922e+01 -8.7075888898e+00 4.7787271044e+01 2.0000000000e+01 4.8132e-02 -1.0000e+00
      -12  1    3    3    0    0 +3.0023161025e+01 +3.0106659922e+01 +8.7075888898e+00 4.3400728956e+01 0.0000000000e+00 0.0000e+00 1.0000e+00
</event>
<event>
 5      4 +2.9511900e-02 9.11880000e+01 7.81616400e-03 1.18400000e-01
      -11 -1    0    0    0    0 +0.0000000000e+00 +0.0000000000e+00 +4.5593999997e+01 4.5594000000e+01 5.1100000000e-04 0.0000e+00 -1.0000e+00
       11 -1    0    0    0    0 -0.0000000000e+00 -0.0000000000e+00 -4.5593999997e+01 4.5594000000e+01 5.1100000000e-04 0.0000e+00 1.0000e+00
       23  2    1    2    0    0 +0.0000000000e+00 +0.0000000000e+00 +0.0000000000e+00 9.1188000000e+01 9.1188000000e+01 6.7596e-14 0.0000e+00
  9900012  1    3    3    0    0 -1.9255417920e+01 +2.8636617471e+01 +2.6321023811e+01 4.7787271044e+01 2.0000000000e+01 9.0207e-02 -1.0000e+00
      -12  1    3    3    0    0 +1.9255417920e+01 -2.8636617471e+01 -2.6321023811e+01 4.3400728956e+01 0.0000000000e+00 0.0000e+00 1.0000e+00
</event>
<event>
 5      4 +2.9511900e-02 9.11880000e+01 7.81616400e-03 1.18400000e-01
      -11 -1    0    0    0    0 +0.0000000000e+00 +0.0000000000e+00 +4.5593999997e+01 4.5594000000e+01 5.1100000000e-04 0.0000e+00 1.0000e+00
       11 -1    0    0    0    0 -0.0000000000e+00 -0.0000000000e+00 -4.5593999997e+01 4.5594000000e+01 5.1100000000e-04 0.0000e+00 -1.0000e+00
       23  2    1    2    0    0 +0.0000000000e+00 +0.0000000000e+00 +0.0000000000e+00 9.1188000000e+01 9.1188000000e+01 1.3664e-13 0.0000e+00
  9900012  1    3    3    0    0 -2.5999414777e+01 +4.6042634804e+00 -3.4444948294e+01 4.7787271044e+01 2.0000000000e+01 1.2074e-01 -1.0000e+00
      -12  1    3    3    0    0 +2.5999414777e+01 -4.6042634804e+00 +3.4444948294e+01 4.3400728956e+01 0.0000000000e+00 0.0000e+00 1.0000e+00
</event>
<event>
 5      3 +2.9511900e-02 9.11880000e+01 7.81616400e-03 1.18400000e-01
      -11 -1    0    0    0    0 +0.0000000000e+00 +0.0000000000e+00 +4.5593999997e+01 4.5594000000e+01 5.1100000000e-04 0.0000e+00 1.0000e+00
       11 -1    0    0    0    0 -0.0000000000e+00 -0.0000000000e+00 -4.5593999997e+01 4.5594000000e+01 5.1100000000e-04 0.0000e+00 -1.0000e+00
       23  2    1    2    0    0 +0.0000000000e+00 +0.0000000000e+00 +0.0000000000e+00 9.1188000000e+01 9.1188000000e+01 4.6749e-14 0.0000e+00
  9900012  1    3    3    0    0 +1.7788015741e+01 +2.5130689909e+00 +3.9508154274e+01 4.7787271044e+01 2.0000000000e+01 2.4919e-02 1.0000e+00
       12  1    3    3    0    0 -1.7788015741e+01 -2.5130689909e+00 -3.9508154274e+01 4.3400728956e+01 0.0000000000e+00 0.0000e+00 -1.0000e+00
</event>
<event>
 5      2 +2.9511900e-02 9.11880000e+01 7.81616400e-03 1.18400000e-01
      -11 -1    0    0    0    0 +0.0000000000e+00 +0.0000000000e+00 +4.5593999997e+01 4.5594000000e+01 5.1100000000e-04 0.0000e+00 1.0000e+00
       11 -1    0    0    0    0 -0.0000000000e+00 -0.0000000000e+00 -4.5593999997e+01 4.5594000000e+01 5.1100000000e-04 0.0000e+00 -1.0000e+00
       23  2    1    2    0    0 +0.0000000000e+00 +0.0000000000e+00 +0.0000000000e+00 9.1188000000e+01 9.1188000000e+01 1.1620e-13 0.0000e+00
  9900012  1    3    3    0    0 +3.5351206646e+01 -2.4645241410e+01 +5.1504891450e+00 4.7787271044e+01 2.0000000000e+01 4.2041e-02 -1.0000e+00
      -12  1    3    3    0    0 -3.5351206646e+01 +2.4645241410e+01 -5.1504891450e+00 4.3400728956e+01 0.0000000000e+00 0.0000e+00 1.0000e+00
</event>
<event>
 5      3 +2.9511900e-02 9.11880000e+01 7.81616400e-03 1.18400000e-01
      -11 -1    0    0    0    0 +0.0000000000e+00 +0.0000000000e+00 +4.5593999997e+01 4.5594000000e+01 5.1100000000e-04 0.0000e+00 1.0000e+00
       11 -1    0    0    0    0 -0.0000000000e+00 -0.0000000000e+00 -4.5593999997e+01 4.5594000000e+01 5.1100000000e-04 0.0000e+00 -1.0000e+00
       23  2    1    2    0    0 +0.0000000000e+00 +0.0000000000e+00 +0.0000000000e+00 9.1188000000e+01 9.1188000000e+01 2.9346e-14 0.0000e+00
  9900012  1    3    3    0    0 +2.1880637505e+01 -2.8427689895e+01 +2.4428004902e+01 4.7787271044e+01 2.0000000000e+01 1.2851e-02 1.0000e+00
       12  1    3    3    0    0 -2.1880637505e+01 +2.8427689895e+01 -2.4428004902e+01 4.3400728956e+01 0.0000000000e+00 0.0000e+00 -1.0000e+00
</event>
<event>
 5      1 +2.9511900e-02 9.11880000e+01 7.81616400e-03 1.18400000e-01
      -11 -1    0    0    0    0 +0.0000000000e+00 +0.0000000000e+00 +4.5593999997e+01 4.5594000000e+01 5.1100000000e-04 0.0000e+00 -1.0000e+00
       11 -1    0    0    0    0 -0.0000000000e+00 -0.0000000000e+00 -4.5593999997e+01 4.5594000000e+01 5.1100000000e-04 0.0000e+00 1.0000e+00
       23  2    1    2    0    0 +0.0000000000e+00 +0.0000000000e+00 +0.0000000000e+00 9.1188000000e+01 9.1188000000e+01 4.2569e-14 0.0000e+00
  9900012  1    3    3    0    0 +6.9222567723e+00 -8.3957192843e+00 -4.2014491937e+01 4.7787271044e+01 2.0000000000e+01 5.0258e-03 1.0000e+00
       12  1    3    3    0    0 -6.9222567723e+00 +8.3957192843e+00 +4.2014491937e+01 4.3400728956e+01 0.0000000000e+00 0.0000e+00 -1.0000e+00
</event>
<event>
 5      6 +2.9511900e-02 9.11880000e+01 7.81616400e-03 1.18400000e-01
      -11 -1    0    0    0    0 +0.0000000000e+00 +0.0000000000e+00 +4.5593999997e+01 4.5594000000e+01 5.1100000000e-04 0.0000e+00 1.0000e+00
       11 -1    0    0    0    0 -0.0000000000e+00 -0.0000000000e+00 -4.5593999997e+01 4.5594000000e+01 5.1100000000e-04 0.0000e+00 -1.0000e+00
       23  2    1    2    0    0 +0.0000000000e+00 +0.0000000000e+00 +0.0000000000e+00 9.1188000000e+01 9.1188000000e+01 5.4349e-14 0.0000e+00
  9900012  1    3    3    0    0 +3.4172496965e+01 -2.0167037077e+01 +1.7582785348e+01 4.7787271044e+01 2.0000000000e+01 1.3265e-01 -1.0000e+00
      -12  1    3    3    0    0 -3.4172496965e+01 +2.0167037077e+01 -1.7582785348e+01 4.3400728956e+01 0.0000000000e+00 0.0000e+00 1.0000e+00
</event>
<event>
 5      1 +2.9511900e-02 9.11880000e+01 7.81616400e-03 1.18400000e-01
      -11 -1    0    0    0    0 +0.0000000000e+00 +0.0000000000e+00 +4.5593999997e+01 4.5594000000e+01 5.1100000000e-04 0.0000e+00 1.0000e+00
       11 -1    0    0    0    0 -0.0000000000e+00 -0.0000000000e+00 -4.5593999997e+01 4.5594000000e+01 5.1100000000e-04 0.0000e+00 -1.0000e+00
       23  2    1    2    0    0 +0.0000000000e+00 +0.0000000000e+00 +0.0000000000e+00 9.1188000000e+01 9.1188000000e+01 2.2408e-13 0.0000e+00
  9900012  1    3    3    0    0 +1.0947993085e+01 -1.4864712199e+01 +3.9278557159e+01 4.7787271044e+01 2.0000000000e+01 2.5429e-01 1.0000e+00
       12  1    3    3    0    0 -1.0947993085e+01 +1.4864712199e+01 -3.9278557159e+01 4.3400728956e+01 0.0000000000e+00 0.0000e+00 -1.0000e+00
</event>
<event>
 5      5 +2.9511900e-02 9.11880000e+01 7.81616400e-03 1.18400000e-01
      -11 -1    0    0    0    0 +0.0000000000e+00 +0.0000000000e+00 +4.5593999997e+01 4.5594000000e+01 5.1100000000e-04 0.0000e+00 1.0000e+00
       11 -1    0    0    0    0 -0.0000000000e+00 -0.0000000000e+00 -4.5593999997e+01 4.5594000000e+01 5.1100000000e-04 0.0000e+00 -1.0000e+00
       23  2    1    2    0    0 +0.0000000000e+00 +0.0000000000e+00 +0.0000000000e+00 9.1188000000e+01 9.1188000000e+01 1.9761e-13 0.0000e+00
  9900012  1    3    3    0    0 -2.5390714108e+01 +3.5114361254e+01 +2.4323948525e+00 4.7787271044e+01 2.0000000000e+01 1.0450e-02 1.0000e+00
       12  1    3    3    0    0 +2.5390714108e+01 -3.5114361254e+01 -2.4323948525e+00 4.3400728956e+01 0.0000000000e+00 0.0000e+00 -1.0000e+00
</event>
<event>
 5      4 +2.9511900e-02 9.11880000e+01 7.81616400e-03 1.18400000e-01
      -11 -1    0    0    0    0 +0.0000000000e+00 +0.0000000000e+00 +4.5593999997e+01 4.5594000000e+01 5.1100000000e-04 0.0000e+00 1.0000e+00
       11 -1    0    0    0    0 -0.0000000000e+00 -0.0000000000e+00 -4.5593999997e+01 4.5594000000e+01 5.1100000000e-04 0.0000e+00 -1.0000e+00
       23  2    1    2    0    0 +0.0000000000e+00 +0.0000000000e+00 +0.0000000000e+00 9.1188000000e+01 9.1188000000e+01 3.6938e-13 0.0000e+00
  9900012  1    3    3    0    0 -3.0626527533e+00 -3.2366149792e+01 -2.8751970013e+01 4.7787271044e+01 2.0000000000e+01 1.0952e-01 -1.0000e+00
      -12  1    3    3    0    0 +3.0626527533e+00 +3.2366149792e+01 +2.8751970013e+01 4.3400728956e+01 0.0000000000e+00 0.0000e+00 1.0000e+00
</event>
<event>
 5      8 +2.9511900e-02 9.11880000e+01 7.81616400e-03 1.18400000e-01
      -11 -1    0    0    0    0 +0.0000000000e+00 +0.0000000000e+00 +4.5593999997e+01 4.5594000000e+01 5.1100000000e-04 0.0000e+00 1.0000e+00
       11 -1    0    0    0    0 -0.0000000000e+00 -0.0000000000e+00 -4.5593999997e+01 4.5594000000e+01 5.1100000000e-04 0.0000e+00 -1.0000e+00
       23  2    1    2    0    0 +0.0000000000e+00 +0.0000000000e+00 +0.0000000000e+00 9.1188000000e+01 9.1188000000e+01 4.1701e-13 0.0000e+00
  9900012  1    3    3    0    0 +3.8438209198e+01 +1.8027920057e+01 -9.0067444707e+00 4.7787271044e+01 2.0000000000e+01 2.0109e-01 -1.0000e+00
      -12  1    3    3    0    0 -3.8438209198e+01 -1.8027920057e+01 +9.0067444707e+00 4.3400728956e+01 0.0000000000e+00 0.0000e+00 1.0000e+00
</event>
<event>
 5      1 +2.9511900e-02 9.11880000e+01 7.81616400e-03 1.18400000e-01
      -11 -1    0    0    0    0 +0.0000000000e+00 +0.0000000000e+00 +4.5593999997e+01 4.5594000000e+01 5.1100000000e-04 0.0000e+00 1.0000e+00
       11 -1    0    0    0    0 -0.0000000000e+00 -0.0000000000e+00 -4.5593999997e+01 4.5594000000e+01 5.1100000000e-04 0.0000e+00 -1.0000e+00
       23  2    1    2    0    0 +0.0000000000e+00 +0.0000000000e+00 +0.0000000000e+00 9.1188000000e+01 9.1188000000e+01 1.3000e-13 0.0000e+00
  9900012  1    3    3    0    0 -3.3288642295e+01 +2.7344849549e+01 +5.2677102378e+00 4.7787271044e+01 2.0000000000e+01 2.1147e-02 1.0000e+00
       12  1    3    3    0    0 +3.3288642295e+01 -2.7344849549e+01 -5.2677102378e+00 4.3400728956e+01 0.0000000000e+00 0.0000e+00 -1.0000e+00
</event>
<event>
 5      3 +2.9511900e-02 9.11880000e+01 7.81616400e-03 1.18400000e-01
      -11 -1    0    0    0    0 +0.0000000000e+00 +0.0000000000e+00 +4.5593999997e+01 4.5594000000e+01 5.1100000000e-04 0.0000e+00 1.0000e+00
       11 -1    0    0    0    0 -0.0000000000e+00 -0.0000000000e+00 -4.5593999997e+01 4.5594000000e+01 5.1100000000e-04 0.0000e+00 -1.0000e+00
       23  2    1    2    0    0 +0.0000000000e+00 +0.0000000000e+00 +0.0000000000e+00 9.1188000000e+01 9.1188000000e+01 6.1974e-14 0.0000e+00
  9900012  1    3    3    0    0 +5.6001311684e+00 +5.9581569689e+00 +4.2623493173e+01 4.7787271044e+01 2.0000000000e+01 1.0957e-01 1.0000e+00
       12  1    3    3    0    0 -5.6001311684e+00 -5.9581569689e+00 -4.2623493173e+01 4.3400728956e+01 0.0000000000e+00 0.0000e+00 -1.0000e+00
</event>
<event>
 5      4 +2.9511900e-02 9.11880000e+01 7.81616400e-03 1.18400000e-01
      -11 -1    0    0    0    0 +0.0000000000e+00 +0.0000000000e+00 +4.5593999997e+01 4.5594000000e+01 5.1100000000e-04 0.0000e+00 1.0000e+00
       11 -1    0    0    0    0 -0.0000000000e+00 -0.0000000000e+00 -4.5593999997e+01 4.5594000000e+01 5.1100000000e-04 0.0000e+00 -1.0000e+00
       23  2    1    2    0    0 +0.0000000000e+00 +0.0000000000e+00 +0.0000000000e+00 9.1188000000e+01 9.1188000000e+01 6.0543e-14 0.0000e+00
  9900012  1    3    3    0    0 +3.6576482510e+01 +2.0177550041e+01 +1.1775002141e+01 4.7787271044e+01 2.0000000000e+01 4.1239e-02 -1.0000e+00
      -12  1    3    3    0    0 -3.6576482510e+01 -2.0177550041e+01 -1.1775002141e+01 4.3400728956e+01 0.0000000000e+00 0.0000e+00 1.0000e+00
</event>
<event>
 5      6 +2.9511900e-02 9.11880000e+01 7.81616400e-03 1.18400000e-01
      -11 -1    0    0    0    0 +0.0000000000e+00 +0.0000000000e+00 +4.5593999997e+01 4.5594000000e+01 5.1100000000e-04 0.0000e+00 1.0000e+00
       11 -1    0    0    0    0 -0.0000000000e+00 -0.0000000000e+00 -4.5593999997e+01 4.5594000000e+01 5.1100000000e-04 0.0000e+00 -1.0000e+00
       23  2    1    2    0    0 +0.0000000000e+00 +0.0000000000e+00 +0.0000000000e+00 9.1188000000e+01 9.1188000000e+01 5.4665e-14 0.0000e+00
  9900012  1    3    3    0    0 +1.5081599706e+01 +2.8236518574e+01 -2.9306443711e+01 4.7787271044e+01 2.0000000000e+01 6.8810e-02 -1.0000e+00
      -12  1    3    3    0    0 -1.5081599706e+01 -2.8236518574e+01 +2.9306443711e+01 4.3400728956e+01 0.0000000000e+00 0.0000e+00 1.0000e+00
</event>
<event>
 5      4 +2.9511900e-02 9.11880000e+01 7.81616400e-03 1.18400000e-01
      -11 -1    0    0    0    0 +0.0000000000e+00 +0.0000000000e+00 +4.5593999997e+01 4.5594000000e+01 5.1100000000e-04 0.0000e+00 1.0000e+00
       11 -1    0    0    0    0 -0.0000000000e+00 -0.0000000000e+00 -4.5593999997e+01 4.5594000000e+01 5.1100000000e-04 0.0000e+00 -1.0000e+00
       23  2    1    2    0    0 +0.0000000000e+00 +0.0000000000e+00 +0.0000000000e+00 9.1188000000e+01 9.1188000000e+01 3.1925e-14 0.0000e+00
  9900012  1    3    3    0    0 -5.0882016473e+00 -4.2461248662e+01 +7.4010701879e+00 4.7787271044e+01 2.0000000000e+01 1.1703e-01 -1.0000e+00
      -12  1    3    3    0    0 +5.0882016473e+00 +4.2461248662e+01 -7.4010701879e+00 4.3400728956e+01 0.0000000000e+00 0.0000e+00 1.0000e+00
</event>
<event>
 5      4 +2.9511900e-02 9.11880000e+01 7.81616400e-03 1.18400000e-01
      -11 -1    0    0    0    0 +0.0000000000e+00 +0.0000000000e+00 +4.5593999997e+01 4.5594000000e+01 5.1100000000e-04 0.0000e+00 1.0000e+00
       11 -1    0    0    0    0 -0.0000000000e+00 -0.0000000000e+00 -4.5593999997e+01 4.5594000000e+01 5.1100000000e-04 0.0000e+00 -1.0000e+00
       23  2    1    2    0    0 +0.0000000000e+00 +0.0000000000e+00 +0.0000000000e+00 9.1188000000e+01 9.1188000000e+01 1.5741e-13 0.0000e+00
  9900012  1    3    3    0    0 -3.6050704851e+01 -1.0312403596e+01 -2.1854617034e+01 4.7787271044e+01 2.0000000000e+01 2.9070e-01 -1.0000e+00
      -12  1    3    3    0    0 +3.6050704851e+01 +1.0312403596e+01 +2.1854617034e+01 4.3400728956e+01 0.0000000000e+00 0.0000e+00 1.0000e+00
</event>
<event>
 5      2 +2.9511900e-02 9.11880000e+01 7.81616400e-03 1.18400000e-01
      -11 -1    0    0    0    0 +0.0000000000e+00 +0.0000000000e+00 +4.5593999997e+01 4.5594000000e+01 5.1100000000e-04 0.0000e+00 1.0000e+00
       11 -1    0    0    0    0 -0.0000000000e+00 -0.0000000000e+00 -4.5593999997e+01 4.5594000000e+01 5.1100000000e-04 0.0000e+00 -1.0000e+00
       23  2    1    2    0    0 +0.0000000000e+00 +0.0000000000e+00 +0.0000000000e+00 9.1188000000e+01 9.1188000000e+01 8.1633e-14 0.0000e+00
  9900012  1    3    3    0    0 -2.6247858277e+01 +3.3490105778e+01 -8.5490364801e+00 4.7787271044e+01 2.0000000000e+01 2.9785e-02 -1.0000e+00
      -12  1    3    3    0    0 +2.6247858277e+01 -3.3490105778e+01 +8.5490364801e+00 4.3400728956e+01 0.0000000000e+00 0.0000e+00 1.0000e+00
</event>
<event>
 5      6 +2.9511900e-02 9.11880000e+01 7.81616400e-03 1.18400000e-01
      -11 -1    0    0    0    0 +0.0000000000e+00 +0.0000000000e+00 +4.5593999997e+01 4.5594000000e+01 5.1100000000e-04 0.0000e+00 -1.0000e+00
       11 -1    0    0    0    0 -0.0000000000e+00 -0.0000000000e+00 -4.5593999997e+01 4.5594000000e+01 5.1100000000e-04 0.0000e+00 1.0000e+00
       23  2    1    2    0    0 +0.0000000000e+00 +0.0000000000e+00 +0.0000000000e+00 9.1188000000e+01 9.1188000000e+01 1.9420e-14 0.0000e+00
  9900012  1    3    3    0    0 +2.6792644979e+01 -7.7043120494e+00 +3.3262907641e+01 4.7787271044e+01 2.0000000000e+01 1.0255e-01 -1.0000e+00
      -12  1    3    3    0    0 -2.6792644979e+01 +7.7043120494e+00 -3.3262907641e+01 4.3400728956e+01 0.0000000000e+00 0.0000e+00 1.0000e+00
</event>
<event>
 5      1 +2.9511900e-02 9.11880000e+01 7.81616400e-03 1.18400000e-01
      -11 -1    0    0    0    0 +0.0000000000e+00 +0.0000000000e+00 +4.5593999997e+01 4.5594000000e+01 5.1100000000e-04 0.0000e+00 1.0000e+00
       11 -1    0    0    0    0 -0.0000000000e+00 -0.0000000000e+00 -4.5593999997e+01 4.5594000000e+01 5.1100000000e-04 0.0000e+00 -1.0000e+00
       23  2    1    2    0    0 +0.0000000000e+00 +0.0000000000e+00 +0.0000000000e+00 9.1188000000e+01 9.1188000000e+01 6.2722e-14 0.0000e+00
  9900012  1    3    3    0    0 -3.3334789844e+01 -2.4596129555e+01 +1.2940072288e+01 4.7787271044e+01 2.0000000000e+01 5.5326e-03 -1.0000e+00
       12  1    3    3    0    0 +3.3334789844e+01 +2.4596129555e+01 -1.2940072288e+01 4.3400728956e+01 0.0000000000e+00 0.0000e+00 -1.0000e+00
</event>
<event>
 5      8 +2.9511900e-02 9.11880000e+01 7.81616400e-03 1.18400000e-01
      -11 -1    0    0    0    0 +0.0000000000e+00 +0.0000000000e+00 +4.5593999997e+01 4.5594000000e+01 5.1100000000e-04 0.0000e+00 -1.0000e+00
       11 -1    0    0    0    0 -0.0000000000e+00 -0.0000000000e+00 -4.5593999997e+01 4.5594000000e+01 5.1100000000e-04 0.0000e+00 1.0000e+00
       23  2    1    2    0    0 +0.0000000000e+00 +0.0000000000e+00 +0.0000000000e+00 9.1188000000e+01 9.1188000000e+01 1.5758e-15 0.0000e+00
  9900012  1    3    3    0    0 +1.1553530957e+01 +3.3491527500e+01 +2.5069040309e+01 4.7787271044e+01 2.0000000000e+01 3.1247e-02 -1.0000e+00
      -12  1    3    3    0    0 -1.1553530957e+01 -3.3491527500e+01 -2.5069040309e+01 4.3400728956e+01 0.0000000000e+00 0.0000e+00 1.0000e+00
</event>
<event>
 5      1 +2.9511900e-02 9.11880000e+01 7.81616400e-03 1.18400000e-01
      -11 -1    0    0    0    0 +0.0000000000e+00 +0.0000000000e+00 +4.5593999997e+01 4.5594000000e+01 5.1100000000e-04 0.0000e+00 -1.0000e+00
       11 -1    0    0    0    0 -0.0000000000e+00 -0.0000000000e+00 -4.5593999997e+01 4.5594000000e+01 5.1100000000e-04 0.0000e+00 1.0000e+00
       23  2    1    2    0    0 +0.0000000000e+00 +0.0000000000e+00 +0.0000000000e+00 9.1188000000e+01 9.1188000000e+01 3.9083e-14 0.0000e+00
  9900012  1    3    3    0    0 -8.7079222459e+00 +4.0229370388e+01 -1.3762017374e+01 4.7787271044e+01 2.0000000000e+01 2.1024e-01 1.0000e+00
       12  1    3    3    0    0 +8.7079222459e+00 -4.0229370388e+01 +1.3762017374e+01 4.3400728956e+01 0.0000000000e+00 0.0000e+00 -1.0000e+00
</event>
<event>
 5      8 +2.9511900e-02 9.11880000e+01 7.81616400e-03 1.18400000e-01
      -11 -1    0    0    0    0 +0.0000000000e+00 +0.0000000000e+00 +4.5593999997e+01 4.5594000000e+01 5.1100000000e-04 0.0000e+00 1.0000e+00
       11 -1    0    0    0    0 -0.0000000000e+00 -0.0000000000e+00 -4.5593999997e+01 4.5594000000e+01 5.1100000000e-04 0.0000e+00 -1.0000e+00
       23  2    1    2    0    0 +0.0000000000e+00 +0.0000000000e+00 +0.0000000000e+00 9.1188000000e+01 9.1188000000e+01 3.8335e-15 0.0000e+00
  9900012  1    3    3    0    0 +2.6777764477e+01 +3.6486516206e+00 -3.3959710612e+01 4.7787271044e+01 2.0000000000e+01 2.4329e-02 -1.0000e+00
      -12  1    3    3    0    0 -2.6777764477e+01 -3.6486516206e+00 +3.3959710612e+01 4.3400728956e+01 0.0000000000e+00 0.0000e+00 1.0000e+00
</event>
<event>
 5      3 +2.9511900e-02 9.11880000e+01 7.81616400e-03 1.18400000e-01
      -11 -1    0    0    0    0 +0.0000000000e+00 +0.0000000000e+00 +4.5593999997e+01 4.5594000000e+01 5.1100000000e-04 0.0000e+00 -1.0000e+00
       11 -1    0    0    0    0 -0.0000000000e+00 -0.0000000000e+00 -4.5593999997e+01 4.5594000000e+01 5.1100000000e-04 0.0000e+00 1.0000e+00
       23  2    1    2    0    0 +0.0000000000e+00 +0.0000000000e+00 +0.0000000000e+00 9.1188000000e+01 9.1188000000e+01 3.9944e-15 0.0000e+00
  9900012  1    3    3    0    0 -1.1347324644e+01 +3.9721353674e+01 -1.3306974098e+01 4.7787271044e+01 2.0000000000e+01 8.8268e-02 1.0000e+00
       12  1    3    3    0    0 +1.1347324644e+01 -3.9721353674e+01 +1.3306974098e+01 4.3400728956e+01 0.0000000000e+00 0.0000e+00 -1.0000e+00
</event>
<event>
 5      6 +2.9511900e-02 9.11880000e+01 7.81616400e-03 1.18400000e-01
      -11 -1    0    0    0    0 +0.0000000000e+00 +0.0000000000e+00 +4.5593999997e+01 4.5594000000e+01 5.1100000000e-04 0.0000e+00 1.0000e+00
       11 -1    0    0    0    0 -0.0000000000e+00 -0.0000000000e+00 -4.5593999997e+01 4.5594000000e+01 5.1100000000e-04 0.0000e+00 -1.0000e+00
       23  2    1    2    0    0 +0.0000000000e+00 +0.0000000000e+00 +0.0000000000e+00 9.1188000000e+01 9.1188000000e+01 1.5197e-13 0.0000e+00
  9900012  1    3    3    0    0 -6.3000565294e-01 +1.8590753393e+01 -3.9212373749e+01 4.7787271044e+01 2.0000000000e+01 1.9695e-02 -1.0000e+00
      -12  1    3    3    0    0 +6.3000565294e-01 -1.8590753393e+01 +3.9212373749e+01 4.3400728956e+01 0.0000000000e+00 0.0000e+00 1.0000e+00
</event>
<event>
 5      7 +2.9511900e-02 9.11880000e+01 7.81616400e-03 1.18400000e-01
      -11 -1    0    0    0    0 +0.0000000000e+00 +0.0000000000e+00 +4.5593999997e+01 4.5594000000e+01 5.1100000000e-04 0.0000e+00 1.0000e+00
       11 -1    0    0    0    0 -0.0000000000e+00 -0.0000000000e+00 -4.5593999997e+01 4.5594000000e+01 5.1100000000e-04 0.0000e+00 -1.0000e+00
       23  2    1    2    0    0 +0.0000000000e+00 +0.0000000000e+00 +0.0000000000e+00 9.1188000000e+01 9.1188000000e+01 2.3030e-13 0.0000e+00
  9900012  1    3    3    0    0 -3.5461659590e+01 +2.9235932307e+00 +2.4850484414e+01 4.7787271044e+01 2.0000000000e+01 1.4305e-01 1.0000e+00
       12  1    3    3    0    0 +3.5461659590e+01 -2.9235932307e+00 -2.4850484414e+01 4.3400728956e+01 0.0000000000e+00 0.0000e+00 -1.0000e+00
</event>
<event>
 5      5 +2.9511900e-02 9.11880000e+01 7.81616400e-03 1.18400000e-01
      -11 -1    0    0    0    0 +0.0000000000e+00 +0.0000000000e+00 +4.5593999997e+01 4.5594000000e+01 5.1100000000e-04 0.0000e+00 -1.0000e+00
       11 -1    0    0    0    0 -0.0000000000e+00 -0.0000000000e+00 -4.5593999997e+01 4.5594000000e+01 5.1100000000e-04 0.0000e+00 1.0000e+00
       23  2    1    2    0    0 +0.0000000000e+00 +0.0000000000e+00 +0.0000000000e+00 9.1188000000e+01 9.1188000000e+01 4.0538e-14 0.0000e+00
  9900012  1    3    3    0    0 +1.1422300396e+01 +1.8249649365e+01 -3.7684275575e+01 4.7787271044e+01 2.0000000000e+01 1.3582e-02 1.0000e+00
       12  1    3    3    0    0 -1.1422300396e+01 -1.8249649365e+01 +3.7684275575e+01 4.3400728956e+01 0.0000000000e+00 0.0000e+00 -1.0000e+00
</event>
<event>
 5      7 +2.9511900e-02 9.11880000e+01 7.81616400e-03 1.18400000e-01
      -11 -1    0    0    0    0 +0.0000000000e+00 +0.0000000000e+00 +4.5593999997e+01 4.5594000000e+01 5.1100000000e-04 0.0000e+00 1.0000e+00
       11 -1    0    0    0    0 -0.0000000000e+00 -0.0000000000e+00 -4.5593999997e+01 4.5594000000e+01 5.1100000000e-04 0.0000e+00 -1.0000e+00
       23  2    1    2    0    0 +0.0000000000e+00 +0.0000000000e+00 +0.0000000000e+00 9.1188000000e+01 9.1188000000e+01 8.2659e-14 0.0000e+00
  9900012  1    3    3    0    0 -4.0885153958e+01 +2.1863379523e+00 -1.4396089263e+01 4.7787271044e+01 2.0000000000e+01 3.1238e-02 1.0000e+00
       12  1    3    3    0    0 +4.0885153958e+01 -2.1863379523e+00 +1.4396089263e+01 4.3400728956e+01 0.0000000000e+00 0.0000e+00 -1.0000e+00
</event>
<event>
 5      7 +2.9511900e-02 9.11880000e+01 7.81616400e-03 1.18400000e-01
      -11 -1    0    0    0    0 +0.0000000000e+00 +0.0000000000e+00 +4.5593999997e+01 4.5594000000e+01 5.1100000000e-04 0.0000e+00 1.0000e+00
       11 -1    0    0    0    0 -0.0000000000e+00 -0.0000000000e+00 -4.5593999997e+01 4.5594000000e+01 5.1100000000e-04 0.0000e+00 -1.0000e+00
       23  2    1    2    0    0 +0.0000000000e+00 +0.0000000000e+00 +0.0000000000e+00 9.1188000000e+01 9.1188000000e+01 3.7339e-14 0.0000e+00
  9900012  1    3    3    0    0 -2.2707677042e+01 -1.8058626526e+01 +3.2278021706e+01 4.7787271044e+01 2.0000000000e+01 1.7076e-01 1.0000e+00
       12  1    3    3    0    0 +2.2707677042e+01 +1.8058626526e+01 -3.2278021706e+01 4.3400728956e+01 0.0000000000e+00 0.0000e+00 -1.0000e+00
</event>
<event>
 5      4 +2.9511900e-02 9.11880000e+01 7.81616400e-03 1.18400000e-01
      -11 -1    0    0    0    0 +0.0000000000e+00 +0.0000000000e+00 +4.5593999997e+01 4.5594000000e+01 5.1100000000e-04 0.0000e+00 1.0000e+00
       11 -1    0    0    0    0 -0.0000000000e+00 -0.0000000000e+00 -4.5593999997e+01 4.5594000000e+01 5.1100000000e-04 0.0000e+00 -1.0000e+00
       23  2    1    2    0    0 +0.0000000000e+00 +0.0000000000e+00 +0.0000000000e+00 9.1188000000e+01 9.1188000000e+01 1.1668e-13 0.0000e+00
  9900012  1    3    3    0    0 +1.6728530574e+01 +1.3808847072e+01 -3.7591159616e+01 4.7787271044e+01 2.0000000000e+01 2.9800e-02 -1.0000e+00
      -12  1    3    3    0    0 -1.6728530574e+01 -1.3808847072e+01 +3.7591159616e+01 4.3400728956e+01 0.0000000000e+00 0.0000e+00 1.0000e+00
</event>
<event>
 5      8 +2.9511900e-02 9.11880000e+01 7.81616400e-03 1.18400000e-01
      -11 -1    0    0    0    0 +0.0000000000e+00 +0.0000000000e+00 +4.5593999997e+01 4.5594000000e+01 5.1100000000e-04 0.0000e+00 -1.0000e+00
       11 -1    0    0    0    0 -0.0000000000e+00 -0.0000000000e+00 -4.5593999997e+01 4.5594000000e+01 5.1100000000e-04 0.0000e+00 1.0000e+00
       23  2    1    2    0    0 +0.0000000000e+00 +0.0000000000e+00 +0.0000000000e+00 9.1188000000e+01 9.1188000000e+01 3.4189e-14 0.0000e+00
  9900012  1    3    3    0    0 +2.3233434666e+01 -1.5484905361e+01 +3.3227225184e+01 4.7787271044e+01 2.0000000000e+01 2.0046e-01 -1.0000e+00
      -12  1    3    3    0    0 -2.3233434666e+01 +1.5484905361e+01 -3.3227225184e+01 4.3400728956e+01 0.0000000000e+00 0.0000e+00 1.0000e+00
</event>
<event>
 5      4 +2.9511900e-02 9.11880000e+01 7.81616400e-03 1.18400000e-01
      -11 -1    0    0    0    0 +0.0000000000e+00 +0.0000000000e+00 +4.5593999997e+01 4.5594000000e+01 5.1100000000e-04 0.0000e+00 -1.0000e+00
       11 -1    0    0    0    0 -0.0000000000e+00 -0.0000000000e+00 -4.5593999997e+01 4.5594000000e+01 5.1100000000e-04 0.0000e+00 1.0000e+00
       23  2    1    2    0    0 +0.0000000000e+00 +0.0000000000e+00 +0.0000000000e+00 9.1188000000e+01 9.1188000000e+01 4.5766e-14 0.0000e+00
  9900012  1    3    3    0    0 +3.8639030554e+01 +7.8414361382e+00 +1.8142780134e+01 4.7787271044e+01 2.0000000000e+01 3.5581e-01 -1.0000e+00
      -12  1    3    3    0    0 -3.8639030554e+01 -7.8414361382e+00 -1.8142780134e+01 4.3400728956e+01 0.0000000000e+00 0.0000e+00 1.0000e+00
</event>
<event>
 5      3 +2.9511900e-02 9.11880000e+01 7.81616400e-03 1.18400000e-01
      -11 -1    0    0    0    0 +0.0000000000e+00 +0.0000000000e+00 +4.5593999997e+01 4.5594000000e+01 5.1100000000e-04 0.0000e+00 1.0000e+00
       11 -1    0    0    0    0 -0.0000000000e+00 -0.0000000000e+00 -4.5593999997e+01 4.5594000000e+01 5.1100000000e-04 0.0000e+00 -1.0000e+00
       23  2    1    2    0    0 +0.0000000000e+00 +0.0000000000e+00 +0.0000000000e+00 9.1188000000e+01 9.1188000000e+01 4.0355e-14 0.0000e+00
  9900012  1    3    3    0    0 -1.2318567788e+01 +5.3296339010e+00 +4.1273128837e+01 4.7787271044e+01 2.0000000000e+01 1.2677e-01 1.0000e+00
       12  1    3    3    0    0 +1.2318567788e+01 -5.3296339010e+00 -4.1273128837e+01 4.3400728956e+01 0.0000000000e+00 0.0000e+00 -1.0000e+00
</event>
<event>
 5      1 +2.9511900e-02 9.11880000e+01 7.81616400e-03 1.18400000e-01
      -11 -1    0    0    0    0 +0.0000000000e+00 +0.0000000000e+00 +4.5593999997e+01 4.5594000000e+01 5.1100000000e-04 0.0000e+00 1.0000e+00
       11 -1    0    0    0    0 -0.0000000000e+00 -0.0000000000e+00 -4.5593999997e+01 4.5594000000e+01 5.1100000000e-04 0.0000e+00 -1.0000e+00
       23  2    1    2    0    0 +0.0000000000e+00 +0.0000000000e+00 +0.0000000000e+00 9.1188000000e+01 9.1188000000e+01 3.0686e-13 0.0000e+00
  9900012  1    3    3    0    0 -4.2027463763e+01 +1.0477086017e+01 -2.7470406086e+00 4.7787271044e+01 2.0000000000e+01 7.7344e-02 1.0000e+00
       12  1    3    3    0    0 +4.2027463763e+01 -1.0477086017e+01 +2.7470406086e+00 4.3400728956e+01 0.0000000000e+00 0.0000e+00 -1.0000e+00
</event>
<event>
 5      8 +2.9511900e-02 9.11880000e+01 7.81616400e-03 1.18400000e-01
      -11 -1    0    0    0    0 +0.0000000000e+00 +0.0000000000e+00 +4.5593999997e+01 4.5594000000e+01 5.1100000000e-04 0.0000e+00 -1.0000e+00
       11 -1    0    0    0    0 -0.0000000000e+00 -0.0000000000e+00 -4.5593999997e+01 4.5594000000e+01 5.1100000000e-04 0.0000e+00 1.0000e+00
       23  2    1    2    0    0 +0.0000000000e+00 +0.0000000000e+00 +0.0000000000e+00 9.1188000000e+01 9.1188000000e+01 2.6330e-15 0.0000e+00
  9900012  1    3    3    0    0 +9.5820217544e+00 -1.1304166976e+01 +4.0792449570e+01 4.7787271044e+01 2.0000000000e+01 1.6228e-02 -1.0000e+00
      -12  1    3    3    0    0 -9.5820217544e+00 +1.1304166976e+01 -4.0792449570e+01 4.3400728956e+01 0.0000000000e+00 0.0000e+00 1.0000e+00
</event>
<event>
 5      3 +2.9511900e-02 9.11880000e+01 7.81616400e-03 1.18400000e-01
      -11 -1    0    0    0    0 +0.0000000000e+00 +0.0000000000e+00 +4.5593999997e+01 4.5594000000e+01 5.1100000000e-04 0.0000e+00 1.0000e+00
       11 -1    0    0    0    0 -0.0000000000e+00 -0.0000000000e+00 -4.5593999997e+01 4.5594000000e+01 5.1100000000e-04 0.0000e+00 -1.0000e+00
       23  2    1    2    0    0 +0.0000000000e+00 +0.0000000000e+00 +0.0000000000e+00 9.1188000000e+01 9.1188000000e+01 3.3168e-14 0.0000e+00
  9900012  1    3    3    0    0 +2.2662007478e+01 -3.6292670276e+01 +7.2731544149e+00 4.7787271044e+01 2.0000000000e+01 1.7396e-01 1.0000e+00
       12  1    3    3    0    0 -2.2662007478e+01 +3.6292670276e+01 -7.2731544149e+00 4.3400728956e+01 0.0000000000e+00 0.0000e+00 -1.0000e+00
</event>
<event>
 5      1 +2.9511900e-02 9.11880000e+01 7.81616400e-03 1.18400000e-01
      -11 -1    0    0    0    0 +0.0000000000e+00 +0.0000000000e+00 +4.5593999997e+01 4.5594000000e+01 5.1100000000e-04 0.0000e+00 -1.0000e+00
       11 -1    0    0    0    0 -0.0000000000e+00 -0.0000000000e+00 -4.5593999997e+01 4.5594000000e+01 5.1100000000e-04 0.0000e+00 1.0000e+00
       23  2    1    2    0    0 +0.0000000000e+00 +0.0000000000e+00 +0.0000000000e+00 9.1188000000e+01 9.1188000000e+01 8.0452e-16 0.0000e+00
  9900012  1    3    3    0    0 -1.5391284133e+00 -1.1296155406e+01 -4.1876619141e+01 4.7787271044e+01 2.0000000000e+01 1.2999e-01 1.0000e+00
       12  1    3    3    0    0 +1.5391284133e+00 +1.1296155406e+01 +4.1876619141e+01 4.3400728956e+01 0.0000000000e+00 0.0000e+00 -1.0000e+00
</event>
<event>
 5      1 +2.9511900e-02 9.11880000e+01 7.81616400e-03 1.18400000e-01
      -11 -1    0    0    0    0 +0.0000000000e+00 +0.0000000000e+00 +4.5593999997e+01 4.5594000000e+01 5.1100000000e-04 0.0000e+00 1.0000e+00
       11 -1    0    0    0    0 -0.0000000000e+00 -0.0000000000e+00 -4.5593999997e+01 4.5594000000e+01 5.1100000000e-04 0.0000e+00 -1.0000e+00
       23  2    1    2    0    0 +0.0000000000e+00 +0.0000000000e+00 +0.0000000000e+00 9.1188000000e+01 9.1188000000e+01 5.9881e-14 0.0000e+00
  9900012  1    3    3    0    0 +1.0104271044e+01 -3.1989239873e+01 +2.7535713408e+01 4.7787271044e+01 2.0000000000e+01 1.2506e-01 1.0000e+00
       12  1    3    3    0    0 -1.0104271044e+01 +3.1989239873e+01 -2.7535713408e+01 4.3400728956e+01 0.0000000000e+00 0.0000e+00 -1.0000e+00
</event>
<event>
 5      1 +2.9511900e-02 9.11880000e+01 7.81616400e-03 1.18400000e-01
      -11 -1    0    0    0    0 +0.0000000000e+00 +0.0000000000e+00 +4.5593999997e+01 4.5594000000e+01 5.1100000000e-04 0.0000e+00 -1.0000e+00
       11 -1    0    0    0    0 -0.0000000000e+00 -0.0000000000e+00 -4.5593999997e+01 4.5594000000e+01 5.1100000000e-04 0.0000e+00 1.0000e+00
       23  2    1    2    0    0 +0.0000000000e+00 +0.0000000000e+00 +0.0000000000e+00 9.1188000000e+01 9.1188000000e+01 5.4367e-14 0.0000e+00
  9900012  1    3    3    0    0 -5.9381851722e+00 -1.7666054061e+01 -3.9195302839e+01 4.7787271044e+01 2.0000000000e+01 1.0365e-01 1.0000e+00
       12  1    3    3    0    0 +5.9381851722e+00 +1.7666054061e+01 +3.9195302839e+01 4.3400728956e+01 0.0000000000e+00 0.0000e+00 -1.0000e+00
</event>
<event>
 5      6 +2.9511900e-02 9.11880000e+01 7.81616400e-03 1.18400000e-01
      -11 -1    0    0    0    0 +0.0000000000e+00 +0.0000000000e+00 +4.5593999997e+01 4.5594000000e+01 5.1100000000e-04 0.0000e+00 1.0000e+00
       11 -1    0    0    0    0 -0.0000000000e+00 -0.0000000000e+00 -4.5593999997e+01 4.5594000000e+01 5.1100000000e-04 0.0000e+00 -1.0000e+00
       23  2    1    2    0    0 +0.0000000000e+00 +0.0000000000e+00 +0.0000000000e+00 9.1188000000e+01 9.1188000000e+01 3.6489e-14 0.0000e+00
  9900012  1    3    3    0    0 +2.7584513425e+01 -2.3570706137e+01 +2.3814695151e+01 4.7787271044e+01 2.0000000000e+01 2.6868e-01 -1.0000e+00
      -12  1    3    3    0    0 -2.7584513425e+01 +2.3570706137e+01 -2.3814695151e+01 4.3400728956e+01 0.0000000000e+00 0.0000e+00 1.0000e+00
</event>
<event>
 5      5 +2.9511900e-02 9.11880000e+01 7.81616400e-03 1.18400000e-01
      -11 -1    0    0    0    0 +0.0000000000e+00 +0.0000000000e+00 +4.5593999997e+01 4.5594000000e+01 5.1100000000e-04 0.0000e+00 -1.0000e+00
       11 -1    0    0    0    0 -0.0000000000e+00 -0.0000000000e+00 -4.5593999997e+01 4.5594000000e+01 5.1100000000e-04 0.0000e+00 1.0000e+00
       23  2    1    2    0    0 +0.0000000000e+00 +0.0000000000e+00 +0.0000000000e+00 9.1188000000e+01 9.1188000000e+01 8.7356e-14 0.0000e+00
  9900012  1    3    3    0    0 +1.4360627033e+01 -3.9173596174e+01 -1.1950942552e+01 4.7787271044e+01 2.0000000000e+01 2.0940e-02 1.0000e+00
       12  1    3    3    0    0 -1.4360627033e+01 +3.9173596174e+01 +1.1950942552e+01 4.3400728956e+01 0.0000000000e+00 0.0000e+00 -1.0000e+00
</event>
<event>
 5      4 +2.9511900e-02 9.11880000e+01 7.81616400e-03 1.18400000e-01
      -11 -1    0    0    0    0 +0.0000000000e+00 +0.0000000000e+00 +4.5593999997e+01 4.5594000000e+01 5.1100000000e-04 0.0000e+00 1.0000e+00
       11 -1    0    0    0    0 -0.0000000000e+00 -0.0000000000e+00 -4.5593999997e+01 4.5594000000e+01 5.1100000000e-04 0.0000e+00 -1.0000e+00
       23  2    1    2    0    0 +0.0000000000e+00 +0.0000000000e+00 +0.0000000000e+00 9.1188000000e+01 9.1188000000e+01 1.6897e-14 0.0000e+00
  9900012  1    3    3    0    0 -1.4301820463e+00 +3.5050920862e+00 -4.3235311756e+01 4.7787271044e+01 2.0000000000e+01 2.8216e-01 -1.0000e+00
      -12  1    3    3    0    0 +1.4301820463e+00 -3.5050920862e+00 +4.3235311756e+01 4.3400728956e+01 0.0000000000e+00 0.0000e+00 1.0000e+00
</event>
<event>
 5      6 +2.9511900e-02 9.11880000e+01 7.81616400e-03 1.18400000e-01
      -11 -1    0    0    0    0 +0.0000000000e+00 +0.0000000000e+00 +4.5593999997e+01 4.5594000000e+01 5.1100000000e-04 0.0000e+00 -1.0000e+00
       11 -1    0    0    0    0 -0.0000000000e+00 -0.0000000000e+00 -4.5593999997e+01 4.5594000000e+01 5.1100000000e-04 0.0000e+00 1.0000e+00
       23  2    1    2    0    0 +0.0000000000e+00 +0.0000000000e+00 +0.0000000000e+00 9.1188000000e+01 9.1188000000e+01 1.2720e-13 0.0000e+00
  9900012  1    3    3    0    0 +1.0228538768e+01 -2.2142118001e+01 +3.5898842307e+01 4.7787271044e+01 2.0000000000e+01 3.2188e-01 -1.0000e+00
      -12  1    3    3    0    0 -1.0228538768e+01 +2.2142118001e+01 -3.5898842307e+01 4.3400728956e+01 0.0000000000e+00 0.0000e+00 1.0000e+00
</event>
<event>
 5      8 +2.9511900e-02 9.11880000e+01 7.81616400e-03 1.18400000e-01
      -11 -1    0    0    0    0 +0.0000000000e+00 +0.0000000000e+00 +4.5593999997e+01 4.5594000000e+01 5.1100000000e-04 0.0000e+00 -1.0000e+00
       11 -1    0    0    0    0 -0.0000000000e+00 -0.0000000000e+00 -4.5593999997e+01 4.5594000000e+01 5.1100000000e-04 0.0000e+00 1.0000e+00
       23  2    1    2    0    0 +0.0000000000e+00 +0.0000000000e+00 +0.0000000000e+00 9.1188000000e+01 9.1188000000e+01 4.7786e-14 0.0000e+00
  9900012  1    3    3    0    0 -3.7701974649e+01 +2.1493514849e+01 -4.6173677348e-01 4.7787271044e+01 2.0000000000e+01 1.3054e-01 -1.0000e+00
      -12  1    3    3    0    0 +3.7701974649e+01 -2.1493514849e+01 +4.6173677348e-01 4.3400728956e+01 0.0000000000e+00 0.0000e+00 1.0000e+00
</event>
<event>
 5      8 +2.9511900e-02 9.11880000e+01 7.81616400e-03 1.18400000e-01
      -11 -1    0    0    0    0 +0.0000000000e+00 +0.0000000000e+00 +4.5593999997e+01 4.5594000000e+01 5.1100000000e-04 0.0000e+00 1.0000e+00
       11 -1    0    0    0    0 -0.0000000000e+00 -0.0000000000e+00 -4.5593999997e+01 4.5594000000e+01 5.1100000000e-04 0.0000e+00 -1.0000e+00
       23  2    1    2    0    0 +0.0000000000e+00 +0.0000000000e+00 +0.0000000000e+00 9.1188000000e+01 9.1188000000e+01 3.9701e-14 0.0000e+00
  9900012  1    3    3    0    0 -1.1270589734e+01 +1.0559592199e+01 -4.0559734880e+01 4.7787271044e+01 2.0000000000e+01 4.2028e-03 -1.0000e+00
      -12  1    3    3    0    0 +1.1270589734e+01 -1.0559592199e+01 +4.0559734880e+01 4.3400728956e+01 0.0000000000e+00 0.0000e+00 1.0000e+00
</event>
<event>
 5      3 +2.9511900e-02 9.11880000e+01 7.81616400e-03 1.18400000e-01
      -11 -1    0    0    0    0 +0.0000000000e+00 +0.0000000000e+00 +4.5593999997e+01 4.5594000000e+01 5.1100000000e-04 0.0000e+00 -1.0000e+00
       11 -1    0    0    0    0 -0.0000000000e+00 -0.0000000000e+00 -4.5593999997e+01 4.5594000000e+01 5.1100000000e-04 0.0000e+00 1.0000e+00
       23  2    1    2    0    0 +0.0000000000e+00 +0.0000000000e+00 +0.0000000000e+00 9.1188000000e+01 9.1188000000e+01 1.5555e-14 0.0000e+00
  9900012  1    3    3    0    0 +9.4419150719e+00 -3.3301365521e+01 -2.6181912996e+01 4.7787271044e+01 2.0000000000e+01 1.3856e-01 1.0000e+00
       12  1    3    3    0    0 -9.4419150719e+00 +3.3301365521e+01 +2.6181912996e+01 4.3400728956e+01 0.0000000000e+00 0.0000e+00 -1.0000e+00
</event>
<event>
 5      6 +2.9511900e-02 9.11880000e+01 7.81616400e-03 1.18400000e-01
      -11 -1    0    0    0    0 +0.0000000000e+00 +0.0000000000e+00 +4.5593999997e+01 4.5594000000e+01 5.1100000000e-04 0.0000e+00 -1.0000e+00
       11 -1    0    0    0    0 -0.0000000000e+00 -0.0000000000e+00 -4.5593999997e+01 4.5594000000e+01 5.1100000000e-04 0.0000e+00 1.0000e+00
       23  2    1    2    0    0 +0.0000000000e+00 +0.0000000000e+00 +0.0000000000e+00 9.1188000000e+01 9.1188000000e+01 2.5412e-14 0.0000e+00
  9900012  1    3    3    0    0 +1.9344877974e+01 +3.1539747030e+01 -2.2685751637e+01 4.7787271044e+01 2.0000000000e+01 6.9958e-02 -1.0000e+00
      -12  1    3    3    0    0 -1.9344877974e+01 -3.1539747030e+01 +2.2685751637e+01 4.3400728956e+01 0.0000000000e+00 0.0000e+00 1.0000e+00
</event>
<event>
 5      8 +2.9511900e-02 9.11880000e+01 7.81616400e-03 1.18400000e-01
      -11 -1    0    0    0    0 +0.0000000000e+00 +0.0000000000e+00 +4.5593999997e+01 4.5594000000e+01 5.1100000000e-04 0.0000e+00 1.0000e+00
       11 -1    0    0    0    0 -0.0000000000e+00 -0.0000000000e+00 -4.5593999997e+01 4.5594000000e+01 5.1100000000e-04 0.0000e+00 -1.0000e+00
       23  2    1    2    0    0 +0.0000000000e+00 +0.0000000000e+00 +0.0000000000e+00 9.1188000000e+01 9.1188000000e+01 1.7737e-14 0.0000e+00
  9900012  1    3    3    0    0 -3.7183731520e+01 +2.2270177310e+01 -2.2433427500e+00 4.7787271044e+01 2.0000000000e+01 1.3639e-01 -1.0000e+00
      -12  1    3    3    0    0 +3.7183731520e+01 -2.2270177310e+01 +2.2433427500e+00 4.3400728956e+01 0.0000000000e+00 0.0000e+00 1.0000e+00
</event>
<event>
 5      8 +2.9511900e-02 9.11880000e+01 7.81616400e-03 1.18400000e-01
      -11 -1    0    0    0    0 +0.0000000000e+00 +0.0000000000e+00 +4.5593999997e+01 4.5594000000e+01 5.1100000000e-04 0.0000e+00 -1.0000e+00
       11 -1    0    0    0    0 -0.0000000000e+00 -0.0000000000e+00 -4.5593999997e+01 4.5594000000e+01 5.1100000000e-04 0.0000e+00 1.0000e+00
       23  2    1    2    0    0 +0.0000000000e+00 +0.0000000000e+00 +0.0000000000e+00 9.1188000000e+01 9.1188000000e+01 4.8638e-14 0.0000e+00
  9900012  1    3    3    0    0 +1.0358754179e+01 -3.3813975855e+01 +2.5158189971e+01 4.7787271044e+01 2.0000000000e+01 2.8230e-01 -1.0000e+00
      -12  1    3    3    0    0 -1.0358754179e+01 +3.3813975855e+01 -2.5158189971e+01 4.3400728956e+01 0.0000000000e+00 0.0000e+00 1.0000e+00
</event>
<event>
 5      2 +2.9511900e-02 9.11880000e+01 7.81616400e-03 1.18400000e-01
      -11 -1    0    0    0    0 +0.0000000000e+00 +0.0000000000e+00 +4.5593999997e+01 4.5594000000e+01 5.1100000000e-04 0.0000e+00 1.0000e+00
       11 -1    0    0    0    0 -0.0000000000e+00 -0.0000000000e+00 -4.5593999997e+01 4.5594000000e+01 5.1100000000e-04 0.0000e+00 -1.0000e+00
       23  2    1    2    0    0 +0.0000000000e+00 +0.0000000000e+00 +0.0000000000e+00 9.1188000000e+01 9.1188000000e+01 3.3043e-14 0.0000e+00
  9900012  1    3    3    0    0 +1.6037289830e+01 -3.9349558513e+01 -8.8340734426e+00 4.7787271044e+01 2.0000000000e+01 2.2393e-02 -1.0000e+00
      -12  1    3    3    0    0 -1.6037289830e+01 +3.9349558513e+01 +8.8340734426e+00 4.3400728956e+01 0.0000000000e+00 0.0000e+00 1.0000e+00
</event>
<event>
 5      7 +2.9511900e-02 9.11880000e+01 7.81616400e-03 1.18400000e-01
      -11 -1    0    0    0    0 +0.0000000000e+00 +0.0000000000e+00 +4.5593999997e+01 4.5594000000e+01 5.1100000000e-04 0.0000e+00 1.0000e+00
       11 -1    0    0    0    0 -0.0000000000e+00 -0.0000000000e+00 -4.5593999997e+01 4.5594000000e+01 5.1100000000e-04 0.0000e+00 -1.0000e+00
       23  2    1    2    0    0 +0.0000000000e+00 +0.0000000000e+00 +0.0000000000e+00 9.1188000000e+01 9.1188000000e+01 6.4879e-14 0.0000e+00
  9900012  1    3    3    0    0 +1.9626827233e+01 +1.5679808441e+01 +3.5391447186e+01 4.7787271044e+01 2.0000000000e+01 1.6734e-01 1.0000e+00
       12  1    3    3    0    0 -1.9626827233e+01 -1.5679808441e+01 -3.5391447186e+01 4.3400728956e+01 0.0000000000e+00 0.0000e+00 -1.0000e+00
</event>
<event>
 5      3 +2.9511900e-02 9.11880000e+01 7.81616400e-03 1.18400000e-01
      -11 -1    0    0    0    0 +0.0000000000e+00 +0.0000000000e+00 +4.5593999997e+01 4.5594000000e+01 5.1100000000e-04 0.0000e+00 -1.0000e+00
       11 -1    0    0    0    0 -0.0000000000e+00 -0.0000000000e+00 -4.5593999997e+01 4.5594000000e+01 5.1100000000e-04 0.0000e+00 1.0000e+00
       23  2    1    2    0    0 +0.0000000000e+00 +0.0000000000e+00 +0.0000000000e+00 9.1188000000e+01 9.1188000000e+01 3.4125e-14 0.0000e+00
  9900012  1    3    3    0    0 +1.2001413424e+01 +2.1497045050e+01 -3.5741662018e+01 4.7787271044e+01 2.0000000000e+01 3.4824e-01 1.0000e+00
       12  1    3    3    0    0 -1.2001413424e+01 -2.1497045050e+01 +3.5741662018e+01 4.3400728956e+01 0.0000000000e+00 0.0000e+00 -1.0000e+00
</event>
<event>
 5      5 +2.9511900e-02 9.11880000e+01 7.81616400e-03 1.18400000e-01
      -11 -1    0    0    0    0 +0.0000000000e+00 +0.0000000000e+00 +4.5593999997e+01 4.5594000000e+01 5.1100000000e-04 0.0000e+00 1.0000e+00
       11 -1    0    0    0    0 -0.0000000000e+00 -0.0000000000e+00 -4.5593999997e+01 4.5594000000e+01 5.1100000000e-04 0.0000e+00 -1.0000e+00
       23  2    1    2    0    0 +0.0000000000e+00 +0.0000000000e+00 +0.0000000000e+00 9.1188000000e+01 9.1188000000e+01 1.9230e-13 0.0000e+00
  9900012  1    3    3    0    0 +1.9463801880e+00 -4.0397282796e+01 +1.5744663247e+01 4.7787271044e+01 2.0000000000e+01 1.2625e-01 1.0000e+00
       12  1    3    3    0    0 -1.9463801880e+00 +4.0397282796e+01 -1.5744663247e+01 4.3400728956e+01 0.0000000000e+00 0.0000e+00 -1.0000e+00
</event>
<event>
 5      8 +2.9511900e-02 9.11880000e+01 7.81616400e-03 1.18400000e-01
      -11 -1    0    0    0    0 +0.0000000000e+00 +0.0000000000e+00 +4.5593999997e+01 4.5594000000e+01 5.1100000000e-04 0.0000e+00 -1.0000e+00
       11 -1    0    0    0    0 -0.0000000000e+00 -0.0000000000e+00 -4.5593999997e+01 4.5594000000e+01 5.1100000000e-04 0.0000e+00 1.0000e+00
       23  2    1    2    0    0 +0.0000000000e+00 +0.0000000000e+00 +0.0000000000e+00 9.1188000000e+01 9.1188000000e+01 3.0345e-14 0.0000e+00
  9900012  1    3    3    0    0 -2.4714718861e-01 +2.5148177011e+01 +3.5371335643e+01 4.7787271044e+01 2.0000000000e+01 8.9872e-02 -1.0000e+00
      -12  1    3    3    0    0 +2.4714718861e-01 -2.5148177011e+01 -3.5371335643e+01 4.3400728956e+01 0.0000000000e+00 0.0000e+00 1.0000e+00
</event>
<event>
 5      4 +2.9511900e-02 9.11880000e+01 7.81616400e-03 1.18400000e-01
      -11 -1    0    0    0    0 +0.0000000000e+00 +0.0000000000e+00 +4.5593999997e+01 4.5594000000e+01 5.1100000000e-04 0.0000e+00 -1.0000e+00
       11 -1    0    0    0    0 -0.0000000000e+00 -0.0000000000e+00 -4.5593999997e+01 4.5594000000e+01 5.1100000000e-04 0.0000e+00 1.0000e+00
       23  2    1    2    0    0 +0.0000000000e+00 +0.0000000000e+00 +0.0000000000e+00 9.1188000000e+01 9.1188000000e+01 1.4554e-13 0.0000e+00
  9900012  1    3    3    0    0 +3.4651703124e+01 -2.3199763989e+01 -1.2027206464e+01 4.7787271044e+01 2.0000000000e+01 2.1399e-02 -1.0000e+00
      -12  1    3    3    0    0 -3.4651703124e+01 +2.3199763989e+01 +1.2027206464e+01 4.3400728956e+01 0.0000000000e+00 0.0000e+00 1.0000e+00
</event>
<event>
 5      2 +2.9511900e-02 9.11880000e+01 7.81616400e-03 1.18400000e-01
      -11 -1    0    0    0    0 +0.0000000000e+00 +0.0000000000e+00 +4.5593999997e+01 4.5594000000e+01 5.1100000000e-04 0.0000e+00 1.0000e+00
       11 -1    0    0    0    0 -0.0000000000e+00 -0.0000000000e+00 -4.5593999997e+01 4.5594000000e+01 5.1100000000e-04 0.0000e+00 -1.0000e+00
       23  2    1    2    0    0 +0.0000000000e+00 +0.0000000000e+00 +0.0000000000e+00 9.1188000000e+01 9.1188000000e+01 2.0193e-13 0.0000e+00
  9900012  1    3    3    0    0 +3.6856807671e+00 -1.7754813806e+01 -3.9431023546e+01 4.7787271044e+01 2.0000000000e+01 2.8966e-02 -1.0000e+00
      -12  1    3    3    0    0 -3.6856807671e+00 +1.7754813806e+01 +3.9431023546e+01 4.3400728956e+01 0.0000000000e+00 0.0000e+00 1.0000e+00
</event>
<event>
 5      3 +2.9511900e-02 9.11880000e+01 7.81616400e-03 1.18400000e-01
      -11 -1    0    0    0    0 +0.0000000000e+00 +0.0000000000e+00 +4.5593999997e+01 4.5594000000e+01 5.1100000000e-04 0.0000e+00 -1.0000e+00
       11 -1    0    0    0    0 -0.0000000000e+00 -0.0000000000e+00 -4.5593999997e+01 4.5594000000e+01 5.1100000000e-04 0.0000e+00 1.0000e+00
       23  2    1    2    0    0 +0.0000000000e+00 +0.0000000000e+00 +0.0000000000e+00 9.1188000000e+01 9.1188000000e+01 1.4996e-14 0.0000e+00
  9900012  1    3    3    0    0 -2.1612898663e+01 +1.3720804290e+01 -3.5046332403e+01 4.7787271044e+01 2.0000000000e+01 6.2246e-02 1.0000e+00
       12  1    3    3    0    0 +2.1612898663e+01 -1.3720804290e+01 +3.5046332403e+01 4.3400728956e+01 0.0000000000e+00 0.0000e+00 -1.0000e+00
</event>
<event>
 5      8 +2.9511900e-02 9.11880000e+01 7.81616400e-03 1.18400000e-01
      -11 -1    0    0    0    0 +0.0000000000e+00 +0.0000000000e+00 +4.5593999997e+01 4.5594000000e+01 5.1100000000e-04 0.0000e+00 1.0000e+00
       11 -1    0    0    0    0 -0.0000000000e+00 -0.0000000000e+00 -4.5593999997e+01 4.5594000000e+01 5.1100000000e-04 0.0000e+00 -1.0000e+00
       23  2    1    2    0    0 +0.0000000000e+00 +0.0000000000e+00 +0.0000000000e+00 9.1188000000e+01 9.1188000000e+01 2.2309e-14 0.0000e+00
  9900012  1    3    3    0    0 -3.4122192817e+01 -1.3200111988e+01 +2.3346440301e+01 4.7787271044e+01 2.0000000000e+01 5.7770e-02 -1.0000e+00
      -12  1    3    3    0    0 +3.4122192817e+01 +1.3200111988e+01 -2.3346440301e+01 4.3400728956e+01 0.0000000000e+00 0.0000e+00 1.0000e+00
</event>
<event>
 5      6 +2.9511900e-02 9.11880000e+01 7.81616400e-03 1.18400000e-01
      -11 -1    0    0    0    0 +0.0000000000e+00 +0.0000000000e+00 +4.5593999997e+01 4.5594000000e+01 5.1100000000e-04 0.0000e+00 -1.0000e+00
       11 -1    0    0    0    0 -0.0000000000e+00 -0.0000000000e+00 -4.5593999997e+01 4.5594000000e+01 5.1100000000e-04 0.0000e+00 1.0000e+00
       23  2    1    2    0    0 +0.0000000000e+00 +0.0000000000e+00 +0.0000000000e+00 9.1188000000e+01 9.1188000000e+01 7.0600e-14 0.0000e+00
  9900012  1    3    3    0    0 -1.1996841409e+01 -9.6235037965e+00 +4.0584322647e+01 4.7787271044e+01 2.0000000000e+01 5.5361e-02 -1.0000e+00
      -12  1    3    3    0    0 +1.1996841409e+01 +9.6235037965e+00 -4.0584322647e+01 4.3400728956e+01 0.0000000000e+00 0.0000e+00 1.0000e+00
</event>
<event>
 5      3 +2.9511900e-02 9.11880000e+01 7.81616400e-03 1.18400000e-01
      -11 -1    0    0    0    0 +0.0000000000e+00 +0.0000000000e+00 +4.5593999997e+01 4.5594000000e+01 5.1100000000e-04 0.0000e+00 1.0000e+00
       11 -1    0    0    0    0 -0.0000000000e+00 -0.0000000000e+00 -4.5593999997e+01 4.5594000000e+01 5.1100000000e-04 0.0000e+00 -1.0000e+00
       23  2    1    2    0    0 +0.0000000000e+00 +0.0000000000e+00 +0.0000000000e+00 9.1188000000e+01 9.1188000000e+01 3.9823e-15 0.0000e+00
  9900012  1    3    3    0    0 -2.0190113843e+00 +3.9101296419e+01 +1.8725263288e+01 4.7787271044e+01 2.0000000000e+01 3.7688e-02 1.0000e+00
       12  1    3    3    0    0 +2.0190113843e+00 -3.9101296419e+01 -1.8725263288e+01 4.3400728956e+01 0.0000000000e+00 0.0000e+00 -1.0000e+00
</event>
<event>
 5      3 +2.9511900e-02 9.11880000e+01 7.81616400e-03 1.18400000e-01
      -11 -1    0    0    0    0 +0.0000000000e+00 +0.0000000000e+00 +4.5593999997e+01 4.5594000000e+01 5.1100000000e-04 0.0000e+00 -1.0000e+00
       11 -1    0    0    0    0 -0.0000000000e+00 -0.0000000000e+00 -4.5593999997e+01 4.5594000000e+01 5.1100000000e-04 0.0000e+00 1.0000e+00
       23  2    1    2    0    0 +0.0000000000e+00 +0.0000000000e+00 +0.0000000000e+00 9.1188000000e+01 9.1188000000e+01 1.8554e-14 0.0000e+00
  9900012  1    3    3    0    0 -9.4370293757e+00 -2.4287000634e+01 -3.4708894402e+01 4.7787271044e+01 2.0000000000e+01 4.5871e-02 1.0000e+00
       12  1    3    3    0    0 +9.4370293757e+00 +2.4287000634e+01 +3.4708894402e+01 4.3400728956e+01 0.0000000000e+00 0.0000e+00 -1.0000e+00
</event>
<event>
 5      6 +2.9511900e-02 9.11880000e+01 7.81616400e-03 1.18400000e-01
      -11 -1    0    0    0    0 +0.0000000000e+00 +0.0000000000e+00 +4.5593999997e+01 4.5594000000e+01 5.1100000000e-04 0.0000e+00 -1.0000e+00
       11 -1    0    0    0    0 -0.0000000000e+00 -0.0000000000e+00 -4.5593999997e+01 4.5594000000e+01 5.1100000000e-04 0.0000e+00 1.0000e+00
       23  2    1    2    0    0 +0.0000000000e+00 +0.0000000000e+00 +0.0000000000e+00 9.1188000000e+01 9.1188000000e+01 4.8653e-15 0.0000e+00
  9900012  1    3    3    0    0 +2.8960228166e+01 -2.7179320126e+01 +1.7498943281e+01 4.7787271044e+01 2.0000000000e+01 3.5857e-04 -1.0000e+00
      -12  1    3    3    0    0 -2.8960228166e+01 +2.7179320126e+01 -1.7498943281e+01 4.3400728956e+01 0.0000000000e+00 0.0000e+00 1.0000e+00
</event>
<event>
 5      7 +2.9511900e-02 9.11880000e+01 7.81616400e-03 1.18400000e-01
      -11 -1    0    0    0    0 +0.0000000000e+00 +0.0000000000e+00 +4.5593999997e+01 4.5594000000e+01 5.1100000000e-04 0.0000e+00 1.0000e+00
       11 -1    0    0    0    0 -0.0000000000e+00 -0.0000000000e+00 -4.5593999997e+01 4.5594000000e+01 5.1100000000e-04 0.0000e+00 -1.0000e+00
       23  2    1    2    0    0 +0.0000000000e+00 +0.0000000000e+00 +0.0000000000e+00 9.1188000000e+01 9.1188000000e+01 3.2252e-13 0.0000e+00
  9900012  1    3    3    0    0 +2.8648293503e+01 -6.5700083131e+00 +3.1933267043e+01 4.7787271044e+01 2.0000000000e+01 1.0042e-01 1.0000e+00
       12  1    3    3    0    0 -2.8648293503e+01 +6.5700083131e+00 -3.1933267043e+01 4.3400728956e+01 0.0000000000e+00 0.0000e+00 -1.0000e+00
</event>
<event>
 5      1 +2.9511900e-02 9.11880000e+01 7.81616400e-03 1.18400000e-01
      -11 -1    0    0    0    0 +0.0000000000e+00 +0.0000000000e+00 +4.5593999997e+01 4.5594000000e+01 5.1100000000e-04 0.0000e+00 1.0000e+00
       11 -1    0    0    0    0 -0.0000000000e+00 -0.0000000000e+00 -4.5593999997e+01 4.5594000000e+01 5.1100000000e-04 0.0000e+00 -1.0000e+00
       23  2    1    2    0    0 +0.0000000000e+00 +0.0000000000e+00 +0.0000000000e+00 9.1188000000e+01 9.1188000000e+01 3.0000e-13 0.0000e+00
  9900012  1    3    3    0    0 +3.3811575038e+01 +2.2792834606e+00 +2.7114673780e+01 4.7787271044e+01 2.0000000000e+01 3.8681e-01 1.0000e+00
       12  1    3    3    0    0 -3.3811575038e+01 -2.2792834606e+00 -2.7114673780e+01 4.3400728956e+01 0.0000000000e+00 0.0000e+00 -1.0000e+00
</event>
<event>
 5      3 +2.9511900e-02 9.11880000e+01 7.81616400e-03 1.18400000e-01
      -11 -1    0    0    0    0 +0.0000000000e+00 +0.0000000000e+00 +4.5593999997e+01 4.5594000000e+01 5.1100000000e-04 0.0000e+00 -1.0000e+00
       11 -1    0    0    0    0 -0.0000000000e+00 -0.0000000000e+00 -4.5593999997e+01 4.5594000000e+01 5.1100000000e-04 0.0000e+00 1.0000e+00
       23  2    1    2    0    0 +0.0000000000e+00 +0.0000000000e+00 +0.0000000000e+00 9.1188000000e+01 9.1188000000e+01 4.3088e-14 0.0000e+00
  9900012  1    3    3    0    0 +2.0688634196e+00 -3.1393489734e+00 -4.3237571232e+01 4.7787271044e+01 2.0000000000e+01 2.2321e-01 1.0000e+00
       12  1    3    3    0    0 -2.0688634196e+00 +3.1393489734e+00 +4.3237571232e+01 4.3400728956e+01 0.0000000000e+00 0.0000e+00 -1.0000e+00
</event>
<event>
 5      6 +2.9511900e-02 9.11880000e+01 7.81616400e-03 1.18400000e-01
      -11 -1    0    0    0    0 +0.0000000000e+00 +0.0000000000e+00 +4.5593999997e+01 4.5594000000e+01 5.1100000000e-04 0.0000e+00 1.0000e+00
       11 -1    0    0    0    0 -0.0000000000e+00 -0.0000000000e+00 -4.5593999997e+01 4.5594000000e+01 5.1100000000e-04 0.0000e+00 -1.0000e+00
       23  2    1    2    0    0 +0.0000000000e+00 +0.0000000000e+00 +0.0000000000e+00 9.1188000000e+01 9.1188000000e+01 5.4711e-15 0.0000e+00
  9900012  1    3    3    0    0 +8.3678664247e+00 -2.0905111683e+01 -3.7102269350e+01 4.7787271044e+01 2.0000000000e+01 2.1725e-02 -1.0000e+00
      -12  1    3    3    0    0 -8.3678664247e+00 +2.0905111683e+01 +3.7102269350e+01 4.3400728956e+01 0.0000000000e+00 0.0000e+00 1.0000e+00
</event>
<event>
 5      7 +2.9511900e-02 9.11880000e+01 7.81616400e-03 1.18400000e-01
      -11 -1    0    0    0    0 +0.0000000000e+00 +0.0000000000e+00 +4.5593999997e+01 4.5594000000e+01 5.1100000000e-04 0.0000e+00 -1.0000e+00
       11 -1    0    0    0    0 -0.0000000000e+00 -0.0000000000e+00 -4.5593999997e+01 4.5594000000e+01 5.1100000000e-04 0.0000e+00 1.0000e+00
       23  2    1    2    0    0 +0.0000000000e+00 +0.0000000000e+00 +0.0000000000e+00 9.1188000000e+01 9.1188000000e+01 1.8411e-13 0.0000e+00
  9900012  1    3    3    0    0 -1.2127748328e+00 -6.1004352765e+00 -4.2952731467e+01 4.7787271044e+01 2.0000000000e+01 8.3421e-02 1.0000e+00
       12  1    3    3    0    0 +1.2127748328e+00 +6.1004352765e+00 +4.2952731467e+01 4.3400728956e+01 0.0000000000e+00 0.0000e+00 -1.0000e+00
</event>
<event>
 5      8 +2.9511900e-02 9.11880000e+01 7.81616400e-03 1.18400000e-01
      -11 -1    0    0    0    0 +0.0000000000e+00 +0.0000000000e+00 +4.5593999997e+01 4.5594000000e+01 5.1100000000e-04 0.0000e+00 1.0000e+00
       11 -1    0    0    0    0 -0.0000000000e+00 -0.0000000000e+00 -4.5593999997e+01 4.5594000000e+01 5.1100000000e-04 0.0000e+00 -1.0000e+00
       23  2    1    2    0    0 +0.0000000000e+00 +0.0000000000e+00 +0.0000000000e+00 9.1188000000e+01 9.1188000000e+01 1.1695e-14 0.0000e+00
  9900012  1    3    3    0    0 +3.9141417001e+01 +1.8292071980e+01 -4.1198120962e+00 4.7787271044e+01 2.0000000000e+01 1.5604e-02 -1.0000e+00
      -12  1    3    3    0    0 -3.9141417001e+01 -1.8292071980e+01 +4.1198120962e+00 4.3400728956e+01 0.0000000000e+00 0.0000e+00 1.0000e+00
</event>
<event>
 5      7 +2.9511900e-02 9.11880000e+01 7.81616400e-03 1.18400000e-01
      -11 -1    0    0    0    0 +0.0000000000e+00 +0.0000000000e+00 +4.5593999997e+01 4.5594000000e+01 5.1100000000e-04 0.0000e+00 1.0000e+00
       11 -1    0    0    0    0 -0.0000000000e+00 -0.0000000000e+00 -4.5593999997e+01 4.5594000000e+01 5.1100000000e-04 0.0000e+00 -1.0000e+00
       23  2    1    2    0    0 +0.0000000000e+00 +0.0000000000e+00 +0.0000000000e+00 9.1188000000e+01 9.1188000000e+01 3.3966e-15 0.0000e+00
  9900012  1    3    3    0    0 +3.3374578775e+01 +9.4061086806e+00 +2.6101453694e+01 4.7787271044e+01 2.0000000000e+01 8.9052e-02 1.0000e+00
       12  1    3    3    0    0 -3.3374578775e+01 -9.4061086806e+00 -2.6101453694e+01 4.3400728956e+01 0.0000000000e+00 0.0000e+00 -1.0000e+00
</event>
<event>
 5      7 +2.9511900e-02 9.11880000e+01 7.81616400e-03 1.18400000e-01
      -11 -1    0    0    0    0 +0.0000000000e+00 +0.0000000000e+00 +4.5593999997e+01 4.5594000000e+01 5.1100000000e-04 0.0000e+00 1.0000e+00
       11 -1    0    0    0    0 -0.0000000000e+00 -0.0000000000e+00 -4.5593999997e+01 4.5594000000e+01 5.1100000000e-04 0.0000e+00 -1.0000e+00
       23  2    1    2    0    0 +0.0000000000e+00 +0.0000000000e+00 +0.0000000000e+00 9.1188000000e+01 9.1188000000e+01 9.9023e-14 0.0000e+00
  9900012  1    3    3    0    0 +1.1636041683e+01 -3.1579657641e+01 +2.7403485748e+01 4.7787271044e+01 2.0000000000e+01 1.1237e-01 1.0000e+00
       12  1    3    3    0    0 -1.1636041683e+01 +3.1579657641e+01 -2.7403485748e+01 4.3400728956e+01 0.0000000000e+00 0.0000e+00 -1.0000e+00
</event>
<event>
 5      2 +2.9511900e-02 9.11880000e+01 7.81616400e-03 1.18400000e-01
      -11 -1    0    0    0    0 +0.0000000000e+00 +0.0000000000e+00 +4.5593999997e+01 4.5594000000e+01 5.1100000000e-04 0.0000e+00 -1.0000e+00
       11 -1    0    0    0    0 -0.0000000000e+00 -0.0000000000e+00 -4.5593999997e+01 4.5594000000e+01 5.1100000000e-04 0.0000e+00 1.0000e+00
       23  2    1    2    0    0 +0.0000000000e+00 +0.0000000000e+00 +0.0000000000e+00 9.1188000000e+01 9.1188000000e+01 5.3445e-14 0.0000e+00
  9900012  1    3    3    0    0 +3.5390459761e+01 -6.7367568078e+00 +2.4202370535e+01 4.7787271044e+01 2.0000000000e+01 1.2959e-01 -1.0000e+00
      -12  1    3    3    0    0 -3.5390459761e+01 +6.7367568078e+00 -2.4202370535e+01 4.3400728956e+01 0.0000000000e+00 0.0000e+00 1.0000e+00
</event>
<event>
 5      6 +2.9511900e-02 9.11880000e+01 7.81616400e-03 1.18400000e-01
      -11 -1    0    0    0    0 +0.0000000000e+00 +0.0000000000e+00 +4.5593999997e+01 4.5594000000e+01 5.1100000000e-04 0.0000e+00 1.0000e+00
       11 -1    0    0    0    0 -0.0000000000e+00 -0.0000000000e+00 -4.5593999997e+01 4.5594000000e+01 5.1100000000e-04 0.0000e+00 -1.0000e+00
       23  2    1    2    0    0 +0.0000000000e+00 +0.0000000000e+00 +0.0000000000e+00 9.1188000000e+01 9.1188000000e+01 3.4638e-14 0.0000e+00
  9900012  1    3    3    0    0 +1.6335540709e+01 -1.9013009813e+01 -3.5429914500e+01 4.7787271044e+01 2.0000000000e+01 6.9685e-03 -1.0000e+00
      -12  1    3    3    0    0 -1.6335540709e+01 +1.9013009813e+01 +3.5429914500e+01 4.3400728956e+01 0.0000000000e+00 0.0000e+00 1.0000e+00
</event>
<event>
 5      7 +2.9511900e-02 9.11880000e+01 7.81616400e-03 1.18400000e-01
      -11 -1    0    0    0    0 +0.0000000000e+00 +0.0000000000e+00 +4.5593999997e+01 4.5594000000e+01 5.1100000000e-04 0.0000e+00 1.0000e+00
       11 -1    0    0    0    0 -0.0000000000e+00 -0.0000000000e+00 -4.5593999997e+01 4.5594000000e+01 5.1100000000e-04 0.0000e+00 -1.0000e+00
       23  2    1    2    0    0 +0.0000000000e+00 +0.0000000000e+00 +0.0000000000e+00 9.1188000000e+01 9.1188000000e+01 9.4099e-14 0.0000e+00
  9900012  1    3    3    0    0 +2.2013044995e+01 -2.8938244801e+01 +2.3698673207e+01 4.7787271044e+01 2.0000000000e+01 1.1412e-01 1.0000e+00
       12  1    3    3    0    0 -2.2013044995e+01 +2.8938244801e+01 -2.3698673207e+01 4.3400728956e+01 0.0000000000e+00 0.0000e+00 -1.0000e+00
</event>
<event>
 5      8 +2.9511900e-02 9.11880000e+01 7.81616400e-03 1.18400000e-01
      -11 -1    0    0    0    0 +0.0000000000e+00 +0.0000000000e+00 +4.5593999997e+01 4.5594000000e+01 5.1100000000e-04 0.0000e+00 1.0000e+00
       11 -1    0    0    0    0 -0.0000000000e+00 -0.0000000000e+00 -4.5593999997e+01 4.5594000000e+01 5.1100000000e-04 0.0000e+00 -1.0000e+00
       23  2    1    2    0    0 +0.0000000000e+00 +0.0000000000e+00 +0.0000000000e+00 9.1188000000e+01 9.1188000000e+01 1.1510e-13 0.0000e+00
  9900012  1    3    3    0    0 -1.7026806384e+01 -3.5957840071e+01 -1.7341997452e+01 4.7787271044e+01 2.0000000000e+01 8.5849e-02 -1.0000e+00
      -12  1    3    3    0    0 +1.7026806384e+01 +3.5957840071e+01 +1.7341997452e+01 4.3400728956e+01 0.0000000000e+00 0.0000e+00 1.0000e+00
</event>
<event>
 5      1 +2.9511900e-02 9.11880000e+01 7.81616400e-03 1.18400000e-01
      -11 -1    0    0    0    0 +0.0000000000e+00 +0.0000000000e+00 +4.5593999997e+01 4.5594000000e+01 5.1100000000e-04 0.0000e+00 -1.0000e+00
       11 -1    0    0    0    0 -0.0000000000e+00 -0.0000000000e+00 -4.5593999997e+01 4.5594000000e+01 5.1100000000e-04 0.0000e+00 1.0000e+00
       23  2    1    2    0    0 +0.0000000000e+00 +0.0000000000e+00 +0.0000000000e+00 9.1188000000e+01 9.1188000000e+01 4.6078e-14 0.0000e+00
  9900012  1    3    3    0    0 +3.4853895650e+01 +2.4862523571e+01 +7.1192804133e+00 4.7787271044e+01 2.0000000000e+01 1.4947e-01 1.0000e+00
       12  1    3    3    0    0 -3.4853895650e+01 -2.4862523571e+01 -7.1192804133e+00 4.3400728956e+01 0.0000000000e+00 0.0000e+00 -1.0000e+00
</event>
<event>
 5      6 +2.9511900e-02 9.11880000e+01 7.81616400e-03 1.18400000e-01
      -11 -1    0    0    0    0 +0.0000000000e+00 +0.0000000000e+00 +4.5593999997e+01 4.5594000000e+01 5.1100000000e-04 0.0000e+00 -1.0000e+00
       11 -1    0    0    0    0 -0.0000000000e+00 -0.0000000000e+00 -4.5593999997e+01 4.5594000000e+01 5.1100000000e-04 0.0000e+00 1.0000e+00
       23  2    1    2    0    0 +0.0000000000e+00 +0.0000000000e+00 +0.0000000000e+00 9.1188000000e+01 9.1188000000e+01 1.2352e-15 0.0000e+00
  9900012  1    3    3    0    0 -3.1265053379e+01 -1.9407204665e+01 +2.3010434985e+01 4.7787271044e+01 2.0000000000e+01 4.7849e-02 -1.0000e+00
      -12  1    3    3    0    0 +3.1265053379e+01 +1.9407204665e+01 -2.3010434985e+01 4.3400728956e+01 0.0000000000e+00 0.0000e+00 1.0000e+00
</event>
<event>
 5      8 +2.9511900e-02 9.11880000e+01 7.81616400e-03 1.18400000e-01
      -11 -1    0    0    0    0 +0.0000000000e+00 +0.0000000000e+00 +4.5593999997e+01 4.5594000000e+01 5.1100000000e-04 0.0000e+00 1.0000e+00
       11 -1    0    0    0    0 -0.0000000000e+00 -0.0000000000e+00 -4.5593999997e+01 4.5594000000e+01 5.1100000000e-04 0.0000e+00 -1.0000e+00
       23  2    1    2    0    0 +0.0000000000e+00 +0.0000000000e+00 +0.0000000000e+00 9.1188000000e+01 9.1188000000e+01 3.2922e-14 0.0000e+00
  9900012  1    3    3    0    0 -9.2782578828e-01 -2.0603714746e+01 -3.8187031200e+01 4.7787271044e+01 2.0000000000e+01 9.5728e-03 -1.0000e+00
      -12  1    3    3    0    0 +9.2782578828e-01 +2.0603714746e+01 +3.8187031200e+01 4.3400728956e+01 0.0000000000e+00 0.0000e+00 1.0000e+00
</event>
<event>
 5      8 +2.9511900e-02 9.11880000e+01 7.81616400e-03 1.18400000e-01
      -11 -1    0    0    0    0 +0.0000000000e+00 +0.0000000000e+00 +4.5593999997e+01 4.5594000000e+01 5.1100000000e-04 0.0000e+00 -1.0000e+00
       11 -1    0    0    0    0 -0.0000000000e+00 -0.0000000000e+00 -4.5593999997e+01 4.5594000000e+01 5.1100000000e-04 0.0000e+00 1.0000e+00
       23  2    1    2    0    0 +0.0000000000e+00 +0.0000000000e+00 +0.0000000000e+00 9.1188000000e+01 9.1188000000e+01 3.5664e-14 0.0000e+00
  9900012  1    3    3    0    0 +2.3552122771e+01 +2.3158563328e+01 +2.8153183326e+01 4.7787271044e+01 2.0000000000e+01 9.3783e-03 -1.0000e+00
      -12  1    3    3    0    0 -2.3552122771e+01 -2.3158563328e+01 -2.8153183326e+01 4.3400728956e+01 0.0000000000e+00 0.0000e+00 1.0000e+00
</event>
<event>
 5      4 +2.9511900e-02 9.11880000e+01 7.81616400e-03 1.18400000e-01
      -11 -1    0    0    0    0 +0.0000000000e+00 +0.0000000000e+00 +4.5593999997e+01 4.5594000000e+01 5.1100000000e-04 0.0000e+00 -1.0000e+00
       11 -1    0    0    0    0 -0.0000000000e+00 -0.0000000000e+00 -4.5593999997e+01 4.5594000000e+01 5.1100000000e-04 0.0000e+00 1.0000e+00
       23  2    1    2    0    0 +0.0000000000e+00 +0.0000000000e+00 +0.0000000000e+00 9.1188000000e+01 9.1188000000e+01 3.7690e-16 0.0000e+00
  9900012  1    3    3    0    0 -3.8857385878e+01 +1.9216746299e+01 -2.1079606975e+00 4.7787271044e+01 2.0000000000e+01 2.1934e-01 -1.0000e+00
      -12  1    3    3    0    0 +3.8857385878e+01 -1.9216746299e+01 +2.1079606975e+00 4.3400728956e+01 0.0000000000e+00 0.0000e+00 1.0000e+00
</event>
<event>
 5      6 +2.9511900e-02 9.11880000e+01 7.81616400e-03 1.18400000e-01
      -11 -1    0    0    0    0 +0.0000000000e+00 +0.0000000000e+00 +4.5593999997e+01 4.5594000000e+01 5.1100000000e-04 0.0000e+00 1.0000e+00
       11 -1    0    0    0    0 -0.0000000000e+00 -0.0000000000e+00 -4.5593999997e+01 4.5594000000e+01 5.1100000000e-04 0.0000e+00 -1.0000e+00
       23  2    1    2    0    0 +0.0000000000e+00 +0.0000000000e+00 +0.0000000000e+00 9.1188000000e+01 9.1188000000e+01 2.2737e-13 0.0000e+00
  9900012  1    3    3    0    0 -4.0935563642e+00 -1.4275294119e+01 -4.0780902981e+01 4.7787271044e+01 2.0000000000e+01 8.3727e-02 -1.0000e+00
      -12  1    3    3    0    0 +4.0935563642e+00 +1.4275294119e+01 +4.0780902981e+01 4.3400728956e+01 0.0000000000e+00 0.0000e+00 1.0000e+00
</event>
<event>
 5      4 +2.9511900e-02 9.11880000e+01 7.81616400e-03 1.18400000e-01
      -11 -1    0    0    0    0 +0.0000000000e+00 +0.0000000000e+00 +4.5593999997e+01 4.5594000000e+01 5.1100000000e-04 0.0000e+00 1.0000e+00
       11 -1    0    0    0    0 -0.0000000000e+00 -0.0000000000e+00 -4.5593999997e+01 4.5594000000e+01 5.1100000000e-04 0.0000e+00 -1.0000e+00
       23  2    1    2    0    0 +0.0000000000e+00 +0.0000000000e+00 +0.0000000000e+00 9.1188000000e+01 9.1188000000e+01 1.6407e-13 0.0000e+00
  9900012  1    3    3    0    0 -1.6516202435e+01 -2.2929314075e+01 -3.2940626695e+01 4.7787271044e+01 2.0000000000e+01 6.2108e-04 -1.0000e+00
      -12  1    3    3    0    0 +1.6516202435e+01 +2.2929314075e+01 +3.2940626695e+01 4.3400728956e+01 0.0000000000e+00 0.0000e+00 1.0000e+00
</event>
<event>
 5      5 +2.9511900e-02 9.11880000e+01 7.81616400e-03 1.18400000e-01
      -11 -1    0    0    0    0 +0.0000000000e+00 +0.0000000000e+00 +4.5593999997e+01 4.5594000000e+01 5.1100000000e-04 0.0000e+00 -1.0000e+00
       11 -1    0    0    0    0 -0.0000000000e+00 -0.0000000000e+00 -4.5593999997e+01 4.5594000000e+01 5.1100000000e-04 0.0000e+00 1.0000e+00
       23  2    1    2    0    0 +0.0000000000e+00 +0.0000000000e+00 +0.0000000000e+00 9.1188000000e+01 9.1188000000e+01 3.6707e-14 0.0000e+00
  9900012  1    3    3    0    0 +3.4845341453e+01 +2.4704356557e+01 +7.6889674193e+00 4.7787271044e+01 2.0000000000e+01 7.7989e-02 1.0000e+00
       12  1    3    3    0    0 -3.4845341453e+01 -2.4704356557e+01 -7.6889674193e+00 4.3400728956e+01 0.0000000000e+00 0.0000e+00 -1.0000e+00
</event>
<event>
 5      2 +2.9511900e-02 9.11880000e+01 7.81616400e-03 1.18400000e-01
      -11 -1    0    0    0    0 +0.0000000000e+00 +0.0000000000e+00 +4.5593999997e+01 4.5594000000e+01 5.1100000000e-04 0.0000e+00 -1.0000e+00
       11 -1    0    0    0    0 -0.0000000000e+00 -0.0000000000e+00 -4.5593999997e+01 4.5594000000e+01 5.1100000000e-04 0.0000e+00 1.0000e+00
       23  2    1    2    0    0 +0.0000000000e+00 +0.0000000000e+00 +0.0000000000e+00 9.1188000000e+01 9.1188000000e+01 5.8564e-14 0.0000e+00
  9900012  1    3    3    0    0 -1.7029175609e+01 +3.2257299836e+01 +2.3518015632e+01 4.7787271044e+01 2.0000000000e+01 9.9178e-02 -1.0000e+00
      -12  1    3    3    0    0 +1.7029175609e+01 -3.2257299836e+01 -2.3518015632e+01 4.3400728956e+01 0.0000000000e+00 0.0000e+00 1.0000e+00
</event>
<event>
 5      5 +2.9511900e-02 9.11880000e+01 7.81616400e-03 1.18400000e-01
      -11 -1    0    0    0    0 +0.0000000000e+00 +0.0000000000e+00 +4.5593999997e+01 4.5594000000e+01 5.1100000000e-04 0.0000e+00 -1.0000e+00
       11 -1    0    0    0    0 -0.0000000000e+00 -0.0000000000e+00 -4.5593999997e+01 4.5594000000e+01 5.1100000000e-04 0.0000e+00 1.0000e+00
       23  2    1    2    0    0 +0.0000000000e+00 +0.0000000000e+00 +0.0000000000e+00 9.1188000000e+01 9.1188000000e+01 2.8917e-14 0.0000e+00
  9900012  1    3    3    0    0 -1.3132720173e+01 +2.1767166828e+01 -3.5175920500e+01 4.7787271044e+01 2.0000000000e+01 2.7519e-01 1.0000e+00
       12  1    3    3    0    0 +1.3132720173e+01 -2.1767166828e+01 +3.5175920500e+01 4.3400728956e+01 0.0000000000e+00 0.0000e+00 -1.0000e+00
</event>
<event>
 5      6 +2.9511900e-02 9.11880000e+01 7.81616400e-03 1.18400000e-01
      -11 -1    0    0    0    0 +0.0000000000e+00 +0.0000000000e+00 +4.5593999997e+01 4.5594000000e+01 5.1100000000e-04 0.0000e+00 -1.0000e+00
       11 -1    0    0    0    0 -0.0000000000e+00 -0.0000000000e+00 -4.5593999997e+01 4.5594000000e+01 5.1100000000e-04 0.0000e+00 1.0000e+00
       23  2    1    2    0    0 +0.0000000000e+00 +0.0000000000e+00 +0.0000000000e+00 9.1188000000e+01 9.1188000000e+01 2.0488e-13 0.0000e+00
  9900012  1    3    3    0    0 -1.3319745358e+01 -3.8115859463e+01 +1.5918194461e+01 4.7787271044e+01 2.0000000000e+01 1.3648e-01 -1.0000e+00
      -12  1    3    3    0    0 +1.3319745358e+01 +3.8115859463e+01 -1.5918194461e+01 4.3400728956e+01 0.0000000000e+00 0.0000e+00 1.0000e+00
</event>
<event>
 5      1 +2.9511900e-02 9.11880000e+01 7.81616400e-03 1.18400000e-01
      -11 -1    0    0    0    0 +0.0000000000e+00 +0.0000000000e+00 +4.5593999997e+01 4.5594000000e+01 5.1100000000e-04 0.0000e+00 1.0000e+00
       11 -1    0    0    0    0 -0.0000000000e+00 -0.0000000000e+00 -4.5593999997e+01 4.5594000000e+01 5.1100000000e-04 0.0000e+00 -1.0000e+00
       23  2    1    2    0    0 +0.0000000000e+00 +0.0000000000e+00 +0.0000000000e+00 9.1188000000e+01 9.1188000000e+01 4.7685e-14 0.0000e+00
  9900012  1    3    3    0    0 -1.2587383126e+01 +4.0237866903e+01 +1.0300248880e+01 4.7787271044e+01 2.0000000000e+01 2.3378e-01 1.0000e+00
       12  1    3    3    0    0 +1.2587383126e+01 -4.0237866903e+01 -1.0300248880e+01 4.3400728956e+01 0.0000000000e+00 0.0000e+00 -1.0000e+00
</event>
<event>
 5      4 +2.9511900e-02 9.11880000e+01 7.81616400e-03 1.18400000e-01
      -11 -1    0    0    0    0 +0.0000000000e+00 +0.0000000000e+00 +4.5593999997e+01 4.5594000000e+01 5.1100000000e-04 0.0000e+00 1.0000e+00
       11 -1    0    0    0    0 -0.0000000000e+00 -0.0000000000e+00 -4.5593999997e+01 4.5594000000e+01 5.1100000000e-04 0.0000e+00 -1.0000e+00
       23  2    1    2    0    0 +0.0000000000e+00 +0.0000000000e+00 +0.0000000000e+00 9.1188000000e+01 9.1188000000e+01 5.0700e-14 0.0000e+00
  9900012  1    3    3    0    0 -3.0217968954e+00 -4.0974055405e+01 -1.3986379127e+01 4.7787271044e+01 2.0000000000e+01 6.7346e-02 -1.0000e+00
      -12  1    3    3    0    0 +3.0217968954e+00 +4.0974055405e+01 +1.3986379127e+01 4.3400728956e+01 0.0000000000e+00 0.0000e+00 1.0000e+00
</event>
<event>
 5      2 +2.9511900e-02 9.11880000e+01 7.81616400e-03 1.18400000e-01
      -11 -1    0    0    0    0 +0.0000000000e+00 +0.0000000000e+00 +4.5593999997e+01 4.5594000000e+01 5.1100000000e-04 0.0000e+00 1.0000e+00
       11 -1    0    0    0    0 -0.0000000000e+00 -0.0000000000e+00 -4.5593999997e+01 4.5594000000e+01 5.1100000000e-04 0.0000e+00 -1.0000e+00
       23  2    1    2    0    0 +0.0000000000e+00 +0.0000000000e+00 +0.0000000000e+00 9.1188000000e+01 9.1188000000e+01 3.8807e-14 0.0000e+00
  9900012  1    3    3    0    0 +3.7863719524e+01 +2.0648412653e+01 -4.8585051790e+00 4.7787271044e+01 2.0000000000e+01 9.1674e-02 -1.0000e+00
      -12  1    3    3    0    0 -3.7863719524e+01 -2.0648412653e+01 +4.8585051790e+00 4.3400728956e+01 0.0000000000e+00 0.0000e+00 1.0000e+00
</event>
<event>
 5      1 +2.9511900e-02 9.11880000e+01 7.81616400e-03 1.18400000e-01
      -11 -1    0    0    0    0 +0.0000000000e+00 +0.0000000000e+00 +4.5593999997e+01 4.5594000000e+01 5.1100000000e-04 0.0000e+00 -1.0000e+00
       11 -1    0    0    0    0 -0.0000000000e+00 -0.0000000000e+00 -4.5593999997e+01 4.5594000000e+01 5.1100000000e-04 0.0000e+00 1.0000e+00
       23  2    1    2    0    0 +0.0000000000e+00 +0.0000000000e+00 +0.0000000000e+00 9.1188000000e+01 9.1188000000e+01 3.3935e-14 0.0000e+00
  9900012  1    3    3    0    0 -1.5838499387e+01 -3.9479431754e+01 -8.6104401399e+00 4.7787271044e+01 2.0000000000e+01 4.4322e-01 1.0000e+00
       12  1    3    3    0    0 +1.5838499387e+01 +3.9479431754e+01 +8.6104401399e+00 4.3400728956e+01 0.0000000000e+00 0.0000e+00 -1.0000e+00
</event>
<event>
 5      6 +2.9511900e-02 9.11880000e+01 7.81616400e-03 1.18400000e-01
      -11 -1    0    0    0    0 +0.0000000000e+00 +0.0000000000e+00 +4.5593999997e+01 4.5594000000e+01 5.1100000000e-04 0.0000e+00 1.0000e+00
       11 -1    0    0    0    0 -0.0000000000e+00 -0.0000000000e+00 -4.5593999997e+01 4.5594000000e+01 5.1100000000e-04 0.0000e+00 -1.0000e+00
       23  2    1    2    0    0 +0.0000000000e+00 +0.0000000000e+00 +0.0000000000e+00 9.1188000000e+01 9.1188000000e+01 9.4229e-14 0.0000e+00
  9900012  1    3    3    0    0 -4.2219749781e+01 +6.7631931495e+00 -7.4414528654e+00 4.7787271044e+01 2.0000000000e+01 1.0672e-01 -1.0000e+00
      -12  1    3    3    0    0 +4.2219749781e+01 -6.7631931495e+00 +7.4414528654e+00 4.3400728956e+01 0.0000000000e+00 0.0000e+00 1.0000e+00
</event>
<event>
 5      4 +2.9511900e-02 9.11880000e+01 7.81616400e-03 1.18400000e-01
      -11 -1    0    0    0    0 +0.0000000000e+00 +0.0000000000e+00 +4.5593999997e+01 4.5594000000e+01 5.1100000000e-04 0.0000e+00 -1.0000e+00
       11 -1    0    0    0    0 -0.0000000000e+00 -0.0000000000e+00 -4.5593999997e+01 4.5594000000e+01 5.1100000000e-04 0.0000e+00 1.0000e+00
       23  2    1    2    0    0 +0.0000000000e+00 +0.0000000000e+00 +0.0000000000e+00 9.1188000000e+01 9.1188000000e+01 5.0208e-15 0.0000e+00
  9900012  1    3    3    0    0 -3.2851466343e+00 +1.0836490784e+00 +4.3262648903e+01 4.7787271044e+01 2.0000000000e+01 1.3583e-01 -1.0000e+00
      -12  1    3    3    0    0 +3.2851466343e+00 -1.0836490784e+00 -4.3262648903e+01 4.3400728956e+01 0.0000000000e+00 0.0000e+00 1.0000e+00
</event>
<event>
 5      8 +2.9511900e-02 9.11880000e+01 7.81616400e-03 1.18400000e-01
      -11 -1    0    0    0    0 +0.0000000000e+00 +0.0000000000e+00 +4.5593999997e+01 4.5594000000e+01 5.1100000000e-04 0.0000e+00 1.0000e+00
       11 -1    0    0    0    0 -0.0000000000e+00 -0.0000000000e+00 -4.5593999997e+01 4.5594000000e+01 5.1100000000e-04 0.0000e+00 -1.0000e+00
       23  2    1    2    0    0 +0.0000000000e+00 +0.0000000000e+00 +0.0000000000e+00 9.1188000000e+01 9.1188000000e+01 5.3682e-15 0.0000e+00
  9900012  1    3    3    0    0 +3.3169926912e+01 +2.3799454183e+01 -1.4729738732e+01 4.7787271044e+01 2.0000000000e+01 1.2410e-01 -1.0000e+00
      -12  1    3    3    0    0 -3.3169926912e+01 -2.3799454183e+01 +1.4729738732e+01 4.3400728956e+01 0.0000000000e+00 0.0000e+00 1.0000e+00
</event>
<event>
 5      1 +2.9511900e-02 9.11880000e+01 7.81616400e-03 1.18400000e-01
      -11 -1    0    0    0    0 +0.0000000000e+00 +0.0000000000e+00 +4.5593999997e+01 4.5594000000e+01 5.1100000000e-04 0.0000e+00 -1.0000e+00
       11 -1    0    0    0    0 -0.0000000000e+00 -0.0000000000e+00 -4.5593999997e+01 4.5594000000e+01 5.1100000000e-04 0.0000e+00 1.0000e+00
       23  2    1    2    0    0 +0.0000000000e+00 +0.0000000000e+00 +0.0000000000e+00 9.1188000000e+01 9.1188000000e+01 9.4737e-14 0.0000e+00
  9900012  1    3    3    0    0 -1.6550663635e+01 +3.8157563718e+01 +1.2397545652e+01 4.7787271044e+01 2.0000000000e+01 5.1352e-02 1.0000e+00
       12  1    3    3    0    0 +1.6550663635e+01 -3.8157563718e+01 -1.2397545652e+01 4.3400728956e+01 0.0000000000e+00 0.0000e+00 -1.0000e+00
</event>
<event>
 5      2 +2.9511900e-02 9.11880000e+01 7.81616400e-03 1.18400000e-01
      -11 -1    0    0    0    0 +0.0000000000e+00 +0.0000000000e+00 +4.5593999997e+01 4.5594000000e+01 5.1100000000e-04 0.0000e+00 1.0000e+00
       11 -1    0    0    0    0 -0.0000000000e+00 -0.0000000000e+00 -4.5593999997e+01 4.5594000000e+01 5.1100000000e-04 0.0000e+00 -1.0000e+00
       23  2    1    2    0    0 +0.0000000000e+00 +0.0000000000e+00 +0.0000000000e+00 9.1188000000e+01 9.1188000000e+01 7.5313e-14 0.0000e+00
  9900012  1    3    3    0    0 -3.6526583574e+01 -2.1876450532e+01 +8.4174151873e+00 4.7787271044e+01 2.0000000000e+01 2.5233e-02 -1.0000e+00
      -12  1    3    3    0    0 +3.6526583574e+01 +2.1876450532e+01 -8.4174151873e+00 4.3400728956e+01 0.0000000000e+00 0.0000e+00 1.0000e+00
</event>
<event>
 5      1 +2.9511900e-02 9.11880000e+01 7.81616400e-03 1.18400000e-01
      -11 -1    0    0    0    0 +0.0000000000e+00 +0.0000000000e+00 +4.5593999997e+01 4.5594000000e+01 5.1100000000e-04 0.0000e+00 1.0000e+00
       11 -1    0    0    0    0 -0.0000000000e+00 -0.0000000000e+00 -4.5593999997e+01 4.5594000000e+01 5.1100000000e-04 0.0000e+00 -1.0000e+00
       23  2    1    2    0    0 +0.0000000000e+00 +0.0000000000e+00 +0.0000000000e+00 9.1188000000e+01 9.1188000000e+01 1.0504e-13 0.0000e+00
  9900012  1    3    3    0    0 -1.9941935374e+01 -3.3518196611e+01 -1.9038723260e+01 4.7787271044e+01 2.0000000000e+01 3.9304e-02 -1.0000e+00
       12  1    3    3    0    0 +1.9941935374e+01 +3.3518196611e+01 +1.9038723260e+01 4.3400728956e+01 0.0000000000e+00 0.0000e+00 -1.0000e+00
</event>
<event>
 5      7 +2.9511900e-02 9.11880000e+01 7.81616400e-03 1.18400000e-01
      -11 -1    0    0    0    0 +0.0000000000e+00 +0.0000000000e+00 +4.5593999997e+01 4.5594000000e+01 5.1100000000e-04 0.0000e+00 -1.0000e+00
       11 -1    0    0    0    0 -0.0000000000e+00 -0.0000000000e+00 -4.5593999997e+01 4.5594000000e+01 5.1100000000e-04 0.0000e+00 1.0000e+00
       23  2    1    2    0    0 +0.0000000000e+00 +0.0000000000e+00 +0.0000000000e+00 9.1188000000e+01 9.1188000000e+01 1.0404e-14 0.0000e+00
  9900012  1    3    3    0    0 +6.2565938176e+00 -1.9435576232e+01 -3.8297998436e+01 4.7787271044e+01 2.0000000000e+01 2.1442e-01 1.0000e+00
       12  1    3    3    0    0 -6.2565938176e+00 +1.9435576232e+01 +3.8297998436e+01 4.3400728956e+01 0.0000000000e+00 0.0000e+00 -1.0000e+00
</event>
<event>
 5      8 +2.9511900e-02 9.11880000e+01 7.81616400e-03 1.18400000e-01
      -11 -1    0    0    0    0 +0.0000000000e+00 +0.0000000000e+00 +4.5593999997e+01 4.5594000000e+01 5.1100000000e-04 0.0000e+00 1.0000e+00
       11 -1    0    0    0    0 -0.0000000000e+00 -0.0000000000e+00 -4.5593999997e+01 4.5594000000e+01 5.1100000000e-04 0.0000e+00 -1.0000e+00
       23  2    1    2    0    0 +0.0000000000e+00 +0.0000000000e+00 +0.0000000000e+00 9.1188000000e+01 9.1188000000e+01 1.2445e-13 0.0000e+00
  9900012  1    3    3    0    0 -8.9424786322e+00 +1.8881011106e+01 -3.8041592624e+01 4.7787271044e+01 2.0000000000e+01 4.6747e-02 -1.0000e+00
      -12  1    3    3    0    0 +8.9424786322e+00 -1.8881011106e+01 +3.8041592624e+01 4.3400728956e+01 0.0000000000e+00 0.0000e+00 1.0000e+00
</event>
<event>
 5      5 +2.9511900e-02 9.11880000e+01 7.81616400e-03 1.18400000e-01
      -11 -1    0    0    0    0 +0.0000000000e+00 +0.0000000000e+00 +4.5593999997e+01 4.5594000000e+01 5.1100000000e-04 0.0000e+00 -1.0000e+00
       11 -1    0    0    0    0 -0.0000000000e+00 -0.0000000000e+00 -4.5593999997e+01 4.5594000000e+01 5.1100000000e-04 0.0000e+00 1.0000e+00
       23  2    1    2    0    0 +0.0000000000e+00 +0.0000000000e+00 +0.0000000000e+00 9.1188000000e+01 9.1188000000e+01 1.9119e-13 0.0000e+00
  9900012  1    3    3    0    0 +1.1213847360e+01 -3.3851815477e+01 -2.4737168193e+01 4.7787271044e+01 2.0000000000e+01 4.0393e-02 1.0000e+00
       12  1    3    3    0    0 -1.1213847360e+01 +3.3851815477e+01 +2.4737168193e+01 4.3400728956e+01 0.0000000000e+00 0.0000e+00 -1.0000e+00
</event>
<event>
 5      8 +2.9511900e-02 9.11880000e+01 7.81616400e-03 1.18400000e-01
      -11 -1    0    0    0    0 +0.0000000000e+00 +0.0000000000e+00 +4.5593999997e+01 4.5594000000e+01 5.1100000000e-04 0.0000e+00 -1.0000e+00
       11 -1    0    0    0    0 -0.0000000000e+00 -0.0000000000e+00 -4.5593999997e+01 4.5594000000e+01 5.1100000000e-04 0.0000e+00 1.0000e+00
       23  2    1    2    0    0 +0.0000000000e+00 +0.0000000000e+00 +0.0000000000e+00 9.1188000000e+01 9.1188000000e+01 3.3481e-13 0.0000e+00
  9900012  1    3    3    0    0 -3.2588780097e+01 -9.8845244737e+00 +2.6905219969e+01 4.7787271044e+01 2.0000000000e+01 1.7197e-01 -1.0000e+00
      -12  1    3    3    0    0 +3.2588780097e+01 +9.8845244737e+00 -2.6905219969e+01 4.3400728956e+01 0.0000000000e+00 0.0000e+00 1.0000e+00
</event>
<event>
 5      6 +2.9511900e-02 9.11880000e+01 7.81616400e-03 1.18400000e-01
      -11 -1    0    0    0    0 +0.0000000000e+00 +0.0000000000e+00 +4.5593999997e+01 4.5594000000e+01 5.1100000000e-04 0.0000e+00 1.0000e+00
       11 -1    0    0    0    0 -0.0000000000e+00 -0.0000000000e+00 -4.5593999997e+01 4.5594000000e+01 5.1100000000e-04 0.0000e+00 -1.0000e+00
       23  2    1    2    0    0 +0.0000000000e+00 +0.0000000000e+00 +0.0000000000e+00 9.1188000000e+01 9.1188000000e+01 5.8736e-14 0.0000e+00
  9900012  1    3    3    0    0 +1.3235373187e+01 +3.9480167309e+01 -1.2237833131e+01 4.7787271044e+01 2.0000000000e+01 2.2225e-01 -1.0000e+00
      -12  1    3    3    0    0 -1.3235373187e+01 -3.9480167309e+01 +1.2237833131e+01 4.3400728956e+01 0.0000000000e+00 0.0000e+00 1.0000e+00
</event>
<event>
 5      4 +2.9511900e-02 9.11880000e+01 7.81616400e-03 1.18400000e-01
      -11 -1    0    0    0    0 +0.0000000000e+00 +0.0000000000e+00 +4.5593999997e+01 4.5594000000e+01 5.1100000000e-04 0.0000e+00 -1.0000e+00
       11 -1    0    0    0    0 -0.0000000000e+00 -0.0000000000e+00 -4.5593999997e+01 4.5594000000e+01 5.1100000000e-04 0.0000e+00 1.0000e+00
       23  2    1    2    0    0 +0.0000000000e+00 +0.0000000000e+00 +0.0000000000e+00 9.1188000000e+01 9.1188000000e+01 2.5156e-14 0.0000e+00
  9900012  1    3    3    0    0 +3.7498774964e+01 -2.1451250886e+01 -4.1604068887e+00 4.7787271044e+01 2.0000000000e+01 2.0895e-01 -1.0000e+00
      -12  1    3    3    0    0 -3.7498774964e+01 +2.1451250886e+01 +4.1604068887e+00 4.3400728956e+01 0.0000000000e+00 0.0000e+00 1.0000e+00
</event>
<event>
 5      5 +2.9511900e-02 9.11880000e+01 7.81616400e-03 1.18400000e-01
      -11 -1    0    0    0    0 +0.0000000000e+00 +0.0000000000e+00 +4.5593999997e+01 4.5594000000e+01 5.1100000000e-04 0.0000e+00 1.0000e+00
       11 -1    0    0    0    0 -0.0000000000e+00 -0.0000000000e+00 -4.5593999997e+01 4.5594000000e+01 5.1100000000e-04 0.0000e+00 -1.0000e+00
       23  2    1    2    0    0 +0.0000000000e+00 +0.0000000000e+00 +0.0000000000e+00 9.1188000000e+01 9.1188000000e+01 1.2203e-13 0.0000e+00
  9900012  1    3    3    0    0 +9.8111275879e+00 +1.0360812208e+01 +4.0988030201e+01 4.7787271044e+01 2.0000000000e+01 6.5531e-02 1.0000e+00
       12  1    3    3    0    0 -9.8111275879e+00 -1.0360812208e+01 -4.0988030201e+01 4.3400728956e+01 0.0000000000e+00 0.0000e+00 -1.0000e+00
</event>
<event>
 5      4 +2.9511900e-02 9.11880000e+01 7.81616400e-03 1.18400000e-01
      -11 -1    0    0    0    0 +0.0000000000e+00 +0.0000000000e+00 +4.5593999997e+01 4.5594000000e+01 5.1100000000e-04 0.0000e+00 1.0000e+00
       11 -1    0    0    0    0 -0.0000000000e+00 -0.0000000000e+00 -4.5593999997e+01 4.5594000000e+01 5.1100000000e-04 0.0000e+00 -1.0000e+00
       23  2    1    2    0    0 +0.0000000000e+00 +0.0000000000e+00 +0.0000000000e+00 9.1188000000e+01 9.1188000000e+01 9.9950e-14 0.0000e+00
  9900012  1    3    3    0    0 +1.4174351646e+00 +4.0776443881e+01 -1.4795126761e+01 4.7787271044e+01 2.0000000000e+01 7.9324e-02 1.0000e+00
      -12  1    3    3    0    0 -1.4174351646e+00 -4.0776443881e+01 +1.4795126761e+01 4.3400728956e+01 0.0000000000e+00 0.0000e+00 1.0000e+00
</event>
<event>
 5      7 +2.9511900e-02 9.11880000e+01 7.81616400e-03 1.18400000e-01
      -11 -1    0    0    0    0 +0.0000000000e+00 +0.0000000000e+00 +4.5593999997e+01 4.5594000000e+01 5.1100000000e-04 0.0000e+00 -1.0000e+00
       11 -1    0    0    0    0 -0.0000000000e+00 -0.0000000000e+00 -4.5593999997e+01 4.5594000000e+01 5.1100000000e-04 0.0000e+00 1.0000e+00
       23  2    1    2    0    0 +0.0000000000e+00 +0.0000000000e+00 +0.0000000000e+00 9.1188000000e+01 9.1188000000e+01 8.7729e-14 0.0000e+00
  9900012  1    3    3    0    0 -3.8319237831e+01 -7.7311945013e+00 -1.8854387222e+01 4.7787271044e+01 2.0000000000e+01 1.2264e-02 1.0000e+00
       12  1    3    3    0    0 +3.8319237831e+01 +7.7311945013e+00 +1.8854387222e+01 4.3400728956e+01 0.0000000000e+00 0.0000e+00 -1.0000e+00
</event>
<event>
 5      1 +2.9511900e-02 9.11880000e+01 7.81616400e-03 1.18400000e-01
      -11 -1    0    0    0    0 +0.0000000000e+00 +0.0000000000e+00 +4.5593999997e+01 4.5594000000e+01 5.1100000000e-04 0.0000e+00 -1.0000e+00
       11 -1    0    0    0    0 -0.0000000000e+00 -0.0000000000e+00 -4.5593999997e+01 4.5594000000e+01 5.1100000000e-04 0.0000e+00 1.0000e+00
       23  2    1    2    0    0 +0.0000000000e+00 +0.0000000000e+00 +0.0000000000e+00 9.1188000000e+01 9.1188000000e+01 7.3556e-14 0.0000e+00
  9900012  1    3    3    0    0 -7.0268354736e+00 +1.7901005416e+01 -3.8907593889e+01 4.7787271044e+01 2.0000000000e+01 4.7804e-02 1.0000e+00
       12  1    3    3    0    0 +7.0268354736e+00 -1.7901005416e+01 +3.8907593889e+01 4.3400728956e+01 0.0000000000e+00 0.0000e+00 -1.0000e+00
</event>
<event>
 5      3 +2.9511900e-02 9.11880000e+01 7.81616400e-03 1.18400000e-01
      -11 -1    0    0    0    0 +0.0000000000e+00 +0.0000000000e+00 +4.5593999997e+01 4.5594000000e+01 5.1100000000e-04 0.0000e+00 1.0000e+00
       11 -1    0    0    0    0 -0.0000000000e+00 -0.0000000000e+00 -4.5593999997e+01 4.5594000000e+01 5.1100000000e-04 0.0000e+00 -1.0000e+00
       23  2    1    2    0    0 +0.0000000000e+00 +0.0000000000e+00 +0.0000000000e+00 9.1188000000e+01 9.1188000000e+01 3.2184e-14 0.0000e+00
  9900012  1    3    3    0    0 +3.2711341771e+01 -1.5491856651e+01 +2.3949817763e+01 4.7787271044e+01 2.0000000000e+01 9.7063e-02 1.0000e+00
       12  1    3    3    0    0 -3.2711341771e+01 +1.5491856651e+01 -2.3949817763e+01 4.3400728956e+01 0.0000000000e+00 0.0000e+00 -1.0000e+00
</event>
<event>
 5      1 +2.9511900e-02 9.11880000e+01 7.81616400e-03 1.18400000e-01
      -11 -1    0    0    0    0 +0.0000000000e+00 +0.0000000000e+00 +4.5593999997e+01 4.5594000000e+01 5.1100000000e-04 0.0000e+00 -1.0000e+00
       11 -1    0    0    0    0 -0.0000000000e+00 -0.0000000000e+00 -4.5593999997e+01 4.5594000000e+01 5.1100000000e-04 0.0000e+00 1.0000e+00
       23  2    1    2    0    0 +0.0000000000e+00 +0.0000000000e+00 +0.0000000000e+00 9.1188000000e+01 9.1188000000e+01 4.0008e-14 0.0000e+00
  9900012  1    3    3    0    0 -2.5819622732e+01 -3.0709609333e+01 -1.6549629918e+01 4.7787271044e+01 2.0000000000e+01 2.1321e-02 1.0000e+00
       12  1    3    3    0    0 +2.5819622732e+01 +3.0709609333e+01 +1.6549629918e+01 4.3400728956e+01 0.0000000000e+00 0.0000e+00 -1.0000e+00
</event>
<event>
 5      2 +2.9511900e-02 9.11880000e+01 7.81616400e-03 1.18400000e-01
      -11 -1    0    0    0    0 +0.0000000000e+00 +0.0000000000e+00 +4.5593999997e+01 4.5594000000e+01 5.1100000000e-04 0.0000e+00 1.0000e+00
       11 -1    0    0    0    0 -0.0000000000e+00 -0.0000000000e+00 -4.5593999997e+01 4.5594000000e+01 5.1100000000e-04 0.0000e+00 -1.0000e+00
       23  2    1    2    0    0 +0.0000000000e+00 +0.0000000000e+00 +0.0000000000e+00 9.1188000000e+01 9.1188000000e+01 7.5967e-14 0.0000e+00
  9900012  1    3    3    0    0 -1.5115096685e+01 -3.8533518368e+00 -4.0500725990e+01 4.7787271044e+01 2.0000000000e+01 4.8841e-04 -1.0000e+00
      -12  1    3    3    0    0 +1.5115096685e+01 +3.8533518368e+00 +4.0500725990e+01 4.3400728956e+01 0.0000000000e+00 0.0000e+00 1.0000e+00
</event>
<event>
 5      7 +2.9511900e-02 9.11880000e+01 7.81616400e-03 1.18400000e-01
      -11 -1    0    0    0    0 +0.0000000000e+00 +0.0000000000e+00 +4.5593999997e+01 4.5594000000e+01 5.1100000000e-04 0.0000e+00 1.0000e+00
       11 -1    0    0    0    0 -0.0000000000e+00 -0.0000000000e+00 -4.5593999997e+01 4.5594000000e+01 5.1100000000e-04 0.0000e+00 -1.0000e+00
       23  2    1    2    0    0 +0.0000000000e+00 +0.0000000000e+00 +0.0000000000e+00 9.1188000000e+01 9.1188000000e+01 2.4265e-13 0.0000e+00
  9900012  1    3    3    0    0 +4.2566563882e+01 -4.4521944863e+00 -7.2033934659e+00 4.7787271044e+01 2.0000000000e+01 9.7392e-02 1.0000e+00
       12  1    3    3    0    0 -4.2566563882e+01 +4.4521944863e+00 +7.2033934659e+00 4.3400728956e+01 0.0000000000e+00 0.0000e+00 -1.0000e+00
</event>
<event>
 5      2 +2.9511900e-02 9.11880000e+01 7.81616400e-03 1.18400000e-01
      -11 -1    0    0    0    0 +0.0000000000e+00 +0.0000000000e+00 +4.5593999997e+01 4.5594000000e+01 5.1100000000e-04 0.0000e+00 -1.0000e+00
       11 -1    0    0    0    0 -0.0000000000e+00 -0.0000000000e+00 -4.5593999997e+01 4.5594000000e+01 5.1100000000e-04 0.0000e+00 1.0000e+00
       23  2    1    2    0    0 +0.0000000000e+00 +0.0000000000e+00 +0.0000000000e+00 9.1188000000e+01 9.1188000000e+01 6.4717e-14 0.0000e+00
  9900012  1    3    3    0    0 +1.8884159933e+01 -3.1365984072e+01 +2.3306368673e+01 4.7787271044e+01 2.0000000000e+01 6.1056e-02 -1.0000e+00
      -12  1    3    3    0    0 -1.8884159933e+01 +3.1365984072e+01 -2.3306368673e+01 4.3400728956e+01 0.0000000000e+00 0.0000e+00 1.0000e+00
</event>
<event>
 5      8 +2.9511900e-02 9.11880000e+01 7.81616400e-03 1.18400000e-01
      -11 -1    0    0    0    0 +0.0000000000e+00 +0.0000000000e+00 +4.5593999997e+01 4.5594000000e+01 5.1100000000e-04 0.0000e+00 -1.0000e+00
       11 -1    0    0    0    0 -0.0000000000e+00 -0.0000000000e+00 -4.5593999997e+01 4.5594000000e+01 5.1100000000e-04 0.0000e+00 1.0000e+00
       23  2    1    2    0    0 +0.0000000000e+00 +0.0000000000e+00 +0.0000000000e+00 9.1188000000e+01 9.1188000000e+01 2.8049e-14 0.0000e+00
  9900012  1    3    3    0    0 -1.0527244956e+01 +7.2019698118e-01 +4.2098476265e+01 4.7787271044e+01 2.0000000000e+01 3.5565e-01 -1.0000e+00
      -12  1    3    3    0    0 +1.0527244956e+01 -7.2019698118e-01 -4.2098476265e+01 4.3400728956e+01 0.0000000000e+00 0.0000e+00 1.0000e+00
</event>
<event>
 5      2 +2.9511900e-02 9.11880000e+01 7.81616400e-03 1.18400000e-01
      -11 -1    0    0    0    0 +0.0000000000e+00 +0.0000000000e+00 +4.5593999997e+01 4.5594000000e+01 5.1100000000e-04 0.0000e+00 1.0000e+00
       11 -1    0    0    0    0 -0.0000000000e+00 -0.0000000000e+00 -4.5593999997e+01 4.5594000000e+01 5.1100000000e-04 0.0000e+00 -1.0000e+00
       23  2    1    2    0    0 +0.0000000000e+00 +0.0000000000e+00 +0.0000000000e+00 9.1188000000e+01 9.1188000000e+01 8.2327e-14 0.0000e+00
  9900012  1    3    3    0    0 +2.2007426283e-01 -2.7869423492e+01 -3.3269656978e+01 4.7787271044e+01 2.0000000000e+01 2.1120e-02 -1.0000e+00
      -12  1    3    3    0    0 -2.2007426283e-01 +2.7869423492e+01 +3.3269656978e+01 4.3400728956e+01 0.0000000000e+00 0.0000e+00 1.0000e+00
</event>
<event>
 5      7 +2.9511900e-02 9.11880000e+01 7.81616400e-03 1.18400000e-01
      -11 -1    0    0    0    0 +0.0000000000e+00 +0.0000000000e+00 +4.5593999997e+01 4.5594000000e+01 5.1100000000e-04 0.0000e+00 -1.0000e+00
       11 -1    0    0    0    0 -0.0000000000e+00 -0.0000000000e+00 -4.5593999997e+01 4.5594000000e+01 5.1100000000e-04 0.0000e+00 1.0000e+00
       23  2    1    2    0    0 +0.0000000000e+00 +0.0000000000e+00 +0.0000000000e+00 9.1188000000e+01 9.1188000000e+01 9.7198e-16 0.0000e+00
  9900012  1    3    3    0    0 +1.9244812421e+01 -3.5211796711e+01 -1.6534504563e+01 4.7787271044e+01 2.0000000000e+01 6.2305e-01 1.0000e+00
       12  1    3    3    0    0 -1.9244812421e+01 +3.5211796711e+01 +1.6534504563e+01 4.3400728956e+01 0.0000000000e+00 0.0000e+00 -1.0000e+00
</event>
<event>
 5      1 +2.9511900e-02 9.11880000e+01 7.81616400e-03 1.18400000e-01
      -11 -1    0    0    0    0 +0.0000000000e+00 +0.0000000000e+00 +4.5593999997e+01 4.5594000000e+01 5.1100000000e-04 0.0000e+00 -1.0000e+00
       11 -1    0    0    0    0 -0.0000000000e+00 -0.0000000000e+00 -4.5593999997e+01 4.5594000000e+01 5.1100000000e-04 0.0000e+00 1.0000e+00
       23  2    1    2    0    0 +0.0000000000e+00 +0.0000000000e+00 +0.0000000000e+00 9.1188000000e+01 9.1188000000e+01 2.7327e-14 0.0000e+00
  9900012  1    3    3    0    0 +2.9905366794e+01 +2.4038010972e+01 -2.0284633082e+01 4.7787271044e+01 2.0000000000e+01 3.0789e-01 1.0000e+00
       12  1    3    3    0    0 -2.9905366794e+01 -2.4038010972e+01 +2.0284633082e+01 4.3400728956e+01 0.0000000000e+00 0.0000e+00 -1.0000e+00
</event>
<event>
 5      6 +2.9511900e-02 9.11880000e+01 7.81616400e-03 1.18400000e-01
      -11 -1    0    0    0    0 +0.0000000000e+00 +0.0000000000e+00 +4.5593999997e+01 4.5594000000e+01 5.1100000000e-04 0.0000e+00 1.0000e+00
       11 -1    0    0    0    0 -0.0000000000e+00 -0.0000000000e+00 -4.5593999997e+01 4.5594000000e+01 5.1100000000e-04 0.0000e+00 -1.0000e+00
       23  2    1    2    0    0 +0.0000000000e+00 +0.0000000000e+00 +0.0000000000e+00 9.1188000000e+01 9.1188000000e+01 2.8951e-14 0.0000e+00
  9900012  1    3    3    0    0 -2.3025719330e+01 +7.9063441869e+00 -3.5929503821e+01 4.7787271044e+01 2.0000000000e+01 6.8330e-02 -1.0000e+00
      -12  1    3    3    0    0 +2.3025719330e+01 -7.9063441869e+00 +3.5929503821e+01 4.3400728956e+01 0.0000000000e+00 0.0000e+00 1.0000e+00
</event>
<event>
 5      7 +2.9511900e-02 9.11880000e+01 7.81616400e-03 1.18400000e-01
      -11 -1    0    0    0    0 +0.0000000000e+00 +0.0000000000e+00 +4.5593999997e+01 4.5594000000e+01 5.1100000000e-04 0.0000e+00 1.0000e+00
       11 -1    0    0    0    0 -0.0000000000e+00 -0.0000000000e+00 -4.5593999997e+01 4.5594000000e+01 5.1100000000e-04 0.0000e+00 -1.0000e+00
       23  2    1    2    0    0 +0.0000000000e+00 +0.0000000000e+00 +0.0000000000e+00 9.1188000000e+01 9.1188000000e+01 1.0391e-13 0.0000e+00
  9900012  1    3    3    0    0 -3.1561642247e+01 -1.5948884306e+01 +2.5161858078e+01 4.7787271044e+01 2.0000000000e+01 1.1262e-03 1.0000e+00
       12  1    3    3    0    0 +3.1561642247e+01 +1.5948884306e+01 -2.5161858078e+01 4.3400728956e+01 0.0000000000e+00 0.0000e+00 -1.0000e+00
</event>
<event>
 5      1 +2.9511900e-02 9.11880000e+01 7.81616400e-03 1.18400000e-01
      -11 -1    0    0    0    0 +0.0000000000e+00 +0.0000000000e+00 +4.5593999997e+01 4.5594000000e+01 5.1100000000e-04 0.0000e+00 -1.0000e+00
       11 -1    0    0    0    0 -0.0000000000e+00 -0.0000000000e+00 -4.5593999997e+01 4.5594000000e+01 5.1100000000e-04 0.0000e+00 1.0000e+00
       23  2    1    2    0    0 +0.0000000000e+00 +0.0000000000e+00 +0.0000000000e+00 9.1188000000e+01 9.1188000000e+01 2.3728e-14 0.0000e+00
  9900012  1    3    3    0    0 -7.5649223682e+00 +2.6135826986e+01 -3.3812923139e+01 4.7787271044e+01 2.0000000000e+01 1.6002e-01 1.0000e+00
       12  1    3    3    0    0 +7.5649223682e+00 -2.6135826986e+01 +3.3812923139e+01 4.3400728956e+01 0.0000000000e+00 0.0000e+00 -1.0000e+00
</event>
<event>
 5      8 +2.9511900e-02 9.11880000e+01 7.81616400e-03 1.18400000e-01
      -11 -1    0    0    0    0 +0.0000000000e+00 +0.0000000000e+00 +4.5593999997e+01 4.5594000000e+01 5.1100000000e-04 0.0000e+00 1.0000e+00
       11 -1    0    0    0    0 -0.0000000000e+00 -0.0000000000e+00 -4.5593999997e+01 4.5594000000e+01 5.1100000000e-04 0.0000e+00 -1.0000e+00
       23  2    1    2    0    0 +0.0000000000e+00 +0.0000000000e+00 +0.0000000000e+00 9.1188000000e+01 9.1188000000e+01 1.6613e-14 0.0000e+00
  9900012  1    3    3    0    0 -1.9663410266e+01 -2.8510656375e+01 -2.6155612087e+01 4.7787271044e+01 2.0000000000e+01 1.1174e-01 -1.0000e+00
      -12  1    3    3    0    0 +1.9663410266e+01 +2.8510656375e+01 +2.6155612087e+01 4.3400728956e+01 0.0000000000e+00 0.0000e+00 1.0000e+00
</event>
<event>
 5      7 +2.9511900e-02 9.11880000e+01 7.81616400e-03 1.18400000e-01
      -11 -1    0    0    0    0 +0.0000000000e+00 +0.0000000000e+00 +4.5593999997e+01 4.5594000000e+01 5.1100000000e-04 0.0000e+00 1.0000e+00
       11 -1    0    0    0    0 -0.0000000000e+00 -0.0000000000e+00 -4.5593999997e+01 4.5594000000e+01 5.1100000000e-04 0.0000e+00 -1.0000e+00
       23  2    1    2    0    0 +0.0000000000e+00 +0.0000000000e+00 +0.0000000000e+00 9.1188000000e+01 9.1188000000e+01 3.6458e-15 0.0000e+00
  9900012  1    3    3    0    0 +1.2514773199e+01 +7.4386010705e+00 +4.0886072687e+01 4.7787271044e+01 2.0000000000e+01 5.0421e-04 1.0000e+00
       12  1    3    3    0    0 -1.2514773199e+01 -7.4386010705e+00 -4.0886072687e+01 4.3400728956e+01 0.0000000000e+00 0.0000e+00 -1.0000e+00
</event>
<event>
 5      6 +2.9511900e-02 9.11880000e+01 7.81616400e-03 1.18400000e-01
      -11 -1    0    0    0    0 +0.0000000000e+00 +0.0000000000e+00 +4.5593999997e+01 4.5594000000e+01 5.1100000000e-04 0.0000e+00 -1.0000e+00
       11 -1    0    0    0    0 -0.0000000000e+00 -0.0000000000e+00 -4.5593999997e+01 4.5594000000e+01 5.1100000000e-04 0.0000e+00 1.0000e+00
       23  2    1    2    0    0 +0.0000000000e+00 +0.0000000000e+00 +0.0000000000e+00 9.1188000000e+01 9.1188000000e+01 1.0121e-13 0.0000e+00
  9900012  1    3    3    0    0 +2.8441895386e+01 -2.6194045918e+00 +3.2677524085e+01 4.7787271044e+01 2.0000000000e+01 3.7204e-01 -1.0000e+00
      -12  1    3    3    0    0 -2.8441895386e+01 +2.6194045918e+00 -3.2677524085e+01 4.3400728956e+01 0.0000000000e+00 0.0000e+00 1.0000e+00
</event>
<event>
 5      1 +2.9511900e-02 9.11880000e+01 7.81616400e-03 1.18400000e-01
      -11 -1    0    0    0    0 +0.0000000000e+00 +0.0000000000e+00 +4.5593999997e+01 4.5594000000e+01 5.1100000000e-04 0.0000e+00 -1.0000e+00
       11 -1    0    0    0    0 -0.0000000000e+00 -0.0000000000e+00 -4.5593999997e+01 4.5594000000e+01 5.1100000000e-04 0.0000e+00 1.0000e+00
       23  2    1    2    0    0 +0.0000000000e+00 +0.0000000000e+00 +0.0000000000e+00 9.1188000000e+01 9.1188000000e+01 1.0498e-13 0.0000e+00
  9900012  1    3    3    0    0 +4.1374698734e+01 +1.2824306222e+01 +2.7008792043e+00 4.7787271044e+01 2.0000000000e+01 2.5330e-02 1.0000e+00
       12  1    3    3    0    0 -4.1374698734e+01 -1.2824306222e+01 -2.7008792043e+00 4.3400728956e+01 0.0000000000e+00 0.0000e+00 -1.0000e+00
</event>
<event>
 5      6 +2.9511900e-02 9.11880000e+01 7.81616400e-03 1.18400000e-01
      -11 -1    0    0    0    0 +0.0000000000e+00 +0.0000000000e+00 +4.5593999997e+01 4.5594000000e+01 5.1100000000e-04 0.0000e+00 1.0000e+00
       11 -1    0    0    0    0 -0.0000000000e+00 -0.0000000000e+00 -4.5593999997e+01 4.5594000000e+01 5.1100000000e-04 0.0000e+00 -1.0000e+00
       23  2    1    2    0    0 +0.0000000000e+00 +0.0000000000e+00 +0.0000000000e+00 9.1188000000e+01 9.1188000000e+01 1.3472e-13 0.0000e+00
  9900012  1    3    3    0    0 -3.7850760587e+01 +1.4529239994e+00 -2.1185660450e+01 4.7787271044e+01 2.0000000000e+01 3.9656e-02 -1.0000e+00
      -12  1    3    3    0    0 +3.7850760587e+01 -1.4529239994e+00 +2.1185660450e+01 4.3400728956e+01 0.0000000000e+00 0.0000e+00 1.0000e+00
</event>
<event>
 5      5 +2.9511900e-02 9.11880000e+01 7.81616400e-03 1.18400000e-01
      -11 -1    0    0    0    0 +0.0000000000e+00 +0.0000000000e+00 +4.5593999997e+01 4.5594000000e+01 5.1100000000e-04 0.0000e+00 1.0000e+00
       11 -1    0    0    0    0 -0.0000000000e+00 -0.0000000000e+00 -4.5593999997e+01 4.5594000000e+01 5.1100000000e-04 0.0000e+00 -1.0000e+00
       23  2    1    2    0    0 +0.0000000000e+00 +0.0000000000e+00 +0.0000000000e+00 9.1188000000e+01 9.1188000000e+01 4.5216e-14 0.0000e+00
  9900012  1    3    3    0    0 -2.9164256087e+01 +1.1935367063e+01 +2.9843197782e+01 4.7787271044e+01 2.0000000000e+01 4.3744e-02 1.0000e+00
       12  1    3    3    0    0 +2.9164256087e+01 -1.1935367063e+01 -2.9843197782e+01 4.3400728956e+01 0.0000000000e+00 0.0000e+00 -1.0000e+00
</event>
<event>
 5      5 +2.9511900e-02 9.11880000e+01 7.81616400e-03 1.18400000e-01
      -11 -1    0    0    0    0 +0.0000000000e+00 +0.0000000000e+00 +4.5593999997e+01 4.5594000000e+01 5.1100000000e-04 0.0000e+00 1.0000e+00
       11 -1    0    0    0    0 -0.0000000000e+00 -0.0000000000e+00 -4.5593999997e+01 4.5594000000e+01 5.1100000000e-04 0.0000e+00 -1.0000e+00
       23  2    1    2    0    0 +0.0000000000e+00 +0.0000000000e+00 +0.0000000000e+00 9.1188000000e+01 9.1188000000e+01 1.3628e-13 0.0000e+00
  9900012  1    3    3    0    0 +1.3403459218e+01 +2.1656424599e+01 +3.5142137505e+01 4.7787271044e+01 2.0000000000e+01 1.0778e-01 1.0000e+00
       12  1    3    3    0    0 -1.3403459218e+01 -2.1656424599e+01 -3.5142137505e+01 4.3400728956e+01 0.0000000000e+00 0.0000e+00 -1.0000e+00
</event>
<event>
 5      5 +2.9511900e-02 9.11880000e+01 7.81616400e-03 1.18400000e-01
      -11 -1    0    0    0    0 +0.0000000000e+00 +0.0000000000e+00 +4.5593999997e+01 4.5594000000e+01 5.1100000000e-04 0.0000e+00 -1.0000e+00
       11 -1    0    0    0    0 -0.0000000000e+00 -0.0000000000e+00 -4.5593999997e+01 4.5594000000e+01 5.1100000000e-04 0.0000e+00 1.0000e+00
       23  2    1    2    0    0 +0.0000000000e+00 +0.0000000000e+00 +0.0000000000e+00 9.1188000000e+01 9.1188000000e+01 6.9711e-15 0.0000e+00
  9900012  1    3    3    0    0 -2.6630745331e+00 +4.2966311796e+01 -5.5160999429e+00 4.7787271044e+01 2.0000000000e+01 9.8969e-03 1.0000e+00
       12  1    3    3    0    0 +2.6630745331e+00 -4.2966311796e+01 +5.5160999429e+00 4.3400728956e+01 0.0000000000e+00 0.0000e+00 -1.0000e+00
</event>
<event>
 5      7 +2.9511900e-02 9.11880000e+01 7.81616400e-03 1.18400000e-01
      -11 -1    0    0    0    0 +0.0000000000e+00 +0.0000000000e+00 +4.5593999997e+01 4.5594000000e+01 5.1100000000e-04 0.0000e+00 1.0000e+00
       11 -1    0    0    0    0 -0.0000000000e+00 -0.0000000000e+00 -4.5593999997e+01 4.5594000000e+01 5.1100000000e-04 0.0000e+00 -1.0000e+00
       23  2    1    2    0    0 +0.0000000000e+00 +0.0000000000e+00 +0.0000000000e+00 9.1188000000e+01 9.1188000000e+01 1.0497e-14 0.0000e+00
  9900012  1    3    3    0    0 -1.6109243818e+01 -2.9088225924e+01 +2.7892483756e+01 4.7787271044e+01 2.0000000000e+01 6.7896e-03 1.0000e+00
       12  1    3    3    0    0 +1.6109243818e+01 +2.9088225924e+01 -2.7892483756e+01 4.3400728956e+01 0.0000000000e+00 0.0000e+00 -1.0000e+00
</event>
<event>
 5      7 +2.9511900e-02 9.11880000e+01 7.81616400e-03 1.18400000e-01
      -11 -1    0    0    0    0 +0.0000000000e+00 +0.0000000000e+00 +4.5593999997e+01 4.5594000000e+01 5.1100000000e-04 0.0000e+00 1.0000e+00
       11 -1    0    0    0    0 -0.0000000000e+00 -0.0000000000e+00 -4.5593999997e+01 4.5594000000e+01 5.1100000000e-04 0.0000e+00 -1.0000e+00
       23  2    1    2    0    0 +0.0000000000e+00 +0.0000000000e+00 +0.0000000000e+00 9.1188000000e+01 9.1188000000e+01 6.0741e-14 0.0000e+00
  9900012  1    3    3    0    0 +4.2330475138e+00 -9.7145906211e+00 +4.2087187025e+01 4.7787271044e+01 2.0000000000e+01 1.1271e-01 1.0000e+00
       12  1    3    3    0    0 -4.2330475138e+00 +9.7145906211e+00 -4.2087187025e+01 4.3400728956e+01 0.0000000000e+00 0.0000e+00 -1.0000e+00
</event>
<event>
 5      3 +2.9511900e-02 9.11880000e+01 7.81616400e-03 1.18400000e-01
      -11 -1    0    0    0    0 +0.0000000000e+00 +0.0000000000e+00 +4.5593999997e+01 4.5594000000e+01 5.1100000000e-04 0.0000e+00 -1.0000e+00
       11 -1    0    0    0    0 -0.0000000000e+00 -0.0000000000e+00 -4.5593999997e+01 4.5594000000e+01 5.1100000000e-04 0.0000e+00 1.0000e+00
       23  2    1    2    0    0 +0.0000000000e+00 +0.0000000000e+00 +0.0000000000e+00 9.1188000000e+01 9.1188000000e+01 6.9963e-14 0.0000e+00
  9900012  1    3    3    0    0 -1.3792059627e+01 +3.7689441695e+01 -1.6519937950e+01 4.7787271044e+01 2.0000000000e+01 1.5243e-01 1.0000e+00
       12  1    3    3    0    0 +1.3792059627e+01 -3.7689441695e+01 +1.6519937950e+01 4.3400728956e+01 0.0000000000e+00 0.0000e+00 -1.0000e+00
</event>
<event>
 5      6 +2.9511900e-02 9.11880000e+01 7.81616400e-03 1.18400000e-01
      -11 -1    0    0    0    0 +0.0000000000e+00 +0.0000000000e+00 +4.5593999997e+01 4.5594000000e+01 5.1100000000e-04 0.0000e+00 -1.0000e+00
       11 -1    0    0    0    0 -0.0000000000e+00 -0.0000000000e+00 -4.5593999997e+01 4.5594000000e+01 5.1100000000e-04 0.0000e+00 1.0000e+00
       23  2    1    2    0    0 +0.0000000000e+00 +0.0000000000e+00 +0.0000000000e+00 9.1188000000e+01 9.1188000000e+01 1.7579e-13 0.0000e+00
  9900012  1    3    3    0    0 -1.2426803506e-01 -4.2389316150e+01 +9.3141670427e+00 4.7787271044e+01 2.0000000000e+01 1.6062e-02 1.0000e+00
      -12  1    3    3    0    0 +1.2426803506e-01 +4.2389316150e+01 -9.3141670427e+00 4.3400728956e+01 0.0000000000e+00 0.0000e+00 1.0000e+00
</event>
<event>
 5      3 +2.9511900e-02 9.11880000e+01 7.81616400e-03 1.18400000e-01
      -11 -1    0    0    0    0 +0.0000000000e+00 +0.0000000000e+00 +4.5593999997e+01 4.5594000000e+01 5.1100000000e-04 0.0000e+00 1.0000e+00
       11 -1    0    0    0    0 -0.0000000000e+00 -0.0000000000e+00 -4.5593999997e+01 4.5594000000e+01 5.1100000000e-04 0.0000e+00 -1.0000e+00
       23  2    1    2    0    0 +0.0000000000e+00 +0.0000000000e+00 +0.0000000000e+00 9.1188000000e+01 9.1188000000e+01 3.0946e-15 0.0000e+00
  9900012  1    3    3    0    0 -2.6331148147e+01 -2.2402344235e-01 +3.4499909053e+01 4.7787271044e+01 2.0000000000e+01 9.3958e-02 1.0000e+00
       12  1    3    3    0    0 +2.6331148147e+01 +2.2402344235e-01 -3.4499909053e+01 4.3400728956e+01 0.0000000000e+00 0.0000e+00 -1.0000e+00
</event>
<event>
 5      3 +2.9511900e-02 9.11880000e+01 7.81616400e-03 1.18400000e-01
      -11 -1    0    0    0    0 +0.0000000000e+00 +0.0000000000e+00 +4.5593999997e+01 4.5594000000e+01 5.1100000000e-04 0.0000e+00 -1.0000e+00
       11 -1    0    0    0    0 -0.0000000000e+00 -0.0000000000e+00 -4.5593999997e+01 4.5594000000e+01 5.1100000000e-04 0.0000e+00 1.0000e+00
       23  2    1    2    0    0 +0.0000000000e+00 +0.0000000000e+00 +0.0000000000e+00 9.1188000000e+01 9.1188000000e+01 5.0414e-14 0.0000e+00
  9900012  1    3    3    0    0 +9.9474732039e+00 -1.7848685927e+01 -3.8289626029e+01 4.7787271044e+01 2.0000000000e+01 6.5669e-02 1.0000e+00
       12  1    3    3    0    0 -9.9474732039e+00 +1.7848685927e+01 +3.8289626029e+01 4.3400728956e+01 0.0000000000e+00 0.0000e+00 -1.0000e+00
</event>
<event>
 5      7 +2.9511900e-02 9.11880000e+01 7.81616400e-03 1.18400000e-01
      -11 -1    0    0    0    0 +0.0000000000e+00 +0.0000000000e+00 +4.5593999997e+01 4.5594000000e+01 5.1100000000e-04 0.0000e+00 -1.0000e+00
       11 -1    0    0    0    0 -0.0000000000e+00 -0.0000000000e+00 -4.5593999997e+01 4.5594000000e+01 5.1100000000e-04 0.0000e+00 1.0000e+00
       23  2    1    2    0    0 +0.0000000000e+00 +0.0000000000e+00 +0.0000000000e+00 9.1188000000e+01 9.1188000000e+01 2.4319e-14 0.0000e+00
  9900012  1    3    3    0    0 -1.9965982506e+01 -1.9488717596e+01 -3.3244137873e+01 4.7787271044e+01 2.0000000000e+01 1.5601e-01 1.0000e+00
       12  1    3    3    0    0 +1.9965982506e+01 +1.9488717596e+01 +3.3244137873e+01 4.3400728956e+01 0.0000000000e+00 0.0000e+00 -1.0000e+00
</event>
<event>
 5      5 +2.9511900e-02 9.11880000e+01 7.81616400e-03 1.18400000e-01
      -11 -1    0    0    0    0 +0.0000000000e+00 +0.0000000000e+00 +4.5593999997e+01 4.5594000000e+01 5.1100000000e-04 0.0000e+00 1.0000e+00
       11 -1    0    0    0    0 -0.0000000000e+00 -0.0000000000e+00 -4.5593999997e+01 4.5594000000e+01 5.1100000000e-04 0.0000e+00 -1.0000e+00
       23  2    1    2    0    0 +0.0000000000e+00 +0.0000000000e+00 +0.0000000000e+00 9.1188000000e+01 9.1188000000e+01 6.8824e-14 0.0000e+00
  9900012  1    3    3    0    0 -4.0130138474e+01 -1.9880387184e+00 +1.6408624622e+01 4.7787271044e+01 2.0000000000e+01 6.5139e-02 1.0000e+00
       12  1    3    3    0    0 +4.0130138474e+01 +1.9880387184e+00 -1.6408624622e+01 4.3400728956e+01 0.0000000000e+00 0.0000e+00 -1.0000e+00
</event>
<event>
 5      2 +2.9511900e-02 9.11880000e+01 7.81616400e-03 1.18400000e-01
      -11 -1    0    0    0    0 +0.0000000000e+00 +0.0000000000e+00 +4.5593999997e+01 4.5594000000e+01 5.1100000000e-04 0.0000e+00 -1.0000e+00
       11 -1    0    0    0    0 -0.0000000000e+00 -0.0000000000e+00 -4.5593999997e+01 4.5594000000e+01 5.1100000000e-04 0.0000e+00 1.0000e+00
       23  2    1    2    0    0 +0.0000000000e+00 +0.0000000000e+00 +0.0000000000e+00 9.1188000000e+01 9.1188000000e+01 9.3787e-14 0.0000e+00
  9900012  1    3    3    0    0 +8.5959614822e+00 +3.6693108462e+01 +2.1525531619e+01 4.7787271044e+01 2.0000000000e+01 3.9067e-02 -1.0000e+00
      -12  1    3    3    0    0 -8.5959614822e+00 -3.6693108462e+01 -2.1525531619e+01 4.3400728956e+01 0.0000000000e+00 0.0000e+00 1.0000e+00
</event>
<event>
 5      4 +2.9511900e-02 9.11880000e+01 7.81616400e-03 1.18400000e-01
      -11 -1    0    0    0    0 +0.0000000000e+00 +0.0000000000e+00 +4.5593999997e+01 4.5594000000e+01 5.1100000000e-04 0.0000e+00 -1.0000e+00
       11 -1    0    0    0    0 -0.0000000000e+00 -0.0000000000e+00 -4.5593999997e+01 4.5594000000e+01 5.1100000000e-04 0.0000e+00 1.0000e+00
       23  2    1    2    0    0 +0.0000000000e+00 +0.0000000000e+00 +0.0000000000e+00 9.1188000000e+01 9.1188000000e+01 9.3871e-14 0.0000e+00
  9900012  1    3    3    0    0 -3.5843742463e+01 -2.4298026594e+01 +2.9078004980e+00 4.7787271044e+01 2.0000000000e+01 2.7366e-01 -1.0000e+00
      -12  1    3    3    0    0 +3.5843742463e+01 +2.4298026594e+01 -2.9078004980e+00 4.3400728956e+01 0.0000000000e+00 0.0000e+00 1.0000e+00
</event>
<event>
 5      6 +2.9511900e-02 9.11880000e+01 7.81616400e-03 1.18400000e-01
      -11 -1    0    0    0    0 +0.0000000000e+00 +0.0000000000e+00 +4.5593999997e+01 4.5594000000e+01 5.1100000000e-04 0.0000e+00 1.0000e+00
       11 -1    0    0    0    0 -0.0000000000e+00 -0.0000000000e+00 -4.5593999997e+01 4.5594000000e+01 5.1100000000e-04 0.0000e+00 -1.0000e+00
       23  2    1    2    0    0 +0.0000000000e+00 +0.0000000000e+00 +0.0000000000e+00 9.1188000000e+01 9.1188000000e+01 3.9042e-14 0.0000e+00
  9900012  1    3    3    0    0 -2.5744152286e+00 +3.7510445047e+01 +2.1678610944e+01 4.7787271044e+01 2.0000000000e+01 7.8768e-02 -1.0000e+00
      -12  1    3    3    0    0 +2.5744152286e+00 -3.7510445047e+01 -2.1678610944e+01 4.3400728956e+01 0.0000000000e+00 0.0000e+00 1.0000e+00
</event>
<event>
 5      1 +2.9511900e-02 9.11880000e+01 7.81616400e-03 1.18400000e-01
      -11 -1    0    0    0    0 +0.0000000000e+00 +0.0000000000e+00 +4.5593999997e+01 4.5594000000e+01 5.1100000000e-04 0.0000e+00 1.0000e+00
       11 -1    0    0    0    0 -0.0000000000e+00 -0.0000000000e+00 -4.5593999997e+01 4.5594000000e+01 5.1100000000e-04 0.0000e+00 -1.0000e+00
       23  2    1    2    0    0 +0.0000000000e+00 +0.0000000000e+00 +0.0000000000e+00 9.1188000000e+01 9.1188000000e+01 1.8201e-13 0.0000e+00
  9900012  1    3    3    0    0 -4.2928193942e+01 +4.1927529787e+00 +4.8181180193e+00 4.7787271044e+01 2.0000000000e+01 1.8527e-01 1.0000e+00
       12  1    3    3    0    0 +4.2928193942e+01 -4.1927529787e+00 -4.8181180193e+00 4.3400728956e+01 0.0000000000e+00 0.0000e+00 -1.0000e+00
</event>
<event>
 5      3 +2.9511900e-02 9.11880000e+01 7.81616400e-03 1.18400000e-01
      -11 -1    0    0    0    0 +0.0000000000e+00 +0.0000000000e+00 +4.5593999997e+01 4.5594000000e+01 5.1100000000e-04 0.0000e+00 -1.0000e+00
       11 -1    0    0    0    0 -0.0000000000e+00 -0.0000000000e+00 -4.5593999997e+01 4.5594000000e+01 5.1100000000e-04 0.0000e+00 1.0000e+00
       23  2    1    2    0    0 +0.0000000000e+00 +0.0000000000e+00 +0.0000000000e+00 9.1188000000e+01 9.1188000000e+01 2.4580e-15 0.0000e+00
  9900012  1    3    3    0    0 +1.8636263886e+01 +2.7574025972e+01 -2.7856525877e+01 4.7787271044e+01 2.0000000000e+01 1.4463e-01 1.0000e+00
       12  1    3    3    0    0 -1.8636263886e+01 -2.7574025972e+01 +2.7856525877e+01 4.3400728956e+01 0.0000000000e+00 0.0000e+00 -1.0000e+00
</event>
<event>
 5      1 +2.9511900e-02 9.11880000e+01 7.81616400e-03 1.18400000e-01
      -11 -1    0    0    0    0 +0.0000000000e+00 +0.0000000000e+00 +4.5593999997e+01 4.5594000000e+01 5.1100000000e-04 0.0000e+00 -1.0000e+00
       11 -1    0    0    0    0 -0.0000000000e+00 -0.0000000000e+00 -4.5593999997e+01 4.5594000000e+01 5.1100000000e-04 0.0000e+00 1.0000e+00
       23  2    1    2    0    0 +0.0000000000e+00 +0.0000000000e+00 +0.0000000000e+00 9.1188000000e+01 9.1188000000e+01 2.2327e-14 0.0000e+00
  9900012  1    3    3    0    0 -1.6851640268e+01 +3.5900277149e+01 -1.7629962984e+01 4.7787271044e+01 2.0000000000e+01 8.0818e-02 1.0000e+00
       12  1    3    3    0    0 +1.6851640268e+01 -3.5900277149e+01 +1.7629962984e+01 4.3400728956e+01 0.0000000000e+00 0.0000e+00 -1.0000e+00
</event>
<event>
 5      3 +2.9511900e-02 9.11880000e+01 7.81616400e-03 1.18400000e-01
      -11 -1    0    0    0    0 +0.0000000000e+00 +0.0000000000e+00 +4.5593999997e+01 4.5594000000e+01 5.1100000000e-04 0.0000e+00 1.0000e+00
       11 -1    0    0    0    0 -0.0000000000e+00 -0.0000000000e+00 -4.5593999997e+01 4.5594000000e+01 5.1100000000e-04 0.0000e+00 -1.0000e+00
       23  2    1    2    0    0 +0.0000000000e+00 +0.0000000000e+00 +0.0000000000e+00 9.1188000000e+01 9.1188000000e+01 1.1154e-13 0.0000e+00
  9900012  1    3    3    0    0 +4.3135450875e+01 -3.4740782640e+00 -3.2995351090e+00 4.7787271044e+01 2.0000000000e+01 7.7092e-02 1.0000e+00
       12  1    3    3    0    0 -4.3135450875e+01 +3.4740782640e+00 +3.2995351090e+00 4.3400728956e+01 0.0000000000e+00 0.0000e+00 -1.0000e+00
</event>
<event>
 5      6 +2.9511900e-02 9.11880000e+01 7.81616400e-03 1.18400000e-01
      -11 -1    0    0    0    0 +0.0000000000e+00 +0.0000000000e+00 +4.5593999997e+01 4.5594000000e+01 5.1100000000e-04 0.0000e+00 -1.0000e+00
       11 -1    0    0    0    0 -0.0000000000e+00 -0.0000000000e+00 -4.5593999997e+01 4.5594000000e+01 5.1100000000e-04 0.0000e+00 1.0000e+00
       23  2    1    2    0    0 +0.0000000000e+00 +0.0000000000e+00 +0.0000000000e+00 9.1188000000e+01 9.1188000000e+01 6.5645e-14 0.0000e+00
  9900012  1    3    3    0    0 +4.0458479266e+01 -5.5693744042e+00 -1.4687300573e+01 4.7787271044e+01 2.0000000000e+01 2.9519e-02 -1.0000e+00
      -12  1    3    3    0    0 -4.0458479266e+01 +5.5693744042e+00 +1.4687300573e+01 4.3400728956e+01 0.0000000000e+00 0.0000e+00 1.0000e+00
</event>
<event>
 5      8 +2.9511900e-02 9.11880000e+01 7.81616400e-03 1.18400000e-01
      -11 -1    0    0    0    0 +0.0000000000e+00 +0.0000000000e+00 +4.5593999997e+01 4.5594000000e+01 5.1100000000e-04 0.0000e+00 -1.0000e+00
       11 -1    0    0    0    0 -0.0000000000e+00 -0.0000000000e+00 -4.5593999997e+01 4.5594000000e+01 5.1100000000e-04 0.0000e+00 1.0000e+00
       23  2    1    2    0    0 +0.0000000000e+00 +0.0000000000e+00 +0.0000000000e+00 9.1188000000e+01 9.1188000000e+01 1.1457e-14 0.0000e+00
  9900012  1    3    3    0    0 -9.0382719264e+00 +3.8568433664e+01 +1.7731577459e+01 4.7787271044e+01 2.0000000000e+01 1.9933e-01 -1.0000e+00
      -12  1    3    3    0    0 +9.0382719264e+00 -3.8568433664e+01 -1.7731577459e+01 4.3400728956e+01 0.0000000000e+00 0.0000e+00 1.0000e+00
</event>
<event>
 5      4 +2.9511900e-02 9.11880000e+01 7.81616400e-03 1.18400000e-01
      -11 -1    0    0    0    0 +0.0000000000e+00 +0.0000000000e+00 +4.5593999997e+01 4.5594000000e+01 5.1100000000e-04 0.0000e+00 -1.0000e+00
       11 -1    0    0    0    0 -0.0000000000e+00 -0.0000000000e+00 -4.5593999997e+01 4.5594000000e+01 5.1100000000e-04 0.0000e+00 1.0000e+00
       23  2    1    2    0    0 +0.0000000000e+00 +0.0000000000e+00 +0.0000000000e+00 9.1188000000e+01 9.1188000000e+01 7.7384e-14 0.0000e+00
  9900012  1    3    3    0    0 +1.4310370265e+01 -2.3982457532e+01 +3.3221654195e+01 4.7787271044e+01 2.0000000000e+01 2.6593e-02 -1.0000e+00
      -12  1    3    3    0    0 -1.4310370265e+01 +2.3982457532e+01 -3.3221654195e+01 4.3400728956e+01 0.0000000000e+00 0.0000e+00 1.0000e+00
</event>
<event>
 5      4 +2.9511900e-02 9.11880000e+01 7.81616400e-03 1.18400000e-01
      -11 -1    0    0    0    0 +0.0000000000e+00 +0.0000000000e+00 +4.5593999997e+01 4.5594000000e+01 5.1100000000e-04 0.0000e+00 -1.0000e+00
       11 -1    0    0    0    0 -0.0000000000e+00 -0.0000000000e+00 -4.5593999997e+01 4.5594000000e+01 5.1100000000e-04 0.0000e+00 1.0000e+00
       23  2    1    2    0    0 +0.0000000000e+00 +0.0000000000e+00 +0.0000000000e+00 9.1188000000e+01 9.1188000000e+01 9.1235e-14 0.0000e+00
  9900012  1    3    3    0    0 -1.5296478023e+00 +1.4884781707e+01 +4.0739743801e+01 4.7787271044e+01 2.0000000000e+01 1.7752e-01 -1.0000e+00
      -12  1    3    3    0    0 +1.5296478023e+00 -1.4884781707e+01 -4.0739743801e+01 4.3400728956e+01 0.0000000000e+00 0.0000e+00 1.0000e+00
</event>
<event>
 5      6 +2.9511900e-02 9.11880000e+01 7.81616400e-03 1.18400000e-01
      -11 -1    0    0    0    0 +0.0000000000e+00 +0.0000000000e+00 +4.5593999997e+01 4.5594000000e+01 5.1100000000e-04 0.0000e+00 -1.0000e+00
       11 -1    0    0    0    0 -0.0000000000e+00 -0.0000000000e+00 -4.5593999997e+01 4.5594000000e+01 5.1100000000e-04 0.0000e+00 1.0000e+00
       23  2    1    2    0    0 +0.0000000000e+00 +0.0000000000e+00 +0.0000000000e+00 9.1188000000e+01 9.1188000000e+01 1.6192e-13 0.0000e+00
  9900012  1    3    3    0    0 -1.6183135441e+01 -3.0120405996e+01 +2.6729955926e+01 4.7787271044e+01 2.0000000000e+01 1.2680e-01 -1.0000e+00
      -12  1    3    3    0    0 +1.6183135441e+01 +3.0120405996e+01 -2.6729955926e+01 4.3400728956e+01 0.0000000000e+00 0.0000e+00 1.0000e+00
</event>
<event>
 5      8 +2.9511900e-02 9.11880000e+01 7.81616400e-03 1.18400000e-01
      -11 -1    0    0    0    0 +0.0000000000e+00 +0.0000000000e+00 +4.5593999997e+01 4.5594000000e+01 5.1100000000e-04 0.0000e+00 1.0000e+00
       11 -1    0    0    0    0 -0.0000000000e+00 -0.0000000000e+00 -4.5593999997e+01 4.5594000000e+01 5.1100000000e-04 0.0000e+00 -1.0000e+00
       23  2    1    2    0    0 +0.0000000000e+00 +0.0000000000e+00 +0.0000000000e+00 9.1188000000e+01 9.1188000000e+01 6.8331e-15 0.0000e+00
  9900012  1    3    3    0    0 +3.9105030900e+01 +1.8132758631e+01 +5.0619064224e+00 4.7787271044e+01 2.0000000000e+01 1.7755e-01 -1.0000e+00
      -12  1    3    3    0    0 -3.9105030900e+01 -1.8132758631e+01 -5.0619064224e+00 4.3400728956e+01 0.0000000000e+00 0.0000e+00 1.0000e+00
</event>
<event>
 5      3 +2.9511900e-02 9.11880000e+01 7.81616400e-03 1.18400000e-01
      -11 -1    0    0    0    0 +0.0000000000e+00 +0.0000000000e+00 +4.5593999997e+01 4.5594000000e+01 5.1100000000e-04 0.0000e+00 1.0000e+00
       11 -1    0    0    0    0 -0.0000000000e+00 -0.0000000000e+00 -4.5593999997e+01 4.5594000000e+01 5.1100000000e-04 0.0000e+00 -1.0000e+00
       23  2    1    2    0    0 +0.0000000000e+00 +0.0000000000e+00 +0.0000000000e+00 9.1188000000e+01 9.1188000000e+01 4.8137e-15 0.0000e+00
  9900012  1    3    3    0    0 +1.1987837455e+01 +3.4864951608e+01 +2.2898693771e+01 4.7787271044e+01 2.0000000000e+01 7.3448e-02 1.0000e+00
       12  1    3    3    0    0 -1.1987837455e+01 -3.4864951608e+01 -2.2898693771e+01 4.3400728956e+01 0.0000000000e+00 0.0000e+00 -1.0000e+00
</event>
<event>
 5      5 +2.9511900e-02 9.11880000e+01 7.81616400e-03 1.18400000e-01
      -11 -1    0    0    0    0 +0.0000000000e+00 +0.0000000000e+00 +4.5593999997e+01 4.5594000000e+01 5.1100000000e-04 0.0000e+00 1.0000e+00
       11 -1    0    0    0    0 -0.0000000000e+00 -0.0000000000e+00 -4.5593999997e+01 4.5594000000e+01 5.1100000000e-04 0.0000e+00 -1.0000e+00
       23  2    1    2    0    0 +0.0000000000e+00 +0.0000000000e+00 +0.0000000000e+00 9.1188000000e+01 9.1188000000e+01 2.6205e-14 0.0000e+00
  9900012  1    3    3    0    0 -2.6253574894e+01 -3.4554565234e+01 +5.9590321321e-01 4.7787271044e+01 2.0000000000e+01 2.9362e-02 1.0000e+00
       12  1    3    3    0    0 +2.6253574894e+01 +3.4554565234e+01 -5.9590321321e-01 4.3400728956e+01 0.0000000000e+00 0.0000e+00 -1.0000e+00
</event>
<event>
 5      4 +2.9511900e-02 9.11880000e+01 7.81616400e-03 1.18400000e-01
      -11 -1    0    0    0    0 +0.0000000000e+00 +0.0000000000e+00 +4.5593999997e+01 4.5594000000e+01 5.1100000000e-04 0.0000e+00 -1.0000e+00
       11 -1    0    0    0    0 -0.0000000000e+00 -0.0000000000e+00 -4.5593999997e+01 4.5594000000e+01 5.1100000000e-04 0.0000e+00 1.0000e+00
       23  2    1    2    0    0 +0.0000000000e+00 +0.0000000000e+00 +0.0000000000e+00 9.1188000000e+01 9.1188000000e+01 2.7519e-14 0.0000e+00
  9900012  1    3    3    0    0 +1.6466214401e+01 -2.8576727960e+01 +2.8210949581e+01 4.7787271044e+01 2.0000000000e+01 1.1408e-01 -1.0000e+00
      -12  1    3    3    0    0 -1.6466214401e+01 +2.8576727960e+01 -2.8210949581e+01 4.3400728956e+01 0.0000000000e+00 0.0000e+00 1.0000e+00
</event>
<event>
 5      6 +2.9511900e-02 9.11880000e+01 7.81616400e-03 1.18400000e-01
      -11 -1    0    0    0    0 +0.0000000000e+00 +0.0000000000e+00 +4.5593999997e+01 4.5594000000e+01 5.1100000000e-04 0.0000e+00 1.0000e+00
       11 -1    0    0    0    0 -0.0000000000e+00 -0.0000000000e+00 -4.5593999997e+01 4.5594000000e+01 5.1100000000e-04 0.0000e+00 -1.0000e+00
       23  2    1    2    0    0 +0.0000000000e+00 +0.0000000000e+00 +0.0000000000e+00 9.1188000000e+01 9.1188000000e+01 9.3473e-14 0.0000e+00
  9900012  1    3    3    0    0 -1.4491665524e+01 -3.8839100125e+01 -1.2850650011e+01 4.7787271044e+01 2.0000000000e+01 3.6084e-02 -1.0000e+00
      -12  1    3    3    0    0 +1.4491665524e+01 +3.8839100125e+01 +1.2850650011e+01 4.3400728956e+01 0.0000000000e+00 0.0000e+00 1.0000e+00
</event>
<event>
 5      2 +2.9511900e-02 9.11880000e+01 7.81616400e-03 1.18400000e-01
      -11 -1    0    0    0    0 +0.0000000000e+00 +0.0000000000e+00 +4.5593999997e+01 4.5594000000e+01 5.1100000000e-04 0.0000e+00 1.0000e+00
       11 -1    0    0    0    0 -0.0000000000e+00 -0.0000000000e+00 -4.5593999997e+01 4.5594000000e+01 5.1100000000e-04 0.0000e+00 -1.0000e+00
       23  2    1    2    0    0 +0.0000000000e+00 +0.0000000000e+00 +0.0000000000e+00 9.1188000000e+01 9.1188000000e+01 1.0375e-13 0.0000e+00
  9900012  1    3    3    0    0 -1.2730790529e+01 -1.9868574553e+01 -3.6425128573e+01 4.7787271044e+01 2.0000000000e+01 3.5577e-01 -1.0000e+00
      -12  1    3    3    0    0 +1.2730790529e+01 +1.9868574553e+01 +3.6425128573e+01 4.3400728956e+01 0.0000000000e+00 0.0000e+00 1.0000e+00
</event>
<event>
 5      4 +2.9511900e-02 9.11880000e+01 7.81616400e-03 1.18400000e-01
      -11 -1    0    0    0    0 +0.0000000000e+00 +0.0000000000e+00 +4.5593999997e+01 4.5594000000e+01 5.1100000000e-04 0.0000e+00 1.0000e+00
       11 -1    0    0    0    0 -0.0000000000e+00 -0.0000000000e+00 -4.5593999997e+01 4.5594000000e+01 5.1100000000e-04 0.0000e+00 -1.0000e+00
       23  2    1    2    0    0 +0.0000000000e+00 +0.0000000000e+00 +0.0000000000e+00 9.1188000000e+01 9.1188000000e+01 2.6032e-14 0.0000e+00
  9900012  1    3    3    0    0 +1.5388034643e+01 -2.8615331898e+01 -2.8774892599e+01 4.7787271044e+01 2.0000000000e+01 5.1294e-02 -1.0000e+00
      -12  1    3    3    0    0 -1.5388034643e+01 +2.8615331898e+01 +2.8774892599e+01 4.3400728956e+01 0.0000000000e+00 0.0000e+00 1.0000e+00
</event>
<event>
 5      1 +2.9511900e-02 9.11880000e+01 7.81616400e-03 1.18400000e-01
      -11 -1    0    0    0    0 +0.0000000000e+00 +0.0000000000e+00 +4.5593999997e+01 4.5594000000e+01 5.1100000000e-04 0.0000e+00 1.0000e+00
       11 -1    0    0    0    0 -0.0000000000e+00 -0.0000000000e+00 -4.5593999997e+01 4.5594000000e+01 5.1100000000e-04 0.0000e+00 -1.0000e+00
       23  2    1    2    0    0 +0.0000000000e+00 +0.0000000000e+00 +0.0000000000e+00 9.1188000000e+01 9.1188000000e+01 3.6705e-15 0.0000e+00
  9900012  1    3    3    0    0 +1.1677967674e+01 -1.2824687782e+00 +4.1780421476e+01 4.7787271044e+01 2.0000000000e+01 1.3773e-01 1.0000e+00
       12  1    3    3    0    0 -1.1677967674e+01 +1.2824687782e+00 -4.1780421476e+01 4.3400728956e+01 0.0000000000e+00 0.0000e+00 -1.0000e+00
</event>
<event>
 5      2 +2.9511900e-02 9.11880000e+01 7.81616400e-03 1.18400000e-01
      -11 -1    0    0    0    0 +0.0000000000e+00 +0.0000000000e+00 +4.5593999997e+01 4.5594000000e+01 5.1100000000e-04 0.0000e+00 -1.0000e+00
       11 -1    0    0    0    0 -0.0000000000e+00 -0.0000000000e+00 -4.5593999997e+01 4.5594000000e+01 5.1100000000e-04 0.0000e+00 1.0000e+00
       23  2    1    2    0    0 +0.0000000000e+00 +0.0000000000e+00 +0.0000000000e+00 9.1188000000e+01 9.1188000000e+01 5.6289e-14 0.0000e+00
  9900012  1    3    3    0    0 +1.4631047015e+01 -6.3779406629e+00 +4.0359355917e+01 4.7787271044e+01 2.0000000000e+01 3.8183e-02 -1.0000e+00
      -12  1    3    3    0    0 -1.4631047015e+01 +6.3779406629e+00 -4.0359355917e+01 4.3400728956e+01 0.0000000000e+00 0.0000e+00 1.0000e+00
</event>
<event>
 5      5 +2.9511900e-02 9.11880000e+01 7.81616400e-03 1.18400000e-01
      -11 -1    0    0    0    0 +0.0000000000e+00 +0.0000000000e+00 +4.5593999997e+01 4.5594000000e+01 5.1100000000e-04 0.0000e+00 -1.0000e+00
       11 -1    0    0    0    0 -0.0000000000e+00 -0.0000000000e+00 -4.5593999997e+01 4.5594000000e+01 5.1100000000e-04 0.0000e+00 1.0000e+00
       23  2    1    2    0    0 +0.0000000000e+00 +0.0000000000e+00 +0.0000000000e+00 9.1188000000e+01 9.1188000000e+01 3.2423e-15 0.0000e+00
  9900012  1    3    3    0    0 -3.0553597675e+01 -3.0121882774e+01 -6.5401162954e+00 4.7787271044e+01 2.0000000000e+01 3.5317e-02 1.0000e+00
       12  1    3    3    0    0 +3.0553597675e+01 +3.0121882774e+01 +6.5401162954e+00 4.3400728956e+01 0.0000000000e+00 0.0000e+00 -1.0000e+00
</event>
<event>
 5      4 +2.9511900e-02 9.11880000e+01 7.81616400e-03 1.18400000e-01
      -11 -1    0    0    0    0 +0.0000000000e+00 +0.0000000000e+00 +4.5593999997e+01 4.5594000000e+01 5.1100000000e-04 0.0000e+00 1.0000e+00
       11 -1    0    0    0    0 -0.0000000000e+00 -0.0000000000e+00 -4.5593999997e+01 4.5594000000e+01 5.1100000000e-04 0.0000e+00 -1.0000e+00
       23  2    1    2    0    0 +0.0000000000e+00 +0.0000000000e+00 +0.0000000000e+00 9.1188000000e+01 9.1188000000e+01 2.2923e-14 0.0000e+00
  9900012  1    3    3    0    0 -7.7587208784e+00 -7.1685919401e+00 -4.2095567627e+01 4.7787271044e+01 2.0000000000e+01 7.5240e-02 -1.0000e+00
      -12  1    3    3    0    0 +7.7587208784e+00 +7.1685919401e+00 +4.2095567627e+01 4.3400728956e+01 0.0000000000e+00 0.0000e+00 1.0000e+00
</event>
<event>
 5      2 +2.9511900e-02 9.11880000e+01 7.81616400e-03 1.18400000e-01
      -11 -1    0    0    0    0 +0.0000000000e+00 +0.0000000000e+00 +4.5593999997e+01 4.5594000000e+01 5.1100000000e-04 0.0000e+00 -1.0000e+00
       11 -1    0    0    0    0 -0.0000000000e+00 -0.0000000000e+00 -4.5593999997e+01 4.5594000000e+01 5.1100000000e-04 0.0000e+00 1.0000e+00
       23  2    1    2    0    0 +0.0000000000e+00 +0.0000000000e+00 +0.0000000000e+00 9.1188000000e+01 9.1188000000e+01 1.5482e-14 0.0000e+00
  9900012  1    3    3    0    0 +6.8320403351e+00 +3.9678454224e+01 +1.6203912156e+01 4.7787271044e+01 2.0000000000e+01 5.6111e-03 -1.0000e+00
      -12  1    3    3    0    0 -6.8320403351e+00 -3.9678454224e+01 -1.6203912156e+01 4.3400728956e+01 0.0000000000e+00 0.0000e+00 1.0000e+00
</event>
<event>
 5      6 +2.9511900e-02 9.11880000e+01 7.81616400e-03 1.18400000e-01
      -11 -1    0    0    0    0 +0.0000000000e+00 +0.0000000000e+00 +4.5593999997e+01 4.5594000000e+01 5.1100000000e-04 0.0000e+00 1.0000e+00
       11 -1    0    0    0    0 -0.0000000000e+00 -0.0000000000e+00 -4.5593999997e+01 4.5594000000e+01 5.1100000000e-04 0.0000e+00 -1.0000e+00
       23  2    1    2    0    0 +0.0000000000e+00 +0.0000000000e+00 +0.0000000000e+00 9.1188000000e+01 9.1188000000e+01 1.0458e-14 0.0000e+00
  9900012  1    3    3    0    0 +4.0338239385e+01 -1.4771462543e+01 -6.1849504050e+00 4.7787271044e+01 2.0000000000e+01 5.1328e-03 -1.0000e+00
      -12  1    3    3    0    0 -4.0338239385e+01 +1.4771462543e+01 +6.1849504050e+00 4.3400728956e+01 0.0000000000e+00 0.0000e+00 1.0000e+00
</event>
<event>
 5      7 +2.9511900e-02 9.11880000e+01 7.81616400e-03 1.18400000e-01
      -11 -1    0    0    0    0 +0.0000000000e+00 +0.0000000000e+00 +4.5593999997e+01 4.5594000000e+01 5.1100000000e-04 0.0000e+00 1.0000e+00
       11 -1    0    0    0    0 -0.0000000000e+00 -0.0000000000e+00 -4.5593999997e+01 4.5594000000e+01 5.1100000000e-04 0.0000e+00 -1.0000e+00
       23  2    1    2    0    0 +0.0000000000e+00 +0.0000000000e+00 +0.0000000000e+00 9.1188000000e+01 9.1188000000e+01 2.5133e-14 0.0000e+00
  9900012  1    3    3    0    0 -1.1945933402e+01 -2.1775503072e+01 -3.5591367142e+01 4.7787271044e+01 2.0000000000e+01 8.5359e-02 1.0000e+00
       12  1    3    3    0    0 +1.1945933402e+01 +2.1775503072e+01 +3.5591367142e+01 4.3400728956e+01 0.0000000000e+00 0.0000e+00 -1.0000e+00
</event>
<event>
 5      4 +2.9511900e-02 9.11880000e+01 7.81616400e-03 1.18400000e-01
      -11 -1    0    0    0    0 +0.0000000000e+00 +0.0000000000e+00 +4.5593999997e+01 4.5594000000e+01 5.1100000000e-04 0.0000e+00 1.0000e+00
       11 -1    0    0    0    0 -0.0000000000e+00 -0.0000000000e+00 -4.5593999997e+01 4.5594000000e+01 5.1100000000e-04 0.0000e+00 -1.0000e+00
       23  2    1    2    0    0 +0.0000000000e+00 +0.0000000000e+00 +0.0000000000e+00 9.1188000000e+01 9.1188000000e+01 1.0262e-13 0.0000e+00
  9900012  1    3    3    0    0 -2.8124373159e+01 +2.7006999188e+01 -1.9059509520e+01 4.7787271044e+01 2.0000000000e+01 8.6916e-02 -1.0000e+00
      -12  1    3    3    0    0 +2.8124373159e+01 -2.7006999188e+01 +1.9059509520e+01 4.3400728956e+01 0.0000000000e+00 0.0000e+00 1.0000e+00
</event>
<event>
 5      3 +2.9511900e-02 9.11880000e+01 7.81616400e-03 1.18400000e-01
      -11 -1    0    0    0    0 +0.0000000000e+00 +0.0000000000e+00 +4.5593999997e+01 4.5594000000e+01 5.1100000000e-04 0.0000e+00 -1.0000e+00
       11 -1    0    0    0    0 -0.0000000000e+00 -0.0000000000e+00 -4.5593999997e+01 4.5594000000e+01 5.1100000000e-04 0.0000e+00 1.0000e+00
       23  2    1    2    0    0 +0.0000000000e+00 +0.0000000000e+00 +0.0000000000e+00 9.1188000000e+01 9.1188000000e+01 1.9019e-14 0.0000e+00
  9900012  1    3    3    0    0 -3.6656497357e+01 +1.0679993071e+01 -2.0636429521e+01 4.7787271044e+01 2.0000000000e+01 2.5372e-01 1.0000e+00
       12  1    3    3    0    0 +3.6656497357e+01 -1.0679993071e+01 +2.0636429521e+01 4.3400728956e+01 0.0000000000e+00 0.0000e+00 -1.0000e+00
</event>
<event>
 5      2 +2.9511900e-02 9.11880000e+01 7.81616400e-03 1.18400000e-01
      -11 -1    0    0    0    0 +0.0000000000e+00 +0.0000000000e+00 +4.5593999997e+01 4.5594000000e+01 5.1100000000e-04 0.0000e+00 1.0000e+00
       11 -1    0    0    0    0 -0.0000000000e+00 -0.0000000000e+00 -4.5593999997e+01 4.5594000000e+01 5.1100000000e-04 0.0000e+00 -1.0000e+00
       23  2    1    2    0    0 +0.0000000000e+00 +0.0000000000e+00 +0.0000000000e+00 9.1188000000e+01 9.1188000000e+01 2.6995e-16 0.0000e+00
  9900012  1    3    3    0    0 +7.6356204732e+00 +1.2805380051e+00 -4.2704575824e+01 4.7787271044e+01 2.0000000000e+01 7.5215e-02 -1.0000e+00
      -12  1    3    3    0    0 -7.6356204732e+00 -1.2805380051e+00 +4.2704575824e+01 4.3400728956e+01 0.0000000000e+00 0.0000e+00 1.0000e+00
</event>
<event>
 5      1 +2.9511900e-02 9.11880000e+01 7.81616400e-03 1.18400000e-01
      -11 -1    0    0    0    0 +0.0000000000e+00 +0.0000000000e+00 +4.5593999997e+01 4.5594000000e+01 5.1100000000e-04 0.0000e+00 1.0000e+00
       11 -1    0    0    0    0 -0.0000000000e+00 -0.0000000000e+00 -4.5593999997e+01 4.5594000000e+01 5.1100000000e-04 0.0000e+00 -1.0000e+00
       23  2    1    2    0    0 +0.0000000000e+00 +0.0000000000e+00 +0.0000000000e+00 9.1188000000e+01 9.1188000000e+01 3.8748e-14 0.0000e+00
  9900012  1    3    3    0    0 -1.8319935721e+01 +1.3527012128e+01 +3.6946219995e+01 4.7787271044e+01 2.0000000000e+01 4.8617e-02 1.0000e+00
       12  1    3    3    0    0 +1.8319935721e+01 -1.3527012128e+01 -3.6946219995e+01 4.3400728956e+01 0.0000000000e+00 0.0000e+00 -1.0000e+00
</event>
<event>
 5      5 +2.9511900e-02 9.11880000e+01 7.81616400e-03 1.18400000e-01
      -11 -1    0    0    0    0 +0.0000000000e+00 +0.0000000000e+00 +4.5593999997e+01 4.5594000000e+01 5.1100000000e-04 0.0000e+00 1.0000e+00
       11 -1    0    0    0    0 -0.0000000000e+00 -0.0000000000e+00 -4.5593999997e+01 4.5594000000e+01 5.1100000000e-04 0.0000e+00 -1.0000e+00
       23  2    1    2    0    0 +0.0000000000e+00 +0.0000000000e+00 +0.0000000000e+00 9.1188000000e+01 9.1188000000e+01 2.0215e-13 0.0000e+00
  9900012  1    3    3    0    0 +2.6335787008e+01 +2.1841137574e+01 +2.6702327727e+01 4.7787271044e+01 2.0000000000e+01 9.6912e-02 1.0000e+00
       12  1    3    3    0    0 -2.6335787008e+01 -2.1841137574e+01 -2.6702327727e+01 4.3400728956e+01 0.0000000000e+00 0.0000e+00 -1.0000e+00
</event>
<event>
 5      8 +2.9511900e-02 9.11880000e+01 7.81616400e-03 1.18400000e-01
      -11 -1    0    0    0    0 +0.0000000000e+00 +0.0000000000e+00 +4.5593999997e+01 4.5594000000e+01 5.1100000000e-04 0.0000e+00 1.0000e+00
       11 -1    0    0    0    0 -0.0000000000e+00 -0.0000000000e+00 -4.5593999997e+01 4.5594000000e+01 5.1100000000e-04 0.0000e+00 -1.0000e+00
       23  2    1    2    0    0 +0.0000000000e+00 +0.0000000000e+00 +0.0000000000e+00 9.1188000000e+01 9.1188000000e+01 1.2070e-13 0.0000e+00
  9900012  1    3    3    0    0 -2.4890862774e+01 +2.6647389205e+01 +2.3536883243e+01 4.7787271044e+01 2.0000000000e+01 1.9500e-02 -1.0000e+00
      -12  1    3    3    0    0 +2.4890862774e+01 -2.6647389205e+01 -2.3536883243e+01 4.3400728956e+01 0.0000000000e+00 0.0000e+00 1.0000e+00
</event>
<event>
 5      6 +2.9511900e-02 9.11880000e+01 7.81616400e-03 1.18400000e-01
      -11 -1    0    0    0    0 +0.0000000000e+00 +0.0000000000e+00 +4.5593999997e+01 4.5594000000e+01 5.1100000000e-04 0.0000e+00 -1.0000e+00
       11 -1    0    0    0    0 -0.0000000000e+00 -0.0000000000e+00 -4.5593999997e+01 4.5594000000e+01 5.1100000000e-04 0.0000e+00 1.0000e+00
       23  2    1    2    0    0 +0.0000000000e+00 +0.0000000000e+00 +0.0000000000e+00 9.1188000000e+01 9.1188000000e+01 2.5007e-13 0.0000e+00
  9900012  1    3    3    0    0 +4.2304618099e+01 +1.7082481241e+00 -9.5406734409e+00 4.7787271044e+01 2.0000000000e+01 9.3102e-03 -1.0000e+00
      -12  1    3    3    0    0 -4.2304618099e+01 -1.7082481241e+00 +9.5406734409e+00 4.3400728956e+01 0.0000000000e+00 0.0000e+00 1.0000e+00
</event>
<event>
 5      7 +2.9511900e-02 9.11880000e+01 7.81616400e-03 1.18400000e-01
      -11 -1    0    0    0    0 +0.0000000000e+00 +0.0000000000e+00 +4.5593999997e+01 4.5594000000e+01 5.1100000000e-04 0.0000e+00 1.0000e+00
       11 -1    0    0    0    0 -0.0000000000e+00 -0.0000000000e+00 -4.5593999997e+01 4.5594000000e+01 5.1100000000e-04 0.0000e+00 -1.0000e+00
       23  2    1    2    0    0 +0.0000000000e+00 +0.0000000000e+00 +0.0000000000e+00 9.1188000000e+01 9.1188000000e+01 1.6578e-14 0.0000e+00
  9900012  1    3    3    0    0 -1.6669466432e+01 -2.0339167526e+01 +3.4526372921e+01 4.7787271044e+01 2.0000000000e+01 5.3063e-03 1.0000e+00
       12  1    3    3    0    0 +1.6669466432e+01 +2.0339167526e+01 -3.4526372921e+01 4.3400728956e+01 0.0000000000e+00 0.0000e+00 -1.0000e+00
</event>
<event>
 5      6 +2.9511900e-02 9.11880000e+01 7.81616400e-03 1.18400000e-01
      -11 -1    0    0    0    0 +0.0000000000e+00 +0.0000000000e+00 +4.5593999997e+01 4.5594000000e+01 5.1100000000e-04 0.0000e+00 -1.0000e+00
       11 -1    0    0    0    0 -0.0000000000e+00 -0.0000000000e+00 -4.5593999997e+01 4.5594000000e+01 5.1100000000e-04 0.0000e+00 1.0000e+00
       23  2    1    2    0    0 +0.0000000000e+00 +0.0000000000e+00 +0.0000000000e+00 9.1188000000e+01 9.1188000000e+01 2.4693e-13 0.0000e+00
  9900012  1    3    3    0    0 -9.1481605153e+00 -3.7907096410e+01 -1.9052203936e+01 4.7787271044e+01 2.0000000000e+01 2.4038e-02 -1.0000e+00
      -12  1    3    3    0    0 +9.1481605153e+00 +3.7907096410e+01 +1.9052203936e+01 4.3400728956e+01 0.0000000000e+00 0.0000e+00 1.0000e+00
</event>
<event>
 5      3 +2.9511900e-02 9.11880000e+01 7.81616400e-03 1.18400000e-01
      -11 -1    0    0    0    0 +0.0000000000e+00 +0.0000000000e+00 +4.5593999997e+01 4.5594000000e+01 5.1100000000e-04 0.0000e+00 -1.0000e+00
       11 -1    0    0    0    0 -0.0000000000e+00 -0.0000000000e+00 -4.5593999997e+01 4.5594000000e+01 5.1100000000e-04 0.0000e+00 1.0000e+00
       23  2    1    2    0    0 +0.0000000000e+00 +0.0000000000e+00 +0.0000000000e+00 9.1188000000e+01 9.1188000000e+01 8.2148e-14 0.0000e+00
  9900012  1    3    3    0    0 -1.4219072007e+01 +9.9781479334e+00 -3.9772827772e+01 4.7787271044e+01 2.0000000000e+01 9.6924e-02 1.0000e+00
       12  1    3    3    0    0 +1.4219072007e+01 -9.9781479334e+00 +3.9772827772e+01 4.3400728956e+01 0.0000000000e+00 0.0000e+00 -1.0000e+00
</event>
<event>
 5      1 +2.9511900e-02 9.11880000e+01 7.81616400e-03 1.18400000e-01
      -11 -1    0    0    0    0 +0.0000000000e+00 +0.0000000000e+00 +4.5593999997e+01 4.5594000000e+01 5.1100000000e-04 0.0000e+00 -1.0000e+00
       11 -1    0    0    0    0 -0.0000000000e+00 -0.0000000000e+00 -4.5593999997e+01 4.5594000000e+01 5.1100000000e-04 0.0000e+00 1.0000e+00
       23  2    1    2    0    0 +0.0000000000e+00 +0.0000000000e+00 +0.0000000000e+00 9.1188000000e+01 9.1188000000e+01 3.5996e-13 0.0000e+00
  9900012  1    3    3    0    0 +1.4697321229e+01 +1.9146331512e+01 -3.6069793626e+01 4.7787271044e+01 2.0000000000e+01 4.5530e-02 1.0000e+00
       12  1    3    3    0    0 -1.4697321229e+01 -1.9146331512e+01 +3.6069793626e+01 4.3400728956e+01 0.0000000000e+00 0.0000e+00 -1.0000e+00
</event>
<event>
 5      8 +2.9511900e-02 9.11880000e+01 7.81616400e-03 1.18400000e-01
      -11 -1    0    0    0    0 +0.0000000000e+00 +0.0000000000e+00 +4.5593999997e+01 4.5594000000e+01 5.1100000000e-04 0.0000e+00 -1.0000e+00
       11 -1    0    0    0    0 -0.0000000000e+00 -0.0000000000e+00 -4.5593999997e+01 4.5594000000e+01 5.1100000000e-04 0.0000e+00 1.0000e+00
       23  2    1    2    0    0 +0.0000000000e+00 +0.0000000000e+00 +0.0000000000e+00 9.1188000000e+01 9.1188000000e+01 1.2106e-14 0.0000e+00
  9900012  1    3    3    0    0 +8.2183241476e+00 +2.2469907732e+01 +3.6210297825e+01 4.7787271044e+01 2.0000000000e+01 1.2479e-01 -1.0000e+00
      -12  1    3    3    0    0 -8.2183241476e+00 -2.2469907732e+01 -3.6210297825e+01 4.3400728956e+01 0.0000000000e+00 0.0000e+00 1.0000e+00
</event>
<event>
 5      2 +2.9511900e-02 9.11880000e+01 7.81616400e-03 1.18400000e-01
      -11 -1    0    0    0    0 +0.0000000000e+00 +0.0000000000e+00 +4.5593999997e+01 4.5594000000e+01 5.1100000000e-04 0.0000e+00 1.0000e+00
       11 -1    0    0    0    0 -0.0000000000e+00 -0.0000000000e+00 -4.5593999997e+01 4.5594000000e+01 5.1100000000e-04 0.0000e+00 -1.0000e+00
       23  2    1    2    0    0 +0.0000000000e+00 +0.0000000000e+00 +0.0000000000e+00 9.1188000000e+01 9.1188000000e+01 1.4623e-14 0.0000e+00
  9900012  1    3    3    0    0 -4.2888095289e+01 -2.5240701063e+00 +6.1533427044e+00 4.7787271044e+01 2.0000000000e+01 2.3274e-01 -1.0000e+00
      -12  1    3    3    0    0 +4.2888095289e+01 +2.5240701063e+00 -6.1533427044e+00 4.3400728956e+01 0.0000000000e+00 0.0000e+00 1.0000e+00
</event>
<event>
 5      2 +2.9511900e-02 9.11880000e+01 7.81616400e-03 1.18400000e-01
      -11 -1    0    0    0    0 +0.0000000000e+00 +0.0000000000e+00 +4.5593999997e+01 4.5594000000e+01 5.1100000000e-04 0.0000e+00 1.0000e+00
       11 -1    0    0    0    0 -0.0000000000e+00 -0.0000000000e+00 -4.5593999997e+01 4.5594000000e+01 5.1100000000e-04 0.0000e+00 -1.0000e+00
       23  2    1    2    0    0 +0.0000000000e+00 +0.0000000000e+00 +0.0000000000e+00 9.1188000000e+01 9.1188000000e+01 1.8195e-14 0.0000e+00
  9900012  1    3    3    0    0 -1.0759919483e+01 +3.0482963321e+01 -2.8959218804e+01 4.7787271044e+01 2.0000000000e+01 2.2611e-01 -1.0000e+00
      -12  1    3    3    0    0 +1.0759919483e+01 -3.0482963321e+01 +2.8959218804e+01 4.3400728956e+01 0.0000000000e+00 0.0000e+00 1.0000e+00
</event>
<event>
 5      3 +2.9511900e-02 9.11880000e+01 7.81616400e-03 1.18400000e-01
      -11 -1    0    0    0    0 +0.0000000000e+00 +0.0000000000e+00 +4.5593999997e+01 4.5594000000e+01 5.1100000000e-04 0.0000e+00 1.0000e+00
       11 -1    0    0    0    0 -0.0000000000e+00 -0.0000000000e+00 -4.5593999997e+01 4.5594000000e+01 5.1100000000e-04 0.0000e+00 -1.0000e+00
       23  2    1    2    0    0 +0.0000000000e+00 +0.0000000000e+00 +0.0000000000e+00 9.1188000000e+01 9.1188000000e+01 1.6315e-13 0.0000e+00
  9900012  1    3    3    0    0 +2.7263572743e+01 -1.5905905018e+01 +2.9787968389e+01 4.7787271044e+01 2.0000000000e+01 3.0445e-02 1.0000e+00
       12  1    3    3    0    0 -2.7263572743e+01 +1.5905905018e+01 -2.9787968389e+01 4.3400728956e+01 0.0000000000e+00 0.0000e+00 -1.0000e+00
</event>
<event>
 5      1 +2.9511900e-02 9.11880000e+01 7.81616400e-03 1.18400000e-01
      -11 -1    0    0    0    0 +0.0000000000e+00 +0.0000000000e+00 +4.5593999997e+01 4.5594000000e+01 5.1100000000e-04 0.0000e+00 1.0000e+00
       11 -1    0    0    0    0 -0.0000000000e+00 -0.0000000000e+00 -4.5593999997e+01 4.5594000000e+01 5.1100000000e-04 0.0000e+00 -1.0000e+00
       23  2    1    2    0    0 +0.0000000000e+00 +0.0000000000e+00 +0.0000000000e+00 9.1188000000e+01 9.1188000000e+01 7.4368e-14 0.0000e+00
  9900012  1    3    3    0    0 +2.3710241869e+01 +3.1990418438e+01 +1.7264438380e+01 4.7787271044e+01 2.0000000000e+01 1.5333e-02 1.0000e+00
       12  1    3    3    0    0 -2.3710241869e+01 -3.1990418438e+01 -1.7264438380e+01 4.3400728956e+01 0.0000000000e+00 0.0000e+00 -1.0000e+00
</event>
<event>
 5      4 +2.9511900e-02 9.11880000e+01 7.81616400e-03 1.18400000e-01
      -11 -1    0    0    0    0 +0.0000000000e+00 +0.0000000000e+00 +4.5593999997e+01 4.5594000000e+01 5.1100000000e-04 0.0000e+00 1.0000e+00
       11 -1    0    0    0    0 -0.0000000000e+00 -0.0000000000e+00 -4.5593999997e+01 4.5594000000e+01 5.1100000000e-04 0.0000e+00 -1.0000e+00
       23  2    1    2    0    0 +0.0000000000e+00 +0.0000000000e+00 +0.0000000000e+00 9.1188000000e+01 9.1188000000e+01 6.4350e-14 0.0000e+00
  9900012  1    3    3    0    0 -1.3406168496e+01 +3.7318702372e+01 -1.7641212355e+01 4.7787271044e+01 2.0000000000e+01 5.1341e-02 -1.0000e+00
      -12  1    3    3    0    0 +1.3406168496e+01 -3.7318702372e+01 +1.7641212355e+01 4.3400728956e+01 0.0000000000e+00 0.0000e+00 1.0000e+00
</event>
<event>
 5      1 +2.9511900e-02 9.11880000e+01 7.81616400e-03 1.18400000e-01
      -11 -1    0    0    0    0 +0.0000000000e+00 +0.0000000000e+00 +4.5593999997e+01 4.5594000000e+01 5.1100000000e-04 0.0000e+00 1.0000e+00
       11 -1    0    0    0    0 -0.0000000000e+00 -0.0000000000e+00 -4.5593999997e+01 4.5594000000e+01 5.1100000000e-04 0.0000e+00 -1.0000e+00
       23  2    1    2    0    0 +0.0000000000e+00 +0.0000000000e+00 +0.0000000000e+00 9.1188000000e+01 9.1188000000e+01 1.7653e-14 0.0000e+00
  9900012  1    3    3    0    0 -6.3862733137e-01 -4.3331414163e+01 -2.3672717698e+00 4.7787271044e+01 2.0000000000e+01 8.1627e-02 1.0000e+00
       12  1    3    3    0    0 +6.3862733137e-01 +4.3331414163e+01 +2.3672717698e+00 4.3400728956e+01 0.0000000000e+00 0.0000e+00 -1.0000e+00
</event>
<event>
 5      2 +2.9511900e-02 9.11880000e+01 7.81616400e-03 1.18400000e-01
      -11 -1    0    0    0    0 +0.0000000000e+00 +0.0000000000e+00 +4.5593999997e+01 4.5594000000e+01 5.1100000000e-04 0.0000e+00 1.0000e+00
       11 -1    0    0    0    0 -0.0000000000e+00 -0.0000000000e+00 -4.5593999997e+01 4.5594000000e+01 5.1100000000e-04 0.0000e+00 -1.0000e+00
       23  2    1    2    0    0 +0.0000000000e+00 +0.0000000000e+00 +0.0000000000e+00 9.1188000000e+01 9.1188000000e+01 1.4201e-13 0.0000e+00
  9900012  1    3    3    0    0 -2.5047546734e+00 -2.7705688786e+01 -3.3312824660e+01 4.7787271044e+01 2.0000000000e+01 4.6857e-01 -1.0000e+00
      -12  1    3    3    0    0 +2.5047546734e+00 +2.7705688786e+01 +3.3312824660e+01 4.3400728956e+01 0.0000000000e+00 0.0000e+00 1.0000e+00
</event>
<event>
 5      8 +2.9511900e-02 9.11880000e+01 7.81616400e-03 1.18400000e-01
      -11 -1    0    0    0    0 +0.0000000000e+00 +0.0000000000e+00 +4.5593999997e+01 4.5594000000e+01 5.1100000000e-04 0.0000e+00 1.0000e+00
       11 -1    0    0    0    0 -0.0000000000e+00 -0.0000000000e+00 -4.5593999997e+01 4.5594000000e+01 5.1100000000e-04 0.0000e+00 -1.0000e+00
       23  2    1    2    0    0 +0.0000000000e+00 +0.0000000000e+00 +0.0000000000e+00 9.1188000000e+01 9.1188000000e+01 2.4696e-15 0.0000e+00
  9900012  1    3    3    0    0 +2.9117914038e+01 -2.7433631580e+01 -1.6827543321e+01 4.7787271044e+01 2.0000000000e+01 1.9379e-01 -1.0000e+00
      -12  1    3    3    0    0 -2.9117914038e+01 +2.7433631580e+01 +1.6827543321e+01 4.3400728956e+01 0.0000000000e+00 0.0000e+00 1.0000e+00
</event>
<event>
 5      5 +2.9511900e-02 9.11880000e+01 7.81616400e-03 1.18400000e-01
      -11 -1    0    0    0    0 +0.0000000000e+00 +0.0000000000e+00 +4.5593999997e+01 4.5594000000e+01 5.1100000000e-04 0.0000e+00 -1.0000e+00
       11 -1    0    0    0    0 -0.0000000000e+00 -0.0000000000e+00 -4.5593999997e+01 4.5594000000e+01 5.1100000000e-04 0.0000e+00 1.0000e+00
       23  2    1    2    0    0 +0.0000000000e+00 +0.0000000000e+00 +0.0000000000e+00 9.1188000000e+01 9.1188000000e+01 3.0935e-13 0.0000e+00
  9900012  1    3    3    0    0 -4.5455183914e+00 +3.8590670783e+01 -1.9331882086e+01 4.7787271044e+01 2.0000000000e+01 3.4306e-02 1.0000e+00
       12  1    3    3    0    0 +4.5455183914e+00 -3.8590670783e+01 +1.9331882086e+01 4.3400728956e+01 0.0000000000e+00 0.0000e+00 -1.0000e+00
</event>
<event>
 5      4 +2.9511900e-02 9.11880000e+01 7.81616400e-03 1.18400000e-01
      -11 -1    0    0    0    0 +0.0000000000e+00 +0.0000000000e+00 +4.5593999997e+01 4.5594000000e+01 5.1100000000e-04 0.0000e+00 -1.0000e+00
       11 -1    0    0    0    0 -0.0000000000e+00 -0.0000000000e+00 -4.5593999997e+01 4.5594000000e+01 5.1100000000e-04 0.0000e+00 1.0000e+00
       23  2    1    2    0    0 +0.0000000000e+00 +0.0000000000e+00 +0.0000000000e+00 9.1188000000e+01 9.1188000000e+01 9.6962e-15 0.0000e+00
  9900012  1    3    3    0    0 -1.7177506665e+01 +3.4069096498e+01 +2.0684612697e+01 4.7787271044e+01 2.0000000000e+01 4.5105e-03 -1.0000e+00
      -12  1    3    3    0    0 +1.7177506665e+01 -3.4069096498e+01 -2.0684612697e+01 4.3400728956e+01 0.0000000000e+00 0.0000e+00 1.0000e+00
</event>
<event>
 5      1 +2.9511900e-02 9.11880000e+01 7.81616400e-03 1.18400000e-01
      -11 -1    0    0    0    0 +0.0000000000e+00 +0.0000000000e+00 +4.5593999997e+01 4.5594000000e+01 5.1100000000e-04 0.0000e+00 1.0000e+00
       11 -1    0    0    0    0 -0.0000000000e+00 -0.0000000000e+00 -4.5593999997e+01 4.5594000000e+01 5.1100000000e-04 0.0000e+00 -1.0000e+00
       23  2    1    2    0    0 +0.0000000000e+00 +0.0000000000e+00 +0.0000000000e+00 9.1188000000e+01 9.1188000000e+01 1.0861e-13 0.0000e+00
  9900012  1    3    3    0    0 +1.2760756298e+01 +4.1257046692e+01 +4.3176927690e+00 4.7787271044e+01 2.0000000000e+01 1.0429e-02 1.0000e+00
       12  1    3    3    0    0 -1.2760756298e+01 -4.1257046692e+01 -4.3176927690e+00 4.3400728956e+01 0.0000000000e+00 0.0000e+00 -1.0000e+00
</event>
<event>
 5      3 +2.9511900e-02 9.11880000e+01 7.81616400e-03 1.18400000e-01
      -11 -1    0    0    0    0 +0.0000000000e+00 +0.0000000000e+00 +4.5593999997e+01 4.5594000000e+01 5.1100000000e-04 0.0000e+00 1.0000e+00
       11 -1    0    0    0    0 -0.0000000000e+00 -0.0000000000e+00 -4.5593999997e+01 4.5594000000e+01 5.1100000000e-04 0.0000e+00 -1.0000e+00
       23  2    1    2    0    0 +0.0000000000e+00 +0.0000000000e+00 +0.0000000000e+00 9.1188000000e+01 9.1188000000e+01 6.2000e-15 0.0000e+00
  9900012  1    3    3    0    0 +9.9186048674e+00 +2.5055697670e+01 +3.4021413340e+01 4.7787271044e+01 2.0000000000e+01 2.7502e-02 1.0000e+00
       12  1    3    3    0    0 -9.9186048674e+00 -2.5055697670e+01 -3.4021413340e+01 4.3400728956e+01 0.0000000000e+00 0.0000e+00 -1.0000e+00
</event>
<event>
 5      2 +2.9511900e-02 9.11880000e+01 7.81616400e-03 1.18400000e-01
      -11 -1    0    0    0    0 +0.0000000000e+00 +0.0000000000e+00 +4.5593999997e+01 4.5594000000e+01 5.1100000000e-04 0.0000e+00 -1.0000e+00
       11 -1    0    0    0    0 -0.0000000000e+00 -0.0000000000e+00 -4.5593999997e+01 4.5594000000e+01 5.1100000000e-04 0.0000e+00 1.0000e+00
       23  2    1    2    0    0 +0.0000000000e+00 +0.0000000000e+00 +0.0000000000e+00 9.1188000000e+01 9.1188000000e+01 2.3034e-14 0.0000e+00
  9900012  1    3    3    0    0 -1.1508830387e+01 +2.9169438722e+01 +3.0005231904e+01 4.7787271044e+01 2.0000000000e+01 9.6289e-03 -1.0000e+00
      -12  1    3    3    0    0 +1.1508830387e+01 -2.9169438722e+01 -3.0005231904e+01 4.3400728956e+01 0.0000000000e+00 0.0000e+00 1.0000e+00
</event>
<event>
 5      2 +2.9511900e-02 9.11880000e+01 7.81616400e-03 1.18400000e-01
      -11 -1    0    0    0    0 +0.0000000000e+00 +0.0000000000e+00 +4.5593999997e+01 4.5594000000e+01 5.1100000000e-04 0.0000e+00 -1.0000e+00
       11 -1    0    0    0    0 -0.0000000000e+00 -0.0000000000e+00 -4.5593999997e+01 4.5594000000e+01 5.1100000000e-04 0.0000e+00 1.0000e+00
       23  2    1    2    0    0 +0.0000000000e+00 +0.0000000000e+00 +0.0000000000e+00 9.1188000000e+01 9.1188000000e+01 9.9431e-15 0.0000e+00
  9900012  1    3    3    0    0 -1.9590810372e+01 +3.1197045244e+01 +2.2947064974e+01 4.7787271044e+01 2.0000000000e+01 2.0124e-02 -1.0000e+00
      -12  1    3    3    0    0 +1.9590810372e+01 -3.1197045244e+01 -2.2947064974e+01 4.3400728956e+01 0.0000000000e+00 0.0000e+00 1.0000e+00
</event>
<event>
 5      5 +2.9511900e-02 9.11880000e+01 7.81616400e-03 1.18400000e-01
      -11 -1    0    0    0    0 +0.0000000000e+00 +0.0000000000e+00 +4.5593999997e+01 4.5594000000e+01 5.1100000000e-04 0.0000e+00 -1.0000e+00
       11 -1    0    0    0    0 -0.0000000000e+00 -0.0000000000e+00 -4.5593999997e+01 4.5594000000e+01 5.1100000000e-04 0.0000e+00 1.0000e+00
       23  2    1    2    0    0 +0.0000000000e+00 +0.0000000000e+00 +0.0000000000e+00 9.1188000000e+01 9.1188000000e+01 2.3235e-14 0.0000e+00
  9900012  1    3    3    0    0 -1.6850447324e+01 -3.8032319520e+01 -1.2378544778e+01 4.7787271044e+01 2.0000000000e+01 5.7597e-02 1.0000e+00
       12  1    3    3    0    0 +1.6850447324e+01 +3.8032319520e+01 +1.2378544778e+01 4.3400728956e+01 0.0000000000e+00 0.0000e+00 -1.0000e+00
</event>
<event>
 5      5 +2.9511900e-02 9.11880000e+01 7.81616400e-03 1.18400000e-01
      -11 -1    0    0    0    0 +0.0000000000e+00 +0.0000000000e+00 +4.5593999997e+01 4.5594000000e+01 5.1100000000e-04 0.0000e+00 1.0000e+00
       11 -1    0    0    0    0 -0.0000000000e+00 -0.0000000000e+00 -4.5593999997e+01 4.5594000000e+01 5.1100000000e-04 0.0000e+00 -1.0000e+00
       23  2    1    2    0    0 +0.0000000000e+00 +0.0000000000e+00 +0.0000000000e+00 9.1188000000e+01 9.1188000000e+01 3.8931e-14 0.0000e+00
  9900012  1    3    3    0    0 +2.5024778383e+01 +3.5446587260e+01 -9.6082901574e-01 4.7787271044e+01 2.0000000000e+01 9.3881e-02 1.0000e+00
       12  1    3    3    0    0 -2.5024778383e+01 -3.5446587260e+01 +9.6082901574e-01 4.3400728956e+01 0.0000000000e+00 0.0000e+00 -1.0000e+00
</event>
<event>
 5      2 +2.9511900e-02 9.11880000e+01 7.81616400e-03 1.18400000e-01
      -11 -1    0    0    0    0 +0.0000000000e+00 +0.0000000000e+00 +4.5593999997e+01 4.5594000000e+01 5.1100000000e-04 0.0000e+00 -1.0000e+00
       11 -1    0    0    0    0 -0.0000000000e+00 -0.0000000000e+00 -4.5593999997e+01 4.5594000000e+01 5.1100000000e-04 0.0000e+00 1.0000e+00
       23  2    1    2    0    0 +0.0000000000e+00 +0.0000000000e+00 +0.0000000000e+00 9.1188000000e+01 9.1188000000e+01 2.5680e-14 0.0000e+00
  9900012  1    3    3    0    0 -1.8184262486e+01 +1.4438072882e+01 +3.6667395915e+01 4.7787271044e+01 2.0000000000e+01 8.2005e-02 -1.0000e+00
      -12  1    3    3    0    0 +1.8184262486e+01 -1.4438072882e+01 -3.6667395915e+01 4.3400728956e+01 0.0000000000e+00 0.0000e+00 1.0000e+00
</event>
<event>
 5      3 +2.9511900e-02 9.11880000e+01 7.81616400e-03 1.18400000e-01
      -11 -1    0    0    0    0 +0.0000000000e+00 +0.0000000000e+00 +4.5593999997e+01 4.5594000000e+01 5.1100000000e-04 0.0000e+00 -1.0000e+00
       11 -1    0    0    0    0 -0.0000000000e+00 -0.0000000000e+00 -4.5593999997e+01 4.5594000000e+01 5.1100000000e-04 0.0000e+00 1.0000e+00
       23  2    1    2    0    0 +0.0000000000e+00 +0.0000000000e+00 +0.0000000000e+00 9.1188000000e+01 9.1188000000e+01 3.9899e-16 0.0000e+00
  9900012  1    3    3    0    0 +1.1814606825e+01 -1.9961270602e+00 -4.1713952297e+01 4.7787271044e+01 2.0000000000e+01 1.0190e-01 1.0000e+00
       12  1    3    3    0    0 -1.1814606825e+01 +1.9961270602e+00 +4.1713952297e+01 4.3400728956e+01 0.0000000000e+00 0.0000e+00 -1.0000e+00
</event>
<event>
 5      2 +2.9511900e-02 9.11880000e+01 7.81616400e-03 1.18400000e-01
      -11 -1    0    0    0    0 +0.0000000000e+00 +0.0000000000e+00 +4.5593999997e+01 4.5594000000e+01 5.1100000000e-04 0.0000e+00 1.0000e+00
       11 -1    0    0    0    0 -0.0000000000e+00 -0.0000000000e+00 -4.5593999997e+01 4.5594000000e+01 5.1100000000e-04 0.0000e+00 -1.0000e+00
       23  2    1    2    0    0 +0.0000000000e+00 +0.0000000000e+00 +0.0000000000e+00 9.1188000000e+01 9.1188000000e+01 8.1027e-14 0.0000e+00
  9900012  1    3    3    0    0 -2.0799877946e+01 -6.9991621067e+00 -3.7443291537e+01 4.7787271044e+01 2.0000000000e+01 6.9210e-02 -1.0000e+00
      -12  1    3    3    0    0 +2.0799877946e+01 +6.9991621067e+00 +3.7443291537e+01 4.3400728956e+01 0.0000000000e+00 0.0000e+00 1.0000e+00
</event>
<event>
 5      3 +2.9511900e-02 9.11880000e+01 7.81616400e-03 1.18400000e-01
      -11 -1    0    0    0    0 +0.0000000000e+00 +0.0000000000e+00 +4.5593999997e+01 4.5594000000e+01 5.1100000000e-04 0.0000e+00 -1.0000e+00
       11 -1    0    0    0    0 -0.0000000000e+00 -0.0000000000e+00 -4.5593999997e+01 4.5594000000e+01 5.1100000000e-04 0.0000e+00 1.0000e+00
       23  2    1    2    0    0 +0.0000000000e+00 +0.0000000000e+00 +0.0000000000e+00 9.1188000000e+01 9.1188000000e+01 2.3896e-14 0.0000e+00
  9900012  1    3    3    0    0 -3.1094204012e+01 +2.3883083971e+01 -1.8611073338e+01 4.7787271044e+01 2.0000000000e+01 3.6803e-03 1.0000e+00
       12  1    3    3    0    0 +3.1094204012e+01 -2.3883083971e+01 +1.8611073338e+01 4.3400728956e+01 0.0000000000e+00 0.0000e+00 -1.0000e+00
</event>
<event>
 5      4 +2.9511900e-02 9.11880000e+01 7.81616400e-03 1.18400000e-01
      -11 -1    0    0    0    0 +0.0000000000e+00 +0.0000000000e+00 +4.5593999997e+01 4.5594000000e+01 5.1100000000e-04 0.0000e+00 1.0000e+00
       11 -1    0    0    0    0 -0.0000000000e+00 -0.0000000000e+00 -4.5593999997e+01 4.5594000000e+01 5.1100000000e-04 0.0000e+00 -1.0000e+00
       23  2    1    2    0    0 +0.0000000000e+00 +0.0000000000e+00 +0.0000000000e+00 9.1188000000e+01 9.1188000000e+01 1.5222e-14 0.0000e+00
  9900012  1    3    3    0    0 -3.0462700139e+01 +2.5836872526e+01 +1.6973602805e+01 4.7787271044e+01 2.0000000000e+01 1.2933e-02 -1.0000e+00
      -12  1    3    3    0    0 +3.0462700139e+01 -2.5836872526e+01 -1.6973602805e+01 4.3400728956e+01 0.0000000000e+00 0.0000e+00 1.0000e+00
</event>
<event>
 5      1 +2.9511900e-02 9.11880000e+01 7.81616400e-03 1.18400000e-01
      -11 -1    0    0    0    0 +0.0000000000e+00 +0.0000000000e+00 +4.5593999997e+01 4.5594000000e+01 5.1100000000e-04 0.0000e+00 1.0000e+00
       11 -1    0    0    0    0 -0.0000000000e+00 -0.0000000000e+00 -4.5593999997e+01 4.5594000000e+01 5.1100000000e-04 0.0000e+00 -1.0000e+00
       23  2    1    2    0    0 +0.0000000000e+00 +0.0000000000e+00 +0.0000000000e+00 9.1188000000e+01 9.1188000000e+01 1.0266e-14 0.0000e+00
  9900012  1    3    3    0    0 -1.8923913992e+01 -2.3674487507e+01 -3.1064890059e+01 4.7787271044e+01 2.0000000000e+01 1.5111e-01 1.0000e+00
       12  1    3    3    0    0 +1.8923913992e+01 +2.3674487507e+01 +3.1064890059e+01 4.3400728956e+01 0.0000000000e+00 0.0000e+00 -1.0000e+00
</event>
<event>
 5      2 +2.9511900e-02 9.11880000e+01 7.81616400e-03 1.18400000e-01
      -11 -1    0    0    0    0 +0.0000000000e+00 +0.0000000000e+00 +4.5593999997e+01 4.5594000000e+01 5.1100000000e-04 0.0000e+00 -1.0000e+00
       11 -1    0    0    0    0 -0.0000000000e+00 -0.0000000000e+00 -4.5593999997e+01 4.5594000000e+01 5.1100000000e-04 0.0000e+00 1.0000e+00
       23  2    1    2    0    0 +0.0000000000e+00 +0.0000000000e+00 +0.0000000000e+00 9.1188000000e+01 9.1188000000e+01 2.3145e-13 0.0000e+00
  9900012  1    3    3    0    0 +1.6019153614e+01 -1.6096303574e+01 +3.6985389042e+01 4.7787271044e+01 2.0000000000e+01 1.1885e-01 -1.0000e+00
      -12  1    3    3    0    0 -1.6019153614e+01 +1.6096303574e+01 -3.6985389042e+01 4.3400728956e+01 0.0000000000e+00 0.0000e+00 1.0000e+00
</event>
<event>
 5      4 +2.9511900e-02 9.11880000e+01 7.81616400e-03 1.18400000e-01
      -11 -1    0    0    0    0 +0.0000000000e+00 +0.0000000000e+00 +4.5593999997e+01 4.5594000000e+01 5.1100000000e-04 0.0000e+00 1.0000e+00
       11 -1    0    0    0    0 -0.0000000000e+00 -0.0000000000e+00 -4.5593999997e+01 4.5594000000e+01 5.1100000000e-04 0.0000e+00 -1.0000e+00
       23  2    1    2    0    0 +0.0000000000e+00 +0.0000000000e+00 +0.0000000000e+00 9.1188000000e+01 9.1188000000e+01 9.8868e-14 0.0000e+00
  9900012  1    3    3    0    0 -5.3197215994e+00 -2.3318112777e+01 -3.6215872936e+01 4.7787271044e+01 2.0000000000e+01 1.4890e-01 -1.0000e+00
      -12  1    3    3    0    0 +5.3197215994e+00 +2.3318112777e+01 +3.6215872936e+01 4.3400728956e+01 0.0000000000e+00 0.0000e+00 1.0000e+00
</event>
<event>
 5      6 +2.9511900e-02 9.11880000e+01 7.81616400e-03 1.18400000e-01
      -11 -1    0    0    0    0 +0.0000000000e+00 +0.0000000000e+00 +4.5593999997e+01 4.5594000000e+01 5.1100000000e-04 0.0000e+00 -1.0000e+00
       11 -1    0    0    0    0 -0.0000000000e+00 -0.0000000000e+00 -4.5593999997e+01 4.5594000000e+01 5.1100000000e-04 0.0000e+00 1.0000e+00
       23  2    1    2    0    0 +0.0000000000e+00 +0.0000000000e+00 +0.0000000000e+00 9.1188000000e+01 9.1188000000e+01 1.2666e-13 0.0000e+00
  9900012  1    3    3    0    0 -2.3035737469e+01 +2.5401693023e+00 +3.6695035264e+01 4.7787271044e+01 2.0000000000e+01 3.4661e-01 -1.0000e+00
      -12  1    3    3    0    0 +2.3035737469e+01 -2.5401693023e+00 -3.6695035264e+01 4.3400728956e+01 0.0000000000e+00 0.0000e+00 1.0000e+00
</event>
<event>
 5      1 +2.9511900e-02 9.11880000e+01 7.81616400e-03 1.18400000e-01
      -11 -1    0    0    0    0 +0.0000000000e+00 +0.0000000000e+00 +4.5593999997e+01 4.5594000000e+01 5.1100000000e-04 0.0000e+00 1.0000e+00
       11 -1    0    0    0    0 -0.0000000000e+00 -0.0000000000e+00 -4.5593999997e+01 4.5594000000e+01 5.1100000000e-04 0.0000e+00 -1.0000e+00
       23  2    1    2    0    0 +0.0000000000e+00 +0.0000000000e+00 +0.0000000000e+00 9.1188000000e+01 9.1188000000e+01 1.7170e-14 0.0000e+00
  9900012  1    3    3    0    0 +3.1391111476e+01 +5.1858630581e-01 +2.9965854942e+01 4.7787271044e+01 2.0000000000e+01 1.8927e-02 1.0000e+00
       12  1    3    3    0    0 -3.1391111476e+01 -5.1858630581e-01 -2.9965854942e+01 4.3400728956e+01 0.0000000000e+00 0.0000e+00 -1.0000e+00
</event>
<event>
 5      3 +2.9511900e-02 9.11880000e+01 7.81616400e-03 1.18400000e-01
      -11 -1    0    0    0    0 +0.0000000000e+00 +0.0000000000e+00 +4.5593999997e+01 4.5594000000e+01 5.1100000000e-04 0.0000e+00 -1.0000e+00
       11 -1    0    0    0    0 -0.0000000000e+00 -0.0000000000e+00 -4.5593999997e+01 4.5594000000e+01 5.1100000000e-04 0.0000e+00 1.0000e+00
       23  2    1    2    0    0 +0.0000000000e+00 +0.0000000000e+00 +0.0000000000e+00 9.1188000000e+01 9.1188000000e+01 2.1406e-13 0.0000e+00
  9900012  1    3    3    0    0 +3.3732279815e+01 +1.3743807402e+00 -2.7273937192e+01 4.7787271044e+01 2.0000000000e+01 6.9659e-02 1.0000e+00
       12  1    3    3    0    0 -3.3732279815e+01 -1.3743807402e+00 +2.7273937192e+01 4.3400728956e+01 0.0000000000e+00 0.0000e+00 -1.0000e+00
</event>
<event>
 5      8 +2.9511900e-02 9.11880000e+01 7.81616400e-03 1.18400000e-01
      -11 -1    0    0    0    0 +0.0000000000e+00 +0.0000000000e+00 +4.5593999997e+01 4.5594000000e+01 5.1100000000e-04 0.0000e+00 1.0000e+00
       11 -1    0    0    0    0 -0.0000000000e+00 -0.0000000000e+00 -4.5593999997e+01 4.5594000000e+01 5.1100000000e-04 0.0000e+00 -1.0000e+00
       23  2    1    2    0    0 +0.0000000000e+00 +0.0000000000e+00 +0.0000000000e+00 9.1188000000e+01 9.1188000000e+01 6.3718e-14 0.0000e+00
  9900012  1    3    3    0    0 -7.7516843114e+00 -2.8531814522e+01 -3.1772161152e+01 4.7787271044e+01 2.0000000000e+01 1.1617e-01 -1.0000e+00
      -12  1    3    3    0    0 +7.7516843114e+00 +2.8531814522e+01 +3.1772161152e+01 4.3400728956e+01 0.0000000000e+00 0.0000e+00 1.0000e+00
</event>
<event>
 5      3 +2.9511900e-02 9.11880000e+01 7.81616400e-03 1.18400000e-01
      -11 -1    0    0    0    0 +0.0000000000e+00 +0.0000000000e+00 +4.5593999997e+01 4.5594000000e+01 5.1100000000e-04 0.0000e+00 1.0000e+00
       11 -1    0    0    0    0 -0.0000000000e+00 -0.0000000000e+00 -4.5593999997e+01 4.5594000000e+01 5.1100000000e-04 0.0000e+00 -1.0000e+00
       23  2    1    2    0    0 +0.0000000000e+00 +0.0000000000e+00 +0.0000000000e+00 9.1188000000e+01 9.1188000000e+01 7.7384e-16 0.0000e+00
  9900012  1    3    3    0    0 -1.9258079379e+00 +3.9296618804e+01 +1.8321852750e+01 4.7787271044e+01 2.0000000000e+01 7.8293e-03 1.0000e+00
       12  1    3    3    0    0 +1.9258079379e+00 -3.9296618804e+01 -1.8321852750e+01 4.3400728956e+01 0.0000000000e+00 0.0000e+00 -1.0000e+00
</event>
<event>
 5      5 +2.9511900e-02 9.11880000e+01 7.81616400e-03 1.18400000e-01
      -11 -1    0    0    0    0 +0.0000000000e+00 +0.0000000000e+00 +4.5593999997e+01 4.5594000000e+01 5.1100000000e-04 0.0000e+00 1.0000e+00
       11 -1    0    0    0    0 -0.0000000000e+00 -0.0000000000e+00 -4.5593999997e+01 4.5594000000e+01 5.1100000000e-04 0.0000e+00 -1.0000e+00
       23  2    1    2    0    0 +0.0000000000e+00 +0.0000000000e+00 +0.0000000000e+00 9.1188000000e+01 9.1188000000e+01 2.0049e-13 0.0000e+00
  9900012  1    3    3    0    0 -1.0443903818e+01 +3.0695589232e+01 +2.8850111761e+01 4.7787271044e+01 2.0000000000e+01 1.2742e-01 1.0000e+00
       12  1    3    3    0    0 +1.0443903818e+01 -3.0695589232e+01 -2.8850111761e+01 4.3400728956e+01 0.0000000000e+00 0.0000e+00 -1.0000e+00
</event>
<event>
 5      8 +2.9511900e-02 9.11880000e+01 7.81616400e-03 1.18400000e-01
      -11 -1    0    0    0    0 +0.0000000000e+00 +0.0000000000e+00 +4.5593999997e+01 4.5594000000e+01 5.1100000000e-04 0.0000e+00 1.0000e+00
       11 -1    0    0    0    0 -0.0000000000e+00 -0.0000000000e+00 -4.5593999997e+01 4.5594000000e+01 5.1100000000e-04 0.0000e+00 -1.0000e+00
       23  2    1    2    0    0 +0.0000000000e+00 +0.0000000000e+00 +0.0000000000e+00 9.1188000000e+01 9.1188000000e+01 5.2129e-14 0.0000e+00
  9900012  1    3    3    0    0 +4.4267690832e+00 -3.8014697861e+01 -2.0467284527e+01 4.7787271044e+01 2.0000000000e+01 7.0327e-02 -1.0000e+00
      -12  1    3    3    0    0 -4.4267690832e+00 +3.8014697861e+01 +2.0467284527e+01 4.3400728956e+01 0.0000000000e+00 0.0000e+00 1.0000e+00
</event>
<event>
 5      4 +2.9511900e-02 9.11880000e+01 7.81616400e-03 1.18400000e-01
      -11 -1    0    0    0    0 +0.0000000000e+00 +0.0000000000e+00 +4.5593999997e+01 4.5594000000e+01 5.1100000000e-04 0.0000e+00 1.0000e+00
       11 -1    0    0    0    0 -0.0000000000e+00 -0.0000000000e+00 -4.5593999997e+01 4.5594000000e+01 5.1100000000e-04 0.0000e+00 -1.0000e+00
       23  2    1    2    0    0 +0.0000000000e+00 +0.0000000000e+00 +0.0000000000e+00 9.1188000000e+01 9.1188000000e+01 2.1372e-14 0.0000e+00
  9900012  1    3    3    0    0 -2.7213694531e+01 -1.7351335071e+01 -2.9016706828e+01 4.7787271044e+01 2.0000000000e+01 7.8602e-02 -1.0000e+00
      -12  1    3    3    0    0 +2.7213694531e+01 +1.7351335071e+01 +2.9016706828e+01 4.3400728956e+01 0.0000000000e+00 0.0000e+00 1.0000e+00
</event>
<event>
 5      8 +2.9511900e-02 9.11880000e+01 7.81616400e-03 1.18400000e-01
      -11 -1    0    0    0    0 +0.0000000000e+00 +0.0000000000e+00 +4.5593999997e+01 4.5594000000e+01 5.1100000000e-04 0.0000e+00 1.0000e+00
       11 -1    0    0    0    0 -0.0000000000e+00 -0.0000000000e+00 -4.5593999997e+01 4.5594000000e+01 5.1100000000e-04 0.0000e+00 -1.0000e+00
       23  2    1    2    0    0 +0.0000000000e+00 +0.0000000000e+00 +0.0000000000e+00 9.1188000000e+01 9.1188000000e+01 3.5545e-14 0.0000e+00
  9900012  1    3    3    0    0 +2.0102820054e+01 -1.7234555080e+01 -3.4387061679e+01 4.7787271044e+01 2.0000000000e+01 2.8789e-01 -1.0000e+00
      -12  1    3    3    0    0 -2.0102820054e+01 +1.7234555080e+01 +3.4387061679e+01 4.3400728956e+01 0.0000000000e+00 0.0000e+00 1.0000e+00
</event>
<event>
 5      4 +2.9511900e-02 9.11880000e+01 7.81616400e-03 1.18400000e-01
      -11 -1    0    0    0    0 +0.0000000000e+00 +0.0000000000e+00 +4.5593999997e+01 4.5594000000e+01 5.1100000000e-04 0.0000e+00 1.0000e+00
       11 -1    0    0    0    0 -0.0000000000e+00 -0.0000000000e+00 -4.5593999997e+01 4.5594000000e+01 5.1100000000e-04 0.0000e+00 -1.0000e+00
       23  2    1    2    0    0 +0.0000000000e+00 +0.0000000000e+00 +0.0000000000e+00 9.1188000000e+01 9.1188000000e+01 2.5636e-14 0.0000e+00
  9900012  1    3    3    0    0 +4.1915416720e+01 +3.1975778102e+00 +1.0793359590e+01 4.7787271044e+01 2.0000000000e+01 1.4042e-02 -1.0000e+00
      -12  1    3    3    0    0 -4.1915416720e+01 -3.1975778102e+00 -1.0793359590e+01 4.3400728956e+01 0.0000000000e+00 0.0000e+00 1.0000e+00
</event>
<event>
 5      6 +2.9511900e-02 9.11880000e+01 7.81616400e-03 1.18400000e-01
      -11 -1    0    0    0    0 +0.0000000000e+00 +0.0000000000e+00 +4.5593999997e+01 4.5594000000e+01 5.1100000000e-04 0.0000e+00 1.0000e+00
       11 -1    0    0    0    0 -0.0000000000e+00 -0.0000000000e+00 -4.5593999997e+01 4.5594000000e+01 5.1100000000e-04 0.0000e+00 -1.0000e+00
       23  2    1    2    0    0 +0.0000000000e+00 +0.0000000000e+00 +0.0000000000e+00 9.1188000000e+01 9.1188000000e+01 4.0206e-14 0.0000e+00
  9900012  1    3    3    0    0 -2.3186459209e+01 -2.7705461242e+01 -2.4050338887e+01 4.7787271044e+01 2.0000000000e+01 2.7724e-01 -1.0000e+00
      -12  1    3    3    0    0 +2.3186459209e+01 +2.7705461242e+01 +2.4050338887e+01 4.3400728956e+01 0.0000000000e+00 0.0000e+00 1.0000e+00
</event>
<event>
 5      2 +2.9511900e-02 9.11880000e+01 7.81616400e-03 1.18400000e-01
      -11 -1    0    0    0    0 +0.0000000000e+00 +0.0000000000e+00 +4.5593999997e+01 4.5594000000e+01 5.1100000000e-04 0.0000e+00 1.0000e+00
       11 -1    0    0    0    0 -0.0000000000e+00 -0.0000000000e+00 -4.5593999997e+01 4.5594000000e+01 5.1100000000e-04 0.0000e+00 -1.0000e+00
       23  2    1    2    0    0 +0.0000000000e+00 +0.0000000000e+00 +0.0000000000e+00 9.1188000000e+01 9.1188000000e+01 1.0246e-13 0.0000e+00
  9900012  1    3    3    0    0 +1.9828512387e+01 +2.8894419779e+01 -2.5604020700e+01 4.7787271044e+01 2.0000000000e+01 9.3621e-02 -1.0000e+00
      -12  1    3    3    0    0 -1.9828512387e+01 -2.8894419779e+01 +2.5604020700e+01 4.3400728956e+01 0.0000000000e+00 0.0000e+00 1.0000e+00
</event>
<event>
 5      8 +2.9511900e-02 9.11880000e+01 7.81616400e-03 1.18400000e-01
      -11 -1    0    0    0    0 +0.0000000000e+00 +0.0000000000e+00 +4.5593999997e+01 4.5594000000e+01 5.1100000000e-04 0.0000e+00 1.0000e+00
       11 -1    0    0    0    0 -0.0000000000e+00 -0.0000000000e+00 -4.5593999997e+01 4.5594000000e+01 5.1100000000e-04 0.0000e+00 -1.0000e+00
       23  2    1    2    0    0 +0.0000000000e+00 +0.0000000000e+00 +0.0000000000e+00 9.1188000000e+01 9.1188000000e+01 4.2226e-14 0.0000e+00
  9900012  1    3    3    0    0 +2.1733681613e+01 +3.7065166401e+01 +6.1191336865e+00 4.7787271044e+01 2.0000000000e+01 2.0579e-01 -1.0000e+00
      -12  1    3    3    0    0 -2.1733681613e+01 -3.7065166401e+01 -6.1191336865e+00 4.3400728956e+01 0.0000000000e+00 0.0000e+00 1.0000e+00
</event>
<event>
 5      6 +2.9511900e-02 9.11880000e+01 7.81616400e-03 1.18400000e-01
      -11 -1    0    0    0    0 +0.0000000000e+00 +0.0000000000e+00 +4.5593999997e+01 4.5594000000e+01 5.1100000000e-04 0.0000e+00 -1.0000e+00
       11 -1    0    0    0    0 -0.0000000000e+00 -0.0000000000e+00 -4.5593999997e+01 4.5594000000e+01 5.1100000000e-04 0.0000e+00 1.0000e+00
       23  2    1    2    0    0 +0.0000000000e+00 +0.0000000000e+00 +0.0000000000e+00 9.1188000000e+01 9.1188000000e+01 1.3427e-13 0.0000e+00
  9900012  1    3    3    0    0 +4.4449413874e+00 +2.8839855418e+01 +3.2126756907e+01 4.7787271044e+01 2.0000000000e+01 7.4419e-02 -1.0000e+00
      -12  1    3    3    0    0 -4.4449413874e+00 -2.8839855418e+01 -3.2126756907e+01 4.3400728956e+01 0.0000000000e+00 0.0000e+00 1.0000e+00
</event>
<event>
 5      8 +2.9511900e-02 9.11880000e+01 7.81616400e-03 1.18400000e-01
      -11 -1    0    0    0    0 +0.0000000000e+00 +0.0000000000e+00 +4.5593999997e+01 4.5594000000e+01 5.1100000000e-04 0.0000e+00 -1.0000e+00
       11 -1    0    0    0    0 -0.0000000000e+00 -0.0000000000e+00 -4.5593999997e+01 4.5594000000e+01 5.1100000000e-04 0.0000e+00 1.0000e+00
       23  2    1    2    0    0 +0.0000000000e+00 +0.0000000000e+00 +0.0000000000e+00 9.1188000000e+01 9.1188000000e+01 1.2792e-13 0.0000e+00
  9900012  1    3    3    0    0 +4.2400137509e+01 +9.2388873765e+00 -7.0325896981e-01 4.7787271044e+01 2.0000000000e+01 6.1794e-03 -1.0000e+00
      -12  1    3    3    0    0 -4.2400137509e+01 -9.2388873765e+00 +7.0325896981e-01 4.3400728956e+01 0.0000000000e+00 0.0000e+00 1.0000e+00
</event>
<event>
 5      1 +2.9511900e-02 9.11880000e+01 7.81616400e-03 1.18400000e-01
      -11 -1    0    0    0    0 +0.0000000000e+00 +0.0000000000e+00 +4.5593999997e+01 4.5594000000e+01 5.1100000000e-04 0.0000e+00 1.0000e+00
       11 -1    0    0    0    0 -0.0000000000e+00 -0.0000000000e+00 -4.5593999997e+01 4.5594000000e+01 5.1100000000e-04 0.0000e+00 -1.0000e+00
       23  2    1    2    0    0 +0.0000000000e+00 +0.0000000000e+00 +0.0000000000e+00 9.1188000000e+01 9.1188000000e+01 1.1800e-13 0.0000e+00
  9900012  1    3    3    0    0 +1.2382212438e+01 -1.2575248182e+01 +3.9650563958e+01 4.7787271044e+01 2.0000000000e+01 2.3542e-01 1.0000e+00
       12  1    3    3    0    0 -1.2382212438e+01 +1.2575248182e+01 -3.9650563958e+01 4.3400728956e+01 0.0000000000e+00 0.0000e+00 -1.0000e+00
</event>
<event>
 5      3 +2.9511900e-02 9.11880000e+01 7.81616400e-03 1.18400000e-01
      -11 -1    0    0    0    0 +0.0000000000e+00 +0.0000000000e+00 +4.5593999997e+01 4.5594000000e+01 5.1100000000e-04 0.0000e+00 1.0000e+00
       11 -1    0    0    0    0 -0.0000000000e+00 -0.0000000000e+00 -4.5593999997e+01 4.5594000000e+01 5.1100000000e-04 0.0000e+00 -1.0000e+00
       23  2    1    2    0    0 +0.0000000000e+00 +0.0000000000e+00 +0.0000000000e+00 9.1188000000e+01 9.1188000000e+01 2.2916e-14 0.0000e+00
  9900012  1    3    3    0    0 +2.1935050250e+01 +3.7449013894e+01 +2.1955124103e-01 4.7787271044e+01 2.0000000000e+01 5.3062e-02 1.0000e+00
       12  1    3    3    0    0 -2.1935050250e+01 -3.7449013894e+01 -2.1955124103e-01 4.3400728956e+01 0.0000000000e+00 0.0000e+00 -1.0000e+00
</event>
<event>
 5      6 +2.9511900e-02 9.11880000e+01 7.81616400e-03 1.18400000e-01
      -11 -1    0    0    0    0 +0.0000000000e+00 +0.0000000000e+00 +4.5593999997e+01 4.5594000000e+01 5.1100000000e-04 0.0000e+00 1.0000e+00
       11 -1    0    0    0    0 -0.0000000000e+00 -0.0000000000e+00 -4.5593999997e+01 4.5594000000e+01 5.1100000000e-04 0.0000e+00 -1.0000e+00
       23  2    1    2    0    0 +0.0000000000e+00 +0.0000000000e+00 +0.0000000000e+00 9.1188000000e+01 9.1188000000e+01 1.0066e-13 0.0000e+00
  9900012  1    3    3    0    0 -1.2318283442e+01 -1.9834674798e+01 +3.6585090441e+01 4.7787271044e+01 2.0000000000e+01 2.2791e-02 -1.0000e+00
      -12  1    3    3    0    0 +1.2318283442e+01 +1.9834674798e+01 -3.6585090441e+01 4.3400728956e+01 0.0000000000e+00 0.0000e+00 1.0000e+00
</event>
<event>
 5      6 +2.9511900e-02 9.11880000e+01 7.81616400e-03 1.18400000e-01
      -11 -1    0    0    0    0 +0.0000000000e+00 +0.0000000000e+00 +4.5593999997e+01 4.5594000000e+01 5.1100000000e-04 0.0000e+00 -1.0000e+00
       11 -1    0    0    0    0 -0.0000000000e+00 -0.0000000000e+00 -4.5593999997e+01 4.5594000000e+01 5.1100000000e-04 0.0000e+00 1.0000e+00
       23  2    1    2    0    0 +0.0000000000e+00 +0.0000000000e+00 +0.0000000000e+00 9.1188000000e+01 9.1188000000e+01 2.6026e-13 0.0000e+00
  9900012  1    3    3    0    0 +1.9764475726e+01 -3.8638130904e+01 +2.8915983835e-01 4.7787271044e+01 2.0000000000e+01 1.7336e-01 -1.0000e+00
      -12  1    3    3    0    0 -1.9764475726e+01 +3.8638130904e+01 -2.8915983835e-01 4.3400728956e+01 0.0000000000e+00 0.0000e+00 1.0000e+00
</event>
<event>
 5      2 +2.9511900e-02 9.11880000e+01 7.81616400e-03 1.18400000e-01
      -11 -1    0    0    0    0 +0.0000000000e+00 +0.0000000000e+00 +4.5593999997e+01 4.5594000000e+01 5.1100000000e-04 0.0000e+00 1.0000e+00
       11 -1    0    0    0    0 -0.0000000000e+00 -0.0000000000e+00 -4.5593999997e+01 4.5594000000e+01 5.1100000000e-04 0.0000e+00 -1.0000e+00
       23  2    1    2    0    0 +0.0000000000e+00 +0.0000000000e+00 +0.0000000000e+00 9.1188000000e+01 9.1188000000e+01 4.9042e-15 0.0000e+00
  9900012  1    3    3    0    0 -7.4037631670e+00 -1.9730826996e+01 -3.7940770036e+01 4.7787271044e+01 2.0000000000e+01 1.9599e-01 -1.0000e+00
      -12  1    3    3    0    0 +7.4037631670e+00 +1.9730826996e+01 +3.7940770036e+01 4.3400728956e+01 0.0000000000e+00 0.0000e+00 1.0000e+00
</event>
<event>
 5      3 +2.9511900e-02 9.11880000e+01 7.81616400e-03 1.18400000e-01
      -11 -1    0    0    0    0 +0.0000000000e+00 +0.0000000000e+00 +4.5593999997e+01 4.5594000000e+01 5.1100000000e-04 0.0000e+00 1.0000e+00
       11 -1    0    0    0    0 -0.0000000000e+00 -0.0000000000e+00 -4.5593999997e+01 4.5594000000e+01 5.1100000000e-04 0.0000e+00 -1.0000e+00
       23  2    1    2    0    0 +0.0000000000e+00 +0.0000000000e+00 +0.0000000000e+00 9.1188000000e+01 9.1188000000e+01 6.6132e-14 0.0000e+00
  9900012  1    3    3    0    0 +2.4675252237e+00 +4.3310509747e+01 -1.3169429071e+00 4.7787271044e+01 2.0000000000e+01 2.0663e-01 1.0000e+00
       12  1    3    3    0    0 -2.4675252237e+00 -4.3310509747e+01 +1.3169429071e+00 4.3400728956e+01 0.0000000000e+00 0.0000e+00 -1.0000e+00
</event>
<event>
 5      1 +2.9511900e-02 9.11880000e+01 7.81616400e-03 1.18400000e-01
      -11 -1    0    0    0    0 +0.0000000000e+00 +0.0000000000e+00 +4.5593999997e+01 4.5594000000e+01 5.1100000000e-04 0.0000e+00 1.0000e+00
       11 -1    0    0    0    0 -0.0000000000e+00 -0.0000000000e+00 -4.5593999997e+01 4.5594000000e+01 5.1100000000e-04 0.0000e+00 -1.0000e+00
       23  2    1    2    0    0 +0.0000000000e+00 +0.0000000000e+00 +0.0000000000e+00 9.1188000000e+01 9.1188000000e+01 3.7475e-14 0.0000e+00
  9900012  1    3    3    0    0 +2.7515091663e+01 +3.1575165395e+01 -1.1382088337e+01 4.7787271044e+01 2.0000000000e+01 1.2340e-02 1.0000e+00
       12  1    3    3    0    0 -2.7515091663e+01 -3.1575165395e+01 +1.1382088337e+01 4.3400728956e+01 0.0000000000e+00 0.0000e+00 -1.0000e+00
</event>
<event>
 5      5 +2.9511900e-02 9.11880000e+01 7.81616400e-03 1.18400000e-01
      -11 -1    0    0    0    0 +0.0000000000e+00 +0.0000000000e+00 +4.5593999997e+01 4.5594000000e+01 5.1100000000e-04 0.0000e+00 -1.0000e+00
       11 -1    0    0    0    0 -0.0000000000e+00 -0.0000000000e+00 -4.5593999997e+01 4.5594000000e+01 5.1100000000e-04 0.0000e+00 1.0000e+00
       23  2    1    2    0    0 +0.0000000000e+00 +0.0000000000e+00 +0.0000000000e+00 9.1188000000e+01 9.1188000000e+01 1.1682e-13 0.0000e+00
  9900012  1    3    3    0    0 -4.0278879465e+01 -1.5099307637e+00 +1.6092086628e+01 4.7787271044e+01 2.0000000000e+01 9.4526e-02 1.0000e+00
       12  1    3    3    0    0 +4.0278879465e+01 +1.5099307637e+00 -1.6092086628e+01 4.3400728956e+01 0.0000000000e+00 0.0000e+00 -1.0000e+00
</event>
<event>
 5      7 +2.9511900e-02 9.11880000e+01 7.81616400e-03 1.18400000e-01
      -11 -1    0    0    0    0 +0.0000000000e+00 +0.0000000000e+00 +4.5593999997e+01 4.5594000000e+01 5.1100000000e-04 0.0000e+00 1.0000e+00
       11 -1    0    0    0    0 -0.0000000000e+00 -0.0000000000e+00 -4.5593999997e+01 4.5594000000e+01 5.1100000000e-04 0.0000e+00 -1.0000e+00
       23  2    1    2    0    0 +0.0000000000e+00 +0.0000000000e+00 +0.0000000000e+00 9.1188000000e+01 9.1188000000e+01 7.4635e-14 0.0000e+00
  9900012  1    3    3    0    0 +2.0164976442e+01 -1.4422765134e+01 +3.5622757401e+01 4.7787271044e+01 2.0000000000e+01 2.2155e-02 1.0000e+00
       12  1    3    3    0    0 -2.0164976442e+01 +1.4422765134e+01 -3.5622757401e+01 4.3400728956e+01 0.0000000000e+00 0.0000e+00 -1.0000e+00
</event>
<event>
 5      4 +2.9511900e-02 9.11880000e+01 7.81616400e-03 1.18400000e-01
      -11 -1    0    0    0    0 +0.0000000000e+00 +0.0000000000e+00 +4.5593999997e+01 4.5594000000e+01 5.1100000000e-04 0.0000e+00 1.0000e+00
       11 -1    0    0    0    0 -0.0000000000e+00 -0.0000000000e+00 -4.5593999997e+01 4.5594000000e+01 5.1100000000e-04 0.0000e+00 -1.0000e+00
       23  2    1    2    0    0 +0.0000000000e+00 +0.0000000000e+00 +0.0000000000e+00 9.1188000000e+01 9.1188000000e+01 1.1109e-13 0.0000e+00
  9900012  1    3    3    0    0 -1.5730476828e+01 -1.1217091414e+01 -3.8863250416e+01 4.7787271044e+01 2.0000000000e+01 7.0259e-02 -1.0000e+00
      -12  1    3    3    0    0 +1.5730476828e+01 +1.1217091414e+01 +3.8863250416e+01 4.3400728956e+01 0.0000000000e+00 0.0000e+00 1.0000e+00
</event>
<event>
 5      5 +2.9511900e-02 9.11880000e+01 7.81616400e-03 1.18400000e-01
      -11 -1    0    0    0    0 +0.0000000000e+00 +0.0000000000e+00 +4.5593999997e+01 4.5594000000e+01 5.1100000000e-04 0.0000e+00 1.0000e+00
       11 -1    0    0    0    0 -0.0000000000e+00 -0.0000000000e+00 -4.5593999997e+01 4.5594000000e+01 5.1100000000e-04 0.0000e+00 -1.0000e+00
       23  2    1    2    0    0 +0.0000000000e+00 +0.0000000000e+00 +0.0000000000e+00 9.1188000000e+01 9.1188000000e+01 5.7624e-14 0.0000e+00
  9900012  1    3    3    0    0 -1.0456223187e+01 -4.0203935116e+01 +1.2567190289e+01 4.7787271044e+01 2.0000000000e+01 1.3999e-01 1.0000e+00
       12  1    3    3    0    0 +1.0456223187e+01 +4.0203935116e+01 -1.2567190289e+01 4.3400728956e+01 0.0000000000e+00 0.0000e+00 -1.0000e+00
</event>
<event>
 5      3 +2.9511900e-02 9.11880000e+01 7.81616400e-03 1.18400000e-01
      -11 -1    0    0    0    0 +0.0000000000e+00 +0.0000000000e+00 +4.5593999997e+01 4.5594000000e+01 5.1100000000e-04 0.0000e+00 -1.0000e+00
       11 -1    0    0    0    0 -0.0000000000e+00 -0.0000000000e+00 -4.5593999997e+01 4.5594000000e+01 5.1100000000e-04 0.0000e+00 1.0000e+00
       23  2    1    2    0    0 +0.0000000000e+00 +0.0000000000e+00 +0.0000000000e+00 9.1188000000e+01 9.1188000000e+01 1.1832e-13 0.0000e+00
  9900012  1    3    3    0    0 -3.6667202330e+01 -1.5292784438e+01 +1.7471985900e+01 4.7787271044e+01 2.0000000000e+01 4.2015e-02 1.0000e+00
       12  1    3    3    0    0 +3.6667202330e+01 +1.5292784438e+01 -1.7471985900e+01 4.3400728956e+01 0.0000000000e+00 0.0000e+00 -1.0000e+00
</event>
<event>
 5      1 +2.9511900e-02 9.11880000e+01 7.81616400e-03 1.18400000e-01
      -11 -1    0    0    0    0 +0.0000000000e+00 +0.0000000000e+00 +4.5593999997e+01 4.5594000000e+01 5.1100000000e-04 0.0000e+00 -1.0000e+00
       11 -1    0    0    0    0 -0.0000000000e+00 -0.0000000000e+00 -4.5593999997e+01 4.5594000000e+01 5.1100000000e-04 0.0000e+00 1.0000e+00
       23  2    1    2    0    0 +0.0000000000e+00 +0.0000000000e+00 +0.0000000000e+00 9.1188000000e+01 9.1188000000e+01 9.2758e-14 0.0000e+00
  9900012  1    3    3    0    0 +1.8163801461e+01 +3.7481811056e+01 -1.2198911031e+01 4.7787271044e+01 2.0000000000e+01 1.6437e-02 1.0000e+00
       12  1    3    3    0    0 -1.8163801461e+01 -3.7481811056e+01 +1.2198911031e+01 4.3400728956e+01 0.0000000000e+00 0.0000e+00 -1.0000e+00
</event>
<event>
 5      4 +2.9511900e-02 9.11880000e+01 7.81616400e-03 1.18400000e-01
      -11 -1    0    0    0    0 +0.0000000000e+00 +0.0000000000e+00 +4.5593999997e+01 4.5594000000e+01 5.1100000000e-04 0.0000e+00 -1.0000e+00
       11 -1    0    0    0    0 -0.0000000000e+00 -0.0000000000e+00 -4.5593999997e+01 4.5594000000e+01 5.1100000000e-04 0.0000e+00 1.0000e+00
       23  2    1    2    0    0 +0.0000000000e+00 +0.0000000000e+00 +0.0000000000e+00 9.1188000000e+01 9.1188000000e+01 2.8164e-14 0.0000e+00
  9900012  1    3    3    0    0 -3.9088276317e+01 -4.5890481148e+00 +1.8294003549e+01 4.7787271044e+01 2.0000000000e+01 2.6615e-01 -1.0000e+00
      -12  1    3    3    0    0 +3.9088276317e+01 +4.5890481148e+00 -1.8294003549e+01 4.3400728956e+01 0.0000000000e+00 0.0000e+00 1.0000e+00
</event>
<event>
 5      1 +2.9511900e-02 9.11880000e+01 7.81616400e-03 1.18400000e-01
      -11 -1    0    0    0    0 +0.0000000000e+00 +0.0000000000e+00 +4.5593999997e+01 4.5594000000e+01 5.1100000000e-04 0.0000e+00 1.0000e+00
       11 -1    0    0    0    0 -0.0000000000e+00 -0.0000000000e+00 -4.5593999997e+01 4.5594000000e+01 5.1100000000e-04 0.0000e+00 -1.0000e+00
       23  2    1    2    0    0 +0.0000000000e+00 +0.0000000000e+00 +0.0000000000e+00 9.1188000000e+01 9.1188000000e+01 4.0214e-13 0.0000e+00
  9900012  1    3    3    0    0 +2.5482217431e+01 -3.3805203078e+01 +9.5649418987e+00 4.7787271044e+01 2.0000000000e+01 5.6737e-02 1.0000e+00
       12  1    3    3    0    0 -2.5482217431e+01 +3.3805203078e+01 -9.5649418987e+00 4.3400728956e+01 0.0000000000e+00 0.0000e+00 -1.0000e+00
</event>
<event>
 5      7 +2.9511900e-02 9.11880000e+01 7.81616400e-03 1.18400000e-01
      -11 -1    0    0    0    0 +0.0000000000e+00 +0.0000000000e+00 +4.5593999997e+01 4.5594000000e+01 5.1100000000e-04 0.0000e+00 -1.0000e+00
       11 -1    0    0    0    0 -0.0000000000e+00 -0.0000000000e+00 -4.5593999997e+01 4.5594000000e+01 5.1100000000e-04 0.0000e+00 1.0000e+00
       23  2    1    2    0    0 +0.0000000000e+00 +0.0000000000e+00 +0.0000000000e+00 9.1188000000e+01 9.1188000000e+01 3.0612e-14 0.0000e+00
  9900012  1    3    3    0    0 +1.3761534910e+01 +3.8647946468e+01 -1.4162615035e+01 4.7787271044e+01 2.0000000000e+01 3.9513e-01 1.0000e+00
       12  1    3    3    0    0 -1.3761534910e+01 -3.8647946468e+01 +1.4162615035e+01 4.3400728956e+01 0.0000000000e+00 0.0000e+00 -1.0000e+00
</event>
<event>
 5      1 +2.9511900e-02 9.11880000e+01 7.81616400e-03 1.18400000e-01
      -11 -1    0    0    0    0 +0.0000000000e+00 +0.0000000000e+00 +4.5593999997e+01 4.5594000000e+01 5.1100000000e-04 0.0000e+00 1.0000e+00
       11 -1    0    0    0    0 -0.0000000000e+00 -0.0000000000e+00 -4.5593999997e+01 4.5594000000e+01 5.1100000000e-04 0.0000e+00 -1.0000e+00
       23  2    1    2    0    0 +0.0000000000e+00 +0.0000000000e+00 +0.0000000000e+00 9.1188000000e+01 9.1188000000e+01 1.2905e-13 0.0000e+00
  9900012  1    3    3    0    0 +3.5366266792e+00 -4.0599953633e+01 -1.4925123470e+01 4.7787271044e+01 2.0000000000e+01 1.2108e-01 1.0000e+00
       12  1    3    3    0    0 -3.5366266792e+00 +4.0599953633e+01 +1.4925123470e+01 4.3400728956e+01 0.0000000000e+00 0.0000e+00 -1.0000e+00
</event>
<event>
 5      5 +2.9511900e-02 9.11880000e+01 7.81616400e-03 1.18400000e-01
      -11 -1    0    0    0    0 +0.0000000000e+00 +0.0000000000e+00 +4.5593999997e+01 4.5594000000e+01 5.1100000000e-04 0.0000e+00 -1.0000e+00
       11 -1    0    0    0    0 -0.0000000000e+00 -0.0000000000e+00 -4.5593999997e+01 4.5594000000e+01 5.1100000000e-04 0.0000e+00 1.0000e+00
       23  2    1    2    0    0 +0.0000000000e+00 +0.0000000000e+00 +0.0000000000e+00 9.1188000000e+01 9.1188000000e+01 3.2070e-14 0.0000e+00
  9900012  1    3    3    0    0 -4.1884330177e+01 -1.1366247058e+01 -3.6686145057e-01 4.7787271044e+01 2.0000000000e+01 2.7268e-01 1.0000e+00
       12  1    3    3    0    0 +4.1884330177e+01 +1.1366247058e+01 +3.6686145057e-01 4.3400728956e+01 0.0000000000e+00 0.0000e+00 -1.0000e+00
</event>
<event>
 5      6 +2.9511900e-02 9.11880000e+01 7.81616400e-03 1.18400000e-01
      -11 -1    0    0    0    0 +0.0000000000e+00 +0.0000000000e+00 +4.5593999997e+01 4.5594000000e+01 5.1100000000e-04 0.0000e+00 1.0000e+00
       11 -1    0    0    0    0 -0.0000000000e+00 -0.0000000000e+00 -4.5593999997e+01 4.5594000000e+01 5.1100000000e-04 0.0000e+00 -1.0000e+00
       23  2    1    2    0    0 +0.0000000000e+00 +0.0000000000e+00 +0.0000000000e+00 9.1188000000e+01 9.1188000000e+01 2.3551e-14 0.0000e+00
  9900012  1    3    3    0    0 +1.6201320679e+01 +1.0378793276e+01 -3.8902713688e+01 4.7787271044e+01 2.0000000000e+01 1.6217e-01 -1.0000e+00
      -12  1    3    3    0    0 -1.6201320679e+01 -1.0378793276e+01 +3.8902713688e+01 4.3400728956e+01 0.0000000000e+00 0.0000e+00 1.0000e+00
</event>
<event>
 5      3 +2.9511900e-02 9.11880000e+01 7.81616400e-03 1.18400000e-01
      -11 -1    0    0    0    0 +0.0000000000e+00 +0.0000000000e+00 +4.5593999997e+01 4.5594000000e+01 5.1100000000e-04 0.0000e+00 -1.0000e+00
       11 -1    0    0    0    0 -0.0000000000e+00 -0.0000000000e+00 -4.5593999997e+01 4.5594000000e+01 5.1100000000e-04 0.0000e+00 1.0000e+00
       23  2    1    2    0    0 +0.0000000000e+00 +0.0000000000e+00 +0.0000000000e+00 9.1188000000e+01 9.1188000000e+01 8.1491e-14 0.0000e+00
  9900012  1    3    3    0    0 -2.5191578898e+01 +2.9772395482e+00 -3.5215673658e+01 4.7787271044e+01 2.0000000000e+01 9.0211e-02 1.0000e+00
       12  1    3    3    0    0 +2.5191578898e+01 -2.9772395482e+00 +3.5215673658e+01 4.3400728956e+01 0.0000000000e+00 0.0000e+00 -1.0000e+00
</event>
<event>
 5      4 +2.9511900e-02 9.11880000e+01 7.81616400e-03 1.18400000e-01
      -11 -1    0    0    0    0 +0.0000000000e+00 +0.0000000000e+00 +4.5593999997e+01 4.5594000000e+01 5.1100000000e-04 0.0000e+00 1.0000e+00
       11 -1    0    0    0    0 -0.0000000000e+00 -0.0000000000e+00 -4.5593999997e+01 4.5594000000e+01 5.1100000000e-04 0.0000e+00 -1.0000e+00
       23  2    1    2    0    0 +0.0000000000e+00 +0.0000000000e+00 +0.0000000000e+00 9.1188000000e+01 9.1188000000e+01 2.6075e-14 0.0000e+00
  9900012  1    3    3    0    0 +2.0176931608e+01 +2.5327530202e+01 -2.8896901540e+01 4.7787271044e+01 2.0000000000e+01 1.5816e-01 -1.0000e+00
      -12  1    3    3    0    0 -2.0176931608e+01 -2.5327530202e+01 +2.8896901540e+01 4.3400728956e+01 0.0000000000e+00 0.0000e+00 1.0000e+00
</event>
<event>
 5      6 +2.9511900e-02 9.11880000e+01 7.81616400e-03 1.18400000e-01
      -11 -1    0    0    0    0 +0.0000000000e+00 +0.0000000000e+00 +4.5593999997e+01 4.5594000000e+01 5.1100000000e-04 0.0000e+00 -1.0000e+00
       11 -1    0    0    0    0 -0.0000000000e+00 -0.0000000000e+00 -4.5593999997e+01 4.5594000000e+01 5.1100000000e-04 0.0000e+00 1.0000e+00
       23  2    1    2    0    0 +0.0000000000e+00 +0.0000000000e+00 +0.0000000000e+00 9.1188000000e+01 9.1188000000e+01 1.1628e-13 0.0000e+00
  9900012  1    3    3    0    0 +1.9094541392e+01 -2.7671627343e+01 -2.7446362292e+01 4.7787271044e+01 2.0000000000e+01 5.7153e-02 -1.0000e+00
      -12  1    3    3    0    0 -1.9094541392e+01 +2.7671627343e+01 +2.7446362292e+01 4.3400728956e+01 0.0000000000e+00 0.0000e+00 1.0000e+00
</event>
<event>
 5      8 +2.9511900e-02 9.11880000e+01 7.81616400e-03 1.18400000e-01
      -11 -1    0    0    0    0 +0.0000000000e+00 +0.0000000000e+00 +4.5593999997e+01 4.5594000000e+01 5.1100000000e-04 0.0000e+00 1.0000e+00
       11 -1    0    0    0    0 -0.0000000000e+00 -0.0000000000e+00 -4.5593999997e+01 4.5594000000e+01 5.1100000000e-04 0.0000e+00 -1.0000e+00
       23  2    1    2    0    0 +0.0000000000e+00 +0.0000000000e+00 +0.0000000000e+00 9.1188000000e+01 9.1188000000e+01 1.5739e-13 0.0000e+00
  9900012  1    3    3    0    0 +2.9500867377e+01 +1.8009162149e+01 -2.6248660472e+01 4.7787271044e+01 2.0000000000e+01 2.0484e-02 -1.0000e+00
      -12  1    3    3    0    0 -2.9500867377e+01 -1.8009162149e+01 +2.6248660472e+01 4.3400728956e+01 0.0000000000e+00 0.0000e+00 1.0000e+00
</event>
<event>
 5      2 +2.9511900e-02 9.11880000e+01 7.81616400e-03 1.18400000e-01
      -11 -1    0    0    0    0 +0.0000000000e+00 +0.0000000000e+00 +4.5593999997e+01 4.5594000000e+01 5.1100000000e-04 0.0000e+00 1.0000e+00
       11 -1    0    0    0    0 -0.0000000000e+00 -0.0000000000e+00 -4.5593999997e+01 4.5594000000e+01 5.1100000000e-04 0.0000e+00 -1.0000e+00
       23  2    1    2    0    0 +0.0000000000e+00 +0.0000000000e+00 +0.0000000000e+00 9.1188000000e+01 9.1188000000e+01 9.0647e-14 0.0000e+00
  9900012  1    3    3    0    0 +3.2086983859e+01 +2.3912079319e+01 -1.6800631040e+01 4.7787271044e+01 2.0000000000e+01 3.9896e-01 -1.0000e+00
      -12  1    3    3    0    0 -3.2086983859e+01 -2.3912079319e+01 +1.6800631040e+01 4.3400728956e+01 0.0000000000e+00 0.0000e+00 1.0000e+00
</event>
<event>
 5      5 +2.9511900e-02 9.11880000e+01 7.81616400e-03 1.18400000e-01
      -11 -1    0    0    0    0 +0.0000000000e+00 +0.0000000000e+00 +4.5593999997e+01 4.5594000000e+01 5.1100000000e-04 0.0000e+00 1.0000e+00
       11 -1    0    0    0    0 -0.0000000000e+00 -0.0000000000e+00 -4.5593999997e+01 4.5594000000e+01 5.1100000000e-04 0.0000e+00 -1.0000e+00
       23  2    1    2    0    0 +0.0000000000e+00 +0.0000000000e+00 +0.0000000000e+00 9.1188000000e+01 9.1188000000e+01 3.2609e-14 0.0000e+00
  9900012  1    3    3    0    0 -3.9932323344e+01 +1.6209045795e+01 -5.1283194775e+00 4.7787271044e+01 2.0000000000e+01 1.6371e-01 1.0000e+00
       12  1    3    3    0    0 +3.9932323344e+01 -1.6209045795e+01 +5.1283194775e+00 4.3400728956e+01 0.0000000000e+00 0.0000e+00 -1.0000e+00
</event>
<event>
 5      8 +2.9511900e-02 9.11880000e+01 7.81616400e-03 1.18400000e-01
      -11 -1    0    0    0    0 +0.0000000000e+00 +0.0000000000e+00 +4.5593999997e+01 4.5594000000e+01 5.1100000000e-04 0.0000e+00 -1.0000e+00
       11 -1    0    0    0    0 -0.0000000000e+00 -0.0000000000e+00 -4.5593999997e+01 4.5594000000e+01 5.1100000000e-04 0.0000e+00 1.0000e+00
       23  2    1    2    0    0 +0.0000000000e+00 +0.0000000000e+00 +0.0000000000e+00 9.1188000000e+01 9.1188000000e+01 3.1714e-14 0.0000e+00
  9900012  1    3    3    0    0 -1.4315071292e+01 -1.1161237817e+01 +3.9422440033e+01 4.7787271044e+01 2.0000000000e+01 1.5757e-01 -1.0000e+00
      -12  1    3    3    0    0 +1.4315071292e+01 +1.1161237817e+01 -3.9422440033e+01 4.3400728956e+01 0.0000000000e+00 0.0000e+00 1.0000e+00
</event>
<event>
 5      2 +2.9511900e-02 9.11880000e+01 7.81616400e-03 1.18400000e-01
      -11 -1    0    0    0    0 +0.0000000000e+00 +0.0000000000e+00 +4.5593999997e+01 4.5594000000e+01 5.1100000000e-04 0.0000e+00 1.0000e+00
       11 -1    0    0    0    0 -0.0000000000e+00 -0.0000000000e+00 -4.5593999997e+01 4.5594000000e+01 5.1100000000e-04 0.0000e+00 -1.0000e+00
       23  2    1    2    0    0 +0.0000000000e+00 +0.0000000000e+00 +0.0000000000e+00 9.1188000000e+01 9.1188000000e+01 8.5398e-14 0.0000e+00
  9900012  1    3    3    0    0 -3.1353105339e+01 +2.6087390193e+01 -1.4834221666e+01 4.7787271044e+01 2.0000000000e+01 1.2197e-01 -1.0000e+00
      -12  1    3    3    0    0 +3.1353105339e+01 -2.6087390193e+01 +1.4834221666e+01 4.3400728956e+01 0.0000000000e+00 0.0000e+00 1.0000e+00
</event>
<event>
 5      6 +2.9511900e-02 9.11880000e+01 7.81616400e-03 1.18400000e-01
      -11 -1    0    0    0    0 +0.0000000000e+00 +0.0000000000e+00 +4.5593999997e+01 4.5594000000e+01 5.1100000000e-04 0.0000e+00 1.0000e+00
       11 -1    0    0    0    0 -0.0000000000e+00 -0.0000000000e+00 -4.5593999997e+01 4.5594000000e+01 5.1100000000e-04 0.0000e+00 -1.0000e+00
       23  2    1    2    0    0 +0.0000000000e+00 +0.0000000000e+00 +0.0000000000e+00 9.1188000000e+01 9.1188000000e+01 1.7897e-14 0.0000e+00
  9900012  1    3    3    0    0 -1.8066718455e+01 -3.3338883263e+01 +2.1112456534e+01 4.7787271044e+01 2.0000000000e+01 1.0663e-01 1.0000e+00
      -12  1    3    3    0    0 +1.8066718455e+01 +3.3338883263e+01 -2.1112456534e+01 4.3400728956e+01 0.0000000000e+00 0.0000e+00 1.0000e+00
</event>
<event>
 5      1 +2.9511900e-02 9.11880000e+01 7.81616400e-03 1.18400000e-01
      -11 -1    0    0    0    0 +0.0000000000e+00 +0.0000000000e+00 +4.5593999997e+01 4.5594000000e+01 5.1100000000e-04 0.0000e+00 -1.0000e+00
       11 -1    0    0    0    0 -0.0000000000e+00 -0.0000000000e+00 -4.5593999997e+01 4.5594000000e+01 5.1100000000e-04 0.0000e+00 1.0000e+00
       23  2    1    2    0    0 +0.0000000000e+00 +0.0000000000e+00 +0.0000000000e+00 9.1188000000e+01 9.1188000000e+01 2.9342e-14 0.0000e+00
  9900012  1    3    3    0    0 -8.0865696693e+00 -1.1971165435e+01 -4.0925809253e+01 4.7787271044e+01 2.0000000000e+01 3.6225e-01 1.0000e+00
       12  1    3    3    0    0 +8.0865696693e+00 +1.1971165435e+01 +4.0925809253e+01 4.3400728956e+01 0.0000000000e+00 0.0000e+00 -1.0000e+00
</event>
<event>
 5      3 +2.9511900e-02 9.11880000e+01 7.81616400e-03 1.18400000e-01
      -11 -1    0    0    0    0 +0.0000000000e+00 +0.0000000000e+00 +4.5593999997e+01 4.5594000000e+01 5.1100000000e-04 0.0000e+00 -1.0000e+00
       11 -1    0    0    0    0 -0.0000000000e+00 -0.0000000000e+00 -4.5593999997e+01 4.5594000000e+01 5.1100000000e-04 0.0000e+00 1.0000e+00
       23  2    1    2    0    0 +0.0000000000e+00 +0.0000000000e+00 +0.0000000000e+00 9.1188000000e+01 9.1188000000e+01 4.3050e-14 0.0000e+00
  9900012  1    3    3    0    0 -4.0951238554e+01 +1.9885383829e+00 -1.4236047550e+01 4.7787271044e+01 2.0000000000e+01 4.3040e-01 1.0000e+00
       12  1    3    3    0    0 +4.0951238554e+01 -1.9885383829e+00 +1.4236047550e+01 4.3400728956e+01 0.0000000000e+00 0.0000e+00 -1.0000e+00
</event>
<event>
 5      5 +2.9511900e-02 9.11880000e+01 7.81616400e-03 1.18400000e-01
      -11 -1    0    0    0    0 +0.0000000000e+00 +0.0000000000e+00 +4.5593999997e+01 4.5594000000e+01 5.1100000000e-04 0.0000e+00 -1.0000e+00
       11 -1    0    0    0    0 -0.0000000000e+00 -0.0000000000e+00 -4.5593999997e+01 4.5594000000e+01 5.1100000000e-04 0.0000e+00 1.0000e+00
       23  2    1    2    0    0 +0.0000000000e+00 +0.0000000000e+00 +0.0000000000e+00 9.1188000000e+01 9.1188000000e+01 2.6563e-14 0.0000e+00
  9900012  1    3    3    0    0 +1.5085580905e+00 +2.5170431422e+01 -3.5324168899e+01 4.7787271044e+01 2.0000000000e+01 2.5821e-03 1.0000e+00
       12  1    3    3    0    0 -1.5085580905e+00 -2.5170431422e+01 +3.5324168899e+01 4.3400728956e+01 0.0000000000e+00 0.0000e+00 -1.0000e+00
</event>
<event>
 5      8 +2.9511900e-02 9.11880000e+01 7.81616400e-03 1.18400000e-01
      -11 -1    0    0    0    0 +0.0000000000e+00 +0.0000000000e+00 +4.5593999997e+01 4.5594000000e+01 5.1100000000e-04 0.0000e+00 1.0000e+00
       11 -1    0    0    0    0 -0.0000000000e+00 -0.0000000000e+00 -4.5593999997e+01 4.5594000000e+01 5.1100000000e-04 0.0000e+00 -1.0000e+00
       23  2    1    2    0    0 +0.0000000000e+00 +0.0000000000e+00 +0.0000000000e+00 9.1188000000e+01 9.1188000000e+01 1.0849e-13 0.0000e+00
  9900012  1    3    3    0    0 -3.1199939058e+01 -6.0928451815e+00 -2.9547661739e+01 4.7787271044e+01 2.0000000000e+01 2.3590e-01 -1.0000e+00
      -12  1    3    3    0    0 +3.1199939058e+01 +6.0928451815e+00 +2.9547661739e+01 4.3400728956e+01 0.0000000000e+00 0.0000e+00 1.0000e+00
</event>
<event>
 5      1 +2.9511900e-02 9.11880000e+01 7.81616400e-03 1.18400000e-01
      -11 -1    0    0    0    0 +0.0000000000e+00 +0.0000000000e+00 +4.5593999997e+01 4.5594000000e+01 5.1100000000e-04 0.0000e+00 -1.0000e+00
       11 -1    0    0    0    0 -0.0000000000e+00 -0.0000000000e+00 -4.5593999997e+01 4.5594000000e+01 5.1100000000e-04 0.0000e+00 1.0000e+00
       23  2    1    2    0    0 +0.0000000000e+00 +0.0000000000e+00 +0.0000000000e+00 9.1188000000e+01 9.1188000000e+01 7.1141e-14 0.0000e+00
  9900012  1    3    3    0    0 -1.2335444628e+01 -1.0328584557e+01 -4.0308565104e+01 4.7787271044e+01 2.0000000000e+01 4.4649e-02 1.0000e+00
       12  1    3    3    0    0 +1.2335444628e+01 +1.0328584557e+01 +4.0308565104e+01 4.3400728956e+01 0.0000000000e+00 0.0000e+00 -1.0000e+00
</event>
<event>
 5      5 +2.9511900e-02 9.11880000e+01 7.81616400e-03 1.18400000e-01
      -11 -1    0    0    0    0 +0.0000000000e+00 +0.0000000000e+00 +4.5593999997e+01 4.5594000000e+01 5.1100000000e-04 0.0000e+00 -1.0000e+00
       11 -1    0    0    0    0 -0.0000000000e+00 -0.0000000000e+00 -4.5593999997e+01 4.5594000000e+01 5.1100000000e-04 0.0000e+00 1.0000e+00
       23  2    1    2    0    0 +0.0000000000e+00 +0.0000000000e+00 +0.0000000000e+00 9.1188000000e+01 9.1188000000e+01 1.1657e-15 0.0000e+00
  9900012  1    3    3    0    0 +5.1101247028e+00 +2.9843339443e+01 -3.1094774324e+01 4.7787271044e+01 2.0000000000e+01 3.5745e-02 1.0000e+00
       12  1    3    3    0    0 -5.1101247028e+00 -2.9843339443e+01 +3.1094774324e+01 4.3400728956e+01 0.0000000000e+00 0.0000e+00 -1.0000e+00
</event>
<event>
 5      7 +2.9511900e-02 9.11880000e+01 7.81616400e-03 1.18400000e-01
      -11 -1    0    0    0    0 +0.0000000000e+00 +0.0000000000e+00 +4.5593999997e+01 4.5594000000e+01 5.1100000000e-04 0.0000e+00 -1.0000e+00
       11 -1    0    0    0    0 -0.0000000000e+00 -0.0000000000e+00 -4.5593999997e+01 4.5594000000e+01 5.1100000000e-04 0.0000e+00 1.0000e+00
       23  2    1    2    0    0 +0.0000000000e+00 +0.0000000000e+00 +0.0000000000e+00 9.1188000000e+01 9.1188000000e+01 5.3835e-13 0.0000e+00
  9900012  1    3    3    0    0 +8.0502682212e+00 -3.6090700675e+01 -2.2721746857e+01 4.7787271044e+01 2.0000000000e+01 3.3078e-01 1.0000e+00
       12  1    3    3    0    0 -8.0502682212e+00 +3.6090700675e+01 +2.2721746857e+01 4.3400728956e+01 0.0000000000e+00 0.0000e+00 -1.0000e+00
</event>
<event>
 5      6 +2.9511900e-02 9.11880000e+01 7.81616400e-03 1.18400000e-01
      -11 -1    0    0    0    0 +0.0000000000e+00 +0.0000000000e+00 +4.5593999997e+01 4.5594000000e+01 5.1100000000e-04 0.0000e+00 1.0000e+00
       11 -1    0    0    0    0 -0.0000000000e+00 -0.0000000000e+00 -4.5593999997e+01 4.5594000000e+01 5.1100000000e-04 0.0000e+00 -1.0000e+00
       23  2    1    2    0    0 +0.0000000000e+00 +0.0000000000e+00 +0.0000000000e+00 9.1188000000e+01 9.1188000000e+01 1.0203e-13 0.0000e+00
  9900012  1    3    3    0    0 +3.1003760241e+01 +1.1304903847e+01 -2.8188459941e+01 4.7787271044e+01 2.0000000000e+01 3.2287e-02 -1.0000e+00
      -12  1    3    3    0    0 -3.1003760241e+01 -1.1304903847e+01 +2.8188459941e+01 4.3400728956e+01 0.0000000000e+00 0.0000e+00 1.0000e+00
</event>
<event>
 5      7 +2.9511900e-02 9.11880000e+01 7.81616400e-03 1.18400000e-01
      -11 -1    0    0    0    0 +0.0000000000e+00 +0.0000000000e+00 +4.5593999997e+01 4.5594000000e+01 5.1100000000e-04 0.0000e+00 -1.0000e+00
       11 -1    0    0    0    0 -0.0000000000e+00 -0.0000000000e+00 -4.5593999997e+01 4.5594000000e+01 5.1100000000e-04 0.0000e+00 1.0000e+00
       23  2    1    2    0    0 +0.0000000000e+00 +0.0000000000e+00 +0.0000000000e+00 9.1188000000e+01 9.1188000000e+01 1.6482e-15 0.0000e+00
  9900012  1    3    3    0    0 -7.0240689452e+00 +2.1679755150e+01 -3.6936079191e+01 4.7787271044e+01 2.0000000000e+01 2.8870e-01 1.0000e+00
       12  1    3    3    0    0 +7.0240689452e+00 -2.1679755150e+01 +3.6936079191e+01 4.3400728956e+01 0.0000000000e+00 0.0000e+00 -1.0000e+00
</event>
<event>
 5      6 +2.9511900e-02 9.11880000e+01 7.81616400e-03 1.18400000e-01
      -11 -1    0    0    0    0 +0.0000000000e+00 +0.0000000000e+00 +4.5593999997e+01 4.5594000000e+01 5.1100000000e-04 0.0000e+00 1.0000e+00
       11 -1    0    0    0    0 -0.0000000000e+00 -0.0000000000e+00 -4.5593999997e+01 4.5594000000e+01 5.1100000000e-04 0.0000e+00 -1.0000e+00
       23  2    1    2    0    0 +0.0000000000e+00 +0.0000000000e+00 +0.0000000000e+00 9.1188000000e+01 9.1188000000e+01 4.6870e-14 0.0000e+00
  9900012  1    3    3    0    0 +9.5637595441e+00 +2.6804264971e+01 -3.2767196350e+01 4.7787271044e+01 2.0000000000e+01 3.5852e-01 -1.0000e+00
      -12  1    3    3    0    0 -9.5637595441e+00 -2.6804264971e+01 +3.2767196350e+01 4.3400728956e+01 0.0000000000e+00 0.0000e+00 1.0000e+00
</event>
<event>
 5      4 +2.9511900e-02 9.11880000e+01 7.81616400e-03 1.18400000e-01
      -11 -1    0    0    0    0 +0.0000000000e+00 +0.0000000000e+00 +4.5593999997e+01 4.5594000000e+01 5.1100000000e-04 0.0000e+00 -1.0000e+00
       11 -1    0    0    0    0 -0.0000000000e+00 -0.0000000000e+00 -4.5593999997e+01 4.5594000000e+01 5.1100000000e-04 0.0000e+00 1.0000e+00
       23  2    1    2    0    0 +0.0000000000e+00 +0.0000000000e+00 +0.0000000000e+00 9.1188000000e+01 9.1188000000e+01 8.3939e-14 0.0000e+00
  9900012  1    3    3    0    0 -7.4334718505e-01 -4.1524236912e+00 +4.3195232218e+01 4.7787271044e+01 2.0000000000e+01 1.1384e-02 -1.0000e+00
      -12  1    3    3    0    0 +7.4334718505e-01 +4.1524236912e+00 -4.3195232218e+01 4.3400728956e+01 0.0000000000e+00 0.0000e+00 1.0000e+00
</event>
<event>
 5      5 +2.9511900e-02 9.11880000e+01 7.81616400e-03 1.18400000e-01
      -11 -1    0    0    0    0 +0.0000000000e+00 +0.0000000000e+00 +4.5593999997e+01 4.5594000000e+01 5.1100000000e-04 0.0000e+00 -1.0000e+00
       11 -1    0    0    0    0 -0.0000000000e+00 -0.0000000000e+00 -4.5593999997e+01 4.5594000000e+01 5.1100000000e-04 0.0000e+00 1.0000e+00
       23  2    1    2    0    0 +0.0000000000e+00 +0.0000000000e+00 +0.0000000000e+00 9.1188000000e+01 9.1188000000e+01 1.6497e-13 0.0000e+00
  9900012  1    3    3    0    0 -5.2467338877e+00 +2.2456937788e+01 -3.6766574529e+01 4.7787271044e+01 2.0000000000e+01 7.2978e-02 1.0000e+00
       12  1    3    3    0    0 +5.2467338877e+00 -2.2456937788e+01 +3.6766574529e+01 4.3400728956e+01 0.0000000000e+00 0.0000e+00 -1.0000e+00
</event>
<event>
 5      3 +2.9511900e-02 9.11880000e+01 7.81616400e-03 1.18400000e-01
      -11 -1    0    0    0    0 +0.0000000000e+00 +0.0000000000e+00 +4.5593999997e+01 4.5594000000e+01 5.1100000000e-04 0.0000e+00 -1.0000e+00
       11 -1    0    0    0    0 -0.0000000000e+00 -0.0000000000e+00 -4.5593999997e+01 4.5594000000e+01 5.1100000000e-04 0.0000e+00 1.0000e+00
       23  2    1    2    0    0 +0.0000000000e+00 +0.0000000000e+00 +0.0000000000e+00 9.1188000000e+01 9.1188000000e+01 6.2747e-15 0.0000e+00
  9900012  1    3    3    0    0 +8.4126396465e+00 -3.2663119243e+01 -2.7312477174e+01 4.7787271044e+01 2.0000000000e+01 7.8434e-03 1.0000e+00
       12  1    3    3    0    0 -8.4126396465e+00 +3.2663119243e+01 +2.7312477174e+01 4.3400728956e+01 0.0000000000e+00 0.0000e+00 -1.0000e+00
</event>
<event>
 5      4 +2.9511900e-02 9.11880000e+01 7.81616400e-03 1.18400000e-01
      -11 -1    0    0    0    0 +0.0000000000e+00 +0.0000000000e+00 +4.5593999997e+01 4.5594000000e+01 5.1100000000e-04 0.0000e+00 -1.0000e+00
       11 -1    0    0    0    0 -0.0000000000e+00 -0.0000000000e+00 -4.5593999997e+01 4.5594000000e+01 5.1100000000e-04 0.0000e+00 1.0000e+00
       23  2    1    2    0    0 +0.0000000000e+00 +0.0000000000e+00 +0.0000000000e+00 9.1188000000e+01 9.1188000000e+01 1.3272e-13 0.0000e+00
  9900012  1    3    3    0    0 +2.7886160981e+01 +5.7820978682e+00 +3.2749849524e+01 4.7787271044e+01 2.0000000000e+01 1.8464e-02 -1.0000e+00
      -12  1    3    3    0    0 -2.7886160981e+01 -5.7820978682e+00 -3.2749849524e+01 4.3400728956e+01 0.0000000000e+00 0.0000e+00 1.0000e+00
</event>
<event>
 5      6 +2.9511900e-02 9.11880000e+01 7.81616400e-03 1.18400000e-01
      -11 -1    0    0    0    0 +0.0000000000e+00 +0.0000000000e+00 +4.5593999997e+01 4.5594000000e+01 5.1100000000e-04 0.0000e+00 1.0000e+00
       11 -1    0    0    0    0 -0.0000000000e+00 -0.0000000000e+00 -4.5593999997e+01 4.5594000000e+01 5.1100000000e-04 0.0000e+00 -1.0000e+00
       23  2    1    2    0    0 +0.0000000000e+00 +0.0000000000e+00 +0.0000000000e+00 9.1188000000e+01 9.1188000000e+01 1.0127e-13 0.0000e+00
  9900012  1    3    3    0    0 -7.1988545574e+00 +3.6393045263e+01 -2.2524342907e+01 4.7787271044e+01 2.0000000000e+01 1.9960e-02 -1.0000e+00
      -12  1    3    3    0    0 +7.1988545574e+00 -3.6393045263e+01 +2.2524342907e+01 4.3400728956e+01 0.0000000000e+00 0.0000e+00 1.0000e+00
</event>
<event>
 5      6 +2.9511900e-02 9.11880000e+01 7.81616400e-03 1.18400000e-01
      -11 -1    0    0    0    0 +0.0000000000e+00 +0.0000000000e+00 +4.5593999997e+01 4.5594000000e+01 5.1100000000e-04 0.0000e+00 1.0000e+00
       11 -1    0    0    0    0 -0.0000000000e+00 -0.0000000000e+00 -4.5593999997e+01 4.5594000000e+01 5.1100000000e-04 0.0000e+00 -1.0000e+00
       23  2    1    2    0    0 +0.0000000000e+00 +0.0000000000e+00 +0.0000000000e+00 9.1188000000e+01 9.1188000000e+01 9.6419e-14 0.0000e+00
  9900012  1    3    3    0    0 +2.0781441945e+01 +3.4373883980e+01 -1.6437489002e+01 4.7787271044e+01 2.0000000000e+01 3.5211e-01 -1.0000e+00
      -12  1    3    3    0    0 -2.0781441945e+01 -3.4373883980e+01 +1.6437489002e+01 4.3400728956e+01 0.0000000000e+00 0.0000e+00 1.0000e+00
</event>
<event>
 5      7 +2.9511900e-02 9.11880000e+01 7.81616400e-03 1.18400000e-01
      -11 -1    0    0    0    0 +0.0000000000e+00 +0.0000000000e+00 +4.5593999997e+01 4.5594000000e+01 5.1100000000e-04 0.0000e+00 -1.0000e+00
       11 -1    0    0    0    0 -0.0000000000e+00 -0.0000000000e+00 -4.5593999997e+01 4.5594000000e+01 5.1100000000e-04 0.0000e+00 1.0000e+00
       23  2    1    2    0    0 +0.0000000000e+00 +0.0000000000e+00 +0.0000000000e+00 9.1188000000e+01 9.1188000000e+01 4.5362e-15 0.0000e+00
  9900012  1    3    3    0    0 +2.5445179842e+01 +1.9485111910e+01 -2.9265961637e+01 4.7787271044e+01 2.0000000000e+01 5.9689e-02 1.0000e+00
       12  1    3    3    0    0 -2.5445179842e+01 -1.9485111910e+01 +2.9265961637e+01 4.3400728956e+01 0.0000000000e+00 0.0000e+00 -1.0000e+00
</event>
<event>
 5      1 +2.9511900e-02 9.11880000e+01 7.81616400e-03 1.18400000e-01
      -11 -1    0    0    0    0 +0.0000000000e+00 +0.0000000000e+00 +4.5593999997e+01 4.5594000000e+01 5.1100000000e-04 0.0000e+00 1.0000e+00
       11 -1    0    0    0    0 -0.0000000000e+00 -0.0000000000e+00 -4.5593999997e+01 4.5594000000e+01 5.1100000000e-04 0.0000e+00 -1.0000e+00
       23  2    1    2    0    0 +0.0000000000e+00 +0.0000000000e+00 +0.0000000000e+00 9.1188000000e+01 9.1188000000e+01 7.5053e-14 0.0000e+00
  9900012  1    3    3    0    0 -2.3978785050e+01 -1.5399135497e+01 +3.2733893251e+01 4.7787271044e+01 2.0000000000e+01 3.5428e-02 1.0000e+00
       12  1    3    3    0    0 +2.3978785050e+01 +1.5399135497e+01 -3.2733893251e+01 4.3400728956e+01 0.0000000000e+00 0.0000e+00 -1.0000e+00
</event>
<event>
 5      1 +2.9511900e-02 9.11880000e+01 7.81616400e-03 1.18400000e-01
      -11 -1    0    0    0    0 +0.0000000000e+00 +0.0000000000e+00 +4.5593999997e+01 4.5594000000e+01 5.1100000000e-04 0.0000e+00 1.0000e+00
       11 -1    0    0    0    0 -0.0000000000e+00 -0.0000000000e+00 -4.5593999997e+01 4.5594000000e+01 5.1100000000e-04 0.0000e+00 -1.0000e+00
       23  2    1    2    0    0 +0.0000000000e+00 +0.0000000000e+00 +0.0000000000e+00 9.1188000000e+01 9.1188000000e+01 1.2050e-14 0.0000e+00
  9900012  1    3    3    0    0 -2.4441642567e+01 +1.7099799632e+01 +3.1525009676e+01 4.7787271044e+01 2.0000000000e+01 6.0003e-02 1.0000e+00
       12  1    3    3    0    0 +2.4441642567e+01 -1.7099799632e+01 -3.1525009676e+01 4.3400728956e+01 0.0000000000e+00 0.0000e+00 -1.0000e+00
</event>
<event>
 5      3 +2.9511900e-02 9.11880000e+01 7.81616400e-03 1.18400000e-01
      -11 -1    0    0    0    0 +0.0000000000e+00 +0.0000000000e+00 +4.5593999997e+01 4.5594000000e+01 5.1100000000e-04 0.0000e+00 1.0000e+00
       11 -1    0    0    0    0 -0.0000000000e+00 -0.0000000000e+00 -4.5593999997e+01 4.5594000000e+01 5.1100000000e-04 0.0000e+00 -1.0000e+00
       23  2    1    2    0    0 +0.0000000000e+00 +0.0000000000e+00 +0.0000000000e+00 9.1188000000e+01 9.1188000000e+01 2.1698e-14 0.0000e+00
  9900012  1    3    3    0    0 -7.2116316944e+00 +1.6104254234e+01 +3.9651842804e+01 4.7787271044e+01 2.0000000000e+01 5.5025e-02 1.0000e+00
       12  1    3    3    0    0 +7.2116316944e+00 -1.6104254234e+01 -3.9651842804e+01 4.3400728956e+01 0.0000000000e+00 0.0000e+00 -1.0000e+00
</event>
<event>
 5      1 +2.9511900e-02 9.11880000e+01 7.81616400e-03 1.18400000e-01
      -11 -1    0    0    0    0 +0.0000000000e+00 +0.0000000000e+00 +4.5593999997e+01 4.5594000000e+01 5.1100000000e-04 0.0000e+00 -1.0000e+00
       11 -1    0    0    0    0 -0.0000000000e+00 -0.0000000000e+00 -4.5593999997e+01 4.5594000000e+01 5.1100000000e-04 0.0000e+00 1.0000e+00
       23  2    1    2    0    0 +0.0000000000e+00 +0.0000000000e+00 +0.0000000000e+00 9.1188000000e+01 9.1188000000e+01 1.1684e-13 0.0000e+00
  9900012  1    3    3    0    0 +8.4215760682e+00 -1.2449996909e+01 -4.0714836453e+01 4.7787271044e+01 2.0000000000e+01 1.9052e-01 1.0000e+00
       12  1    3    3    0    0 -8.4215760682e+00 +1.2449996909e+01 +4.0714836453e+01 4.3400728956e+01 0.0000000000e+00 0.0000e+00 -1.0000e+00
</event>
<event>
 5      2 +2.9511900e-02 9.11880000e+01 7.81616400e-03 1.18400000e-01
      -11 -1    0    0    0    0 +0.0000000000e+00 +0.0000000000e+00 +4.5593999997e+01 4.5594000000e+01 5.1100000000e-04 0.0000e+00 -1.0000e+00
       11 -1    0    0    0    0 -0.0000000000e+00 -0.0000000000e+00 -4.5593999997e+01 4.5594000000e+01 5.1100000000e-04 0.0000e+00 1.0000e+00
       23  2    1    2    0    0 +0.0000000000e+00 +0.0000000000e+00 +0.0000000000e+00 9.1188000000e+01 9.1188000000e+01 1.4649e-14 0.0000e+00
  9900012  1    3    3    0    0 +1.5587586937e+01 -1.4241771064e+01 +3.7918628196e+01 4.7787271044e+01 2.0000000000e+01 9.6345e-03 -1.0000e+00
      -12  1    3    3    0    0 -1.5587586937e+01 +1.4241771064e+01 -3.7918628196e+01 4.3400728956e+01 0.0000000000e+00 0.0000e+00 1.0000e+00
</event>
<event>
 5      5 +2.9511900e-02 9.11880000e+01 7.81616400e-03 1.18400000e-01
      -11 -1    0    0    0    0 +0.0000000000e+00 +0.0000000000e+00 +4.5593999997e+01 4.5594000000e+01 5.1100000000e-04 0.0000e+00 -1.0000e+00
       11 -1    0    0    0    0 -0.0000000000e+00 -0.0000000000e+00 -4.5593999997e+01 4.5594000000e+01 5.1100000000e-04 0.0000e+00 1.0000e+00
       23  2    1    2    0    0 +0.0000000000e+00 +0.0000000000e+00 +0.0000000000e+00 9.1188000000e+01 9.1188000000e+01 2.1879e-14 0.0000e+00
  9900012  1    3    3    0    0 +2.6572802829e+01 -2.2788162364e+01 -2.5655585741e+01 4.7787271044e+01 2.0000000000e+01 1.4286e-01 1.0000e+00
       12  1    3    3    0    0 -2.6572802829e+01 +2.2788162364e+01 +2.5655585741e+01 4.3400728956e+01 0.0000000000e+00 0.0000e+00 -1.0000e+00
</event>
<event>
 5      8 +2.9511900e-02 9.11880000e+01 7.81616400e-03 1.18400000e-01
      -11 -1    0    0    0    0 +0.0000000000e+00 +0.0000000000e+00 +4.5593999997e+01 4.5594000000e+01 5.1100000000e-04 0.0000e+00 1.0000e+00
       11 -1    0    0    0    0 -0.0000000000e+00 -0.0000000000e+00 -4.5593999997e+01 4.5594000000e+01 5.1100000000e-04 0.0000e+00 -1.0000e+00
       23  2    1    2    0    0 +0.0000000000e+00 +0.0000000000e+00 +0.0000000000e+00 9.1188000000e+01 9.1188000000e+01 3.7220e-14 0.0000e+00
  9900012  1    3    3    0    0 +6.1838610544e+00 +2.0695815162e+01 -3.7643942024e+01 4.7787271044e+01 2.0000000000e+01 1.9862e-01 -1.0000e+00
      -12  1    3    3    0    0 -6.1838610544e+00 -2.0695815162e+01 +3.7643942024e+01 4.3400728956e+01 0.0000000000e+00 0.0000e+00 1.0000e+00
</event>
<event>
 5      7 +2.9511900e-02 9.11880000e+01 7.81616400e-03 1.18400000e-01
      -11 -1    0    0    0    0 +0.0000000000e+00 +0.0000000000e+00 +4.5593999997e+01 4.5594000000e+01 5.1100000000e-04 0.0000e+00 -1.0000e+00
       11 -1    0    0    0    0 -0.0000000000e+00 -0.0000000000e+00 -4.5593999997e+01 4.5594000000e+01 5.1100000000e-04 0.0000e+00 1.0000e+00
       23  2    1    2    0    0 +0.0000000000e+00 +0.0000000000e+00 +0.0000000000e+00 9.1188000000e+01 9.1188000000e+01 9.4629e-14 0.0000e+00
  9900012  1    3    3    0    0 +1.3985712684e+01 +2.5839285411e+01 -3.1942987400e+01 4.7787271044e+01 2.0000000000e+01 4.0920e-02 1.0000e+00
       12  1    3    3    0    0 -1.3985712684e+01 -2.5839285411e+01 +3.1942987400e+01 4.3400728956e+01 0.0000000000e+00 0.0000e+00 -1.0000e+00
</event>
<event>
 5      5 +2.9511900e-02 9.11880000e+01 7.81616400e-03 1.18400000e-01
      -11 -1    0    0    0    0 +0.0000000000e+00 +0.0000000000e+00 +4.5593999997e+01 4.5594000000e+01 5.1100000000e-04 0.0000e+00 -1.0000e+00
       11 -1    0    0    0    0 -0.0000000000e+00 -0.0000000000e+00 -4.5593999997e+01 4.5594000000e+01 5.1100000000e-04 0.0000e+00 1.0000e+00
       23  2    1    2    0    0 +0.0000000000e+00 +0.0000000000e+00 +0.0000000000e+00 9.1188000000e+01 9.1188000000e+01 7.9290e-14 0.0000e+00
  9900012  1    3    3    0    0 +1.2176086252e+01 -3.6094096765e+00 -4.1501064556e+01 4.7787271044e+01 2.0000000000e+01 5.9012e-02 1.0000e+00
       12  1    3    3    0    0 -1.2176086252e+01 +3.6094096765e+00 +4.1501064556e+01 4.3400728956e+01 0.0000000000e+00 0.0000e+00 -1.0000e+00
</event>
<event>
 5      5 +2.9511900e-02 9.11880000e+01 7.81616400e-03 1.18400000e-01
      -11 -1    0    0    0    0 +0.0000000000e+00 +0.0000000000e+00 +4.5593999997e+01 4.5594000000e+01 5.1100000000e-04 0.0000e+00 1.0000e+00
       11 -1    0    0    0    0 -0.0000000000e+00 -0.0000000000e+00 -4.5593999997e+01 4.5594000000e+01 5.1100000000e-04 0.0000e+00 -1.0000e+00
       23  2    1    2    0    0 +0.0000000000e+00 +0.0000000000e+00 +0.0000000000e+00 9.1188000000e+01 9.1188000000e+01 7.7667e-14 0.0000e+00
  9900012  1    3    3    0    0 -3.8304530373e+01 -7.9530327094e+00 -1.8791899784e+01 4.7787271044e+01 2.0000000000e+01 1.3171e-01 1.0000e+00
       12  1    3    3    0    0 +3.8304530373e+01 +7.9530327094e+00 +1.8791899784e+01 4.3400728956e+01 0.0000000000e+00 0.0000e+00 -1.0000e+00
</event>
<event>
 5      2 +2.9511900e-02 9.11880000e+01 7.81616400e-03 1.18400000e-01
      -11 -1    0    0    0    0 +0.0000000000e+00 +0.0000000000e+00 +4.5593999997e+01 4.5594000000e+01 5.1100000000e-04 0.0000e+00 -1.0000e+00
       11 -1    0    0    0    0 -0.0000000000e+00 -0.0000000000e+00 -4.5593999997e+01 4.5594000000e+01 5.1100000000e-04 0.0000e+00 1.0000e+00
       23  2    1    2    0    0 +0.0000000000e+00 +0.0000000000e+00 +0.0000000000e+00 9.1188000000e+01 9.1188000000e+01 1.8641e-15 0.0000e+00
  9900012  1    3    3    0    0 -3.6332151534e+01 +2.3726512902e+01 -8.0661286807e-01 4.7787271044e+01 2.0000000000e+01 5.6047e-02 -1.0000e+00
      -12  1    3    3    0    0 +3.6332151534e+01 -2.3726512902e+01 +8.0661286807e-01 4.3400728956e+01 0.0000000000e+00 0.0000e+00 1.0000e+00
</event>
<event>
 5      6 +2.9511900e-02 9.11880000e+01 7.81616400e-03 1.18400000e-01
      -11 -1    0    0    0    0 +0.0000000000e+00 +0.0000000000e+00 +4.5593999997e+01 4.5594000000e+01 5.1100000000e-04 0.0000e+00 -1.0000e+00
       11 -1    0    0    0    0 -0.0000000000e+00 -0.0000000000e+00 -4.5593999997e+01 4.5594000000e+01 5.1100000000e-04 0.0000e+00 1.0000e+00
       23  2    1    2    0    0 +0.0000000000e+00 +0.0000000000e+00 +0.0000000000e+00 9.1188000000e+01 9.1188000000e+01 6.2611e-14 0.0000e+00
  9900012  1    3    3    0    0 +1.3770070093e+01 -2.7110971795e+01 +3.0967784096e+01 4.7787271044e+01 2.0000000000e+01 1.4662e-03 -1.0000e+00
      -12  1    3    3    0    0 -1.3770070093e+01 +2.7110971795e+01 -3.0967784096e+01 4.3400728956e+01 0.0000000000e+00 0.0000e+00 1.0000e+00
</event>
<event>
 5      8 +2.9511900e-02 9.11880000e+01 7.81616400e-03 1.18400000e-01
      -11 -1    0    0    0    0 +0.0000000000e+00 +0.0000000000e+00 +4.5593999997e+01 4.5594000000e+01 5.1100000000e-04 0.0000e+00 1.0000e+00
       11 -1    0    0    0    0 -0.0000000000e+00 -0.0000000000e+00 -4.5593999997e+01 4.5594000000e+01 5.1100000000e-04 0.0000e+00 -1.0000e+00
       23  2    1    2    0    0 +0.0000000000e+00 +0.0000000000e+00 +0.0000000000e+00 9.1188000000e+01 9.1188000000e+01 3.4083e-14 0.0000e+00
  9900012  1    3    3    0    0 -2.1948963529e+01 +2.9030418623e+01 -2.3645318108e+01 4.7787271044e+01 2.0000000000e+01 1.7838e-02 -1.0000e+00
      -12  1    3    3    0    0 +2.1948963529e+01 -2.9030418623e+01 +2.3645318108e+01 4.3400728956e+01 0.0000000000e+00 0.0000e+00 1.0000e+00
</event>
<event>
 5      5 +2.9511900e-02 9.11880000e+01 7.81616400e-03 1.18400000e-01
      -11 -1    0    0    0    0 +0.0000000000e+00 +0.0000000000e+00 +4.5593999997e+01 4.5594000000e+01 5.1100000000e-04 0.0000e+00 -1.0000e+00
       11 -1    0    0    0    0 -0.0000000000e+00 -0.0000000000e+00 -4.5593999997e+01 4.5594000000e+01 5.1100000000e-04 0.0000e+00 1.0000e+00
       23  2    1    2    0    0 +0.0000000000e+00 +0.0000000000e+00 +0.0000000000e+00 9.1188000000e+01 9.1188000000e+01 2.0854e-14 0.0000e+00
  9900012  1    3    3    0    0 +8.8077863130e+00 +1.9845033212e+01 -3.7579526753e+01 4.7787271044e+01 2.0000000000e+01 1.9474e-02 1.0000e+00
       12  1    3    3    0    0 -8.8077863130e+00 -1.9845033212e+01 +3.7579526753e+01 4.3400728956e+01 0.0000000000e+00 0.0000e+00 -1.0000e+00
</event>
<event>
 5      1 +2.9511900e-02 9.11880000e+01 7.81616400e-03 1.18400000e-01
      -11 -1    0    0    0    0 +0.0000000000e+00 +0.0000000000e+00 +4.5593999997e+01 4.5594000000e+01 5.1100000000e-04 0.0000e+00 -1.0000e+00
       11 -1    0    0    0    0 -0.0000000000e+00 -0.0000000000e+00 -4.5593999997e+01 4.5594000000e+01 5.1100000000e-04 0.0000e+00 1.0000e+00
       23  2    1    2    0    0 +0.0000000000e+00 +0.0000000000e+00 +0.0000000000e+00 9.1188000000e+01 9.1188000000e+01 1.9264e-13 0.0000e+00
  9900012  1    3    3    0    0 +9.1937282979e-01 -4.2481765947e+01 +8.8361524161e+00 4.7787271044e+01 2.0000000000e+01 5.2800e-01 1.0000e+00
       12  1    3    3    0    0 -9.1937282979e-01 +4.2481765947e+01 -8.8361524161e+00 4.3400728956e+01 0.0000000000e+00 0.0000e+00 -1.0000e+00
</event>
<event>
 5      8 +2.9511900e-02 9.11880000e+01 7.81616400e-03 1.18400000e-01
      -11 -1    0    0    0    0 +0.0000000000e+00 +0.0000000000e+00 +4.5593999997e+01 4.5594000000e+01 5.1100000000e-04 0.0000e+00 1.0000e+00
       11 -1    0    0    0    0 -0.0000000000e+00 -0.0000000000e+00 -4.5593999997e+01 4.5594000000e+01 5.1100000000e-04 0.0000e+00 -1.0000e+00
       23  2    1    2    0    0 +0.0000000000e+00 +0.0000000000e+00 +0.0000000000e+00 9.1188000000e+01 9.1188000000e+01 2.9220e-15 0.0000e+00
  9900012  1    3    3    0    0 +1.6089888485e+01 +2.5159453874e+01 -3.1491913933e+01 4.7787271044e+01 2.0000000000e+01 6.6582e-02 -1.0000e+00
      -12  1    3    3    0    0 -1.6089888485e+01 -2.5159453874e+01 +3.1491913933e+01 4.3400728956e+01 0.0000000000e+00 0.0000e+00 1.0000e+00
</event>
<event>
 5      4 +2.9511900e-02 9.11880000e+01 7.81616400e-03 1.18400000e-01
      -11 -1    0    0    0    0 +0.0000000000e+00 +0.0000000000e+00 +4.5593999997e+01 4.5594000000e+01 5.1100000000e-04 0.0000e+00 1.0000e+00
       11 -1    0    0    0    0 -0.0000000000e+00 -0.0000000000e+00 -4.5593999997e+01 4.5594000000e+01 5.1100000000e-04 0.0000e+00 -1.0000e+00
       23  2    1    2    0    0 +0.0000000000e+00 +0.0000000000e+00 +0.0000000000e+00 9.1188000000e+01 9.1188000000e+01 2.7613e-14 0.0000e+00
  9900012  1    3    3    0    0 +3.3985233091e+01 -2.6546907259e+01 +4.8876293498e+00 4.7787271044e+01 2.0000000000e+01 1.4042e-01 -1.0000e+00
      -12  1    3    3    0    0 -3.3985233091e+01 +2.6546907259e+01 -4.8876293498e+00 4.3400728956e+01 0.0000000000e+00 0.0000e+00 1.0000e+00
</event>
<event>
 5      5 +2.9511900e-02 9.11880000e+01 7.81616400e-03 1.18400000e-01
      -11 -1    0    0    0    0 +0.0000000000e+00 +0.0000000000e+00 +4.5593999997e+01 4.5594000000e+01 5.1100000000e-04 0.0000e+00 1.0000e+00
       11 -1    0    0    0    0 -0.0000000000e+00 -0.0000000000e+00 -4.5593999997e+01 4.5594000000e+01 5.1100000000e-04 0.0000e+00 -1.0000e+00
       23  2    1    2    0    0 +0.0000000000e+00 +0.0000000000e+00 +0.0000000000e+00 9.1188000000e+01 9.1188000000e+01 7.2993e-14 0.0000e+00
  9900012  1    3    3    0    0 +4.1093117420e+01 +1.0165629704e+01 -9.5728233707e+00 4.7787271044e+01 2.0000000000e+01 2.4138e-01 1.0000e+00
       12  1    3    3    0    0 -4.1093117420e+01 -1.0165629704e+01 +9.5728233707e+00 4.3400728956e+01 0.0000000000e+00 0.0000e+00 -1.0000e+00
</event>
<event>
 5      8 +2.9511900e-02 9.11880000e+01 7.81616400e-03 1.18400000e-01
      -11 -1    0    0    0    0 +0.0000000000e+00 +0.0000000000e+00 +4.5593999997e+01 4.5594000000e+01 5.1100000000e-04 0.0000e+00 -1.0000e+00
       11 -1    0    0    0    0 -0.0000000000e+00 -0.0000000000e+00 -4.5593999997e+01 4.5594000000e+01 5.1100000000e-04 0.0000e+00 1.0000e+00
       23  2    1    2    0    0 +0.0000000000e+00 +0.0000000000e+00 +0.0000000000e+00 9.1188000000e+01 9.1188000000e+01 2.1604e-14 0.0000e+00
  9900012  1    3    3    0    0 +4.2793158862e+01 -5.0711672574e+00 -5.1625663347e+00 4.7787271044e+01 2.0000000000e+01 1.1053e-01 -1.0000e+00
      -12  1    3    3    0    0 -4.2793158862e+01 +5.0711672574e+00 +5.1625663347e+00 4.3400728956e+01 0.0000000000e+00 0.0000e+00 1.0000e+00
</event>
<event>
 5      4 +2.9511900e-02 9.11880000e+01 7.81616400e-03 1.18400000e-01
      -11 -1    0    0    0    0 +0.0000000000e+00 +0.0000000000e+00 +4.5593999997e+01 4.5594000000e+01 5.1100000000e-04 0.0000e+00 -1.0000e+00
       11 -1    0    0    0    0 -0.0000000000e+00 -0.0000000000e+00 -4.5593999997e+01 4.5594000000e+01 5.1100000000e-04 0.0000e+00 1.0000e+00
       23  2    1    2    0    0 +0.0000000000e+00 +0.0000000000e+00 +0.0000000000e+00 9.1188000000e+01 9.1188000000e+01 1.3304e-13 0.0000e+00
  9900012  1    3    3    0    0 +1.1930587741e+01 +2.8929659596e+01 +3.0072564668e+01 4.7787271044e+01 2.0000000000e+01 3.2847e-02 -1.0000e+00
      -12  1    3    3    0    0 -1.1930587741e+01 -2.8929659596e+01 -3.0072564668e+01 4.3400728956e+01 0.0000000000e+00 0.0000e+00 1.0000e+00
</event>
<event>
 5      1 +2.9511900e-02 9.11880000e+01 7.81616400e-03 1.18400000e-01
      -11 -1    0    0    0    0 +0.0000000000e+00 +0.0000000000e+00 +4.5593999997e+01 4.5594000000e+01 5.1100000000e-04 0.0000e+00 -1.0000e+00
       11 -1    0    0    0    0 -0.0000000000e+00 -0.0000000000e+00 -4.5593999997e+01 4.5594000000e+01 5.1100000000e-04 0.0000e+00 1.0000e+00
       23  2    1    2    0    0 +0.0000000000e+00 +0.0000000000e+00 +0.0000000000e+00 9.1188000000e+01 9.1188000000e+01 1.0779e-13 0.0000e+00
  9900012  1    3    3    0    0 +4.0168722532e+00 -1.0491095180e+01 -4.1921652318e+01 4.7787271044e+01 2.0000000000e+01 1.5893e-01 1.0000e+00
       12  1    3    3    0    0 -4.0168722532e+00 +1.0491095180e+01 +4.1921652318e+01 4.3400728956e+01 0.0000000000e+00 0.0000e+00 -1.0000e+00
</event>
<event>
 5      8 +2.9511900e-02 9.11880000e+01 7.81616400e-03 1.18400000e-01
      -11 -1    0    0    0    0 +0.0000000000e+00 +0.0000000000e+00 +4.5593999997e+01 4.5594000000e+01 5.1100000000e-04 0.0000e+00 1.0000e+00
       11 -1    0    0    0    0 -0.0000000000e+00 -0.0000000000e+00 -4.5593999997e+01 4.5594000000e+01 5.1100000000e-04 0.0000e+00 -1.0000e+00
       23  2    1    2    0    0 +0.0000000000e+00 +0.0000000000e+00 +0.0000000000e+00 9.1188000000e+01 9.1188000000e+01 1.7259e-15 0.0000e+00
  9900012  1    3    3    0    0 +4.0677037112e+01 -3.4910688729e+00 -1.4724617610e+01 4.7787271044e+01 2.0000000000e+01 9.0288e-02 -1.0000e+00
      -12  1    3    3    0    0 -4.0677037112e+01 +3.4910688729e+00 +1.4724617610e+01 4.3400728956e+01 0.0000000000e+00 0.0000e+00 1.0000e+00
</event>
<event>
 5      7 +2.9511900e-02 9.11880000e+01 7.81616400e-03 1.18400000e-01
      -11 -1    0    0    0    0 +0.0000000000e+00 +0.0000000000e+00 +4.5593999997e+01 4.5594000000e+01 5.1100000000e-04 0.0000e+00 -1.0000e+00
       11 -1    0    0    0    0 -0.0000000000e+00 -0.0000000000e+00 -4.5593999997e+01 4.5594000000e+01 5.1100000000e-04 0.0000e+00 1.0000e+00
       23  2    1    2    0    0 +0.0000000000e+00 +0.0000000000e+00 +0.0000000000e+00 9.1188000000e+01 9.1188000000e+01 2.3342e-13 0.0000e+00
  9900012  1    3    3    0    0 +2.6057661709e+01 -3.3386867188e+01 +9.4835984480e+00 4.7787271044e+01 2.0000000000e+01 7.0922e-02 1.0000e+00
       12  1    3    3    0    0 -2.6057661709e+01 +3.3386867188e+01 -9.4835984480e+00 4.3400728956e+01 0.0000000000e+00 0.0000e+00 -1.0000e+00
</event>
<event>
 5      7 +2.9511900e-02 9.11880000e+01 7.81616400e-03 1.18400000e-01
      -11 -1    0    0    0    0 +0.0000000000e+00 +0.0000000000e+00 +4.5593999997e+01 4.5594000000e+01 5.1100000000e-04 0.0000e+00 1.0000e+00
       11 -1    0    0    0    0 -0.0000000000e+00 -0.0000000000e+00 -4.5593999997e+01 4.5594000000e+01 5.1100000000e-04 0.0000e+00 -1.0000e+00
       23  2    1    2    0    0 +0.0000000000e+00 +0.0000000000e+00 +0.0000000000e+00 9.1188000000e+01 9.1188000000e+01 8.5266e-14 0.0000e+00
  9900012  1    3    3    0    0 -6.6098818580e+00 -2.3198653679e+01 +3.6079844833e+01 4.7787271044e+01 2.0000000000e+01 2.5254e-01 1.0000e+00
       12  1    3    3    0    0 +6.6098818580e+00 +2.3198653679e+01 -3.6079844833e+01 4.3400728956e+01 0.0000000000e+00 0.0000e+00 -1.0000e+00
</event>
<event>
 5      3 +2.9511900e-02 9.11880000e+01 7.81616400e-03 1.18400000e-01
      -11 -1    0    0    0    0 +0.0000000000e+00 +0.0000000000e+00 +4.5593999997e+01 4.5594000000e+01 5.1100000000e-04 0.0000e+00 1.0000e+00
       11 -1    0    0    0    0 -0.0000000000e+00 -0.0000000000e+00 -4.5593999997e+01 4.5594000000e+01 5.1100000000e-04 0.0000e+00 -1.0000e+00
       23  2    1    2    0    0 +0.0000000000e+00 +0.0000000000e+00 +0.0000000000e+00 9.1188000000e+01 9.1188000000e+01 1.4446e-13 0.0000e+00
  9900012  1    3    3    0    0 +5.9503437745e+00 -1.6490601810e+00 +4.2959251429e+01 4.7787271044e+01 2.0000000000e+01 7.5414e-01 1.0000e+00
       12  1    3    3    0    0 -5.9503437745e+00 +1.6490601810e+00 -4.2959251429e+01 4.3400728956e+01 0.0000000000e+00 0.0000e+00 -1.0000e+00
</event>
<event>
 5      4 +2.9511900e-02 9.11880000e+01 7.81616400e-03 1.18400000e-01
      -11 -1    0    0    0    0 +0.0000000000e+00 +0.0000000000e+00 +4.5593999997e+01 4.5594000000e+01 5.1100000000e-04 0.0000e+00 -1.0000e+00
       11 -1    0    0    0    0 -0.0000000000e+00 -0.0000000000e+00 -4.5593999997e+01 4.5594000000e+01 5.1100000000e-04 0.0000e+00 1.0000e+00
       23  2    1    2    0    0 +0.0000000000e+00 +0.0000000000e+00 +0.0000000000e+00 9.1188000000e+01 9.1188000000e+01 1.4752e-13 0.0000e+00
  9900012  1    3    3    0    0 -2.6168283082e+01 +2.0215293292e+01 -2.8110249937e+01 4.7787271044e+01 2.0000000000e+01 2.2092e-02 -1.0000e+00
      -12  1    3    3    0    0 +2.6168283082e+01 -2.0215293292e+01 +2.8110249937e+01 4.3400728956e+01 0.0000000000e+00 0.0000e+00 1.0000e+00
</event>
<event>
 5      1 +2.9511900e-02 9.11880000e+01 7.81616400e-03 1.18400000e-01
      -11 -1    0    0    0    0 +0.0000000000e+00 +0.0000000000e+00 +4.5593999997e+01 4.5594000000e+01 5.1100000000e-04 0.0000e+00 1.0000e+00
       11 -1    0    0    0    0 -0.0000000000e+00 -0.0000000000e+00 -4.5593999997e+01 4.5594000000e+01 5.1100000000e-04 0.0000e+00 -1.0000e+00
       23  2    1    2    0    0 +0.0000000000e+00 +0.0000000000e+00 +0.0000000000e+00 9.1188000000e+01 9.1188000000e+01 1.6050e-13 0.0000e+00
  9900012  1    3    3    0    0 +2.6941437686e+01 +3.0903357358e+01 +1.4239547510e+01 4.7787271044e+01 2.0000000000e+01 1.8305e-02 1.0000e+00
       12  1    3    3    0    0 -2.6941437686e+01 -3.0903357358e+01 -1.4239547510e+01 4.3400728956e+01 0.0000000000e+00 0.0000e+00 -1.0000e+00
</event>
<event>
 5      2 +2.9511900e-02 9.11880000e+01 7.81616400e-03 1.18400000e-01
      -11 -1    0    0    0    0 +0.0000000000e+00 +0.0000000000e+00 +4.5593999997e+01 4.5594000000e+01 5.1100000000e-04 0.0000e+00 1.0000e+00
       11 -1    0    0    0    0 -0.0000000000e+00 -0.0000000000e+00 -4.5593999997e+01 4.5594000000e+01 5.1100000000e-04 0.0000e+00 -1.0000e+00
       23  2    1    2    0    0 +0.0000000000e+00 +0.0000000000e+00 +0.0000000000e+00 9.1188000000e+01 9.1188000000e+01 1.4202e-14 0.0000e+00
  9900012  1    3    3    0    0 +3.6400040655e+01 -1.2161015769e+01 -2.0267461846e+01 4.7787271044e+01 2.0000000000e+01 2.5011e-01 -1.0000e+00
      -12  1    3    3    0    0 -3.6400040655e+01 +1.2161015769e+01 +2.0267461846e+01 4.3400728956e+01 0.0000000000e+00 0.0000e+00 1.0000e+00
</event>
<event>
 5      6 +2.9511900e-02 9.11880000e+01 7.81616400e-03 1.18400000e-01
      -11 -1    0    0    0    0 +0.0000000000e+00 +0.0000000000e+00 +4.5593999997e+01 4.5594000000e+01 5.1100000000e-04 0.0000e+00 -1.0000e+00
       11 -1    0    0    0    0 -0.0000000000e+00 -0.0000000000e+00 -4.5593999997e+01 4.5594000000e+01 5.1100000000e-04 0.0000e+00 1.0000e+00
       23  2    1    2    0    0 +0.0000000000e+00 +0.0000000000e+00 +0.0000000000e+00 9.1188000000e+01 9.1188000000e+01 1.5139e-14 0.0000e+00
  9900012  1    3    3    0    0 +4.1652272998e+01 -1.7076008741e+00 -1.2074581867e+01 4.7787271044e+01 2.0000000000e+01 7.8045e-02 -1.0000e+00
      -12  1    3    3    0    0 -4.1652272998e+01 +1.7076008741e+00 +1.2074581867e+01 4.3400728956e+01 0.0000000000e+00 0.0000e+00 1.0000e+00
</event>
<event>
 5      1 +2.9511900e-02 9.11880000e+01 7.81616400e-03 1.18400000e-01
      -11 -1    0    0    0    0 +0.0000000000e+00 +0.0000000000e+00 +4.5593999997e+01 4.5594000000e+01 5.1100000000e-04 0.0000e+00 1.0000e+00
       11 -1    0    0    0    0 -0.0000000000e+00 -0.0000000000e+00 -4.5593999997e+01 4.5594000000e+01 5.1100000000e-04 0.0000e+00 -1.0000e+00
       23  2    1    2    0    0 +0.0000000000e+00 +0.0000000000e+00 +0.0000000000e+00 9.1188000000e+01 9.1188000000e+01 7.7175e-14 0.0000e+00
  9900012  1    3    3    0    0 +2.0395062689e+01 +2.4427767431e+01 +2.9511842879e+01 4.7787271044e+01 2.0000000000e+01 3.2579e-02 1.0000e+00
       12  1    3    3    0    0 -2.0395062689e+01 -2.4427767431e+01 -2.9511842879e+01 4.3400728956e+01 0.0000000000e+00 0.0000e+00 -1.0000e+00
</event>
<event>
 5      6 +2.9511900e-02 9.11880000e+01 7.81616400e-03 1.18400000e-01
      -11 -1    0    0    0    0 +0.0000000000e+00 +0.0000000000e+00 +4.5593999997e+01 4.5594000000e+01 5.1100000000e-04 0.0000e+00 1.0000e+00
       11 -1    0    0    0    0 -0.0000000000e+00 -0.0000000000e+00 -4.5593999997e+01 4.5594000000e+01 5.1100000000e-04 0.0000e+00 -1.0000e+00
       23  2    1    2    0    0 +0.0000000000e+00 +0.0000000000e+00 +0.0000000000e+00 9.1188000000e+01 9.1188000000e+01 5.2850e-14 0.0000e+00
  9900012  1    3    3    0    0 -1.8736525823e+01 -2.0541882818e+01 -3.3325619638e+01 4.7787271044e+01 2.0000000000e+01 3.3205e-01 -1.0000e+00
      -12  1    3    3    0    0 +1.8736525823e+01 +2.0541882818e+01 +3.3325619638e+01 4.3400728956e+01 0.0000000000e+00 0.0000e+00 1.0000e+00
</event>
<event>
 5      4 +2.9511900e-02 9.11880000e+01 7.81616400e-03 1.18400000e-01
      -11 -1    0    0    0    0 +0.0000000000e+00 +0.0000000000e+00 +4.5593999997e+01 4.5594000000e+01 5.1100000000e-04 0.0000e+00 -1.0000e+00
       11 -1    0    0    0    0 -0.0000000000e+00 -0.0000000000e+00 -4.5593999997e+01 4.5594000000e+01 5.1100000000e-04 0.0000e+00 1.0000e+00
       23  2    1    2    0    0 +0.0000000000e+00 +0.0000000000e+00 +0.0000000000e+00 9.1188000000e+01 9.1188000000e+01 1.9911e-14 0.0000e+00
  9900012  1    3    3    0    0 -1.2155822724e+01 +1.3029738639e+01 +3.9573793839e+01 4.7787271044e+01 2.0000000000e+01 2.6908e-02 -1.0000e+00
      -12  1    3    3    0    0 +1.2155822724e+01 -1.3029738639e+01 -3.9573793839e+01 4.3400728956e+01 0.0000000000e+00 0.0000e+00 1.0000e+00
</event>
<event>
 5      7 +2.9511900e-02 9.11880000e+01 7.81616400e-03 1.18400000e-01
      -11 -1    0    0    0    0 +0.0000000000e+00 +0.0000000000e+00 +4.5593999997e+01 4.5594000000e+01 5.1100000000e-04 0.0000e+00 1.0000e+00
       11 -1    0    0    0    0 -0.0000000000e+00 -0.0000000000e+00 -4.5593999997e+01 4.5594000000e+01 5.1100000000e-04 0.0000e+00 -1.0000e+00
       23  2    1    2    0    0 +0.0000000000e+00 +0.0000000000e+00 +0.0000000000e+00 9.1188000000e+01 9.1188000000e+01 1.1501e-13 0.0000e+00
  9900012  1    3    3    0    0 -1.1884754191e+01 -2.6167687993e+01 +3.2521193041e+01 4.7787271044e+01 2.0000000000e+01 2.6419e-02 1.0000e+00
       12  1    3    3    0    0 +1.1884754191e+01 +2.6167687993e+01 -3.2521193041e+01 4.3400728956e+01 0.0000000000e+00 0.0000e+00 -1.0000e+00
</event>
<event>
 5      2 +2.9511900e-02 9.11880000e+01 7.81616400e-03 1.18400000e-01
      -11 -1    0    0    0    0 +0.0000000000e+00 +0.0000000000e+00 +4.5593999997e+01 4.5594000000e+01 5.1100000000e-04 0.0000e+00 -1.0000e+00
       11 -1    0    0    0    0 -0.0000000000e+00 -0.0000000000e+00 -4.5593999997e+01 4.5594000000e+01 5.1100000000e-04 0.0000e+00 1.0000e+00
       23  2    1    2    0    0 +0.0000000000e+00 +0.0000000000e+00 +0.0000000000e+00 9.1188000000e+01 9.1188000000e+01 7.2064e-15 0.0000e+00
  9900012  1    3    3    0    0 -2.0068321524e+01 +2.6385920903e+01 +2.8011942510e+01 4.7787271044e+01 2.0000000000e+01 3.4259e-02 -1.0000e+00
      -12  1    3    3    0    0 +2.0068321524e+01 -2.6385920903e+01 -2.8011942510e+01 4.3400728956e+01 0.0000000000e+00 0.0000e+00 1.0000e+00
</event>
<event>
 5      3 +2.9511900e-02 9.11880000e+01 7.81616400e-03 1.18400000e-01
      -11 -1    0    0    0    0 +0.0000000000e+00 +0.0000000000e+00 +4.5593999997e+01 4.5594000000e+01 5.1100000000e-04 0.0000e+00 1.0000e+00
       11 -1    0    0    0    0 -0.0000000000e+00 -0.0000000000e+00 -4.5593999997e+01 4.5594000000e+01 5.1100000000e-04 0.0000e+00 -1.0000e+00
       23  2    1    2    0    0 +0.0000000000e+00 +0.0000000000e+00 +0.0000000000e+00 9.1188000000e+01 9.1188000000e+01 7.8435e-15 0.0000e+00
  9900012  1    3    3    0    0 +2.5269188659e+00 +4.2858728497e+01 -6.3535302428e+00 4.7787271044e+01 2.0000000000e+01 2.7223e-01 1.0000e+00
       12  1    3    3    0    0 -2.5269188659e+00 -4.2858728497e+01 +6.3535302428e+00 4.3400728956e+01 0.0000000000e+00 0.0000e+00 -1.0000e+00
</event>
<event>
 5      1 +2.9511900e-02 9.11880000e+01 7.81616400e-03 1.18400000e-01
      -11 -1    0    0    0    0 +0.0000000000e+00 +0.0000000000e+00 +4.5593999997e+01 4.5594000000e+01 5.1100000000e-04 0.0000e+00 -1.0000e+00
       11 -1    0    0    0    0 -0.0000000000e+00 -0.0000000000e+00 -4.5593999997e+01 4.5594000000e+01 5.1100000000e-04 0.0000e+00 1.0000e+00
       23  2    1    2    0    0 +0.0000000000e+00 +0.0000000000e+00 +0.0000000000e+00 9.1188000000e+01 9.1188000000e+01 2.7943e-14 0.0000e+00
  9900012  1    3    3    0    0 +1.1390697657e+01 -3.0139583828e+01 -2.9077151983e+01 4.7787271044e+01 2.0000000000e+01 3.8765e-03 1.0000e+00
       12  1    3    3    0    0 -1.1390697657e+01 +3.0139583828e+01 +2.9077151983e+01 4.3400728956e+01 0.0000000000e+00 0.0000e+00 -1.0000e+00
</event>
<event>
 5      7 +2.9511900e-02 9.11880000e+01 7.81616400e-03 1.18400000e-01
      -11 -1    0    0    0    0 +0.0000000000e+00 +0.0000000000e+00 +4.5593999997e+01 4.5594000000e+01 5.1100000000e-04 0.0000e+00 -1.0000e+00
       11 -1    0    0    0    0 -0.0000000000e+00 -0.0000000000e+00 -4.5593999997e+01 4.5594000000e+01 5.1100000000e-04 0.0000e+00 1.0000e+00
       23  2    1    2    0    0 +0.0000000000e+00 +0.0000000000e+00 +0.0000000000e+00 9.1188000000e+01 9.1188000000e+01 4.9175e-14 0.0000e+00
  9900012  1    3    3    0    0 -8.1331458987e+00 -3.5149039059e+01 -2.4125096163e+01 4.7787271044e+01 2.0000000000e+01 3.8593e-02 1.0000e+00
       12  1    3    3    0    0 +8.1331458987e+00 +3.5149039059e+01 +2.4125096163e+01 4.3400728956e+01 0.0000000000e+00 0.0000e+00 -1.0000e+00
</event>
<event>
 5      3 +2.9511900e-02 9.11880000e+01 7.81616400e-03 1.18400000e-01
      -11 -1    0    0    0    0 +0.0000000000e+00 +0.0000000000e+00 +4.5593999997e+01 4.5594000000e+01 5.1100000000e-04 0.0000e+00 -1.0000e+00
       11 -1    0    0    0    0 -0.0000000000e+00 -0.0000000000e+00 -4.5593999997e+01 4.5594000000e+01 5.1100000000e-04 0.0000e+00 1.0000e+00
       23  2    1    2    0    0 +0.0000000000e+00 +0.0000000000e+00 +0.0000000000e+00 9.1188000000e+01 9.1188000000e+01 1.2172e-13 0.0000e+00
  9900012  1    3    3    0    0 -2.2535145452e+01 +1.9286935471e+01 -3.1682875713e+01 4.7787271044e+01 2.0000000000e+01 3.7848e-01 1.0000e+00
       12  1    3    3    0    0 +2.2535145452e+01 -1.9286935471e+01 +3.1682875713e+01 4.3400728956e+01 0.0000000000e+00 0.0000e+00 -1.0000e+00
</event>
<event>
 5      3 +2.9511900e-02 9.11880000e+01 7.81616400e-03 1.18400000e-01
      -11 -1    0    0    0    0 +0.0000000000e+00 +0.0000000000e+00 +4.5593999997e+01 4.5594000000e+01 5.1100000000e-04 0.0000e+00 -1.0000e+00
       11 -1    0    0    0    0 -0.0000000000e+00 -0.0000000000e+00 -4.5593999997e+01 4.5594000000e+01 5.1100000000e-04 0.0000e+00 1.0000e+00
       23  2    1    2    0    0 +0.0000000000e+00 +0.0000000000e+00 +0.0000000000e+00 9.1188000000e+01 9.1188000000e+01 1.1719e-13 0.0000e+00
  9900012  1    3    3    0    0 +2.5388592085e+01 +3.5198608642e+01 -3.1719948651e-01 4.7787271044e+01 2.0000000000e+01 4.2088e-02 1.0000e+00
       12  1    3    3    0    0 -2.5388592085e+01 -3.5198608642e+01 +3.1719948651e-01 4.3400728956e+01 0.0000000000e+00 0.0000e+00 -1.0000e+00
</event>
<event>
 5      5 +2.9511900e-02 9.11880000e+01 7.81616400e-03 1.18400000e-01
      -11 -1    0    0    0    0 +0.0000000000e+00 +0.0000000000e+00 +4.5593999997e+01 4.5594000000e+01 5.1100000000e-04 0.0000e+00 -1.0000e+00
       11 -1    0    0    0    0 -0.0000000000e+00 -0.0000000000e+00 -4.5593999997e+01 4.5594000000e+01 5.1100000000e-04 0.0000e+00 1.0000e+00
       23  2    1    2    0    0 +0.0000000000e+00 +0.0000000000e+00 +0.0000000000e+00 9.1188000000e+01 9.1188000000e+01 8.3523e-14 0.0000e+00
  9900012  1    3    3    0    0 -4.1375470621e+01 -1.3101359907e+01 -2.1925633525e-01 4.7787271044e+01 2.0000000000e+01 1.9084e-01 1.0000e+00
       12  1    3    3    0    0 +4.1375470621e+01 +1.3101359907e+01 +2.1925633525e-01 4.3400728956e+01 0.0000000000e+00 0.0000e+00 -1.0000e+00
</event>
<event>
 5      1 +2.9511900e-02 9.11880000e+01 7.81616400e-03 1.18400000e-01
      -11 -1    0    0    0    0 +0.0000000000e+00 +0.0000000000e+00 +4.5593999997e+01 4.5594000000e+01 5.1100000000e-04 0.0000e+00 1.0000e+00
       11 -1    0    0    0    0 -0.0000000000e+00 -0.0000000000e+00 -4.5593999997e+01 4.5594000000e+01 5.1100000000e-04 0.0000e+00 -1.0000e+00
       23  2    1    2    0    0 +0.0000000000e+00 +0.0000000000e+00 +0.0000000000e+00 9.1188000000e+01 9.1188000000e+01 5.5644e-14 0.0000e+00
  9900012  1    3    3    0    0 +6.8028786166e+00 -2.9062891938e+01 +3.1507021894e+01 4.7787271044e+01 2.0000000000e+01 1.0662e-01 1.0000e+00
       12  1    3    3    0    0 -6.8028786166e+00 +2.9062891938e+01 -3.1507021894e+01 4.3400728956e+01 0.0000000000e+00 0.0000e+00 -1.0000e+00
</event>
<event>
 5      2 +2.9511900e-02 9.11880000e+01 7.81616400e-03 1.18400000e-01
      -11 -1    0    0    0    0 +0.0000000000e+00 +0.0000000000e+00 +4.5593999997e+01 4.5594000000e+01 5.1100000000e-04 0.0000e+00 1.0000e+00
       11 -1    0    0    0    0 -0.0000000000e+00 -0.0000000000e+00 -4.5593999997e+01 4.5594000000e+01 5.1100000000e-04 0.0000e+00 -1.0000e+00
       23  2    1    2    0    0 +0.0000000000e+00 +0.0000000000e+00 +0.0000000000e+00 9.1188000000e+01 9.1188000000e+01 1.3418e-13 0.0000e+00
  9900012  1    3    3    0    0 -2.4279116932e+01 -4.4768266747e+00 -3.5694618331e+01 4.7787271044e+01 2.0000000000e+01 2.4438e-02 -1.0000e+00
      -12  1    3    3    0    0 +2.4279116932e+01 +4.4768266747e+00 +3.5694618331e+01 4.3400728956e+01 0.0000000000e+00 0.0000e+00 1.0000e+00
</event>
<event>
 5      1 +2.9511900e-02 9.11880000e+01 7.81616400e-03 1.18400000e-01
      -11 -1    0    0    0    0 +0.0000000000e+00 +0.0000000000e+00 +4.5593999997e+01 4.5594000000e+01 5.1100000000e-04 0.0000e+00 -1.0000e+00
       11 -1    0    0    0    0 -0.0000000000e+00 -0.0000000000e+00 -4.5593999997e+01 4.5594000000e+01 5.1100000000e-04 0.0000e+00 1.0000e+00
       23  2    1    2    0    0 +0.0000000000e+00 +0.0000000000e+00 +0.0000000000e+00 9.1188000000e+01 9.1188000000e+01 3.0002e-15 0.0000e+00
  9900012  1    3    3    0    0 -7.0715638650e+00 +3.7030748031e+00 -4.2660326949e+01 4.7787271044e+01 2.0000000000e+01 1.1841e-01 1.0000e+00
       12  1    3    3    0    0 +7.0715638650e+00 -3.7030748031e+00 +4.2660326949e+01 4.3400728956e+01 0.0000000000e+00 0.0000e+00 -1.0000e+00
</event>
<event>
 5      1 +2.9511900e-02 9.11880000e+01 7.81616400e-03 1.18400000e-01
      -11 -1    0    0    0    0 +0.0000000000e+00 +0.0000000000e+00 +4.5593999997e+01 4.5594000000e+01 5.1100000000e-04 0.0000e+00 -1.0000e+00
       11 -1    0    0    0    0 -0.0000000000e+00 -0.0000000000e+00 -4.5593999997e+01 4.5594000000e+01 5.1100000000e-04 0.0000e+00 1.0000e+00
       23  2    1    2    0    0 +0.0000000000e+00 +0.0000000000e+00 +0.0000000000e+00 9.1188000000e+01 9.1188000000e+01 2.1175e-13 0.0000e+00
  9900012  1    3    3    0    0 -1.0984949130e+01 -3.8207415199e+01 -1.7411134091e+01 4.7787271044e+01 2.0000000000e+01 1.1118e-02 1.0000e+00
       12  1    3    3    0    0 +1.0984949130e+01 +3.8207415199e+01 +1.7411134091e+01 4.3400728956e+01 0.0000000000e+00 0.0000e+00 -1.0000e+00
</event>
<event>
 5      7 +2.9511900e-02 9.11880000e+01 7.81616400e-03 1.18400000e-01
      -11 -1    0    0    0    0 +0.0000000000e+00 +0.0000000000e+00 +4.5593999997e+01 4.5594000000e+01 5.1100000000e-04 0.0000e+00 -1.0000e+00
       11 -1    0    0    0    0 -0.0000000000e+00 -0.0000000000e+00 -4.5593999997e+01 4.5594000000e+01 5.1100000000e-04 0.0000e+00 1.0000e+00
       23  2    1    2    0    0 +0.0000000000e+00 +0.0000000000e+00 +0.0000000000e+00 9.1188000000e+01 9.1188000000e+01 7.6000e-14 0.0000e+00
  9900012  1    3    3    0    0 -7.2023669911e-01 -4.0809826246e+01 -1.4753393331e+01 4.7787271044e+01 2.0000000000e+01 4.2137e-01 1.0000e+00
       12  1    3    3    0    0 +7.2023669911e-01 +4.0809826246e+01 +1.4753393331e+01 4.3400728956e+01 0.0000000000e+00 0.0000e+00 -1.0000e+00
</event>
<event>
 5      7 +2.9511900e-02 9.11880000e+01 7.81616400e-03 1.18400000e-01
      -11 -1    0    0    0    0 +0.0000000000e+00 +0.0000000000e+00 +4.5593999997e+01 4.5594000000e+01 5.1100000000e-04 0.0000e+00 1.0000e+00
       11 -1    0    0    0    0 -0.0000000000e+00 -0.0000000000e+00 -4.5593999997e+01 4.5594000000e+01 5.1100000000e-04 0.0000e+00 -1.0000e+00
       23  2    1    2    0    0 +0.0000000000e+00 +0.0000000000e+00 +0.0000000000e+00 9.1188000000e+01 9.1188000000e+01 9.1668e-14 0.0000e+00
  9900012  1    3    3    0    0 -2.2249393014e+00 -1.6778113223e+01 +3.9964582265e+01 4.7787271044e+01 2.0000000000e+01 2.8590e-02 1.0000e+00
       12  1    3    3    0    0 +2.2249393014e+00 +1.6778113223e+01 -3.9964582265e+01 4.3400728956e+01 0.0000000000e+00 0.0000e+00 -1.0000e+00
</event>
<event>
 5      2 +2.9511900e-02 9.11880000e+01 7.81616400e-03 1.18400000e-01
      -11 -1    0    0    0    0 +0.0000000000e+00 +0.0000000000e+00 +4.5593999997e+01 4.5594000000e+01 5.1100000000e-04 0.0000e+00 1.0000e+00
       11 -1    0    0    0    0 -0.0000000000e+00 -0.0000000000e+00 -4.5593999997e+01 4.5594000000e+01 5.1100000000e-04 0.0000e+00 -1.0000e+00
       23  2    1    2    0    0 +0.0000000000e+00 +0.0000000000e+00 +0.0000000000e+00 9.1188000000e+01 9.1188000000e+01 2.3731e-13 0.0000e+00
  9900012  1    3    3    0    0 -2.7102707299e+00 +1.6000685859e+01 -4.0252400655e+01 4.7787271044e+01 2.0000000000e+01 9.0188e-02 -1.0000e+00
      -12  1    3    3    0    0 +2.7102707299e+00 -1.6000685859e+01 +4.0252400655e+01 4.3400728956e+01 0.0000000000e+00 0.0000e+00 1.0000e+00
</event>
<event>
 5      2 +2.9511900e-02 9.11880000e+01 7.81616400e-03 1.18400000e-01
      -11 -1    0    0    0    0 +0.0000000000e+00 +0.0000000000e+00 +4.5593999997e+01 4.5594000000e+01 5.1100000000e-04 0.0000e+00 -1.0000e+00
       11 -1    0    0    0    0 -0.0000000000e+00 -0.0000000000e+00 -4.5593999997e+01 4.5594000000e+01 5.1100000000e-04 0.0000e+00 1.0000e+00
       23  2    1    2    0    0 +0.0000000000e+00 +0.0000000000e+00 +0.0000000000e+00 9.1188000000e+01 9.1188000000e+01 1.2307e-13 0.0000e+00
  9900012  1    3    3    0    0 +4.0690467641e+01 -9.0169606176e+00 +1.2107994808e+01 4.7787271044e+01 2.0000000000e+01 4.6217e-02 -1.0000e+00
      -12  1    3    3    0    0 -4.0690467641e+01 +9.0169606176e+00 -1.2107994808e+01 4.3400728956e+01 0.0000000000e+00 0.0000e+00 1.0000e+00
</event>
<event>
 5      1 +2.9511900e-02 9.11880000e+01 7.81616400e-03 1.18400000e-01
      -11 -1    0    0    0    0 +0.0000000000e+00 +0.0000000000e+00 +4.5593999997e+01 4.5594000000e+01 5.1100000000e-04 0.0000e+00 1.0000e+00
       11 -1    0    0    0    0 -0.0000000000e+00 -0.0000000000e+00 -4.5593999997e+01 4.5594000000e+01 5.1100000000e-04 0.0000e+00 -1.0000e+00
       23  2    1    2    0    0 +0.0000000000e+00 +0.0000000000e+00 +0.0000000000e+00 9.1188000000e+01 9.1188000000e+01 9.8640e-14 0.0000e+00
  9900012  1    3    3    0    0 +3.9208631436e+01 -1.1441141433e+01 -1.4676742741e+01 4.7787271044e+01 2.0000000000e+01 1.8519e-01 -1.0000e+00
       12  1    3    3    0    0 -3.9208631436e+01 +1.1441141433e+01 +1.4676742741e+01 4.3400728956e+01 0.0000000000e+00 0.0000e+00 -1.0000e+00
</event>
<event>
 5      3 +2.9511900e-02 9.11880000e+01 7.81616400e-03 1.18400000e-01
      -11 -1    0    0    0    0 +0.0000000000e+00 +0.0000000000e+00 +4.5593999997e+01 4.5594000000e+01 5.1100000000e-04 0.0000e+00 -1.0000e+00
       11 -1    0    0    0    0 -0.0000000000e+00 -0.0000000000e+00 -4.5593999997e+01 4.5594000000e+01 5.1100000000e-04 0.0000e+00 1.0000e+00
       23  2    1    2    0    0 +0.0000000000e+00 +0.0000000000e+00 +0.0000000000e+00 9.1188000000e+01 9.1188000000e+01 1.1508e-14 0.0000e+00
  9900012  1    3    3    0    0 +3.9027057721e+01 -4.2618773770e+00 -1.8502660369e+01 4.7787271044e+01 2.0000000000e+01 1.6931e-01 1.0000e+00
       12  1    3    3    0    0 -3.9027057721e+01 +4.2618773770e+00 +1.8502660369e+01 4.3400728956e+01 0.0000000000e+00 0.0000e+00 -1.0000e+00
</event>
<event>
 5      5 +2.9511900e-02 9.11880000e+01 7.81616400e-03 1.18400000e-01
      -11 -1    0    0    0    0 +0.0000000000e+00 +0.0000000000e+00 +4.5593999997e+01 4.5594000000e+01 5.1100000000e-04 0.0000e+00 1.0000e+00
       11 -1    0    0    0    0 -0.0000000000e+00 -0.0000000000e+00 -4.5593999997e+01 4.5594000000e+01 5.1100000000e-04 0.0000e+00 -1.0000e+00
       23  2    1    2    0    0 +0.0000000000e+00 +0.0000000000e+00 +0.0000000000e+00 9.1188000000e+01 9.1188000000e+01 7.1178e-14 0.0000e+00
  9900012  1    3    3    0    0 -4.1005596116e+01 +1.1324653032e+01 +8.5974760676e+00 4.7787271044e+01 2.0000000000e+01 3.2149e-02 1.0000e+00
       12  1    3    3    0    0 +4.1005596116e+01 -1.1324653032e+01 -8.5974760676e+00 4.3400728956e+01 0.0000000000e+00 0.0000e+00 -1.0000e+00
</event>
<event>
 5      7 +2.9511900e-02 9.11880000e+01 7.81616400e-03 1.18400000e-01
      -11 -1    0    0    0    0 +0.0000000000e+00 +0.0000000000e+00 +4.5593999997e+01 4.5594000000e+01 5.1100000000e-04 0.0000e+00 -1.0000e+00
       11 -1    0    0    0    0 -0.0000000000e+00 -0.0000000000e+00 -4.5593999997e+01 4.5594000000e+01 5.1100000000e-04 0.0000e+00 1.0000e+00
       23  2    1    2    0    0 +0.0000000000e+00 +0.0000000000e+00 +0.0000000000e+00 9.1188000000e+01 9.1188000000e+01 1.0110e-13 0.0000e+00
  9900012  1    3    3    0    0 -9.0732595668e+00 +2.0090069047e+01 -3.7385670522e+01 4.7787271044e+01 2.0000000000e+01 4.1734e-01 1.0000e+00
       12  1    3    3    0    0 +9.0732595668e+00 -2.0090069047e+01 +3.7385670522e+01 4.3400728956e+01 0.0000000000e+00 0.0000e+00 -1.0000e+00
</event>
<event>
 5      7 +2.9511900e-02 9.11880000e+01 7.81616400e-03 1.18400000e-01
      -11 -1    0    0    0    0 +0.0000000000e+00 +0.0000000000e+00 +4.5593999997e+01 4.5594000000e+01 5.1100000000e-04 0.0000e+00 -1.0000e+00
       11 -1    0    0    0    0 -0.0000000000e+00 -0.0000000000e+00 -4.5593999997e+01 4.5594000000e+01 5.1100000000e-04 0.0000e+00 1.0000e+00
       23  2    1    2    0    0 +0.0000000000e+00 +0.0000000000e+00 +0.0000000000e+00 9.1188000000e+01 9.1188000000e+01 2.5807e-14 0.0000e+00
  9900012  1    3    3    0    0 +3.8185265701e+01 -2.0042743335e+01 -4.8782370658e+00 4.7787271044e+01 2.0000000000e+01 3.4853e-02 1.0000e+00
       12  1    3    3    0    0 -3.8185265701e+01 +2.0042743335e+01 +4.8782370658e+00 4.3400728956e+01 0.0000000000e+00 0.0000e+00 -1.0000e+00
</event>
<event>
 5      4 +2.9511900e-02 9.11880000e+01 7.81616400e-03 1.18400000e-01
      -11 -1    0    0    0    0 +0.0000000000e+00 +0.0000000000e+00 +4.5593999997e+01 4.5594000000e+01 5.1100000000e-04 0.0000e+00 1.0000e+00
       11 -1    0    0    0    0 -0.0000000000e+00 -0.0000000000e+00 -4.5593999997e+01 4.5594000000e+01 5.1100000000e-04 0.0000e+00 -1.0000e+00
       23  2    1    2    0    0 +0.0000000000e+00 +0.0000000000e+00 +0.0000000000e+00 9.1188000000e+01 9.1188000000e+01 9.2902e-14 0.0000e+00
  9900012  1    3    3    0    0 +3.5111863509e+01 -1.8117053736e+01 -1.7959751634e+01 4.7787271044e+01 2.0000000000e+01 1.0037e-01 -1.0000e+00
      -12  1    3    3    0    0 -3.5111863509e+01 +1.8117053736e+01 +1.7959751634e+01 4.3400728956e+01 0.0000000000e+00 0.0000e+00 1.0000e+00
</event>
<event>
 5      5 +2.9511900e-02 9.11880000e+01 7.81616400e-03 1.18400000e-01
      -11 -1    0    0    0    0 +0.0000000000e+00 +0.0000000000e+00 +4.5593999997e+01 4.5594000000e+01 5.1100000000e-04 0.0000e+00 1.0000e+00
       11 -1    0    0    0    0 -0.0000000000e+00 -0.0000000000e+00 -4.5593999997e+01 4.5594000000e+01 5.1100000000e-04 0.0000e+00 -1.0000e+00
       23  2    1    2    0    0 +0.0000000000e+00 +0.0000000000e+00 +0.0000000000e+00 9.1188000000e+01 9.1188000000e+01 4.4055e-14 0.0000e+00
  9900012  1    3    3    0    0 -2.5008217696e+01 +2.3306740147e+01 +2.6739636970e+01 4.7787271044e+01 2.0000000000e+01 2.1330e-01 1.0000e+00
       12  1    3    3    0    0 +2.5008217696e+01 -2.3306740147e+01 -2.6739636970e+01 4.3400728956e+01 0.0000000000e+00 0.0000e+00 -1.0000e+00
</event>
<event>
 5      6 +2.9511900e-02 9.11880000e+01 7.81616400e-03 1.18400000e-01
      -11 -1    0    0    0    0 +0.0000000000e+00 +0.0000000000e+00 +4.5593999997e+01 4.5594000000e+01 5.1100000000e-04 0.0000e+00 1.0000e+00
       11 -1    0    0    0    0 -0.0000000000e+00 -0.0000000000e+00 -4.5593999997e+01 4.5594000000e+01 5.1100000000e-04 0.0000e+00 -1.0000e+00
       23  2    1    2    0    0 +0.0000000000e+00 +0.0000000000e+00 +0.0000000000e+00 9.1188000000e+01 9.1188000000e+01 6.4068e-15 0.0000e+00
  9900012  1    3    3    0    0 -8.1072770036e+00 -1.7095058840e+01 -3.9059624892e+01 4.7787271044e+01 2.0000000000e+01 2.9626e-02 -1.0000e+00
      -12  1    3    3    0    0 +8.1072770036e+00 +1.7095058840e+01 +3.9059624892e+01 4.3400728956e+01 0.0000000000e+00 0.0000e+00 1.0000e+00
</event>
<event>
 5      3 +2.9511900e-02 9.11880000e+01 7.81616400e-03 1.18400000e-01
      -11 -1    0    0    0    0 +0.0000000000e+00 +0.0000000000e+00 +4.5593999997e+01 4.5594000000e+01 5.1100000000e-04 0.0000e+00 1.0000e+00
       11 -1    0    0    0    0 -0.0000000000e+00 -0.0000000000e+00 -4.5593999997e+01 4.5594000000e+01 5.1100000000e-04 0.0000e+00 -1.0000e+00
       23  2    1    2    0    0 +0.0000000000e+00 +0.0000000000e+00 +0.0000000000e+00 9.1188000000e+01 9.1188000000e+01 3.9926e-15 0.0000e+00
  9900012  1    3    3    0    0 -1.6476797177e+00 -1.4156561878e+01 +4.0993904196e+01 4.7787271044e+01 2.0000000000e+01 5.2745e-02 1.0000e+00
       12  1    3    3    0    0 +1.6476797177e+00 +1.4156561878e+01 -4.0993904196e+01 4.3400728956e+01 0.0000000000e+00 0.0000e+00 -1.0000e+00
</event>
<event>
 5      8 +2.9511900e-02 9.11880000e+01 7.81616400e-03 1.18400000e-01
      -11 -1    0    0    0    0 +0.0000000000e+00 +0.0000000000e+00 +4.5593999997e+01 4.5594000000e+01 5.1100000000e-04 0.0000e+00 1.0000e+00
       11 -1    0    0    0    0 -0.0000000000e+00 -0.0000000000e+00 -4.5593999997e+01 4.5594000000e+01 5.1100000000e-04 0.0000e+00 -1.0000e+00
       23  2    1    2    0    0 +0.0000000000e+00 +0.0000000000e+00 +0.0000000000e+00 9.1188000000e+01 9.1188000000e+01 9.9533e-14 0.0000e+00
  9900012  1    3    3    0    0 -5.1093887870e-01 +3.5350322612e+01 -2.5173734458e+01 4.7787271044e+01 2.0000000000e+01 2.2399e-01 -1.0000e+00
      -12  1    3    3    0    0 +5.1093887870e-01 -3.5350322612e+01 +2.5173734458e+01 4.3400728956e+01 0.0000000000e+00 0.0000e+00 1.0000e+00
</event>
<event>
 5      3 +2.9511900e-02 9.11880000e+01 7.81616400e-03 1.18400000e-01
      -11 -1    0    0    0    0 +0.0000000000e+00 +0.0000000000e+00 +4.5593999997e+01 4.5594000000e+01 5.1100000000e-04 0.0000e+00 1.0000e+00
       11 -1    0    0    0    0 -0.0000000000e+00 -0.0000000000e+00 -4.5593999997e+01 4.5594000000e+01 5.1100000000e-04 0.0000e+00 -1.0000e+00
       23  2    1    2    0    0 +0.0000000000e+00 +0.0000000000e+00 +0.0000000000e+00 9.1188000000e+01 9.1188000000e+01 1.6932e-13 0.0000e+00
  9900012  1    3    3    0    0 -1.6800484973e+01 -3.4588826814e+01 +2.0124115837e+01 4.7787271044e+01 2.0000000000e+01 1.0986e-01 1.0000e+00
       12  1    3    3    0    0 +1.6800484973e+01 +3.4588826814e+01 -2.0124115837e+01 4.3400728956e+01 0.0000000000e+00 0.0000e+00 -1.0000e+00
</event>
<event>
 5      1 +2.9511900e-02 9.11880000e+01 7.81616400e-03 1.18400000e-01
      -11 -1    0    0    0    0 +0.0000000000e+00 +0.0000000000e+00 +4.5593999997e+01 4.5594000000e+01 5.1100000000e-04 0.0000e+00 -1.0000e+00
       11 -1    0    0    0    0 -0.0000000000e+00 -0.0000000000e+00 -4.5593999997e+01 4.5594000000e+01 5.1100000000e-04 0.0000e+00 1.0000e+00
       23  2    1    2    0    0 +0.0000000000e+00 +0.0000000000e+00 +0.0000000000e+00 9.1188000000e+01 9.1188000000e+01 1.5573e-14 0.0000e+00
  9900012  1    3    3    0    0 -3.5155903699e+01 +1.0644930896e+01 -2.3116469350e+01 4.7787271044e+01 2.0000000000e+01 2.8534e-01 1.0000e+00
       12  1    3    3    0    0 +3.5155903699e+01 -1.0644930896e+01 +2.3116469350e+01 4.3400728956e+01 0.0000000000e+00 0.0000e+00 -1.0000e+00
</event>
<event>
 5      7 +2.9511900e-02 9.11880000e+01 7.81616400e-03 1.18400000e-01
      -11 -1    0    0    0    0 +0.0000000000e+00 +0.0000000000e+00 +4.5593999997e+01 4.5594000000e+01 5.1100000000e-04 0.0000e+00 -1.0000e+00
       11 -1    0    0    0    0 -0.0000000000e+00 -0.0000000000e+00 -4.5593999997e+01 4.5594000000e+01 5.1100000000e-04 0.0000e+00 1.0000e+00
       23  2    1    2    0    0 +0.0000000000e+00 +0.0000000000e+00 +0.0000000000e+00 9.1188000000e+01 9.1188000000e+01 6.7160e-14 0.0000e+00
  9900012  1    3    3    0    0 -2.3596690432e+01 +1.8440998691e+01 -3.1412561848e+01 4.7787271044e+01 2.0000000000e+01 4.6347e-02 1.0000e+00
       12  1    3    3    0    0 +2.3596690432e+01 -1.8440998691e+01 +3.1412561848e+01 4.3400728956e+01 0.0000000000e+00 0.0000e+00 -1.0000e+00
</event>
<event>
 5      4 +2.9511900e-02 9.11880000e+01 7.81616400e-03 1.18400000e-01
      -11 -1    0    0    0    0 +0.0000000000e+00 +0.0000000000e+00 +4.5593999997e+01 4.5594000000e+01 5.1100000000e-04 0.0000e+00 1.0000e+00
       11 -1    0    0    0    0 -0.0000000000e+00 -0.0000000000e+00 -4.5593999997e+01 4.5594000000e+01 5.1100000000e-04 0.0000e+00 -1.0000e+00
       23  2    1    2    0    0 +0.0000000000e+00 +0.0000000000e+00 +0.0000000000e+00 9.1188000000e+01 9.1188000000e+01 9.0637e-14 0.0000e+00
  9900012  1    3    3    0    0 -3.2202142343e+01 -2.9050853577e+01 +1.6410998955e+00 4.7787271044e+01 2.0000000000e+01 3.1080e-01 -1.0000e+00
      -12  1    3    3    0    0 +3.2202142343e+01 +2.9050853577e+01 -1.6410998955e+00 4.3400728956e+01 0.0000000000e+00 0.0000e+00 1.0000e+00
</event>
<event>
 5      6 +2.9511900e-02 9.11880000e+01 7.81616400e-03 1.18400000e-01
      -11 -1    0    0    0    0 +0.0000000000e+00 +0.0000000000e+00 +4.5593999997e+01 4.5594000000e+01 5.1100000000e-04 0.0000e+00 1.0000e+00
       11 -1    0    0    0    0 -0.0000000000e+00 -0.0000000000e+00 -4.5593999997e+01 4.5594000000e+01 5.1100000000e-04 0.0000e+00 -1.0000e+00
       23  2    1    2    0    0 +0.0000000000e+00 +0.0000000000e+00 +0.0000000000e+00 9.1188000000e+01 9.1188000000e+01 1.3943e-13 0.0000e+00
  9900012  1    3    3    0    0 +1.4705989803e+01 -3.8875393906e+00 -4.0647806525e+01 4.7787271044e+01 2.0000000000e+01 2.4411e-01 -1.0000e+00
      -12  1    3    3    0    0 -1.4705989803e+01 +3.8875393906e+00 +4.0647806525e+01 4.3400728956e+01 0.0000000000e+00 0.0000e+00 1.0000e+00
</event>
<event>
 5      3 +2.9511900e-02 9.11880000e+01 7.81616400e-03 1.18400000e-01
      -11 -1    0    0    0    0 +0.0000000000e+00 +0.0000000000e+00 +4.5593999997e+01 4.5594000000e+01 5.1100000000e-04 0.0000e+00 1.0000e+00
       11 -1    0    0    0    0 -0.0000000000e+00 -0.0000000000e+00 -4.5593999997e+01 4.5594000000e+01 5.1100000000e-04 0.0000e+00 -1.0000e+00
       23  2    1    2    0    0 +0.0000000000e+00 +0.0000000000e+00 +0.0000000000e+00 9.1188000000e+01 9.1188000000e+01 1.2850e-14 0.0000e+00
  9900012  1    3    3    0    0 +3.6876962330e+01 -4.2941270377e+00 +2.2478287217e+01 4.7787271044e+01 2.0000000000e+01 3.7581e-02 1.0000e+00
       12  1    3    3    0    0 -3.6876962330e+01 +4.2941270377e+00 -2.2478287217e+01 4.3400728956e+01 0.0000000000e+00 0.0000e+00 -1.0000e+00
</event>
<event>
 5      1 +2.9511900e-02 9.11880000e+01 7.81616400e-03 1.18400000e-01
      -11 -1    0    0    0    0 +0.0000000000e+00 +0.0000000000e+00 +4.5593999997e+01 4.5594000000e+01 5.1100000000e-04 0.0000e+00 1.0000e+00
       11 -1    0    0    0    0 -0.0000000000e+00 -0.0000000000e+00 -4.5593999997e+01 4.5594000000e+01 5.1100000000e-04 0.0000e+00 -1.0000e+00
       23  2    1    2    0    0 +0.0000000000e+00 +0.0000000000e+00 +0.0000000000e+00 9.1188000000e+01 9.1188000000e+01 4.7525e-15 0.0000e+00
  9900012  1    3    3    0    0 -3.3559440295e+01 +1.1669548766e+01 +2.4924062120e+01 4.7787271044e+01 2.0000000000e+01 5.5580e-02 1.0000e+00
       12  1    3    3    0    0 +3.3559440295e+01 -1.1669548766e+01 -2.4924062120e+01 4.3400728956e+01 0.0000000000e+00 0.0000e+00 -1.0000e+00
</event>
<event>
 5      5 +2.9511900e-02 9.11880000e+01 7.81616400e-03 1.18400000e-01
      -11 -1    0    0    0    0 +0.0000000000e+00 +0.0000000000e+00 +4.5593999997e+01 4.5594000000e+01 5.1100000000e-04 0.0000e+00 -1.0000e+00
       11 -1    0    0    0    0 -0.0000000000e+00 -0.0000000000e+00 -4.5593999997e+01 4.5594000000e+01 5.1100000000e-04 0.0000e+00 1.0000e+00
       23  2    1    2    0    0 +0.0000000000e+00 +0.0000000000e+00 +0.0000000000e+00 9.1188000000e+01 9.1188000000e+01 1.0305e-15 0.0000e+00
  9900012  1    3    3    0    0 +3.0323937298e+01 +1.3133836047e+01 -2.8135110650e+01 4.7787271044e+01 2.0000000000e+01 1.5985e-01 1.0000e+00
       12  1    3    3    0    0 -3.0323937298e+01 -1.3133836047e+01 +2.8135110650e+01 4.3400728956e+01 0.0000000000e+00 0.0000e+00 -1.0000e+00
</event>
<event>
 5      1 +2.9511900e-02 9.11880000e+01 7.81616400e-03 1.18400000e-01
      -11 -1    0    0    0    0 +0.0000000000e+00 +0.0000000000e+00 +4.5593999997e+01 4.5594000000e+01 5.1100000000e-04 0.0000e+00 1.0000e+00
       11 -1    0    0    0    0 -0.0000000000e+00 -0.0000000000e+00 -4.5593999997e+01 4.5594000000e+01 5.1100000000e-04 0.0000e+00 -1.0000e+00
       23  2    1    2    0    0 +0.0000000000e+00 +0.0000000000e+00 +0.0000000000e+00 9.1188000000e+01 9.1188000000e+01 7.3712e-14 0.0000e+00
  9900012  1    3    3    0    0 -8.0217155434e+00 -3.9732671240e+01 +1.5510969981e+01 4.7787271044e+01 2.0000000000e+01 8.8241e-02 1.0000e+00
       12  1    3    3    0    0 +8.0217155434e+00 +3.9732671240e+01 -1.5510969981e+01 4.3400728956e+01 0.0000000000e+00 0.0000e+00 -1.0000e+00
</event>
<event>
 5      2 +2.9511900e-02 9.11880000e+01 7.81616400e-03 1.18400000e-01
      -11 -1    0    0    0    0 +0.0000000000e+00 +0.0000000000e+00 +4.5593999997e+01 4.5594000000e+01 5.1100000000e-04 0.0000e+00 -1.0000e+00
       11 -1    0    0    0    0 -0.0000000000e+00 -0.0000000000e+00 -4.5593999997e+01 4.5594000000e+01 5.1100000000e-04 0.0000e+00 1.0000e+00
       23  2    1    2    0    0 +0.0000000000e+00 +0.0000000000e+00 +0.0000000000e+00 9.1188000000e+01 9.1188000000e+01 1.1329e-14 0.0000e+00
  9900012  1    3    3    0    0 -5.7387110137e+00 +3.3256190188e+01 +2.7289490358e+01 4.7787271044e+01 2.0000000000e+01 1.3619e-01 -1.0000e+00
      -12  1    3    3    0    0 +5.7387110137e+00 -3.3256190188e+01 -2.7289490358e+01 4.3400728956e+01 0.0000000000e+00 0.0000e+00 1.0000e+00
</event>
<event>
 5      2 +2.9511900e-02 9.11880000e+01 7.81616400e-03 1.18400000e-01
      -11 -1    0    0    0    0 +0.0000000000e+00 +0.0000000000e+00 +4.5593999997e+01 4.5594000000e+01 5.1100000000e-04 0.0000e+00 1.0000e+00
       11 -1    0    0    0    0 -0.0000000000e+00 -0.0000000000e+00 -4.5593999997e+01 4.5594000000e+01 5.1100000000e-04 0.0000e+00 -1.0000e+00
       23  2    1    2    0    0 +0.0000000000e+00 +0.0000000000e+00 +0.0000000000e+00 9.1188000000e+01 9.1188000000e+01 6.9937e-14 0.0000e+00
  9900012  1    3    3    0    0 +1.9200760623e+01 +3.4316318417e+01 -1.8366936480e+01 4.7787271044e+01 2.0000000000e+01 4.3806e-02 -1.0000e+00
      -12  1    3    3    0    0 -1.9200760623e+01 -3.4316318417e+01 +1.8366936480e+01 4.3400728956e+01 0.0000000000e+00 0.0000e+00 1.0000e+00
</event>
<event>
 5      6 +2.9511900e-02 9.11880000e+01 7.81616400e-03 1.18400000e-01
      -11 -1    0    0    0    0 +0.0000000000e+00 +0.0000000000e+00 +4.5593999997e+01 4.5594000000e+01 5.1100000000e-04 0.0000e+00 -1.0000e+00
       11 -1    0    0    0    0 -0.0000000000e+00 -0.0000000000e+00 -4.5593999997e+01 4.5594000000e+01 5.1100000000e-04 0.0000e+00 1.0000e+00
       23  2    1    2    0    0 +0.0000000000e+00 +0.0000000000e+00 +0.0000000000e+00 9.1188000000e+01 9.1188000000e+01 1.4641e-13 0.0000e+00
  9900012  1    3    3    0    0 -4.0285551145e+01 +1.3374804125e+01 +9.0450128490e+00 4.7787271044e+01 2.0000000000e+01 2.3285e-02 -1.0000e+00
      -12  1    3    3    0    0 +4.0285551145e+01 -1.3374804125e+01 -9.0450128490e+00 4.3400728956e+01 0.0000000000e+00 0.0000e+00 1.0000e+00
</event>
<event>
 5      2 +2.9511900e-02 9.11880000e+01 7.81616400e-03 1.18400000e-01
      -11 -1    0    0    0    0 +0.0000000000e+00 +0.0000000000e+00 +4.5593999997e+01 4.5594000000e+01 5.1100000000e-04 0.0000e+00 1.0000e+00
       11 -1    0    0    0    0 -0.0000000000e+00 -0.0000000000e+00 -4.5593999997e+01 4.5594000000e+01 5.1100000000e-04 0.0000e+00 -1.0000e+00
       23  2    1    2    0    0 +0.0000000000e+00 +0.0000000000e+00 +0.0000000000e+00 9.1188000000e+01 9.1188000000e+01 3.5706e-14 0.0000e+00
  9900012  1    3    3    0    0 -2.0033594468e-01 -3.0729646665e+01 -3.0647544033e+01 4.7787271044e+01 2.0000000000e+01 2.0617e-01 -1.0000e+00
      -12  1    3    3    0    0 +2.0033594468e-01 +3.0729646665e+01 +3.0647544033e+01 4.3400728956e+01 0.0000000000e+00 0.0000e+00 1.0000e+00
</event>
<event>
 5      8 +2.9511900e-02 9.11880000e+01 7.81616400e-03 1.18400000e-01
      -11 -1    0    0    0    0 +0.0000000000e+00 +0.0000000000e+00 +4.5593999997e+01 4.5594000000e+01 5.1100000000e-04 0.0000e+00 1.0000e+00
       11 -1    0    0    0    0 -0.0000000000e+00 -0.0000000000e+00 -4.5593999997e+01 4.5594000000e+01 5.1100000000e-04 0.0000e+00 -1.0000e+00
       23  2    1    2    0    0 +0.0000000000e+00 +0.0000000000e+00 +0.0000000000e+00 9.1188000000e+01 9.1188000000e+01 1.1312e-13 0.0000e+00
  9900012  1    3    3    0    0 +3.4632101306e+01 +2.6103524836e+01 -1.6872534394e+00 4.7787271044e+01 2.0000000000e+01 1.9071e-01 -1.0000e+00
      -12  1    3    3    0    0 -3.4632101306e+01 -2.6103524836e+01 +1.6872534394e+00 4.3400728956e+01 0.0000000000e+00 0.0000e+00 1.0000e+00
</event>
<event>
 5      6 +2.9511900e-02 9.11880000e+01 7.81616400e-03 1.18400000e-01
      -11 -1    0    0    0    0 +0.0000000000e+00 +0.0000000000e+00 +4.5593999997e+01 4.5594000000e+01 5.1100000000e-04 0.0000e+00 -1.0000e+00
       11 -1    0    0    0    0 -0.0000000000e+00 -0.0000000000e+00 -4.5593999997e+01 4.5594000000e+01 5.1100000000e-04 0.0000e+00 1.0000e+00
       23  2    1    2    0    0 +0.0000000000e+00 +0.0000000000e+00 +0.0000000000e+00 9.1188000000e+01 9.1188000000e+01 1.3518e-13 0.0000e+00
  9900012  1    3    3    0    0 -1.2848426214e+01 +4.1350279087e+01 +2.9488365651e+00 4.7787271044e+01 2.0000000000e+01 1.9564e-01 -1.0000e+00
      -12  1    3    3    0    0 +1.2848426214e+01 -4.1350279087e+01 -2.9488365651e+00 4.3400728956e+01 0.0000000000e+00 0.0000e+00 1.0000e+00
</event>
<event>
 5      7 +2.9511900e-02 9.11880000e+01 7.81616400e-03 1.18400000e-01
      -11 -1    0    0    0    0 +0.0000000000e+00 +0.0000000000e+00 +4.5593999997e+01 4.5594000000e+01 5.1100000000e-04 0.0000e+00 1.0000e+00
       11 -1    0    0    0    0 -0.0000000000e+00 -0.0000000000e+00 -4.5593999997e+01 4.5594000000e+01 5.1100000000e-04 0.0000e+00 -1.0000e+00
       23  2    1    2    0    0 +0.0000000000e+00 +0.0000000000e+00 +0.0000000000e+00 9.1188000000e+01 9.1188000000e+01 4.2144e-14 0.0000e+00
  9900012  1    3    3    0    0 +2.9679265550e+01 -4.5920814071e+00 +3.1331729263e+01 4.7787271044e+01 2.0000000000e+01 4.8181e-03 1.0000e+00
       12  1    3    3    0    0 -2.9679265550e+01 +4.5920814071e+00 -3.1331729263e+01 4.3400728956e+01 0.0000000000e+00 0.0000e+00 -1.0000e+00
</event>
<event>
 5      8 +2.9511900e-02 9.11880000e+01 7.81616400e-03 1.18400000e-01
      -11 -1    0    0    0    0 +0.0000000000e+00 +0.0000000000e+00 +4.5593999997e+01 4.5594000000e+01 5.1100000000e-04 0.0000e+00 1.0000e+00
       11 -1    0    0    0    0 -0.0000000000e+00 -0.0000000000e+00 -4.5593999997e+01 4.5594000000e+01 5.1100000000e-04 0.0000e+00 -1.0000e+00
       23  2    1    2    0    0 +0.0000000000e+00 +0.0000000000e+00 +0.0000000000e+00 9.1188000000e+01 9.1188000000e+01 7.6855e-14 0.0000e+00
  9900012  1    3    3    0    0 +3.2702016980e+01 -2.4657320519e+00 -2.8427478340e+01 4.7787271044e+01 2.0000000000e+01 9.1393e-02 -1.0000e+00
      -12  1    3    3    0    0 -3.2702016980e+01 +2.4657320519e+00 +2.8427478340e+01 4.3400728956e+01 0.0000000000e+00 0.0000e+00 1.0000e+00
</event>
<event>
 5      5 +2.9511900e-02 9.11880000e+01 7.81616400e-03 1.18400000e-01
      -11 -1    0    0    0    0 +0.0000000000e+00 +0.0000000000e+00 +4.5593999997e+01 4.5594000000e+01 5.1100000000e-04 0.0000e+00 1.0000e+00
       11 -1    0    0    0    0 -0.0000000000e+00 -0.0000000000e+00 -4.5593999997e+01 4.5594000000e+01 5.1100000000e-04 0.0000e+00 -1.0000e+00
       23  2    1    2    0    0 +0.0000000000e+00 +0.0000000000e+00 +0.0000000000e+00 9.1188000000e+01 9.1188000000e+01 3.8953e-17 0.0000e+00
  9900012  1    3    3    0    0 +6.4079894205e+00 -2.8713464145e+01 +3.1907646768e+01 4.7787271044e+01 2.0000000000e+01 2.3221e-02 1.0000e+00
       12  1    3    3    0    0 -6.4079894205e+00 +2.8713464145e+01 -3.1907646768e+01 4.3400728956e+01 0.0000000000e+00 0.0000e+00 -1.0000e+00
</event>
<event>
 5      5 +2.9511900e-02 9.11880000e+01 7.81616400e-03 1.18400000e-01
      -11 -1    0    0    0    0 +0.0000000000e+00 +0.0000000000e+00 +4.5593999997e+01 4.5594000000e+01 5.1100000000e-04 0.0000e+00 1.0000e+00
       11 -1    0    0    0    0 -0.0000000000e+00 -0.0000000000e+00 -4.5593999997e+01 4.5594000000e+01 5.1100000000e-04 0.0000e+00 -1.0000e+00
       23  2    1    2    0    0 +0.0000000000e+00 +0.0000000000e+00 +0.0000000000e+00 9.1188000000e+01 9.1188000000e+01 5.8511e-14 0.0000e+00
  9900012  1    3    3    0    0 +2.4786372210e+01 -1.4217615880e+01 +3.2666778617e+01 4.7787271044e+01 2.0000000000e+01 2.7457e-02 1.0000e+00
       12  1    3    3    0    0 -2.4786372210e+01 +1.4217615880e+01 -3.2666778617e+01 4.3400728956e+01 0.0000000000e+00 0.0000e+00 -1.0000e+00
</event>
<event>
 5      5 +2.9511900e-02 9.11880000e+01 7.81616400e-03 1.18400000e-01
      -11 -1    0    0    0    0 +0.0000000000e+00 +0.0000000000e+00 +4.5593999997e+01 4.5594000000e+01 5.1100000000e-04 0.0000e+00 1.0000e+00
       11 -1    0    0    0    0 -0.0000000000e+00 -0.0000000000e+00 -4.5593999997e+01 4.5594000000e+01 5.1100000000e-04 0.0000e+00 -1.0000e+00
       23  2    1    2    0    0 +0.0000000000e+00 +0.0000000000e+00 +0.0000000000e+00 9.1188000000e+01 9.1188000000e+01 5.5198e-14 0.0000e+00
  9900012  1    3    3    0    0 -2.3819885112e+01 +2.2740777665e+01 +2.8268239745e+01 4.7787271044e+01 2.0000000000e+01 1.9843e-01 1.0000e+00
       12  1    3    3    0    0 +2.3819885112e+01 -2.2740777665e+01 -2.8268239745e+01 4.3400728956e+01 0.0000000000e+00 0.0000e+00 -1.0000e+00
</event>
<event>
 5      7 +2.9511900e-02 9.11880000e+01 7.81616400e-03 1.18400000e-01
      -11 -1    0    0    0    0 +0.0000000000e+00 +0.0000000000e+00 +4.5593999997e+01 4.5594000000e+01 5.1100000000e-04 0.0000e+00 1.0000e+00
       11 -1    0    0    0    0 -0.0000000000e+00 -0.0000000000e+00 -4.5593999997e+01 4.5594000000e+01 5.1100000000e-04 0.0000e+00 -1.0000e+00
       23  2    1    2    0    0 +0.0000000000e+00 +0.0000000000e+00 +0.0000000000e+00 9.1188000000e+01 9.1188000000e+01 1.5479e-13 0.0000e+00
  9900012  1    3    3    0    0 +2.0573027384e+01 +2.1181304777e+01 +3.1807642888e+01 4.7787271044e+01 2.0000000000e+01 1.9051e-02 1.0000e+00
       12  1    3    3    0    0 -2.0573027384e+01 -2.1181304777e+01 -3.1807642888e+01 4.3400728956e+01 0.0000000000e+00 0.0000e+00 -1.0000e+00
</event>
<event>
 5      7 +2.9511900e-02 9.11880000e+01 7.81616400e-03 1.18400000e-01
      -11 -1    0    0    0    0 +0.0000000000e+00 +0.0000000000e+00 +4.5593999997e+01 4.5594000000e+01 5.1100000000e-04 0.0000e+00 -1.0000e+00
       11 -1    0    0    0    0 -0.0000000000e+00 -0.0000000000e+00 -4.5593999997e+01 4.5594000000e+01 5.1100000000e-04 0.0000e+00 1.0000e+00
       23  2    1    2    0    0 +0.0000000000e+00 +0.0000000000e+00 +0.0000000000e+00 9.1188000000e+01 9.1188000000e+01 8.2455e-15 0.0000e+00
  9900012  1    3    3    0    0 -1.2633234676e+00 -1.1215355106e+00 -4.3367838842e+01 4.7787271044e+01 2.0000000000e+01 1.7749e-01 1.0000e+00
       12  1    3    3    0    0 +1.2633234676e+00 +1.1215355106e+00 +4.3367838842e+01 4.3400728956e+01 0.0000000000e+00 0.0000e+00 -1.0000e+00
</event>
<event>
 5      2 +2.9511900e-02 9.11880000e+01 7.81616400e-03 1.18400000e-01
      -11 -1    0    0    0    0 +0.0000000000e+00 +0.0000000000e+00 +4.5593999997e+01 4.5594000000e+01 5.1100000000e-04 0.0000e+00 1.0000e+00
       11 -1    0    0    0    0 -0.0000000000e+00 -0.0000000000e+00 -4.5593999997e+01 4.5594000000e+01 5.1100000000e-04 0.0000e+00 -1.0000e+00
       23  2    1    2    0    0 +0.0000000000e+00 +0.0000000000e+00 +0.0000000000e+00 9.1188000000e+01 9.1188000000e+01 4.5754e-15 0.0000e+00
  9900012  1    3    3    0    0 -1.1096629073e+01 +3.9290881734e+01 -1.4721233293e+01 4.7787271044e+01 2.0000000000e+01 1.3625e-02 -1.0000e+00
      -12  1    3    3    0    0 +1.1096629073e+01 -3.9290881734e+01 +1.4721233293e+01 4.3400728956e+01 0.0000000000e+00 0.0000e+00 1.0000e+00
</event>
<event>
 5      3 +2.9511900e-02 9.11880000e+01 7.81616400e-03 1.18400000e-01
      -11 -1    0    0    0    0 +0.0000000000e+00 +0.0000000000e+00 +4.5593999997e+01 4.5594000000e+01 5.1100000000e-04 0.0000e+00 1.0000e+00
       11 -1    0    0    0    0 -0.0000000000e+00 -0.0000000000e+00 -4.5593999997e+01 4.5594000000e+01 5.1100000000e-04 0.0000e+00 -1.0000e+00
       23  2    1    2    0    0 +0.0000000000e+00 +0.0000000000e+00 +0.0000000000e+00 9.1188000000e+01 9.1188000000e+01 1.1055e-13 0.0000e+00
  9900012  1    3    3    0    0 +3.0727696563e+01 +1.3287544408e+01 +2.7620157520e+01 4.7787271044e+01 2.0000000000e+01 2.9996e-02 1.0000e+00
       12  1    3    3    0    0 -3.0727696563e+01 -1.3287544408e+01 -2.7620157520e+01 4.3400728956e+01 0.0000000000e+00 0.0000e+00 -1.0000e+00
</event>
<event>
 5      6 +2.9511900e-02 9.11880000e+01 7.81616400e-03 1.18400000e-01
      -11 -1    0    0    0    0 +0.0000000000e+00 +0.0000000000e+00 +4.5593999997e+01 4.5594000000e+01 5.1100000000e-04 0.0000e+00 1.0000e+00
       11 -1    0    0    0    0 -0.0000000000e+00 -0.0000000000e+00 -4.5593999997e+01 4.5594000000e+01 5.1100000000e-04 0.0000e+00 -1.0000e+00
       23  2    1    2    0    0 +0.0000000000e+00 +0.0000000000e+00 +0.0000000000e+00 9.1188000000e+01 9.1188000000e+01 2.1710e-15 0.0000e+00
  9900012  1    3    3    0    0 +3.7837593230e+01 -7.0599663701e+00 -2.0052348673e+01 4.7787271044e+01 2.0000000000e+01 4.9176e-02 -1.0000e+00
      -12  1    3    3    0    0 -3.7837593230e+01 +7.0599663701e+00 +2.0052348673e+01 4.3400728956e+01 0.0000000000e+00 0.0000e+00 1.0000e+00
</event>
<event>
 5      5 +2.9511900e-02 9.11880000e+01 7.81616400e-03 1.18400000e-01
      -11 -1    0    0    0    0 +0.0000000000e+00 +0.0000000000e+00 +4.5593999997e+01 4.5594000000e+01 5.1100000000e-04 0.0000e+00 1.0000e+00
       11 -1    0    0    0    0 -0.0000000000e+00 -0.0000000000e+00 -4.5593999997e+01 4.5594000000e+01 5.1100000000e-04 0.0000e+00 -1.0000e+00
       23  2    1    2    0    0 +0.0000000000e+00 +0.0000000000e+00 +0.0000000000e+00 9.1188000000e+01 9.1188000000e+01 9.0413e-14 0.0000e+00
  9900012  1    3    3    0    0 +3.4588081261e+01 +6.7706802789e+00 +2.5326780236e+01 4.7787271044e+01 2.0000000000e+01 1.2183e-01 1.0000e+00
       12  1    3    3    0    0 -3.4588081261e+01 -6.7706802789e+00 -2.5326780236e+01 4.3400728956e+01 0.0000000000e+00 0.0000e+00 -1.0000e+00
</event>
<event>
 5      8 +2.9511900e-02 9.11880000e+01 7.81616400e-03 1.18400000e-01
      -11 -1    0    0    0    0 +0.0000000000e+00 +0.0000000000e+00 +4.5593999997e+01 4.5594000000e+01 5.1100000000e-04 0.0000e+00 -1.0000e+00
       11 -1    0    0    0    0 -0.0000000000e+00 -0.0000000000e+00 -4.5593999997e+01 4.5594000000e+01 5.1100000000e-04 0.0000e+00 1.0000e+00
       23  2    1    2    0    0 +0.0000000000e+00 +0.0000000000e+00 +0.0000000000e+00 9.1188000000e+01 9.1188000000e+01 2.7408e-13 0.0000e+00
  9900012  1    3    3    0    0 -2.0873038269e+01 +1.4768401725e+01 +3.5068987122e+01 4.7787271044e+01 2.0000000000e+01 4.0340e-02 -1.0000e+00
      -12  1    3    3    0    0 +2.0873038269e+01 -1.4768401725e+01 -3.5068987122e+01 4.3400728956e+01 0.0000000000e+00 0.0000e+00 1.0000e+00
</event>
<event>
 5      5 +2.9511900e-02 9.11880000e+01 7.81616400e-03 1.18400000e-01
      -11 -1    0    0    0    0 +0.0000000000e+00 +0.0000000000e+00 +4.5593999997e+01 4.5594000000e+01 5.1100000000e-04 0.0000e+00 1.0000e+00
       11 -1    0    0    0    0 -0.0000000000e+00 -0.0000000000e+00 -4.5593999997e+01 4.5594000000e+01 5.1100000000e-04 0.0000e+00 -1.0000e+00
       23  2    1    2    0    0 +0.0000000000e+00 +0.0000000000e+00 +0.0000000000e+00 9.1188000000e+01 9.1188000000e+01 2.7375e-15 0.0000e+00
  9900012  1    3    3    0    0 -1.6825085956e-01 -3.6797954762e+01 +2.3010986308e+01 4.7787271044e+01 2.0000000000e+01 2.5594e-02 1.0000e+00
       12  1    3    3    0    0 +1.6825085956e-01 +3.6797954762e+01 -2.3010986308e+01 4.3400728956e+01 0.0000000000e+00 0.0000e+00 -1.0000e+00
</event>
<event>
 5      6 +2.9511900e-02 9.11880000e+01 7.81616400e-03 1.18400000e-01
      -11 -1    0    0    0    0 +0.0000000000e+00 +0.0000000000e+00 +4.5593999997e+01 4.5594000000e+01 5.1100000000e-04 0.0000e+00 1.0000e+00
       11 -1    0    0    0    0 -0.0000000000e+00 -0.0000000000e+00 -4.5593999997e+01 4.5594000000e+01 5.1100000000e-04 0.0000e+00 -1.0000e+00
       23  2    1    2    0    0 +0.0000000000e+00 +0.0000000000e+00 +0.0000000000e+00 9.1188000000e+01 9.1188000000e+01 7.0590e-14 0.0000e+00
  9900012  1    3    3    0    0 +2.4825424459e+01 -1.2727957076e+01 -3.3246363455e+01 4.7787271044e+01 2.0000000000e+01 9.3059e-02 -1.0000e+00
      -12  1    3    3    0    0 -2.4825424459e+01 +1.2727957076e+01 +3.3246363455e+01 4.3400728956e+01 0.0000000000e+00 0.0000e+00 1.0000e+00
</event>
<event>
 5      8 +2.9511900e-02 9.11880000e+01 7.81616400e-03 1.18400000e-01
      -11 -1    0    0    0    0 +0.0000000000e+00 +0.0000000000e+00 +4.5593999997e+01 4.5594000000e+01 5.1100000000e-04 0.0000e+00 -1.0000e+00
       11 -1    0    0    0    0 -0.0000000000e+00 -0.0000000000e+00 -4.5593999997e+01 4.5594000000e+01 5.1100000000e-04 0.0000e+00 1.0000e+00
       23  2    1    2    0    0 +0.0000000000e+00 +0.0000000000e+00 +0.0000000000e+00 9.1188000000e+01 9.1188000000e+01 1.6643e-13 0.0000e+00
  9900012  1    3    3    0    0 +5.9886034234e+00 +2.9860988252e+01 +3.0920564088e+01 4.7787271044e+01 2.0000000000e+01 6.7912e-02 -1.0000e+00
      -12  1    3    3    0    0 -5.9886034234e+00 -2.9860988252e+01 -3.0920564088e+01 4.3400728956e+01 0.0000000000e+00 0.0000e+00 1.0000e+00
</event>
<event>
 5      8 +2.9511900e-02 9.11880000e+01 7.81616400e-03 1.18400000e-01
      -11 -1    0    0    0    0 +0.0000000000e+00 +0.0000000000e+00 +4.5593999997e+01 4.5594000000e+01 5.1100000000e-04 0.0000e+00 1.0000e+00
       11 -1    0    0    0    0 -0.0000000000e+00 -0.0000000000e+00 -4.5593999997e+01 4.5594000000e+01 5.1100000000e-04 0.0000e+00 -1.0000e+00
       23  2    1    2    0    0 +0.0000000000e+00 +0.0000000000e+00 +0.0000000000e+00 9.1188000000e+01 9.1188000000e+01 5.4635e-14 0.0000e+00
  9900012  1    3    3    0    0 -2.2575832025e+00 -3.0727948976e+01 +3.0566644299e+01 4.7787271044e+01 2.0000000000e+01 8.2613e-03 1.0000e+00
      -12  1    3    3    0    0 +2.2575832025e+00 +3.0727948976e+01 -3.0566644299e+01 4.3400728956e+01 0.0000000000e+00 0.0000e+00 1.0000e+00
</event>
<event>
 5      1 +2.9511900e-02 9.11880000e+01 7.81616400e-03 1.18400000e-01
      -11 -1    0    0    0    0 +0.0000000000e+00 +0.0000000000e+00 +4.5593999997e+01 4.5594000000e+01 5.1100000000e-04 0.0000e+00 -1.0000e+00
       11 -1    0    0    0    0 -0.0000000000e+00 -0.0000000000e+00 -4.5593999997e+01 4.5594000000e+01 5.1100000000e-04 0.0000e+00 1.0000e+00
       23  2    1    2    0    0 +0.0000000000e+00 +0.0000000000e+00 +0.0000000000e+00 9.1188000000e+01 9.1188000000e+01 1.4133e-13 0.0000e+00
  9900012  1    3    3    0    0 +1.9976865206e+00 +2.7665673135e+01 -3.3380279394e+01 4.7787271044e+01 2.0000000000e+01 1.9672e-02 1.0000e+00
       12  1    3    3    0    0 -1.9976865206e+00 -2.7665673135e+01 +3.3380279394e+01 4.3400728956e+01 0.0000000000e+00 0.0000e+00 -1.0000e+00
</event>
<event>
 5      3 +2.9511900e-02 9.11880000e+01 7.81616400e-03 1.18400000e-01
      -11 -1    0    0    0    0 +0.0000000000e+00 +0.0000000000e+00 +4.5593999997e+01 4.5594000000e+01 5.1100000000e-04 0.0000e+00 1.0000e+00
       11 -1    0    0    0    0 -0.0000000000e+00 -0.0000000000e+00 -4.5593999997e+01 4.5594000000e+01 5.1100000000e-04 0.0000e+00 -1.0000e+00
       23  2    1    2    0    0 +0.0000000000e+00 +0.0000000000e+00 +0.0000000000e+00 9.1188000000e+01 9.1188000000e+01 4.2377e-14 0.0000e+00
  9900012  1    3    3    0    0 -2.7005734636e+01 +7.6756326723e+00 +3.3096800959e+01 4.7787271044e+01 2.0000000000e+01 1.1464e-01 1.0000e+00
       12  1    3    3    0    0 +2.7005734636e+01 -7.6756326723e+00 -3.3096800959e+01 4.3400728956e+01 0.0000000000e+00 0.0000e+00 -1.0000e+00
</event>
<event>
 5      4 +2.9511900e-02 9.11880000e+01 7.81616400e-03 1.18400000e-01
      -11 -1    0    0    0    0 +0.0000000000e+00 +0.0000000000e+00 +4.5593999997e+01 4.5594000000e+01 5.1100000000e-04 0.0000e+00 -1.0000e+00
       11 -1    0    0    0    0 -0.0000000000e+00 -0.0000000000e+00 -4.5593999997e+01 4.5594000000e+01 5.1100000000e-04 0.0000e+00 1.0000e+00
       23  2    1    2    0    0 +0.0000000000e+00 +0.0000000000e+00 +0.0000000000e+00 9.1188000000e+01 9.1188000000e+01 2.3243e-14 0.0000e+00
  9900012  1    3    3    0    0 -1.8305738937e+01 -5.8338319922e+00 +3.8916443827e+01 4.7787271044e+01 2.0000000000e+01 2.0496e-01 -1.0000e+00
      -12  1    3    3    0    0 +1.8305738937e+01 +5.8338319922e+00 -3.8916443827e+01 4.3400728956e+01 0.0000000000e+00 0.0000e+00 1.0000e+00
</event>
<event>
 5      4 +2.9511900e-02 9.11880000e+01 7.81616400e-03 1.18400000e-01
      -11 -1    0    0    0    0 +0.0000000000e+00 +0.0000000000e+00 +4.5593999997e+01 4.5594000000e+01 5.1100000000e-04 0.0000e+00 1.0000e+00
       11 -1    0    0    0    0 -0.0000000000e+00 -0.0000000000e+00 -4.5593999997e+01 4.5594000000e+01 5.1100000000e-04 0.0000e+00 -1.0000e+00
       23  2    1    2    0    0 +0.0000000000e+00 +0.0000000000e+00 +0.0000000000e+00 9.1188000000e+01 9.1188000000e+01 3.2684e-14 0.0000e+00
  9900012  1    3    3    0    0 +4.2396175865e+00 +2.5838204631e+01 -3.4612658061e+01 4.7787271044e+01 2.0000000000e+01 9.8968e-02 -1.0000e+00
      -12  1    3    3    0    0 -4.2396175865e+00 -2.5838204631e+01 +3.4612658061e+01 4.3400728956e+01 0.0000000000e+00 0.0000e+00 1.0000e+00
</event>
<event>
 5      7 +2.9511900e-02 9.11880000e+01 7.81616400e-03 1.18400000e-01
      -11 -1    0    0    0    0 +0.0000000000e+00 +0.0000000000e+00 +4.5593999997e+01 4.5594000000e+01 5.1100000000e-04 0.0000e+00 -1.0000e+00
       11 -1    0    0    0    0 -0.0000000000e+00 -0.0000000000e+00 -4.5593999997e+01 4.5594000000e+01 5.1100000000e-04 0.0000e+00 1.0000e+00
       23  2    1    2    0    0 +0.0000000000e+00 +0.0000000000e+00 +0.0000000000e+00 9.1188000000e+01 9.1188000000e+01 2.8387e-14 0.0000e+00
  9900012  1    3    3    0    0 -4.0004884838e+01 +2.0526377819e+00 -1.6703866053e+01 4.7787271044e+01 2.0000000000e+01 1.7413e-02 1.0000e+00
       12  1    3    3    0    0 +4.0004884838e+01 -2.0526377819e+00 +1.6703866053e+01 4.3400728956e+01 0.0000000000e+00 0.0000e+00 -1.0000e+00
</event>
<event>
 5      4 +2.9511900e-02 9.11880000e+01 7.81616400e-03 1.18400000e-01
      -11 -1    0    0    0    0 +0.0000000000e+00 +0.0000000000e+00 +4.5593999997e+01 4.5594000000e+01 5.1100000000e-04 0.0000e+00 1.0000e+00
       11 -1    0    0    0    0 -0.0000000000e+00 -0.0000000000e+00 -4.5593999997e+01 4.5594000000e+01 5.1100000000e-04 0.0000e+00 -1.0000e+00
       23  2    1    2    0    0 +0.0000000000e+00 +0.0000000000e+00 +0.0000000000e+00 9.1188000000e+01 9.1188000000e+01 1.4307e-13 0.0000e+00
  9900012  1    3    3    0    0 -1.0938460647e+00 -3.5775506149e+01 -2.4546688869e+01 4.7787271044e+01 2.0000000000e+01 2.3659e-02 -1.0000e+00
      -12  1    3    3    0    0 +1.0938460647e+00 +3.5775506149e+01 +2.4546688869e+01 4.3400728956e+01 0.0000000000e+00 0.0000e+00 1.0000e+00
</event>
<event>
 5      8 +2.9511900e-02 9.11880000e+01 7.81616400e-03 1.18400000e-01
      -11 -1    0    0    0    0 +0.0000000000e+00 +0.0000000000e+00 +4.5593999997e+01 4.5594000000e+01 5.1100000000e-04 0.0000e+00 -1.0000e+00
       11 -1    0    0    0    0 -0.0000000000e+00 -0.0000000000e+00 -4.5593999997e+01 4.5594000000e+01 5.1100000000e-04 0.0000e+00 1.0000e+00
       23  2    1    2    0    0 +0.0000000000e+00 +0.0000000000e+00 +0.0000000000e+00 9.1188000000e+01 9.1188000000e+01 4.7224e-14 0.0000e+00
  9900012  1    3    3    0    0 +3.4138040229e+01 -2.6218325875e+01 +5.5512945801e+00 4.7787271044e+01 2.0000000000e+01 4.9611e-02 -1.0000e+00
      -12  1    3    3    0    0 -3.4138040229e+01 +2.6218325875e+01 -5.5512945801e+00 4.3400728956e+01 0.0000000000e+00 0.0000e+00 1.0000e+00
</event>
<event>
 5      8 +2.9511900e-02 9.11880000e+01 7.81616400e-03 1.18400000e-01
      -11 -1    0    0    0    0 +0.0000000000e+00 +0.0000000000e+00 +4.5593999997e+01 4.5594000000e+01 5.1100000000e-04 0.0000e+00 -1.0000e+00
       11 -1    0    0    0    0 -0.0000000000e+00 -0.0000000000e+00 -4.5593999997e+01 4.5594000000e+01 5.1100000000e-04 0.0000e+00 1.0000e+00
       23  2    1    2    0    0 +0.0000000000e+00 +0.0000000000e+00 +0.0000000000e+00 9.1188000000e+01 9.1188000000e+01 8.9961e-14 0.0000e+00
  9900012  1    3    3    0    0 +3.1739847773e+01 -2.8927213773e+01 -6.2786655069e+00 4.7787271044e+01 2.0000000000e+01 3.8510e-02 -1.0000e+00
      -12  1    3    3    0    0 -3.1739847773e+01 +2.8927213773e+01 +6.2786655069e+00 4.3400728956e+01 0.0000000000e+00 0.0000e+00 1.0000e+00
</event>
<event>
 5      8 +2.9511900e-02 9.11880000e+01 7.81616400e-03 1.18400000e-01
      -11 -1    0    0    0    0 +0.0000000000e+00 +0.0000000000e+00 +4.5593999997e+01 4.5594000000e+01 5.1100000000e-04 0.0000e+00 1.0000e+00
       11 -1    0    0    0    0 -0.0000000000e+00 -0.0000000000e+00 -4.5593999997e+01 4.5594000000e+01 5.1100000000e-04 0.0000e+00 -1.0000e+00
       23  2    1    2    0    0 +0.0000000000e+00 +0.0000000000e+00 +0.0000000000e+00 9.1188000000e+01 9.1188000000e+01 6.3288e-14 0.0000e+00
  9900012  1    3    3    0    0 +1.6484457478e+01 +3.5294355153e+01 -1.9136207302e+01 4.7787271044e+01 2.0000000000e+01 2.7632e-01 -1.0000e+00
      -12  1    3    3    0    0 -1.6484457478e+01 -3.5294355153e+01 +1.9136207302e+01 4.3400728956e+01 0.0000000000e+00 0.0000e+00 1.0000e+00
</event>
<event>
 5      3 +2.9511900e-02 9.11880000e+01 7.81616400e-03 1.18400000e-01
      -11 -1    0    0    0    0 +0.0000000000e+00 +0.0000000000e+00 +4.5593999997e+01 4.5594000000e+01 5.1100000000e-04 0.0000e+00 1.0000e+00
       11 -1    0    0    0    0 -0.0000000000e+00 -0.0000000000e+00 -4.5593999997e+01 4.5594000000e+01 5.1100000000e-04 0.0000e+00 -1.0000e+00
       23  2    1    2    0    0 +0.0000000000e+00 +0.0000000000e+00 +0.0000000000e+00 9.1188000000e+01 9.1188000000e+01 6.9278e-14 0.0000e+00
  9900012  1    3    3    0    0 -1.3570320408e+01 -3.6147576734e+01 +1.9819747076e+01 4.7787271044e+01 2.0000000000e+01 1.3154e-01 1.0000e+00
       12  1    3    3    0    0 +1.3570320408e+01 +3.6147576734e+01 -1.9819747076e+01 4.3400728956e+01 0.0000000000e+00 0.0000e+00 -1.0000e+00
</event>
<event>
 5      6 +2.9511900e-02 9.11880000e+01 7.81616400e-03 1.18400000e-01
      -11 -1    0    0    0    0 +0.0000000000e+00 +0.0000000000e+00 +4.5593999997e+01 4.5594000000e+01 5.1100000000e-04 0.0000e+00 -1.0000e+00
       11 -1    0    0    0    0 -0.0000000000e+00 -0.0000000000e+00 -4.5593999997e+01 4.5594000000e+01 5.1100000000e-04 0.0000e+00 1.0000e+00
       23  2    1    2    0    0 +0.0000000000e+00 +0.0000000000e+00 +0.0000000000e+00 9.1188000000e+01 9.1188000000e+01 2.9734e-14 0.0000e+00
  9900012  1    3    3    0    0 +4.2279490721e+01 -7.7346805003e+00 -6.0201873537e+00 4.7787271044e+01 2.0000000000e+01 7.2066e-02 -1.0000e+00
      -12  1    3    3    0    0 -4.2279490721e+01 +7.7346805003e+00 +6.0201873537e+00 4.3400728956e+01 0.0000000000e+00 0.0000e+00 1.0000e+00
</event>
<event>
 5      2 +2.9511900e-02 9.11880000e+01 7.81616400e-03 1.18400000e-01
      -11 -1    0    0    0    0 +0.0000000000e+00 +0.0000000000e+00 +4.5593999997e+01 4.5594000000e+01 5.1100000000e-04 0.0000e+00 1.0000e+00
       11 -1    0    0    0    0 -0.0000000000e+00 -0.0000000000e+00 -4.5593999997e+01 4.5594000000e+01 5.1100000000e-04 0.0000e+00 -1.0000e+00
       23  2    1    2    0    0 +0.0000000000e+00 +0.0000000000e+00 +0.0000000000e+00 9.1188000000e+01 9.1188000000e+01 5.1354e-14 0.0000e+00
  9900012  1    3    3    0    0 -1.7247806750e+01 +1.1948728993e+01 -3.7991634759e+01 4.7787271044e+01 2.0000000000e+01 1.6486e-02 -1.0000e+00
      -12  1    3    3    0    0 +1.7247806750e+01 -1.1948728993e+01 +3.7991634759e+01 4.3400728956e+01 0.0000000000e+00 0.0000e+00 1.0000e+00
</event>
<event>
 5      2 +2.9511900e-02 9.11880000e+01 7.81616400e-03 1.18400000e-01
      -11 -1    0    0    0    0 +0.0000000000e+00 +0.0000000000e+00 +4.5593999997e+01 4.5594000000e+01 5.1100000000e-04 0.0000e+00 -1.0000e+00
       11 -1    0    0    0    0 -0.0000000000e+00 -0.0000000000e+00 -4.5593999997e+01 4.5594000000e+01 5.1100000000e-04 0.0000e+00 1.0000e+00
       23  2    1    2    0    0 +0.0000000000e+00 +0.0000000000e+00 +0.0000000000e+00 9.1188000000e+01 9.1188000000e+01 9.6242e-14 0.0000e+00
  9900012  1    3    3    0    0 -2.6469436641e+01 +3.2194417808e+01 +1.2104200089e+01 4.7787271044e+01 2.0000000000e+01 3.8202e-01 -1.0000e+00
      -12  1    3    3    0    0 +2.6469436641e+01 -3.2194417808e+01 -1.2104200089e+01 4.3400728956e+01 0.0000000000e+00 0.0000e+00 1.0000e+00
</event>
<event>
 5      6 +2.9511900e-02 9.11880000e+01 7.81616400e-03 1.18400000e-01
      -11 -1    0    0    0    0 +0.0000000000e+00 +0.0000000000e+00 +4.5593999997e+01 4.5594000000e+01 5.1100000000e-04 0.0000e+00 -1.0000e+00
       11 -1    0    0    0    0 -0.0000000000e+00 -0.0000000000e+00 -4.5593999997e+01 4.5594000000e+01 5.1100000000e-04 0.0000e+00 1.0000e+00
       23  2    1    2    0    0 +0.0000000000e+00 +0.0000000000e+00 +0.0000000000e+00 9.1188000000e+01 9.1188000000e+01 3.7700e-14 0.0000e+00
  9900012  1    3    3    0    0 -2.4980156232e+01 -6.1989136604e+00 +3.4945508122e+01 4.7787271044e+01 2.0000000000e+01 2.6537e-01 -1.0000e+00
      -12  1    3    3    0    0 +2.4980156232e+01 +6.1989136604e+00 -3.4945508122e+01 4.3400728956e+01 0.0000000000e+00 0.0000e+00 1.0000e+00
</event>
<event>
 5      1 +2.9511900e-02 9.11880000e+01 7.81616400e-03 1.18400000e-01
      -11 -1    0    0    0    0 +0.0000000000e+00 +0.0000000000e+00 +4.5593999997e+01 4.5594000000e+01 5.1100000000e-04 0.0000e+00 -1.0000e+00
       11 -1    0    0    0    0 -0.0000000000e+00 -0.0000000000e+00 -4.5593999997e+01 4.5594000000e+01 5.1100000000e-04 0.0000e+00 1.0000e+00
       23  2    1    2    0    0 +0.0000000000e+00 +0.0000000000e+00 +0.0000000000e+00 9.1188000000e+01 9.1188000000e+01 2.9859e-14 0.0000e+00
  9900012  1    3    3    0    0 -1.1865542632e+00 +3.8494690853e+01 -2.0009351289e+01 4.7787271044e+01 2.0000000000e+01 4.5091e-02 1.0000e+00
       12  1    3    3    0    0 +1.1865542632e+00 -3.8494690853e+01 +2.0009351289e+01 4.3400728956e+01 0.0000000000e+00 0.0000e+00 -1.0000e+00
</event>
<event>
 5      5 +2.9511900e-02 9.11880000e+01 7.81616400e-03 1.18400000e-01
      -11 -1    0    0    0    0 +0.0000000000e+00 +0.0000000000e+00 +4.5593999997e+01 4.5594000000e+01 5.1100000000e-04 0.0000e+00 1.0000e+00
       11 -1    0    0    0    0 -0.0000000000e+00 -0.0000000000e+00 -4.5593999997e+01 4.5594000000e+01 5.1100000000e-04 0.0000e+00 -1.0000e+00
       23  2    1    2    0    0 +0.0000000000e+00 +0.0000000000e+00 +0.0000000000e+00 9.1188000000e+01 9.1188000000e+01 4.6116e-14 0.0000e+00
  9900012  1    3    3    0    0 -1.0705271450e+01 -2.2358642129e+01 +3.5624592057e+01 4.7787271044e+01 2.0000000000e+01 1.1065e-02 1.0000e+00
       12  1    3    3    0    0 +1.0705271450e+01 +2.2358642129e+01 -3.5624592057e+01 4.3400728956e+01 0.0000000000e+00 0.0000e+00 -1.0000e+00
</event>
<event>
 5      7 +2.9511900e-02 9.11880000e+01 7.81616400e-03 1.18400000e-01
      -11 -1    0    0    0    0 +0.0000000000e+00 +0.0000000000e+00 +4.5593999997e+01 4.5594000000e+01 5.1100000000e-04 0.0000e+00 1.0000e+00
       11 -1    0    0    0    0 -0.0000000000e+00 -0.0000000000e+00 -4.5593999997e+01 4.5594000000e+01 5.1100000000e-04 0.0000e+00 -1.0000e+00
       23  2    1    2    0    0 +0.0000000000e+00 +0.0000000000e+00 +0.0000000000e+00 9.1188000000e+01 9.1188000000e+01 8.5969e-14 0.0000e+00
  9900012  1    3    3    0    0 -3.4436428865e+01 +2.3445508387e+01 -1.2168146011e+01 4.7787271044e+01 2.0000000000e+01 1.1576e-02 1.0000e+00
       12  1    3    3    0    0 +3.4436428865e+01 -2.3445508387e+01 +1.2168146011e+01 4.3400728956e+01 0.0000000000e+00 0.0000e+00 -1.0000e+00
</event>
<event>
 5      8 +2.9511900e-02 9.11880000e+01 7.81616400e-03 1.18400000e-01
      -11 -1    0    0    0    0 +0.0000000000e+00 +0.0000000000e+00 +4.5593999997e+01 4.5594000000e+01 5.1100000000e-04 0.0000e+00 -1.0000e+00
       11 -1    0    0    0    0 -0.0000000000e+00 -0.0000000000e+00 -4.5593999997e+01 4.5594000000e+01 5.1100000000e-04 0.0000e+00 1.0000e+00
       23  2    1    2    0    0 +0.0000000000e+00 +0.0000000000e+00 +0.0000000000e+00 9.1188000000e+01 9.1188000000e+01 7.6556e-14 0.0000e+00
  9900012  1    3    3    0    0 +9.4683625318e+00 +3.1155594175e+01 +2.8693245485e+01 4.7787271044e+01 2.0000000000e+01 1.1894e-01 -1.0000e+00
      -12  1    3    3    0    0 -9.4683625318e+00 -3.1155594175e+01 -2.8693245485e+01 4.3400728956e+01 0.0000000000e+00 0.0000e+00 1.0000e+00
</event>
<event>
 5      8 +2.9511900e-02 9.11880000e+01 7.81616400e-03 1.18400000e-01
      -11 -1    0    0    0    0 +0.0000000000e+00 +0.0000000000e+00 +4.5593999997e+01 4.5594000000e+01 5.1100000000e-04 0.0000e+00 -1.0000e+00
       11 -1    0    0    0    0 -0.0000000000e+00 -0.0000000000e+00 -4.5593999997e+01 4.5594000000e+01 5.1100000000e-04 0.0000e+00 1.0000e+00
       23  2    1    2    0    0 +0.0000000000e+00 +0.0000000000e+00 +0.0000000000e+00 9.1188000000e+01 9.1188000000e+01 1.8923e-14 0.0000e+00
  9900012  1    3    3    0    0 -3.5963948917e+00 +1.4217189943e+00 +4.3228091940e+01 4.7787271044e+01 2.0000000000e+01 5.2025e-02 -1.0000e+00
      -12  1    3    3    0    0 +3.5963948917e+00 -1.4217189943e+00 -4.3228091940e+01 4.3400728956e+01 0.0000000000e+00 0.0000e+00 1.0000e+00
</event>
<event>
 5      8 +2.9511900e-02 9.11880000e+01 7.81616400e-03 1.18400000e-01
      -11 -1    0    0    0    0 +0.0000000000e+00 +0.0000000000e+00 +4.5593999997e+01 4.5594000000e+01 5.1100000000e-04 0.0000e+00 -1.0000e+00
       11 -1    0    0    0    0 -0.0000000000e+00 -0.0000000000e+00 -4.5593999997e+01 4.5594000000e+01 5.1100000000e-04 0.0000e+00 1.0000e+00
       23  2    1    2    0    0 +0.0000000000e+00 +0.0000000000e+00 +0.0000000000e+00 9.1188000000e+01 9.1188000000e+01 2.1203e-13 0.0000e+00
  9900012  1    3    3    0    0 +2.6276134490e+01 +5.0235498697e+00 +3.4175312388e+01 4.7787271044e+01 2.0000000000e+01 1.6460e-01 -1.0000e+00
      -12  1    3    3    0    0 -2.6276134490e+01 -5.0235498697e+00 -3.4175312388e+01 4.3400728956e+01 0.0000000000e+00 0.0000e+00 1.0000e+00
</event>
<event>
 5      3 +2.9511900e-02 9.11880000e+01 7.81616400e-03 1.18400000e-01
      -11 -1    0    0    0    0 +0.0000000000e+00 +0.0000000000e+00 +4.5593999997e+01 4.5594000000e+01 5.1100000000e-04 0.0000e+00 -1.0000e+00
       11 -1    0    0    0    0 -0.0000000000e+00 -0.0000000000e+00 -4.5593999997e+01 4.5594000000e+01 5.1100000000e-04 0.0000e+00 1.0000e+00
       23  2    1    2    0    0 +0.0000000000e+00 +0.0000000000e+00 +0.0000000000e+00 9.1188000000e+01 9.1188000000e+01 5.3969e-14 0.0000e+00
  9900012  1    3    3    0    0 -1.5611715809e-01 -3.6581056670e+01 -2.3354339945e+01 4.7787271044e+01 2.0000000000e+01 4.1882e-02 1.0000e+00
       12  1    3    3    0    0 +1.5611715809e-01 +3.6581056670e+01 +2.3354339945e+01 4.3400728956e+01 0.0000000000e+00 0.0000e+00 -1.0000e+00
</event>
<event>
 5      1 +2.9511900e-02 9.11880000e+01 7.81616400e-03 1.18400000e-01
      -11 -1    0    0    0    0 +0.0000000000e+00 +0.0000000000e+00 +4.5593999997e+01 4.5594000000e+01 5.1100000000e-04 0.0000e+00 1.0000e+00
       11 -1    0    0    0    0 -0.0000000000e+00 -0.0000000000e+00 -4.5593999997e+01 4.5594000000e+01 5.1100000000e-04 0.0000e+00 -1.0000e+00
       23  2    1    2    0    0 +0.0000000000e+00 +0.0000000000e+00 +0.0000000000e+00 9.1188000000e+01 9.1188000000e+01 3.4579e-14 0.0000e+00
  9900012  1    3    3    0    0 +9.4094035826e-02 +3.2071385426e+01 +2.9241078247e+01 4.7787271044e+01 2.0000000000e+01 5.9081e-03 1.0000e+00
       12  1    3    3    0    0 -9.4094035826e-02 -3.2071385426e+01 -2.9241078247e+01 4.3400728956e+01 0.0000000000e+00 0.0000e+00 -1.0000e+00
</event>
<event>
 5      6 +2.9511900e-02 9.11880000e+01 7.81616400e-03 1.18400000e-01
      -11 -1    0    0    0    0 +0.0000000000e+00 +0.0000000000e+00 +4.5593999997e+01 4.5594000000e+01 5.1100000000e-04 0.0000e+00 -1.0000e+00
       11 -1    0    0    0    0 -0.0000000000e+00 -0.0000000000e+00 -4.5593999997e+01 4.5594000000e+01 5.1100000000e-04 0.0000e+00 1.0000e+00
       23  2    1    2    0    0 +0.0000000000e+00 +0.0000000000e+00 +0.0000000000e+00 9.1188000000e+01 9.1188000000e+01 1.3221e-13 0.0000e+00
  9900012  1    3    3    0    0 -9.3718940779e+00 -3.9503838251e+01 +1.5337458678e+01 4.7787271044e+01 2.0000000000e+01 2.2180e-01 -1.0000e+00
      -12  1    3    3    0    0 +9.3718940779e+00 +3.9503838251e+01 -1.5337458678e+01 4.3400728956e+01 0.0000000000e+00 0.0000e+00 1.0000e+00
</event>
<event>
 5      4 +2.9511900e-02 9.11880000e+01 7.81616400e-03 1.18400000e-01
      -11 -1    0    0    0    0 +0.0000000000e+00 +0.0000000000e+00 +4.5593999997e+01 4.5594000000e+01 5.1100000000e-04 0.0000e+00 1.0000e+00
       11 -1    0    0    0    0 -0.0000000000e+00 -0.0000000000e+00 -4.5593999997e+01 4.5594000000e+01 5.1100000000e-04 0.0000e+00 -1.0000e+00
       23  2    1    2    0    0 +0.0000000000e+00 +0.0000000000e+00 +0.0000000000e+00 9.1188000000e+01 9.1188000000e+01 8.5586e-14 0.0000e+00
  9900012  1    3    3    0    0 +2.5217032036e+01 +3.5298705766e+01 -1.3137505221e+00 4.7787271044e+01 2.0000000000e+01 5.1717e-03 -1.0000e+00
      -12  1    3    3    0    0 -2.5217032036e+01 -3.5298705766e+01 +1.3137505221e+00 4.3400728956e+01 0.0000000000e+00 0.0000e+00 1.0000e+00
</event>
<event>
 5      3 +2.9511900e-02 9.11880000e+01 7.81616400e-03 1.18400000e-01
      -11 -1    0    0    0    0 +0.0000000000e+00 +0.0000000000e+00 +4.5593999997e+01 4.5594000000e+01 5.1100000000e-04 0.0000e+00 -1.0000e+00
       11 -1    0    0    0    0 -0.0000000000e+00 -0.0000000000e+00 -4.5593999997e+01 4.5594000000e+01 5.1100000000e-04 0.0000e+00 1.0000e+00
       23  2    1    2    0    0 +0.0000000000e+00 +0.0000000000e+00 +0.0000000000e+00 9.1188000000e+01 9.1188000000e+01 2.3188e-13 0.0000e+00
  9900012  1    3    3    0    0 -3.9534448923e+01 +1.1084270502e+01 -1.4063767976e+01 4.7787271044e+01 2.0000000000e+01 1.0396e-01 1.0000e+00
       12  1    3    3    0    0 +3.9534448923e+01 -1.1084270502e+01 +1.4063767976e+01 4.3400728956e+01 0.0000000000e+00 0.0000e+00 -1.0000e+00
</event>
<event>
 5      8 +2.9511900e-02 9.11880000e+01 7.81616400e-03 1.18400000e-01
      -11 -1    0    0    0    0 +0.0000000000e+00 +0.0000000000e+00 +4.5593999997e+01 4.5594000000e+01 5.1100000000e-04 0.0000e+00 1.0000e+00
       11 -1    0    0    0    0 -0.0000000000e+00 -0.0000000000e+00 -4.5593999997e+01 4.5594000000e+01 5.1100000000e-04 0.0000e+00 -1.0000e+00
       23  2    1    2    0    0 +0.0000000000e+00 +0.0000000000e+00 +0.0000000000e+00 9.1188000000e+01 9.1188000000e+01 5.6375e-14 0.0000e+00
  9900012  1    3    3    0    0 -1.6788763971e+01 -1.6694736064e+01 -3.6373705694e+01 4.7787271044e+01 2.0000000000e+01 1.8430e-01 -1.0000e+00
      -12  1    3    3    0    0 +1.6788763971e+01 +1.6694736064e+01 +3.6373705694e+01 4.3400728956e+01 0.0000000000e+00 0.0000e+00 1.0000e+00
</event>
<event>
 5      5 +2.9511900e-02 9.11880000e+01 7.81616400e-03 1.18400000e-01
      -11 -1    0    0    0    0 +0.0000000000e+00 +0.0000000000e+00 +4.5593999997e+01 4.5594000000e+01 5.1100000000e-04 0.0000e+00 -1.0000e+00
       11 -1    0    0    0    0 -0.0000000000e+00 -0.0000000000e+00 -4.5593999997e+01 4.5594000000e+01 5.1100000000e-04 0.0000e+00 1.0000e+00
       23  2    1    2    0    0 +0.0000000000e+00 +0.0000000000e+00 +0.0000000000e+00 9.1188000000e+01 9.1188000000e+01 7.9795e-15 0.0000e+00
  9900012  1    3    3    0    0 -3.2186241749e+01 -5.0767650955e+00 -2.8668721145e+01 4.7787271044e+01 2.0000000000e+01 9.0086e-02 1.0000e+00
       12  1    3    3    0    0 +3.2186241749e+01 +5.0767650955e+00 +2.8668721145e+01 4.3400728956e+01 0.0000000000e+00 0.0000e+00 -1.0000e+00
</event>
<event>
 5      7 +2.9511900e-02 9.11880000e+01 7.81616400e-03 1.18400000e-01
      -11 -1    0    0    0    0 +0.0000000000e+00 +0.0000000000e+00 +4.5593999997e+01 4.5594000000e+01 5.1100000000e-04 0.0000e+00 1.0000e+00
       11 -1    0    0    0    0 -0.0000000000e+00 -0.0000000000e+00 -4.5593999997e+01 4.5594000000e+01 5.1100000000e-04 0.0000e+00 -1.0000e+00
       23  2    1    2    0    0 +0.0000000000e+00 +0.0000000000e+00 +0.0000000000e+00 9.1188000000e+01 9.1188000000e+01 1.3528e-13 0.0000e+00
  9900012  1    3    3    0    0 -6.7666398364e+00 +1.4912409969e+01 +4.0192734270e+01 4.7787271044e+01 2.0000000000e+01 1.6146e-01 1.0000e+00
       12  1    3    3    0    0 +6.7666398364e+00 -1.4912409969e+01 -4.0192734270e+01 4.3400728956e+01 0.0000000000e+00 0.0000e+00 -1.0000e+00
</event>
<event>
 5      2 +2.9511900e-02 9.11880000e+01 7.81616400e-03 1.18400000e-01
      -11 -1    0    0    0    0 +0.0000000000e+00 +0.0000000000e+00 +4.5593999997e+01 4.5594000000e+01 5.1100000000e-04 0.0000e+00 -1.0000e+00
       11 -1    0    0    0    0 -0.0000000000e+00 -0.0000000000e+00 -4.5593999997e+01 4.5594000000e+01 5.1100000000e-04 0.0000e+00 1.0000e+00
       23  2    1    2    0    0 +0.0000000000e+00 +0.0000000000e+00 +0.0000000000e+00 9.1188000000e+01 9.1188000000e+01 1.3920e-14 0.0000e+00
  9900012  1    3    3    0    0 -1.4999636086e+01 -2.2130999134e+01 +3.4188493218e+01 4.7787271044e+01 2.0000000000e+01 3.5644e-01 -1.0000e+00
      -12  1    3    3    0    0 +1.4999636086e+01 +2.2130999134e+01 -3.4188493218e+01 4.3400728956e+01 0.0000000000e+00 0.0000e+00 1.0000e+00
</event>
<event>
 5      3 +2.9511900e-02 9.11880000e+01 7.81616400e-03 1.18400000e-01
      -11 -1    0    0    0    0 +0.0000000000e+00 +0.0000000000e+00 +4.5593999997e+01 4.5594000000e+01 5.1100000000e-04 0.0000e+00 1.0000e+00
       11 -1    0    0    0    0 -0.0000000000e+00 -0.0000000000e+00 -4.5593999997e+01 4.5594000000e+01 5.1100000000e-04 0.0000e+00 -1.0000e+00
       23  2    1    2    0    0 +0.0000000000e+00 +0.0000000000e+00 +0.0000000000e+00 9.1188000000e+01 9.1188000000e+01 1.6553e-13 0.0000e+00
  9900012  1    3    3    0    0 +8.3126211906e+00 -2.4447341511e+01 +3.4883392837e+01 4.7787271044e+01 2.0000000000e+01 4.3926e-02 1.0000e+00
       12  1    3    3    0    0 -8.3126211906e+00 +2.4447341511e+01 -3.4883392837e+01 4.3400728956e+01 0.0000000000e+00 0.0000e+00 -1.0000e+00
</event>
<event>
 5      3 +2.9511900e-02 9.11880000e+01 7.81616400e-03 1.18400000e-01
      -11 -1    0    0    0    0 +0.0000000000e+00 +0.0000000000e+00 +4.5593999997e+01 4.5594000000e+01 5.1100000000e-04 0.0000e+00 -1.0000e+00
       11 -1    0    0    0    0 -0.0000000000e+00 -0.0000000000e+00 -4.5593999997e+01 4.5594000000e+01 5.1100000000e-04 0.0000e+00 1.0000e+00
       23  2    1    2    0    0 +0.0000000000e+00 +0.0000000000e+00 +0.0000000000e+00 9.1188000000e+01 9.1188000000e+01 1.0348e-13 0.0000e+00
  9900012  1    3    3    0    0 +7.6916081272e+00 +4.0427269051e+01 +1.3787616014e+01 4.7787271044e+01 2.0000000000e+01 9.2439e-03 1.0000e+00
       12  1    3    3    0    0 -7.6916081272e+00 -4.0427269051e+01 -1.3787616014e+01 4.3400728956e+01 0.0000000000e+00 0.0000e+00 -1.0000e+00
</event>
<event>
 5      3 +2.9511900e-02 9.11880000e+01 7.81616400e-03 1.18400000e-01
      -11 -1    0    0    0    0 +0.0000000000e+00 +0.0000000000e+00 +4.5593999997e+01 4.5594000000e+01 5.1100000000e-04 0.0000e+00 1.0000e+00
       11 -1    0    0    0    0 -0.0000000000e+00 -0.0000000000e+00 -4.5593999997e+01 4.5594000000e+01 5.1100000000e-04 0.0000e+00 -1.0000e+00
       23  2    1    2    0    0 +0.0000000000e+00 +0.0000000000e+00 +0.0000000000e+00 9.1188000000e+01 9.1188000000e+01 3.9472e-14 0.0000e+00
  9900012  1    3    3    0    0 -3.3639719876e+01 -1.5790183808e+01 +2.2420138623e+01 4.7787271044e+01 2.0000000000e+01 6.8381e-02 1.0000e+00
       12  1    3    3    0    0 +3.3639719876e+01 +1.5790183808e+01 -2.2420138623e+01 4.3400728956e+01 0.0000000000e+00 0.0000e+00 -1.0000e+00
</event>
<event>
 5      3 +2.9511900e-02 9.11880000e+01 7.81616400e-03 1.18400000e-01
      -11 -1    0    0    0    0 +0.0000000000e+00 +0.0000000000e+00 +4.5593999997e+01 4.5594000000e+01 5.1100000000e-04 0.0000e+00 -1.0000e+00
       11 -1    0    0    0    0 -0.0000000000e+00 -0.0000000000e+00 -4.5593999997e+01 4.5594000000e+01 5.1100000000e-04 0.0000e+00 1.0000e+00
       23  2    1    2    0    0 +0.0000000000e+00 +0.0000000000e+00 +0.0000000000e+00 9.1188000000e+01 9.1188000000e+01 9.6507e-15 0.0000e+00
  9900012  1    3    3    0    0 -9.3592288325e+00 -2.1818910270e+01 -3.6331298685e+01 4.7787271044e+01 2.0000000000e+01 1.5513e-02 1.0000e+00
       12  1    3    3    0    0 +9.3592288325e+00 +2.1818910270e+01 +3.6331298685e+01 4.3400728956e+01 0.0000000000e+00 0.0000e+00 -1.0000e+00
</event>
<event>
 5      6 +2.9511900e-02 9.11880000e+01 7.81616400e-03 1.18400000e-01
      -11 -1    0    0    0    0 +0.0000000000e+00 +0.0000000000e+00 +4.5593999997e+01 4.5594000000e+01 5.1100000000e-04 0.0000e+00 1.0000e+00
       11 -1    0    0    0    0 -0.0000000000e+00 -0.0000000000e+00 -4.5593999997e+01 4.5594000000e+01 5.1100000000e-04 0.0000e+00 -1.0000e+00
       23  2    1    2    0    0 +0.0000000000e+00 +0.0000000000e+00 +0.0000000000e+00 9.1188000000e+01 9.1188000000e+01 4.1337e-15 0.0000e+00
  9900012  1    3    3    0    0 +3.5585081412e+01 -2.4827958932e+01 +9.4747561575e-01 4.7787271044e+01 2.0000000000e+01 3.4231e-02 -1.0000e+00
      -12  1    3    3    0    0 -3.5585081412e+01 +2.4827958932e+01 -9.4747561575e-01 4.3400728956e+01 0.0000000000e+00 0.0000e+00 1.0000e+00
</event>
<event>
 5      3 +2.9511900e-02 9.11880000e+01 7.81616400e-03 1.18400000e-01
      -11 -1    0    0    0    0 +0.0000000000e+00 +0.0000000000e+00 +4.5593999997e+01 4.5594000000e+01 5.1100000000e-04 0.0000e+00 1.0000e+00
       11 -1    0    0    0    0 -0.0000000000e+00 -0.0000000000e+00 -4.5593999997e+01 4.5594000000e+01 5.1100000000e-04 0.0000e+00 -1.0000e+00
       23  2    1    2    0    0 +0.0000000000e+00 +0.0000000000e+00 +0.0000000000e+00 9.1188000000e+01 9.1188000000e+01 4.8768e-14 0.0000e+00
  9900012  1    3    3    0    0 +3.5142794111e+01 +1.1458302400e+01 +2.2744551040e+01 4.7787271044e+01 2.0000000000e+01 2.0923e-01 1.0000e+00
       12  1    3    3    0    0 -3.5142794111e+01 -1.1458302400e+01 -2.2744551040e+01 4.3400728956e+01 0.0000000000e+00 0.0000e+00 -1.0000e+00
</event>
<event>
 5      3 +2.9511900e-02 9.11880000e+01 7.81616400e-03 1.18400000e-01
      -11 -1    0    0    0    0 +0.0000000000e+00 +0.0000000000e+00 +4.5593999997e+01 4.5594000000e+01 5.1100000000e-04 0.0000e+00 -1.0000e+00
       11 -1    0    0    0    0 -0.0000000000e+00 -0.0000000000e+00 -4.5593999997e+01 4.5594000000e+01 5.1100000000e-04 0.0000e+00 1.0000e+00
       23  2    1    2    0    0 +0.0000000000e+00 +0.0000000000e+00 +0.0000000000e+00 9.1188000000e+01 9.1188000000e+01 4.2227e-14 0.0000e+00
  9900012  1    3    3    0    0 -8.0615823346e+00 -1.0711591093e+01 -4.1278274920e+01 4.7787271044e+01 2.0000000000e+01 9.9177e-02 1.0000e+00
       12  1    3    3    0    0 +8.0615823346e+00 +1.0711591093e+01 +4.1278274920e+01 4.3400728956e+01 0.0000000000e+00 0.0000e+00 -1.0000e+00
</event>
<event>
 5      3 +2.9511900e-02 9.11880000e+01 7.81616400e-03 1.18400000e-01
      -11 -1    0    0    0    0 +0.0000000000e+00 +0.0000000000e+00 +4.5593999997e+01 4.5594000000e+01 5.1100000000e-04 0.0000e+00 1.0000e+00
       11 -1    0    0    0    0 -0.0000000000e+00 -0.0000000000e+00 -4.5593999997e+01 4.5594000000e+01 5.1100000000e-04 0.0000e+00 -1.0000e+00
       23  2    1    2    0    0 +0.0000000000e+00 +0.0000000000e+00 +0.0000000000e+00 9.1188000000e+01 9.1188000000e+01 2.2710e-14 0.0000e+00
  9900012  1    3    3    0    0 +3.6422776886e-01 -1.8876707054e+01 +3.9078901505e+01 4.7787271044e+01 2.0000000000e+01 1.6382e-01 1.0000e+00
       12  1    3    3    0    0 -3.6422776886e-01 +1.8876707054e+01 -3.9078901505e+01 4.3400728956e+01 0.0000000000e+00 0.0000e+00 -1.0000e+00
</event>
<event>
 5      5 +2.9511900e-02 9.11880000e+01 7.81616400e-03 1.18400000e-01
      -11 -1    0    0    0    0 +0.0000000000e+00 +0.0000000000e+00 +4.5593999997e+01 4.5594000000e+01 5.1100000000e-04 0.0000e+00 1.0000e+00
       11 -1    0    0    0    0 -0.0000000000e+00 -0.0000000000e+00 -4.5593999997e+01 4.5594000000e+01 5.1100000000e-04 0.0000e+00 -1.0000e+00
       23  2    1    2    0    0 +0.0000000000e+00 +0.0000000000e+00 +0.0000000000e+00 9.1188000000e+01 9.1188000000e+01 4.4608e-15 0.0000e+00
  9900012  1    3    3    0    0 -3.1180183348e+01 +1.3098326862e+01 +2.7200244001e+01 4.7787271044e+01 2.0000000000e+01 1.2784e-01 1.0000e+00
       12  1    3    3    0    0 +3.1180183348e+01 -1.3098326862e+01 -2.7200244001e+01 4.3400728956e+01 0.0000000000e+00 0.0000e+00 -1.0000e+00
</event>
<event>
 5      6 +2.9511900e-02 9.11880000e+01 7.81616400e-03 1.18400000e-01
      -11 -1    0    0    0    0 +0.0000000000e+00 +0.0000000000e+00 +4.5593999997e+01 4.5594000000e+01 5.1100000000e-04 0.0000e+00 1.0000e+00
       11 -1    0    0    0    0 -0.0000000000e+00 -0.0000000000e+00 -4.5593999997e+01 4.5594000000e+01 5.1100000000e-04 0.0000e+00 -1.0000e+00
       23  2    1    2    0    0 +0.0000000000e+00 +0.0000000000e+00 +0.0000000000e+00 9.1188000000e+01 9.1188000000e+01 1.3095e-13 0.0000e+00
  9900012  1    3    3    0    0 +2.9993559735e+01 -1.9998567684e+00 -3.1305114936e+01 4.7787271044e+01 2.0000000000e+01 1.9808e-02 -1.0000e+00
      -12  1    3    3    0    0 -2.9993559735e+01 +1.9998567684e+00 +3.1305114936e+01 4.3400728956e+01 0.0000000000e+00 0.0000e+00 1.0000e+00
</event>
<event>
 5      6 +2.9511900e-02 9.11880000e+01 7.81616400e-03 1.18400000e-01
      -11 -1    0    0    0    0 +0.0000000000e+00 +0.0000000000e+00 +4.5593999997e+01 4.5594000000e+01 5.1100000000e-04 0.0000e+00 1.0000e+00
       11 -1    0    0    0    0 -0.0000000000e+00 -0.0000000000e+00 -4.5593999997e+01 4.5594000000e+01 5.1100000000e-04 0.0000e+00 -1.0000e+00
       23  2    1    2    0    0 +0.0000000000e+00 +0.0000000000e+00 +0.0000000000e+00 9.1188000000e+01 9.1188000000e+01 7.9122e-14 0.0000e+00
  9900012  1    3    3    0    0 +1.0033097744e+01 -1.7209584283e+01 -3.8558921566e+01 4.7787271044e+01 2.0000000000e+01 6.6362e-02 -1.0000e+00
      -12  1    3    3    0    0 -1.0033097744e+01 +1.7209584283e+01 +3.8558921566e+01 4.3400728956e+01 0.0000000000e+00 0.0000e+00 1.0000e+00
</event>
<event>
 5      4 +2.9511900e-02 9.11880000e+01 7.81616400e-03 1.18400000e-01
      -11 -1    0    0    0    0 +0.0000000000e+00 +0.0000000000e+00 +4.5593999997e+01 4.5594000000e+01 5.1100000000e-04 0.0000e+00 -1.0000e+00
       11 -1    0    0    0    0 -0.0000000000e+00 -0.0000000000e+00 -4.5593999997e+01 4.5594000000e+01 5.1100000000e-04 0.0000e+00 1.0000e+00
       23  2    1    2    0    0 +0.0000000000e+00 +0.0000000000e+00 +0.0000000000e+00 9.1188000000e+01 9.1188000000e+01 6.6283e-14 0.0000e+00
  9900012  1    3    3    0    0 +2.7365000063e+01 +3.0750332172e+01 +1.3754894284e+01 4.7787271044e+01 2.0000000000e+01 4.7542e-02 -1.0000e+00
      -12  1    3    3    0    0 -2.7365000063e+01 -3.0750332172e+01 -1.3754894284e+01 4.3400728956e+01 0.0000000000e+00 0.0000e+00 1.0000e+00
</event>
<event>
 5      3 +2.9511900e-02 9.11880000e+01 7.81616400e-03 1.18400000e-01
      -11 -1    0    0    0    0 +0.0000000000e+00 +0.0000000000e+00 +4.5593999997e+01 4.5594000000e+01 5.1100000000e-04 0.0000e+00 1.0000e+00
       11 -1    0    0    0    0 -0.0000000000e+00 -0.0000000000e+00 -4.5593999997e+01 4.5594000000e+01 5.1100000000e-04 0.0000e+00 -1.0000e+00
       23  2    1    2    0    0 +0.0000000000e+00 +0.0000000000e+00 +0.0000000000e+00 9.1188000000e+01 9.1188000000e+01 1.1050e-13 0.0000e+00
  9900012  1    3    3    0    0 -8.6746517210e+00 +7.8502118335e+00 +4.1794112810e+01 4.7787271044e+01 2.0000000000e+01 8.8083e-02 1.0000e+00
       12  1    3    3    0    0 +8.6746517210e+00 -7.8502118335e+00 -4.1794112810e+01 4.3400728956e+01 0.0000000000e+00 0.0000e+00 -1.0000e+00
</event>
<event>
 5      3 +2.9511900e-02 9.11880000e+01 7.81616400e-03 1.18400000e-01
      -11 -1    0    0    0    0 +0.0000000000e+00 +0.0000000000e+00 +4.5593999997e+01 4.5594000000e+01 5.1100000000e-04 0.0000e+00 1.0000e+00
       11 -1    0    0    0    0 -0.0000000000e+00 -0.0000000000e+00 -4.5593999997e+01 4.5594000000e+01 5.1100000000e-04 0.0000e+00 -1.0000e+00
       23  2    1    2    0    0 +0.0000000000e+00 +0.0000000000e+00 +0.0000000000e+00 9.1188000000e+01 9.1188000000e+01 1.1046e-14 0.0000e+00
  9900012  1    3    3    0    0 -1.5781754200e+01 -2.7824704446e+00 +4.0333824099e+01 4.7787271044e+01 2.0000000000e+01 1.8872e-02 1.0000e+00
       12  1    3    3    0    0 +1.5781754200e+01 +2.7824704446e+00 -4.0333824099e+01 4.3400728956e+01 0.0000000000e+00 0.0000e+00 -1.0000e+00
</event>
<event>
 5      3 +2.9511900e-02 9.11880000e+01 7.81616400e-03 1.18400000e-01
      -11 -1    0    0    0    0 +0.0000000000e+00 +0.0000000000e+00 +4.5593999997e+01 4.5594000000e+01 5.1100000000e-04 0.0000e+00 -1.0000e+00
       11 -1    0    0    0    0 -0.0000000000e+00 -0.0000000000e+00 -4.5593999997e+01 4.5594000000e+01 5.1100000000e-04 0.0000e+00 1.0000e+00
       23  2    1    2    0    0 +0.0000000000e+00 +0.0000000000e+00 +0.0000000000e+00 9.1188000000e+01 9.1188000000e+01 3.7048e-14 0.0000e+00
  9900012  1    3    3    0    0 +1.8736669469e+01 +3.6659498423e+01 -1.3734688436e+01 4.7787271044e+01 2.0000000000e+01 1.5573e-01 1.0000e+00
       12  1    3    3    0    0 -1.8736669469e+01 -3.6659498423e+01 +1.3734688436e+01 4.3400728956e+01 0.0000000000e+00 0.0000e+00 -1.0000e+00
</event>
<event>
 5      1 +2.9511900e-02 9.11880000e+01 7.81616400e-03 1.18400000e-01
      -11 -1    0    0    0    0 +0.0000000000e+00 +0.0000000000e+00 +4.5593999997e+01 4.5594000000e+01 5.1100000000e-04 0.0000e+00 1.0000e+00
       11 -1    0    0    0    0 -0.0000000000e+00 -0.0000000000e+00 -4.5593999997e+01 4.5594000000e+01 5.1100000000e-04 0.0000e+00 -1.0000e+00
       23  2    1    2    0    0 +0.0000000000e+00 +0.0000000000e+00 +0.0000000000e+00 9.1188000000e+01 9.1188000000e+01 4.2734e-14 0.0000e+00
  9900012  1    3    3    0    0 +1.3283865397e+01 +3.0155509226e+01 +2.8245485610e+01 4.7787271044e+01 2.0000000000e+01 1.0327e-01 1.0000e+00
       12  1    3    3    0    0 -1.3283865397e+01 -3.0155509226e+01 -2.8245485610e+01 4.3400728956e+01 0.0000000000e+00 0.0000e+00 -1.0000e+00
</event>
<event>
 5      1 +2.9511900e-02 9.11880000e+01 7.81616400e-03 1.18400000e-01
      -11 -1    0    0    0    0 +0.0000000000e+00 +0.0000000000e+00 +4.5593999997e+01 4.5594000000e+01 5.1100000000e-04 0.0000e+00 1.0000e+00
       11 -1    0    0    0    0 -0.0000000000e+00 -0.0000000000e+00 -4.5593999997e+01 4.5594000000e+01 5.1100000000e-04 0.0000e+00 -1.0000e+00
       23  2    1    2    0    0 +0.0000000000e+00 +0.0000000000e+00 +0.0000000000e+00 9.1188000000e+01 9.1188000000e+01 1.3929e-13 0.0000e+00
  9900012  1    3    3    0    0 -1.5197448427e+01 +2.7836225699e+01 +2.9627780443e+01 4.7787271044e+01 2.0000000000e+01 1.0533e-01 1.0000e+00
       12  1    3    3    0    0 +1.5197448427e+01 -2.7836225699e+01 -2.9627780443e+01 4.3400728956e+01 0.0000000000e+00 0.0000e+00 -1.0000e+00
</event>
<event>
 5      4 +2.9511900e-02 9.11880000e+01 7.81616400e-03 1.18400000e-01
      -11 -1    0    0    0    0 +0.0000000000e+00 +0.0000000000e+00 +4.5593999997e+01 4.5594000000e+01 5.1100000000e-04 0.0000e+00 1.0000e+00
       11 -1    0    0    0    0 -0.0000000000e+00 -0.0000000000e+00 -4.5593999997e+01 4.5594000000e+01 5.1100000000e-04 0.0000e+00 -1.0000e+00
       23  2    1    2    0    0 +0.0000000000e+00 +0.0000000000e+00 +0.0000000000e+00 9.1188000000e+01 9.1188000000e+01 2.8729e-14 0.0000e+00
  9900012  1    3    3    0    0 -1.0195311918e+00 +2.9869991383e+01 -3.1470103985e+01 4.7787271044e+01 2.0000000000e+01 1.8322e-01 -1.0000e+00
      -12  1    3    3    0    0 +1.0195311918e+00 -2.9869991383e+01 +3.1470103985e+01 4.3400728956e+01 0.0000000000e+00 0.0000e+00 1.0000e+00
</event>
<event>
 5      4 +2.9511900e-02 9.11880000e+01 7.81616400e-03 1.18400000e-01
      -11 -1    0    0    0    0 +0.0000000000e+00 +0.0000000000e+00 +4.5593999997e+01 4.5594000000e+01 5.1100000000e-04 0.0000e+00 -1.0000e+00
       11 -1    0    0    0    0 -0.0000000000e+00 -0.0000000000e+00 -4.5593999997e+01 4.5594000000e+01 5.1100000000e-04 0.0000e+00 1.0000e+00
       23  2    1    2    0    0 +0.0000000000e+00 +0.0000000000e+00 +0.0000000000e+00 9.1188000000e+01 9.1188000000e+01 2.4732e-14 0.0000e+00
  9900012  1    3    3    0    0 +4.1332256476e+01 -1.2453181691e+01 -4.4928959754e+00 4.7787271044e+01 2.0000000000e+01 8.0403e-02 -1.0000e+00
      -12  1    3    3    0    0 -4.1332256476e+01 +1.2453181691e+01 +4.4928959754e+00 4.3400728956e+01 0.0000000000e+00 0.0000e+00 1.0000e+00
</event>
<event>
 5      6 +2.9511900e-02 9.11880000e+01 7.81616400e-03 1.18400000e-01
      -11 -1    0    0    0    0 +0.0000000000e+00 +0.0000000000e+00 +4.5593999997e+01 4.5594000000e+01 5.1100000000e-04 0.0000e+00 1.0000e+00
       11 -1    0    0    0    0 -0.0000000000e+00 -0.0000000000e+00 -4.5593999997e+01 4.5594000000e+01 5.1100000000e-04 0.0000e+00 -1.0000e+00
       23  2    1    2    0    0 +0.0000000000e+00 +0.0000000000e+00 +0.0000000000e+00 9.1188000000e+01 9.1188000000e+01 3.0168e-14 0.0000e+00
  9900012  1    3    3    0    0 +2.7464384422e+00 -2.0639808303e+01 -3.8079898411e+01 4.7787271044e+01 2.0000000000e+01 1.4238e-01 -1.0000e+00
      -12  1    3    3    0    0 -2.7464384422e+00 +2.0639808303e+01 +3.8079898411e+01 4.3400728956e+01 0.0000000000e+00 0.0000e+00 1.0000e+00
</event>
<event>
 5      6 +2.9511900e-02 9.11880000e+01 7.81616400e-03 1.18400000e-01
      -11 -1    0    0    0    0 +0.0000000000e+00 +0.0000000000e+00 +4.5593999997e+01 4.5594000000e+01 5.1100000000e-04 0.0000e+00 1.0000e+00
       11 -1    0    0    0    0 -0.0000000000e+00 -0.0000000000e+00 -4.5593999997e+01 4.5594000000e+01 5.1100000000e-04 0.0000e+00 -1.0000e+00
       23  2    1    2    0    0 +0.0000000000e+00 +0.0000000000e+00 +0.0000000000e+00 9.1188000000e+01 9.1188000000e+01 7.9352e-14 0.0000e+00
  9900012  1    3    3    0    0 +3.0447300086e+01 +3.0830972430e+01 +2.4568944648e+00 4.7787271044e+01 2.0000000000e+01 2.9476e-02 -1.0000e+00
      -12  1    3    3    0    0 -3.0447300086e+01 -3.0830972430e+01 -2.4568944648e+00 4.3400728956e+01 0.0000000000e+00 0.0000e+00 1.0000e+00
</event>
<event>
 5      7 +2.9511900e-02 9.11880000e+01 7.81616400e-03 1.18400000e-01
      -11 -1    0    0    0    0 +0.0000000000e+00 +0.0000000000e+00 +4.5593999997e+01 4.5594000000e+01 5.1100000000e-04 0.0000e+00 1.0000e+00
       11 -1    0    0    0    0 -0.0000000000e+00 -0.0000000000e+00 -4.5593999997e+01 4.5594000000e+01 5.1100000000e-04 0.0000e+00 -1.0000e+00
       23  2    1    2    0    0 +0.0000000000e+00 +0.0000000000e+00 +0.0000000000e+00 9.1188000000e+01 9.1188000000e+01 2.6177e-14 0.0000e+00
  9900012  1    3    3    0    0 +1.9980284777e+01 -3.8422210409e+01 +2.8539869338e+00 4.7787271044e+01 2.0000000000e+01 7.4298e-02 1.0000e+00
       12  1    3    3    0    0 -1.9980284777e+01 +3.8422210409e+01 -2.8539869338e+00 4.3400728956e+01 0.0000000000e+00 0.0000e+00 -1.0000e+00
</event>
<event>
 5      4 +2.9511900e-02 9.11880000e+01 7.81616400e-03 1.18400000e-01
      -11 -1    0    0    0    0 +0.0000000000e+00 +0.0000000000e+00 +4.5593999997e+01 4.5594000000e+01 5.1100000000e-04 0.0000e+00 1.0000e+00
       11 -1    0    0    0    0 -0.0000000000e+00 -0.0000000000e+00 -4.5593999997e+01 4.5594000000e+01 5.1100000000e-04 0.0000e+00 -1.0000e+00
       23  2    1    2    0    0 +0.0000000000e+00 +0.0000000000e+00 +0.0000000000e+00 9.1188000000e+01 9.1188000000e+01 9.5222e-14 0.0000e+00
  9900012  1    3    3    0    0 -3.3296438640e+01 -6.6127872233e+00 -2.7041477269e+01 4.7787271044e+01 2.0000000000e+01 1.3554e-01 -1.0000e+00
      -12  1    3    3    0    0 +3.3296438640e+01 +6.6127872233e+00 +2.7041477269e+01 4.3400728956e+01 0.0000000000e+00 0.0000e+00 1.0000e+00
</event>
<event>
 5      2 +2.9511900e-02 9.11880000e+01 7.81616400e-03 1.18400000e-01
      -11 -1    0    0    0    0 +0.0000000000e+00 +0.0000000000e+00 +4.5593999997e+01 4.5594000000e+01 5.1100000000e-04 0.0000e+00 -1.0000e+00
       11 -1    0    0    0    0 -0.0000000000e+00 -0.0000000000e+00 -4.5593999997e+01 4.5594000000e+01 5.1100000000e-04 0.0000e+00 1.0000e+00
       23  2    1    2    0    0 +0.0000000000e+00 +0.0000000000e+00 +0.0000000000e+00 9.1188000000e+01 9.1188000000e+01 1.3041e-13 0.0000e+00
  9900012  1    3    3    0    0 -2.6898220893e+01 -1.4473994039e+01 +3.0832004204e+01 4.7787271044e+01 2.0000000000e+01 5.5667e-01 -1.0000e+00
      -12  1    3    3    0    0 +2.6898220893e+01 +1.4473994039e+01 -3.0832004204e+01 4.3400728956e+01 0.0000000000e+00 0.0000e+00 1.0000e+00
</event>
<event>
 5      8 +2.9511900e-02 9.11880000e+01 7.81616400e-03 1.18400000e-01
      -11 -1    0    0    0    0 +0.0000000000e+00 +0.0000000000e+00 +4.5593999997e+01 4.5594000000e+01 5.1100000000e-04 0.0000e+00 1.0000e+00
       11 -1    0    0    0    0 -0.0000000000e+00 -0.0000000000e+00 -4.5593999997e+01 4.5594000000e+01 5.1100000000e-04 0.0000e+00 -1.0000e+00
       23  2    1    2    0    0 +0.0000000000e+00 +0.0000000000e+00 +0.0000000000e+00 9.1188000000e+01 9.1188000000e+01 3.2568e-14 0.0000e+00
  9900012  1    3    3    0    0 -7.2444696867e+00 +2.1463004863e+01 -3.7019999393e+01 4.7787271044e+01 2.0000000000e+01 1.7933e-01 -1.0000e+00
      -12  1    3    3    0    0 +7.2444696867e+00 -2.1463004863e+01 +3.7019999393e+01 4.3400728956e+01 0.0000000000e+00 0.0000e+00 1.0000e+00
</event>
<event>
 5      5 +2.9511900e-02 9.11880000e+01 7.81616400e-03 1.18400000e-01
      -11 -1    0    0    0    0 +0.0000000000e+00 +0.0000000000e+00 +4.5593999997e+01 4.5594000000e+01 5.1100000000e-04 0.0000e+00 1.0000e+00
       11 -1    0    0    0    0 -0.0000000000e+00 -0.0000000000e+00 -4.5593999997e+01 4.5594000000e+01 5.1100000000e-04 0.0000e+00 -1.0000e+00
       23  2    1    2    0    0 +0.0000000000e+00 +0.0000000000e+00 +0.0000000000e+00 9.1188000000e+01 9.1188000000e+01 2.5601e-14 0.0000e+00
  9900012  1    3    3    0    0 -1.6261838708e+01 +2.8281355959e+01 +2.8624129346e+01 4.7787271044e+01 2.0000000000e+01 1.4199e-01 1.0000e+00
       12  1    3    3    0    0 +1.6261838708e+01 -2.8281355959e+01 -2.8624129346e+01 4.3400728956e+01 0.0000000000e+00 0.0000e+00 -1.0000e+00
</event>
<event>
 5      4 +2.9511900e-02 9.11880000e+01 7.81616400e-03 1.18400000e-01
      -11 -1    0    0    0    0 +0.0000000000e+00 +0.0000000000e+00 +4.5593999997e+01 4.5594000000e+01 5.1100000000e-04 0.0000e+00 1.0000e+00
       11 -1    0    0    0    0 -0.0000000000e+00 -0.0000000000e+00 -4.5593999997e+01 4.5594000000e+01 5.1100000000e-04 0.0000e+00 -1.0000e+00
       23  2    1    2    0    0 +0.0000000000e+00 +0.0000000000e+00 +0.0000000000e+00 9.1188000000e+01 9.1188000000e+01 1.4707e-13 0.0000e+00
  9900012  1    3    3    0    0 -1.0269681557e+01 -2.8021248594e+01 -3.1511371627e+01 4.7787271044e+01 2.0000000000e+01 8.9884e-02 -1.0000e+00
      -12  1    3    3    0    0 +1.0269681557e+01 +2.8021248594e+01 +3.1511371627e+01 4.3400728956e+01 0.0000000000e+00 0.0000e+00 1.0000e+00
</event>
<event>
 5      4 +2.9511900e-02 9.11880000e+01 7.81616400e-03 1.18400000e-01
      -11 -1    0    0    0    0 +0.0000000000e+00 +0.0000000000e+00 +4.5593999997e+01 4.5594000000e+01 5.1100000000e-04 0.0000e+00 -1.0000e+00
       11 -1    0    0    0    0 -0.0000000000e+00 -0.0000000000e+00 -4.5593999997e+01 4.5594000000e+01 5.1100000000e-04 0.0000e+00 1.0000e+00
       23  2    1    2    0    0 +0.0000000000e+00 +0.0000000000e+00 +0.0000000000e+00 9.1188000000e+01 9.1188000000e+01 1.3557e-13 0.0000e+00
  9900012  1    3    3    0    0 +4.0927599680e+00 -2.0188848867e+00 +4.3160128516e+01 4.7787271044e+01 2.0000000000e+01 1.7608e-01 -1.0000e+00
      -12  1    3    3    0    0 -4.0927599680e+00 +2.0188848867e+00 -4.3160128516e+01 4.3400728956e+01 0.0000000000e+00 0.0000e+00 1.0000e+00
</event>
<event>
 5      3 +2.9511900e-02 9.11880000e+01 7.81616400e-03 1.18400000e-01
      -11 -1    0    0    0    0 +0.0000000000e+00 +0.0000000000e+00 +4.5593999997e+01 4.5594000000e+01 5.1100000000e-04 0.0000e+00 1.0000e+00
       11 -1    0    0    0    0 -0.0000000000e+00 -0.0000000000e+00 -4.5593999997e+01 4.5594000000e+01 5.1100000000e-04 0.0000e+00 -1.0000e+00
       23  2    1    2    0    0 +0.0000000000e+00 +0.0000000000e+00 +0.0000000000e+00 9.1188000000e+01 9.1188000000e+01 1.3656e-13 0.0000e+00
  9900012  1    3    3    0    0 -2.1434658202e+01 +3.7531201196e+01 -3.9481183415e+00 4.7787271044e+01 2.0000000000e+01 1.3753e-02 1.0000e+00
       12  1    3    3    0    0 +2.1434658202e+01 -3.7531201196e+01 +3.9481183415e+00 4.3400728956e+01 0.0000000000e+00 0.0000e+00 -1.0000e+00
</event>
<event>
 5      3 +2.9511900e-02 9.11880000e+01 7.81616400e-03 1.18400000e-01
      -11 -1    0    0    0    0 +0.0000000000e+00 +0.0000000000e+00 +4.5593999997e+01 4.5594000000e+01 5.1100000000e-04 0.0000e+00 -1.0000e+00
       11 -1    0    0    0    0 -0.0000000000e+00 -0.0000000000e+00 -4.5593999997e+01 4.5594000000e+01 5.1100000000e-04 0.0000e+00 1.0000e+00
       23  2    1    2    0    0 +0.0000000000e+00 +0.0000000000e+00 +0.0000000000e+00 9.1188000000e+01 9.1188000000e+01 1.3417e-13 0.0000e+00
  9900012  1    3    3    0    0 -3.9955999436e+01 -1.6821036427e+01 -2.0479542216e+00 4.7787271044e+01 2.0000000000e+01 2.7426e-02 1.0000e+00
       12  1    3    3    0    0 +3.9955999436e+01 +1.6821036427e+01 +2.0479542216e+00 4.3400728956e+01 0.0000000000e+00 0.0000e+00 -1.0000e+00
</event>
<event>
 5      5 +2.9511900e-02 9.11880000e+01 7.81616400e-03 1.18400000e-01
      -11 -1    0    0    0    0 +0.0000000000e+00 +0.0000000000e+00 +4.5593999997e+01 4.5594000000e+01 5.1100000000e-04 0.0000e+00 1.0000e+00
       11 -1    0    0    0    0 -0.0000000000e+00 -0.0000000000e+00 -4.5593999997e+01 4.5594000000e+01 5.1100000000e-04 0.0000e+00 -1.0000e+00
       23  2    1    2    0    0 +0.0000000000e+00 +0.0000000000e+00 +0.0000000000e+00 9.1188000000e+01 9.1188000000e+01 5.6994e-14 0.0000e+00
  9900012  1    3    3    0    0 -1.8501761932e+01 +2.8473155828e+01 +2.7029381725e+01 4.7787271044e+01 2.0000000000e+01 1.5255e-01 1.0000e+00
       12  1    3    3    0    0 +1.8501761932e+01 -2.8473155828e+01 -2.7029381725e+01 4.3400728956e+01 0.0000000000e+00 0.0000e+00 -1.0000e+00
</event>
<event>
 5      6 +2.9511900e-02 9.11880000e+01 7.81616400e-03 1.18400000e-01
      -11 -1    0    0    0    0 +0.0000000000e+00 +0.0000000000e+00 +4.5593999997e+01 4.5594000000e+01 5.1100000000e-04 0.0000e+00 1.0000e+00
       11 -1    0    0    0    0 -0.0000000000e+00 -0.0000000000e+00 -4.5593999997e+01 4.5594000000e+01 5.1100000000e-04 0.0000e+00 -1.0000e+00
       23  2    1    2    0    0 +0.0000000000e+00 +0.0000000000e+00 +0.0000000000e+00 9.1188000000e+01 9.1188000000e+01 3.2657e-14 0.0000e+00
  9900012  1    3    3    0    0 +7.2838767267e+00 -5.7847941620e+00 -4.2392270170e+01 4.7787271044e+01 2.0000000000e+01 6.2529e-03 -1.0000e+00
      -12  1    3    3    0    0 -7.2838767267e+00 +5.7847941620e+00 +4.2392270170e+01 4.3400728956e+01 0.0000000000e+00 0.0000e+00 1.0000e+00
</event>
<event>
 5      5 +2.9511900e-02 9.11880000e+01 7.81616400e-03 1.18400000e-01
      -11 -1    0    0    0    0 +0.0000000000e+00 +0.0000000000e+00 +4.5593999997e+01 4.5594000000e+01 5.1100000000e-04 0.0000e+00 1.0000e+00
       11 -1    0    0    0    0 -0.0000000000e+00 -0.0000000000e+00 -4.5593999997e+01 4.5594000000e+01 5.1100000000e-04 0.0000e+00 -1.0000e+00
       23  2    1    2    0    0 +0.0000000000e+00 +0.0000000000e+00 +0.0000000000e+00 9.1188000000e+01 9.1188000000e+01 1.0876e-13 0.0000e+00
  9900012  1    3    3    0    0 -2.0865274338e+01 +2.5623948736e+01 +2.8136752688e+01 4.7787271044e+01 2.0000000000e+01 1.2132e-01 1.0000e+00
       12  1    3    3    0    0 +2.0865274338e+01 -2.5623948736e+01 -2.8136752688e+01 4.3400728956e+01 0.0000000000e+00 0.0000e+00 -1.0000e+00
</event>
<event>
 5      1 +2.9511900e-02 9.11880000e+01 7.81616400e-03 1.18400000e-01
      -11 -1    0    0    0    0 +0.0000000000e+00 +0.0000000000e+00 +4.5593999997e+01 4.5594000000e+01 5.1100000000e-04 0.0000e+00 -1.0000e+00
       11 -1    0    0    0    0 -0.0000000000e+00 -0.0000000000e+00 -4.5593999997e+01 4.5594000000e+01 5.1100000000e-04 0.0000e+00 1.0000e+00
       23  2    1    2    0    0 +0.0000000000e+00 +0.0000000000e+00 +0.0000000000e+00 9.1188000000e+01 9.1188000000e+01 1.0087e-13 0.0000e+00
  9900012  1    3    3    0    0 +2.4440568610e+00 -2.4947769992e+01 -3.5429629301e+01 4.7787271044e+01 2.0000000000e+01 7.7951e-02 1.0000e+00
       12  1    3    3    0    0 -2.4440568610e+00 +2.4947769992e+01 +3.5429629301e+01 4.3400728956e+01 0.0000000000e+00 0.0000e+00 -1.0000e+00
</event>
<event>
 5      6 +2.9511900e-02 9.11880000e+01 7.81616400e-03 1.18400000e-01
      -11 -1    0    0    0    0 +0.0000000000e+00 +0.0000000000e+00 +4.5593999997e+01 4.5594000000e+01 5.1100000000e-04 0.0000e+00 1.0000e+00
       11 -1    0    0    0    0 -0.0000000000e+00 -0.0000000000e+00 -4.5593999997e+01 4.5594000000e+01 5.1100000000e-04 0.0000e+00 -1.0000e+00
       23  2    1    2    0    0 +0.0000000000e+00 +0.0000000000e+00 +0.0000000000e+00 9.1188000000e+01 9.1188000000e+01 3.0048e-14 0.0000e+00
  9900012  1    3    3    0    0 -9.2134836950e+00 +3.0767260337e+01 -2.9190934953e+01 4.7787271044e+01 2.0000000000e+01 4.9379e-02 -1.0000e+00
      -12  1    3    3    0    0 +9.2134836950e+00 -3.0767260337e+01 +2.9190934953e+01 4.3400728956e+01 0.0000000000e+00 0.0000e+00 1.0000e+00
</event>
<event>
 5      3 +2.9511900e-02 9.11880000e+01 7.81616400e-03 1.18400000e-01
      -11 -1    0    0    0    0 +0.0000000000e+00 +0.0000000000e+00 +4.5593999997e+01 4.5594000000e+01 5.1100000000e-04 0.0000e+00 1.0000e+00
       11 -1    0    0    0    0 -0.0000000000e+00 -0.0000000000e+00 -4.5593999997e+01 4.5594000000e+01 5.1100000000e-04 0.0000e+00 -1.0000e+00
       23  2    1    2    0    0 +0.0000000000e+00 +0.0000000000e+00 +0.0000000000e+00 9.1188000000e+01 9.1188000000e+01 5.6787e-14 0.0000e+00
  9900012  1    3    3    0    0 +1.3697586260e+01 -3.0224770450e+01 +2.7972533953e+01 4.7787271044e+01 2.0000000000e+01 1.7790e-02 1.0000e+00
       12  1    3    3    0    0 -1.3697586260e+01 +3.0224770450e+01 -2.7972533953e+01 4.3400728956e+01 0.0000000000e+00 0.0000e+00 -1.0000e+00
</event>
<event>
 5      6 +2.9511900e-02 9.11880000e+01 7.81616400e-03 1.18400000e-01
      -11 -1    0    0    0    0 +0.0000000000e+00 +0.0000000000e+00 +4.5593999997e+01 4.5594000000e+01 5.1100000000e-04 0.0000e+00 1.0000e+00
       11 -1    0    0    0    0 -0.0000000000e+00 -0.0000000000e+00 -4.5593999997e+01 4.5594000000e+01 5.1100000000e-04 0.0000e+00 -1.0000e+00
       23  2    1    2    0    0 +0.0000000000e+00 +0.0000000000e+00 +0.0000000000e+00 9.1188000000e+01 9.1188000000e+01 5.5601e-14 0.0000e+00
  9900012  1    3    3    0    0 -8.2846306768e+00 +2.3545499628e+01 -3.5504895658e+01 4.7787271044e+01 2.0000000000e+01 4.0651e-04 -1.0000e+00
      -12  1    3    3    0    0 +8.2846306768e+00 -2.3545499628e+01 +3.5504895658e+01 4.3400728956e+01 0.0000000000e+00 0.0000e+00 1.0000e+00
</event>
<event>
 5      3 +2.9511900e-02 9.11880000e+01 7.81616400e-03 1.18400000e-01
      -11 -1    0    0    0    0 +0.0000000000e+00 +0.0000000000e+00 +4.5593999997e+01 4.5594000000e+01 5.1100000000e-04 0.0000e+00 -1.0000e+00
       11 -1    0    0    0    0 -0.0000000000e+00 -0.0000000000e+00 -4.5593999997e+01 4.5594000000e+01 5.1100000000e-04 0.0000e+00 1.0000e+00
       23  2    1    2    0    0 +0.0000000000e+00 +0.0000000000e+00 +0.0000000000e+00 9.1188000000e+01 9.1188000000e+01 1.6687e-14 0.0000e+00
  9900012  1    3    3    0    0 -1.1500923133e+01 -3.8469177198e+00 -4.1671972176e+01 4.7787271044e+01 2.0000000000e+01 8.0430e-02 1.0000e+00
       12  1    3    3    0    0 +1.1500923133e+01 +3.8469177198e+00 +4.1671972176e+01 4.3400728956e+01 0.0000000000e+00 0.0000e+00 -1.0000e+00
</event>
<event>
 5      1 +2.9511900e-02 9.11880000e+01 7.81616400e-03 1.18400000e-01
      -11 -1    0    0    0    0 +0.0000000000e+00 +0.0000000000e+00 +4.5593999997e+01 4.5594000000e+01 5.1100000000e-04 0.0000e+00 -1.0000e+00
       11 -1    0    0    0    0 -0.0000000000e+00 -0.0000000000e+00 -4.5593999997e+01 4.5594000000e+01 5.1100000000e-04 0.0000e+00 1.0000e+00
       23  2    1    2    0    0 +0.0000000000e+00 +0.0000000000e+00 +0.0000000000e+00 9.1188000000e+01 9.1188000000e+01 5.3539e-14 0.0000e+00
  9900012  1    3    3    0    0 -3.2688533962e+01 +1.3931191980e+01 -2.4919970131e+01 4.7787271044e+01 2.0000000000e+01 3.6382e-02 -1.0000e+00
       12  1    3    3    0    0 +3.2688533962e+01 -1.3931191980e+01 +2.4919970131e+01 4.3400728956e+01 0.0000000000e+00 0.0000e+00 -1.0000e+00
</event>
<event>
 5      6 +2.9511900e-02 9.11880000e+01 7.81616400e-03 1.18400000e-01
      -11 -1    0    0    0    0 +0.0000000000e+00 +0.0000000000e+00 +4.5593999997e+01 4.5594000000e+01 5.1100000000e-04 0.0000e+00 -1.0000e+00
       11 -1    0    0    0    0 -0.0000000000e+00 -0.0000000000e+00 -4.5593999997e+01 4.5594000000e+01 5.1100000000e-04 0.0000e+00 1.0000e+00
       23  2    1    2    0    0 +0.0000000000e+00 +0.0000000000e+00 +0.0000000000e+00 9.1188000000e+01 9.1188000000e+01 2.5012e-14 0.0000e+00
  9900012  1    3    3    0    0 -1.4495637521e+01 -2.0422073245e+01 +3.5446278946e+01 4.7787271044e+01 2.0000000000e+01 4.3152e-02 -1.0000e+00
      -12  1    3    3    0    0 +1.4495637521e+01 +2.0422073245e+01 -3.5446278946e+01 4.3400728956e+01 0.0000000000e+00 0.0000e+00 1.0000e+00
</event>
<event>
 5      2 +2.9511900e-02 9.11880000e+01 7.81616400e-03 1.18400000e-01
      -11 -1    0    0    0    0 +0.0000000000e+00 +0.0000000000e+00 +4.5593999997e+01 4.5594000000e+01 5.1100000000e-04 0.0000e+00 1.0000e+00
       11 -1    0    0    0    0 -0.0000000000e+00 -0.0000000000e+00 -4.5593999997e+01 4.5594000000e+01 5.1100000000e-04 0.0000e+00 -1.0000e+00
       23  2    1    2    0    0 +0.0000000000e+00 +0.0000000000e+00 +0.0000000000e+00 9.1188000000e+01 9.1188000000e+01 3.7829e-14 0.0000e+00
  9900012  1    3    3    0    0 -6.8512551501e+00 -1.5732375470e+01 -3.9864469629e+01 4.7787271044e+01 2.0000000000e+01 3.3132e-01 -1.0000e+00
      -12  1    3    3    0    0 +6.8512551501e+00 +1.5732375470e+01 +3.9864469629e+01 4.3400728956e+01 0.0000000000e+00 0.0000e+00 1.0000e+00
</event>
<event>
 5      4 +2.9511900e-02 9.11880000e+01 7.81616400e-03 1.18400000e-01
      -11 -1    0    0    0    0 +0.0000000000e+00 +0.0000000000e+00 +4.5593999997e+01 4.5594000000e+01 5.1100000000e-04 0.0000e+00 1.0000e+00
       11 -1    0    0    0    0 -0.0000000000e+00 -0.0000000000e+00 -4.5593999997e+01 4.5594000000e+01 5.1100000000e-04 0.0000e+00 -1.0000e+00
       23  2    1    2    0    0 +0.0000000000e+00 +0.0000000000e+00 +0.0000000000e+00 9.1188000000e+01 9.1188000000e+01 1.4409e-14 0.0000e+00
  9900012  1    3    3    0    0 -1.2628847953e+01 +2.9932984378e+01 -2.8777628802e+01 4.7787271044e+01 2.0000000000e+01 7.9644e-02 -1.0000e+00
      -12  1    3    3    0    0 +1.2628847953e+01 -2.9932984378e+01 +2.8777628802e+01 4.3400728956e+01 0.0000000000e+00 0.0000e+00 1.0000e+00
</event>
<event>
 5      2 +2.9511900e-02 9.11880000e+01 7.81616400e-03 1.18400000e-01
      -11 -1    0    0    0    0 +0.0000000000e+00 +0.0000000000e+00 +4.5593999997e+01 4.5594000000e+01 5.1100000000e-04 0.0000e+00 1.0000e+00
       11 -1    0    0    0    0 -0.0000000000e+00 -0.0000000000e+00 -4.5593999997e+01 4.5594000000e+01 5.1100000000e-04 0.0000e+00 -1.0000e+00
       23  2    1    2    0    0 +0.0000000000e+00 +0.0000000000e+00 +0.0000000000e+00 9.1188000000e+01 9.1188000000e+01 2.3094e-13 0.0000e+00
  9900012  1    3    3    0    0 +4.3445944219e+00 +2.6133823019e+01 -3.4376897295e+01 4.7787271044e+01 2.0000000000e+01 1.8209e-02 -1.0000e+00
      -12  1    3    3    0    0 -4.3445944219e+00 -2.6133823019e+01 +3.4376897295e+01 4.3400728956e+01 0.0000000000e+00 0.0000e+00 1.0000e+00
</event>
<event>
 5      5 +2.9511900e-02 9.11880000e+01 7.81616400e-03 1.18400000e-01
      -11 -1    0    0    0    0 +0.0000000000e+00 +0.0000000000e+00 +4.5593999997e+01 4.5594000000e+01 5.1100000000e-04 0.0000e+00 1.0000e+00
       11 -1    0    0    0    0 -0.0000000000e+00 -0.0000000000e+00 -4.5593999997e+01 4.5594000000e+01 5.1100000000e-04 0.0000e+00 -1.0000e+00
       23  2    1    2    0    0 +0.0000000000e+00 +0.0000000000e+00 +0.0000000000e+00 9.1188000000e+01 9.1188000000e+01 3.4870e-14 0.0000e+00
  9900012  1    3    3    0    0 -5.1997533243e+00 +4.3078495310e+01 +9.1053889760e-01 4.7787271044e+01 2.0000000000e+01 1.3230e-01 1.0000e+00
       12  1    3    3    0    0 +5.1997533243e+00 -4.3078495310e+01 -9.1053889760e-01 4.3400728956e+01 0.0000000000e+00 0.0000e+00 -1.0000e+00
</event>
<event>
 5      8 +2.9511900e-02 9.11880000e+01 7.81616400e-03 1.18400000e-01
      -11 -1    0    0    0    0 +0.0000000000e+00 +0.0000000000e+00 +4.5593999997e+01 4.5594000000e+01 5.1100000000e-04 0.0000e+00 1.0000e+00
       11 -1    0    0    0    0 -0.0000000000e+00 -0.0000000000e+00 -4.5593999997e+01 4.5594000000e+01 5.1100000000e-04 0.0000e+00 -1.0000e+00
       23  2    1    2    0    0 +0.0000000000e+00 +0.0000000000e+00 +0.0000000000e+00 9.1188000000e+01 9.1188000000e+01 1.1314e-14 0.0000e+00
  9900012  1    3    3    0    0 +1.5883793284e+01 +3.7405589777e+01 -1.5236477224e+01 4.7787271044e+01 2.0000000000e+01 4.5899e-02 -1.0000e+00
      -12  1    3    3    0    0 -1.5883793284e+01 -3.7405589777e+01 +1.5236477224e+01 4.3400728956e+01 0.0000000000e+00 0.0000e+00 1.0000e+00
</event>
<event>
 5      4 +2.9511900e-02 9.11880000e+01 7.81616400e-03 1.18400000e-01
      -11 -1    0    0    0    0 +0.0000000000e+00 +0.0000000000e+00 +4.5593999997e+01 4.5594000000e+01 5.1100000000e-04 0.0000e+00 -1.0000e+00
       11 -1    0    0    0    0 -0.0000000000e+00 -0.0000000000e+00 -4.5593999997e+01 4.5594000000e+01 5.1100000000e-04 0.0000e+00 1.0000e+00
       23  2    1    2    0    0 +0.0000000000e+00 +0.0000000000e+00 +0.0000000000e+00 9.1188000000e+01 9.1188000000e+01 2.5429e-13 0.0000e+00
  9900012  1    3    3    0    0 -3.0996649742e+01 -2.7591807397e+01 +1.2709175552e+01 4.7787271044e+01 2.0000000000e+01 2.8753e-01 -1.0000e+00
      -12  1    3    3    0    0 +3.0996649742e+01 +2.7591807397e+01 -1.2709175552e+01 4.3400728956e+01 0.0000000000e+00 0.0000e+00 1.0000e+00
</event>
<event>
 5      5 +2.9511900e-02 9.11880000e+01 7.81616400e-03 1.18400000e-01
      -11 -1    0    0    0    0 +0.0000000000e+00 +0.0000000000e+00 +4.5593999997e+01 4.5594000000e+01 5.1100000000e-04 0.0000e+00 1.0000e+00
       11 -1    0    0    0    0 -0.0000000000e+00 -0.0000000000e+00 -4.5593999997e+01 4.5594000000e+01 5.1100000000e-04 0.0000e+00 -1.0000e+00
       23  2    1    2    0    0 +0.0000000000e+00 +0.0000000000e+00 +0.0000000000e+00 9.1188000000e+01 9.1188000000e+01 3.9456e-14 0.0000e+00
  9900012  1    3    3    0    0 -3.3139243460e+01 -1.7317648747e+01 +2.2034356325e+01 4.7787271044e+01 2.0000000000e+01 1.0401e-01 1.0000e+00
       12  1    3    3    0    0 +3.3139243460e+01 +1.7317648747e+01 -2.2034356325e+01 4.3400728956e+01 0.0000000000e+00 0.0000e+00 -1.0000e+00
</event>
<event>
 5      4 +2.9511900e-02 9.11880000e+01 7.81616400e-03 1.18400000e-01
      -11 -1    0    0    0    0 +0.0000000000e+00 +0.0000000000e+00 +4.5593999997e+01 4.5594000000e+01 5.1100000000e-04 0.0000e+00 1.0000e+00
       11 -1    0    0    0    0 -0.0000000000e+00 -0.0000000000e+00 -4.5593999997e+01 4.5594000000e+01 5.1100000000e-04 0.0000e+00 -1.0000e+00
       23  2    1    2    0    0 +0.0000000000e+00 +0.0000000000e+00 +0.0000000000e+00 9.1188000000e+01 9.1188000000e+01 2.3531e-14 0.0000e+00
  9900012  1    3    3    0    0 -2.7992806072e+01 -1.9017723916e+01 -2.7172638060e+01 4.7787271044e+01 2.0000000000e+01 7.7448e-02 -1.0000e+00
      -12  1    3    3    0    0 +2.7992806072e+01 +1.9017723916e+01 +2.7172638060e+01 4.3400728956e+01 0.0000000000e+00 0.0000e+00 1.0000e+00
</event>
<event>
 5      3 +2.9511900e-02 9.11880000e+01 7.81616400e-03 1.18400000e-01
      -11 -1    0    0    0    0 +0.0000000000e+00 +0.0000000000e+00 +4.5593999997e+01 4.5594000000e+01 5.1100000000e-04 0.0000e+00 1.0000e+00
       11 -1    0    0    0    0 -0.0000000000e+00 -0.0000000000e+00 -4.5593999997e+01 4.5594000000e+01 5.1100000000e-04 0.0000e+00 -1.0000e+00
       23  2    1    2    0    0 +0.0000000000e+00 +0.0000000000e+00 +0.0000000000e+00 9.1188000000e+01 9.1188000000e+01 1.1567e-14 0.0000e+00
  9900012  1    3    3    0    0 +2.8994299900e+01 -3.1986500713e+01 +4.4516984757e+00 4.7787271044e+01 2.0000000000e+01 1.9897e-01 1.0000e+00
       12  1    3    3    0    0 -2.8994299900e+01 +3.1986500713e+01 -4.4516984757e+00 4.3400728956e+01 0.0000000000e+00 0.0000e+00 -1.0000e+00
</event>
<event>
 5      7 +2.9511900e-02 9.11880000e+01 7.81616400e-03 1.18400000e-01
      -11 -1    0    0    0    0 +0.0000000000e+00 +0.0000000000e+00 +4.5593999997e+01 4.5594000000e+01 5.1100000000e-04 0.0000e+00 1.0000e+00
       11 -1    0    0    0    0 -0.0000000000e+00 -0.0000000000e+00 -4.5593999997e+01 4.5594000000e+01 5.1100000000e-04 0.0000e+00 -1.0000e+00
       23  2    1    2    0    0 +0.0000000000e+00 +0.0000000000e+00 +0.0000000000e+00 9.1188000000e+01 9.1188000000e+01 7.1084e-14 0.0000e+00
  9900012  1    3    3    0    0 +1.0385521753e+01 +4.1078549563e+01 +9.3977112930e+00 4.7787271044e+01 2.0000000000e+01 2.4949e-01 1.0000e+00
       12  1    3    3    0    0 -1.0385521753e+01 -4.1078549563e+01 -9.3977112930e+00 4.3400728956e+01 0.0000000000e+00 0.0000e+00 -1.0000e+00
</event>
<event>
 5      8 +2.9511900e-02 9.11880000e+01 7.81616400e-03 1.18400000e-01
      -11 -1    0    0    0    0 +0.0000000000e+00 +0.0000000000e+00 +4.5593999997e+01 4.5594000000e+01 5.1100000000e-04 0.0000e+00 1.0000e+00
       11 -1    0    0    0    0 -0.0000000000e+00 -0.0000000000e+00 -4.5593999997e+01 4.5594000000e+01 5.1100000000e-04 0.0000e+00 -1.0000e+00
       23  2    1    2    0    0 +0.0000000000e+00 +0.0000000000e+00 +0.0000000000e+00 9.1188000000e+01 9.1188000000e+01 3.6971e-14 0.0000e+00
  9900012  1    3    3    0    0 -3.6620166200e+01 +5.7194299570e+00 -2.2580407931e+01 4.7787271044e+01 2.0000000000e+01 1.4293e-01 -1.0000e+00
      -12  1    3    3    0    0 +3.6620166200e+01 -5.7194299570e+00 +2.2580407931e+01 4.3400728956e+01 0.0000000000e+00 0.0000e+00 1.0000e+00
</event>
<event>
 5      6 +2.9511900e-02 9.11880000e+01 7.81616400e-03 1.18400000e-01
      -11 -1    0    0    0    0 +0.0000000000e+00 +0.0000000000e+00 +4.5593999997e+01 4.5594000000e+01 5.1100000000e-04 0.0000e+00 -1.0000e+00
       11 -1    0    0    0    0 -0.0000000000e+00 -0.0000000000e+00 -4.5593999997e+01 4.5594000000e+01 5.1100000000e-04 0.0000e+00 1.0000e+00
       23  2    1    2    0    0 +0.0000000000e+00 +0.0000000000e+00 +0.0000000000e+00 9.1188000000e+01 9.1188000000e+01 1.8060e-14 0.0000e+00
  9900012  1    3    3    0    0 +1.5601533342e+01 +2.4972152604e+01 +3.1884275522e+01 4.7787271044e+01 2.0000000000e+01 5.9223e-02 -1.0000e+00
      -12  1    3    3    0    0 -1.5601533342e+01 -2.4972152604e+01 -3.1884275522e+01 4.3400728956e+01 0.0000000000e+00 0.0000e+00 1.0000e+00
</event>
<event>
 5      3 +2.9511900e-02 9.11880000e+01 7.81616400e-03 1.18400000e-01
      -11 -1    0    0    0    0 +0.0000000000e+00 +0.0000000000e+00 +4.5593999997e+01 4.5594000000e+01 5.1100000000e-04 0.0000e+00 1.0000e+00
       11 -1    0    0    0    0 -0.0000000000e+00 -0.0000000000e+00 -4.5593999997e+01 4.5594000000e+01 5.1100000000e-04 0.0000e+00 -1.0000e+00
       23  2    1    2    0    0 +0.0000000000e+00 +0.0000000000e+00 +0.0000000000e+00 9.1188000000e+01 9.1188000000e+01 1.4632e-13 0.0000e+00
  9900012  1    3    3    0    0 -2.9096933231e+01 -2.7776618986e+01 +1.6292672835e+01 4.7787271044e+01 2.0000000000e+01 3.7124e-02 1.0000e+00
       12  1    3    3    0    0 +2.9096933231e+01 +2.7776618986e+01 -1.6292672835e+01 4.3400728956e+01 0.0000000000e+00 0.0000e+00 -1.0000e+00
</event>
<event>
 5      5 +2.9511900e-02 9.11880000e+01 7.81616400e-03 1.18400000e-01
      -11 -1    0    0    0    0 +0.0000000000e+00 +0.0000000000e+00 +4.5593999997e+01 4.5594000000e+01 5.1100000000e-04 0.0000e+00 1.0000e+00
       11 -1    0    0    0    0 -0.0000000000e+00 -0.0000000000e+00 -4.5593999997e+01 4.5594000000e+01 5.1100000000e-04 0.0000e+00 -1.0000e+00
       23  2    1    2    0    0 +0.0000000000e+00 +0.0000000000e+00 +0.0000000000e+00 9.1188000000e+01 9.1188000000e+01 4.7979e-15 0.0000e+00
  9900012  1    3    3    0    0 +2.7399395850e+01 +3.2741929119e+01 -7.8014395152e+00 4.7787271044e+01 2.0000000000e+01 2.9576e-01 1.0000e+00
       12  1    3    3    0    0 -2.7399395850e+01 -3.2741929119e+01 +7.8014395152e+00 4.3400728956e+01 0.0000000000e+00 0.0000e+00 -1.0000e+00
</event>
<event>
 5      7 +2.9511900e-02 9.11880000e+01 7.81616400e-03 1.18400000e-01
      -11 -1    0    0    0    0 +0.0000000000e+00 +0.0000000000e+00 +4.5593999997e+01 4.5594000000e+01 5.1100000000e-04 0.0000e+00 -1.0000e+00
       11 -1    0    0    0    0 -0.0000000000e+00 -0.0000000000e+00 -4.5593999997e+01 4.5594000000e+01 5.1100000000e-04 0.0000e+00 1.0000e+00
       23  2    1    2    0    0 +0.0000000000e+00 +0.0000000000e+00 +0.0000000000e+00 9.1188000000e+01 9.1188000000e+01 4.9081e-14 0.0000e+00
  9900012  1    3    3    0    0 +2.5893019450e+01 -2.7008281198e+01 -2.1993807410e+01 4.7787271044e+01 2.0000000000e+01 5.0723e-02 1.0000e+00
       12  1    3    3    0    0 -2.5893019450e+01 +2.7008281198e+01 +2.1993807410e+01 4.3400728956e+01 0.0000000000e+00 0.0000e+00 -1.0000e+00
</event>
<event>
 5      3 +2.9511900e-02 9.11880000e+01 7.81616400e-03 1.18400000e-01
      -11 -1    0    0    0    0 +0.0000000000e+00 +0.0000000000e+00 +4.5593999997e+01 4.5594000000e+01 5.1100000000e-04 0.0000e+00 -1.0000e+00
       11 -1    0    0    0    0 -0.0000000000e+00 -0.0000000000e+00 -4.5593999997e+01 4.5594000000e+01 5.1100000000e-04 0.0000e+00 1.0000e+00
       23  2    1    2    0    0 +0.0000000000e+00 +0.0000000000e+00 +0.0000000000e+00 9.1188000000e+01 9.1188000000e+01 3.7408e-15 0.0000e+00
  9900012  1    3    3    0    0 -1.4500083956e+01 -4.0280506362e+01 +7.1310340349e+00 4.7787271044e+01 2.0000000000e+01 3.3885e-02 1.0000e+00
       12  1    3    3    0    0 +1.4500083956e+01 +4.0280506362e+01 -7.1310340349e+00 4.3400728956e+01 0.0000000000e+00 0.0000e+00 -1.0000e+00
</event>
<event>
 5      7 +2.9511900e-02 9.11880000e+01 7.81616400e-03 1.18400000e-01
      -11 -1    0    0    0    0 +0.0000000000e+00 +0.0000000000e+00 +4.5593999997e+01 4.5594000000e+01 5.1100000000e-04 0.0000e+00 1.0000e+00
       11 -1    0    0    0    0 -0.0000000000e+00 -0.0000000000e+00 -4.5593999997e+01 4.5594000000e+01 5.1100000000e-04 0.0000e+00 -1.0000e+00
       23  2    1    2    0    0 +0.0000000000e+00 +0.0000000000e+00 +0.0000000000e+00 9.1188000000e+01 9.1188000000e+01 6.1373e-14 0.0000e+00
  9900012  1    3    3    0    0 -3.4448327080e+01 +1.4180812422e+01 +2.2267478401e+01 4.7787271044e+01 2.0000000000e+01 4.2848e-02 1.0000e+00
       12  1    3    3    0    0 +3.4448327080e+01 -1.4180812422e+01 -2.2267478401e+01 4.3400728956e+01 0.0000000000e+00 0.0000e+00 -1.0000e+00
</event>
<event>
 5      7 +2.9511900e-02 9.11880000e+01 7.81616400e-03 1.18400000e-01
      -11 -1    0    0    0    0 +0.0000000000e+00 +0.0000000000e+00 +4.5593999997e+01 4.5594000000e+01 5.1100000000e-04 0.0000e+00 1.0000e+00
       11 -1    0    0    0    0 -0.0000000000e+00 -0.0000000000e+00 -4.5593999997e+01 4.5594000000e+01 5.1100000000e-04 0.0000e+00 -1.0000e+00
       23  2    1    2    0    0 +0.0000000000e+00 +0.0000000000e+00 +0.0000000000e+00 9.1188000000e+01 9.1188000000e+01 3.4644e-15 0.0000e+00
  9900012  1    3    3    0    0 -7.7829744471e+00 -1.3763957805e+01 +4.0417843191e+01 4.7787271044e+01 2.0000000000e+01 1.5719e-01 1.0000e+00
       12  1    3    3    0    0 +7.7829744471e+00 +1.3763957805e+01 -4.0417843191e+01 4.3400728956e+01 0.0000000000e+00 0.0000e+00 -1.0000e+00
</event>
<event>
 5      2 +2.9511900e-02 9.11880000e+01 7.81616400e-03 1.18400000e-01
      -11 -1    0    0    0    0 +0.0000000000e+00 +0.0000000000e+00 +4.5593999997e+01 4.5594000000e+01 5.1100000000e-04 0.0000e+00 1.0000e+00
       11 -1    0    0    0    0 -0.0000000000e+00 -0.0000000000e+00 -4.5593999997e+01 4.5594000000e+01 5.1100000000e-04 0.0000e+00 -1.0000e+00
       23  2    1    2    0    0 +0.0000000000e+00 +0.0000000000e+00 +0.0000000000e+00 9.1188000000e+01 9.1188000000e+01 3.1578e-14 0.0000e+00
  9900012  1    3    3    0    0 +1.7999621516e+00 -3.1291944483e+01 -3.0019953707e+01 4.7787271044e+01 2.0000000000e+01 1.0626e-01 -1.0000e+00
      -12  1    3    3    0    0 -1.7999621516e+00 +3.1291944483e+01 +3.0019953707e+01 4.3400728956e+01 0.0000000000e+00 0.0000e+00 1.0000e+00
</event>
<event>
 5      4 +2.9511900e-02 9.11880000e+01 7.81616400e-03 1.18400000e-01
      -11 -1    0    0    0    0 +0.0000000000e+00 +0.0000000000e+00 +4.5593999997e+01 4.5594000000e+01 5.1100000000e-04 0.0000e+00 -1.0000e+00
       11 -1    0    0    0    0 -0.0000000000e+00 -0.0000000000e+00 -4.5593999997e+01 4.5594000000e+01 5.1100000000e-04 0.0000e+00 1.0000e+00
       23  2    1    2    0    0 +0.0000000000e+00 +0.0000000000e+00 +0.0000000000e+00 9.1188000000e+01 9.1188000000e+01 4.0924e-14 0.0000e+00
  9900012  1    3    3    0    0 -2.6077157064e+01 -2.6540764325e+01 +2.2342627025e+01 4.7787271044e+01 2.0000000000e+01 2.2298e-02 -1.0000e+00
      -12  1    3    3    0    0 +2.6077157064e+01 +2.6540764325e+01 -2.2342627025e+01 4.3400728956e+01 0.0000000000e+00 0.0000e+00 1.0000e+00
</event>
<event>
 5      7 +2.9511900e-02 9.11880000e+01 7.81616400e-03 1.18400000e-01
      -11 -1    0    0    0    0 +0.0000000000e+00 +0.0000000000e+00 +4.5593999997e+01 4.5594000000e+01 5.1100000000e-04 0.0000e+00 -1.0000e+00
       11 -1    0    0    0    0 -0.0000000000e+00 -0.0000000000e+00 -4.5593999997e+01 4.5594000000e+01 5.1100000000e-04 0.0000e+00 1.0000e+00
       23  2    1    2    0    0 +0.0000000000e+00 +0.0000000000e+00 +0.0000000000e+00 9.1188000000e+01 9.1188000000e+01 2.5735e-15 0.0000e+00
  9900012  1    3    3    0    0 +3.2791061456e+01 +2.8377688546e+01 +1.7539541740e+00 4.7787271044e+01 2.0000000000e+01 1.0355e-01 -1.0000e+00
       12  1    3    3    0    0 -3.2791061456e+01 -2.8377688546e+01 -1.7539541740e+00 4.3400728956e+01 0.0000000000e+00 0.0000e+00 -1.0000e+00
</event>
<event>
 5      4 +2.9511900e-02 9.11880000e+01 7.81616400e-03 1.18400000e-01
      -11 -1    0    0    0    0 +0.0000000000e+00 +0.0000000000e+00 +4.5593999997e+01 4.5594000000e+01 5.1100000000e-04 0.0000e+00 -1.0000e+00
       11 -1    0    0    0    0 -0.0000000000e+00 -0.0000000000e+00 -4.5593999997e+01 4.5594000000e+01 5.1100000000e-04 0.0000e+00 1.0000e+00
       23  2    1    2    0    0 +0.0000000000e+00 +0.0000000000e+00 +0.0000000000e+00 9.1188000000e+01 9.1188000000e+01 1.4161e-14 0.0000e+00
  9900012  1    3    3    0    0 +3.2063251472e+01 +2.2559326213e+01 +1.8618484895e+01 4.7787271044e+01 2.0000000000e+01 9.7629e-03 -1.0000e+00
      -12  1    3    3    0    0 -3.2063251472e+01 -2.2559326213e+01 -1.8618484895e+01 4.3400728956e+01 0.0000000000e+00 0.0000e+00 1.0000e+00
</event>
<event>
 5      2 +2.9511900e-02 9.11880000e+01 7.81616400e-03 1.18400000e-01
      -11 -1    0    0    0    0 +0.0000000000e+00 +0.0000000000e+00 +4.5593999997e+01 4.5594000000e+01 5.1100000000e-04 0.0000e+00 -1.0000e+00
       11 -1    0    0    0    0 -0.0000000000e+00 -0.0000000000e+00 -4.5593999997e+01 4.5594000000e+01 5.1100000000e-04 0.0000e+00 1.0000e+00
       23  2    1    2    0    0 +0.0000000000e+00 +0.0000000000e+00 +0.0000000000e+00 9.1188000000e+01 9.1188000000e+01 6.2464e-14 0.0000e+00
  9900012  1    3    3    0    0 +4.0381759939e+01 -5.4818181647e+00 +1.4929380687e+01 4.7787271044e+01 2.0000000000e+01 3.0180e-02 -1.0000e+00
      -12  1    3    3    0    0 -4.0381759939e+01 +5.4818181647e+00 -1.4929380687e+01 4.3400728956e+01 0.0000000000e+00 0.0000e+00 1.0000e+00
</event>
<event>
 5      2 +2.9511900e-02 9.11880000e+01 7.81616400e-03 1.18400000e-01
      -11 -1    0    0    0    0 +0.0000000000e+00 +0.0000000000e+00 +4.5593999997e+01 4.5594000000e+01 5.1100000000e-04 0.0000e+00 1.0000e+00
       11 -1    0    0    0    0 -0.0000000000e+00 -0.0000000000e+00 -4.5593999997e+01 4.5594000000e+01 5.1100000000e-04 0.0000e+00 -1.0000e+00
       23  2    1    2    0    0 +0.0000000000e+00 +0.0000000000e+00 +0.0000000000e+00 9.1188000000e+01 9.1188000000e+01 6.7544e-14 0.0000e+00
  9900012  1    3    3    0    0 -1.5124629491e+01 -2.8087370622e+01 -2.9427342187e+01 4.7787271044e+01 2.0000000000e+01 4.0187e-02 -1.0000e+00
      -12  1    3    3    0    0 +1.5124629491e+01 +2.8087370622e+01 +2.9427342187e+01 4.3400728956e+01 0.0000000000e+00 0.0000e+00 1.0000e+00
</event>
<event>
 5      5 +2.9511900e-02 9.11880000e+01 7.81616400e-03 1.18400000e-01
      -11 -1    0    0    0    0 +0.0000000000e+00 +0.0000000000e+00 +4.5593999997e+01 4.5594000000e+01 5.1100000000e-04 0.0000e+00 -1.0000e+00
       11 -1    0    0    0    0 -0.0000000000e+00 -0.0000000000e+00 -4.5593999997e+01 4.5594000000e+01 5.1100000000e-04 0.0000e+00 1.0000e+00
       23  2    1    2    0    0 +0.0000000000e+00 +0.0000000000e+00 +0.0000000000e+00 9.1188000000e+01 9.1188000000e+01 1.1524e-13 0.0000e+00
  9900012  1    3    3    0    0 +2.2200275606e+01 -1.5013993467e+01 -3.4137238276e+01 4.7787271044e+01 2.0000000000e+01 4.4198e-03 1.0000e+00
       12  1    3    3    0    0 -2.2200275606e+01 +1.5013993467e+01 +3.4137238276e+01 4.3400728956e+01 0.0000000000e+00 0.0000e+00 -1.0000e+00
</event>
<event>
 5      6 +2.9511900e-02 9.11880000e+01 7.81616400e-03 1.18400000e-01
      -11 -1    0    0    0    0 +0.0000000000e+00 +0.0000000000e+00 +4.5593999997e+01 4.5594000000e+01 5.1100000000e-04 0.0000e+00 -1.0000e+00
       11 -1    0    0    0    0 -0.0000000000e+00 -0.0000000000e+00 -4.5593999997e+01 4.5594000000e+01 5.1100000000e-04 0.0000e+00 1.0000e+00
       23  2    1    2    0    0 +0.0000000000e+00 +0.0000000000e+00 +0.0000000000e+00 9.1188000000e+01 9.1188000000e+01 5.4073e-14 0.0000e+00
  9900012  1    3    3    0    0 +2.2331214618e+01 -1.8121935549e+01 +3.2504393234e+01 4.7787271044e+01 2.0000000000e+01 1.6955e-01 -1.0000e+00
      -12  1    3    3    0    0 -2.2331214618e+01 +1.8121935549e+01 -3.2504393234e+01 4.3400728956e+01 0.0000000000e+00 0.0000e+00 1.0000e+00
</event>
<event>
 5      5 +2.9511900e-02 9.11880000e+01 7.81616400e-03 1.18400000e-01
      -11 -1    0    0    0    0 +0.0000000000e+00 +0.0000000000e+00 +4.5593999997e+01 4.5594000000e+01 5.1100000000e-04 0.0000e+00 1.0000e+00
       11 -1    0    0    0    0 -0.0000000000e+00 -0.0000000000e+00 -4.5593999997e+01 4.5594000000e+01 5.1100000000e-04 0.0000e+00 -1.0000e+00
       23  2    1    2    0    0 +0.0000000000e+00 +0.0000000000e+00 +0.0000000000e+00 9.1188000000e+01 9.1188000000e+01 4.8929e-14 0.0000e+00
  9900012  1    3    3    0    0 -1.4661427481e+01 -1.0655746574e+01 +3.9435021023e+01 4.7787271044e+01 2.0000000000e+01 1.3531e-01 1.0000e+00
       12  1    3    3    0    0 +1.4661427481e+01 +1.0655746574e+01 -3.9435021023e+01 4.3400728956e+01 0.0000000000e+00 0.0000e+00 -1.0000e+00
</event>
<event>
 5      4 +2.9511900e-02 9.11880000e+01 7.81616400e-03 1.18400000e-01
      -11 -1    0    0    0    0 +0.0000000000e+00 +0.0000000000e+00 +4.5593999997e+01 4.5594000000e+01 5.1100000000e-04 0.0000e+00 -1.0000e+00
       11 -1    0    0    0    0 -0.0000000000e+00 -0.0000000000e+00 -4.5593999997e+01 4.5594000000e+01 5.1100000000e-04 0.0000e+00 1.0000e+00
       23  2    1    2    0    0 +0.0000000000e+00 +0.0000000000e+00 +0.0000000000e+00 9.1188000000e+01 9.1188000000e+01 1.2101e-13 0.0000e+00
  9900012  1    3    3    0    0 -3.9330846891e+01 -1.4570570621e+01 +1.1153754008e+01 4.7787271044e+01 2.0000000000e+01 1.0242e-01 -1.0000e+00
      -12  1    3    3    0    0 +3.9330846891e+01 +1.4570570621e+01 -1.1153754008e+01 4.3400728956e+01 0.0000000000e+00 0.0000e+00 1.0000e+00
</event>
<event>
 5      8 +2.9511900e-02 9.11880000e+01 7.81616400e-03 1.18400000e-01
      -11 -1    0    0    0    0 +0.0000000000e+00 +0.0000000000e+00 +4.5593999997e+01 4.5594000000e+01 5.1100000000e-04 0.0000e+00 1.0000e+00
       11 -1    0    0    0    0 -0.0000000000e+00 -0.0000000000e+00 -4.5593999997e+01 4.5594000000e+01 5.1100000000e-04 0.0000e+00 -1.0000e+00
       23  2    1    2    0    0 +0.0000000000e+00 +0.0000000000e+00 +0.0000000000e+00 9.1188000000e+01 9.1188000000e+01 7.3960e-14 0.0000e+00
  9900012  1    3    3    0    0 +3.0445211368e+01 -3.7333250413e+00 -3.0704635852e+01 4.7787271044e+01 2.0000000000e+01 8.0381e-02 -1.0000e+00
      -12  1    3    3    0    0 -3.0445211368e+01 +3.7333250413e+00 +3.0704635852e+01 4.3400728956e+01 0.0000000000e+00 0.0000e+00 1.0000e+00
</event>
<event>
 5      3 +2.9511900e-02 9.11880000e+01 7.81616400e-03 1.18400000e-01
      -11 -1    0    0    0    0 +0.0000000000e+00 +0.0000000000e+00 +4.5593999997e+01 4.5594000000e+01 5.1100000000e-04 0.0000e+00 1.0000e+00
       11 -1    0    0    0    0 -0.0000000000e+00 -0.0000000000e+00 -4.5593999997e+01 4.5594000000e+01 5.1100000000e-04 0.0000e+00 -1.0000e+00
       23  2    1    2    0    0 +0.0000000000e+00 +0.0000000000e+00 +0.0000000000e+00 9.1188000000e+01 9.1188000000e+01 2.1000e-13 0.0000e+00
  9900012  1    3    3    0    0 +1.2764370002e+01 -3.6625367669e+01 +1.9475024402e+01 4.7787271044e+01 2.0000000000e+01 2.7446e-01 1.0000e+00
       12  1    3    3    0    0 -1.2764370002e+01 +3.6625367669e+01 -1.9475024402e+01 4.3400728956e+01 0.0000000000e+00 0.0000e+00 -1.0000e+00
</event>
<event>
 5      2 +2.9511900e-02 9.11880000e+01 7.81616400e-03 1.18400000e-01
      -11 -1    0    0    0    0 +0.0000000000e+00 +0.0000000000e+00 +4.5593999997e+01 4.5594000000e+01 5.1100000000e-04 0.0000e+00 1.0000e+00
       11 -1    0    0    0    0 -0.0000000000e+00 -0.0000000000e+00 -4.5593999997e+01 4.5594000000e+01 5.1100000000e-04 0.0000e+00 -1.0000e+00
       23  2    1    2    0    0 +0.0000000000e+00 +0.0000000000e+00 +0.0000000000e+00 9.1188000000e+01 9.1188000000e+01 3.9458e-14 0.0000e+00
  9900012  1    3    3    0    0 -3.9355326492e+00 +3.3663179214e+01 -2.7109504272e+01 4.7787271044e+01 2.0000000000e+01 1.2268e-02 -1.0000e+00
      -12  1    3    3    0    0 +3.9355326492e+00 -3.3663179214e+01 +2.7109504272e+01 4.3400728956e+01 0.0000000000e+00 0.0000e+00 1.0000e+00
</event>
<event>
 5      3 +2.9511900e-02 9.11880000e+01 7.81616400e-03 1.18400000e-01
      -11 -1    0    0    0    0 +0.0000000000e+00 +0.0000000000e+00 +4.5593999997e+01 4.5594000000e+01 5.1100000000e-04 0.0000e+00 1.0000e+00
       11 -1    0    0    0    0 -0.0000000000e+00 -0.0000000000e+00 -4.5593999997e+01 4.5594000000e+01 5.1100000000e-04 0.0000e+00 -1.0000e+00
       23  2    1    2    0    0 +0.0000000000e+00 +0.0000000000e+00 +0.0000000000e+00 9.1188000000e+01 9.1188000000e+01 7.0663e-14 0.0000e+00
  9900012  1    3    3    0    0 -3.2779014865e-01 -4.2988471513e+01 +5.9587871646e+00 4.7787271044e+01 2.0000000000e+01 1.7659e-01 -1.0000e+00
       12  1    3    3    0    0 +3.2779014865e-01 +4.2988471513e+01 -5.9587871646e+00 4.3400728956e+01 0.0000000000e+00 0.0000e+00 -1.0000e+00
</event>
<event>
 5      8 +2.9511900e-02 9.11880000e+01 7.81616400e-03 1.18400000e-01
      -11 -1    0    0    0    0 +0.0000000000e+00 +0.0000000000e+00 +4.5593999997e+01 4.5594000000e+01 5.1100000000e-04 0.0000e+00 1.0000e+00
       11 -1    0    0    0    0 -0.0000000000e+00 -0.0000000000e+00 -4.5593999997e+01 4.5594000000e+01 5.1100000000e-04 0.0000e+00 -1.0000e+00
       23  2    1    2    0    0 +0.0000000000e+00 +0.0000000000e+00 +0.0000000000e+00 9.1188000000e+01 9.1188000000e+01 4.2909e-14 0.0000e+00
  9900012  1    3    3    0    0 -8.2786121406e+00 -3.1963541711e+01 -2.8167709459e+01 4.7787271044e+01 2.0000000000e+01 3.4585e-01 -1.0000e+00
      -12  1    3    3    0    0 +8.2786121406e+00 +3.1963541711e+01 +2.8167709459e+01 4.3400728956e+01 0.0000000000e+00 0.0000e+00 1.0000e+00
</event>
<event>
 5      1 +2.9511900e-02 9.11880000e+01 7.81616400e-03 1.18400000e-01
      -11 -1    0    0    0    0 +0.0000000000e+00 +0.0000000000e+00 +4.5593999997e+01 4.5594000000e+01 5.1100000000e-04 0.0000e+00 1.0000e+00
       11 -1    0    0    0    0 -0.0000000000e+00 -0.0000000000e+00 -4.5593999997e+01 4.5594000000e+01 5.1100000000e-04 0.0000e+00 -1.0000e+00
       23  2    1    2    0    0 +0.0000000000e+00 +0.0000000000e+00 +0.0000000000e+00 9.1188000000e+01 9.1188000000e+01 3.6291e-14 0.0000e+00
  9900012  1    3    3    0    0 -3.0504344244e+01 -2.7097914249e+01 +1.4792271611e+01 4.7787271044e+01 2.0000000000e+01 5.1730e-01 1.0000e+00
       12  1    3    3    0    0 +3.0504344244e+01 +2.7097914249e+01 -1.4792271611e+01 4.3400728956e+01 0.0000000000e+00 0.0000e+00 -1.0000e+00
</event>
<event>
 5      6 +2.9511900e-02 9.11880000e+01 7.81616400e-03 1.18400000e-01
      -11 -1    0    0    0    0 +0.0000000000e+00 +0.0000000000e+00 +4.5593999997e+01 4.5594000000e+01 5.1100000000e-04 0.0000e+00 -1.0000e+00
       11 -1    0    0    0    0 -0.0000000000e+00 -0.0000000000e+00 -4.5593999997e+01 4.5594000000e+01 5.1100000000e-04 0.0000e+00 1.0000e+00
       23  2    1    2    0    0 +0.0000000000e+00 +0.0000000000e+00 +0.0000000000e+00 9.1188000000e+01 9.1188000000e+01 4.5123e-14 0.0000e+00
  9900012  1    3    3    0    0 +3.7342008959e+01 -1.2673685192e+01 +1.8126647358e+01 4.7787271044e+01 2.0000000000e+01 7.8899e-01 -1.0000e+00
      -12  1    3    3    0    0 -3.7342008959e+01 +1.2673685192e+01 -1.8126647358e+01 4.3400728956e+01 0.0000000000e+00 0.0000e+00 1.0000e+00
</event>
<event>
 5      4 +2.9511900e-02 9.11880000e+01 7.81616400e-03 1.18400000e-01
      -11 -1    0    0    0    0 +0.0000000000e+00 +0.0000000000e+00 +4.5593999997e+01 4.5594000000e+01 5.1100000000e-04 0.0000e+00 -1.0000e+00
       11 -1    0    0    0    0 -0.0000000000e+00 -0.0000000000e+00 -4.5593999997e+01 4.5594000000e+01 5.1100000000e-04 0.0000e+00 1.0000e+00
       23  2    1    2    0    0 +0.0000000000e+00 +0.0000000000e+00 +0.0000000000e+00 9.1188000000e+01 9.1188000000e+01 1.4617e-13 0.0000e+00
  9900012  1    3    3    0    0 +3.3890425691e+01 -2.3749579481e+01 +1.3077453683e+01 4.7787271044e+01 2.0000000000e+01 9.5162e-02 -1.0000e+00
      -12  1    3    3    0    0 -3.3890425691e+01 +2.3749579481e+01 -1.3077453683e+01 4.3400728956e+01 0.0000000000e+00 0.0000e+00 1.0000e+00
</event>
<event>
 5      6 +2.9511900e-02 9.11880000e+01 7.81616400e-03 1.18400000e-01
      -11 -1    0    0    0    0 +0.0000000000e+00 +0.0000000000e+00 +4.5593999997e+01 4.5594000000e+01 5.1100000000e-04 0.0000e+00 1.0000e+00
       11 -1    0    0    0    0 -0.0000000000e+00 -0.0000000000e+00 -4.5593999997e+01 4.5594000000e+01 5.1100000000e-04 0.0000e+00 -1.0000e+00
       23  2    1    2    0    0 +0.0000000000e+00 +0.0000000000e+00 +0.0000000000e+00 9.1188000000e+01 9.1188000000e+01 6.2614e-14 0.0000e+00
  9900012  1    3    3    0    0 -1.3048364083e+01 +4.1383837531e+01 -8.6108063600e-01 4.7787271044e+01 2.0000000000e+01 1.4685e-01 1.0000e+00
      -12  1    3    3    0    0 +1.3048364083e+01 -4.1383837531e+01 +8.6108063600e-01 4.3400728956e+01 0.0000000000e+00 0.0000e+00 1.0000e+00
</event>
<event>
 5      2 +2.9511900e-02 9.11880000e+01 7.81616400e-03 1.18400000e-01
      -11 -1    0    0    0    0 +0.0000000000e+00 +0.0000000000e+00 +4.5593999997e+01 4.5594000000e+01 5.1100000000e-04 0.0000e+00 1.0000e+00
       11 -1    0    0    0    0 -0.0000000000e+00 -0.0000000000e+00 -4.5593999997e+01 4.5594000000e+01 5.1100000000e-04 0.0000e+00 -1.0000e+00
       23  2    1    2    0    0 +0.0000000000e+00 +0.0000000000e+00 +0.0000000000e+00 9.1188000000e+01 9.1188000000e+01 1.6493e-14 0.0000e+00
  9900012  1    3    3    0    0 +3.8083032218e+01 +2.0439620498e+01 -3.9405386473e+00 4.7787271044e+01 2.0000000000e+01 4.2845e-03 -1.0000e+00
      -12  1    3    3    0    0 -3.8083032218e+01 -2.0439620498e+01 +3.9405386473e+00 4.3400728956e+01 0.0000000000e+00 0.0000e+00 1.0000e+00
</event>
<event>
 5      7 +2.9511900e-02 9.11880000e+01 7.81616400e-03 1.18400000e-01
      -11 -1    0    0    0    0 +0.0000000000e+00 +0.0000000000e+00 +4.5593999997e+01 4.5594000000e+01 5.1100000000e-04 0.0000e+00 -1.0000e+00
       11 -1    0    0    0    0 -0.0000000000e+00 -0.0000000000e+00 -4.5593999997e+01 4.5594000000e+01 5.1100000000e-04 0.0000e+00 1.0000e+00
       23  2    1    2    0    0 +0.0000000000e+00 +0.0000000000e+00 +0.0000000000e+00 9.1188000000e+01 9.1188000000e+01 1.4597e-13 0.0000e+00
  9900012  1    3    3    0    0 -1.9306853938e+01 -2.8139014381e+01 -2.6815378695e+01 4.7787271044e+01 2.0000000000e+01 5.9328e-01 1.0000e+00
       12  1    3    3    0    0 +1.9306853938e+01 +2.8139014381e+01 +2.6815378695e+01 4.3400728956e+01 0.0000000000e+00 0.0000e+00 -1.0000e+00
</event>
<event>
 5      6 +2.9511900e-02 9.11880000e+01 7.81616400e-03 1.18400000e-01
      -11 -1    0    0    0    0 +0.0000000000e+00 +0.0000000000e+00 +4.5593999997e+01 4.5594000000e+01 5.1100000000e-04 0.0000e+00 1.0000e+00
       11 -1    0    0    0    0 -0.0000000000e+00 -0.0000000000e+00 -4.5593999997e+01 4.5594000000e+01 5.1100000000e-04 0.0000e+00 -1.0000e+00
       23  2    1    2    0    0 +0.0000000000e+00 +0.0000000000e+00 +0.0000000000e+00 9.1188000000e+01 9.1188000000e+01 8.8462e-15 0.0000e+00
  9900012  1    3    3    0    0 -3.7861974511e+01 -2.0604827404e+01 -5.0532412999e+00 4.7787271044e+01 2.0000000000e+01 3.8610e-02 -1.0000e+00
      -12  1    3    3    0    0 +3.7861974511e+01 +2.0604827404e+01 +5.0532412999e+00 4.3400728956e+01 0.0000000000e+00 0.0000e+00 1.0000e+00
</event>
<event>
 5      3 +2.9511900e-02 9.11880000e+01 7.81616400e-03 1.18400000e-01
      -11 -1    0    0    0    0 +0.0000000000e+00 +0.0000000000e+00 +4.5593999997e+01 4.5594000000e+01 5.1100000000e-04 0.0000e+00 1.0000e+00
       11 -1    0    0    0    0 -0.0000000000e+00 -0.0000000000e+00 -4.5593999997e+01 4.5594000000e+01 5.1100000000e-04 0.0000e+00 -1.0000e+00
       23  2    1    2    0    0 +0.0000000000e+00 +0.0000000000e+00 +0.0000000000e+00 9.1188000000e+01 9.1188000000e+01 2.8033e-13 0.0000e+00
  9900012  1    3    3    0    0 -1.3993383339e+01 +4.1033213741e+01 +2.0208579179e+00 4.7787271044e+01 2.0000000000e+01 1.5722e-01 -1.0000e+00
       12  1    3    3    0    0 +1.3993383339e+01 -4.1033213741e+01 -2.0208579179e+00 4.3400728956e+01 0.0000000000e+00 0.0000e+00 -1.0000e+00
</event>
<event>
 5      3 +2.9511900e-02 9.11880000e+01 7.81616400e-03 1.18400000e-01
      -11 -1    0    0    0    0 +0.0000000000e+00 +0.0000000000e+00 +4.5593999997e+01 4.5594000000e+01 5.1100000000e-04 0.0000e+00 1.0000e+00
       11 -1    0    0    0    0 -0.0000000000e+00 -0.0000000000e+00 -4.5593999997e+01 4.5594000000e+01 5.1100000000e-04 0.0000e+00 -1.0000e+00
       23  2    1    2    0    0 +0.0000000000e+00 +0.0000000000e+00 +0.0000000000e+00 9.1188000000e+01 9.1188000000e+01 6.7693e-15 0.0000e+00
  9900012  1    3    3    0    0 -2.6123379862e+00 +3.6866790509e+01 +2.2751675140e+01 4.7787271044e+01 2.0000000000e+01 5.7025e-01 1.0000e+00
       12  1    3    3    0    0 +2.6123379862e+00 -3.6866790509e+01 -2.2751675140e+01 4.3400728956e+01 0.0000000000e+00 0.0000e+00 -1.0000e+00
</event>
<event>
 5      6 +2.9511900e-02 9.11880000e+01 7.81616400e-03 1.18400000e-01
      -11 -1    0    0    0    0 +0.0000000000e+00 +0.0000000000e+00 +4.5593999997e+01 4.5594000000e+01 5.1100000000e-04 0.0000e+00 1.0000e+00
       11 -1    0    0    0    0 -0.0000000000e+00 -0.0000000000e+00 -4.5593999997e+01 4.5594000000e+01 5.1100000000e-04 0.0000e+00 -1.0000e+00
       23  2    1    2    0    0 +0.0000000000e+00 +0.0000000000e+00 +0.0000000000e+00 9.1188000000e+01 9.1188000000e+01 9.2373e-14 0.0000e+00
  9900012  1    3    3    0    0 -3.1927180460e+01 +2.4074508574e+01 -1.6872950503e+01 4.7787271044e+01 2.0000000000e+01 1.2108e-02 -1.0000e+00
      -12  1    3    3    0    0 +3.1927180460e+01 -2.4074508574e+01 +1.6872950503e+01 4.3400728956e+01 0.0000000000e+00 0.0000e+00 1.0000e+00
</event>
<event>
 5      4 +2.9511900e-02 9.11880000e+01 7.81616400e-03 1.18400000e-01
      -11 -1    0    0    0    0 +0.0000000000e+00 +0.0000000000e+00 +4.5593999997e+01 4.5594000000e+01 5.1100000000e-04 0.0000e+00 1.0000e+00
       11 -1    0    0    0    0 -0.0000000000e+00 -0.0000000000e+00 -4.5593999997e+01 4.5594000000e+01 5.1100000000e-04 0.0000e+00 -1.0000e+00
       23  2    1    2    0    0 +0.0000000000e+00 +0.0000000000e+00 +0.0000000000e+00 9.1188000000e+01 9.1188000000e+01 9.3900e-14 0.0000e+00
  9900012  1    3    3    0    0 +1.2777481523e+01 +4.1412534038e+01 -2.3154404238e+00 4.7787271044e+01 2.0000000000e+01 4.0802e-02 -1.0000e+00
      -12  1    3    3    0    0 -1.2777481523e+01 -4.1412534038e+01 +2.3154404238e+00 4.3400728956e+01 0.0000000000e+00 0.0000e+00 1.0000e+00
</event>
<event>
 5      7 +2.9511900e-02 9.11880000e+01 7.81616400e-03 1.18400000e-01
      -11 -1    0    0    0    0 +0.0000000000e+00 +0.0000000000e+00 +4.5593999997e+01 4.5594000000e+01 5.1100000000e-04 0.0000e+00 -1.0000e+00
       11 -1    0    0    0    0 -0.0000000000e+00 -0.0000000000e+00 -4.5593999997e+01 4.5594000000e+01 5.1100000000e-04 0.0000e+00 1.0000e+00
       23  2    1    2    0    0 +0.0000000000e+00 +0.0000000000e+00 +0.0000000000e+00 9.1188000000e+01 9.1188000000e+01 8.5702e-14 0.0000e+00
  9900012  1    3    3    0    0 -3.3946322655e+01 +2.2239533977e+01 -1.5384199055e+01 4.7787271044e+01 2.0000000000e+01 4.8039e-02 1.0000e+00
       12  1    3    3    0    0 +3.3946322655e+01 -2.2239533977e+01 +1.5384199055e+01 4.3400728956e+01 0.0000000000e+00 0.0000e+00 -1.0000e+00
</event>
<event>
 5      8 +2.9511900e-02 9.11880000e+01 7.81616400e-03 1.18400000e-01
      -11 -1    0    0    0    0 +0.0000000000e+00 +0.0000000000e+00 +4.5593999997e+01 4.5594000000e+01 5.1100000000e-04 0.0000e+00 -1.0000e+00
       11 -1    0    0    0    0 -0.0000000000e+00 -0.0000000000e+00 -4.5593999997e+01 4.5594000000e+01 5.1100000000e-04 0.0000e+00 1.0000e+00
       23  2    1    2    0    0 +0.0000000000e+00 +0.0000000000e+00 +0.0000000000e+00 9.1188000000e+01 9.1188000000e+01 5.2001e-14 0.0000e+00
  9900012  1    3    3    0    0 -3.0442670530e+01 +2.9665812005e+01 +8.7639422039e+00 4.7787271044e+01 2.0000000000e+01 4.8121e-02 -1.0000e+00
      -12  1    3    3    0    0 +3.0442670530e+01 -2.9665812005e+01 -8.7639422039e+00 4.3400728956e+01 0.0000000000e+00 0.0000e+00 1.0000e+00
</event>
<event>
 5      2 +2.9511900e-02 9.11880000e+01 7.81616400e-03 1.18400000e-01
      -11 -1    0    0    0    0 +0.0000000000e+00 +0.0000000000e+00 +4.5593999997e+01 4.5594000000e+01 5.1100000000e-04 0.0000e+00 1.0000e+00
       11 -1    0    0    0    0 -0.0000000000e+00 -0.0000000000e+00 -4.5593999997e+01 4.5594000000e+01 5.1100000000e-04 0.0000e+00 -1.0000e+00
       23  2    1    2    0    0 +0.0000000000e+00 +0.0000000000e+00 +0.0000000000e+00 9.1188000000e+01 9.1188000000e+01 3.5417e-13 0.0000e+00
  9900012  1    3    3    0    0 -1.7038192906e+01 -3.2502883704e+01 -2.3170796431e+01 4.7787271044e+01 2.0000000000e+01 4.0042e-02 -1.0000e+00
      -12  1    3    3    0    0 +1.7038192906e+01 +3.2502883704e+01 +2.3170796431e+01 4.3400728956e+01 0.0000000000e+00 0.0000e+00 1.0000e+00
</event>
<event>
 5      6 +2.9511900e-02 9.11880000e+01 7.81616400e-03 1.18400000e-01
      -11 -1    0    0    0    0 +0.0000000000e+00 +0.0000000000e+00 +4.5593999997e+01 4.5594000000e+01 5.1100000000e-04 0.0000e+00 -1.0000e+00
       11 -1    0    0    0    0 -0.0000000000e+00 -0.0000000000e+00 -4.5593999997e+01 4.5594000000e+01 5.1100000000e-04 0.0000e+00 1.0000e+00
       23  2    1    2    0    0 +0.0000000000e+00 +0.0000000000e+00 +0.0000000000e+00 9.1188000000e+01 9.1188000000e+01 5.8261e-15 0.0000e+00
  9900012  1    3    3    0    0 +4.0962412732e+01 -1.2210976716e+00 +1.4290309217e+01 4.7787271044e+01 2.0000000000e+01 5.1936e-02 -1.0000e+00
      -12  1    3    3    0    0 -4.0962412732e+01 +1.2210976716e+00 -1.4290309217e+01 4.3400728956e+01 0.0000000000e+00 0.0000e+00 1.0000e+00
</event>
<event>
 5      4 +2.9511900e-02 9.11880000e+01 7.81616400e-03 1.18400000e-01
      -11 -1    0    0    0    0 +0.0000000000e+00 +0.0000000000e+00 +4.5593999997e+01 4.5594000000e+01 5.1100000000e-04 0.0000e+00 -1.0000e+00
       11 -1    0    0    0    0 -0.0000000000e+00 -0.0000000000e+00 -4.5593999997e+01 4.5594000000e+01 5.1100000000e-04 0.0000e+00 1.0000e+00
       23  2    1    2    0    0 +0.0000000000e+00 +0.0000000000e+00 +0.0000000000e+00 9.1188000000e+01 9.1188000000e+01 6.7908e-14 0.0000e+00
  9900012  1    3    3    0    0 +3.7278061705e+01 -6.8868438327e+00 +2.1131511337e+01 4.7787271044e+01 2.0000000000e+01 1.6848e-02 -1.0000e+00
      -12  1    3    3    0    0 -3.7278061705e+01 +6.8868438327e+00 -2.1131511337e+01 4.3400728956e+01 0.0000000000e+00 0.0000e+00 1.0000e+00
</event>
<event>
 5      4 +2.9511900e-02 9.11880000e+01 7.81616400e-03 1.18400000e-01
      -11 -1    0    0    0    0 +0.0000000000e+00 +0.0000000000e+00 +4.5593999997e+01 4.5594000000e+01 5.1100000000e-04 0.0000e+00 1.0000e+00
       11 -1    0    0    0    0 -0.0000000000e+00 -0.0000000000e+00 -4.5593999997e+01 4.5594000000e+01 5.1100000000e-04 0.0000e+00 -1.0000e+00
       23  2    1    2    0    0 +0.0000000000e+00 +0.0000000000e+00 +0.0000000000e+00 9.1188000000e+01 9.1188000000e+01 6.2776e-15 0.0000e+00
  9900012  1    3    3    0    0 -3.7888750770e+00 -4.3234977991e+01 +6.6163797258e-02 4.7787271044e+01 2.0000000000e+01 1.2058e-02 -1.0000e+00
      -12  1    3    3    0    0 +3.7888750770e+00 +4.3234977991e+01 -6.6163797258e-02 4.3400728956e+01 0.0000000000e+00 0.0000e+00 1.0000e+00
</event>
<event>
 5      7 +2.9511900e-02 9.11880000e+01 7.81616400e-03 1.18400000e-01
      -11 -1    0    0    0    0 +0.0000000000e+00 +0.0000000000e+00 +4.5593999997e+01 4.5594000000e+01 5.1100000000e-04 0.0000e+00 1.0000e+00
       11 -1    0    0    0    0 -0.0000000000e+00 -0.0000000000e+00 -4.5593999997e+01 4.5594000000e+01 5.1100000000e-04 0.0000e+00 -1.0000e+00
       23  2    1    2    0    0 +0.0000000000e+00 +0.0000000000e+00 +0.0000000000e+00 9.1188000000e+01 9.1188000000e+01 4.0589e-14 0.0000e+00
  9900012  1    3    3    0    0 +2.2039413926e+01 +3.0287068745e+01 +2.1922157159e+01 4.7787271044e+01 2.0000000000e+01 2.0747e-01 1.0000e+00
       12  1    3    3    0    0 -2.2039413926e+01 -3.0287068745e+01 -2.1922157159e+01 4.3400728956e+01 0.0000000000e+00 0.0000e+00 -1.0000e+00
</event>
<event>
 5      5 +2.9511900e-02 9.11880000e+01 7.81616400e-03 1.18400000e-01
      -11 -1    0    0    0    0 +0.0000000000e+00 +0.0000000000e+00 +4.5593999997e+01 4.5594000000e+01 5.1100000000e-04 0.0000e+00 1.0000e+00
       11 -1    0    0    0    0 -0.0000000000e+00 -0.0000000000e+00 -4.5593999997e+01 4.5594000000e+01 5.1100000000e-04 0.0000e+00 -1.0000e+00
       23  2    1    2    0    0 +0.0000000000e+00 +0.0000000000e+00 +0.0000000000e+00 9.1188000000e+01 9.1188000000e+01 1.4696e-13 0.0000e+00
  9900012  1    3    3    0    0 -2.6225607869e+01 -3.1941350108e+01 +1.3251072375e+01 4.7787271044e+01 2.0000000000e+01 1.7096e-01 1.0000e+00
       12  1    3    3    0    0 +2.6225607869e+01 +3.1941350108e+01 -1.3251072375e+01 4.3400728956e+01 0.0000000000e+00 0.0000e+00 -1.0000e+00
</event>
<event>
 5      8 +2.9511900e-02 9.11880000e+01 7.81616400e-03 1.18400000e-01
      -11 -1    0    0    0    0 +0.0000000000e+00 +0.0000000000e+00 +4.5593999997e+01 4.5594000000e+01 5.1100000000e-04 0.0000e+00 1.0000e+00
       11 -1    0    0    0    0 -0.0000000000e+00 -0.0000000000e+00 -4.5593999997e+01 4.5594000000e+01 5.1100000000e-04 0.0000e+00 -1.0000e+00
       23  2    1    2    0    0 +0.0000000000e+00 +0.0000000000e+00 +0.0000000000e+00 9.1188000000e+01 9.1188000000e+01 2.3101e-13 0.0000e+00
  9900012  1    3    3    0    0 -1.3563498038e-01 -2.7483197430e+01 -3.3589860614e+01 4.7787271044e+01 2.0000000000e+01 2.1781e-02 -1.0000e+00
      -12  1    3    3    0    0 +1.3563498038e-01 +2.7483197430e+01 +3.3589860614e+01 4.3400728956e+01 0.0000000000e+00 0.0000e+00 1.0000e+00
</event>
<event>
 5      4 +2.9511900e-02 9.11880000e+01 7.81616400e-03 1.18400000e-01
      -11 -1    0    0    0    0 +0.0000000000e+00 +0.0000000000e+00 +4.5593999997e+01 4.5594000000e+01 5.1100000000e-04 0.0000e+00 -1.0000e+00
       11 -1    0    0    0    0 -0.0000000000e+00 -0.0000000000e+00 -4.5593999997e+01 4.5594000000e+01 5.1100000000e-04 0.0000e+00 1.0000e+00
       23  2    1    2    0    0 +0.0000000000e+00 +0.0000000000e+00 +0.0000000000e+00 9.1188000000e+01 9.1188000000e+01 1.5074e-14 0.0000e+00
  9900012  1    3    3    0    0 -2.3088737166e+01 -3.6749234178e+01 -1.6515836808e-01 4.7787271044e+01 2.0000000000e+01 6.4532e-02 -1.0000e+00
      -12  1    3    3    0    0 +2.3088737166e+01 +3.6749234178e+01 +1.6515836808e-01 4.3400728956e+01 0.0000000000e+00 0.0000e+00 1.0000e+00
</event>
<event>
 5      6 +2.9511900e-02 9.11880000e+01 7.81616400e-03 1.18400000e-01
      -11 -1    0    0    0    0 +0.0000000000e+00 +0.0000000000e+00 +4.5593999997e+01 4.5594000000e+01 5.1100000000e-04 0.0000e+00 1.0000e+00
       11 -1    0    0    0    0 -0.0000000000e+00 -0.0000000000e+00 -4.5593999997e+01 4.5594000000e+01 5.1100000000e-04 0.0000e+00 -1.0000e+00
       23  2    1    2    0    0 +0.0000000000e+00 +0.0000000000e+00 +0.0000000000e+00 9.1188000000e+01 9.1188000000e+01 3.0655e-14 0.0000e+00
  9900012  1    3    3    0    0 -2.8338459922e+01 +1.1123039282e+01 -3.0932716665e+01 4.7787271044e+01 2.0000000000e+01 5.9112e-02 -1.0000e+00
      -12  1    3    3    0    0 +2.8338459922e+01 -1.1123039282e+01 +3.0932716665e+01 4.3400728956e+01 0.0000000000e+00 0.0000e+00 1.0000e+00
</event>
<event>
 5      2 +2.9511900e-02 9.11880000e+01 7.81616400e-03 1.18400000e-01
      -11 -1    0    0    0    0 +0.0000000000e+00 +0.0000000000e+00 +4.5593999997e+01 4.5594000000e+01 5.1100000000e-04 0.0000e+00 1.0000e+00
       11 -1    0    0    0    0 -0.0000000000e+00 -0.0000000000e+00 -4.5593999997e+01 4.5594000000e+01 5.1100000000e-04 0.0000e+00 -1.0000e+00
       23  2    1    2    0    0 +0.0000000000e+00 +0.0000000000e+00 +0.0000000000e+00 9.1188000000e+01 9.1188000000e+01 5.5814e-14 0.0000e+00
  9900012  1    3    3    0    0 +1.7996119783e+01 -3.6386138189e+01 -1.5356167957e+01 4.7787271044e+01 2.0000000000e+01 4.8922e-02 -1.0000e+00
      -12  1    3    3    0    0 -1.7996119783e+01 +3.6386138189e+01 +1.5356167957e+01 4.3400728956e+01 0.0000000000e+00 0.0000e+00 1.0000e+00
</event>
<event>
 5      3 +2.9511900e-02 9.11880000e+01 7.81616400e-03 1.18400000e-01
      -11 -1    0    0    0    0 +0.0000000000e+00 +0.0000000000e+00 +4.5593999997e+01 4.5594000000e+01 5.1100000000e-04 0.0000e+00 1.0000e+00
       11 -1    0    0    0    0 -0.0000000000e+00 -0.0000000000e+00 -4.5593999997e+01 4.5594000000e+01 5.1100000000e-04 0.0000e+00 -1.0000e+00
       23  2    1    2    0    0 +0.0000000000e+00 +0.0000000000e+00 +0.0000000000e+00 9.1188000000e+01 9.1188000000e+01 3.5356e-13 0.0000e+00
  9900012  1    3    3    0    0 -2.9160464451e+01 +1.7849207665e+01 -2.6733805801e+01 4.7787271044e+01 2.0000000000e+01 5.7285e-02 1.0000e+00
       12  1    3    3    0    0 +2.9160464451e+01 -1.7849207665e+01 +2.6733805801e+01 4.3400728956e+01 0.0000000000e+00 0.0000e+00 -1.0000e+00
</event>
<event>
 5      7 +2.9511900e-02 9.11880000e+01 7.81616400e-03 1.18400000e-01
      -11 -1    0    0    0    0 +0.0000000000e+00 +0.0000000000e+00 +4.5593999997e+01 4.5594000000e+01 5.1100000000e-04 0.0000e+00 -1.0000e+00
       11 -1    0    0    0    0 -0.0000000000e+00 -0.0000000000e+00 -4.5593999997e+01 4.5594000000e+01 5.1100000000e-04 0.0000e+00 1.0000e+00
       23  2    1    2    0    0 +0.0000000000e+00 +0.0000000000e+00 +0.0000000000e+00 9.1188000000e+01 9.1188000000e+01 2.4051e-14 0.0000e+00
  9900012  1    3    3    0    0 -4.2559734192e+01 +8.4436619377e+00 -9.9843500953e-01 4.7787271044e+01 2.0000000000e+01 1.2097e-01 1.0000e+00
       12  1    3    3    0    0 +4.2559734192e+01 -8.4436619377e+00 +9.9843500953e-01 4.3400728956e+01 0.0000000000e+00 0.0000e+00 -1.0000e+00
</event>
<event>
 5      8 +2.9511900e-02 9.11880000e+01 7.81616400e-03 1.18400000e-01
      -11 -1    0    0    0    0 +0.0000000000e+00 +0.0000000000e+00 +4.5593999997e+01 4.5594000000e+01 5.1100000000e-04 0.0000e+00 -1.0000e+00
       11 -1    0    0    0    0 -0.0000000000e+00 -0.0000000000e+00 -4.5593999997e+01 4.5594000000e+01 5.1100000000e-04 0.0000e+00 1.0000e+00
       23  2    1    2    0    0 +0.0000000000e+00 +0.0000000000e+00 +0.0000000000e+00 9.1188000000e+01 9.1188000000e+01 6.0553e-14 0.0000e+00
  9900012  1    3    3    0    0 +3.5778888551e+01 -2.3472493093e+01 +7.2482050145e+00 4.7787271044e+01 2.0000000000e+01 4.3190e-02 -1.0000e+00
      -12  1    3    3    0    0 -3.5778888551e+01 +2.3472493093e+01 -7.2482050145e+00 4.3400728956e+01 0.0000000000e+00 0.0000e+00 1.0000e+00
</event>
<event>
 5      7 +2.9511900e-02 9.11880000e+01 7.81616400e-03 1.18400000e-01
      -11 -1    0    0    0    0 +0.0000000000e+00 +0.0000000000e+00 +4.5593999997e+01 4.5594000000e+01 5.1100000000e-04 0.0000e+00 1.0000e+00
       11 -1    0    0    0    0 -0.0000000000e+00 -0.0000000000e+00 -4.5593999997e+01 4.5594000000e+01 5.1100000000e-04 0.0000e+00 -1.0000e+00
       23  2    1    2    0    0 +0.0000000000e+00 +0.0000000000e+00 +0.0000000000e+00 9.1188000000e+01 9.1188000000e+01 1.5306e-13 0.0000e+00
  9900012  1    3    3    0    0 -1.2809580045e+00 -2.4970573507e+01 +3.5474679410e+01 4.7787271044e+01 2.0000000000e+01 2.8488e-02 1.0000e+00
       12  1    3    3    0    0 +1.2809580045e+00 +2.4970573507e+01 -3.5474679410e+01 4.3400728956e+01 0.0000000000e+00 0.0000e+00 -1.0000e+00
</event>
<event>
 5      6 +2.9511900e-02 9.11880000e+01 7.81616400e-03 1.18400000e-01
      -11 -1    0    0    0    0 +0.0000000000e+00 +0.0000000000e+00 +4.5593999997e+01 4.5594000000e+01 5.1100000000e-04 0.0000e+00 1.0000e+00
       11 -1    0    0    0    0 -0.0000000000e+00 -0.0000000000e+00 -4.5593999997e+01 4.5594000000e+01 5.1100000000e-04 0.0000e+00 -1.0000e+00
       23  2    1    2    0    0 +0.0000000000e+00 +0.0000000000e+00 +0.0000000000e+00 9.1188000000e+01 9.1188000000e+01 7.9808e-15 0.0000e+00
  9900012  1    3    3    0    0 +1.4468649782e+01 -2.6766996126e+01 -3.0948495371e+01 4.7787271044e+01 2.0000000000e+01 6.3465e-02 -1.0000e+00
      -12  1    3    3    0    0 -1.4468649782e+01 +2.6766996126e+01 +3.0948495371e+01 4.3400728956e+01 0.0000000000e+00 0.0000e+00 1.0000e+00
</event>
<event>
 5      5 +2.9511900e-02 9.11880000e+01 7.81616400e-03 1.18400000e-01
      -11 -1    0    0    0    0 +0.0000000000e+00 +0.0000000000e+00 +4.5593999997e+01 4.5594000000e+01 5.1100000000e-04 0.0000e+00 1.0000e+00
       11 -1    0    0    0    0 -0.0000000000e+00 -0.0000000000e+00 -4.5593999997e+01 4.5594000000e+01 5.1100000000e-04 0.0000e+00 -1.0000e+00
       23  2    1    2    0    0 +0.0000000000e+00 +0.0000000000e+00 +0.0000000000e+00 9.1188000000e+01 9.1188000000e+01 5.4869e-14 0.0000e+00
  9900012  1    3    3    0    0 -5.9828851974e+00 +2.1303697713e+01 +3.7336052581e+01 4.7787271044e+01 2.0000000000e+01 2.9168e-01 1.0000e+00
       12  1    3    3    0    0 +5.9828851974e+00 -2.1303697713e+01 -3.7336052581e+01 4.3400728956e+01 0.0000000000e+00 0.0000e+00 -1.0000e+00
</event>
<event>
 5      6 +2.9511900e-02 9.11880000e+01 7.81616400e-03 1.18400000e-01
      -11 -1    0    0    0    0 +0.0000000000e+00 +0.0000000000e+00 +4.5593999997e+01 4.5594000000e+01 5.1100000000e-04 0.0000e+00 -1.0000e+00
       11 -1    0    0    0    0 -0.0000000000e+00 -0.0000000000e+00 -4.5593999997e+01 4.5594000000e+01 5.1100000000e-04 0.0000e+00 1.0000e+00
       23  2    1    2    0    0 +0.0000000000e+00 +0.0000000000e+00 +0.0000000000e+00 9.1188000000e+01 9.1188000000e+01 7.2055e-14 0.0000e+00
  9900012  1    3    3    0    0 -2.0241089235e+01 -3.1611966563e+01 +2.1785434365e+01 4.7787271044e+01 2.0000000000e+01 2.0567e-01 -1.0000e+00
      -12  1    3    3    0    0 +2.0241089235e+01 +3.1611966563e+01 -2.1785434365e+01 4.3400728956e+01 0.0000000000e+00 0.0000e+00 1.0000e+00
</event>
<event>
 5      5 +2.9511900e-02 9.11880000e+01 7.81616400e-03 1.18400000e-01
      -11 -1    0    0    0    0 +0.0000000000e+00 +0.0000000000e+00 +4.5593999997e+01 4.5594000000e+01 5.1100000000e-04 0.0000e+00 -1.0000e+00
       11 -1    0    0    0    0 -0.0000000000e+00 -0.0000000000e+00 -4.5593999997e+01 4.5594000000e+01 5.1100000000e-04 0.0000e+00 1.0000e+00
       23  2    1    2    0    0 +0.0000000000e+00 +0.0000000000e+00 +0.0000000000e+00 9.1188000000e+01 9.1188000000e+01 1.2398e-14 0.0000e+00
  9900012  1    3    3    0    0 -2.2394211317e+01 +5.1164729387e+00 -3.6823148671e+01 4.7787271044e+01 2.0000000000e+01 2.3325e-01 1.0000e+00
       12  1    3    3    0    0 +2.2394211317e+01 -5.1164729387e+00 +3.6823148671e+01 4.3400728956e+01 0.0000000000e+00 0.0000e+00 -1.0000e+00
</event>
<event>
 5      3 +2.9511900e-02 9.11880000e+01 7.81616400e-03 1.18400000e-01
      -11 -1    0    0    0    0 +0.0000000000e+00 +0.0000000000e+00 +4.5593999997e+01 4.5594000000e+01 5.1100000000e-04 0.0000e+00 -1.0000e+00
       11 -1    0    0    0    0 -0.0000000000e+00 -0.0000000000e+00 -4.5593999997e+01 4.5594000000e+01 5.1100000000e-04 0.0000e+00 1.0000e+00
       23  2    1    2    0    0 +0.0000000000e+00 +0.0000000000e+00 +0.0000000000e+00 9.1188000000e+01 9.1188000000e+01 1.4581e-13 0.0000e+00
  9900012  1    3    3    0    0 -9.5296530903e+00 -4.2046861786e+01 -4.9870231391e+00 4.7787271044e+01 2.0000000000e+01 4.2120e-02 1.0000e+00
       12  1    3    3    0    0 +9.5296530903e+00 +4.2046861786e+01 +4.9870231391e+00 4.3400728956e+01 0.0000000000e+00 0.0000e+00 -1.0000e+00
</event>
<event>
 5      7 +2.9511900e-02 9.11880000e+01 7.81616400e-03 1.18400000e-01
      -11 -1    0    0    0    0 +0.0000000000e+00 +0.0000000000e+00 +4.5593999997e+01 4.5594000000e+01 5.1100000000e-04 0.0000e+00 1.0000e+00
       11 -1    0    0    0    0 -0.0000000000e+00 -0.0000000000e+00 -4.5593999997e+01 4.5594000000e+01 5.1100000000e-04 0.0000e+00 -1.0000e+00
       23  2    1    2    0    0 +0.0000000000e+00 +0.0000000000e+00 +0.0000000000e+00 9.1188000000e+01 9.1188000000e+01 9.3428e-14 0.0000e+00
  9900012  1    3    3    0    0 +1.7638909475e+01 -2.9155455857e+01 +2.6878458664e+01 4.7787271044e+01 2.0000000000e+01 1.0849e-01 1.0000e+00
       12  1    3    3    0    0 -1.7638909475e+01 +2.9155455857e+01 -2.6878458664e+01 4.3400728956e+01 0.0000000000e+00 0.0000e+00 -1.0000e+00
</event>
<event>
 5      5 +2.9511900e-02 9.11880000e+01 7.81616400e-03 1.18400000e-01
      -11 -1    0    0    0    0 +0.0000000000e+00 +0.0000000000e+00 +4.5593999997e+01 4.5594000000e+01 5.1100000000e-04 0.0000e+00 1.0000e+00
       11 -1    0    0    0    0 -0.0000000000e+00 -0.0000000000e+00 -4.5593999997e+01 4.5594000000e+01 5.1100000000e-04 0.0000e+00 -1.0000e+00
       23  2    1    2    0    0 +0.0000000000e+00 +0.0000000000e+00 +0.0000000000e+00 9.1188000000e+01 9.1188000000e+01 7.8073e-14 0.0000e+00
  9900012  1    3    3    0    0 +4.0110909974e+01 +1.2728867372e+01 -1.0616690179e+01 4.7787271044e+01 2.0000000000e+01 1.5624e-01 1.0000e+00
       12  1    3    3    0    0 -4.0110909974e+01 -1.2728867372e+01 +1.0616690179e+01 4.3400728956e+01 0.0000000000e+00 0.0000e+00 -1.0000e+00
</event>
<event>
 5      6 +2.9511900e-02 9.11880000e+01 7.81616400e-03 1.18400000e-01
      -11 -1    0    0    0    0 +0.0000000000e+00 +0.0000000000e+00 +4.5593999997e+01 4.5594000000e+01 5.1100000000e-04 0.0000e+00 1.0000e+00
       11 -1    0    0    0    0 -0.0000000000e+00 -0.0000000000e+00 -4.5593999997e+01 4.5594000000e+01 5.1100000000e-04 0.0000e+00 -1.0000e+00
       23  2    1    2    0    0 +0.0000000000e+00 +0.0000000000e+00 +0.0000000000e+00 9.1188000000e+01 9.1188000000e+01 7.2649e-14 0.0000e+00
  9900012  1    3    3    0    0 -1.5835096551e+01 -3.6739601138e+01 -1.6824823901e+01 4.7787271044e+01 2.0000000000e+01 1.1891e-01 -1.0000e+00
      -12  1    3    3    0    0 +1.5835096551e+01 +3.6739601138e+01 +1.6824823901e+01 4.3400728956e+01 0.0000000000e+00 0.0000e+00 1.0000e+00
</event>
<event>
 5      7 +2.9511900e-02 9.11880000e+01 7.81616400e-03 1.18400000e-01
      -11 -1    0    0    0    0 +0.0000000000e+00 +0.0000000000e+00 +4.5593999997e+01 4.5594000000e+01 5.1100000000e-04 0.0000e+00 1.0000e+00
       11 -1    0    0    0    0 -0.0000000000e+00 -0.0000000000e+00 -4.5593999997e+01 4.5594000000e+01 5.1100000000e-04 0.0000e+00 -1.0000e+00
       23  2    1    2    0    0 +0.0000000000e+00 +0.0000000000e+00 +0.0000000000e+00 9.1188000000e+01 9.1188000000e+01 5.0625e-15 0.0000e+00
  9900012  1    3    3    0    0 +8.3512789558e+00 +2.7597171991e+01 +3.2438796398e+01 4.7787271044e+01 2.0000000000e+01 2.7852e-01 1.0000e+00
       12  1    3    3    0    0 -8.3512789558e+00 -2.7597171991e+01 -3.2438796398e+01 4.3400728956e+01 0.0000000000e+00 0.0000e+00 -1.0000e+00
</event>
<event>
 5      8 +2.9511900e-02 9.11880000e+01 7.81616400e-03 1.18400000e-01
      -11 -1    0    0    0    0 +0.0000000000e+00 +0.0000000000e+00 +4.5593999997e+01 4.5594000000e+01 5.1100000000e-04 0.0000e+00 -1.0000e+00
       11 -1    0    0    0    0 -0.0000000000e+00 -0.0000000000e+00 -4.5593999997e+01 4.5594000000e+01 5.1100000000e-04 0.0000e+00 1.0000e+00
       23  2    1    2    0    0 +0.0000000000e+00 +0.0000000000e+00 +0.0000000000e+00 9.1188000000e+01 9.1188000000e+01 1.4883e-13 0.0000e+00
  9900012  1    3    3    0    0 -2.1861317186e+01 +1.5628627420e+01 +3.4080083476e+01 4.7787271044e+01 2.0000000000e+01 5.4061e-02 -1.0000e+00
      -12  1    3    3    0    0 +2.1861317186e+01 -1.5628627420e+01 -3.4080083476e+01 4.3400728956e+01 0.0000000000e+00 0.0000e+00 1.0000e+00
</event>
<event>
 5      3 +2.9511900e-02 9.11880000e+01 7.81616400e-03 1.18400000e-01
      -11 -1    0    0    0    0 +0.0000000000e+00 +0.0000000000e+00 +4.5593999997e+01 4.5594000000e+01 5.1100000000e-04 0.0000e+00 1.0000e+00
       11 -1    0    0    0    0 -0.0000000000e+00 -0.0000000000e+00 -4.5593999997e+01 4.5594000000e+01 5.1100000000e-04 0.0000e+00 -1.0000e+00
       23  2    1    2    0    0 +0.0000000000e+00 +0.0000000000e+00 +0.0000000000e+00 9.1188000000e+01 9.1188000000e+01 8.2156e-14 0.0000e+00
  9900012  1    3    3    0    0 +1.5439242318e+01 -2.9732863458e+01 -2.7590032640e+01 4.7787271044e+01 2.0000000000e+01 1.9003e-01 1.0000e+00
       12  1    3    3    0    0 -1.5439242318e+01 +2.9732863458e+01 +2.7590032640e+01 4.3400728956e+01 0.0000000000e+00 0.0000e+00 -1.0000e+00
</event>
<event>
 5      7 +2.9511900e-02 9.11880000e+01 7.81616400e-03 1.18400000e-01
      -11 -1    0    0    0    0 +0.0000000000e+00 +0.0000000000e+00 +4.5593999997e+01 4.5594000000e+01 5.1100000000e-04 0.0000e+00 -1.0000e+00
       11 -1    0    0    0    0 -0.0000000000e+00 -0.0000000000e+00 -4.5593999997e+01 4.5594000000e+01 5.1100000000e-04 0.0000e+00 1.0000e+00
       23  2    1    2    0    0 +0.0000000000e+00 +0.0000000000e+00 +0.0000000000e+00 9.1188000000e+01 9.1188000000e+01 8.3901e-15 0.0000e+00
  9900012  1    3    3    0    0 +3.6143435245e+01 -2.3979475271e+01 -1.5033723035e+00 4.7787271044e+01 2.0000000000e+01 2.7892e-01 1.0000e+00
       12  1    3    3    0    0 -3.6143435245e+01 +2.3979475271e+01 +1.5033723035e+00 4.3400728956e+01 0.0000000000e+00 0.0000e+00 -1.0000e+00
</event>
<event>
 5      5 +2.9511900e-02 9.11880000e+01 7.81616400e-03 1.18400000e-01
      -11 -1    0    0    0    0 +0.0000000000e+00 +0.0000000000e+00 +4.5593999997e+01 4.5594000000e+01 5.1100000000e-04 0.0000e+00 -1.0000e+00
       11 -1    0    0    0    0 -0.0000000000e+00 -0.0000000000e+00 -4.5593999997e+01 4.5594000000e+01 5.1100000000e-04 0.0000e+00 1.0000e+00
       23  2    1    2    0    0 +0.0000000000e+00 +0.0000000000e+00 +0.0000000000e+00 9.1188000000e+01 9.1188000000e+01 2.5131e-13 0.0000e+00
  9900012  1    3    3    0    0 +2.0297895346e+01 -1.9253976580e+01 -3.3179859919e+01 4.7787271044e+01 2.0000000000e+01 5.3291e-02 1.0000e+00
       12  1    3    3    0    0 -2.0297895346e+01 +1.9253976580e+01 +3.3179859919e+01 4.3400728956e+01 0.0000000000e+00 0.0000e+00 -1.0000e+00
</event>
<event>
 5      2 +2.9511900e-02 9.11880000e+01 7.81616400e-03 1.18400000e-01
      -11 -1    0    0    0    0 +0.0000000000e+00 +0.0000000000e+00 +4.5593999997e+01 4.5594000000e+01 5.1100000000e-04 0.0000e+00 1.0000e+00
       11 -1    0    0    0    0 -0.0000000000e+00 -0.0000000000e+00 -4.5593999997e+01 4.5594000000e+01 5.1100000000e-04 0.0000e+00 -1.0000e+00
       23  2    1    2    0    0 +0.0000000000e+00 +0.0000000000e+00 +0.0000000000e+00 9.1188000000e+01 9.1188000000e+01 8.1906e-14 0.0000e+00
  9900012  1    3    3    0    0 +3.6052172044e+01 +1.6682868101e+01 -1.7479876336e+01 4.7787271044e+01 2.0000000000e+01 1.0635e-01 -1.0000e+00
      -12  1    3    3    0    0 -3.6052172044e+01 -1.6682868101e+01 +1.7479876336e+01 4.3400728956e+01 0.0000000000e+00 0.0000e+00 1.0000e+00
</event>
<event>
 5      8 +2.9511900e-02 9.11880000e+01 7.81616400e-03 1.18400000e-01
      -11 -1    0    0    0    0 +0.0000000000e+00 +0.0000000000e+00 +4.5593999997e+01 4.5594000000e+01 5.1100000000e-04 0.0000e+00 1.0000e+00
       11 -1    0    0    0    0 -0.0000000000e+00 -0.0000000000e+00 -4.5593999997e+01 4.5594000000e+01 5.1100000000e-04 0.0000e+00 -1.0000e+00
       23  2    1    2    0    0 +0.0000000000e+00 +0.0000000000e+00 +0.0000000000e+00 9.1188000000e+01 9.1188000000e+01 1.7079e-13 0.0000e+00
  9900012  1    3    3    0    0 +1.9627589655e+00 -2.6251291128e+01 -3.4505659901e+01 4.7787271044e+01 2.0000000000e+01 3.6315e-02 -1.0000e+00
      -12  1    3    3    0    0 -1.9627589655e+00 +2.6251291128e+01 +3.4505659901e+01 4.3400728956e+01 0.0000000000e+00 0.0000e+00 1.0000e+00
</event>
<event>
 5      1 +2.9511900e-02 9.11880000e+01 7.81616400e-03 1.18400000e-01
      -11 -1    0    0    0    0 +0.0000000000e+00 +0.0000000000e+00 +4.5593999997e+01 4.5594000000e+01 5.1100000000e-04 0.0000e+00 -1.0000e+00
       11 -1    0    0    0    0 -0.0000000000e+00 -0.0000000000e+00 -4.5593999997e+01 4.5594000000e+01 5.1100000000e-04 0.0000e+00 1.0000e+00
       23  2    1    2    0    0 +0.0000000000e+00 +0.0000000000e+00 +0.0000000000e+00 9.1188000000e+01 9.1188000000e+01 5.0812e-14 0.0000e+00
  9900012  1    3    3    0    0 +8.7010916929e+00 +2.4384948304e+00 -4.2449593875e+01 4.7787271044e+01 2.0000000000e+01 5.6543e-02 1.0000e+00
       12  1    3    3    0    0 -8.7010916929e+00 -2.4384948304e+00 +4.2449593875e+01 4.3400728956e+01 0.0000000000e+00 0.0000e+00 -1.0000e+00
</event>
<event>
 5      6 +2.9511900e-02 9.11880000e+01 7.81616400e-03 1.18400000e-01
      -11 -1    0    0    0    0 +0.0000000000e+00 +0.0000000000e+00 +4.5593999997e+01 4.5594000000e+01 5.1100000000e-04 0.0000e+00 -1.0000e+00
       11 -1    0    0    0    0 -0.0000000000e+00 -0.0000000000e+00 -4.5593999997e+01 4.5594000000e+01 5.1100000000e-04 0.0000e+00 1.0000e+00
       23  2    1    2    0    0 +0.0000000000e+00 +0.0000000000e+00 +0.0000000000e+00 9.1188000000e+01 9.1188000000e+01 3.5611e-14 0.0000e+00
  9900012  1    3    3    0    0 -9.2452101412e+00 +4.2404565485e+01 +4.6790223036e-02 4.7787271044e+01 2.0000000000e+01 3.5790e-02 -1.0000e+00
      -12  1    3    3    0    0 +9.2452101412e+00 -4.2404565485e+01 -4.6790223036e-02 4.3400728956e+01 0.0000000000e+00 0.0000e+00 1.0000e+00
</event>
<event>
 5      8 +2.9511900e-02 9.11880000e+01 7.81616400e-03 1.18400000e-01
      -11 -1    0    0    0    0 +0.0000000000e+00 +0.0000000000e+00 +4.5593999997e+01 4.5594000000e+01 5.1100000000e-04 0.0000e+00 -1.0000e+00
       11 -1    0    0    0    0 -0.0000000000e+00 -0.0000000000e+00 -4.5593999997e+01 4.5594000000e+01 5.1100000000e-04 0.0000e+00 1.0000e+00
       23  2    1    2    0    0 +0.0000000000e+00 +0.0000000000e+00 +0.0000000000e+00 9.1188000000e+01 9.1188000000e+01 4.5254e-14 0.0000e+00
  9900012  1    3    3    0    0 +3.0995109212e+00 -1.7021340868e+01 +3.9803143858e+01 4.7787271044e+01 2.0000000000e+01 8.6311e-02 -1.0000e+00
      -12  1    3    3    0    0 -3.0995109212e+00 +1.7021340868e+01 -3.9803143858e+01 4.3400728956e+01 0.0000000000e+00 0.0000e+00 1.0000e+00
</event>
<event>
 5      1 +2.9511900e-02 9.11880000e+01 7.81616400e-03 1.18400000e-01
      -11 -1    0    0    0    0 +0.0000000000e+00 +0.0000000000e+00 +4.5593999997e+01 4.5594000000e+01 5.1100000000e-04 0.0000e+00 -1.0000e+00
       11 -1    0    0    0    0 -0.0000000000e+00 -0.0000000000e+00 -4.5593999997e+01 4.5594000000e+01 5.1100000000e-04 0.0000e+00 1.0000e+00
       23  2    1    2    0    0 +0.0000000000e+00 +0.0000000000e+00 +0.0000000000e+00 9.1188000000e+01 9.1188000000e+01 1.8208e-13 0.0000e+00
  9900012  1    3    3    0    0 +2.3602771387e+01 -3.5699944508e+01 -7.2143204023e+00 4.7787271044e+01 2.0000000000e+01 1.3536e-01 1.0000e+00
       12  1    3    3    0    0 -2.3602771387e+01 +3.5699944508e+01 +7.2143204023e+00 4.3400728956e+01 0.0000000000e+00 0.0000e+00 -1.0000e+00
</event>
<event>
 5      2 +2.9511900e-02 9.11880000e+01 7.81616400e-03 1.18400000e-01
      -11 -1    0    0    0    0 +0.0000000000e+00 +0.0000000000e+00 +4.5593999997e+01 4.5594000000e+01 5.1100000000e-04 0.0000e+00 1.0000e+00
       11 -1    0    0    0    0 -0.0000000000e+00 -0.0000000000e+00 -4.5593999997e+01 4.5594000000e+01 5.1100000000e-04 0.0000e+00 -1.0000e+00
       23  2    1    2    0    0 +0.0000000000e+00 +0.0000000000e+00 +0.0000000000e+00 9.1188000000e+01 9.1188000000e+01 1.1885e-13 0.0000e+00
  9900012  1    3    3    0    0 +3.3490026604e+01 -2.5533646764e+01 -1.0491628799e+01 4.7787271044e+01 2.0000000000e+01 1.0298e-01 -1.0000e+00
      -12  1    3    3    0    0 -3.3490026604e+01 +2.5533646764e+01 +1.0491628799e+01 4.3400728956e+01 0.0000000000e+00 0.0000e+00 1.0000e+00
</event>
<event>
 5      3 +2.9511900e-02 9.11880000e+01 7.81616400e-03 1.18400000e-01
      -11 -1    0    0    0    0 +0.0000000000e+00 +0.0000000000e+00 +4.5593999997e+01 4.5594000000e+01 5.1100000000e-04 0.0000e+00 1.0000e+00
       11 -1    0    0    0    0 -0.0000000000e+00 -0.0000000000e+00 -4.5593999997e+01 4.5594000000e+01 5.1100000000e-04 0.0000e+00 -1.0000e+00
       23  2    1    2    0    0 +0.0000000000e+00 +0.0000000000e+00 +0.0000000000e+00 9.1188000000e+01 9.1188000000e+01 1.3695e-13 0.0000e+00
  9900012  1    3    3    0    0 +1.2254659809e+01 -3.7669014656e+01 -1.7733920089e+01 4.7787271044e+01 2.0000000000e+01 4.1609e-01 1.0000e+00
       12  1    3    3    0    0 -1.2254659809e+01 +3.7669014656e+01 +1.7733920089e+01 4.3400728956e+01 0.0000000000e+00 0.0000e+00 -1.0000e+00
</event>
<event>
 5      4 +2.9511900e-02 9.11880000e+01 7.81616400e-03 1.18400000e-01
      -11 -1    0    0    0    0 +0.0000000000e+00 +0.0000000000e+00 +4.5593999997e+01 4.5594000000e+01 5.1100000000e-04 0.0000e+00 -1.0000e+00
       11 -1    0    0    0    0 -0.0000000000e+00 -0.0000000000e+00 -4.5593999997e+01 4.5594000000e+01 5.1100000000e-04 0.0000e+00 1.0000e+00
       23  2    1    2    0    0 +0.0000000000e+00 +0.0000000000e+00 +0.0000000000e+00 9.1188000000e+01 9.1188000000e+01 1.4873e-14 0.0000e+00
  9900012  1    3    3    0    0 -3.3922637078e+00 -3.1026370446e+01 +3.0157588726e+01 4.7787271044e+01 2.0000000000e+01 1.9246e-01 1.0000e+00
      -12  1    3    3    0    0 +3.3922637078e+00 +3.1026370446e+01 -3.0157588726e+01 4.3400728956e+01 0.0000000000e+00 0.0000e+00 1.0000e+00
</event>
<event>
 5      4 +2.9511900e-02 9.11880000e+01 7.81616400e-03 1.18400000e-01
      -11 -1    0    0    0    0 +0.0000000000e+00 +0.0000000000e+00 +4.5593999997e+01 4.5594000000e+01 5.1100000000e-04 0.0000e+00 -1.0000e+00
       11 -1    0    0    0    0 -0.0000000000e+00 -0.0000000000e+00 -4.5593999997e+01 4.5594000000e+01 5.1100000000e-04 0.0000e+00 1.0000e+00
       23  2    1    2    0    0 +0.0000000000e+00 +0.0000000000e+00 +0.0000000000e+00 9.1188000000e+01 9.1188000000e+01 2.2095e-13 0.0000e+00
  9900012  1    3    3    0    0 +8.4792241314e+00 +2.5255193064e+01 +3.4262242415e+01 4.7787271044e+01 2.0000000000e+01 5.9667e-02 -1.0000e+00
      -12  1    3    3    0    0 -8.4792241314e+00 -2.5255193064e+01 -3.4262242415e+01 4.3400728956e+01 0.0000000000e+00 0.0000e+00 1.0000e+00
</event>
<event>
 5      2 +2.9511900e-02 9.11880000e+01 7.81616400e-03 1.18400000e-01
      -11 -1    0    0    0    0 +0.0000000000e+00 +0.0000000000e+00 +4.5593999997e+01 4.5594000000e+01 5.1100000000e-04 0.0000e+00 -1.0000e+00
       11 -1    0    0    0    0 -0.0000000000e+00 -0.0000000000e+00 -4.5593999997e+01 4.5594000000e+01 5.1100000000e-04 0.0000e+00 1.0000e+00
       23  2    1    2    0    0 +0.0000000000e+00 +0.0000000000e+00 +0.0000000000e+00 9.1188000000e+01 9.1188000000e+01 2.4456e-14 0.0000e+00
  9900012  1    3    3    0    0 +1.8449325821e+01 -9.1584468255e-01 +3.9273488248e+01 4.7787271044e+01 2.0000000000e+01 1.6095e-02 -1.0000e+00
      -12  1    3    3    0    0 -1.8449325821e+01 +9.1584468255e-01 -3.9273488248e+01 4.3400728956e+01 0.0000000000e+00 0.0000e+00 1.0000e+00
</event>
<event>
 5      4 +2.9511900e-02 9.11880000e+01 7.81616400e-03 1.18400000e-01
      -11 -1    0    0    0    0 +0.0000000000e+00 +0.0000000000e+00 +4.5593999997e+01 4.5594000000e+01 5.1100000000e-04 0.0000e+00 -1.0000e+00
       11 -1    0    0    0    0 -0.0000000000e+00 -0.0000000000e+00 -4.5593999997e+01 4.5594000000e+01 5.1100000000e-04 0.0000e+00 1.0000e+00
       23  2    1    2    0    0 +0.0000000000e+00 +0.0000000000e+00 +0.0000000000e+00 9.1188000000e+01 9.1188000000e+01 2.3456e-13 0.0000e+00
  9900012  1    3    3    0    0 -2.0887995518e+00 -1.9142687641e+01 +3.8894957259e+01 4.7787271044e+01 2.0000000000e+01 3.9288e-02 -1.0000e+00
      -12  1    3    3    0    0 +2.0887995518e+00 +1.9142687641e+01 -3.8894957259e+01 4.3400728956e+01 0.0000000000e+00 0.0000e+00 1.0000e+00
</event>
<event>
 5      1 +2.9511900e-02 9.11880000e+01 7.81616400e-03 1.18400000e-01
      -11 -1    0    0    0    0 +0.0000000000e+00 +0.0000000000e+00 +4.5593999997e+01 4.5594000000e+01 5.1100000000e-04 0.0000e+00 1.0000e+00
       11 -1    0    0    0    0 -0.0000000000e+00 -0.0000000000e+00 -4.5593999997e+01 4.5594000000e+01 5.1100000000e-04 0.0000e+00 -1.0000e+00
       23  2    1    2    0    0 +0.0000000000e+00 +0.0000000000e+00 +0.0000000000e+00 9.1188000000e+01 9.1188000000e+01 2.3285e-13 0.0000e+00
  9900012  1    3    3    0    0 +9.5102121375e+00 -4.2236897166e+01 +3.0370473702e+00 4.7787271044e+01 2.0000000000e+01 6.5809e-02 1.0000e+00
       12  1    3    3    0    0 -9.5102121375e+00 +4.2236897166e+01 -3.0370473702e+00 4.3400728956e+01 0.0000000000e+00 0.0000e+00 -1.0000e+00
</event>
<event>
 5      2 +2.9511900e-02 9.11880000e+01 7.81616400e-03 1.18400000e-01
      -11 -1    0    0    0    0 +0.0000000000e+00 +0.0000000000e+00 +4.5593999997e+01 4.5594000000e+01 5.1100000000e-04 0.0000e+00 -1.0000e+00
       11 -1    0    0    0    0 -0.0000000000e+00 -0.0000000000e+00 -4.5593999997e+01 4.5594000000e+01 5.1100000000e-04 0.0000e+00 1.0000e+00
       23  2    1    2    0    0 +0.0000000000e+00 +0.0000000000e+00 +0.0000000000e+00 9.1188000000e+01 9.1188000000e+01 8.6367e-14 0.0000e+00
  9900012  1    3    3    0    0 +4.7777642054e+00 +2.1521306571e+01 +3.7384884734e+01 4.7787271044e+01 2.0000000000e+01 3.9489e-02 -1.0000e+00
      -12  1    3    3    0    0 -4.7777642054e+00 -2.1521306571e+01 -3.7384884734e+01 4.3400728956e+01 0.0000000000e+00 0.0000e+00 1.0000e+00
</event>
<event>
 5      3 +2.9511900e-02 9.11880000e+01 7.81616400e-03 1.18400000e-01
      -11 -1    0    0    0    0 +0.0000000000e+00 +0.0000000000e+00 +4.5593999997e+01 4.5594000000e+01 5.1100000000e-04 0.0000e+00 1.0000e+00
       11 -1    0    0    0    0 -0.0000000000e+00 -0.0000000000e+00 -4.5593999997e+01 4.5594000000e+01 5.1100000000e-04 0.0000e+00 -1.0000e+00
       23  2    1    2    0    0 +0.0000000000e+00 +0.0000000000e+00 +0.0000000000e+00 9.1188000000e+01 9.1188000000e+01 1.3471e-13 0.0000e+00
  9900012  1    3    3    0    0 +1.5944527414e+01 +2.6157706326e+01 +3.0743612656e+01 4.7787271044e+01 2.0000000000e+01 1.1007e-01 1.0000e+00
       12  1    3    3    0    0 -1.5944527414e+01 -2.6157706326e+01 -3.0743612656e+01 4.3400728956e+01 0.0000000000e+00 0.0000e+00 -1.0000e+00
</event>
<event>
 5      8 +2.9511900e-02 9.11880000e+01 7.81616400e-03 1.18400000e-01
      -11 -1    0    0    0    0 +0.0000000000e+00 +0.0000000000e+00 +4.5593999997e+01 4.5594000000e+01 5.1100000000e-04 0.0000e+00 1.0000e+00
       11 -1    0    0    0    0 -0.0000000000e+00 -0.0000000000e+00 -4.5593999997e+01 4.5594000000e+01 5.1100000000e-04 0.0000e+00 -1.0000e+00
       23  2    1    2    0    0 +0.0000000000e+00 +0.0000000000e+00 +0.0000000000e+00 9.1188000000e+01 9.1188000000e+01 6.7845e-14 0.0000e+00
  9900012  1    3    3    0    0 +3.4243008783e+00 -2.5942324938e+01 -3.4625037389e+01 4.7787271044e+01 2.0000000000e+01 4.2669e-02 -1.0000e+00
      -12  1    3    3    0    0 -3.4243008783e+00 +2.5942324938e+01 +3.4625037389e+01 4.3400728956e+01 0.0000000000e+00 0.0000e+00 1.0000e+00
</event>
<event>
 5      6 +2.9511900e-02 9.11880000e+01 7.81616400e-03 1.18400000e-01
      -11 -1    0    0    0    0 +0.0000000000e+00 +0.0000000000e+00 +4.5593999997e+01 4.5594000000e+01 5.1100000000e-04 0.0000e+00 -1.0000e+00
       11 -1    0    0    0    0 -0.0000000000e+00 -0.0000000000e+00 -4.5593999997e+01 4.5594000000e+01 5.1100000000e-04 0.0000e+00 1.0000e+00
       23  2    1    2    0    0 +0.0000000000e+00 +0.0000000000e+00 +0.0000000000e+00 9.1188000000e+01 9.1188000000e+01 7.3819e-14 0.0000e+00
  9900012  1    3    3    0    0 +1.2789692309e+01 +2.8688438460e+01 +2.9950301221e+01 4.7787271044e+01 2.0000000000e+01 1.1633e-01 -1.0000e+00
      -12  1    3    3    0    0 -1.2789692309e+01 -2.8688438460e+01 -2.9950301221e+01 4.3400728956e+01 0.0000000000e+00 0.0000e+00 1.0000e+00
</event>
<event>
 5      5 +2.9511900e-02 9.11880000e+01 7.81616400e-03 1.18400000e-01
      -11 -1    0    0    0    0 +0.0000000000e+00 +0.0000000000e+00 +4.5593999997e+01 4.5594000000e+01 5.1100000000e-04 0.0000e+00 -1.0000e+00
       11 -1    0    0    0    0 -0.0000000000e+00 -0.0000000000e+00 -4.5593999997e+01 4.5594000000e+01 5.1100000000e-04 0.0000e+00 1.0000e+00
       23  2    1    2    0    0 +0.0000000000e+00 +0.0000000000e+00 +0.0000000000e+00 9.1188000000e+01 9.1188000000e+01 4.2666e-14 0.0000e+00
  9900012  1    3    3    0    0 +4.9369550416e+00 -1.5093228856e+01 -4.0391140012e+01 4.7787271044e+01 2.0000000000e+01 1.5253e-01 1.0000e+00
       12  1    3    3    0    0 -4.9369550416e+00 +1.5093228856e+01 +4.0391140012e+01 4.3400728956e+01 0.0000000000e+00 0.0000e+00 -1.0000e+00
</event>
<event>
 5      5 +2.9511900e-02 9.11880000e+01 7.81616400e-03 1.18400000e-01
      -11 -1    0    0    0    0 +0.0000000000e+00 +0.0000000000e+00 +4.5593999997e+01 4.5594000000e+01 5.1100000000e-04 0.0000e+00 -1.0000e+00
       11 -1    0    0    0    0 -0.0000000000e+00 -0.0000000000e+00 -4.5593999997e+01 4.5594000000e+01 5.1100000000e-04 0.0000e+00 1.0000e+00
       23  2    1    2    0    0 +0.0000000000e+00 +0.0000000000e+00 +0.0000000000e+00 9.1188000000e+01 9.1188000000e+01 1.3102e-14 0.0000e+00
  9900012  1    3    3    0    0 +3.2438958772e+01 +2.7070279639e+01 +9.9265899446e+00 4.7787271044e+01 2.0000000000e+01 5.9177e-02 1.0000e+00
       12  1    3    3    0    0 -3.2438958772e+01 -2.7070279639e+01 -9.9265899446e+00 4.3400728956e+01 0.0000000000e+00 0.0000e+00 -1.0000e+00
</event>
<event>
 5      6 +2.9511900e-02 9.11880000e+01 7.81616400e-03 1.18400000e-01
      -11 -1    0    0    0    0 +0.0000000000e+00 +0.0000000000e+00 +4.5593999997e+01 4.5594000000e+01 5.1100000000e-04 0.0000e+00 -1.0000e+00
       11 -1    0    0    0    0 -0.0000000000e+00 -0.0000000000e+00 -4.5593999997e+01 4.5594000000e+01 5.1100000000e-04 0.0000e+00 1.0000e+00
       23  2    1    2    0    0 +0.0000000000e+00 +0.0000000000e+00 +0.0000000000e+00 9.1188000000e+01 9.1188000000e+01 9.8848e-14 0.0000e+00
  9900012  1    3    3    0    0 -3.2356848605e+01 +2.8342173644e+01 +5.7774402097e+00 4.7787271044e+01 2.0000000000e+01 1.7973e-02 -1.0000e+00
      -12  1    3    3    0    0 +3.2356848605e+01 -2.8342173644e+01 -5.7774402097e+00 4.3400728956e+01 0.0000000000e+00 0.0000e+00 1.0000e+00
</event>
<event>
 5      1 +2.9511900e-02 9.11880000e+01 7.81616400e-03 1.18400000e-01
      -11 -1    0    0    0    0 +0.0000000000e+00 +0.0000000000e+00 +4.5593999997e+01 4.5594000000e+01 5.1100000000e-04 0.0000e+00 1.0000e+00
       11 -1    0    0    0    0 -0.0000000000e+00 -0.0000000000e+00 -4.5593999997e+01 4.5594000000e+01 5.1100000000e-04 0.0000e+00 -1.0000e+00
       23  2    1    2    0    0 +0.0000000000e+00 +0.0000000000e+00 +0.0000000000e+00 9.1188000000e+01 9.1188000000e+01 1.5962e-14 0.0000e+00
  9900012  1    3    3    0    0 -2.0731448090e+00 -3.3985415095e+01 +2.6913136297e+01 4.7787271044e+01 2.0000000000e+01 9.2598e-02 1.0000e+00
       12  1    3    3    0    0 +2.0731448090e+00 +3.3985415095e+01 -2.6913136297e+01 4.3400728956e+01 0.0000000000e+00 0.0000e+00 -1.0000e+00
</event>
<event>
 5      6 +2.9511900e-02 9.11880000e+01 7.81616400e-03 1.18400000e-01
      -11 -1    0    0    0    0 +0.0000000000e+00 +0.0000000000e+00 +4.5593999997e+01 4.5594000000e+01 5.1100000000e-04 0.0000e+00 -1.0000e+00
       11 -1    0    0    0    0 -0.0000000000e+00 -0.0000000000e+00 -4.5593999997e+01 4.5594000000e+01 5.1100000000e-04 0.0000e+00 1.0000e+00
       23  2    1    2    0    0 +0.0000000000e+00 +0.0000000000e+00 +0.0000000000e+00 9.1188000000e+01 9.1188000000e+01 1.7707e-14 0.0000e+00
  9900012  1    3    3    0    0 -2.0950950962e+01 -2.3786886752e+01 +2.9645656449e+01 4.7787271044e+01 2.0000000000e+01 3.1633e-02 -1.0000e+00
      -12  1    3    3    0    0 +2.0950950962e+01 +2.3786886752e+01 -2.9645656449e+01 4.3400728956e+01 0.0000000000e+00 0.0000e+00 1.0000e+00
</event>
<event>
 5      4 +2.9511900e-02 9.11880000e+01 7.81616400e-03 1.18400000e-01
      -11 -1    0    0    0    0 +0.0000000000e+00 +0.0000000000e+00 +4.5593999997e+01 4.5594000000e+01 5.1100000000e-04 0.0000e+00 1.0000e+00
       11 -1    0    0    0    0 -0.0000000000e+00 -0.0000000000e+00 -4.5593999997e+01 4.5594000000e+01 5.1100000000e-04 0.0000e+00 -1.0000e+00
       23  2    1    2    0    0 +0.0000000000e+00 +0.0000000000e+00 +0.0000000000e+00 9.1188000000e+01 9.1188000000e+01 1.1225e-13 0.0000e+00
  9900012  1    3    3    0    0 -4.9547703821e+00 -1.9881250705e+01 -3.8259762084e+01 4.7787271044e+01 2.0000000000e+01 1.9185e-02 -1.0000e+00
      -12  1    3    3    0    0 +4.9547703821e+00 +1.9881250705e+01 +3.8259762084e+01 4.3400728956e+01 0.0000000000e+00 0.0000e+00 1.0000e+00
</event>
<event>
 5      6 +2.9511900e-02 9.11880000e+01 7.81616400e-03 1.18400000e-01
      -11 -1    0    0    0    0 +0.0000000000e+00 +0.0000000000e+00 +4.5593999997e+01 4.5594000000e+01 5.1100000000e-04 0.0000e+00 1.0000e+00
       11 -1    0    0    0    0 -0.0000000000e+00 -0.0000000000e+00 -4.5593999997e+01 4.5594000000e+01 5.1100000000e-04 0.0000e+00 -1.0000e+00
       23  2    1    2    0    0 +0.0000000000e+00 +0.0000000000e+00 +0.0000000000e+00 9.1188000000e+01 9.1188000000e+01 3.0139e-14 0.0000e+00
  9900012  1    3    3    0    0 +2.8146518303e+01 -1.8283318663e+01 -2.7515759847e+01 4.7787271044e+01 2.0000000000e+01 1.1888e-01 -1.0000e+00
      -12  1    3    3    0    0 -2.8146518303e+01 +1.8283318663e+01 +2.7515759847e+01 4.3400728956e+01 0.0000000000e+00 0.0000e+00 1.0000e+00
</event>
<event>
 5      3 +2.9511900e-02 9.11880000e+01 7.81616400e-03 1.18400000e-01
      -11 -1    0    0    0    0 +0.0000000000e+00 +0.0000000000e+00 +4.5593999997e+01 4.5594000000e+01 5.1100000000e-04 0.0000e+00 -1.0000e+00
       11 -1    0    0    0    0 -0.0000000000e+00 -0.0000000000e+00 -4.5593999997e+01 4.5594000000e+01 5.1100000000e-04 0.0000e+00 1.0000e+00
       23  2    1    2    0    0 +0.0000000000e+00 +0.0000000000e+00 +0.0000000000e+00 9.1188000000e+01 9.1188000000e+01 3.5630e-14 0.0000e+00
  9900012  1    3    3    0    0 -3.2370009368e+01 +7.1696031072e+00 -2.8007187626e+01 4.7787271044e+01 2.0000000000e+01 1.8228e-02 1.0000e+00
       12  1    3    3    0    0 +3.2370009368e+01 -7.1696031072e+00 +2.8007187626e+01 4.3400728956e+01 0.0000000000e+00 0.0000e+00 -1.0000e+00
</event>
<event>
 5      4 +2.9511900e-02 9.11880000e+01 7.81616400e-03 1.18400000e-01
      -11 -1    0    0    0    0 +0.0000000000e+00 +0.0000000000e+00 +4.5593999997e+01 4.5594000000e+01 5.1100000000e-04 0.0000e+00 1.0000e+00
       11 -1    0    0    0    0 -0.0000000000e+00 -0.0000000000e+00 -4.5593999997e+01 4.5594000000e+01 5.1100000000e-04 0.0000e+00 -1.0000e+00
       23  2    1    2    0    0 +0.0000000000e+00 +0.0000000000e+00 +0.0000000000e+00 9.1188000000e+01 9.1188000000e+01 1.4157e-15 0.0000e+00
  9900012  1    3    3    0    0 +5.1925207462e-01 -4.0021744349e+01 -1.6781347693e+01 4.7787271044e+01 2.0000000000e+01 1.9283e-03 -1.0000e+00
      -12  1    3    3    0    0 -5.1925207462e-01 +4.0021744349e+01 +1.6781347693e+01 4.3400728956e+01 0.0000000000e+00 0.0000e+00 1.0000e+00
</event>
<event>
 5      5 +2.9511900e-02 9.11880000e+01 7.81616400e-03 1.18400000e-01
      -11 -1    0    0    0    0 +0.0000000000e+00 +0.0000000000e+00 +4.5593999997e+01 4.5594000000e+01 5.1100000000e-04 0.0000e+00 1.0000e+00
       11 -1    0    0    0    0 -0.0000000000e+00 -0.0000000000e+00 -4.5593999997e+01 4.5594000000e+01 5.1100000000e-04 0.0000e+00 -1.0000e+00
       23  2    1    2    0    0 +0.0000000000e+00 +0.0000000000e+00 +0.0000000000e+00 9.1188000000e+01 9.1188000000e+01 6.1628e-15 0.0000e+00
  9900012  1    3    3    0    0 -7.5232259044e+00 -3.7378024493e+01 +2.0734214016e+01 4.7787271044e+01 2.0000000000e+01 1.6549e-01 1.0000e+00
       12  1    3    3    0    0 +7.5232259044e+00 +3.7378024493e+01 -2.0734214016e+01 4.3400728956e+01 0.0000000000e+00 0.0000e+00 -1.0000e+00
</event>
<event>
 5      7 +2.9511900e-02 9.11880000e+01 7.81616400e-03 1.18400000e-01
      -11 -1    0    0    0    0 +0.0000000000e+00 +0.0000000000e+00 +4.5593999997e+01 4.5594000000e+01 5.1100000000e-04 0.0000e+00 1.0000e+00
       11 -1    0    0    0    0 -0.0000000000e+00 -0.0000000000e+00 -4.5593999997e+01 4.5594000000e+01 5.1100000000e-04 0.0000e+00 -1.0000e+00
       23  2    1    2    0    0 +0.0000000000e+00 +0.0000000000e+00 +0.0000000000e+00 9.1188000000e+01 9.1188000000e+01 8.0671e-14 0.0000e+00
  9900012  1    3    3    0    0 +1.3538316821e+01 -3.2039539041e+01 +2.5957757791e+01 4.7787271044e+01 2.0000000000e+01 2.4159e-01 1.0000e+00
       12  1    3    3    0    0 -1.3538316821e+01 +3.2039539041e+01 -2.5957757791e+01 4.3400728956e+01 0.0000000000e+00 0.0000e+00 -1.0000e+00
</event>
<event>
 5      3 +2.9511900e-02 9.11880000e+01 7.81616400e-03 1.18400000e-01
      -11 -1    0    0    0    0 +0.0000000000e+00 +0.0000000000e+00 +4.5593999997e+01 4.5594000000e+01 5.1100000000e-04 0.0000e+00 1.0000e+00
       11 -1    0    0    0    0 -0.0000000000e+00 -0.0000000000e+00 -4.5593999997e+01 4.5594000000e+01 5.1100000000e-04 0.0000e+00 -1.0000e+00
       23  2    1    2    0    0 +0.0000000000e+00 +0.0000000000e+00 +0.0000000000e+00 9.1188000000e+01 9.1188000000e+01 1.7339e-14 0.0000e+00
  9900012  1    3    3    0    0 -2.9255657232e+01 -2.8088957779e+01 -1.5451221464e+01 4.7787271044e+01 2.0000000000e+01 4.3426e-02 1.0000e+00
       12  1    3    3    0    0 +2.9255657232e+01 +2.8088957779e+01 +1.5451221464e+01 4.3400728956e+01 0.0000000000e+00 0.0000e+00 -1.0000e+00
</event>
<event>
 5      3 +2.9511900e-02 9.11880000e+01 7.81616400e-03 1.18400000e-01
      -11 -1    0    0    0    0 +0.0000000000e+00 +0.0000000000e+00 +4.5593999997e+01 4.5594000000e+01 5.1100000000e-04 0.0000e+00 1.0000e+00
       11 -1    0    0    0    0 -0.0000000000e+00 -0.0000000000e+00 -4.5593999997e+01 4.5594000000e+01 5.1100000000e-04 0.0000e+00 -1.0000e+00
       23  2    1    2    0    0 +0.0000000000e+00 +0.0000000000e+00 +0.0000000000e+00 9.1188000000e+01 9.1188000000e+01 3.9441e-13 0.0000e+00
  9900012  1    3    3    0    0 -2.6697776592e+01 -2.3164212480e+01 +2.5184742586e+01 4.7787271044e+01 2.0000000000e+01 2.0312e-02 1.0000e+00
       12  1    3    3    0    0 +2.6697776592e+01 +2.3164212480e+01 -2.5184742586e+01 4.3400728956e+01 0.0000000000e+00 0.0000e+00 -1.0000e+00
</event>
<event>
 5      8 +2.9511900e-02 9.11880000e+01 7.81616400e-03 1.18400000e-01
      -11 -1    0    0    0    0 +0.0000000000e+00 +0.0000000000e+00 +4.5593999997e+01 4.5594000000e+01 5.1100000000e-04 0.0000e+00 1.0000e+00
       11 -1    0    0    0    0 -0.0000000000e+00 -0.0000000000e+00 -4.5593999997e+01 4.5594000000e+01 5.1100000000e-04 0.0000e+00 -1.0000e+00
       23  2    1    2    0    0 +0.0000000000e+00 +0.0000000000e+00 +0.0000000000e+00 9.1188000000e+01 9.1188000000e+01 6.2043e-14 0.0000e+00
  9900012  1    3    3    0    0 -1.7599519512e+00 -1.2594772998e+01 -4.1495753230e+01 4.7787271044e+01 2.0000000000e+01 1.5856e-01 -1.0000e+00
      -12  1    3    3    0    0 +1.7599519512e+00 +1.2594772998e+01 +4.1495753230e+01 4.3400728956e+01 0.0000000000e+00 0.0000e+00 1.0000e+00
</event>
<event>
 5      1 +2.9511900e-02 9.11880000e+01 7.81616400e-03 1.18400000e-01
      -11 -1    0    0    0    0 +0.0000000000e+00 +0.0000000000e+00 +4.5593999997e+01 4.5594000000e+01 5.1100000000e-04 0.0000e+00 1.0000e+00
       11 -1    0    0    0    0 -0.0000000000e+00 -0.0000000000e+00 -4.5593999997e+01 4.5594000000e+01 5.1100000000e-04 0.0000e+00 -1.0000e+00
       23  2    1    2    0    0 +0.0000000000e+00 +0.0000000000e+00 +0.0000000000e+00 9.1188000000e+01 9.1188000000e+01 1.1828e-13 0.0000e+00
  9900012  1    3    3    0    0 +2.5619906570e+01 +3.1364286814e+01 +1.5605293136e+01 4.7787271044e+01 2.0000000000e+01 1.1184e-02 1.0000e+00
       12  1    3    3    0    0 -2.5619906570e+01 -3.1364286814e+01 -1.5605293136e+01 4.3400728956e+01 0.0000000000e+00 0.0000e+00 -1.0000e+00
</event>
<event>
 5      3 +2.9511900e-02 9.11880000e+01 7.81616400e-03 1.18400000e-01
      -11 -1    0    0    0    0 +0.0000000000e+00 +0.0000000000e+00 +4.5593999997e+01 4.5594000000e+01 5.1100000000e-04 0.0000e+00 1.0000e+00
       11 -1    0    0    0    0 -0.0000000000e+00 -0.0000000000e+00 -4.5593999997e+01 4.5594000000e+01 5.1100000000e-04 0.0000e+00 -1.0000e+00
       23  2    1    2    0    0 +0.0000000000e+00 +0.0000000000e+00 +0.0000000000e+00 9.1188000000e+01 9.1188000000e+01 4.8520e-15 0.0000e+00
  9900012  1    3    3    0    0 +1.7541388148e+01 +2.1108423616e+01 -3.3620788631e+01 4.7787271044e+01 2.0000000000e+01 2.2741e-02 1.0000e+00
       12  1    3    3    0    0 -1.7541388148e+01 -2.1108423616e+01 +3.3620788631e+01 4.3400728956e+01 0.0000000000e+00 0.0000e+00 -1.0000e+00
</event>
<event>
 5      7 +2.9511900e-02 9.11880000e+01 7.81616400e-03 1.18400000e-01
      -11 -1    0    0    0    0 +0.0000000000e+00 +0.0000000000e+00 +4.5593999997e+01 4.5594000000e+01 5.1100000000e-04 0.0000e+00 -1.0000e+00
       11 -1    0    0    0    0 -0.0000000000e+00 -0.0000000000e+00 -4.5593999997e+01 4.5594000000e+01 5.1100000000e-04 0.0000e+00 1.0000e+00
       23  2    1    2    0    0 +0.0000000000e+00 +0.0000000000e+00 +0.0000000000e+00 9.1188000000e+01 9.1188000000e+01 7.8873e-14 0.0000e+00
  9900012  1    3    3    0    0 -3.1391305482e+01 +2.0891579153e+01 -2.1488395345e+01 4.7787271044e+01 2.0000000000e+01 5.6304e-02 1.0000e+00
       12  1    3    3    0    0 +3.1391305482e+01 -2.0891579153e+01 +2.1488395345e+01 4.3400728956e+01 0.0000000000e+00 0.0000e+00 -1.0000e+00
</event>
<event>
 5      3 +2.9511900e-02 9.11880000e+01 7.81616400e-03 1.18400000e-01
      -11 -1    0    0    0    0 +0.0000000000e+00 +0.0000000000e+00 +4.5593999997e+01 4.5594000000e+01 5.1100000000e-04 0.0000e+00 -1.0000e+00
       11 -1    0    0    0    0 -0.0000000000e+00 -0.0000000000e+00 -4.5593999997e+01 4.5594000000e+01 5.1100000000e-04 0.0000e+00 1.0000e+00
       23  2    1    2    0    0 +0.0000000000e+00 +0.0000000000e+00 +0.0000000000e+00 9.1188000000e+01 9.1188000000e+01 4.7662e-14 0.0000e+00
  9900012  1    3    3    0    0 -3.2906594803e+01 -2.4791543518e+01 +1.3643997301e+01 4.7787271044e+01 2.0000000000e+01 3.4738e-01 1.0000e+00
       12  1    3    3    0    0 +3.2906594803e+01 +2.4791543518e+01 -1.3643997301e+01 4.3400728956e+01 0.0000000000e+00 0.0000e+00 -1.0000e+00
</event>
<event>
 5      4 +2.9511900e-02 9.11880000e+01 7.81616400e-03 1.18400000e-01
      -11 -1    0    0    0    0 +0.0000000000e+00 +0.0000000000e+00 +4.5593999997e+01 4.5594000000e+01 5.1100000000e-04 0.0000e+00 -1.0000e+00
       11 -1    0    0    0    0 -0.0000000000e+00 -0.0000000000e+00 -4.5593999997e+01 4.5594000000e+01 5.1100000000e-04 0.0000e+00 1.0000e+00
       23  2    1    2    0    0 +0.0000000000e+00 +0.0000000000e+00 +0.0000000000e+00 9.1188000000e+01 9.1188000000e+01 5.3998e-14 0.0000e+00
  9900012  1    3    3    0    0 -1.5194238981e+01 -2.6689367004e+01 +3.0666530038e+01 4.7787271044e+01 2.0000000000e+01 3.0629e-02 -1.0000e+00
      -12  1    3    3    0    0 +1.5194238981e+01 +2.6689367004e+01 -3.0666530038e+01 4.3400728956e+01 0.0000000000e+00 0.0000e+00 1.0000e+00
</event>
<event>
 5      8 +2.9511900e-02 9.11880000e+01 7.81616400e-03 1.18400000e-01
      -11 -1    0    0    0    0 +0.0000000000e+00 +0.0000000000e+00 +4.5593999997e+01 4.5594000000e+01 5.1100000000e-04 0.0000e+00 1.0000e+00
       11 -1    0    0    0    0 -0.0000000000e+00 -0.0000000000e+00 -4.5593999997e+01 4.5594000000e+01 5.1100000000e-04 0.0000e+00 -1.0000e+00
       23  2    1    2    0    0 +0.0000000000e+00 +0.0000000000e+00 +0.0000000000e+00 9.1188000000e+01 9.1188000000e+01 5.8753e-14 0.0000e+00
  9900012  1    3    3    0    0 -1.5538177876e+01 -2.2600040267e+00 -4.0460853723e+01 4.7787271044e+01 2.0000000000e+01 2.1877e-01 -1.0000e+00
      -12  1    3    3    0    0 +1.5538177876e+01 +2.2600040267e+00 +4.0460853723e+01 4.3400728956e+01 0.0000000000e+00 0.0000e+00 1.0000e+00
</event>
<event>
 5      3 +2.9511900e-02 9.11880000e+01 7.81616400e-03 1.18400000e-01
      -11 -1    0    0    0    0 +0.0000000000e+00 +0.0000000000e+00 +4.5593999997e+01 4.5594000000e+01 5.1100000000e-04 0.0000e+00 1.0000e+00
       11 -1    0    0    0    0 -0.0000000000e+00 -0.0000000000e+00 -4.5593999997e+01 4.5594000000e+01 5.1100000000e-04 0.0000e+00 -1.0000e+00
       23  2    1    2    0    0 +0.0000000000e+00 +0.0000000000e+00 +0.0000000000e+00 9.1188000000e+01 9.1188000000e+01 9.7181e-14 0.0000e+00
  9900012  1    3    3    0    0 -2.4830138689e+01 -2.0856191710e+01 +2.8846260657e+01 4.7787271044e+01 2.0000000000e+01 1.2961e-01 1.0000e+00
       12  1    3    3    0    0 +2.4830138689e+01 +2.0856191710e+01 -2.8846260657e+01 4.3400728956e+01 0.0000000000e+00 0.0000e+00 -1.0000e+00
</event>
<event>
 5      8 +2.9511900e-02 9.11880000e+01 7.81616400e-03 1.18400000e-01
      -11 -1    0    0    0    0 +0.0000000000e+00 +0.0000000000e+00 +4.5593999997e+01 4.5594000000e+01 5.1100000000e-04 0.0000e+00 1.0000e+00
       11 -1    0    0    0    0 -0.0000000000e+00 -0.0000000000e+00 -4.5593999997e+01 4.5594000000e+01 5.1100000000e-04 0.0000e+00 -1.0000e+00
       23  2    1    2    0    0 +0.0000000000e+00 +0.0000000000e+00 +0.0000000000e+00 9.1188000000e+01 9.1188000000e+01 2.0459e-13 0.0000e+00
  9900012  1    3    3    0    0 +1.1422919128e+01 -3.5806281021e+01 -2.1703696273e+01 4.7787271044e+01 2.0000000000e+01 2.5165e-02 -1.0000e+00
      -12  1    3    3    0    0 -1.1422919128e+01 +3.5806281021e+01 +2.1703696273e+01 4.3400728956e+01 0.0000000000e+00 0.0000e+00 1.0000e+00
</event>
<event>
 5      2 +2.9511900e-02 9.11880000e+01 7.81616400e-03 1.18400000e-01
      -11 -1    0    0    0    0 +0.0000000000e+00 +0.0000000000e+00 +4.5593999997e+01 4.5594000000e+01 5.1100000000e-04 0.0000e+00 -1.0000e+00
       11 -1    0    0    0    0 -0.0000000000e+00 -0.0000000000e+00 -4.5593999997e+01 4.5594000000e+01 5.1100000000e-04 0.0000e+00 1.0000e+00
       23  2    1    2    0    0 +0.0000000000e+00 +0.0000000000e+00 +0.0000000000e+00 9.1188000000e+01 9.1188000000e+01 9.6394e-15 0.0000e+00
  9900012  1    3    3    0    0 +1.4709337145e+01 -1.6385576694e+01 +3.7400154425e+01 4.7787271044e+01 2.0000000000e+01 2.7483e-01 -1.0000e+00
      -12  1    3    3    0    0 -1.4709337145e+01 +1.6385576694e+01 -3.7400154425e+01 4.3400728956e+01 0.0000000000e+00 0.0000e+00 1.0000e+00
</event>
<event>
 5      5 +2.9511900e-02 9.11880000e+01 7.81616400e-03 1.18400000e-01
      -11 -1    0    0    0    0 +0.0000000000e+00 +0.0000000000e+00 +4.5593999997e+01 4.5594000000e+01 5.1100000000e-04 0.0000e+00 1.0000e+00
       11 -1    0    0    0    0 -0.0000000000e+00 -0.0000000000e+00 -4.5593999997e+01 4.5594000000e+01 5.1100000000e-04 0.0000e+00 -1.0000e+00
       23  2    1    2    0    0 +0.0000000000e+00 +0.0000000000e+00 +0.0000000000e+00 9.1188000000e+01 9.1188000000e+01 2.4210e-13 0.0000e+00
  9900012  1    3    3    0    0 -1.5404971651e+01 -1.7329026583e+01 +3.6688076537e+01 4.7787271044e+01 2.0000000000e+01 1.0262e-01 1.0000e+00
       12  1    3    3    0    0 +1.5404971651e+01 +1.7329026583e+01 -3.6688076537e+01 4.3400728956e+01 0.0000000000e+00 0.0000e+00 -1.0000e+00
</event>
<event>
 5      2 +2.9511900e-02 9.11880000e+01 7.81616400e-03 1.18400000e-01
      -11 -1    0    0    0    0 +0.0000000000e+00 +0.0000000000e+00 +4.5593999997e+01 4.5594000000e+01 5.1100000000e-04 0.0000e+00 -1.0000e+00
       11 -1    0    0    0    0 -0.0000000000e+00 -0.0000000000e+00 -4.5593999997e+01 4.5594000000e+01 5.1100000000e-04 0.0000e+00 1.0000e+00
       23  2    1    2    0    0 +0.0000000000e+00 +0.0000000000e+00 +0.0000000000e+00 9.1188000000e+01 9.1188000000e+01 4.0728e-15 0.0000e+00
  9900012  1    3    3    0    0 +3.8535509071e+01 -1.8343489275e+01 +7.8837945007e+00 4.7787271044e+01 2.0000000000e+01 2.9721e-01 -1.0000e+00
      -12  1    3    3    0    0 -3.8535509071e+01 +1.8343489275e+01 -7.8837945007e+00 4.3400728956e+01 0.0000000000e+00 0.0000e+00 1.0000e+00
</event>
<event>
 5      5 +2.9511900e-02 9.11880000e+01 7.81616400e-03 1.18400000e-01
      -11 -1    0    0    0    0 +0.0000000000e+00 +0.0000000000e+00 +4.5593999997e+01 4.5594000000e+01 5.1100000000e-04 0.0000e+00 -1.0000e+00
       11 -1    0    0    0    0 -0.0000000000e+00 -0.0000000000e+00 -4.5593999997e+01 4.5594000000e+01 5.1100000000e-04 0.0000e+00 1.0000e+00
       23  2    1    2    0    0 +0.0000000000e+00 +0.0000000000e+00 +0.0000000000e+00 9.1188000000e+01 9.1188000000e+01 1.7070e-14 0.0000e+00
  9900012  1    3    3    0    0 +2.0111187339e+00 +4.1856770551e+01 +1.1295549318e+01 4.7787271044e+01 2.0000000000e+01 1.1300e-01 1.0000e+00
       12  1    3    3    0    0 -2.0111187339e+00 -4.1856770551e+01 -1.1295549318e+01 4.3400728956e+01 0.0000000000e+00 0.0000e+00 -1.0000e+00
</event>
<event>
 5      4 +2.9511900e-02 9.11880000e+01 7.81616400e-03 1.18400000e-01
      -11 -1    0    0    0    0 +0.0000000000e+00 +0.0000000000e+00 +4.5593999997e+01 4.5594000000e+01 5.1100000000e-04 0.0000e+00 1.0000e+00
       11 -1    0    0    0    0 -0.0000000000e+00 -0.0000000000e+00 -4.5593999997e+01 4.5594000000e+01 5.1100000000e-04 0.0000e+00 -1.0000e+00
       23  2    1    2    0    0 +0.0000000000e+00 +0.0000000000e+00 +0.0000000000e+00 9.1188000000e+01 9.1188000000e+01 4.6862e-14 0.0000e+00
  9900012  1    3    3    0    0 -2.5653391328e+00 -1.9035363633e+01 -3.8919111506e+01 4.7787271044e+01 2.0000000000e+01 2.6392e-01 -1.0000e+00
      -12  1    3    3    0    0 +2.5653391328e+00 +1.9035363633e+01 +3.8919111506e+01 4.3400728956e+01 0.0000000000e+00 0.0000e+00 1.0000e+00
</event>
<event>
 5      3 +2.9511900e-02 9.11880000e+01 7.81616400e-03 1.18400000e-01
      -11 -1    0    0    0    0 +0.0000000000e+00 +0.0000000000e+00 +4.5593999997e+01 4.5594000000e+01 5.1100000000e-04 0.0000e+00 -1.0000e+00
       11 -1    0    0    0    0 -0.0000000000e+00 -0.0000000000e+00 -4.5593999997e+01 4.5594000000e+01 5.1100000000e-04 0.0000e+00 1.0000e+00
       23  2    1    2    0    0 +0.0000000000e+00 +0.0000000000e+00 +0.0000000000e+00 9.1188000000e+01 9.1188000000e+01 3.5834e-13 0.0000e+00
  9900012  1    3    3    0    0 -3.7486233286e+01 +1.2708226123e+01 +1.7801870034e+01 4.7787271044e+01 2.0000000000e+01 2.1925e-02 1.0000e+00
       12  1    3    3    0    0 +3.7486233286e+01 -1.2708226123e+01 -1.7801870034e+01 4.3400728956e+01 0.0000000000e+00 0.0000e+00 -1.0000e+00
</event>
<event>
 5      7 +2.9511900e-02 9.11880000e+01 7.81616400e-03 1.18400000e-01
      -11 -1    0    0    0    0 +0.0000000000e+00 +0.0000000000e+00 +4.5593999997e+01 4.5594000000e+01 5.1100000000e-04 0.0000e+00 -1.0000e+00
       11 -1    0    0    0    0 -0.0000000000e+00 -0.0000000000e+00 -4.5593999997e+01 4.5594000000e+01 5.1100000000e-04 0.0000e+00 1.0000e+00
       23  2    1    2    0    0 +0.0000000000e+00 +0.0000000000e+00 +0.0000000000e+00 9.1188000000e+01 9.1188000000e+01 2.7191e-13 0.0000e+00
  9900012  1    3    3    0    0 -2.0110132191e+01 +2.3680573989e+01 -3.0305713532e+01 4.7787271044e+01 2.0000000000e+01 7.7834e-02 1.0000e+00
       12  1    3    3    0    0 +2.0110132191e+01 -2.3680573989e+01 +3.0305713532e+01 4.3400728956e+01 0.0000000000e+00 0.0000e+00 -1.0000e+00
</event>
<event>
 5      6 +2.9511900e-02 9.11880000e+01 7.81616400e-03 1.18400000e-01
      -11 -1    0    0    0    0 +0.0000000000e+00 +0.0000000000e+00 +4.5593999997e+01 4.5594000000e+01 5.1100000000e-04 0.0000e+00 1.0000e+00
       11 -1    0    0    0    0 -0.0000000000e+00 -0.0000000000e+00 -4.5593999997e+01 4.5594000000e+01 5.1100000000e-04 0.0000e+00 -1.0000e+00
       23  2    1    2    0    0 +0.0000000000e+00 +0.0000000000e+00 +0.0000000000e+00 9.1188000000e+01 9.1188000000e+01 2.6491e-15 0.0000e+00
  9900012  1    3    3    0    0 -4.6275791445e+00 +1.5049411613e+01 -4.0444084799e+01 4.7787271044e+01 2.0000000000e+01 1.8463e-03 -1.0000e+00
      -12  1    3    3    0    0 +4.6275791445e+00 -1.5049411613e+01 +4.0444084799e+01 4.3400728956e+01 0.0000000000e+00 0.0000e+00 1.0000e+00
</event>
<event>
 5      5 +2.9511900e-02 9.11880000e+01 7.81616400e-03 1.18400000e-01
      -11 -1    0    0    0    0 +0.0000000000e+00 +0.0000000000e+00 +4.5593999997e+01 4.5594000000e+01 5.1100000000e-04 0.0000e+00 1.0000e+00
       11 -1    0    0    0    0 -0.0000000000e+00 -0.0000000000e+00 -4.5593999997e+01 4.5594000000e+01 5.1100000000e-04 0.0000e+00 -1.0000e+00
       23  2    1    2    0    0 +0.0000000000e+00 +0.0000000000e+00 +0.0000000000e+00 9.1188000000e+01 9.1188000000e+01 2.5077e-14 0.0000e+00
  9900012  1    3    3    0    0 -4.6202454312e+00 +3.7440928441e+01 -2.1458179875e+01 4.7787271044e+01 2.0000000000e+01 1.0362e-01 1.0000e+00
       12  1    3    3    0    0 +4.6202454312e+00 -3.7440928441e+01 +2.1458179875e+01 4.3400728956e+01 0.0000000000e+00 0.0000e+00 -1.0000e+00
</event>
<event>
 5      1 +2.9511900e-02 9.11880000e+01 7.81616400e-03 1.18400000e-01
      -11 -1    0    0    0    0 +0.0000000000e+00 +0.0000000000e+00 +4.5593999997e+01 4.5594000000e+01 5.1100000000e-04 0.0000e+00 -1.0000e+00
       11 -1    0    0    0    0 -0.0000000000e+00 -0.0000000000e+00 -4.5593999997e+01 4.5594000000e+01 5.1100000000e-04 0.0000e+00 1.0000e+00
       23  2    1    2    0    0 +0.0000000000e+00 +0.0000000000e+00 +0.0000000000e+00 9.1188000000e+01 9.1188000000e+01 1.0227e-14 0.0000e+00
  9900012  1    3    3    0    0 +1.7345970806e+01 +3.4516751775e+01 +1.9782174237e+01 4.7787271044e+01 2.0000000000e+01 1.1962e-01 1.0000e+00
       12  1    3    3    0    0 -1.7345970806e+01 -3.4516751775e+01 -1.9782174237e+01 4.3400728956e+01 0.0000000000e+00 0.0000e+00 -1.0000e+00
</event>
<event>
 5      7 +2.9511900e-02 9.11880000e+01 7.81616400e-03 1.18400000e-01
      -11 -1    0    0    0    0 +0.0000000000e+00 +0.0000000000e+00 +4.5593999997e+01 4.5594000000e+01 5.1100000000e-04 0.0000e+00 1.0000e+00
       11 -1    0    0    0    0 -0.0000000000e+00 -0.0000000000e+00 -4.5593999997e+01 4.5594000000e+01 5.1100000000e-04 0.0000e+00 -1.0000e+00
       23  2    1    2    0    0 +0.0000000000e+00 +0.0000000000e+00 +0.0000000000e+00 9.1188000000e+01 9.1188000000e+01 1.2936e-13 0.0000e+00
  9900012  1    3    3    0    0 -3.5976874633e+01 -1.2515327031e+01 +2.0800345066e+01 4.7787271044e+01 2.0000000000e+01 1.3859e-02 1.0000e+00
       12  1    3    3    0    0 +3.5976874633e+01 +1.2515327031e+01 -2.0800345066e+01 4.3400728956e+01 0.0000000000e+00 0.0000e+00 -1.0000e+00
</event>
<event>
 5      2 +2.9511900e-02 9.11880000e+01 7.81616400e-03 1.18400000e-01
      -11 -1    0    0    0    0 +0.0000000000e+00 +0.0000000000e+00 +4.5593999997e+01 4.5594000000e+01 5.1100000000e-04 0.0000e+00 -1.0000e+00
       11 -1    0    0    0    0 -0.0000000000e+00 -0.0000000000e+00 -4.5593999997e+01 4.5594000000e+01 5.1100000000e-04 0.0000e+00 1.0000e+00
       23  2    1    2    0    0 +0.0000000000e+00 +0.0000000000e+00 +0.0000000000e+00 9.1188000000e+01 9.1188000000e+01 3.8921e-14 0.0000e+00
  9900012  1    3    3    0    0 -2.3743310769e+00 -1.2892651894e+00 +4.3316551353e+01 4.7787271044e+01 2.0000000000e+01 7.4197e-02 -1.0000e+00
      -12  1    3    3    0    0 +2.3743310769e+00 +1.2892651894e+00 -4.3316551353e+01 4.3400728956e+01 0.0000000000e+00 0.0000e+00 1.0000e+00
</event>
<event>
 5      6 +2.9511900e-02 9.11880000e+01 7.81616400e-03 1.18400000e-01
      -11 -1    0    0    0    0 +0.0000000000e+00 +0.0000000000e+00 +4.5593999997e+01 4.5594000000e+01 5.1100000000e-04 0.0000e+00 1.0000e+00
       11 -1    0    0    0    0 -0.0000000000e+00 -0.0000000000e+00 -4.5593999997e+01 4.5594000000e+01 5.1100000000e-04 0.0000e+00 -1.0000e+00
       23  2    1    2    0    0 +0.0000000000e+00 +0.0000000000e+00 +0.0000000000e+00 9.1188000000e+01 9.1188000000e+01 2.4243e-13 0.0000e+00
  9900012  1    3    3    0    0 +1.4397198369e+01 -8.8896803426e+00 -3.9966455139e+01 4.7787271044e+01 2.0000000000e+01 2.5386e-01 -1.0000e+00
      -12  1    3    3    0    0 -1.4397198369e+01 +8.8896803426e+00 +3.9966455139e+01 4.3400728956e+01 0.0000000000e+00 0.0000e+00 1.0000e+00
</event>
<event>
 5      1 +2.9511900e-02 9.11880000e+01 7.81616400e-03 1.18400000e-01
      -11 -1    0    0    0    0 +0.0000000000e+00 +0.0000000000e+00 +4.5593999997e+01 4.5594000000e+01 5.1100000000e-04 0.0000e+00 -1.0000e+00
       11 -1    0    0    0    0 -0.0000000000e+00 -0.0000000000e+00 -4.5593999997e+01 4.5594000000e+01 5.1100000000e-04 0.0000e+00 1.0000e+00
       23  2    1    2    0    0 +0.0000000000e+00 +0.0000000000e+00 +0.0000000000e+00 9.1188000000e+01 9.1188000000e+01 4.7809e-15 0.0000e+00
  9900012  1    3    3    0    0 +3.8295782522e+01 -2.0418114186e+01 -3.9614139058e-01 4.7787271044e+01 2.0000000000e+01 1.2148e-02 1.0000e+00
       12  1    3    3    0    0 -3.8295782522e+01 +2.0418114186e+01 +3.9614139058e-01 4.3400728956e+01 0.0000000000e+00 0.0000e+00 -1.0000e+00
</event>
<event>
 5      7 +2.9511900e-02 9.11880000e+01 7.81616400e-03 1.18400000e-01
      -11 -1    0    0    0    0 +0.0000000000e+00 +0.0000000000e+00 +4.5593999997e+01 4.5594000000e+01 5.1100000000e-04 0.0000e+00 1.0000e+00
       11 -1    0    0    0    0 -0.0000000000e+00 -0.0000000000e+00 -4.5593999997e+01 4.5594000000e+01 5.1100000000e-04 0.0000e+00 -1.0000e+00
       23  2    1    2    0    0 +0.0000000000e+00 +0.0000000000e+00 +0.0000000000e+00 9.1188000000e+01 9.1188000000e+01 2.8869e-14 0.0000e+00
  9900012  1    3    3    0    0 +2.5002450842e+01 -1.8943189202e+01 +2.9994271263e+01 4.7787271044e+01 2.0000000000e+01 1.4517e-02 1.0000e+00
       12  1    3    3    0    0 -2.5002450842e+01 +1.8943189202e+01 -2.9994271263e+01 4.3400728956e+01 0.0000000000e+00 0.0000e+00 -1.0000e+00
</event>
<event>
 5      5 +2.9511900e-02 9.11880000e+01 7.81616400e-03 1.18400000e-01
      -11 -1    0    0    0    0 +0.0000000000e+00 +0.0000000000e+00 +4.5593999997e+01 4.5594000000e+01 5.1100000000e-04 0.0000e+00 -1.0000e+00
       11 -1    0    0    0    0 -0.0000000000e+00 -0.0000000000e+00 -4.5593999997e+01 4.5594000000e+01 5.1100000000e-04 0.0000e+00 1.0000e+00
       23  2    1    2    0    0 +0.0000000000e+00 +0.0000000000e+00 +0.0000000000e+00 9.1188000000e+01 9.1188000000e+01 2.0189e-14 0.0000e+00
  9900012  1    3    3    0    0 +1.0202201196e+01 -4.1584785185e+01 -7.0883006272e+00 4.7787271044e+01 2.0000000000e+01 1.9950e-01 1.0000e+00
       12  1    3    3    0    0 -1.0202201196e+01 +4.1584785185e+01 +7.0883006272e+00 4.3400728956e+01 0.0000000000e+00 0.0000e+00 -1.0000e+00
</event>
<event>
 5      4 +2.9511900e-02 9.11880000e+01 7.81616400e-03 1.18400000e-01
      -11 -1    0    0    0    0 +0.0000000000e+00 +0.0000000000e+00 +4.5593999997e+01 4.5594000000e+01 5.1100000000e-04 0.0000e+00 -1.0000e+00
       11 -1    0    0    0    0 -0.0000000000e+00 -0.0000000000e+00 -4.5593999997e+01 4.5594000000e+01 5.1100000000e-04 0.0000e+00 1.0000e+00
       23  2    1    2    0    0 +0.0000000000e+00 +0.0000000000e+00 +0.0000000000e+00 9.1188000000e+01 9.1188000000e+01 1.2152e-14 0.0000e+00
  9900012  1    3    3    0    0 -2.1852980951e+00 -1.9092717559e+01 +3.8914211830e+01 4.7787271044e+01 2.0000000000e+01 9.8749e-03 -1.0000e+00
      -12  1    3    3    0    0 +2.1852980951e+00 +1.9092717559e+01 -3.8914211830e+01 4.3400728956e+01 0.0000000000e+00 0.0000e+00 1.0000e+00
</event>
<event>
 5      6 +2.9511900e-02 9.11880000e+01 7.81616400e-03 1.18400000e-01
      -11 -1    0    0    0    0 +0.0000000000e+00 +0.0000000000e+00 +4.5593999997e+01 4.5594000000e+01 5.1100000000e-04 0.0000e+00 1.0000e+00
       11 -1    0    0    0    0 -0.0000000000e+00 -0.0000000000e+00 -4.5593999997e+01 4.5594000000e+01 5.1100000000e-04 0.0000e+00 -1.0000e+00
       23  2    1    2    0    0 +0.0000000000e+00 +0.0000000000e+00 +0.0000000000e+00 9.1188000000e+01 9.1188000000e+01 1.8594e-14 0.0000e+00
  9900012  1    3    3    0    0 +1.2289501783e+01 +3.4331789625e+01 -2.3535497465e+01 4.7787271044e+01 2.0000000000e+01 3.2114e-01 -1.0000e+00
      -12  1    3    3    0    0 -1.2289501783e+01 -3.4331789625e+01 +2.3535497465e+01 4.3400728956e+01 0.0000000000e+00 0.0000e+00 1.0000e+00
</event>
<event>
 5      4 +2.9511900e-02 9.11880000e+01 7.81616400e-03 1.18400000e-01
      -11 -1    0    0    0    0 +0.0000000000e+00 +0.0000000000e+00 +4.5593999997e+01 4.5594000000e+01 5.1100000000e-04 0.0000e+00 1.0000e+00
       11 -1    0    0    0    0 -0.0000000000e+00 -0.0000000000e+00 -4.5593999997e+01 4.5594000000e+01 5.1100000000e-04 0.0000e+00 -1.0000e+00
       23  2    1    2    0    0 +0.0000000000e+00 +0.0000000000e+00 +0.0000000000e+00 9.1188000000e+01 9.1188000000e+01 7.8479e-15 0.0000e+00
  9900012  1    3    3    0    0 -2.7778019663e+01 +1.4746538989e+01 -2.9908936546e+01 4.7787271044e+01 2.0000000000e+01 2.5859e-01 -1.0000e+00
      -12  1    3    3    0    0 +2.7778019663e+01 -1.4746538989e+01 +2.9908936546e+01 4.3400728956e+01 0.0000000000e+00 0.0000e+00 1.0000e+00
</event>
<event>
 5      7 +2.9511900e-02 9.11880000e+01 7.81616400e-03 1.18400000e-01
      -11 -1    0    0    0    0 +0.0000000000e+00 +0.0000000000e+00 +4.5593999997e+01 4.5594000000e+01 5.1100000000e-04 0.0000e+00 1.0000e+00
       11 -1    0    0    0    0 -0.0000000000e+00 -0.0000000000e+00 -4.5593999997e+01 4.5594000000e+01 5.1100000000e-04 0.0000e+00 -1.0000e+00
       23  2    1    2    0    0 +0.0000000000e+00 +0.0000000000e+00 +0.0000000000e+00 9.1188000000e+01 9.1188000000e+01 3.0621e-14 0.0000e+00
  9900012  1    3    3    0    0 +1.5912050452e+01 +3.4463303945e+01 +2.1040689283e+01 4.7787271044e+01 2.0000000000e+01 2.4224e-02 1.0000e+00
       12  1    3    3    0    0 -1.5912050452e+01 -3.4463303945e+01 -2.1040689283e+01 4.3400728956e+01 0.0000000000e+00 0.0000e+00 -1.0000e+00
</event>
<event>
 5      7 +2.9511900e-02 9.11880000e+01 7.81616400e-03 1.18400000e-01
      -11 -1    0    0    0    0 +0.0000000000e+00 +0.0000000000e+00 +4.5593999997e+01 4.5594000000e+01 5.1100000000e-04 0.0000e+00 1.0000e+00
       11 -1    0    0    0    0 -0.0000000000e+00 -0.0000000000e+00 -4.5593999997e+01 4.5594000000e+01 5.1100000000e-04 0.0000e+00 -1.0000e+00
       23  2    1    2    0    0 +0.0000000000e+00 +0.0000000000e+00 +0.0000000000e+00 9.1188000000e+01 9.1188000000e+01 6.5381e-14 0.0000e+00
  9900012  1    3    3    0    0 +1.4225436648e+01 -4.0643521959e+01 -5.4188881518e+00 4.7787271044e+01 2.0000000000e+01 1.1562e-02 1.0000e+00
       12  1    3    3    0    0 -1.4225436648e+01 +4.0643521959e+01 +5.4188881518e+00 4.3400728956e+01 0.0000000000e+00 0.0000e+00 -1.0000e+00
</event>
<event>
 5      4 +2.9511900e-02 9.11880000e+01 7.81616400e-03 1.18400000e-01
      -11 -1    0    0    0    0 +0.0000000000e+00 +0.0000000000e+00 +4.5593999997e+01 4.5594000000e+01 5.1100000000e-04 0.0000e+00 -1.0000e+00
       11 -1    0    0    0    0 -0.0000000000e+00 -0.0000000000e+00 -4.5593999997e+01 4.5594000000e+01 5.1100000000e-04 0.0000e+00 1.0000e+00
       23  2    1    2    0    0 +0.0000000000e+00 +0.0000000000e+00 +0.0000000000e+00 9.1188000000e+01 9.1188000000e+01 6.4684e-15 0.0000e+00
  9900012  1    3    3    0    0 +1.3473076484e+00 -4.2996794174e+01 +5.7518455080e+00 4.7787271044e+01 2.0000000000e+01 2.6669e-02 -1.0000e+00
      -12  1    3    3    0    0 -1.3473076484e+00 +4.2996794174e+01 -5.7518455080e+00 4.3400728956e+01 0.0000000000e+00 0.0000e+00 1.0000e+00
</event>
<event>
 5      7 +2.9511900e-02 9.11880000e+01 7.81616400e-03 1.18400000e-01
      -11 -1    0    0    0    0 +0.0000000000e+00 +0.0000000000e+00 +4.5593999997e+01 4.5594000000e+01 5.1100000000e-04 0.0000e+00 -1.0000e+00
       11 -1    0    0    0    0 -0.0000000000e+00 -0.0000000000e+00 -4.5593999997e+01 4.5594000000e+01 5.1100000000e-04 0.0000e+00 1.0000e+00
       23  2    1    2    0    0 +0.0000000000e+00 +0.0000000000e+00 +0.0000000000e+00 9.1188000000e+01 9.1188000000e+01 2.8615e-15 0.0000e+00
  9900012  1    3    3    0    0 -3.4670353350e+01 +2.5273949967e+01 +6.5434949025e+00 4.7787271044e+01 2.0000000000e+01 1.4329e-03 1.0000e+00
       12  1    3    3    0    0 +3.4670353350e+01 -2.5273949967e+01 -6.5434949025e+00 4.3400728956e+01 0.0000000000e+00 0.0000e+00 -1.0000e+00
</event>
<event>
 5      6 +2.9511900e-02 9.11880000e+01 7.81616400e-03 1.18400000e-01
      -11 -1    0    0    0    0 +0.0000000000e+00 +0.0000000000e+00 +4.5593999997e+01 4.5594000000e+01 5.1100000000e-04 0.0000e+00 1.0000e+00
       11 -1    0    0    0    0 -0.0000000000e+00 -0.0000000000e+00 -4.5593999997e+01 4.5594000000e+01 5.1100000000e-04 0.0000e+00 -1.0000e+00
       23  2    1    2    0    0 +0.0000000000e+00 +0.0000000000e+00 +0.0000000000e+00 9.1188000000e+01 9.1188000000e+01 6.0921e-14 0.0000e+00
  9900012  1    3    3    0    0 +3.6592340283e+01 -1.0330087395e+01 -2.0926375723e+01 4.7787271044e+01 2.0000000000e+01 1.6862e-01 -1.0000e+00
      -12  1    3    3    0    0 -3.6592340283e+01 +1.0330087395e+01 +2.0926375723e+01 4.3400728956e+01 0.0000000000e+00 0.0000e+00 1.0000e+00
</event>
<event>
 5      3 +2.9511900e-02 9.11880000e+01 7.81616400e-03 1.18400000e-01
      -11 -1    0    0    0    0 +0.0000000000e+00 +0.0000000000e+00 +4.5593999997e+01 4.5594000000e+01 5.1100000000e-04 0.0000e+00 1.0000e+00
       11 -1    0    0    0    0 -0.0000000000e+00 -0.0000000000e+00 -4.5593999997e+01 4.5594000000e+01 5.1100000000e-04 0.0000e+00 -1.0000e+00
       23  2    1    2    0    0 +0.0000000000e+00 +0.0000000000e+00 +0.0000000000e+00 9.1188000000e+01 9.1188000000e+01 1.7181e-16 0.0000e+00
  9900012  1    3    3    0    0 +2.9998720714e+01 +5.5960025823e+00 +3.0860732080e+01 4.7787271044e+01 2.0000000000e+01 1.7959e-01 1.0000e+00
       12  1    3    3    0    0 -2.9998720714e+01 -5.5960025823e+00 -3.0860732080e+01 4.3400728956e+01 0.0000000000e+00 0.0000e+00 -1.0000e+00
</event>
<event>
 5      3 +2.9511900e-02 9.11880000e+01 7.81616400e-03 1.18400000e-01
      -11 -1    0    0    0    0 +0.0000000000e+00 +0.0000000000e+00 +4.5593999997e+01 4.5594000000e+01 5.1100000000e-04 0.0000e+00 -1.0000e+00
       11 -1    0    0    0    0 -0.0000000000e+00 -0.0000000000e+00 -4.5593999997e+01 4.5594000000e+01 5.1100000000e-04 0.0000e+00 1.0000e+00
       23  2    1    2    0    0 +0.0000000000e+00 +0.0000000000e+00 +0.0000000000e+00 9.1188000000e+01 9.1188000000e+01 1.5727e-14 0.0000e+00
  9900012  1    3    3    0    0 -4.4822923166e+00 -2.6169410068e+01 -3.4332117706e+01 4.7787271044e+01 2.0000000000e+01 9.5037e-02 1.0000e+00
       12  1    3    3    0    0 +4.4822923166e+00 +2.6169410068e+01 +3.4332117706e+01 4.3400728956e+01 0.0000000000e+00 0.0000e+00 -1.0000e+00
</event>
<event>
 5      3 +2.9511900e-02 9.11880000e+01 7.81616400e-03 1.18400000e-01
      -11 -1    0    0    0    0 +0.0000000000e+00 +0.0000000000e+00 +4.5593999997e+01 4.5594000000e+01 5.1100000000e-04 0.0000e+00 -1.0000e+00
       11 -1    0    0    0    0 -0.0000000000e+00 -0.0000000000e+00 -4.5593999997e+01 4.5594000000e+01 5.1100000000e-04 0.0000e+00 1.0000e+00
       23  2    1    2    0    0 +0.0000000000e+00 +0.0000000000e+00 +0.0000000000e+00 9.1188000000e+01 9.1188000000e+01 2.2154e-13 0.0000e+00
  9900012  1    3    3    0    0 -4.3166201660e+01 +8.8374071886e-01 -4.4182927066e+00 4.7787271044e+01 2.0000000000e+01 2.1253e-01 1.0000e+00
       12  1    3    3    0    0 +4.3166201660e+01 -8.8374071886e-01 +4.4182927066e+00 4.3400728956e+01 0.0000000000e+00 0.0000e+00 -1.0000e+00
</event>
<event>
 5      1 +2.9511900e-02 9.11880000e+01 7.81616400e-03 1.18400000e-01
      -11 -1    0    0    0    0 +0.0000000000e+00 +0.0000000000e+00 +4.5593999997e+01 4.5594000000e+01 5.1100000000e-04 0.0000e+00 -1.0000e+00
       11 -1    0    0    0    0 -0.0000000000e+00 -0.0000000000e+00 -4.5593999997e+01 4.5594000000e+01 5.1100000000e-04 0.0000e+00 1.0000e+00
       23  2    1    2    0    0 +0.0000000000e+00 +0.0000000000e+00 +0.0000000000e+00 9.1188000000e+01 9.1188000000e+01 2.1071e-15 0.0000e+00
  9900012  1    3    3    0    0 -2.1011867917e+01 +2.8262944767e+01 -2.5363963287e+01 4.7787271044e+01 2.0000000000e+01 6.2769e-02 1.0000e+00
       12  1    3    3    0    0 +2.1011867917e+01 -2.8262944767e+01 +2.5363963287e+01 4.3400728956e+01 0.0000000000e+00 0.0000e+00 -1.0000e+00
</event>
<event>
 5      7 +2.9511900e-02 9.11880000e+01 7.81616400e-03 1.18400000e-01
      -11 -1    0    0    0    0 +0.0000000000e+00 +0.0000000000e+00 +4.5593999997e+01 4.5594000000e+01 5.1100000000e-04 0.0000e+00 1.0000e+00
       11 -1    0    0    0    0 -0.0000000000e+00 -0.0000000000e+00 -4.5593999997e+01 4.5594000000e+01 5.1100000000e-04 0.0000e+00 -1.0000e+00
       23  2    1    2    0    0 +0.0000000000e+00 +0.0000000000e+00 +0.0000000000e+00 9.1188000000e+01 9.1188000000e+01 2.7560e-14 0.0000e+00
  9900012  1    3    3    0    0 -2.6758498429e+01 +8.9528300746e+00 +3.2976550295e+01 4.7787271044e+01 2.0000000000e+01 1.2391e-01 1.0000e+00
       12  1    3    3    0    0 +2.6758498429e+01 -8.9528300746e+00 -3.2976550295e+01 4.3400728956e+01 0.0000000000e+00 0.0000e+00 -1.0000e+00
</event>
<event>
 5      3 +2.9511900e-02 9.11880000e+01 7.81616400e-03 1.18400000e-01
      -11 -1    0    0    0    0 +0.0000000000e+00 +0.0000000000e+00 +4.5593999997e+01 4.5594000000e+01 5.1100000000e-04 0.0000e+00 1.0000e+00
       11 -1    0    0    0    0 -0.0000000000e+00 -0.0000000000e+00 -4.5593999997e+01 4.5594000000e+01 5.1100000000e-04 0.0000e+00 -1.0000e+00
       23  2    1    2    0    0 +0.0000000000e+00 +0.0000000000e+00 +0.0000000000e+00 9.1188000000e+01 9.1188000000e+01 6.1219e-14 0.0000e+00
  9900012  1    3    3    0    0 +8.1538458551e-02 -1.1897709879e+01 +4.1738005762e+01 4.7787271044e+01 2.0000000000e+01 1.7575e-01 1.0000e+00
       12  1    3    3    0    0 -8.1538458551e-02 +1.1897709879e+01 -4.1738005762e+01 4.3400728956e+01 0.0000000000e+00 0.0000e+00 -1.0000e+00
</event>
<event>
 5      6 +2.9511900e-02 9.11880000e+01 7.81616400e-03 1.18400000e-01
      -11 -1    0    0    0    0 +0.0000000000e+00 +0.0000000000e+00 +4.5593999997e+01 4.5594000000e+01 5.1100000000e-04 0.0000e+00 -1.0000e+00
       11 -1    0    0    0    0 -0.0000000000e+00 -0.0000000000e+00 -4.5593999997e+01 4.5594000000e+01 5.1100000000e-04 0.0000e+00 1.0000e+00
       23  2    1    2    0    0 +0.0000000000e+00 +0.0000000000e+00 +0.0000000000e+00 9.1188000000e+01 9.1188000000e+01 1.2401e-14 0.0000e+00
  9900012  1    3    3    0    0 -1.5853825699e+01 +9.0247134835e+00 +3.9380630151e+01 4.7787271044e+01 2.0000000000e+01 8.8699e-03 -1.0000e+00
      -12  1    3    3    0    0 +1.5853825699e+01 -9.0247134835e+00 -3.9380630151e+01 4.3400728956e+01 0.0000000000e+00 0.0000e+00 1.0000e+00
</event>
<event>
 5      5 +2.9511900e-02 9.11880000e+01 7.81616400e-03 1.18400000e-01
      -11 -1    0    0    0    0 +0.0000000000e+00 +0.0000000000e+00 +4.5593999997e+01 4.5594000000e+01 5.1100000000e-04 0.0000e+00 -1.0000e+00
       11 -1    0    0    0    0 -0.0000000000e+00 -0.0000000000e+00 -4.5593999997e+01 4.5594000000e+01 5.1100000000e-04 0.0000e+00 1.0000e+00
       23  2    1    2    0    0 +0.0000000000e+00 +0.0000000000e+00 +0.0000000000e+00 9.1188000000e+01 9.1188000000e+01 8.9420e-14 0.0000e+00
  9900012  1    3    3    0    0 +7.8417316244e+00 +4.2682669831e+01 -5.6587550589e-01 4.7787271044e+01 2.0000000000e+01 8.5836e-02 1.0000e+00
       12  1    3    3    0    0 -7.8417316244e+00 -4.2682669831e+01 +5.6587550589e-01 4.3400728956e+01 0.0000000000e+00 0.0000e+00 -1.0000e+00
</event>
<event>
 5      2 +2.9511900e-02 9.11880000e+01 7.81616400e-03 1.18400000e-01
      -11 -1    0    0    0    0 +0.0000000000e+00 +0.0000000000e+00 +4.5593999997e+01 4.5594000000e+01 5.1100000000e-04 0.0000e+00 1.0000e+00
       11 -1    0    0    0    0 -0.0000000000e+00 -0.0000000000e+00 -4.5593999997e+01 4.5594000000e+01 5.1100000000e-04 0.0000e+00 -1.0000e+00
       23  2    1    2    0    0 +0.0000000000e+00 +0.0000000000e+00 +0.0000000000e+00 9.1188000000e+01 9.1188000000e+01 2.3081e-16 0.0000e+00
  9900012  1    3    3    0    0 -3.0082941996e+01 +1.7631568084e+01 -2.5841201242e+01 4.7787271044e+01 2.0000000000e+01 1.0329e-01 -1.0000e+00
      -12  1    3    3    0    0 +3.0082941996e+01 -1.7631568084e+01 +2.5841201242e+01 4.3400728956e+01 0.0000000000e+00 0.0000e+00 1.0000e+00
</event>
<event>
 5      4 +2.9511900e-02 9.11880000e+01 7.81616400e-03 1.18400000e-01
      -11 -1    0    0    0    0 +0.0000000000e+00 +0.0000000000e+00 +4.5593999997e+01 4.5594000000e+01 5.1100000000e-04 0.0000e+00 1.0000e+00
       11 -1    0    0    0    0 -0.0000000000e+00 -0.0000000000e+00 -4.5593999997e+01 4.5594000000e+01 5.1100000000e-04 0.0000e+00 -1.0000e+00
       23  2    1    2    0    0 +0.0000000000e+00 +0.0000000000e+00 +0.0000000000e+00 9.1188000000e+01 9.1188000000e+01 1.3747e-13 0.0000e+00
  9900012  1    3    3    0    0 +1.0509414480e+01 +2.4339670630e+01 -3.4362129078e+01 4.7787271044e+01 2.0000000000e+01 4.7664e-02 -1.0000e+00
      -12  1    3    3    0    0 -1.0509414480e+01 -2.4339670630e+01 +3.4362129078e+01 4.3400728956e+01 0.0000000000e+00 0.0000e+00 1.0000e+00
</event>
<event>
 5      6 +2.9511900e-02 9.11880000e+01 7.81616400e-03 1.18400000e-01
      -11 -1    0    0    0    0 +0.0000000000e+00 +0.0000000000e+00 +4.5593999997e+01 4.5594000000e+01 5.1100000000e-04 0.0000e+00 -1.0000e+00
       11 -1    0    0    0    0 -0.0000000000e+00 -0.0000000000e+00 -4.5593999997e+01 4.5594000000e+01 5.1100000000e-04 0.0000e+00 1.0000e+00
       23  2    1    2    0    0 +0.0000000000e+00 +0.0000000000e+00 +0.0000000000e+00 9.1188000000e+01 9.1188000000e+01 5.3690e-14 0.0000e+00
  9900012  1    3    3    0    0 +3.6714572054e+01 +1.6268048135e+01 -1.6462505358e+01 4.7787271044e+01 2.0000000000e+01 1.8752e-01 -1.0000e+00
      -12  1    3    3    0    0 -3.6714572054e+01 -1.6268048135e+01 +1.6462505358e+01 4.3400728956e+01 0.0000000000e+00 0.0000e+00 1.0000e+00
</event>
<event>
 5      1 +2.9511900e-02 9.11880000e+01 7.81616400e-03 1.18400000e-01
      -11 -1    0    0    0    0 +0.0000000000e+00 +0.0000000000e+00 +4.5593999997e+01 4.5594000000e+01 5.1100000000e-04 0.0000e+00 1.0000e+00
       11 -1    0    0    0    0 -0.0000000000e+00 -0.0000000000e+00 -4.5593999997e+01 4.5594000000e+01 5.1100000000e-04 0.0000e+00 -1.0000e+00
       23  2    1    2    0    0 +0.0000000000e+00 +0.0000000000e+00 +0.0000000000e+00 9.1188000000e+01 9.1188000000e+01 3.1908e-14 0.0000e+00
  9900012  1    3    3    0    0 +4.0730355305e+01 -1.4731634776e+01 -2.7641214539e+00 4.7787271044e+01 2.0000000000e+01 3.3806e-01 1.0000e+00
       12  1    3    3    0    0 -4.0730355305e+01 +1.4731634776e+01 +2.7641214539e+00 4.3400728956e+01 0.0000000000e+00 0.0000e+00 -1.0000e+00
</event>
<event>
 5      3 +2.9511900e-02 9.11880000e+01 7.81616400e-03 1.18400000e-01
      -11 -1    0    0    0    0 +0.0000000000e+00 +0.0000000000e+00 +4.5593999997e+01 4.5594000000e+01 5.1100000000e-04 0.0000e+00 1.0000e+00
       11 -1    0    0    0    0 -0.0000000000e+00 -0.0000000000e+00 -4.5593999997e+01 4.5594000000e+01 5.1100000000e-04 0.0000e+00 -1.0000e+00
       23  2    1    2    0    0 +0.0000000000e+00 +0.0000000000e+00 +0.0000000000e+00 9.1188000000e+01 9.1188000000e+01 2.3691e-14 0.0000e+00
  9900012  1    3    3    0    0 +3.7135344461e+01 -1.9199064656e+01 +1.1661277031e+01 4.7787271044e+01 2.0000000000e+01 4.6689e-02 1.0000e+00
       12  1    3    3    0    0 -3.7135344461e+01 +1.9199064656e+01 -1.1661277031e+01 4.3400728956e+01 0.0000000000e+00 0.0000e+00 -1.0000e+00
</event>
<event>
 5      2 +2.9511900e-02 9.11880000e+01 7.81616400e-03 1.18400000e-01
      -11 -1    0    0    0    0 +0.0000000000e+00 +0.0000000000e+00 +4.5593999997e+01 4.5594000000e+01 5.1100000000e-04 0.0000e+00 1.0000e+00
       11 -1    0    0    0    0 -0.0000000000e+00 -0.0000000000e+00 -4.5593999997e+01 4.5594000000e+01 5.1100000000e-04 0.0000e+00 -1.0000e+00
       23  2    1    2    0    0 +0.0000000000e+00 +0.0000000000e+00 +0.0000000000e+00 9.1188000000e+01 9.1188000000e+01 2.7828e-13 0.0000e+00
  9900012  1    3    3    0    0 -1.3684810263e+00 -3.6225018138e+01 +2.3864169678e+01 4.7787271044e+01 2.0000000000e+01 1.9900e-01 -1.0000e+00
      -12  1    3    3    0    0 +1.3684810263e+00 +3.6225018138e+01 -2.3864169678e+01 4.3400728956e+01 0.0000000000e+00 0.0000e+00 1.0000e+00
</event>
<event>
 5      6 +2.9511900e-02 9.11880000e+01 7.81616400e-03 1.18400000e-01
      -11 -1    0    0    0    0 +0.0000000000e+00 +0.0000000000e+00 +4.5593999997e+01 4.5594000000e+01 5.1100000000e-04 0.0000e+00 1.0000e+00
       11 -1    0    0    0    0 -0.0000000000e+00 -0.0000000000e+00 -4.5593999997e+01 4.5594000000e+01 5.1100000000e-04 0.0000e+00 -1.0000e+00
       23  2    1    2    0    0 +0.0000000000e+00 +0.0000000000e+00 +0.0000000000e+00 9.1188000000e+01 9.1188000000e+01 5.6826e-14 0.0000e+00
  9900012  1    3    3    0    0 +2.2929500944e+01 -9.5643174539e+00 -3.5586304837e+01 4.7787271044e+01 2.0000000000e+01 1.4806e-01 -1.0000e+00
      -12  1    3    3    0    0 -2.2929500944e+01 +9.5643174539e+00 +3.5586304837e+01 4.3400728956e+01 0.0000000000e+00 0.0000e+00 1.0000e+00
</event>
<event>
 5      2 +2.9511900e-02 9.11880000e+01 7.81616400e-03 1.18400000e-01
      -11 -1    0    0    0    0 +0.0000000000e+00 +0.0000000000e+00 +4.5593999997e+01 4.5594000000e+01 5.1100000000e-04 0.0000e+00 -1.0000e+00
       11 -1    0    0    0    0 -0.0000000000e+00 -0.0000000000e+00 -4.5593999997e+01 4.5594000000e+01 5.1100000000e-04 0.0000e+00 1.0000e+00
       23  2    1    2    0    0 +0.0000000000e+00 +0.0000000000e+00 +0.0000000000e+00 9.1188000000e+01 9.1188000000e+01 6.9316e-14 0.0000e+00
  9900012  1    3    3    0    0 +9.1350295604e+00 -3.9950296464e+01 +1.4288048195e+01 4.7787271044e+01 2.0000000000e+01 1.2821e-02 -1.0000e+00
      -12  1    3    3    0    0 -9.1350295604e+00 +3.9950296464e+01 -1.4288048195e+01 4.3400728956e+01 0.0000000000e+00 0.0000e+00 1.0000e+00
</event>
<event>
 5      1 +2.9511900e-02 9.11880000e+01 7.81616400e-03 1.18400000e-01
      -11 -1    0    0    0    0 +0.0000000000e+00 +0.0000000000e+00 +4.5593999997e+01 4.5594000000e+01 5.1100000000e-04 0.0000e+00 1.0000e+00
       11 -1    0    0    0    0 -0.0000000000e+00 -0.0000000000e+00 -4.5593999997e+01 4.5594000000e+01 5.1100000000e-04 0.0000e+00 -1.0000e+00
       23  2    1    2    0    0 +0.0000000000e+00 +0.0000000000e+00 +0.0000000000e+00 9.1188000000e+01 9.1188000000e+01 7.8987e-15 0.0000e+00
  9900012  1    3    3    0    0 -2.5384598012e+01 +2.3294216883e+01 +2.6393652977e+01 4.7787271044e+01 2.0000000000e+01 9.3841e-02 1.0000e+00
       12  1    3    3    0    0 +2.5384598012e+01 -2.3294216883e+01 -2.6393652977e+01 4.3400728956e+01 0.0000000000e+00 0.0000e+00 -1.0000e+00
</event>
<event>
 5      8 +2.9511900e-02 9.11880000e+01 7.81616400e-03 1.18400000e-01
      -11 -1    0    0    0    0 +0.0000000000e+00 +0.0000000000e+00 +4.5593999997e+01 4.5594000000e+01 5.1100000000e-04 0.0000e+00 1.0000e+00
       11 -1    0    0    0    0 -0.0000000000e+00 -0.0000000000e+00 -4.5593999997e+01 4.5594000000e+01 5.1100000000e-04 0.0000e+00 -1.0000e+00
       23  2    1    2    0    0 +0.0000000000e+00 +0.0000000000e+00 +0.0000000000e+00 9.1188000000e+01 9.1188000000e+01 1.2958e-13 0.0000e+00
  9900012  1    3    3    0    0 +1.1665539473e+01 -4.1769274427e+01 +1.6929785968e+00 4.7787271044e+01 2.0000000000e+01 2.9548e-01 -1.0000e+00
      -12  1    3    3    0    0 -1.1665539473e+01 +4.1769274427e+01 -1.6929785968e+00 4.3400728956e+01 0.0000000000e+00 0.0000e+00 1.0000e+00
</event>
<event>
 5      5 +2.9511900e-02 9.11880000e+01 7.81616400e-03 1.18400000e-01
      -11 -1    0    0    0    0 +0.0000000000e+00 +0.0000000000e+00 +4.5593999997e+01 4.5594000000e+01 5.1100000000e-04 0.0000e+00 1.0000e+00
       11 -1    0    0    0    0 -0.0000000000e+00 -0.0000000000e+00 -4.5593999997e+01 4.5594000000e+01 5.1100000000e-04 0.0000e+00 -1.0000e+00
       23  2    1    2    0    0 +0.0000000000e+00 +0.0000000000e+00 +0.0000000000e+00 9.1188000000e+01 9.1188000000e+01 6.9918e-14 0.0000e+00
  9900012  1    3    3    0    0 +1.2172596012e-01 -3.5297877894e+01 +2.5252094424e+01 4.7787271044e+01 2.0000000000e+01 4.5869e-02 1.0000e+00
       12  1    3    3    0    0 -1.2172596012e-01 +3.5297877894e+01 -2.5252094424e+01 4.3400728956e+01 0.0000000000e+00 0.0000e+00 -1.0000e+00
</event>
<event>
 5      3 +2.9511900e-02 9.11880000e+01 7.81616400e-03 1.18400000e-01
      -11 -1    0    0    0    0 +0.0000000000e+00 +0.0000000000e+00 +4.5593999997e+01 4.5594000000e+01 5.1100000000e-04 0.0000e+00 1.0000e+00
       11 -1    0    0    0    0 -0.0000000000e+00 -0.0000000000e+00 -4.5593999997e+01 4.5594000000e+01 5.1100000000e-04 0.0000e+00 -1.0000e+00
       23  2    1    2    0    0 +0.0000000000e+00 +0.0000000000e+00 +0.0000000000e+00 9.1188000000e+01 9.1188000000e+01 3.0145e-14 0.0000e+00
  9900012  1    3    3    0    0 +3.8098631135e+01 +1.1074711433e+01 +1.7591712430e+01 4.7787271044e+01 2.0000000000e+01 7.9318e-02 1.0000e+00
       12  1    3    3    0    0 -3.8098631135e+01 -1.1074711433e+01 -1.7591712430e+01 4.3400728956e+01 0.0000000000e+00 0.0000e+00 -1.0000e+00
</event>
<event>
 5      6 +2.9511900e-02 9.11880000e+01 7.81616400e-03 1.18400000e-01
      -11 -1    0    0    0    0 +0.0000000000e+00 +0.0000000000e+00 +4.5593999997e+01 4.5594000000e+01 5.1100000000e-04 0.0000e+00 1.0000e+00
       11 -1    0    0    0    0 -0.0000000000e+00 -0.0000000000e+00 -4.5593999997e+01 4.5594000000e+01 5.1100000000e-04 0.0000e+00 -1.0000e+00
       23  2    1    2    0    0 +0.0000000000e+00 +0.0000000000e+00 +0.0000000000e+00 9.1188000000e+01 9.1188000000e+01 1.0661e-13 0.0000e+00
  9900012  1    3    3    0    0 -5.2688740331e+00 +2.9795689536e+01 -3.1113969939e+01 4.7787271044e+01 2.0000000000e+01 3.0338e-02 -1.0000e+00
      -12  1    3    3    0    0 +5.2688740331e+00 -2.9795689536e+01 +3.1113969939e+01 4.3400728956e+01 0.0000000000e+00 0.0000e+00 1.0000e+00
</event>
<event>
 5      4 +2.9511900e-02 9.11880000e+01 7.81616400e-03 1.18400000e-01
      -11 -1    0    0    0    0 +0.0000000000e+00 +0.0000000000e+00 +4.5593999997e+01 4.5594000000e+01 5.1100000000e-04 0.0000e+00 1.0000e+00
       11 -1    0    0    0    0 -0.0000000000e+00 -0.0000000000e+00 -4.5593999997e+01 4.5594000000e+01 5.1100000000e-04 0.0000e+00 -1.0000e+00
       23  2    1    2    0    0 +0.0000000000e+00 +0.0000000000e+00 +0.0000000000e+00 9.1188000000e+01 9.1188000000e+01 5.8164e-14 0.0000e+00
  9900012  1    3    3    0    0 +3.7423796595e+01 +1.0972262054e+01 -1.9044479192e+01 4.7787271044e+01 2.0000000000e+01 7.1084e-02 -1.0000e+00
      -12  1    3    3    0    0 -3.7423796595e+01 -1.0972262054e+01 +1.9044479192e+01 4.3400728956e+01 0.0000000000e+00 0.0000e+00 1.0000e+00
</event>
<event>
 5      1 +2.9511900e-02 9.11880000e+01 7.81616400e-03 1.18400000e-01
      -11 -1    0    0    0    0 +0.0000000000e+00 +0.0000000000e+00 +4.5593999997e+01 4.5594000000e+01 5.1100000000e-04 0.0000e+00 1.0000e+00
       11 -1    0    0    0    0 -0.0000000000e+00 -0.0000000000e+00 -4.5593999997e+01 4.5594000000e+01 5.1100000000e-04 0.0000e+00 -1.0000e+00
       23  2    1    2    0    0 +0.0000000000e+00 +0.0000000000e+00 +0.0000000000e+00 9.1188000000e+01 9.1188000000e+01 1.5736e-14 0.0000e+00
  9900012  1    3    3    0    0 -1.7289801091e+00 +1.0560575271e+01 +4.2060767368e+01 4.7787271044e+01 2.0000000000e+01 6.5041e-02 1.0000e+00
       12  1    3    3    0    0 +1.7289801091e+00 -1.0560575271e+01 -4.2060767368e+01 4.3400728956e+01 0.0000000000e+00 0.0000e+00 -1.0000e+00
</event>
<event>
 5      3 +2.9511900e-02 9.11880000e+01 7.81616400e-03 1.18400000e-01
      -11 -1    0    0    0    0 +0.0000000000e+00 +0.0000000000e+00 +4.5593999997e+01 4.5594000000e+01 5.1100000000e-04 0.0000e+00 -1.0000e+00
       11 -1    0    0    0    0 -0.0000000000e+00 -0.0000000000e+00 -4.5593999997e+01 4.5594000000e+01 5.1100000000e-04 0.0000e+00 1.0000e+00
       23  2    1    2    0    0 +0.0000000000e+00 +0.0000000000e+00 +0.0000000000e+00 9.1188000000e+01 9.1188000000e+01 4.5165e-14 0.0000e+00
  9900012  1    3    3    0    0 +2.9106722946e+01 +2.8191720967e+00 -3.2069833519e+01 4.7787271044e+01 2.0000000000e+01 8.6854e-02 1.0000e+00
       12  1    3    3    0    0 -2.9106722946e+01 -2.8191720967e+00 +3.2069833519e+01 4.3400728956e+01 0.0000000000e+00 0.0000e+00 -1.0000e+00
</event>
<event>
 5      3 +2.9511900e-02 9.11880000e+01 7.81616400e-03 1.18400000e-01
      -11 -1    0    0    0    0 +0.0000000000e+00 +0.0000000000e+00 +4.5593999997e+01 4.5594000000e+01 5.1100000000e-04 0.0000e+00 1.0000e+00
       11 -1    0    0    0    0 -0.0000000000e+00 -0.0000000000e+00 -4.5593999997e+01 4.5594000000e+01 5.1100000000e-04 0.0000e+00 -1.0000e+00
       23  2    1    2    0    0 +0.0000000000e+00 +0.0000000000e+00 +0.0000000000e+00 9.1188000000e+01 9.1188000000e+01 2.0331e-14 0.0000e+00
  9900012  1    3    3    0    0 -2.9784958463e+01 -3.1129281425e+01 +5.2390229210e+00 4.7787271044e+01 2.0000000000e+01 2.8774e-01 1.0000e+00
       12  1    3    3    0    0 +2.9784958463e+01 +3.1129281425e+01 -5.2390229210e+00 4.3400728956e+01 0.0000000000e+00 0.0000e+00 -1.0000e+00
</event>
<event>
 5      7 +2.9511900e-02 9.11880000e+01 7.81616400e-03 1.18400000e-01
      -11 -1    0    0    0    0 +0.0000000000e+00 +0.0000000000e+00 +4.5593999997e+01 4.5594000000e+01 5.1100000000e-04 0.0000e+00 1.0000e+00
       11 -1    0    0    0    0 -0.0000000000e+00 -0.0000000000e+00 -4.5593999997e+01 4.5594000000e+01 5.1100000000e-04 0.0000e+00 -1.0000e+00
       23  2    1    2    0    0 +0.0000000000e+00 +0.0000000000e+00 +0.0000000000e+00 9.1188000000e+01 9.1188000000e+01 7.6181e-14 0.0000e+00
  9900012  1    3    3    0    0 -3.4819055811e+01 -2.1045329213e+01 +1.5111278723e+01 4.7787271044e+01 2.0000000000e+01 3.3772e-02 1.0000e+00
       12  1    3    3    0    0 +3.4819055811e+01 +2.1045329213e+01 -1.5111278723e+01 4.3400728956e+01 0.0000000000e+00 0.0000e+00 -1.0000e+00
</event>
<event>
 5      1 +2.9511900e-02 9.11880000e+01 7.81616400e-03 1.18400000e-01
      -11 -1    0    0    0    0 +0.0000000000e+00 +0.0000000000e+00 +4.5593999997e+01 4.5594000000e+01 5.1100000000e-04 0.0000e+00 1.0000e+00
       11 -1    0    0    0    0 -0.0000000000e+00 -0.0000000000e+00 -4.5593999997e+01 4.5594000000e+01 5.1100000000e-04 0.0000e+00 -1.0000e+00
       23  2    1    2    0    0 +0.0000000000e+00 +0.0000000000e+00 +0.0000000000e+00 9.1188000000e+01 9.1188000000e+01 3.5273e-14 0.0000e+00
  9900012  1    3    3    0    0 -4.2705051620e+01 +6.0784993296e-01 +7.7157215146e+00 4.7787271044e+01 2.0000000000e+01 2.5486e-03 1.0000e+00
       12  1    3    3    0    0 +4.2705051620e+01 -6.0784993296e-01 -7.7157215146e+00 4.3400728956e+01 0.0000000000e+00 0.0000e+00 -1.0000e+00
</event>
<event>
 5      4 +2.9511900e-02 9.11880000e+01 7.81616400e-03 1.18400000e-01
      -11 -1    0    0    0    0 +0.0000000000e+00 +0.0000000000e+00 +4.5593999997e+01 4.5594000000e+01 5.1100000000e-04 0.0000e+00 1.0000e+00
       11 -1    0    0    0    0 -0.0000000000e+00 -0.0000000000e+00 -4.5593999997e+01 4.5594000000e+01 5.1100000000e-04 0.0000e+00 -1.0000e+00
       23  2    1    2    0    0 +0.0000000000e+00 +0.0000000000e+00 +0.0000000000e+00 9.1188000000e+01 9.1188000000e+01 7.9557e-14 0.0000e+00
  9900012  1    3    3    0    0 -5.2706439043e+00 +2.1280724449e+01 -3.7456299252e+01 4.7787271044e+01 2.0000000000e+01 7.7879e-02 -1.0000e+00
      -12  1    3    3    0    0 +5.2706439043e+00 -2.1280724449e+01 +3.7456299252e+01 4.3400728956e+01 0.0000000000e+00 0.0000e+00 1.0000e+00
</event>
<event>
 5      2 +2.9511900e-02 9.11880000e+01 7.81616400e-03 1.18400000e-01
      -11 -1    0    0    0    0 +0.0000000000e+00 +0.0000000000e+00 +4.5593999997e+01 4.5594000000e+01 5.1100000000e-04 0.0000e+00 1.0000e+00
       11 -1    0    0    0    0 -0.0000000000e+00 -0.0000000000e+00 -4.5593999997e+01 4.5594000000e+01 5.1100000000e-04 0.0000e+00 -1.0000e+00
       23  2    1    2    0    0 +0.0000000000e+00 +0.0000000000e+00 +0.0000000000e+00 9.1188000000e+01 9.1188000000e+01 3.2135e-15 0.0000e+00
  9900012  1    3    3    0    0 -2.2270472640e+01 -4.4763142828e+00 -3.6981237577e+01 4.7787271044e+01 2.0000000000e+01 3.6243e-01 -1.0000e+00
      -12  1    3    3    0    0 +2.2270472640e+01 +4.4763142828e+00 +3.6981237577e+01 4.3400728956e+01 0.0000000000e+00 0.0000e+00 1.0000e+00
</event>
<event>
 5      4 +2.9511900e-02 9.11880000e+01 7.81616400e-03 1.18400000e-01
      -11 -1    0    0    0    0 +0.0000000000e+00 +0.0000000000e+00 +4.5593999997e+01 4.5594000000e+01 5.1100000000e-04 0.0000e+00 1.0000e+00
       11 -1    0    0    0    0 -0.0000000000e+00 -0.0000000000e+00 -4.5593999997e+01 4.5594000000e+01 5.1100000000e-04 0.0000e+00 -1.0000e+00
       23  2    1    2    0    0 +0.0000000000e+00 +0.0000000000e+00 +0.0000000000e+00 9.1188000000e+01 9.1188000000e+01 1.9923e-13 0.0000e+00
  9900012  1    3    3    0    0 +2.8199419719e+01 -2.5974191039e+01 +2.0341027537e+01 4.7787271044e+01 2.0000000000e+01 1.8331e-01 1.0000e+00
      -12  1    3    3    0    0 -2.8199419719e+01 +2.5974191039e+01 -2.0341027537e+01 4.3400728956e+01 0.0000000000e+00 0.0000e+00 1.0000e+00
</event>
<event>
 5      7 +2.9511900e-02 9.11880000e+01 7.81616400e-03 1.18400000e-01
      -11 -1    0    0    0    0 +0.0000000000e+00 +0.0000000000e+00 +4.5593999997e+01 4.5594000000e+01 5.1100000000e-04 0.0000e+00 -1.0000e+00
       11 -1    0    0    0    0 -0.0000000000e+00 -0.0000000000e+00 -4.5593999997e+01 4.5594000000e+01 5.1100000000e-04 0.0000e+00 1.0000e+00
       23  2    1    2    0    0 +0.0000000000e+00 +0.0000000000e+00 +0.0000000000e+00 9.1188000000e+01 9.1188000000e+01 2.8907e-15 0.0000e+00
  9900012  1    3    3    0    0 -1.1708683052e+01 +4.1583822107e+01 -4.1612202593e+00 4.7787271044e+01 2.0000000000e+01 8.3107e-02 1.0000e+00
       12  1    3    3    0    0 +1.1708683052e+01 -4.1583822107e+01 +4.1612202593e+00 4.3400728956e+01 0.0000000000e+00 0.0000e+00 -1.0000e+00
</event>
<event>
 5      7 +2.9511900e-02 9.11880000e+01 7.81616400e-03 1.18400000e-01
      -11 -1    0    0    0    0 +0.0000000000e+00 +0.0000000000e+00 +4.5593999997e+01 4.5594000000e+01 5.1100000000e-04 0.0000e+00 -1.0000e+00
       11 -1    0    0    0    0 -0.0000000000e+00 -0.0000000000e+00 -4.5593999997e+01 4.5594000000e+01 5.1100000000e-04 0.0000e+00 1.0000e+00
       23  2    1    2    0    0 +0.0000000000e+00 +0.0000000000e+00 +0.0000000000e+00 9.1188000000e+01 9.1188000000e+01 7.5204e-15 0.0000e+00
  9900012  1    3    3    0    0 -5.5887813003e+00 +3.5104046586e+01 -2.4901700961e+01 4.7787271044e+01 2.0000000000e+01 2.6398e-01 1.0000e+00
       12  1    3    3    0    0 +5.5887813003e+00 -3.5104046586e+01 +2.4901700961e+01 4.3400728956e+01 0.0000000000e+00 0.0000e+00 -1.0000e+00
</event>
<event>
 5      8 +2.9511900e-02 9.11880000e+01 7.81616400e-03 1.18400000e-01
      -11 -1    0    0    0    0 +0.0000000000e+00 +0.0000000000e+00 +4.5593999997e+01 4.5594000000e+01 5.1100000000e-04 0.0000e+00 1.0000e+00
       11 -1    0    0    0    0 -0.0000000000e+00 -0.0000000000e+00 -4.5593999997e+01 4.5594000000e+01 5.1100000000e-04 0.0000e+00 -1.0000e+00
       23  2    1    2    0    0 +0.0000000000e+00 +0.0000000000e+00 +0.0000000000e+00 9.1188000000e+01 9.1188000000e+01 9.7867e-14 0.0000e+00
  9900012  1    3    3    0    0 -8.5816535738e+00 -3.7023391802e+01 -2.0958219278e+01 4.7787271044e+01 2.0000000000e+01 1.7134e-01 -1.0000e+00
      -12  1    3    3    0    0 +8.5816535738e+00 +3.7023391802e+01 +2.0958219278e+01 4.3400728956e+01 0.0000000000e+00 0.0000e+00 1.0000e+00
</event>
<event>
 5      3 +2.9511900e-02 9.11880000e+01 7.81616400e-03 1.18400000e-01
      -11 -1    0    0    0    0 +0.0000000000e+00 +0.0000000000e+00 +4.5593999997e+01 4.5594000000e+01 5.1100000000e-04 0.0000e+00 -1.0000e+00
       11 -1    0    0    0    0 -0.0000000000e+00 -0.0000000000e+00 -4.5593999997e+01 4.5594000000e+01 5.1100000000e-04 0.0000e+00 1.0000e+00
       23  2    1    2    0    0 +0.0000000000e+00 +0.0000000000e+00 +0.0000000000e+00 9.1188000000e+01 9.1188000000e+01 8.2877e-15 0.0000e+00
  9900012  1    3    3    0    0 +4.2932417461e+00 +3.4644446258e+01 -2.5786696040e+01 4.7787271044e+01 2.0000000000e+01 2.0319e-01 1.0000e+00
       12  1    3    3    0    0 -4.2932417461e+00 -3.4644446258e+01 +2.5786696040e+01 4.3400728956e+01 0.0000000000e+00 0.0000e+00 -1.0000e+00
</event>
<event>
 5      3 +2.9511900e-02 9.11880000e+01 7.81616400e-03 1.18400000e-01
      -11 -1    0    0    0    0 +0.0000000000e+00 +0.0000000000e+00 +4.5593999997e+01 4.5594000000e+01 5.1100000000e-04 0.0000e+00 1.0000e+00
       11 -1    0    0    0    0 -0.0000000000e+00 -0.0000000000e+00 -4.5593999997e+01 4.5594000000e+01 5.1100000000e-04 0.0000e+00 -1.0000e+00
       23  2    1    2    0    0 +0.0000000000e+00 +0.0000000000e+00 +0.0000000000e+00 9.1188000000e+01 9.1188000000e+01 7.5614e-14 0.0000e+00
  9900012  1    3    3    0    0 -8.3037419044e-01 +2.9578496310e+01 +3.1749745016e+01 4.7787271044e+01 2.0000000000e+01 1.4312e-01 1.0000e+00
       12  1    3    3    0    0 +8.3037419044e-01 -2.9578496310e+01 -3.1749745016e+01 4.3400728956e+01 0.0000000000e+00 0.0000e+00 -1.0000e+00
</event>
<event>
 5      5 +2.9511900e-02 9.11880000e+01 7.81616400e-03 1.18400000e-01
      -11 -1    0    0    0    0 +0.0000000000e+00 +0.0000000000e+00 +4.5593999997e+01 4.5594000000e+01 5.1100000000e-04 0.0000e+00 1.0000e+00
       11 -1    0    0    0    0 -0.0000000000e+00 -0.0000000000e+00 -4.5593999997e+01 4.5594000000e+01 5.1100000000e-04 0.0000e+00 -1.0000e+00
       23  2    1    2    0    0 +0.0000000000e+00 +0.0000000000e+00 +0.0000000000e+00 9.1188000000e+01 9.1188000000e+01 3.4084e-14 0.0000e+00
  9900012  1    3    3    0    0 -4.1209561252e+01 +1.3222594750e+01 +3.2493573738e+00 4.7787271044e+01 2.0000000000e+01 3.0790e-02 1.0000e+00
       12  1    3    3    0    0 +4.1209561252e+01 -1.3222594750e+01 -3.2493573738e+00 4.3400728956e+01 0.0000000000e+00 0.0000e+00 -1.0000e+00
</event>
<event>
 5      5 +2.9511900e-02 9.11880000e+01 7.81616400e-03 1.18400000e-01
      -11 -1    0    0    0    0 +0.0000000000e+00 +0.0000000000e+00 +4.5593999997e+01 4.5594000000e+01 5.1100000000e-04 0.0000e+00 1.0000e+00
       11 -1    0    0    0    0 -0.0000000000e+00 -0.0000000000e+00 -4.5593999997e+01 4.5594000000e+01 5.1100000000e-04 0.0000e+00 -1.0000e+00
       23  2    1    2    0    0 +0.0000000000e+00 +0.0000000000e+00 +0.0000000000e+00 9.1188000000e+01 9.1188000000e+01 1.8835e-14 0.0000e+00
  9900012  1    3    3    0    0 -4.1661127228e-02 -3.4347590665e+01 +2.6530445788e+01 4.7787271044e+01 2.0000000000e+01 1.6635e-01 1.0000e+00
       12  1    3    3    0    0 +4.1661127228e-02 +3.4347590665e+01 -2.6530445788e+01 4.3400728956e+01 0.0000000000e+00 0.0000e+00 -1.0000e+00
</event>
<event>
 5      1 +2.9511900e-02 9.11880000e+01 7.81616400e-03 1.18400000e-01
      -11 -1    0    0    0    0 +0.0000000000e+00 +0.0000000000e+00 +4.5593999997e+01 4.5594000000e+01 5.1100000000e-04 0.0000e+00 1.0000e+00
       11 -1    0    0    0    0 -0.0000000000e+00 -0.0000000000e+00 -4.5593999997e+01 4.5594000000e+01 5.1100000000e-04 0.0000e+00 -1.0000e+00
       23  2    1    2    0    0 +0.0000000000e+00 +0.0000000000e+00 +0.0000000000e+00 9.1188000000e+01 9.1188000000e+01 1.2556e-13 0.0000e+00
  9900012  1    3    3    0    0 +1.9759192452e+01 -3.7919386492e+01 +7.4375880223e+00 4.7787271044e+01 2.0000000000e+01 1.4135e-01 -1.0000e+00
       12  1    3    3    0    0 -1.9759192452e+01 +3.7919386492e+01 -7.4375880223e+00 4.3400728956e+01 0.0000000000e+00 0.0000e+00 -1.0000e+00
</event>
<event>
 5      1 +2.9511900e-02 9.11880000e+01 7.81616400e-03 1.18400000e-01
      -11 -1    0    0    0    0 +0.0000000000e+00 +0.0000000000e+00 +4.5593999997e+01 4.5594000000e+01 5.1100000000e-04 0.0000e+00 1.0000e+00
       11 -1    0    0    0    0 -0.0000000000e+00 -0.0000000000e+00 -4.5593999997e+01 4.5594000000e+01 5.1100000000e-04 0.0000e+00 -1.0000e+00
       23  2    1    2    0    0 +0.0000000000e+00 +0.0000000000e+00 +0.0000000000e+00 9.1188000000e+01 9.1188000000e+01 3.1973e-14 0.0000e+00
  9900012  1    3    3    0    0 +3.0561509004e+00 +4.3167358693e+01 +3.2958093165e+00 4.7787271044e+01 2.0000000000e+01 3.7631e-01 1.0000e+00
       12  1    3    3    0    0 -3.0561509004e+00 -4.3167358693e+01 -3.2958093165e+00 4.3400728956e+01 0.0000000000e+00 0.0000e+00 -1.0000e+00
</event>
<event>
 5      4 +2.9511900e-02 9.11880000e+01 7.81616400e-03 1.18400000e-01
      -11 -1    0    0    0    0 +0.0000000000e+00 +0.0000000000e+00 +4.5593999997e+01 4.5594000000e+01 5.1100000000e-04 0.0000e+00 1.0000e+00
       11 -1    0    0    0    0 -0.0000000000e+00 -0.0000000000e+00 -4.5593999997e+01 4.5594000000e+01 5.1100000000e-04 0.0000e+00 -1.0000e+00
       23  2    1    2    0    0 +0.0000000000e+00 +0.0000000000e+00 +0.0000000000e+00 9.1188000000e+01 9.1188000000e+01 1.0095e-13 0.0000e+00
  9900012  1    3    3    0    0 +2.6115862471e+01 +2.7794708707e+00 -3.4552272616e+01 4.7787271044e+01 2.0000000000e+01 5.4633e-02 -1.0000e+00
      -12  1    3    3    0    0 -2.6115862471e+01 -2.7794708707e+00 +3.4552272616e+01 4.3400728956e+01 0.0000000000e+00 0.0000e+00 1.0000e+00
</event>
<event>
 5      8 +2.9511900e-02 9.11880000e+01 7.81616400e-03 1.18400000e-01
      -11 -1    0    0    0    0 +0.0000000000e+00 +0.0000000000e+00 +4.5593999997e+01 4.5594000000e+01 5.1100000000e-04 0.0000e+00 1.0000e+00
       11 -1    0    0    0    0 -0.0000000000e+00 -0.0000000000e+00 -4.5593999997e+01 4.5594000000e+01 5.1100000000e-04 0.0000e+00 -1.0000e+00
       23  2    1    2    0    0 +0.0000000000e+00 +0.0000000000e+00 +0.0000000000e+00 9.1188000000e+01 9.1188000000e+01 2.6147e-14 0.0000e+00
  9900012  1    3    3    0    0 +2.4598960612e+01 -3.5753404995e+01 -4.5655440212e-01 4.7787271044e+01 2.0000000000e+01 1.3608e-01 -1.0000e+00
      -12  1    3    3    0    0 -2.4598960612e+01 +3.5753404995e+01 +4.5655440212e-01 4.3400728956e+01 0.0000000000e+00 0.0000e+00 1.0000e+00
</event>
<event>
 5      5 +2.9511900e-02 9.11880000e+01 7.81616400e-03 1.18400000e-01
      -11 -1    0    0    0    0 +0.0000000000e+00 +0.0000000000e+00 +4.5593999997e+01 4.5594000000e+01 5.1100000000e-04 0.0000e+00 1.0000e+00
       11 -1    0    0    0    0 -0.0000000000e+00 -0.0000000000e+00 -4.5593999997e+01 4.5594000000e+01 5.1100000000e-04 0.0000e+00 -1.0000e+00
       23  2    1    2    0    0 +0.0000000000e+00 +0.0000000000e+00 +0.0000000000e+00 9.1188000000e+01 9.1188000000e+01 2.4387e-14 0.0000e+00
  9900012  1    3    3    0    0 +3.5512768999e+01 +1.3353101908e+01 -2.1075131823e+01 4.7787271044e+01 2.0000000000e+01 3.3607e-02 1.0000e+00
       12  1    3    3    0    0 -3.5512768999e+01 -1.3353101908e+01 +2.1075131823e+01 4.3400728956e+01 0.0000000000e+00 0.0000e+00 -1.0000e+00
</event>
<event>
 5      4 +2.9511900e-02 9.11880000e+01 7.81616400e-03 1.18400000e-01
      -11 -1    0    0    0    0 +0.0000000000e+00 +0.0000000000e+00 +4.5593999997e+01 4.5594000000e+01 5.1100000000e-04 0.0000e+00 1.0000e+00
       11 -1    0    0    0    0 -0.0000000000e+00 -0.0000000000e+00 -4.5593999997e+01 4.5594000000e+01 5.1100000000e-04 0.0000e+00 -1.0000e+00
       23  2    1    2    0    0 +0.0000000000e+00 +0.0000000000e+00 +0.0000000000e+00 9.1188000000e+01 9.1188000000e+01 4.0848e-14 0.0000e+00
  9900012  1    3    3    0    0 -1.6749799836e+01 +3.1567361519e+01 +2.4628624932e+01 4.7787271044e+01 2.0000000000e+01 2.2736e-01 -1.0000e+00
      -12  1    3    3    0    0 +1.6749799836e+01 -3.1567361519e+01 -2.4628624932e+01 4.3400728956e+01 0.0000000000e+00 0.0000e+00 1.0000e+00
</event>
<event>
 5      7 +2.9511900e-02 9.11880000e+01 7.81616400e-03 1.18400000e-01
      -11 -1    0    0    0    0 +0.0000000000e+00 +0.0000000000e+00 +4.5593999997e+01 4.5594000000e+01 5.1100000000e-04 0.0000e+00 1.0000e+00
       11 -1    0    0    0    0 -0.0000000000e+00 -0.0000000000e+00 -4.5593999997e+01 4.5594000000e+01 5.1100000000e-04 0.0000e+00 -1.0000e+00
       23  2    1    2    0    0 +0.0000000000e+00 +0.0000000000e+00 +0.0000000000e+00 9.1188000000e+01 9.1188000000e+01 4.2493e-14 0.0000e+00
  9900012  1    3    3    0    0 +5.6997254377e+00 -3.1864123026e+01 +2.8910449107e+01 4.7787271044e+01 2.0000000000e+01 8.4535e-02 1.0000e+00
       12  1    3    3    0    0 -5.6997254377e+00 +3.1864123026e+01 -2.8910449107e+01 4.3400728956e+01 0.0000000000e+00 0.0000e+00 -1.0000e+00
</event>
<event>
 5      6 +2.9511900e-02 9.11880000e+01 7.81616400e-03 1.18400000e-01
      -11 -1    0    0    0    0 +0.0000000000e+00 +0.0000000000e+00 +4.5593999997e+01 4.5594000000e+01 5.1100000000e-04 0.0000e+00 1.0000e+00
       11 -1    0    0    0    0 -0.0000000000e+00 -0.0000000000e+00 -4.5593999997e+01 4.5594000000e+01 5.1100000000e-04 0.0000e+00 -1.0000e+00
       23  2    1    2    0    0 +0.0000000000e+00 +0.0000000000e+00 +0.0000000000e+00 9.1188000000e+01 9.1188000000e+01 1.3565e-13 0.0000e+00
  9900012  1    3    3    0    0 -2.4265991065e+01 -2.4017912031e+00 -3.5902873848e+01 4.7787271044e+01 2.0000000000e+01 2.7975e-01 -1.0000e+00
      -12  1    3    3    0    0 +2.4265991065e+01 +2.4017912031e+00 +3.5902873848e+01 4.3400728956e+01 0.0000000000e+00 0.0000e+00 1.0000e+00
</event>
<event>
 5      6 +2.9511900e-02 9.11880000e+01 7.81616400e-03 1.18400000e-01
      -11 -1    0    0    0    0 +0.0000000000e+00 +0.0000000000e+00 +4.5593999997e+01 4.5594000000e+01 5.1100000000e-04 0.0000e+00 -1.0000e+00
       11 -1    0    0    0    0 -0.0000000000e+00 -0.0000000000e+00 -4.5593999997e+01 4.5594000000e+01 5.1100000000e-04 0.0000e+00 1.0000e+00
       23  2    1    2    0    0 +0.0000000000e+00 +0.0000000000e+00 +0.0000000000e+00 9.1188000000e+01 9.1188000000e+01 4.6604e-14 0.0000e+00
  9900012  1    3    3    0    0 +1.7866823250e+01 +6.9217732565e+00 +3.8942123155e+01 4.7787271044e+01 2.0000000000e+01 4.0971e-01 -1.0000e+00
      -12  1    3    3    0    0 -1.7866823250e+01 -6.9217732565e+00 -3.8942123155e+01 4.3400728956e+01 0.0000000000e+00 0.0000e+00 1.0000e+00
</event>
<event>
 5      5 +2.9511900e-02 9.11880000e+01 7.81616400e-03 1.18400000e-01
      -11 -1    0    0    0    0 +0.0000000000e+00 +0.0000000000e+00 +4.5593999997e+01 4.5594000000e+01 5.1100000000e-04 0.0000e+00 -1.0000e+00
       11 -1    0    0    0    0 -0.0000000000e+00 -0.0000000000e+00 -4.5593999997e+01 4.5594000000e+01 5.1100000000e-04 0.0000e+00 1.0000e+00
       23  2    1    2    0    0 +0.0000000000e+00 +0.0000000000e+00 +0.0000000000e+00 9.1188000000e+01 9.1188000000e+01 5.3651e-14 0.0000e+00
  9900012  1    3    3    0    0 -2.9469950901e+01 -1.9492814922e+01 -2.5202687043e+01 4.7787271044e+01 2.0000000000e+01 3.3308e-01 1.0000e+00
       12  1    3    3    0    0 +2.9469950901e+01 +1.9492814922e+01 +2.5202687043e+01 4.3400728956e+01 0.0000000000e+00 0.0000e+00 -1.0000e+00
</event>
<event>
 5      2 +2.9511900e-02 9.11880000e+01 7.81616400e-03 1.18400000e-01
      -11 -1    0    0    0    0 +0.0000000000e+00 +0.0000000000e+00 +4.5593999997e+01 4.5594000000e+01 5.1100000000e-04 0.0000e+00 -1.0000e+00
       11 -1    0    0    0    0 -0.0000000000e+00 -0.0000000000e+00 -4.5593999997e+01 4.5594000000e+01 5.1100000000e-04 0.0000e+00 1.0000e+00
       23  2    1    2    0    0 +0.0000000000e+00 +0.0000000000e+00 +0.0000000000e+00 9.1188000000e+01 9.1188000000e+01 2.9219e-14 0.0000e+00
  9900012  1    3    3    0    0 -2.1770890190e+01 -2.6865917551e+01 +2.6227353819e+01 4.7787271044e+01 2.0000000000e+01 2.6838e-01 -1.0000e+00
      -12  1    3    3    0    0 +2.1770890190e+01 +2.6865917551e+01 -2.6227353819e+01 4.3400728956e+01 0.0000000000e+00 0.0000e+00 1.0000e+00
</event>
<event>
 5      7 +2.9511900e-02 9.11880000e+01 7.81616400e-03 1.18400000e-01
      -11 -1    0    0    0    0 +0.0000000000e+00 +0.0000000000e+00 +4.5593999997e+01 4.5594000000e+01 5.1100000000e-04 0.0000e+00 1.0000e+00
       11 -1    0    0    0    0 -0.0000000000e+00 -0.0000000000e+00 -4.5593999997e+01 4.5594000000e+01 5.1100000000e-04 0.0000e+00 -1.0000e+00
       23  2    1    2    0    0 +0.0000000000e+00 +0.0000000000e+00 +0.0000000000e+00 9.1188000000e+01 9.1188000000e+01 5.9384e-14 0.0000e+00
  9900012  1    3    3    0    0 +2.3485825442e+00 +4.2451044030e+01 +8.7187324020e+00 4.7787271044e+01 2.0000000000e+01 4.7162e-02 1.0000e+00
       12  1    3    3    0    0 -2.3485825442e+00 -4.2451044030e+01 -8.7187324020e+00 4.3400728956e+01 0.0000000000e+00 0.0000e+00 -1.0000e+00
</event>
<event>
 5      7 +2.9511900e-02 9.11880000e+01 7.81616400e-03 1.18400000e-01
      -11 -1    0    0    0    0 +0.0000000000e+00 +0.0000000000e+00 +4.5593999997e+01 4.5594000000e+01 5.1100000000e-04 0.0000e+00 -1.0000e+00
       11 -1    0    0    0    0 -0.0000000000e+00 -0.0000000000e+00 -4.5593999997e+01 4.5594000000e+01 5.1100000000e-04 0.0000e+00 1.0000e+00
       23  2    1    2    0    0 +0.0000000000e+00 +0.0000000000e+00 +0.0000000000e+00 9.1188000000e+01 9.1188000000e+01 7.0125e-16 0.0000e+00
  9900012  1    3    3    0    0 -2.3199781564e+01 +1.4862186266e+01 -3.3533696913e+01 4.7787271044e+01 2.0000000000e+01 2.1172e-02 1.0000e+00
       12  1    3    3    0    0 +2.3199781564e+01 -1.4862186266e+01 +3.3533696913e+01 4.3400728956e+01 0.0000000000e+00 0.0000e+00 -1.0000e+00
</event>
<event>
 5      7 +2.9511900e-02 9.11880000e+01 7.81616400e-03 1.18400000e-01
      -11 -1    0    0    0    0 +0.0000000000e+00 +0.0000000000e+00 +4.5593999997e+01 4.5594000000e+01 5.1100000000e-04 0.0000e+00 1.0000e+00
       11 -1    0    0    0    0 -0.0000000000e+00 -0.0000000000e+00 -4.5593999997e+01 4.5594000000e+01 5.1100000000e-04 0.0000e+00 -1.0000e+00
       23  2    1    2    0    0 +0.0000000000e+00 +0.0000000000e+00 +0.0000000000e+00 9.1188000000e+01 9.1188000000e+01 1.8304e-13 0.0000e+00
  9900012  1    3    3    0    0 +3.2392468014e+01 -2.8378823283e+01 +5.3845778761e+00 4.7787271044e+01 2.0000000000e+01 3.7408e-03 1.0000e+00
       12  1    3    3    0    0 -3.2392468014e+01 +2.8378823283e+01 -5.3845778761e+00 4.3400728956e+01 0.0000000000e+00 0.0000e+00 -1.0000e+00
</event>
<event>
 5      7 +2.9511900e-02 9.11880000e+01 7.81616400e-03 1.18400000e-01
      -11 -1    0    0    0    0 +0.0000000000e+00 +0.0000000000e+00 +4.5593999997e+01 4.5594000000e+01 5.1100000000e-04 0.0000e+00 -1.0000e+00
       11 -1    0    0    0    0 -0.0000000000e+00 -0.0000000000e+00 -4.5593999997e+01 4.5594000000e+01 5.1100000000e-04 0.0000e+00 1.0000e+00
       23  2    1    2    0    0 +0.0000000000e+00 +0.0000000000e+00 +0.0000000000e+00 9.1188000000e+01 9.1188000000e+01 1.0734e-13 0.0000e+00
  9900012  1    3    3    0    0 -1.7502027020e+01 +2.1148170927e+01 -3.3616323275e+01 4.7787271044e+01 2.0000000000e+01 2.8359e-01 1.0000e+00
       12  1    3    3    0    0 +1.7502027020e+01 -2.1148170927e+01 +3.3616323275e+01 4.3400728956e+01 0.0000000000e+00 0.0000e+00 -1.0000e+00
</event>
<event>
 5      1 +2.9511900e-02 9.11880000e+01 7.81616400e-03 1.18400000e-01
      -11 -1    0    0    0    0 +0.0000000000e+00 +0.0000000000e+00 +4.5593999997e+01 4.5594000000e+01 5.1100000000e-04 0.0000e+00 -1.0000e+00
       11 -1    0    0    0    0 -0.0000000000e+00 -0.0000000000e+00 -4.5593999997e+01 4.5594000000e+01 5.1100000000e-04 0.0000e+00 1.0000e+00
       23  2    1    2    0    0 +0.0000000000e+00 +0.0000000000e+00 +0.0000000000e+00 9.1188000000e+01 9.1188000000e+01 3.8551e-14 0.0000e+00
  9900012  1    3    3    0    0 +3.4933831166e+01 -3.8375417004e+00 -2.5466134132e+01 4.7787271044e+01 2.0000000000e+01 2.6193e-02 1.0000e+00
       12  1    3    3    0    0 -3.4933831166e+01 +3.8375417004e+00 +2.5466134132e+01 4.3400728956e+01 0.0000000000e+00 0.0000e+00 -1.0000e+00
</event>
<event>
 5      3 +2.9511900e-02 9.11880000e+01 7.81616400e-03 1.18400000e-01
      -11 -1    0    0    0    0 +0.0000000000e+00 +0.0000000000e+00 +4.5593999997e+01 4.5594000000e+01 5.1100000000e-04 0.0000e+00 -1.0000e+00
       11 -1    0    0    0    0 -0.0000000000e+00 -0.0000000000e+00 -4.5593999997e+01 4.5594000000e+01 5.1100000000e-04 0.0000e+00 1.0000e+00
       23  2    1    2    0    0 +0.0000000000e+00 +0.0000000000e+00 +0.0000000000e+00 9.1188000000e+01 9.1188000000e+01 1.0119e-13 0.0000e+00
  9900012  1    3    3    0    0 -3.4817992429e+01 -2.4372534275e+01 -8.7926247561e+00 4.7787271044e+01 2.0000000000e+01 1.6415e-01 1.0000e+00
       12  1    3    3    0    0 +3.4817992429e+01 +2.4372534275e+01 +8.7926247561e+00 4.3400728956e+01 0.0000000000e+00 0.0000e+00 -1.0000e+00
</event>
<event>
 5      8 +2.9511900e-02 9.11880000e+01 7.81616400e-03 1.18400000e-01
      -11 -1    0    0    0    0 +0.0000000000e+00 +0.0000000000e+00 +4.5593999997e+01 4.5594000000e+01 5.1100000000e-04 0.0000e+00 1.0000e+00
       11 -1    0    0    0    0 -0.0000000000e+00 -0.0000000000e+00 -4.5593999997e+01 4.5594000000e+01 5.1100000000e-04 0.0000e+00 -1.0000e+00
       23  2    1    2    0    0 +0.0000000000e+00 +0.0000000000e+00 +0.0000000000e+00 9.1188000000e+01 9.1188000000e+01 3.7291e-14 0.0000e+00
  9900012  1    3    3    0    0 -1.3109617761e+01 +1.0209512113e+01 -4.0093977833e+01 4.7787271044e+01 2.0000000000e+01 2.1745e-01 -1.0000e+00
      -12  1    3    3    0    0 +1.3109617761e+01 -1.0209512113e+01 +4.0093977833e+01 4.3400728956e+01 0.0000000000e+00 0.0000e+00 1.0000e+00
</event>
<event>
 5      5 +2.9511900e-02 9.11880000e+01 7.81616400e-03 1.18400000e-01
      -11 -1    0    0    0    0 +0.0000000000e+00 +0.0000000000e+00 +4.5593999997e+01 4.5594000000e+01 5.1100000000e-04 0.0000e+00 -1.0000e+00
       11 -1    0    0    0    0 -0.0000000000e+00 -0.0000000000e+00 -4.5593999997e+01 4.5594000000e+01 5.1100000000e-04 0.0000e+00 1.0000e+00
       23  2    1    2    0    0 +0.0000000000e+00 +0.0000000000e+00 +0.0000000000e+00 9.1188000000e+01 9.1188000000e+01 1.9067e-14 0.0000e+00
  9900012  1    3    3    0    0 +3.4101676926e+01 +1.4201021960e+01 -2.2782227283e+01 4.7787271044e+01 2.0000000000e+01 2.6046e-02 1.0000e+00
       12  1    3    3    0    0 -3.4101676926e+01 -1.4201021960e+01 +2.2782227283e+01 4.3400728956e+01 0.0000000000e+00 0.0000e+00 -1.0000e+00
</event>
<event>
 5      1 +2.9511900e-02 9.11880000e+01 7.81616400e-03 1.18400000e-01
      -11 -1    0    0    0    0 +0.0000000000e+00 +0.0000000000e+00 +4.5593999997e+01 4.5594000000e+01 5.1100000000e-04 0.0000e+00 -1.0000e+00
       11 -1    0    0    0    0 -0.0000000000e+00 -0.0000000000e+00 -4.5593999997e+01 4.5594000000e+01 5.1100000000e-04 0.0000e+00 1.0000e+00
       23  2    1    2    0    0 +0.0000000000e+00 +0.0000000000e+00 +0.0000000000e+00 9.1188000000e+01 9.1188000000e+01 8.8629e-15 0.0000e+00
  9900012  1    3    3    0    0 +4.9681897794e+00 +4.3078319176e+01 -1.7885136643e+00 4.7787271044e+01 2.0000000000e+01 1.3125e-02 1.0000e+00
       12  1    3    3    0    0 -4.9681897794e+00 -4.3078319176e+01 +1.7885136643e+00 4.3400728956e+01 0.0000000000e+00 0.0000e+00 -1.0000e+00
</event>
<event>
 5      3 +2.9511900e-02 9.11880000e+01 7.81616400e-03 1.18400000e-01
      -11 -1    0    0    0    0 +0.0000000000e+00 +0.0000000000e+00 +4.5593999997e+01 4.5594000000e+01 5.1100000000e-04 0.0000e+00 -1.0000e+00
       11 -1    0    0    0    0 -0.0000000000e+00 -0.0000000000e+00 -4.5593999997e+01 4.5594000000e+01 5.1100000000e-04 0.0000e+00 1.0000e+00
       23  2    1    2    0    0 +0.0000000000e+00 +0.0000000000e+00 +0.0000000000e+00 9.1188000000e+01 9.1188000000e+01 1.2934e-13 0.0000e+00
  9900012  1    3    3    0    0 +1.8775467484e+01 +2.0685167714e+01 -3.3214890204e+01 4.7787271044e+01 2.0000000000e+01 1.2802e-01 1.0000e+00
       12  1    3    3    0    0 -1.8775467484e+01 -2.0685167714e+01 +3.3214890204e+01 4.3400728956e+01 0.0000000000e+00 0.0000e+00 -1.0000e+00
</event>
<event>
 5      6 +2.9511900e-02 9.11880000e+01 7.81616400e-03 1.18400000e-01
      -11 -1    0    0    0    0 +0.0000000000e+00 +0.0000000000e+00 +4.5593999997e+01 4.5594000000e+01 5.1100000000e-04 0.0000e+00 1.0000e+00
       11 -1    0    0    0    0 -0.0000000000e+00 -0.0000000000e+00 -4.5593999997e+01 4.5594000000e+01 5.1100000000e-04 0.0000e+00 -1.0000e+00
       23  2    1    2    0    0 +0.0000000000e+00 +0.0000000000e+00 +0.0000000000e+00 9.1188000000e+01 9.1188000000e+01 1.1081e-13 0.0000e+00
  9900012  1    3    3    0    0 -3.5952864626e+01 -2.2487690123e+01 -9.2368063741e+00 4.7787271044e+01 2.0000000000e+01 1.3185e-02 -1.0000e+00
      -12  1    3    3    0    0 +3.5952864626e+01 +2.2487690123e+01 +9.2368063741e+00 4.3400728956e+01 0.0000000000e+00 0.0000e+00 1.0000e+00
</event>
<event>
 5      8 +2.9511900e-02 9.11880000e+01 7.81616400e-03 1.18400000e-01
      -11 -1    0    0    0    0 +0.0000000000e+00 +0.0000000000e+00 +4.5593999997e+01 4.5594000000e+01 5.1100000000e-04 0.0000e+00 -1.0000e+00
       11 -1    0    0    0    0 -0.0000000000e+00 -0.0000000000e+00 -4.5593999997e+01 4.5594000000e+01 5.1100000000e-04 0.0000e+00 1.0000e+00
       23  2    1    2    0    0 +0.0000000000e+00 +0.0000000000e+00 +0.0000000000e+00 9.1188000000e+01 9.1188000000e+01 5.2523e-14 0.0000e+00
  9900012  1    3    3    0    0 -3.4072001057e+01 +2.6550869342e+01 +4.2158457043e+00 4.7787271044e+01 2.0000000000e+01 2.8715e-03 -1.0000e+00
      -12  1    3    3    0    0 +3.4072001057e+01 -2.6550869342e+01 -4.2158457043e+00 4.3400728956e+01 0.0000000000e+00 0.0000e+00 1.0000e+00
</event>
<event>
 5      7 +2.9511900e-02 9.11880000e+01 7.81616400e-03 1.18400000e-01
      -11 -1    0    0    0    0 +0.0000000000e+00 +0.0000000000e+00 +4.5593999997e+01 4.5594000000e+01 5.1100000000e-04 0.0000e+00 1.0000e+00
       11 -1    0    0    0    0 -0.0000000000e+00 -0.0000000000e+00 -4.5593999997e+01 4.5594000000e+01 5.1100000000e-04 0.0000e+00 -1.0000e+00
       23  2    1    2    0    0 +0.0000000000e+00 +0.0000000000e+00 +0.0000000000e+00 9.1188000000e+01 9.1188000000e+01 2.0366e-13 0.0000e+00
  9900012  1    3    3    0    0 +4.6311674178e+00 +3.6629536931e+01 +2.2813429958e+01 4.7787271044e+01 2.0000000000e+01 4.0697e-01 1.0000e+00
       12  1    3    3    0    0 -4.6311674178e+00 -3.6629536931e+01 -2.2813429958e+01 4.3400728956e+01 0.0000000000e+00 0.0000e+00 -1.0000e+00
</event>
<event>
 5      2 +2.9511900e-02 9.11880000e+01 7.81616400e-03 1.18400000e-01
      -11 -1    0    0    0    0 +0.0000000000e+00 +0.0000000000e+00 +4.5593999997e+01 4.5594000000e+01 5.1100000000e-04 0.0000e+00 1.0000e+00
       11 -1    0    0    0    0 -0.0000000000e+00 -0.0000000000e+00 -4.5593999997e+01 4.5594000000e+01 5.1100000000e-04 0.0000e+00 -1.0000e+00
       23  2    1    2    0    0 +0.0000000000e+00 +0.0000000000e+00 +0.0000000000e+00 9.1188000000e+01 9.1188000000e+01 1.2058e-13 0.0000e+00
  9900012  1    3    3    0    0 -1.3781640747e+01 -1.0602480185e+01 -3.9765274627e+01 4.7787271044e+01 2.0000000000e+01 1.1997e-02 -1.0000e+00
      -12  1    3    3    0    0 +1.3781640747e+01 +1.0602480185e+01 +3.9765274627e+01 4.3400728956e+01 0.0000000000e+00 0.0000e+00 1.0000e+00
</event>
<event>
 5      8 +2.9511900e-02 9.11880000e+01 7.81616400e-03 1.18400000e-01
      -11 -1    0    0    0    0 +0.0000000000e+00 +0.0000000000e+00 +4.5593999997e+01 4.5594000000e+01 5.1100000000e-04 0.0000e+00 -1.0000e+00
       11 -1    0    0    0    0 -0.0000000000e+00 -0.0000000000e+00 -4.5593999997e+01 4.5594000000e+01 5.1100000000e-04 0.0000e+00 1.0000e+00
       23  2    1    2    0    0 +0.0000000000e+00 +0.0000000000e+00 +0.0000000000e+00 9.1188000000e+01 9.1188000000e+01 1.7331e-14 0.0000e+00
  9900012  1    3    3    0    0 -1.2940010216e+01 -1.2507847994e+01 +3.9493457028e+01 4.7787271044e+01 2.0000000000e+01 1.6952e-01 -1.0000e+00
      -12  1    3    3    0    0 +1.2940010216e+01 +1.2507847994e+01 -3.9493457028e+01 4.3400728956e+01 0.0000000000e+00 0.0000e+00 1.0000e+00
</event>
<event>
 5      5 +2.9511900e-02 9.11880000e+01 7.81616400e-03 1.18400000e-01
      -11 -1    0    0    0    0 +0.0000000000e+00 +0.0000000000e+00 +4.5593999997e+01 4.5594000000e+01 5.1100000000e-04 0.0000e+00 -1.0000e+00
       11 -1    0    0    0    0 -0.0000000000e+00 -0.0000000000e+00 -4.5593999997e+01 4.5594000000e+01 5.1100000000e-04 0.0000e+00 1.0000e+00
       23  2    1    2    0    0 +0.0000000000e+00 +0.0000000000e+00 +0.0000000000e+00 9.1188000000e+01 9.1188000000e+01 1.2809e-13 0.0000e+00
  9900012  1    3    3    0    0 +1.5188966372e+01 -3.6544231042e+01 -1.7816782874e+01 4.7787271044e+01 2.0000000000e+01 3.1515e-02 1.0000e+00
       12  1    3    3    0    0 -1.5188966372e+01 +3.6544231042e+01 +1.7816782874e+01 4.3400728956e+01 0.0000000000e+00 0.0000e+00 -1.0000e+00
</event>
<event>
 5      3 +2.9511900e-02 9.11880000e+01 7.81616400e-03 1.18400000e-01
      -11 -1    0    0    0    0 +0.0000000000e+00 +0.0000000000e+00 +4.5593999997e+01 4.5594000000e+01 5.1100000000e-04 0.0000e+00 1.0000e+00
       11 -1    0    0    0    0 -0.0000000000e+00 -0.0000000000e+00 -4.5593999997e+01 4.5594000000e+01 5.1100000000e-04 0.0000e+00 -1.0000e+00
       23  2    1    2    0    0 +0.0000000000e+00 +0.0000000000e+00 +0.0000000000e+00 9.1188000000e+01 9.1188000000e+01 7.1101e-14 0.0000e+00
  9900012  1    3    3    0    0 -3.3603303088e+01 +2.0679944843e+01 +1.8077089830e+01 4.7787271044e+01 2.0000000000e+01 2.6195e-02 1.0000e+00
       12  1    3    3    0    0 +3.3603303088e+01 -2.0679944843e+01 -1.8077089830e+01 4.3400728956e+01 0.0000000000e+00 0.0000e+00 -1.0000e+00
</event>
<event>
 5      4 +2.9511900e-02 9.11880000e+01 7.81616400e-03 1.18400000e-01
      -11 -1    0    0    0    0 +0.0000000000e+00 +0.0000000000e+00 +4.5593999997e+01 4.5594000000e+01 5.1100000000e-04 0.0000e+00 -1.0000e+00
       11 -1    0    0    0    0 -0.0000000000e+00 -0.0000000000e+00 -4.5593999997e+01 4.5594000000e+01 5.1100000000e-04 0.0000e+00 1.0000e+00
       23  2    1    2    0    0 +0.0000000000e+00 +0.0000000000e+00 +0.0000000000e+00 9.1188000000e+01 9.1188000000e+01 1.3218e-14 0.0000e+00
  9900012  1    3    3    0    0 -9.8972883233e-01 +4.2690803795e+01 +7.7549327582e+00 4.7787271044e+01 2.0000000000e+01 4.9153e-03 -1.0000e+00
      -12  1    3    3    0    0 +9.8972883233e-01 -4.2690803795e+01 -7.7549327582e+00 4.3400728956e+01 0.0000000000e+00 0.0000e+00 1.0000e+00
</event>
<event>
 5      8 +2.9511900e-02 9.11880000e+01 7.81616400e-03 1.18400000e-01
      -11 -1    0    0    0    0 +0.0000000000e+00 +0.0000000000e+00 +4.5593999997e+01 4.5594000000e+01 5.1100000000e-04 0.0000e+00 1.0000e+00
       11 -1    0    0    0    0 -0.0000000000e+00 -0.0000000000e+00 -4.5593999997e+01 4.5594000000e+01 5.1100000000e-04 0.0000e+00 -1.0000e+00
       23  2    1    2    0    0 +0.0000000000e+00 +0.0000000000e+00 +0.0000000000e+00 9.1188000000e+01 9.1188000000e+01 9.8331e-16 0.0000e+00
  9900012  1    3    3    0    0 -2.5762706431e+01 +2.5640812595e+01 -2.3716132920e+01 4.7787271044e+01 2.0000000000e+01 2.5537e-02 -1.0000e+00
      -12  1    3    3    0    0 +2.5762706431e+01 -2.5640812595e+01 +2.3716132920e+01 4.3400728956e+01 0.0000000000e+00 0.0000e+00 1.0000e+00
</event>
<event>
 5      7 +2.9511900e-02 9.11880000e+01 7.81616400e-03 1.18400000e-01
      -11 -1    0    0    0    0 +0.0000000000e+00 +0.0000000000e+00 +4.5593999997e+01 4.5594000000e+01 5.1100000000e-04 0.0000e+00 1.0000e+00
       11 -1    0    0    0    0 -0.0000000000e+00 -0.0000000000e+00 -4.5593999997e+01 4.5594000000e+01 5.1100000000e-04 0.0000e+00 -1.0000e+00
       23  2    1    2    0    0 +0.0000000000e+00 +0.0000000000e+00 +0.0000000000e+00 9.1188000000e+01 9.1188000000e+01 1.8185e-13 0.0000e+00
  9900012  1    3    3    0    0 -1.6809980169e+01 +3.6831721677e+01 +1.5635604207e+01 4.7787271044e+01 2.0000000000e+01 2.4199e-01 1.0000e+00
       12  1    3    3    0    0 +1.6809980169e+01 -3.6831721677e+01 -1.5635604207e+01 4.3400728956e+01 0.0000000000e+00 0.0000e+00 -1.0000e+00
</event>
<event>
 5      8 +2.9511900e-02 9.11880000e+01 7.81616400e-03 1.18400000e-01
      -11 -1    0    0    0    0 +0.0000000000e+00 +0.0000000000e+00 +4.5593999997e+01 4.5594000000e+01 5.1100000000e-04 0.0000e+00 1.0000e+00
       11 -1    0    0    0    0 -0.0000000000e+00 -0.0000000000e+00 -4.5593999997e+01 4.5594000000e+01 5.1100000000e-04 0.0000e+00 -1.0000e+00
       23  2    1    2    0    0 +0.0000000000e+00 +0.0000000000e+00 +0.0000000000e+00 9.1188000000e+01 9.1188000000e+01 1.6460e-14 0.0000e+00
  9900012  1    3    3    0    0 +5.6311456944e+00 -2.9235687319e+01 -3.1578284612e+01 4.7787271044e+01 2.0000000000e+01 2.5742e-01 -1.0000e+00
      -12  1    3    3    0    0 -5.6311456944e+00 +2.9235687319e+01 +3.1578284612e+01 4.3400728956e+01 0.0000000000e+00 0.0000e+00 1.0000e+00
</event>
<event>
 5      7 +2.9511900e-02 9.11880000e+01 7.81616400e-03 1.18400000e-01
      -11 -1    0    0    0    0 +0.0000000000e+00 +0.0000000000e+00 +4.5593999997e+01 4.5594000000e+01 5.1100000000e-04 0.0000e+00 -1.0000e+00
       11 -1    0    0    0    0 -0.0000000000e+00 -0.0000000000e+00 -4.5593999997e+01 4.5594000000e+01 5.1100000000e-04 0.0000e+00 1.0000e+00
       23  2    1    2    0    0 +0.0000000000e+00 +0.0000000000e+00 +0.0000000000e+00 9.1188000000e+01 9.1188000000e+01 1.6956e-13 0.0000e+00
  9900012  1    3    3    0    0 +1.9244118984e+01 +3.6078712448e+01 +1.4546946983e+01 4.7787271044e+01 2.0000000000e+01 4.5194e-02 1.0000e+00
       12  1    3    3    0    0 -1.9244118984e+01 -3.6078712448e+01 -1.4546946983e+01 4.3400728956e+01 0.0000000000e+00 0.0000e+00 -1.0000e+00
</event>
<event>
 5      3 +2.9511900e-02 9.11880000e+01 7.81616400e-03 1.18400000e-01
      -11 -1    0    0    0    0 +0.0000000000e+00 +0.0000000000e+00 +4.5593999997e+01 4.5594000000e+01 5.1100000000e-04 0.0000e+00 1.0000e+00
       11 -1    0    0    0    0 -0.0000000000e+00 -0.0000000000e+00 -4.5593999997e+01 4.5594000000e+01 5.1100000000e-04 0.0000e+00 -1.0000e+00
       23  2    1    2    0    0 +0.0000000000e+00 +0.0000000000e+00 +0.0000000000e+00 9.1188000000e+01 9.1188000000e+01 8.2561e-14 0.0000e+00
  9900012  1    3    3    0    0 +4.1777805363e+01 +1.1707338495e+01 +1.0846558255e+00 4.7787271044e+01 2.0000000000e+01 3.2518e-01 1.0000e+00
       12  1    3    3    0    0 -4.1777805363e+01 -1.1707338495e+01 -1.0846558255e+00 4.3400728956e+01 0.0000000000e+00 0.0000e+00 -1.0000e+00
</event>
<event>
 5      8 +2.9511900e-02 9.11880000e+01 7.81616400e-03 1.18400000e-01
      -11 -1    0    0    0    0 +0.0000000000e+00 +0.0000000000e+00 +4.5593999997e+01 4.5594000000e+01 5.1100000000e-04 0.0000e+00 1.0000e+00
       11 -1    0    0    0    0 -0.0000000000e+00 -0.0000000000e+00 -4.5593999997e+01 4.5594000000e+01 5.1100000000e-04 0.0000e+00 -1.0000e+00
       23  2    1    2    0    0 +0.0000000000e+00 +0.0000000000e+00 +0.0000000000e+00 9.1188000000e+01 9.1188000000e+01 1.4839e-15 0.0000e+00
  9900012  1    3    3    0    0 -1.6701224028e+01 +2.2654540304e+01 -3.3037315167e+01 4.7787271044e+01 2.0000000000e+01 5.1557e-02 -1.0000e+00
      -12  1    3    3    0    0 +1.6701224028e+01 -2.2654540304e+01 +3.3037315167e+01 4.3400728956e+01 0.0000000000e+00 0.0000e+00 1.0000e+00
</event>
<event>
 5      1 +2.9511900e-02 9.11880000e+01 7.81616400e-03 1.18400000e-01
      -11 -1    0    0    0    0 +0.0000000000e+00 +0.0000000000e+00 +4.5593999997e+01 4.5594000000e+01 5.1100000000e-04 0.0000e+00 1.0000e+00
       11 -1    0    0    0    0 -0.0000000000e+00 -0.0000000000e+00 -4.5593999997e+01 4.5594000000e+01 5.1100000000e-04 0.0000e+00 -1.0000e+00
       23  2    1    2    0    0 +0.0000000000e+00 +0.0000000000e+00 +0.0000000000e+00 9.1188000000e+01 9.1188000000e+01 9.6785e-15 0.0000e+00
  9900012  1    3    3    0    0 -1.6877456751e+01 +2.7173387993e+01 +2.9332264019e+01 4.7787271044e+01 2.0000000000e+01 1.0010e-01 1.0000e+00
       12  1    3    3    0    0 +1.6877456751e+01 -2.7173387993e+01 -2.9332264019e+01 4.3400728956e+01 0.0000000000e+00 0.0000e+00 -1.0000e+00
</event>
<event>
 5      3 +2.9511900e-02 9.11880000e+01 7.81616400e-03 1.18400000e-01
      -11 -1    0    0    0    0 +0.0000000000e+00 +0.0000000000e+00 +4.5593999997e+01 4.5594000000e+01 5.1100000000e-04 0.0000e+00 1.0000e+00
       11 -1    0    0    0    0 -0.0000000000e+00 -0.0000000000e+00 -4.5593999997e+01 4.5594000000e+01 5.1100000000e-04 0.0000e+00 -1.0000e+00
       23  2    1    2    0    0 +0.0000000000e+00 +0.0000000000e+00 +0.0000000000e+00 9.1188000000e+01 9.1188000000e+01 1.8636e-13 0.0000e+00
  9900012  1    3    3    0    0 +1.3723008343e+01 -3.9548448842e+01 +1.1455239415e+01 4.7787271044e+01 2.0000000000e+01 1.2058e-01 1.0000e+00
       12  1    3    3    0    0 -1.3723008343e+01 +3.9548448842e+01 -1.1455239415e+01 4.3400728956e+01 0.0000000000e+00 0.0000e+00 -1.0000e+00
</event>
<event>
 5      6 +2.9511900e-02 9.11880000e+01 7.81616400e-03 1.18400000e-01
      -11 -1    0    0    0    0 +0.0000000000e+00 +0.0000000000e+00 +4.5593999997e+01 4.5594000000e+01 5.1100000000e-04 0.0000e+00 1.0000e+00
       11 -1    0    0    0    0 -0.0000000000e+00 -0.0000000000e+00 -4.5593999997e+01 4.5594000000e+01 5.1100000000e-04 0.0000e+00 -1.0000e+00
       23  2    1    2    0    0 +0.0000000000e+00 +0.0000000000e+00 +0.0000000000e+00 9.1188000000e+01 9.1188000000e+01 9.1316e-15 0.0000e+00
  9900012  1    3    3    0    0 +3.7801611517e+00 +4.0051570768e+01 -1.6285126175e+01 4.7787271044e+01 2.0000000000e+01 4.0609e-02 -1.0000e+00
      -12  1    3    3    0    0 -3.7801611517e+00 -4.0051570768e+01 +1.6285126175e+01 4.3400728956e+01 0.0000000000e+00 0.0000e+00 1.0000e+00
</event>
<event>
 5      3 +2.9511900e-02 9.11880000e+01 7.81616400e-03 1.18400000e-01
      -11 -1    0    0    0    0 +0.0000000000e+00 +0.0000000000e+00 +4.5593999997e+01 4.5594000000e+01 5.1100000000e-04 0.0000e+00 -1.0000e+00
       11 -1    0    0    0    0 -0.0000000000e+00 -0.0000000000e+00 -4.5593999997e+01 4.5594000000e+01 5.1100000000e-04 0.0000e+00 1.0000e+00
       23  2    1    2    0    0 +0.0000000000e+00 +0.0000000000e+00 +0.0000000000e+00 9.1188000000e+01 9.1188000000e+01 7.0139e-14 0.0000e+00
  9900012  1    3    3    0    0 +2.4683704553e+01 +3.5673855356e+01 -1.3092163532e+00 4.7787271044e+01 2.0000000000e+01 1.0345e-01 1.0000e+00
       12  1    3    3    0    0 -2.4683704553e+01 -3.5673855356e+01 +1.3092163532e+00 4.3400728956e+01 0.0000000000e+00 0.0000e+00 -1.0000e+00
</event>
<event>
 5      4 +2.9511900e-02 9.11880000e+01 7.81616400e-03 1.18400000e-01
      -11 -1    0    0    0    0 +0.0000000000e+00 +0.0000000000e+00 +4.5593999997e+01 4.5594000000e+01 5.1100000000e-04 0.0000e+00 -1.0000e+00
       11 -1    0    0    0    0 -0.0000000000e+00 -0.0000000000e+00 -4.5593999997e+01 4.5594000000e+01 5.1100000000e-04 0.0000e+00 1.0000e+00
       23  2    1    2    0    0 +0.0000000000e+00 +0.0000000000e+00 +0.0000000000e+00 9.1188000000e+01 9.1188000000e+01 3.7968e-14 0.0000e+00
  9900012  1    3    3    0    0 +2.0966040899e+01 -3.5849745695e+01 +1.2603338307e+01 4.7787271044e+01 2.0000000000e+01 5.5317e-02 -1.0000e+00
      -12  1    3    3    0    0 -2.0966040899e+01 +3.5849745695e+01 -1.2603338307e+01 4.3400728956e+01 0.0000000000e+00 0.0000e+00 1.0000e+00
</event>
<event>
 5      5 +2.9511900e-02 9.11880000e+01 7.81616400e-03 1.18400000e-01
      -11 -1    0    0    0    0 +0.0000000000e+00 +0.0000000000e+00 +4.5593999997e+01 4.5594000000e+01 5.1100000000e-04 0.0000e+00 -1.0000e+00
       11 -1    0    0    0    0 -0.0000000000e+00 -0.0000000000e+00 -4.5593999997e+01 4.5594000000e+01 5.1100000000e-04 0.0000e+00 1.0000e+00
       23  2    1    2    0    0 +0.0000000000e+00 +0.0000000000e+00 +0.0000000000e+00 9.1188000000e+01 9.1188000000e+01 1.8142e-14 0.0000e+00
  9900012  1    3    3    0    0 -3.9882888129e+01 -1.6741608882e+01 -3.5632906741e+00 4.7787271044e+01 2.0000000000e+01 3.1343e-01 -1.0000e+00
       12  1    3    3    0    0 +3.9882888129e+01 +1.6741608882e+01 +3.5632906741e+00 4.3400728956e+01 0.0000000000e+00 0.0000e+00 -1.0000e+00
</event>
<event>
 5      7 +2.9511900e-02 9.11880000e+01 7.81616400e-03 1.18400000e-01
      -11 -1    0    0    0    0 +0.0000000000e+00 +0.0000000000e+00 +4.5593999997e+01 4.5594000000e+01 5.1100000000e-04 0.0000e+00 1.0000e+00
       11 -1    0    0    0    0 -0.0000000000e+00 -0.0000000000e+00 -4.5593999997e+01 4.5594000000e+01 5.1100000000e-04 0.0000e+00 -1.0000e+00
       23  2    1    2    0    0 +0.0000000000e+00 +0.0000000000e+00 +0.0000000000e+00 9.1188000000e+01 9.1188000000e+01 4.1746e-15 0.0000e+00
  9900012  1    3    3    0    0 +1.5736203010e+01 +1.5187839355e+01 +3.7487660962e+01 4.7787271044e+01 2.0000000000e+01 1.6481e-01 1.0000e+00
       12  1    3    3    0    0 -1.5736203010e+01 -1.5187839355e+01 -3.7487660962e+01 4.3400728956e+01 0.0000000000e+00 0.0000e+00 -1.0000e+00
</event>
<event>
 5      6 +2.9511900e-02 9.11880000e+01 7.81616400e-03 1.18400000e-01
      -11 -1    0    0    0    0 +0.0000000000e+00 +0.0000000000e+00 +4.5593999997e+01 4.5594000000e+01 5.1100000000e-04 0.0000e+00 1.0000e+00
       11 -1    0    0    0    0 -0.0000000000e+00 -0.0000000000e+00 -4.5593999997e+01 4.5594000000e+01 5.1100000000e-04 0.0000e+00 -1.0000e+00
       23  2    1    2    0    0 +0.0000000000e+00 +0.0000000000e+00 +0.0000000000e+00 9.1188000000e+01 9.1188000000e+01 1.8444e-15 0.0000e+00
  9900012  1    3    3    0    0 +3.8455116698e+01 +1.6889605295e+01 -1.0934738526e+01 4.7787271044e+01 2.0000000000e+01 1.9269e-02 -1.0000e+00
      -12  1    3    3    0    0 -3.8455116698e+01 -1.6889605295e+01 +1.0934738526e+01 4.3400728956e+01 0.0000000000e+00 0.0000e+00 1.0000e+00
</event>
<event>
 5      7 +2.9511900e-02 9.11880000e+01 7.81616400e-03 1.18400000e-01
      -11 -1    0    0    0    0 +0.0000000000e+00 +0.0000000000e+00 +4.5593999997e+01 4.5594000000e+01 5.1100000000e-04 0.0000e+00 1.0000e+00
       11 -1    0    0    0    0 -0.0000000000e+00 -0.0000000000e+00 -4.5593999997e+01 4.5594000000e+01 5.1100000000e-04 0.0000e+00 -1.0000e+00
       23  2    1    2    0    0 +0.0000000000e+00 +0.0000000000e+00 +0.0000000000e+00 9.1188000000e+01 9.1188000000e+01 4.1467e-14 0.0000e+00
  9900012  1    3    3    0    0 +2.1617549586e+01 +3.7556693693e+01 +2.4082322642e+00 4.7787271044e+01 2.0000000000e+01 1.3759e-02 1.0000e+00
       12  1    3    3    0    0 -2.1617549586e+01 -3.7556693693e+01 -2.4082322642e+00 4.3400728956e+01 0.0000000000e+00 0.0000e+00 -1.0000e+00
</event>
<event>
 5      6 +2.9511900e-02 9.11880000e+01 7.81616400e-03 1.18400000e-01
      -11 -1    0    0    0    0 +0.0000000000e+00 +0.0000000000e+00 +4.5593999997e+01 4.5594000000e+01 5.1100000000e-04 0.0000e+00 1.0000e+00
       11 -1    0    0    0    0 -0.0000000000e+00 -0.0000000000e+00 -4.5593999997e+01 4.5594000000e+01 5.1100000000e-04 0.0000e+00 -1.0000e+00
       23  2    1    2    0    0 +0.0000000000e+00 +0.0000000000e+00 +0.0000000000e+00 9.1188000000e+01 9.1188000000e+01 2.2013e-14 0.0000e+00
  9900012  1    3    3    0    0 -1.8045780059e+01 +3.8926717899e+01 -6.5332786254e+00 4.7787271044e+01 2.0000000000e+01 4.5925e-02 1.0000e+00
      -12  1    3    3    0    0 +1.8045780059e+01 -3.8926717899e+01 +6.5332786254e+00 4.3400728956e+01 0.0000000000e+00 0.0000e+00 1.0000e+00
</event>
<event>
 5      1 +2.9511900e-02 9.11880000e+01 7.81616400e-03 1.18400000e-01
      -11 -1    0    0    0    0 +0.0000000000e+00 +0.0000000000e+00 +4.5593999997e+01 4.5594000000e+01 5.1100000000e-04 0.0000e+00 1.0000e+00
       11 -1    0    0    0    0 -0.0000000000e+00 -0.0000000000e+00 -4.5593999997e+01 4.5594000000e+01 5.1100000000e-04 0.0000e+00 -1.0000e+00
       23  2    1    2    0    0 +0.0000000000e+00 +0.0000000000e+00 +0.0000000000e+00 9.1188000000e+01 9.1188000000e+01 2.4099e-14 0.0000e+00
  9900012  1    3    3    0    0 -3.3116246364e+01 -2.7798188663e+01 +3.7680509144e+00 4.7787271044e+01 2.0000000000e+01 1.8602e-01 1.0000e+00
       12  1    3    3    0    0 +3.3116246364e+01 +2.7798188663e+01 -3.7680509144e+00 4.3400728956e+01 0.0000000000e+00 0.0000e+00 -1.0000e+00
</event>
<event>
 5      6 +2.9511900e-02 9.11880000e+01 7.81616400e-03 1.18400000e-01
      -11 -1    0    0    0    0 +0.0000000000e+00 +0.0000000000e+00 +4.5593999997e+01 4.5594000000e+01 5.1100000000e-04 0.0000e+00 -1.0000e+00
       11 -1    0    0    0    0 -0.0000000000e+00 -0.0000000000e+00 -4.5593999997e+01 4.5594000000e+01 5.1100000000e-04 0.0000e+00 1.0000e+00
       23  2    1    2    0    0 +0.0000000000e+00 +0.0000000000e+00 +0.0000000000e+00 9.1188000000e+01 9.1188000000e+01 1.2708e-14 0.0000e+00
  9900012  1    3    3    0    0 -3.7915247226e+01 -7.6947691603e+00 +1.9668447555e+01 4.7787271044e+01 2.0000000000e+01 5.4698e-03 -1.0000e+00
      -12  1    3    3    0    0 +3.7915247226e+01 +7.6947691603e+00 -1.9668447555e+01 4.3400728956e+01 0.0000000000e+00 0.0000e+00 1.0000e+00
</event>
<event>
 5      8 +2.9511900e-02 9.11880000e+01 7.81616400e-03 1.18400000e-01
      -11 -1    0    0    0    0 +0.0000000000e+00 +0.0000000000e+00 +4.5593999997e+01 4.5594000000e+01 5.1100000000e-04 0.0000e+00 -1.0000e+00
       11 -1    0    0    0    0 -0.0000000000e+00 -0.0000000000e+00 -4.5593999997e+01 4.5594000000e+01 5.1100000000e-04 0.0000e+00 1.0000e+00
       23  2    1    2    0    0 +0.0000000000e+00 +0.0000000000e+00 +0.0000000000e+00 9.1188000000e+01 9.1188000000e+01 2.1165e-14 0.0000e+00
  9900012  1    3    3    0    0 -2.6411827116e+01 -3.9960320056e+00 +3.4206291680e+01 4.7787271044e+01 2.0000000000e+01 2.1005e-01 -1.0000e+00
      -12  1    3    3    0    0 +2.6411827116e+01 +3.9960320056e+00 -3.4206291680e+01 4.3400728956e+01 0.0000000000e+00 0.0000e+00 1.0000e+00
</event>
<event>
 5      8 +2.9511900e-02 9.11880000e+01 7.81616400e-03 1.18400000e-01
      -11 -1    0    0    0    0 +0.0000000000e+00 +0.0000000000e+00 +4.5593999997e+01 4.5594000000e+01 5.1100000000e-04 0.0000e+00 1.0000e+00
       11 -1    0    0    0    0 -0.0000000000e+00 -0.0000000000e+00 -4.5593999997e+01 4.5594000000e+01 5.1100000000e-04 0.0000e+00 -1.0000e+00
       23  2    1    2    0    0 +0.0000000000e+00 +0.0000000000e+00 +0.0000000000e+00 9.1188000000e+01 9.1188000000e+01 8.3604e-15 0.0000e+00
  9900012  1    3    3    0    0 +3.1525656150e+01 +2.7432551878e+01 +1.1713725951e+01 4.7787271044e+01 2.0000000000e+01 5.8830e-03 1.0000e+00
      -12  1    3    3    0    0 -3.1525656150e+01 -2.7432551878e+01 -1.1713725951e+01 4.3400728956e+01 0.0000000000e+00 0.0000e+00 1.0000e+00
</event>
<event>
 5      3 +2.9511900e-02 9.11880000e+01 7.81616400e-03 1.18400000e-01
      -11 -1    0    0    0    0 +0.0000000000e+00 +0.0000000000e+00 +4.5593999997e+01 4.5594000000e+01 5.1100000000e-04 0.0000e+00 -1.0000e+00
       11 -1    0    0    0    0 -0.0000000000e+00 -0.0000000000e+00 -4.5593999997e+01 4.5594000000e+01 5.1100000000e-04 0.0000e+00 1.0000e+00
       23  2    1    2    0    0 +0.0000000000e+00 +0.0000000000e+00 +0.0000000000e+00 9.1188000000e+01 9.1188000000e+01 1.1253e-13 0.0000e+00
  9900012  1    3    3    0    0 +6.8588071518e+00 -3.6887396125e+01 -2.1815133404e+01 4.7787271044e+01 2.0000000000e+01 1.9582e-01 1.0000e+00
       12  1    3    3    0    0 -6.8588071518e+00 +3.6887396125e+01 +2.1815133404e+01 4.3400728956e+01 0.0000000000e+00 0.0000e+00 -1.0000e+00
</event>
<event>
 5      4 +2.9511900e-02 9.11880000e+01 7.81616400e-03 1.18400000e-01
      -11 -1    0    0    0    0 +0.0000000000e+00 +0.0000000000e+00 +4.5593999997e+01 4.5594000000e+01 5.1100000000e-04 0.0000e+00 1.0000e+00
       11 -1    0    0    0    0 -0.0000000000e+00 -0.0000000000e+00 -4.5593999997e+01 4.5594000000e+01 5.1100000000e-04 0.0000e+00 -1.0000e+00
       23  2    1    2    0    0 +0.0000000000e+00 +0.0000000000e+00 +0.0000000000e+00 9.1188000000e+01 9.1188000000e+01 2.2781e-14 0.0000e+00
  9900012  1    3    3    0    0 +4.1034304036e+01 +6.7741764995e-01 -1.4119145565e+01 4.7787271044e+01 2.0000000000e+01 1.4140e-01 -1.0000e+00
      -12  1    3    3    0    0 -4.1034304036e+01 -6.7741764995e-01 +1.4119145565e+01 4.3400728956e+01 0.0000000000e+00 0.0000e+00 1.0000e+00
</event>
<event>
 5      4 +2.9511900e-02 9.11880000e+01 7.81616400e-03 1.18400000e-01
      -11 -1    0    0    0    0 +0.0000000000e+00 +0.0000000000e+00 +4.5593999997e+01 4.5594000000e+01 5.1100000000e-04 0.0000e+00 -1.0000e+00
       11 -1    0    0    0    0 -0.0000000000e+00 -0.0000000000e+00 -4.5593999997e+01 4.5594000000e+01 5.1100000000e-04 0.0000e+00 1.0000e+00
       23  2    1    2    0    0 +0.0000000000e+00 +0.0000000000e+00 +0.0000000000e+00 9.1188000000e+01 9.1188000000e+01 1.4540e-13 0.0000e+00
  9900012  1    3    3    0    0 +2.4434505084e+01 -1.0526966547e+01 +3.4289374600e+01 4.7787271044e+01 2.0000000000e+01 2.5546e-01 -1.0000e+00
      -12  1    3    3    0    0 -2.4434505084e+01 +1.0526966547e+01 -3.4289374600e+01 4.3400728956e+01 0.0000000000e+00 0.0000e+00 1.0000e+00
</event>
<event>
 5      1 +2.9511900e-02 9.11880000e+01 7.81616400e-03 1.18400000e-01
      -11 -1    0    0    0    0 +0.0000000000e+00 +0.0000000000e+00 +4.5593999997e+01 4.5594000000e+01 5.1100000000e-04 0.0000e+00 -1.0000e+00
       11 -1    0    0    0    0 -0.0000000000e+00 -0.0000000000e+00 -4.5593999997e+01 4.5594000000e+01 5.1100000000e-04 0.0000e+00 1.0000e+00
       23  2    1    2    0    0 +0.0000000000e+00 +0.0000000000e+00 +0.0000000000e+00 9.1188000000e+01 9.1188000000e+01 1.0901e-13 0.0000e+00
  9900012  1    3    3    0    0 +1.7677015474e+01 +3.9502593055e+01 -3.2697919985e+00 4.7787271044e+01 2.0000000000e+01 4.9472e-02 1.0000e+00
       12  1    3    3    0    0 -1.7677015474e+01 -3.9502593055e+01 +3.2697919985e+00 4.3400728956e+01 0.0000000000e+00 0.0000e+00 -1.0000e+00
</event>
<event>
 5      8 +2.9511900e-02 9.11880000e+01 7.81616400e-03 1.18400000e-01
      -11 -1    0    0    0    0 +0.0000000000e+00 +0.0000000000e+00 +4.5593999997e+01 4.5594000000e+01 5.1100000000e-04 0.0000e+00 1.0000e+00
       11 -1    0    0    0    0 -0.0000000000e+00 -0.0000000000e+00 -4.5593999997e+01 4.5594000000e+01 5.1100000000e-04 0.0000e+00 -1.0000e+00
       23  2    1    2    0    0 +0.0000000000e+00 +0.0000000000e+00 +0.0000000000e+00 9.1188000000e+01 9.1188000000e+01 9.3908e-14 0.0000e+00
  9900012  1    3    3    0    0 +1.1831790139e+00 -4.3348065423e+01 -1.7800520717e+00 4.7787271044e+01 2.0000000000e+01 3.9496e-02 -1.0000e+00
      -12  1    3    3    0    0 -1.1831790139e+00 +4.3348065423e+01 +1.7800520717e+00 4.3400728956e+01 0.0000000000e+00 0.0000e+00 1.0000e+00
</event>
<event>
 5      1 +2.9511900e-02 9.11880000e+01 7.81616400e-03 1.18400000e-01
      -11 -1    0    0    0    0 +0.0000000000e+00 +0.0000000000e+00 +4.5593999997e+01 4.5594000000e+01 5.1100000000e-04 0.0000e+00 1.0000e+00
       11 -1    0    0    0    0 -0.0000000000e+00 -0.0000000000e+00 -4.5593999997e+01 4.5594000000e+01 5.1100000000e-04 0.0000e+00 -1.0000e+00
       23  2    1    2    0    0 +0.0000000000e+00 +0.0000000000e+00 +0.0000000000e+00 9.1188000000e+01 9.1188000000e+01 4.2560e-14 0.0000e+00
  9900012  1    3    3    0    0 -3.7874170715e+01 -6.2437292786e+00 +2.0253056836e+01 4.7787271044e+01 2.0000000000e+01 4.4131e-02 1.0000e+00
       12  1    3    3    0    0 +3.7874170715e+01 +6.2437292786e+00 -2.0253056836e+01 4.3400728956e+01 0.0000000000e+00 0.0000e+00 -1.0000e+00
</event>
<event>
 5      4 +2.9511900e-02 9.11880000e+01 7.81616400e-03 1.18400000e-01
      -11 -1    0    0    0    0 +0.0000000000e+00 +0.0000000000e+00 +4.5593999997e+01 4.5594000000e+01 5.1100000000e-04 0.0000e+00 1.0000e+00
       11 -1    0    0    0    0 -0.0000000000e+00 -0.0000000000e+00 -4.5593999997e+01 4.5594000000e+01 5.1100000000e-04 0.0000e+00 -1.0000e+00
       23  2    1    2    0    0 +0.0000000000e+00 +0.0000000000e+00 +0.0000000000e+00 9.1188000000e+01 9.1188000000e+01 2.2825e-14 0.0000e+00
  9900012  1    3    3    0    0 -3.5840060896e+01 -1.7935699359e+01 -1.6656049873e+01 4.7787271044e+01 2.0000000000e+01 6.0405e-03 -1.0000e+00
      -12  1    3    3    0    0 +3.5840060896e+01 +1.7935699359e+01 +1.6656049873e+01 4.3400728956e+01 0.0000000000e+00 0.0000e+00 1.0000e+00
</event>
<event>
 5      2 +2.9511900e-02 9.11880000e+01 7.81616400e-03 1.18400000e-01
      -11 -1    0    0    0    0 +0.0000000000e+00 +0.0000000000e+00 +4.5593999997e+01 4.5594000000e+01 5.1100000000e-04 0.0000e+00 1.0000e+00
       11 -1    0    0    0    0 -0.0000000000e+00 -0.0000000000e+00 -4.5593999997e+01 4.5594000000e+01 5.1100000000e-04 0.0000e+00 -1.0000e+00
       23  2    1    2    0    0 +0.0000000000e+00 +0.0000000000e+00 +0.0000000000e+00 9.1188000000e+01 9.1188000000e+01 1.0866e-13 0.0000e+00
  9900012  1    3    3    0    0 +7.5378571435e+00 +1.9577763900e+01 -3.7993619783e+01 4.7787271044e+01 2.0000000000e+01 2.2534e-01 -1.0000e+00
      -12  1    3    3    0    0 -7.5378571435e+00 -1.9577763900e+01 +3.7993619783e+01 4.3400728956e+01 0.0000000000e+00 0.0000e+00 1.0000e+00
</event>
<event>
 5      3 +2.9511900e-02 9.11880000e+01 7.81616400e-03 1.18400000e-01
      -11 -1    0    0    0    0 +0.0000000000e+00 +0.0000000000e+00 +4.5593999997e+01 4.5594000000e+01 5.1100000000e-04 0.0000e+00 -1.0000e+00
       11 -1    0    0    0    0 -0.0000000000e+00 -0.0000000000e+00 -4.5593999997e+01 4.5594000000e+01 5.1100000000e-04 0.0000e+00 1.0000e+00
       23  2    1    2    0    0 +0.0000000000e+00 +0.0000000000e+00 +0.0000000000e+00 9.1188000000e+01 9.1188000000e+01 6.5847e-14 0.0000e+00
  9900012  1    3    3    0    0 -5.7351579104e-01 -8.6386646027e+00 -4.2528435515e+01 4.7787271044e+01 2.0000000000e+01 7.9803e-02 1.0000e+00
       12  1    3    3    0    0 +5.7351579104e-01 +8.6386646027e+00 +4.2528435515e+01 4.3400728956e+01 0.0000000000e+00 0.0000e+00 -1.0000e+00
</event>
<event>
 5      4 +2.9511900e-02 9.11880000e+01 7.81616400e-03 1.18400000e-01
      -11 -1    0    0    0    0 +0.0000000000e+00 +0.0000000000e+00 +4.5593999997e+01 4.5594000000e+01 5.1100000000e-04 0.0000e+00 -1.0000e+00
       11 -1    0    0    0    0 -0.0000000000e+00 -0.0000000000e+00 -4.5593999997e+01 4.5594000000e+01 5.1100000000e-04 0.0000e+00 1.0000e+00
       23  2    1    2    0    0 +0.0000000000e+00 +0.0000000000e+00 +0.0000000000e+00 9.1188000000e+01 9.1188000000e+01 1.1137e-14 0.0000e+00
  9900012  1    3    3    0    0 -5.0474982138e+00 +4.3054737213e+01 -2.1060957112e+00 4.7787271044e+01 2.0000000000e+01 1.5507e-01 -1.0000e+00
      -12  1    3    3    0    0 +5.0474982138e+00 -4.3054737213e+01 +2.1060957112e+00 4.3400728956e+01 0.0000000000e+00 0.0000e+00 1.0000e+00
</event>
<event>
 5      7 +2.9511900e-02 9.11880000e+01 7.81616400e-03 1.18400000e-01
      -11 -1    0    0    0    0 +0.0000000000e+00 +0.0000000000e+00 +4.5593999997e+01 4.5594000000e+01 5.1100000000e-04 0.0000e+00 1.0000e+00
       11 -1    0    0    0    0 -0.0000000000e+00 -0.0000000000e+00 -4.5593999997e+01 4.5594000000e+01 5.1100000000e-04 0.0000e+00 -1.0000e+00
       23  2    1    2    0    0 +0.0000000000e+00 +0.0000000000e+00 +0.0000000000e+00 9.1188000000e+01 9.1188000000e+01 5.1320e-14 0.0000e+00
  9900012  1    3    3    0    0 +1.0042439941e+01 -3.9093105147e+01 +1.5953112671e+01 4.7787271044e+01 2.0000000000e+01 3.0219e-01 1.0000e+00
       12  1    3    3    0    0 -1.0042439941e+01 +3.9093105147e+01 -1.5953112671e+01 4.3400728956e+01 0.0000000000e+00 0.0000e+00 -1.0000e+00
</event>
<event>
 5      1 +2.9511900e-02 9.11880000e+01 7.81616400e-03 1.18400000e-01
      -11 -1    0    0    0    0 +0.0000000000e+00 +0.0000000000e+00 +4.5593999997e+01 4.5594000000e+01 5.1100000000e-04 0.0000e+00 1.0000e+00
       11 -1    0    0    0    0 -0.0000000000e+00 -0.0000000000e+00 -4.5593999997e+01 4.5594000000e+01 5.1100000000e-04 0.0000e+00 -1.0000e+00
       23  2    1    2    0    0 +0.0000000000e+00 +0.0000000000e+00 +0.0000000000e+00 9.1188000000e+01 9.1188000000e+01 4.4000e-14 0.0000e+00
  9900012  1    3    3    0    0 -1.0356742601e+01 -2.2258388646e+01 +3.5790016645e+01 4.7787271044e+01 2.0000000000e+01 5.0557e-01 1.0000e+00
       12  1    3    3    0    0 +1.0356742601e+01 +2.2258388646e+01 -3.5790016645e+01 4.3400728956e+01 0.0000000000e+00 0.0000e+00 -1.0000e+00
</event>
<event>
 5      1 +2.9511900e-02 9.11880000e+01 7.81616400e-03 1.18400000e-01
      -11 -1    0    0    0    0 +0.0000000000e+00 +0.0000000000e+00 +4.5593999997e+01 4.5594000000e+01 5.1100000000e-04 0.0000e+00 -1.0000e+00
       11 -1    0    0    0    0 -0.0000000000e+00 -0.0000000000e+00 -4.5593999997e+01 4.5594000000e+01 5.1100000000e-04 0.0000e+00 1.0000e+00
       23  2    1    2    0    0 +0.0000000000e+00 +0.0000000000e+00 +0.0000000000e+00 9.1188000000e+01 9.1188000000e+01 2.5419e-14 0.0000e+00
  9900012  1    3    3    0    0 +3.0763555611e+01 +1.2616068126e+01 -2.7893758174e+01 4.7787271044e+01 2.0000000000e+01 2.4398e-01 1.0000e+00
       12  1    3    3    0    0 -3.0763555611e+01 -1.2616068126e+01 +2.7893758174e+01 4.3400728956e+01 0.0000000000e+00 0.0000e+00 -1.0000e+00
</event>
<event>
 5      8 +2.9511900e-02 9.11880000e+01 7.81616400e-03 1.18400000e-01
      -11 -1    0    0    0    0 +0.0000000000e+00 +0.0000000000e+00 +4.5593999997e+01 4.5594000000e+01 5.1100000000e-04 0.0000e+00 1.0000e+00
       11 -1    0    0    0    0 -0.0000000000e+00 -0.0000000000e+00 -4.5593999997e+01 4.5594000000e+01 5.1100000000e-04 0.0000e+00 -1.0000e+00
       23  2    1    2    0    0 +0.0000000000e+00 +0.0000000000e+00 +0.0000000000e+00 9.1188000000e+01 9.1188000000e+01 1.0324e-13 0.0000e+00
  9900012  1    3    3    0    0 +5.9220035139e+00 +1.8357527415e+01 -3.8878713140e+01 4.7787271044e+01 2.0000000000e+01 1.3297e-01 -1.0000e+00
      -12  1    3    3    0    0 -5.9220035139e+00 -1.8357527415e+01 +3.8878713140e+01 4.3400728956e+01 0.0000000000e+00 0.0000e+00 1.0000e+00
</event>
<event>
 5      2 +2.9511900e-02 9.11880000e+01 7.81616400e-03 1.18400000e-01
      -11 -1    0    0    0    0 +0.0000000000e+00 +0.0000000000e+00 +4.5593999997e+01 4.5594000000e+01 5.1100000000e-04 0.0000e+00 -1.0000e+00
       11 -1    0    0    0    0 -0.0000000000e+00 -0.0000000000e+00 -4.5593999997e+01 4.5594000000e+01 5.1100000000e-04 0.0000e+00 1.0000e+00
       23  2    1    2    0    0 +0.0000000000e+00 +0.0000000000e+00 +0.0000000000e+00 9.1188000000e+01 9.1188000000e+01 8.8373e-14 0.0000e+00
  9900012  1    3    3    0    0 -1.6205113765e+01 -4.8882276719e+00 +3.9964018716e+01 4.7787271044e+01 2.0000000000e+01 3.8252e-02 -1.0000e+00
      -12  1    3    3    0    0 +1.6205113765e+01 +4.8882276719e+00 -3.9964018716e+01 4.3400728956e+01 0.0000000000e+00 0.0000e+00 1.0000e+00
</event>
<event>
 5      6 +2.9511900e-02 9.11880000e+01 7.81616400e-03 1.18400000e-01
      -11 -1    0    0    0    0 +0.0000000000e+00 +0.0000000000e+00 +4.5593999997e+01 4.5594000000e+01 5.1100000000e-04 0.0000e+00 1.0000e+00
       11 -1    0    0    0    0 -0.0000000000e+00 -0.0000000000e+00 -4.5593999997e+01 4.5594000000e+01 5.1100000000e-04 0.0000e+00 -1.0000e+00
       23  2    1    2    0    0 +0.0000000000e+00 +0.0000000000e+00 +0.0000000000e+00 9.1188000000e+01 9.1188000000e+01 3.9841e-14 0.0000e+00
  9900012  1    3    3    0    0 -1.6348038732e+01 +1.2743837551e+01 -3.8130820972e+01 4.7787271044e+01 2.0000000000e+01 2.6476e-01 -1.0000e+00
      -12  1    3    3    0    0 +1.6348038732e+01 -1.2743837551e+01 +3.8130820972e+01 4.3400728956e+01 0.0000000000e+00 0.0000e+00 1.0000e+00
</event>
<event>
 5      3 +2.9511900e-02 9.11880000e+01 7.81616400e-03 1.18400000e-01
      -11 -1    0    0    0    0 +0.0000000000e+00 +0.0000000000e+00 +4.5593999997e+01 4.5594000000e+01 5.1100000000e-04 0.0000e+00 -1.0000e+00
       11 -1    0    0    0    0 -0.0000000000e+00 -0.0000000000e+00 -4.5593999997e+01 4.5594000000e+01 5.1100000000e-04 0.0000e+00 1.0000e+00
       23  2    1    2    0    0 +0.0000000000e+00 +0.0000000000e+00 +0.0000000000e+00 9.1188000000e+01 9.1188000000e+01 8.1833e-14 0.0000e+00
  9900012  1    3    3    0    0 -2.8661513350e+01 +2.3136126710e+01 -2.2953443472e+01 4.7787271044e+01 2.0000000000e+01 2.0801e-03 1.0000e+00
       12  1    3    3    0    0 +2.8661513350e+01 -2.3136126710e+01 +2.2953443472e+01 4.3400728956e+01 0.0000000000e+00 0.0000e+00 -1.0000e+00
</event>
<event>
 5      8 +2.9511900e-02 9.11880000e+01 7.81616400e-03 1.18400000e-01
      -11 -1    0    0    0    0 +0.0000000000e+00 +0.0000000000e+00 +4.5593999997e+01 4.5594000000e+01 5.1100000000e-04 0.0000e+00 -1.0000e+00
       11 -1    0    0    0    0 -0.0000000000e+00 -0.0000000000e+00 -4.5593999997e+01 4.5594000000e+01 5.1100000000e-04 0.0000e+00 1.0000e+00
       23  2    1    2    0    0 +0.0000000000e+00 +0.0000000000e+00 +0.0000000000e+00 9.1188000000e+01 9.1188000000e+01 1.0455e-13 0.0000e+00
  9900012  1    3    3    0    0 -5.9953423376e+00 +1.9871717923e+01 +3.8115534509e+01 4.7787271044e+01 2.0000000000e+01 3.0069e-02 -1.0000e+00
      -12  1    3    3    0    0 +5.9953423376e+00 -1.9871717923e+01 -3.8115534509e+01 4.3400728956e+01 0.0000000000e+00 0.0000e+00 1.0000e+00
</event>
<event>
 5      1 +2.9511900e-02 9.11880000e+01 7.81616400e-03 1.18400000e-01
      -11 -1    0    0    0    0 +0.0000000000e+00 +0.0000000000e+00 +4.5593999997e+01 4.5594000000e+01 5.1100000000e-04 0.0000e+00 1.0000e+00
       11 -1    0    0    0    0 -0.0000000000e+00 -0.0000000000e+00 -4.5593999997e+01 4.5594000000e+01 5.1100000000e-04 0.0000e+00 -1.0000e+00
       23  2    1    2    0    0 +0.0000000000e+00 +0.0000000000e+00 +0.0000000000e+00 9.1188000000e+01 9.1188000000e+01 4.4741e-13 0.0000e+00
  9900012  1    3    3    0    0 +1.1241925737e+01 +3.8584410990e+01 +1.6385530451e+01 4.7787271044e+01 2.0000000000e+01 1.1059e-01 1.0000e+00
       12  1    3    3    0    0 -1.1241925737e+01 -3.8584410990e+01 -1.6385530451e+01 4.3400728956e+01 0.0000000000e+00 0.0000e+00 -1.0000e+00
</event>
<event>
 5      2 +2.9511900e-02 9.11880000e+01 7.81616400e-03 1.18400000e-01
      -11 -1    0    0    0    0 +0.0000000000e+00 +0.0000000000e+00 +4.5593999997e+01 4.5594000000e+01 5.1100000000e-04 0.0000e+00 1.0000e+00
       11 -1    0    0    0    0 -0.0000000000e+00 -0.0000000000e+00 -4.5593999997e+01 4.5594000000e+01 5.1100000000e-04 0.0000e+00 -1.0000e+00
       23  2    1    2    0    0 +0.0000000000e+00 +0.0000000000e+00 +0.0000000000e+00 9.1188000000e+01 9.1188000000e+01 8.5663e-15 0.0000e+00
  9900012  1    3    3    0    0 -4.8189365260e-01 +2.2700635725e+01 -3.6987459903e+01 4.7787271044e+01 2.0000000000e+01 2.0388e-01 -1.0000e+00
      -12  1    3    3    0    0 +4.8189365260e-01 -2.2700635725e+01 +3.6987459903e+01 4.3400728956e+01 0.0000000000e+00 0.0000e+00 1.0000e+00
</event>
<event>
 5      1 +2.9511900e-02 9.11880000e+01 7.81616400e-03 1.18400000e-01
      -11 -1    0    0    0    0 +0.0000000000e+00 +0.0000000000e+00 +4.5593999997e+01 4.5594000000e+01 5.1100000000e-04 0.0000e+00 1.0000e+00
       11 -1    0    0    0    0 -0.0000000000e+00 -0.0000000000e+00 -4.5593999997e+01 4.5594000000e+01 5.1100000000e-04 0.0000e+00 -1.0000e+00
       23  2    1    2    0    0 +0.0000000000e+00 +0.0000000000e+00 +0.0000000000e+00 9.1188000000e+01 9.1188000000e+01 1.7736e-14 0.0000e+00
  9900012  1    3    3    0    0 +1.1865716052e+01 +3.8507312544e+01 +1.6124978668e+01 4.7787271044e+01 2.0000000000e+01 1.0933e-01 1.0000e+00
       12  1    3    3    0    0 -1.1865716052e+01 -3.8507312544e+01 -1.6124978668e+01 4.3400728956e+01 0.0000000000e+00 0.0000e+00 -1.0000e+00
</event>
<event>
 5      2 +2.9511900e-02 9.11880000e+01 7.81616400e-03 1.18400000e-01
      -11 -1    0    0    0    0 +0.0000000000e+00 +0.0000000000e+00 +4.5593999997e+01 4.5594000000e+01 5.1100000000e-04 0.0000e+00 -1.0000e+00
       11 -1    0    0    0    0 -0.0000000000e+00 -0.0000000000e+00 -4.5593999997e+01 4.5594000000e+01 5.1100000000e-04 0.0000e+00 1.0000e+00
       23  2    1    2    0    0 +0.0000000000e+00 +0.0000000000e+00 +0.0000000000e+00 9.1188000000e+01 9.1188000000e+01 5.1784e-14 0.0000e+00
  9900012  1    3    3    0    0 +1.3531190908e+01 +1.5419326410e+01 +3.8246235364e+01 4.7787271044e+01 2.0000000000e+01 2.4046e-01 -1.0000e+00
      -12  1    3    3    0    0 -1.3531190908e+01 -1.5419326410e+01 -3.8246235364e+01 4.3400728956e+01 0.0000000000e+00 0.0000e+00 1.0000e+00
</event>
<event>
 5      5 +2.9511900e-02 9.11880000e+01 7.81616400e-03 1.18400000e-01
      -11 -1    0    0    0    0 +0.0000000000e+00 +0.0000000000e+00 +4.5593999997e+01 4.5594000000e+01 5.1100000000e-04 0.0000e+00 1.0000e+00
       11 -1    0    0    0    0 -0.0000000000e+00 -0.0000000000e+00 -4.5593999997e+01 4.5594000000e+01 5.1100000000e-04 0.0000e+00 -1.0000e+00
       23  2    1    2    0    0 +0.0000000000e+00 +0.0000000000e+00 +0.0000000000e+00 9.1188000000e+01 9.1188000000e+01 1.3381e-14 0.0000e+00
  9900012  1    3    3    0    0 +3.3381861047e+01 -1.9865588741e+01 +1.9355438794e+01 4.7787271044e+01 2.0000000000e+01 1.7289e-01 1.0000e+00
       12  1    3    3    0    0 -3.3381861047e+01 +1.9865588741e+01 -1.9355438794e+01 4.3400728956e+01 0.0000000000e+00 0.0000e+00 -1.0000e+00
</event>
<event>
 5      6 +2.9511900e-02 9.11880000e+01 7.81616400e-03 1.18400000e-01
      -11 -1    0    0    0    0 +0.0000000000e+00 +0.0000000000e+00 +4.5593999997e+01 4.5594000000e+01 5.1100000000e-04 0.0000e+00 1.0000e+00
       11 -1    0    0    0    0 -0.0000000000e+00 -0.0000000000e+00 -4.5593999997e+01 4.5594000000e+01 5.1100000000e-04 0.0000e+00 -1.0000e+00
       23  2    1    2    0    0 +0.0000000000e+00 +0.0000000000e+00 +0.0000000000e+00 9.1188000000e+01 9.1188000000e+01 3.4928e-14 0.0000e+00
  9900012  1    3    3    0    0 +1.4763679519e+01 -1.6583603241e+01 -3.7291301191e+01 4.7787271044e+01 2.0000000000e+01 2.2585e-01 -1.0000e+00
      -12  1    3    3    0    0 -1.4763679519e+01 +1.6583603241e+01 +3.7291301191e+01 4.3400728956e+01 0.0000000000e+00 0.0000e+00 1.0000e+00
</event>
<event>
 5      8 +2.9511900e-02 9.11880000e+01 7.81616400e-03 1.18400000e-01
      -11 -1    0    0    0    0 +0.0000000000e+00 +0.0000000000e+00 +4.5593999997e+01 4.5594000000e+01 5.1100000000e-04 0.0000e+00 1.0000e+00
       11 -1    0    0    0    0 -0.0000000000e+00 -0.0000000000e+00 -4.5593999997e+01 4.5594000000e+01 5.1100000000e-04 0.0000e+00 -1.0000e+00
       23  2    1    2    0    0 +0.0000000000e+00 +0.0000000000e+00 +0.0000000000e+00 9.1188000000e+01 9.1188000000e+01 5.6162e-15 0.0000e+00
  9900012  1    3    3    0    0 -3.5313207370e+01 +1.5203130985e+01 -2.0136173107e+01 4.7787271044e+01 2.0000000000e+01 5.7365e-02 -1.0000e+00
      -12  1    3    3    0    0 +3.5313207370e+01 -1.5203130985e+01 +2.0136173107e+01 4.3400728956e+01 0.0000000000e+00 0.0000e+00 1.0000e+00
</event>
<event>
 5      1 +2.9511900e-02 9.11880000e+01 7.81616400e-03 1.18400000e-01
      -11 -1    0    0    0    0 +0.0000000000e+00 +0.0000000000e+00 +4.5593999997e+01 4.5594000000e+01 5.1100000000e-04 0.0000e+00 -1.0000e+00
       11 -1    0    0    0    0 -0.0000000000e+00 -0.0000000000e+00 -4.5593999997e+01 4.5594000000e+01 5.1100000000e-04 0.0000e+00 1.0000e+00
       23  2    1    2    0    0 +0.0000000000e+00 +0.0000000000e+00 +0.0000000000e+00 9.1188000000e+01 9.1188000000e+01 3.3173e-13 0.0000e+00
  9900012  1    3    3    0    0 -2.0733903202e+01 +3.2048906364e+01 -2.0654203756e+01 4.7787271044e+01 2.0000000000e+01 4.4262e-01 1.0000e+00
       12  1    3    3    0    0 +2.0733903202e+01 -3.2048906364e+01 +2.0654203756e+01 4.3400728956e+01 0.0000000000e+00 0.0000e+00 -1.0000e+00
</event>
<event>
 5      6 +2.9511900e-02 9.11880000e+01 7.81616400e-03 1.18400000e-01
      -11 -1    0    0    0    0 +0.0000000000e+00 +0.0000000000e+00 +4.5593999997e+01 4.5594000000e+01 5.1100000000e-04 0.0000e+00 -1.0000e+00
       11 -1    0    0    0    0 -0.0000000000e+00 -0.0000000000e+00 -4.5593999997e+01 4.5594000000e+01 5.1100000000e-04 0.0000e+00 1.0000e+00
       23  2    1    2    0    0 +0.0000000000e+00 +0.0000000000e+00 +0.0000000000e+00 9.1188000000e+01 9.1188000000e+01 2.2378e-14 0.0000e+00
  9900012  1    3    3    0    0 +4.0286117794e+01 -3.1693257628e+00 +1.5830583097e+01 4.7787271044e+01 2.0000000000e+01 2.8530e-01 -1.0000e+00
      -12  1    3    3    0    0 -4.0286117794e+01 +3.1693257628e+00 -1.5830583097e+01 4.3400728956e+01 0.0000000000e+00 0.0000e+00 1.0000e+00
</event>
<event>
 5      7 +2.9511900e-02 9.11880000e+01 7.81616400e-03 1.18400000e-01
      -11 -1    0    0    0    0 +0.0000000000e+00 +0.0000000000e+00 +4.5593999997e+01 4.5594000000e+01 5.1100000000e-04 0.0000e+00 -1.0000e+00
       11 -1    0    0    0    0 -0.0000000000e+00 -0.0000000000e+00 -4.5593999997e+01 4.5594000000e+01 5.1100000000e-04 0.0000e+00 1.0000e+00
       23  2    1    2    0    0 +0.0000000000e+00 +0.0000000000e+00 +0.0000000000e+00 9.1188000000e+01 9.1188000000e+01 1.2986e-13 0.0000e+00
  9900012  1    3    3    0    0 -3.1228172499e+00 -2.0045538383e+01 -3.8367273519e+01 4.7787271044e+01 2.0000000000e+01 2.1097e-02 1.0000e+00
       12  1    3    3    0    0 +3.1228172499e+00 +2.0045538383e+01 +3.8367273519e+01 4.3400728956e+01 0.0000000000e+00 0.0000e+00 -1.0000e+00
</event>
<event>
 5      7 +2.9511900e-02 9.11880000e+01 7.81616400e-03 1.18400000e-01
      -11 -1    0    0    0    0 +0.0000000000e+00 +0.0000000000e+00 +4.5593999997e+01 4.5594000000e+01 5.1100000000e-04 0.0000e+00 -1.0000e+00
       11 -1    0    0    0    0 -0.0000000000e+00 -0.0000000000e+00 -4.5593999997e+01 4.5594000000e+01 5.1100000000e-04 0.0000e+00 1.0000e+00
       23  2    1    2    0    0 +0.0000000000e+00 +0.0000000000e+00 +0.0000000000e+00 9.1188000000e+01 9.1188000000e+01 1.2808e-13 0.0000e+00
  9900012  1    3    3    0    0 -9.3601857723e+00 -2.5722431109e+01 -3.3680361252e+01 4.7787271044e+01 2.0000000000e+01 2.3637e-02 1.0000e+00
       12  1    3    3    0    0 +9.3601857723e+00 +2.5722431109e+01 +3.3680361252e+01 4.3400728956e+01 0.0000000000e+00 0.0000e+00 -1.0000e+00
</event>
<event>
 5      2 +2.9511900e-02 9.11880000e+01 7.81616400e-03 1.18400000e-01
      -11 -1    0    0    0    0 +0.0000000000e+00 +0.0000000000e+00 +4.5593999997e+01 4.5594000000e+01 5.1100000000e-04 0.0000e+00 1.0000e+00
       11 -1    0    0    0    0 -0.0000000000e+00 -0.0000000000e+00 -4.5593999997e+01 4.5594000000e+01 5.1100000000e-04 0.0000e+00 -1.0000e+00
       23  2    1    2    0    0 +0.0000000000e+00 +0.0000000000e+00 +0.0000000000e+00 9.1188000000e+01 9.1188000000e+01 1.2077e-14 0.0000e+00
  9900012  1    3    3    0    0 +1.4002730394e+01 +2.8230993270e+01 -2.9842215641e+01 4.7787271044e+01 2.0000000000e+01 3.0068e-02 -1.0000e+00
      -12  1    3    3    0    0 -1.4002730394e+01 -2.8230993270e+01 +2.9842215641e+01 4.3400728956e+01 0.0000000000e+00 0.0000e+00 1.0000e+00
</event>
<event>
 5      8 +2.9511900e-02 9.11880000e+01 7.81616400e-03 1.18400000e-01
      -11 -1    0    0    0    0 +0.0000000000e+00 +0.0000000000e+00 +4.5593999997e+01 4.5594000000e+01 5.1100000000e-04 0.0000e+00 -1.0000e+00
       11 -1    0    0    0    0 -0.0000000000e+00 -0.0000000000e+00 -4.5593999997e+01 4.5594000000e+01 5.1100000000e-04 0.0000e+00 1.0000e+00
       23  2    1    2    0    0 +0.0000000000e+00 +0.0000000000e+00 +0.0000000000e+00 9.1188000000e+01 9.1188000000e+01 4.7609e-14 0.0000e+00
  9900012  1    3    3    0    0 -3.1746247261e+01 +1.7132807832e+01 -2.4130187619e+01 4.7787271044e+01 2.0000000000e+01 1.3693e-03 -1.0000e+00
      -12  1    3    3    0    0 +3.1746247261e+01 -1.7132807832e+01 +2.4130187619e+01 4.3400728956e+01 0.0000000000e+00 0.0000e+00 1.0000e+00
</event>
<event>
 5      8 +2.9511900e-02 9.11880000e+01 7.81616400e-03 1.18400000e-01
      -11 -1    0    0    0    0 +0.0000000000e+00 +0.0000000000e+00 +4.5593999997e+01 4.5594000000e+01 5.1100000000e-04 0.0000e+00 1.0000e+00
       11 -1    0    0    0    0 -0.0000000000e+00 -0.0000000000e+00 -4.5593999997e+01 4.5594000000e+01 5.1100000000e-04 0.0000e+00 -1.0000e+00
       23  2    1    2    0    0 +0.0000000000e+00 +0.0000000000e+00 +0.0000000000e+00 9.1188000000e+01 9.1188000000e+01 3.2741e-15 0.0000e+00
  9900012  1    3    3    0    0 -7.7120722490e+00 -3.9262342763e+00 -4.2529188799e+01 4.7787271044e+01 2.0000000000e+01 3.2779e-01 -1.0000e+00
      -12  1    3    3    0    0 +7.7120722490e+00 +3.9262342763e+00 +4.2529188799e+01 4.3400728956e+01 0.0000000000e+00 0.0000e+00 1.0000e+00
</event>
<event>
 5      8 +2.9511900e-02 9.11880000e+01 7.81616400e-03 1.18400000e-01
      -11 -1    0    0    0    0 +0.0000000000e+00 +0.0000000000e+00 +4.5593999997e+01 4.5594000000e+01 5.1100000000e-04 0.0000e+00 -1.0000e+00
       11 -1    0    0    0    0 -0.0000000000e+00 -0.0000000000e+00 -4.5593999997e+01 4.5594000000e+01 5.1100000000e-04 0.0000e+00 1.0000e+00
       23  2    1    2    0    0 +0.0000000000e+00 +0.0000000000e+00 +0.0000000000e+00 9.1188000000e+01 9.1188000000e+01 3.6195e-14 0.0000e+00
  9900012  1    3    3    0    0 +1.6546479077e+01 +3.8670637552e+00 +3.9935987805e+01 4.7787271044e+01 2.0000000000e+01 5.0912e-02 -1.0000e+00
      -12  1    3    3    0    0 -1.6546479077e+01 -3.8670637552e+00 -3.9935987805e+01 4.3400728956e+01 0.0000000000e+00 0.0000e+00 1.0000e+00
</event>
<event>
 5      6 +2.9511900e-02 9.11880000e+01 7.81616400e-03 1.18400000e-01
      -11 -1    0    0    0    0 +0.0000000000e+00 +0.0000000000e+00 +4.5593999997e+01 4.5594000000e+01 5.1100000000e-04 0.0000e+00 -1.0000e+00
       11 -1    0    0    0    0 -0.0000000000e+00 -0.0000000000e+00 -4.5593999997e+01 4.5594000000e+01 5.1100000000e-04 0.0000e+00 1.0000e+00
       23  2    1    2    0    0 +0.0000000000e+00 +0.0000000000e+00 +0.0000000000e+00 9.1188000000e+01 9.1188000000e+01 2.4790e-14 0.0000e+00
  9900012  1    3    3    0    0 +3.2091517534e+01 +2.9001649880e+01 -3.5583817185e+00 4.7787271044e+01 2.0000000000e+01 5.6632e-02 -1.0000e+00
      -12  1    3    3    0    0 -3.2091517534e+01 -2.9001649880e+01 +3.5583817185e+00 4.3400728956e+01 0.0000000000e+00 0.0000e+00 1.0000e+00
</event>
<event>
 5      7 +2.9511900e-02 9.11880000e+01 7.81616400e-03 1.18400000e-01
      -11 -1    0    0    0    0 +0.0000000000e+00 +0.0000000000e+00 +4.5593999997e+01 4.5594000000e+01 5.1100000000e-04 0.0000e+00 -1.0000e+00
       11 -1    0    0    0    0 -0.0000000000e+00 -0.0000000000e+00 -4.5593999997e+01 4.5594000000e+01 5.1100000000e-04 0.0000e+00 1.0000e+00
       23  2    1    2    0    0 +0.0000000000e+00 +0.0000000000e+00 +0.0000000000e+00 9.1188000000e+01 9.1188000000e+01 1.4908e-13 0.0000e+00
  9900012  1    3    3    0    0 +1.7183301915e+01 -3.8002216088e+01 -1.2007871651e+01 4.7787271044e+01 2.0000000000e+01 3.0754e-02 1.0000e+00
       12  1    3    3    0    0 -1.7183301915e+01 +3.8002216088e+01 +1.2007871651e+01 4.3400728956e+01 0.0000000000e+00 0.0000e+00 -1.0000e+00
</event>
<event>
 5      6 +2.9511900e-02 9.11880000e+01 7.81616400e-03 1.18400000e-01
      -11 -1    0    0    0    0 +0.0000000000e+00 +0.0000000000e+00 +4.5593999997e+01 4.5594000000e+01 5.1100000000e-04 0.0000e+00 1.0000e+00
       11 -1    0    0    0    0 -0.0000000000e+00 -0.0000000000e+00 -4.5593999997e+01 4.5594000000e+01 5.1100000000e-04 0.0000e+00 -1.0000e+00
       23  2    1    2    0    0 +0.0000000000e+00 +0.0000000000e+00 +0.0000000000e+00 9.1188000000e+01 9.1188000000e+01 2.3426e-14 0.0000e+00
  9900012  1    3    3    0    0 -3.0009225371e+01 -3.1146626572e+01 +3.5996277122e+00 4.7787271044e+01 2.0000000000e+01 1.7517e-02 -1.0000e+00
      -12  1    3    3    0    0 +3.0009225371e+01 +3.1146626572e+01 -3.5996277122e+00 4.3400728956e+01 0.0000000000e+00 0.0000e+00 1.0000e+00
</event>
<event>
 5      4 +2.9511900e-02 9.11880000e+01 7.81616400e-03 1.18400000e-01
      -11 -1    0    0    0    0 +0.0000000000e+00 +0.0000000000e+00 +4.5593999997e+01 4.5594000000e+01 5.1100000000e-04 0.0000e+00 -1.0000e+00
       11 -1    0    0    0    0 -0.0000000000e+00 -0.0000000000e+00 -4.5593999997e+01 4.5594000000e+01 5.1100000000e-04 0.0000e+00 1.0000e+00
       23  2    1    2    0    0 +0.0000000000e+00 +0.0000000000e+00 +0.0000000000e+00 9.1188000000e+01 9.1188000000e+01 1.4102e-13 0.0000e+00
  9900012  1    3    3    0    0 -3.9835794125e+01 -3.6774853073e+00 +1.6828811072e+01 4.7787271044e+01 2.0000000000e+01 3.1673e-01 -1.0000e+00
      -12  1    3    3    0    0 +3.9835794125e+01 +3.6774853073e+00 -1.6828811072e+01 4.3400728956e+01 0.0000000000e+00 0.0000e+00 1.0000e+00
</event>
<event>
 5      6 +2.9511900e-02 9.11880000e+01 7.81616400e-03 1.18400000e-01
      -11 -1    0    0    0    0 +0.0000000000e+00 +0.0000000000e+00 +4.5593999997e+01 4.5594000000e+01 5.1100000000e-04 0.0000e+00 -1.0000e+00
       11 -1    0    0    0    0 -0.0000000000e+00 -0.0000000000e+00 -4.5593999997e+01 4.5594000000e+01 5.1100000000e-04 0.0000e+00 1.0000e+00
       23  2    1    2    0    0 +0.0000000000e+00 +0.0000000000e+00 +0.0000000000e+00 9.1188000000e+01 9.1188000000e+01 7.3991e-14 0.0000e+00
  9900012  1    3    3    0    0 +1.3510850443e+00 +3.0597514295e+01 +3.0750446535e+01 4.7787271044e+01 2.0000000000e+01 1.9344e-03 -1.0000e+00
      -12  1    3    3    0    0 -1.3510850443e+00 -3.0597514295e+01 -3.0750446535e+01 4.3400728956e+01 0.0000000000e+00 0.0000e+00 1.0000e+00
</event>
<event>
 5      2 +2.9511900e-02 9.11880000e+01 7.81616400e-03 1.18400000e-01
      -11 -1    0    0    0    0 +0.0000000000e+00 +0.0000000000e+00 +4.5593999997e+01 4.5594000000e+01 5.1100000000e-04 0.0000e+00 -1.0000e+00
       11 -1    0    0    0    0 -0.0000000000e+00 -0.0000000000e+00 -4.5593999997e+01 4.5594000000e+01 5.1100000000e-04 0.0000e+00 1.0000e+00
       23  2    1    2    0    0 +0.0000000000e+00 +0.0000000000e+00 +0.0000000000e+00 9.1188000000e+01 9.1188000000e+01 1.9561e-14 0.0000e+00
  9900012  1    3    3    0    0 -4.1267536087e+01 +7.3103262293e+00 +1.1277094911e+01 4.7787271044e+01 2.0000000000e+01 5.9925e-02 -1.0000e+00
      -12  1    3    3    0    0 +4.1267536087e+01 -7.3103262293e+00 -1.1277094911e+01 4.3400728956e+01 0.0000000000e+00 0.0000e+00 1.0000e+00
</event>
<event>
 5      1 +2.9511900e-02 9.11880000e+01 7.81616400e-03 1.18400000e-01
      -11 -1    0    0    0    0 +0.0000000000e+00 +0.0000000000e+00 +4.5593999997e+01 4.5594000000e+01 5.1100000000e-04 0.0000e+00 1.0000e+00
       11 -1    0    0    0    0 -0.0000000000e+00 -0.0000000000e+00 -4.5593999997e+01 4.5594000000e+01 5.1100000000e-04 0.0000e+00 -1.0000e+00
       23  2    1    2    0    0 +0.0000000000e+00 +0.0000000000e+00 +0.0000000000e+00 9.1188000000e+01 9.1188000000e+01 3.4846e-14 0.0000e+00
  9900012  1    3    3    0    0 +2.2442291659e+01 -3.0119999736e+01 -2.1742870898e+01 4.7787271044e+01 2.0000000000e+01 2.2680e-01 1.0000e+00
       12  1    3    3    0    0 -2.2442291659e+01 +3.0119999736e+01 +2.1742870898e+01 4.3400728956e+01 0.0000000000e+00 0.0000e+00 -1.0000e+00
</event>
<event>
 5      3 +2.9511900e-02 9.11880000e+01 7.81616400e-03 1.18400000e-01
      -11 -1    0    0    0    0 +0.0000000000e+00 +0.0000000000e+00 +4.5593999997e+01 4.5594000000e+01 5.1100000000e-04 0.0000e+00 -1.0000e+00
       11 -1    0    0    0    0 -0.0000000000e+00 -0.0000000000e+00 -4.5593999997e+01 4.5594000000e+01 5.1100000000e-04 0.0000e+00 1.0000e+00
       23  2    1    2    0    0 +0.0000000000e+00 +0.0000000000e+00 +0.0000000000e+00 9.1188000000e+01 9.1188000000e+01 6.8166e-14 0.0000e+00
  9900012  1    3    3    0    0 -1.9011269738e+01 +3.0921683287e+01 -2.3791687614e+01 4.7787271044e+01 2.0000000000e+01 6.7442e-02 1.0000e+00
       12  1    3    3    0    0 +1.9011269738e+01 -3.0921683287e+01 +2.3791687614e+01 4.3400728956e+01 0.0000000000e+00 0.0000e+00 -1.0000e+00
</event>
<event>
 5      1 +2.9511900e-02 9.11880000e+01 7.81616400e-03 1.18400000e-01
      -11 -1    0    0    0    0 +0.0000000000e+00 +0.0000000000e+00 +4.5593999997e+01 4.5594000000e+01 5.1100000000e-04 0.0000e+00 -1.0000e+00
       11 -1    0    0    0    0 -0.0000000000e+00 -0.0000000000e+00 -4.5593999997e+01 4.5594000000e+01 5.1100000000e-04 0.0000e+00 1.0000e+00
       23  2    1    2    0    0 +0.0000000000e+00 +0.0000000000e+00 +0.0000000000e+00 9.1188000000e+01 9.1188000000e+01 7.3079e-14 0.0000e+00
  9900012  1    3    3    0    0 +3.4907795573e+01 +2.0224146154e+01 -1.6001655991e+01 4.7787271044e+01 2.0000000000e+01 1.8221e-01 1.0000e+00
       12  1    3    3    0    0 -3.4907795573e+01 -2.0224146154e+01 +1.6001655991e+01 4.3400728956e+01 0.0000000000e+00 0.0000e+00 -1.0000e+00
</event>
<event>
 5      7 +2.9511900e-02 9.11880000e+01 7.81616400e-03 1.18400000e-01
      -11 -1    0    0    0    0 +0.0000000000e+00 +0.0000000000e+00 +4.5593999997e+01 4.5594000000e+01 5.1100000000e-04 0.0000e+00 1.0000e+00
       11 -1    0    0    0    0 -0.0000000000e+00 -0.0000000000e+00 -4.5593999997e+01 4.5594000000e+01 5.1100000000e-04 0.0000e+00 -1.0000e+00
       23  2    1    2    0    0 +0.0000000000e+00 +0.0000000000e+00 +0.0000000000e+00 9.1188000000e+01 9.1188000000e+01 4.7097e-13 0.0000e+00
  9900012  1    3    3    0    0 -2.9213518635e+01 -1.1323540702e+01 +3.0032832514e+01 4.7787271044e+01 2.0000000000e+01 1.9405e-01 1.0000e+00
       12  1    3    3    0    0 +2.9213518635e+01 +1.1323540702e+01 -3.0032832514e+01 4.3400728956e+01 0.0000000000e+00 0.0000e+00 -1.0000e+00
</event>
<event>
 5      8 +2.9511900e-02 9.11880000e+01 7.81616400e-03 1.18400000e-01
      -11 -1    0    0    0    0 +0.0000000000e+00 +0.0000000000e+00 +4.5593999997e+01 4.5594000000e+01 5.1100000000e-04 0.0000e+00 1.0000e+00
       11 -1    0    0    0    0 -0.0000000000e+00 -0.0000000000e+00 -4.5593999997e+01 4.5594000000e+01 5.1100000000e-04 0.0000e+00 -1.0000e+00
       23  2    1    2    0    0 +0.0000000000e+00 +0.0000000000e+00 +0.0000000000e+00 9.1188000000e+01 9.1188000000e+01 7.3320e-14 0.0000e+00
  9900012  1    3    3    0    0 -2.9706377091e+01 +1.8520698500e+00 -3.1586773676e+01 4.7787271044e+01 2.0000000000e+01 2.7132e-01 -1.0000e+00
      -12  1    3    3    0    0 +2.9706377091e+01 -1.8520698500e+00 +3.1586773676e+01 4.3400728956e+01 0.0000000000e+00 0.0000e+00 1.0000e+00
</event>
<event>
 5      3 +2.9511900e-02 9.11880000e+01 7.81616400e-03 1.18400000e-01
      -11 -1    0    0    0    0 +0.0000000000e+00 +0.0000000000e+00 +4.5593999997e+01 4.5594000000e+01 5.1100000000e-04 0.0000e+00 -1.0000e+00
       11 -1    0    0    0    0 -0.0000000000e+00 -0.0000000000e+00 -4.5593999997e+01 4.5594000000e+01 5.1100000000e-04 0.0000e+00 1.0000e+00
       23  2    1    2    0    0 +0.0000000000e+00 +0.0000000000e+00 +0.0000000000e+00 9.1188000000e+01 9.1188000000e+01 8.0421e-14 0.0000e+00
  9900012  1    3    3    0    0 +1.5380401503e+01 +3.7157470632e+01 +1.6321424560e+01 4.7787271044e+01 2.0000000000e+01 1.1851e-01 1.0000e+00
       12  1    3    3    0    0 -1.5380401503e+01 -3.7157470632e+01 -1.6321424560e+01 4.3400728956e+01 0.0000000000e+00 0.0000e+00 -1.0000e+00
</event>
<event>
 5      1 +2.9511900e-02 9.11880000e+01 7.81616400e-03 1.18400000e-01
      -11 -1    0    0    0    0 +0.0000000000e+00 +0.0000000000e+00 +4.5593999997e+01 4.5594000000e+01 5.1100000000e-04 0.0000e+00 -1.0000e+00
       11 -1    0    0    0    0 -0.0000000000e+00 -0.0000000000e+00 -4.5593999997e+01 4.5594000000e+01 5.1100000000e-04 0.0000e+00 1.0000e+00
       23  2    1    2    0    0 +0.0000000000e+00 +0.0000000000e+00 +0.0000000000e+00 9.1188000000e+01 9.1188000000e+01 2.8825e-14 0.0000e+00
  9900012  1    3    3    0    0 +2.4615360051e+01 +2.1379163966e+01 -2.8646791645e+01 4.7787271044e+01 2.0000000000e+01 3.7842e-01 1.0000e+00
       12  1    3    3    0    0 -2.4615360051e+01 -2.1379163966e+01 +2.8646791645e+01 4.3400728956e+01 0.0000000000e+00 0.0000e+00 -1.0000e+00
</event>
<event>
 5      2 +2.9511900e-02 9.11880000e+01 7.81616400e-03 1.18400000e-01
      -11 -1    0    0    0    0 +0.0000000000e+00 +0.0000000000e+00 +4.5593999997e+01 4.5594000000e+01 5.1100000000e-04 0.0000e+00 1.0000e+00
       11 -1    0    0    0    0 -0.0000000000e+00 -0.0000000000e+00 -4.5593999997e+01 4.5594000000e+01 5.1100000000e-04 0.0000e+00 -1.0000e+00
       23  2    1    2    0    0 +0.0000000000e+00 +0.0000000000e+00 +0.0000000000e+00 9.1188000000e+01 9.1188000000e+01 1.2075e-13 0.0000e+00
  9900012  1    3    3    0    0 +2.9236666111e+01 +3.2043832633e+01 -1.4259799447e+00 4.7787271044e+01 2.0000000000e+01 6.6923e-02 -1.0000e+00
      -12  1    3    3    0    0 -2.9236666111e+01 -3.2043832633e+01 +1.4259799447e+00 4.3400728956e+01 0.0000000000e+00 0.0000e+00 1.0000e+00
</event>
<event>
 5      8 +2.9511900e-02 9.11880000e+01 7.81616400e-03 1.18400000e-01
      -11 -1    0    0    0    0 +0.0000000000e+00 +0.0000000000e+00 +4.5593999997e+01 4.5594000000e+01 5.1100000000e-04 0.0000e+00 1.0000e+00
       11 -1    0    0    0    0 -0.0000000000e+00 -0.0000000000e+00 -4.5593999997e+01 4.5594000000e+01 5.1100000000e-04 0.0000e+00 -1.0000e+00
       23  2    1    2    0    0 +0.0000000000e+00 +0.0000000000e+00 +0.0000000000e+00 9.1188000000e+01 9.1188000000e+01 1.7659e-14 0.0000e+00
  9900012  1    3    3    0    0 +3.7153249762e+01 -2.1657746021e+01 -5.8481914573e+00 4.7787271044e+01 2.0000000000e+01 9.5006e-02 -1.0000e+00
      -12  1    3    3    0    0 -3.7153249762e+01 +2.1657746021e+01 +5.8481914573e+00 4.3400728956e+01 0.0000000000e+00 0.0000e+00 1.0000e+00
</event>
<event>
 5      7 +2.9511900e-02 9.11880000e+01 7.81616400e-03 1.18400000e-01
      -11 -1    0    0    0    0 +0.0000000000e+00 +0.0000000000e+00 +4.5593999997e+01 4.5594000000e+01 5.1100000000e-04 0.0000e+00 1.0000e+00
       11 -1    0    0    0    0 -0.0000000000e+00 -0.0000000000e+00 -4.5593999997e+01 4.5594000000e+01 5.1100000000e-04 0.0000e+00 -1.0000e+00
       23  2    1    2    0    0 +0.0000000000e+00 +0.0000000000e+00 +0.0000000000e+00 9.1188000000e+01 9.1188000000e+01 1.0377e-13 0.0000e+00
  9900012  1    3    3    0    0 -3.0853881463e+01 -7.7035858815e+00 +2.9534996819e+01 4.7787271044e+01 2.0000000000e+01 2.1667e-01 1.0000e+00
       12  1    3    3    0    0 +3.0853881463e+01 +7.7035858815e+00 -2.9534996819e+01 4.3400728956e+01 0.0000000000e+00 0.0000e+00 -1.0000e+00
</event>
<event>
 5      8 +2.9511900e-02 9.11880000e+01 7.81616400e-03 1.18400000e-01
      -11 -1    0    0    0    0 +0.0000000000e+00 +0.0000000000e+00 +4.5593999997e+01 4.5594000000e+01 5.1100000000e-04 0.0000e+00 1.0000e+00
       11 -1    0    0    0    0 -0.0000000000e+00 -0.0000000000e+00 -4.5593999997e+01 4.5594000000e+01 5.1100000000e-04 0.0000e+00 -1.0000e+00
       23  2    1    2    0    0 +0.0000000000e+00 +0.0000000000e+00 +0.0000000000e+00 9.1188000000e+01 9.1188000000e+01 7.9633e-15 0.0000e+00
  9900012  1    3    3    0    0 -6.4854966708e+00 +1.1447813757e-01 -4.2913267197e+01 4.7787271044e+01 2.0000000000e+01 9.2315e-02 -1.0000e+00
      -12  1    3    3    0    0 +6.4854966708e+00 -1.1447813757e-01 +4.2913267197e+01 4.3400728956e+01 0.0000000000e+00 0.0000e+00 1.0000e+00
</event>
<event>
 5      5 +2.9511900e-02 9.11880000e+01 7.81616400e-03 1.18400000e-01
      -11 -1    0    0    0    0 +0.0000000000e+00 +0.0000000000e+00 +4.5593999997e+01 4.5594000000e+01 5.1100000000e-04 0.0000e+00 1.0000e+00
       11 -1    0    0    0    0 -0.0000000000e+00 -0.0000000000e+00 -4.5593999997e+01 4.5594000000e+01 5.1100000000e-04 0.0000e+00 -1.0000e+00
       23  2    1    2    0    0 +0.0000000000e+00 +0.0000000000e+00 +0.0000000000e+00 9.1188000000e+01 9.1188000000e+01 4.7634e-13 0.0000e+00
  9900012  1    3    3    0    0 +1.5395129813e+01 -1.6003970508e+01 +3.7289223375e+01 4.7787271044e+01 2.0000000000e+01 5.1059e-02 1.0000e+00
       12  1    3    3    0    0 -1.5395129813e+01 +1.6003970508e+01 -3.7289223375e+01 4.3400728956e+01 0.0000000000e+00 0.0000e+00 -1.0000e+00
</event>
<event>
 5      6 +2.9511900e-02 9.11880000e+01 7.81616400e-03 1.18400000e-01
      -11 -1    0    0    0    0 +0.0000000000e+00 +0.0000000000e+00 +4.5593999997e+01 4.5594000000e+01 5.1100000000e-04 0.0000e+00 -1.0000e+00
       11 -1    0    0    0    0 -0.0000000000e+00 -0.0000000000e+00 -4.5593999997e+01 4.5594000000e+01 5.1100000000e-04 0.0000e+00 1.0000e+00
       23  2    1    2    0    0 +0.0000000000e+00 +0.0000000000e+00 +0.0000000000e+00 9.1188000000e+01 9.1188000000e+01 4.5626e-14 0.0000e+00
  9900012  1    3    3    0    0 -2.5084487513e+01 -2.2933994216e+01 +2.6989325101e+01 4.7787271044e+01 2.0000000000e+01 1.9579e-01 -1.0000e+00
      -12  1    3    3    0    0 +2.5084487513e+01 +2.2933994216e+01 -2.6989325101e+01 4.3400728956e+01 0.0000000000e+00 0.0000e+00 1.0000e+00
</event>
<event>
 5      6 +2.9511900e-02 9.11880000e+01 7.81616400e-03 1.18400000e-01
      -11 -1    0    0    0    0 +0.0000000000e+00 +0.0000000000e+00 +4.5593999997e+01 4.5594000000e+01 5.1100000000e-04 0.0000e+00 -1.0000e+00
       11 -1    0    0    0    0 -0.0000000000e+00 -0.0000000000e+00 -4.5593999997e+01 4.5594000000e+01 5.1100000000e-04 0.0000e+00 1.0000e+00
       23  2    1    2    0    0 +0.0000000000e+00 +0.0000000000e+00 +0.0000000000e+00 9.1188000000e+01 9.1188000000e+01 5.2571e-14 0.0000e+00
  9900012  1    3    3    0    0 +5.3822802915e+00 -5.2136406536e+00 +4.2748944828e+01 4.7787271044e+01 2.0000000000e+01 3.7327e-02 -1.0000e+00
      -12  1    3    3    0    0 -5.3822802915e+00 +5.2136406536e+00 -4.2748944828e+01 4.3400728956e+01 0.0000000000e+00 0.0000e+00 1.0000e+00
</event>
<event>
 5      4 +2.9511900e-02 9.11880000e+01 7.81616400e-03 1.18400000e-01
      -11 -1    0    0    0    0 +0.0000000000e+00 +0.0000000000e+00 +4.5593999997e+01 4.5594000000e+01 5.1100000000e-04 0.0000e+00 -1.0000e+00
       11 -1    0    0    0    0 -0.0000000000e+00 -0.0000000000e+00 -4.5593999997e+01 4.5594000000e+01 5.1100000000e-04 0.0000e+00 1.0000e+00
       23  2    1    2    0    0 +0.0000000000e+00 +0.0000000000e+00 +0.0000000000e+00 9.1188000000e+01 9.1188000000e+01 4.8730e-14 0.0000e+00
  9900012  1    3    3    0    0 -1.0020920212e+01 +1.9103815228e+01 +3.7659642533e+01 4.7787271044e+01 2.0000000000e+01 3.6041e-02 -1.0000e+00
      -12  1    3    3    0    0 +1.0020920212e+01 -1.9103815228e+01 -3.7659642533e+01 4.3400728956e+01 0.0000000000e+00 0.0000e+00 1.0000e+00
</event>
<event>
 5      6 +2.9511900e-02 9.11880000e+01 7.81616400e-03 1.18400000e-01
      -11 -1    0    0    0    0 +0.0000000000e+00 +0.0000000000e+00 +4.5593999997e+01 4.5594000000e+01 5.1100000000e-04 0.0000e+00 -1.0000e+00
       11 -1    0    0    0    0 -0.0000000000e+00 -0.0000000000e+00 -4.5593999997e+01 4.5594000000e+01 5.1100000000e-04 0.0000e+00 1.0000e+00
       23  2    1    2    0    0 +0.0000000000e+00 +0.0000000000e+00 +0.0000000000e+00 9.1188000000e+01 9.1188000000e+01 4.2088e-14 0.0000e+00
  9900012  1    3    3    0    0 -4.0914956292e+01 -4.0788230779e+00 -1.3890746121e+01 4.7787271044e+01 2.0000000000e+01 1.3946e-01 -1.0000e+00
      -12  1    3    3    0    0 +4.0914956292e+01 +4.0788230779e+00 +1.3890746121e+01 4.3400728956e+01 0.0000000000e+00 0.0000e+00 1.0000e+00
</event>
<event>
 5      7 +2.9511900e-02 9.11880000e+01 7.81616400e-03 1.18400000e-01
      -11 -1    0    0    0    0 +0.0000000000e+00 +0.0000000000e+00 +4.5593999997e+01 4.5594000000e+01 5.1100000000e-04 0.0000e+00 -1.0000e+00
       11 -1    0    0    0    0 -0.0000000000e+00 -0.0000000000e+00 -4.5593999997e+01 4.5594000000e+01 5.1100000000e-04 0.0000e+00 1.0000e+00
       23  2    1    2    0    0 +0.0000000000e+00 +0.0000000000e+00 +0.0000000000e+00 9.1188000000e+01 9.1188000000e+01 3.6851e-14 0.0000e+00
  9900012  1    3    3    0    0 +4.3366071129e+01 -4.2448345924e-01 +1.6813573311e+00 4.7787271044e+01 2.0000000000e+01 4.7767e-02 1.0000e+00
       12  1    3    3    0    0 -4.3366071129e+01 +4.2448345924e-01 -1.6813573311e+00 4.3400728956e+01 0.0000000000e+00 0.0000e+00 -1.0000e+00
</event>
<event>
 5      7 +2.9511900e-02 9.11880000e+01 7.81616400e-03 1.18400000e-01
      -11 -1    0    0    0    0 +0.0000000000e+00 +0.0000000000e+00 +4.5593999997e+01 4.5594000000e+01 5.1100000000e-04 0.0000e+00 1.0000e+00
       11 -1    0    0    0    0 -0.0000000000e+00 -0.0000000000e+00 -4.5593999997e+01 4.5594000000e+01 5.1100000000e-04 0.0000e+00 -1.0000e+00
       23  2    1    2    0    0 +0.0000000000e+00 +0.0000000000e+00 +0.0000000000e+00 9.1188000000e+01 9.1188000000e+01 1.9134e-14 0.0000e+00
  9900012  1    3    3    0    0 -1.0083742086e+01 +3.3168190091e+01 +2.6111541231e+01 4.7787271044e+01 2.0000000000e+01 3.9571e-03 1.0000e+00
       12  1    3    3    0    0 +1.0083742086e+01 -3.3168190091e+01 -2.6111541231e+01 4.3400728956e+01 0.0000000000e+00 0.0000e+00 -1.0000e+00
</event>
<event>
 5      7 +2.9511900e-02 9.11880000e+01 7.81616400e-03 1.18400000e-01
      -11 -1    0    0    0    0 +0.0000000000e+00 +0.0000000000e+00 +4.5593999997e+01 4.5594000000e+01 5.1100000000e-04 0.0000e+00 1.0000e+00
       11 -1    0    0    0    0 -0.0000000000e+00 -0.0000000000e+00 -4.5593999997e+01 4.5594000000e+01 5.1100000000e-04 0.0000e+00 -1.0000e+00
       23  2    1    2    0    0 +0.0000000000e+00 +0.0000000000e+00 +0.0000000000e+00 9.1188000000e+01 9.1188000000e+01 4.3606e-14 0.0000e+00
  9900012  1    3    3    0    0 +2.2077107672e+01 -2.4387627834e+01 +2.8310213693e+01 4.7787271044e+01 2.0000000000e+01 1.5652e-01 1.0000e+00
       12  1    3    3    0    0 -2.2077107672e+01 +2.4387627834e+01 -2.8310213693e+01 4.3400728956e+01 0.0000000000e+00 0.0000e+00 -1.0000e+00
</event>
<event>
 5      8 +2.9511900e-02 9.11880000e+01 7.81616400e-03 1.18400000e-01
      -11 -1    0    0    0    0 +0.0000000000e+00 +0.0000000000e+00 +4.5593999997e+01 4.5594000000e+01 5.1100000000e-04 0.0000e+00 -1.0000e+00
       11 -1    0    0    0    0 -0.0000000000e+00 -0.0000000000e+00 -4.5593999997e+01 4.5594000000e+01 5.1100000000e-04 0.0000e+00 1.0000e+00
       23  2    1    2    0    0 +0.0000000000e+00 +0.0000000000e+00 +0.0000000000e+00 9.1188000000e+01 9.1188000000e+01 7.0924e-14 0.0000e+00
  9900012  1    3    3    0    0 +2.1547935850e+01 +3.7395571814e+01 +4.5695670655e+00 4.7787271044e+01 2.0000000000e+01 1.3552e-01 -1.0000e+00
      -12  1    3    3    0    0 -2.1547935850e+01 -3.7395571814e+01 -4.5695670655e+00 4.3400728956e+01 0.0000000000e+00 0.0000e+00 1.0000e+00
</event>
<event>
 5      2 +2.9511900e-02 9.11880000e+01 7.81616400e-03 1.18400000e-01
      -11 -1    0    0    0    0 +0.0000000000e+00 +0.0000000000e+00 +4.5593999997e+01 4.5594000000e+01 5.1100000000e-04 0.0000e+00 -1.0000e+00
       11 -1    0    0    0    0 -0.0000000000e+00 -0.0000000000e+00 -4.5593999997e+01 4.5594000000e+01 5.1100000000e-04 0.0000e+00 1.0000e+00
       23  2    1    2    0    0 +0.0000000000e+00 +0.0000000000e+00 +0.0000000000e+00 9.1188000000e+01 9.1188000000e+01 2.9788e-15 0.0000e+00
  9900012  1    3    3    0    0 -1.6035623728e+01 +2.9751832916e+01 +2.7227017532e+01 4.7787271044e+01 2.0000000000e+01 5.6780e-02 -1.0000e+00
      -12  1    3    3    0    0 +1.6035623728e+01 -2.9751832916e+01 -2.7227017532e+01 4.3400728956e+01 0.0000000000e+00 0.0000e+00 1.0000e+00
</event>
<event>
 5      3 +2.9511900e-02 9.11880000e+01 7.81616400e-03 1.18400000e-01
      -11 -1    0    0    0    0 +0.0000000000e+00 +0.0000000000e+00 +4.5593999997e+01 4.5594000000e+01 5.1100000000e-04 0.0000e+00 -1.0000e+00
       11 -1    0    0    0    0 -0.0000000000e+00 -0.0000000000e+00 -4.5593999997e+01 4.5594000000e+01 5.1100000000e-04 0.0000e+00 1.0000e+00
       23  2    1    2    0    0 +0.0000000000e+00 +0.0000000000e+00 +0.0000000000e+00 9.1188000000e+01 9.1188000000e+01 4.3378e-14 0.0000e+00
  9900012  1    3    3    0    0 -4.2006862914e+01 -5.3370380470e+00 -9.5164471768e+00 4.7787271044e+01 2.0000000000e+01 9.7175e-02 1.0000e+00
       12  1    3    3    0    0 +4.2006862914e+01 +5.3370380470e+00 +9.5164471768e+00 4.3400728956e+01 0.0000000000e+00 0.0000e+00 -1.0000e+00
</event>
<event>
 5      2 +2.9511900e-02 9.11880000e+01 7.81616400e-03 1.18400000e-01
      -11 -1    0    0    0    0 +0.0000000000e+00 +0.0000000000e+00 +4.5593999997e+01 4.5594000000e+01 5.1100000000e-04 0.0000e+00 1.0000e+00
       11 -1    0    0    0    0 -0.0000000000e+00 -0.0000000000e+00 -4.5593999997e+01 4.5594000000e+01 5.1100000000e-04 0.0000e+00 -1.0000e+00
       23  2    1    2    0    0 +0.0000000000e+00 +0.0000000000e+00 +0.0000000000e+00 9.1188000000e+01 9.1188000000e+01 1.4416e-13 0.0000e+00
  9900012  1    3    3    0    0 +2.9077201699e+01 -8.3183002842e+00 -3.1127889353e+01 4.7787271044e+01 2.0000000000e+01 3.7729e-03 -1.0000e+00
      -12  1    3    3    0    0 -2.9077201699e+01 +8.3183002842e+00 +3.1127889353e+01 4.3400728956e+01 0.0000000000e+00 0.0000e+00 1.0000e+00
</event>
<event>
 5      4 +2.9511900e-02 9.11880000e+01 7.81616400e-03 1.18400000e-01
      -11 -1    0    0    0    0 +0.0000000000e+00 +0.0000000000e+00 +4.5593999997e+01 4.5594000000e+01 5.1100000000e-04 0.0000e+00 -1.0000e+00
       11 -1    0    0    0    0 -0.0000000000e+00 -0.0000000000e+00 -4.5593999997e+01 4.5594000000e+01 5.1100000000e-04 0.0000e+00 1.0000e+00
       23  2    1    2    0    0 +0.0000000000e+00 +0.0000000000e+00 +0.0000000000e+00 9.1188000000e+01 9.1188000000e+01 7.5186e-14 0.0000e+00
  9900012  1    3    3    0    0 +7.8489645856e+00 +3.8818532315e+01 +1.7752142905e+01 4.7787271044e+01 2.0000000000e+01 3.6485e-02 -1.0000e+00
      -12  1    3    3    0    0 -7.8489645856e+00 -3.8818532315e+01 -1.7752142905e+01 4.3400728956e+01 0.0000000000e+00 0.0000e+00 1.0000e+00
</event>
<event>
 5      6 +2.9511900e-02 9.11880000e+01 7.81616400e-03 1.18400000e-01
      -11 -1    0    0    0    0 +0.0000000000e+00 +0.0000000000e+00 +4.5593999997e+01 4.5594000000e+01 5.1100000000e-04 0.0000e+00 -1.0000e+00
       11 -1    0    0    0    0 -0.0000000000e+00 -0.0000000000e+00 -4.5593999997e+01 4.5594000000e+01 5.1100000000e-04 0.0000e+00 1.0000e+00
       23  2    1    2    0    0 +0.0000000000e+00 +0.0000000000e+00 +0.0000000000e+00 9.1188000000e+01 9.1188000000e+01 1.7634e-15 0.0000e+00
  9900012  1    3    3    0    0 +2.1712681668e+01 +2.6521458124e+01 +2.6623203933e+01 4.7787271044e+01 2.0000000000e+01 3.6039e-02 -1.0000e+00
      -12  1    3    3    0    0 -2.1712681668e+01 -2.6521458124e+01 -2.6623203933e+01 4.3400728956e+01 0.0000000000e+00 0.0000e+00 1.0000e+00
</event>
<event>
 5      3 +2.9511900e-02 9.11880000e+01 7.81616400e-03 1.18400000e-01
      -11 -1    0    0    0    0 +0.0000000000e+00 +0.0000000000e+00 +4.5593999997e+01 4.5594000000e+01 5.1100000000e-04 0.0000e+00 -1.0000e+00
       11 -1    0    0    0    0 -0.0000000000e+00 -0.0000000000e+00 -4.5593999997e+01 4.5594000000e+01 5.1100000000e-04 0.0000e+00 1.0000e+00
       23  2    1    2    0    0 +0.0000000000e+00 +0.0000000000e+00 +0.0000000000e+00 9.1188000000e+01 9.1188000000e+01 5.2345e-14 0.0000e+00
  9900012  1    3    3    0    0 -4.1021304461e+01 -1.3631433287e+01 -3.8807062164e+00 4.7787271044e+01 2.0000000000e+01 7.5584e-02 1.0000e+00
       12  1    3    3    0    0 +4.1021304461e+01 +1.3631433287e+01 +3.8807062164e+00 4.3400728956e+01 0.0000000000e+00 0.0000e+00 -1.0000e+00
</event>
<event>
 5      7 +2.9511900e-02 9.11880000e+01 7.81616400e-03 1.18400000e-01
      -11 -1    0    0    0    0 +0.0000000000e+00 +0.0000000000e+00 +4.5593999997e+01 4.5594000000e+01 5.1100000000e-04 0.0000e+00 1.0000e+00
       11 -1    0    0    0    0 -0.0000000000e+00 -0.0000000000e+00 -4.5593999997e+01 4.5594000000e+01 5.1100000000e-04 0.0000e+00 -1.0000e+00
       23  2    1    2    0    0 +0.0000000000e+00 +0.0000000000e+00 +0.0000000000e+00 9.1188000000e+01 9.1188000000e+01 4.0463e-15 0.0000e+00
  9900012  1    3    3    0    0 -4.3524234826e+00 +3.6764684364e+01 +2.2650334817e+01 4.7787271044e+01 2.0000000000e+01 7.2785e-03 1.0000e+00
       12  1    3    3    0    0 +4.3524234826e+00 -3.6764684364e+01 -2.2650334817e+01 4.3400728956e+01 0.0000000000e+00 0.0000e+00 -1.0000e+00
</event>
<event>
 5      2 +2.9511900e-02 9.11880000e+01 7.81616400e-03 1.18400000e-01
      -11 -1    0    0    0    0 +0.0000000000e+00 +0.0000000000e+00 +4.5593999997e+01 4.5594000000e+01 5.1100000000e-04 0.0000e+00 1.0000e+00
       11 -1    0    0    0    0 -0.0000000000e+00 -0.0000000000e+00 -4.5593999997e+01 4.5594000000e+01 5.1100000000e-04 0.0000e+00 -1.0000e+00
       23  2    1    2    0    0 +0.0000000000e+00 +0.0000000000e+00 +0.0000000000e+00 9.1188000000e+01 9.1188000000e+01 9.8493e-14 0.0000e+00
  9900012  1    3    3    0    0 -1.3627449704e+01 -3.4690323051e+01 -2.2237296937e+01 4.7787271044e+01 2.0000000000e+01 2.3907e-01 -1.0000e+00
      -12  1    3    3    0    0 +1.3627449704e+01 +3.4690323051e+01 +2.2237296937e+01 4.3400728956e+01 0.0000000000e+00 0.0000e+00 1.0000e+00
</event>
<event>
 5      1 +2.9511900e-02 9.11880000e+01 7.81616400e-03 1.18400000e-01
      -11 -1    0    0    0    0 +0.0000000000e+00 +0.0000000000e+00 +4.5593999997e+01 4.5594000000e+01 5.1100000000e-04 0.0000e+00 -1.0000e+00
       11 -1    0    0    0    0 -0.0000000000e+00 -0.0000000000e+00 -4.5593999997e+01 4.5594000000e+01 5.1100000000e-04 0.0000e+00 1.0000e+00
       23  2    1    2    0    0 +0.0000000000e+00 +0.0000000000e+00 +0.0000000000e+00 9.1188000000e+01 9.1188000000e+01 3.6274e-14 0.0000e+00
  9900012  1    3    3    0    0 -3.5293514802e+00 -2.2797827601e+00 -4.3196869592e+01 4.7787271044e+01 2.0000000000e+01 2.7607e-01 1.0000e+00
       12  1    3    3    0    0 +3.5293514802e+00 +2.2797827601e+00 +4.3196869592e+01 4.3400728956e+01 0.0000000000e+00 0.0000e+00 -1.0000e+00
</event>
<event>
 5      6 +2.9511900e-02 9.11880000e+01 7.81616400e-03 1.18400000e-01
      -11 -1    0    0    0    0 +0.0000000000e+00 +0.0000000000e+00 +4.5593999997e+01 4.5594000000e+01 5.1100000000e-04 0.0000e+00 1.0000e+00
       11 -1    0    0    0    0 -0.0000000000e+00 -0.0000000000e+00 -4.5593999997e+01 4.5594000000e+01 5.1100000000e-04 0.0000e+00 -1.0000e+00
       23  2    1    2    0    0 +0.0000000000e+00 +0.0000000000e+00 +0.0000000000e+00 9.1188000000e+01 9.1188000000e+01 1.6492e-14 0.0000e+00
  9900012  1    3    3    0    0 -8.1141032032e+00 +3.8225541472e+01 -1.8883659132e+01 4.7787271044e+01 2.0000000000e+01 1.0564e-02 -1.0000e+00
      -12  1    3    3    0    0 +8.1141032032e+00 -3.8225541472e+01 +1.8883659132e+01 4.3400728956e+01 0.0000000000e+00 0.0000e+00 1.0000e+00
</event>
<event>
 5      4 +2.9511900e-02 9.11880000e+01 7.81616400e-03 1.18400000e-01
      -11 -1    0    0    0    0 +0.0000000000e+00 +0.0000000000e+00 +4.5593999997e+01 4.5594000000e+01 5.1100000000e-04 0.0000e+00 1.0000e+00
       11 -1    0    0    0    0 -0.0000000000e+00 -0.0000000000e+00 -4.5593999997e+01 4.5594000000e+01 5.1100000000e-04 0.0000e+00 -1.0000e+00
       23  2    1    2    0    0 +0.0000000000e+00 +0.0000000000e+00 +0.0000000000e+00 9.1188000000e+01 9.1188000000e+01 1.0179e-13 0.0000e+00
  9900012  1    3    3    0    0 -1.4370270687e+00 -1.2630218917e+01 -4.1497419163e+01 4.7787271044e+01 2.0000000000e+01 3.7938e-02 -1.0000e+00
      -12  1    3    3    0    0 +1.4370270687e+00 +1.2630218917e+01 +4.1497419163e+01 4.3400728956e+01 0.0000000000e+00 0.0000e+00 1.0000e+00
</event>
<event>
 5      8 +2.9511900e-02 9.11880000e+01 7.81616400e-03 1.18400000e-01
      -11 -1    0    0    0    0 +0.0000000000e+00 +0.0000000000e+00 +4.5593999997e+01 4.5594000000e+01 5.1100000000e-04 0.0000e+00 -1.0000e+00
       11 -1    0    0    0    0 -0.0000000000e+00 -0.0000000000e+00 -4.5593999997e+01 4.5594000000e+01 5.1100000000e-04 0.0000e+00 1.0000e+00
       23  2    1    2    0    0 +0.0000000000e+00 +0.0000000000e+00 +0.0000000000e+00 9.1188000000e+01 9.1188000000e+01 1.2092e-14 0.0000e+00
  9900012  1    3    3    0    0 -3.3927009155e+01 +2.7045914436e+01 -1.0487306516e+00 4.7787271044e+01 2.0000000000e+01 1.2035e-01 -1.0000e+00
      -12  1    3    3    0    0 +3.3927009155e+01 -2.7045914436e+01 +1.0487306516e+00 4.3400728956e+01 0.0000000000e+00 0.0000e+00 1.0000e+00
</event>
<event>
 5      5 +2.9511900e-02 9.11880000e+01 7.81616400e-03 1.18400000e-01
      -11 -1    0    0    0    0 +0.0000000000e+00 +0.0000000000e+00 +4.5593999997e+01 4.5594000000e+01 5.1100000000e-04 0.0000e+00 1.0000e+00
       11 -1    0    0    0    0 -0.0000000000e+00 -0.0000000000e+00 -4.5593999997e+01 4.5594000000e+01 5.1100000000e-04 0.0000e+00 -1.0000e+00
       23  2    1    2    0    0 +0.0000000000e+00 +0.0000000000e+00 +0.0000000000e+00 9.1188000000e+01 9.1188000000e+01 4.7892e-14 0.0000e+00
  9900012  1    3    3    0    0 +3.0053967017e+01 +5.0145861282e+00 +3.0906896744e+01 4.7787271044e+01 2.0000000000e+01 5.1194e-02 1.0000e+00
       12  1    3    3    0    0 -3.0053967017e+01 -5.0145861282e+00 -3.0906896744e+01 4.3400728956e+01 0.0000000000e+00 0.0000e+00 -1.0000e+00
</event>
<event>
 5      6 +2.9511900e-02 9.11880000e+01 7.81616400e-03 1.18400000e-01
      -11 -1    0    0    0    0 +0.0000000000e+00 +0.0000000000e+00 +4.5593999997e+01 4.5594000000e+01 5.1100000000e-04 0.0000e+00 -1.0000e+00
       11 -1    0    0    0    0 -0.0000000000e+00 -0.0000000000e+00 -4.5593999997e+01 4.5594000000e+01 5.1100000000e-04 0.0000e+00 1.0000e+00
       23  2    1    2    0    0 +0.0000000000e+00 +0.0000000000e+00 +0.0000000000e+00 9.1188000000e+01 9.1188000000e+01 5.8858e-14 0.0000e+00
  9900012  1    3    3    0    0 -2.2358368857e+01 -2.7718559548e+01 +2.4807419706e+01 4.7787271044e+01 2.0000000000e+01 5.4666e-01 -1.0000e+00
      -12  1    3    3    0    0 +2.2358368857e+01 +2.7718559548e+01 -2.4807419706e+01 4.3400728956e+01 0.0000000000e+00 0.0000e+00 1.0000e+00
</event>
<event>
 5      8 +2.9511900e-02 9.11880000e+01 7.81616400e-03 1.18400000e-01
      -11 -1    0    0    0    0 +0.0000000000e+00 +0.0000000000e+00 +4.5593999997e+01 4.5594000000e+01 5.1100000000e-04 0.0000e+00 -1.0000e+00
       11 -1    0    0    0    0 -0.0000000000e+00 -0.0000000000e+00 -4.5593999997e+01 4.5594000000e+01 5.1100000000e-04 0.0000e+00 1.0000e+00
       23  2    1    2    0    0 +0.0000000000e+00 +0.0000000000e+00 +0.0000000000e+00 9.1188000000e+01 9.1188000000e+01 6.1723e-14 0.0000e+00
  9900012  1    3    3    0    0 -3.8383044015e+01 +1.7555314375e-01 +2.0256712149e+01 4.7787271044e+01 2.0000000000e+01 1.3401e-01 -1.0000e+00
      -12  1    3    3    0    0 +3.8383044015e+01 -1.7555314375e-01 -2.0256712149e+01 4.3400728956e+01 0.0000000000e+00 0.0000e+00 1.0000e+00
</event>
<event>
 5      8 +2.9511900e-02 9.11880000e+01 7.81616400e-03 1.18400000e-01
      -11 -1    0    0    0    0 +0.0000000000e+00 +0.0000000000e+00 +4.5593999997e+01 4.5594000000e+01 5.1100000000e-04 0.0000e+00 1.0000e+00
       11 -1    0    0    0    0 -0.0000000000e+00 -0.0000000000e+00 -4.5593999997e+01 4.5594000000e+01 5.1100000000e-04 0.0000e+00 -1.0000e+00
       23  2    1    2    0    0 +0.0000000000e+00 +0.0000000000e+00 +0.0000000000e+00 9.1188000000e+01 9.1188000000e+01 1.0006e-14 0.0000e+00
  9900012  1    3    3    0    0 +4.2899243756e+01 +1.5595517695e+00 -6.3910842073e+00 4.7787271044e+01 2.0000000000e+01 6.1185e-02 -1.0000e+00
      -12  1    3    3    0    0 -4.2899243756e+01 -1.5595517695e+00 +6.3910842073e+00 4.3400728956e+01 0.0000000000e+00 0.0000e+00 1.0000e+00
</event>
<event>
 5      8 +2.9511900e-02 9.11880000e+01 7.81616400e-03 1.18400000e-01
      -11 -1    0    0    0    0 +0.0000000000e+00 +0.0000000000e+00 +4.5593999997e+01 4.5594000000e+01 5.1100000000e-04 0.0000e+00 -1.0000e+00
       11 -1    0    0    0    0 -0.0000000000e+00 -0.0000000000e+00 -4.5593999997e+01 4.5594000000e+01 5.1100000000e-04 0.0000e+00 1.0000e+00
       23  2    1    2    0    0 +0.0000000000e+00 +0.0000000000e+00 +0.0000000000e+00 9.1188000000e+01 9.1188000000e+01 1.7199e-13 0.0000e+00
  9900012  1    3    3    0    0 -2.8064485040e+01 +1.8114332372e+01 +2.7710628214e+01 4.7787271044e+01 2.0000000000e+01 4.6492e-02 -1.0000e+00
      -12  1    3    3    0    0 +2.8064485040e+01 -1.8114332372e+01 -2.7710628214e+01 4.3400728956e+01 0.0000000000e+00 0.0000e+00 1.0000e+00
</event>
<event>
 5      8 +2.9511900e-02 9.11880000e+01 7.81616400e-03 1.18400000e-01
      -11 -1    0    0    0    0 +0.0000000000e+00 +0.0000000000e+00 +4.5593999997e+01 4.5594000000e+01 5.1100000000e-04 0.0000e+00 1.0000e+00
       11 -1    0    0    0    0 -0.0000000000e+00 -0.0000000000e+00 -4.5593999997e+01 4.5594000000e+01 5.1100000000e-04 0.0000e+00 -1.0000e+00
       23  2    1    2    0    0 +0.0000000000e+00 +0.0000000000e+00 +0.0000000000e+00 9.1188000000e+01 9.1188000000e+01 4.9746e-14 0.0000e+00
  9900012  1    3    3    0    0 +2.0589800699e+00 +1.5542742867e+01 -4.0469828504e+01 4.7787271044e+01 2.0000000000e+01 1.9957e-01 -1.0000e+00
      -12  1    3    3    0    0 -2.0589800699e+00 -1.5542742867e+01 +4.0469828504e+01 4.3400728956e+01 0.0000000000e+00 0.0000e+00 1.0000e+00
</event>
<event>
 5      4 +2.9511900e-02 9.11880000e+01 7.81616400e-03 1.18400000e-01
      -11 -1    0    0    0    0 +0.0000000000e+00 +0.0000000000e+00 +4.5593999997e+01 4.5594000000e+01 5.1100000000e-04 0.0000e+00 1.0000e+00
       11 -1    0    0    0    0 -0.0000000000e+00 -0.0000000000e+00 -4.5593999997e+01 4.5594000000e+01 5.1100000000e-04 0.0000e+00 -1.0000e+00
       23  2    1    2    0    0 +0.0000000000e+00 +0.0000000000e+00 +0.0000000000e+00 9.1188000000e+01 9.1188000000e+01 8.0918e-14 0.0000e+00
  9900012  1    3    3    0    0 -3.4518428359e+01 -4.7137119297e+00 -2.5882084486e+01 4.7787271044e+01 2.0000000000e+01 1.1143e-02 -1.0000e+00
      -12  1    3    3    0    0 +3.4518428359e+01 +4.7137119297e+00 +2.5882084486e+01 4.3400728956e+01 0.0000000000e+00 0.0000e+00 1.0000e+00
</event>
<event>
 5      1 +2.9511900e-02 9.11880000e+01 7.81616400e-03 1.18400000e-01
      -11 -1    0    0    0    0 +0.0000000000e+00 +0.0000000000e+00 +4.5593999997e+01 4.5594000000e+01 5.1100000000e-04 0.0000e+00 1.0000e+00
       11 -1    0    0    0    0 -0.0000000000e+00 -0.0000000000e+00 -4.5593999997e+01 4.5594000000e+01 5.1100000000e-04 0.0000e+00 -1.0000e+00
       23  2    1    2    0    0 +0.0000000000e+00 +0.0000000000e+00 +0.0000000000e+00 9.1188000000e+01 9.1188000000e+01 4.4273e-14 0.0000e+00
  9900012  1    3    3    0    0 -3.5548845650e+01 -3.1170200601e+00 +2.4701964148e+01 4.7787271044e+01 2.0000000000e+01 7.5932e-02 1.0000e+00
       12  1    3    3    0    0 +3.5548845650e+01 +3.1170200601e+00 -2.4701964148e+01 4.3400728956e+01 0.0000000000e+00 0.0000e+00 -1.0000e+00
</event>
<event>
 5      1 +2.9511900e-02 9.11880000e+01 7.81616400e-03 1.18400000e-01
      -11 -1    0    0    0    0 +0.0000000000e+00 +0.0000000000e+00 +4.5593999997e+01 4.5594000000e+01 5.1100000000e-04 0.0000e+00 -1.0000e+00
       11 -1    0    0    0    0 -0.0000000000e+00 -0.0000000000e+00 -4.5593999997e+01 4.5594000000e+01 5.1100000000e-04 0.0000e+00 1.0000e+00
       23  2    1    2    0    0 +0.0000000000e+00 +0.0000000000e+00 +0.0000000000e+00 9.1188000000e+01 9.1188000000e+01 3.2627e-14 0.0000e+00
  9900012  1    3    3    0    0 +3.3413960576e+01 -1.1197549394e+01 -2.5332694292e+01 4.7787271044e+01 2.0000000000e+01 4.7698e-02 1.0000e+00
       12  1    3    3    0    0 -3.3413960576e+01 +1.1197549394e+01 +2.5332694292e+01 4.3400728956e+01 0.0000000000e+00 0.0000e+00 -1.0000e+00
</event>
<event>
 5      4 +2.9511900e-02 9.11880000e+01 7.81616400e-03 1.18400000e-01
      -11 -1    0    0    0    0 +0.0000000000e+00 +0.0000000000e+00 +4.5593999997e+01 4.5594000000e+01 5.1100000000e-04 0.0000e+00 1.0000e+00
       11 -1    0    0    0    0 -0.0000000000e+00 -0.0000000000e+00 -4.5593999997e+01 4.5594000000e+01 5.1100000000e-04 0.0000e+00 -1.0000e+00
       23  2    1    2    0    0 +0.0000000000e+00 +0.0000000000e+00 +0.0000000000e+00 9.1188000000e+01 9.1188000000e+01 9.8224e-14 0.0000e+00
  9900012  1    3    3    0    0 -2.2134365624e+01 +4.6092539306e+00 -3.7046564085e+01 4.7787271044e+01 2.0000000000e+01 8.3371e-02 -1.0000e+00
      -12  1    3    3    0    0 +2.2134365624e+01 -4.6092539306e+00 +3.7046564085e+01 4.3400728956e+01 0.0000000000e+00 0.0000e+00 1.0000e+00
</event>
<event>
 5      4 +2.9511900e-02 9.11880000e+01 7.81616400e-03 1.18400000e-01
      -11 -1    0    0    0    0 +0.0000000000e+00 +0.0000000000e+00 +4.5593999997e+01 4.5594000000e+01 5.1100000000e-04 0.0000e+00 1.0000e+00
       11 -1    0    0    0    0 -0.0000000000e+00 -0.0000000000e+00 -4.5593999997e+01 4.5594000000e+01 5.1100000000e-04 0.0000e+00 -1.0000e+00
       23  2    1    2    0    0 +0.0000000000e+00 +0.0000000000e+00 +0.0000000000e+00 9.1188000000e+01 9.1188000000e+01 1.6786e-14 0.0000e+00
  9900012  1    3    3    0    0 -1.8321411634e+01 +1.5364453486e+00 -3.9313973156e+01 4.7787271044e+01 2.0000000000e+01 2.8819e-01 -1.0000e+00
      -12  1    3    3    0    0 +1.8321411634e+01 -1.5364453486e+00 +3.9313973156e+01 4.3400728956e+01 0.0000000000e+00 0.0000e+00 1.0000e+00
</event>
<event>
 5      8 +2.9511900e-02 9.11880000e+01 7.81616400e-03 1.18400000e-01
      -11 -1    0    0    0    0 +0.0000000000e+00 +0.0000000000e+00 +4.5593999997e+01 4.5594000000e+01 5.1100000000e-04 0.0000e+00 1.0000e+00
       11 -1    0    0    0    0 -0.0000000000e+00 -0.0000000000e+00 -4.5593999997e+01 4.5594000000e+01 5.1100000000e-04 0.0000e+00 -1.0000e+00
       23  2    1    2    0    0 +0.0000000000e+00 +0.0000000000e+00 +0.0000000000e+00 9.1188000000e+01 9.1188000000e+01 9.7245e-14 0.0000e+00
  9900012  1    3    3    0    0 +2.4076155664e+01 +3.4873128727e+01 +9.3716004555e+00 4.7787271044e+01 2.0000000000e+01 1.4648e-01 -1.0000e+00
      -12  1    3    3    0    0 -2.4076155664e+01 -3.4873128727e+01 -9.3716004555e+00 4.3400728956e+01 0.0000000000e+00 0.0000e+00 1.0000e+00
</event>
<event>
 5      6 +2.9511900e-02 9.11880000e+01 7.81616400e-03 1.18400000e-01
      -11 -1    0    0    0    0 +0.0000000000e+00 +0.0000000000e+00 +4.5593999997e+01 4.5594000000e+01 5.1100000000e-04 0.0000e+00 -1.0000e+00
       11 -1    0    0    0    0 -0.0000000000e+00 -0.0000000000e+00 -4.5593999997e+01 4.5594000000e+01 5.1100000000e-04 0.0000e+00 1.0000e+00
       23  2    1    2    0    0 +0.0000000000e+00 +0.0000000000e+00 +0.0000000000e+00 9.1188000000e+01 9.1188000000e+01 4.8666e-15 0.0000e+00
  9900012  1    3    3    0    0 +3.3658566591e+01 -6.0286414218e+00 +2.6727881539e+01 4.7787271044e+01 2.0000000000e+01 5.9240e-02 -1.0000e+00
      -12  1    3    3    0    0 -3.3658566591e+01 +6.0286414218e+00 -2.6727881539e+01 4.3400728956e+01 0.0000000000e+00 0.0000e+00 1.0000e+00
</event>
<event>
 5      1 +2.9511900e-02 9.11880000e+01 7.81616400e-03 1.18400000e-01
      -11 -1    0    0    0    0 +0.0000000000e+00 +0.0000000000e+00 +4.5593999997e+01 4.5594000000e+01 5.1100000000e-04 0.0000e+00 -1.0000e+00
       11 -1    0    0    0    0 -0.0000000000e+00 -0.0000000000e+00 -4.5593999997e+01 4.5594000000e+01 5.1100000000e-04 0.0000e+00 1.0000e+00
       23  2    1    2    0    0 +0.0000000000e+00 +0.0000000000e+00 +0.0000000000e+00 9.1188000000e+01 9.1188000000e+01 1.6347e-15 0.0000e+00
  9900012  1    3    3    0    0 -9.6607598924e+00 +3.3069232132e+01 -2.6395432907e+01 4.7787271044e+01 2.0000000000e+01 1.0002e-02 1.0000e+00
       12  1    3    3    0    0 +9.6607598924e+00 -3.3069232132e+01 +2.6395432907e+01 4.3400728956e+01 0.0000000000e+00 0.0000e+00 -1.0000e+00
</event>
<event>
 5      2 +2.9511900e-02 9.11880000e+01 7.81616400e-03 1.18400000e-01
      -11 -1    0    0    0    0 +0.0000000000e+00 +0.0000000000e+00 +4.5593999997e+01 4.5594000000e+01 5.1100000000e-04 0.0000e+00 1.0000e+00
       11 -1    0    0    0    0 -0.0000000000e+00 -0.0000000000e+00 -4.5593999997e+01 4.5594000000e+01 5.1100000000e-04 0.0000e+00 -1.0000e+00
       23  2    1    2    0    0 +0.0000000000e+00 +0.0000000000e+00 +0.0000000000e+00 9.1188000000e+01 9.1188000000e+01 7.2003e-13 0.0000e+00
  9900012  1    3    3    0    0 +3.5945285790e+01 -2.1506596661e+01 +1.1358961370e+01 4.7787271044e+01 2.0000000000e+01 2.9141e-01 -1.0000e+00
      -12  1    3    3    0    0 -3.5945285790e+01 +2.1506596661e+01 -1.1358961370e+01 4.3400728956e+01 0.0000000000e+00 0.0000e+00 1.0000e+00
</event>
<event>
 5      1 +2.9511900e-02 9.11880000e+01 7.81616400e-03 1.18400000e-01
      -11 -1    0    0    0    0 +0.0000000000e+00 +0.0000000000e+00 +4.5593999997e+01 4.5594000000e+01 5.1100000000e-04 0.0000e+00 1.0000e+00
       11 -1    0    0    0    0 -0.0000000000e+00 -0.0000000000e+00 -4.5593999997e+01 4.5594000000e+01 5.1100000000e-04 0.0000e+00 -1.0000e+00
       23  2    1    2    0    0 +0.0000000000e+00 +0.0000000000e+00 +0.0000000000e+00 9.1188000000e+01 9.1188000000e+01 3.1550e-14 0.0000e+00
  9900012  1    3    3    0    0 -8.5243783269e+00 +1.7435591536e+01 +3.8819562025e+01 4.7787271044e+01 2.0000000000e+01 6.0166e-02 1.0000e+00
       12  1    3    3    0    0 +8.5243783269e+00 -1.7435591536e+01 -3.8819562025e+01 4.3400728956e+01 0.0000000000e+00 0.0000e+00 -1.0000e+00
</event>
<event>
 5      2 +2.9511900e-02 9.11880000e+01 7.81616400e-03 1.18400000e-01
      -11 -1    0    0    0    0 +0.0000000000e+00 +0.0000000000e+00 +4.5593999997e+01 4.5594000000e+01 5.1100000000e-04 0.0000e+00 -1.0000e+00
       11 -1    0    0    0    0 -0.0000000000e+00 -0.0000000000e+00 -4.5593999997e+01 4.5594000000e+01 5.1100000000e-04 0.0000e+00 1.0000e+00
       23  2    1    2    0    0 +0.0000000000e+00 +0.0000000000e+00 +0.0000000000e+00 9.1188000000e+01 9.1188000000e+01 5.2343e-14 0.0000e+00
  9900012  1    3    3    0    0 +2.9969940421e+01 +2.9353817382e+01 +1.1125616841e+01 4.7787271044e+01 2.0000000000e+01 1.8692e-02 -1.0000e+00
      -12  1    3    3    0    0 -2.9969940421e+01 -2.9353817382e+01 -1.1125616841e+01 4.3400728956e+01 0.0000000000e+00 0.0000e+00 1.0000e+00
</event>
<event>
 5      2 +2.9511900e-02 9.11880000e+01 7.81616400e-03 1.18400000e-01
      -11 -1    0    0    0    0 +0.0000000000e+00 +0.0000000000e+00 +4.5593999997e+01 4.5594000000e+01 5.1100000000e-04 0.0000e+00 -1.0000e+00
       11 -1    0    0    0    0 -0.0000000000e+00 -0.0000000000e+00 -4.5593999997e+01 4.5594000000e+01 5.1100000000e-04 0.0000e+00 1.0000e+00
       23  2    1    2    0    0 +0.0000000000e+00 +0.0000000000e+00 +0.0000000000e+00 9.1188000000e+01 9.1188000000e+01 6.9815e-15 0.0000e+00
  9900012  1    3    3    0    0 -4.0729330179e+01 -1.0395775132e+01 +1.0801518245e+01 4.7787271044e+01 2.0000000000e+01 2.4218e-02 -1.0000e+00
      -12  1    3    3    0    0 +4.0729330179e+01 +1.0395775132e+01 -1.0801518245e+01 4.3400728956e+01 0.0000000000e+00 0.0000e+00 1.0000e+00
</event>
<event>
 5      5 +2.9511900e-02 9.11880000e+01 7.81616400e-03 1.18400000e-01
      -11 -1    0    0    0    0 +0.0000000000e+00 +0.0000000000e+00 +4.5593999997e+01 4.5594000000e+01 5.1100000000e-04 0.0000e+00 1.0000e+00
       11 -1    0    0    0    0 -0.0000000000e+00 -0.0000000000e+00 -4.5593999997e+01 4.5594000000e+01 5.1100000000e-04 0.0000e+00 -1.0000e+00
       23  2    1    2    0    0 +0.0000000000e+00 +0.0000000000e+00 +0.0000000000e+00 9.1188000000e+01 9.1188000000e+01 2.8378e-14 0.0000e+00
  9900012  1    3    3    0    0 -2.5295209204e+00 -7.4451607711e+00 +4.2682483279e+01 4.7787271044e+01 2.0000000000e+01 1.9710e-01 1.0000e+00
       12  1    3    3    0    0 +2.5295209204e+00 +7.4451607711e+00 -4.2682483279e+01 4.3400728956e+01 0.0000000000e+00 0.0000e+00 -1.0000e+00
</event>
<event>
 5      7 +2.9511900e-02 9.11880000e+01 7.81616400e-03 1.18400000e-01
      -11 -1    0    0    0    0 +0.0000000000e+00 +0.0000000000e+00 +4.5593999997e+01 4.5594000000e+01 5.1100000000e-04 0.0000e+00 1.0000e+00
       11 -1    0    0    0    0 -0.0000000000e+00 -0.0000000000e+00 -4.5593999997e+01 4.5594000000e+01 5.1100000000e-04 0.0000e+00 -1.0000e+00
       23  2    1    2    0    0 +0.0000000000e+00 +0.0000000000e+00 +0.0000000000e+00 9.1188000000e+01 9.1188000000e+01 2.0715e-14 0.0000e+00
  9900012  1    3    3    0    0 -1.1062879771e+01 +3.3779847039e+01 +2.4902969684e+01 4.7787271044e+01 2.0000000000e+01 4.9597e-01 1.0000e+00
       12  1    3    3    0    0 +1.1062879771e+01 -3.3779847039e+01 -2.4902969684e+01 4.3400728956e+01 0.0000000000e+00 0.0000e+00 -1.0000e+00
</event>
<event>
 5      4 +2.9511900e-02 9.11880000e+01 7.81616400e-03 1.18400000e-01
      -11 -1    0    0    0    0 +0.0000000000e+00 +0.0000000000e+00 +4.5593999997e+01 4.5594000000e+01 5.1100000000e-04 0.0000e+00 -1.0000e+00
       11 -1    0    0    0    0 -0.0000000000e+00 -0.0000000000e+00 -4.5593999997e+01 4.5594000000e+01 5.1100000000e-04 0.0000e+00 1.0000e+00
       23  2    1    2    0    0 +0.0000000000e+00 +0.0000000000e+00 +0.0000000000e+00 9.1188000000e+01 9.1188000000e+01 2.0979e-14 0.0000e+00
  9900012  1    3    3    0    0 +1.2921562517e+01 +3.4605816715e+01 +2.2783633282e+01 4.7787271044e+01 2.0000000000e+01 1.7977e-02 -1.0000e+00
      -12  1    3    3    0    0 -1.2921562517e+01 -3.4605816715e+01 -2.2783633282e+01 4.3400728956e+01 0.0000000000e+00 0.0000e+00 1.0000e+00
</event>
<event>
 5      4 +2.9511900e-02 9.11880000e+01 7.81616400e-03 1.18400000e-01
      -11 -1    0    0    0    0 +0.0000000000e+00 +0.0000000000e+00 +4.5593999997e+01 4.5594000000e+01 5.1100000000e-04 0.0000e+00 -1.0000e+00
       11 -1    0    0    0    0 -0.0000000000e+00 -0.0000000000e+00 -4.5593999997e+01 4.5594000000e+01 5.1100000000e-04 0.0000e+00 1.0000e+00
       23  2    1    2    0    0 +0.0000000000e+00 +0.0000000000e+00 +0.0000000000e+00 9.1188000000e+01 9.1188000000e+01 2.8085e-14 0.0000e+00
  9900012  1    3    3    0    0 -2.8504116183e+00 -3.5332523146e+01 +2.5042189113e+01 4.7787271044e+01 2.0000000000e+01 1.2998e-01 -1.0000e+00
      -12  1    3    3    0    0 +2.8504116183e+00 +3.5332523146e+01 -2.5042189113e+01 4.3400728956e+01 0.0000000000e+00 0.0000e+00 1.0000e+00
</event>
<event>
 5      8 +2.9511900e-02 9.11880000e+01 7.81616400e-03 1.18400000e-01
      -11 -1    0    0    0    0 +0.0000000000e+00 +0.0000000000e+00 +4.5593999997e+01 4.5594000000e+01 5.1100000000e-04 0.0000e+00 1.0000e+00
       11 -1    0    0    0    0 -0.0000000000e+00 -0.0000000000e+00 -4.5593999997e+01 4.5594000000e+01 5.1100000000e-04 0.0000e+00 -1.0000e+00
       23  2    1    2    0    0 +0.0000000000e+00 +0.0000000000e+00 +0.0000000000e+00 9.1188000000e+01 9.1188000000e+01 3.6942e-15 0.0000e+00
  9900012  1    3    3    0    0 -2.5854767601e+01 +2.7219889355e-01 -3.4858000142e+01 4.7787271044e+01 2.0000000000e+01 1.2951e-01 -1.0000e+00
      -12  1    3    3    0    0 +2.5854767601e+01 -2.7219889355e-01 +3.4858000142e+01 4.3400728956e+01 0.0000000000e+00 0.0000e+00 1.0000e+00
</event>
<event>
 5      2 +2.9511900e-02 9.11880000e+01 7.81616400e-03 1.18400000e-01
      -11 -1    0    0    0    0 +0.0000000000e+00 +0.0000000000e+00 +4.5593999997e+01 4.5594000000e+01 5.1100000000e-04 0.0000e+00 1.0000e+00
       11 -1    0    0    0    0 -0.0000000000e+00 -0.0000000000e+00 -4.5593999997e+01 4.5594000000e+01 5.1100000000e-04 0.0000e+00 -1.0000e+00
       23  2    1    2    0    0 +0.0000000000e+00 +0.0000000000e+00 +0.0000000000e+00 9.1188000000e+01 9.1188000000e+01 1.5570e-13 0.0000e+00
  9900012  1    3    3    0    0 +3.8560082238e+01 -1.9385833830e+01 -4.5752353403e+00 4.7787271044e+01 2.0000000000e+01 4.2922e-03 -1.0000e+00
      -12  1    3    3    0    0 -3.8560082238e+01 +1.9385833830e+01 +4.5752353403e+00 4.3400728956e+01 0.0000000000e+00 0.0000e+00 1.0000e+00
</event>
<event>
 5      1 +2.9511900e-02 9.11880000e+01 7.81616400e-03 1.18400000e-01
      -11 -1    0    0    0    0 +0.0000000000e+00 +0.0000000000e+00 +4.5593999997e+01 4.5594000000e+01 5.1100000000e-04 0.0000e+00 1.0000e+00
       11 -1    0    0    0    0 -0.0000000000e+00 -0.0000000000e+00 -4.5593999997e+01 4.5594000000e+01 5.1100000000e-04 0.0000e+00 -1.0000e+00
       23  2    1    2    0    0 +0.0000000000e+00 +0.0000000000e+00 +0.0000000000e+00 9.1188000000e+01 9.1188000000e+01 1.3319e-13 0.0000e+00
  9900012  1    3    3    0    0 -8.0021585042e+00 -1.0733433979e+00 +4.2643131535e+01 4.7787271044e+01 2.0000000000e+01 1.2537e-01 1.0000e+00
       12  1    3    3    0    0 +8.0021585042e+00 +1.0733433979e+00 -4.2643131535e+01 4.3400728956e+01 0.0000000000e+00 0.0000e+00 -1.0000e+00
</event>
<event>
 5      7 +2.9511900e-02 9.11880000e+01 7.81616400e-03 1.18400000e-01
      -11 -1    0    0    0    0 +0.0000000000e+00 +0.0000000000e+00 +4.5593999997e+01 4.5594000000e+01 5.1100000000e-04 0.0000e+00 1.0000e+00
       11 -1    0    0    0    0 -0.0000000000e+00 -0.0000000000e+00 -4.5593999997e+01 4.5594000000e+01 5.1100000000e-04 0.0000e+00 -1.0000e+00
       23  2    1    2    0    0 +0.0000000000e+00 +0.0000000000e+00 +0.0000000000e+00 9.1188000000e+01 9.1188000000e+01 1.4209e-13 0.0000e+00
  9900012  1    3    3    0    0 -4.0442372057e+01 -7.3262245192e+00 -1.3941457979e+01 4.7787271044e+01 2.0000000000e+01 1.8604e-01 1.0000e+00
       12  1    3    3    0    0 +4.0442372057e+01 +7.3262245192e+00 +1.3941457979e+01 4.3400728956e+01 0.0000000000e+00 0.0000e+00 -1.0000e+00
</event>
<event>
 5      5 +2.9511900e-02 9.11880000e+01 7.81616400e-03 1.18400000e-01
      -11 -1    0    0    0    0 +0.0000000000e+00 +0.0000000000e+00 +4.5593999997e+01 4.5594000000e+01 5.1100000000e-04 0.0000e+00 -1.0000e+00
       11 -1    0    0    0    0 -0.0000000000e+00 -0.0000000000e+00 -4.5593999997e+01 4.5594000000e+01 5.1100000000e-04 0.0000e+00 1.0000e+00
       23  2    1    2    0    0 +0.0000000000e+00 +0.0000000000e+00 +0.0000000000e+00 9.1188000000e+01 9.1188000000e+01 8.5168e-15 0.0000e+00
  9900012  1    3    3    0    0 -1.0417325818e+01 +5.9478675152e-01 -4.2127767866e+01 4.7787271044e+01 2.0000000000e+01 3.2637e-02 1.0000e+00
       12  1    3    3    0    0 +1.0417325818e+01 -5.9478675152e-01 +4.2127767866e+01 4.3400728956e+01 0.0000000000e+00 0.0000e+00 -1.0000e+00
</event>
<event>
 5      4 +2.9511900e-02 9.11880000e+01 7.81616400e-03 1.18400000e-01
      -11 -1    0    0    0    0 +0.0000000000e+00 +0.0000000000e+00 +4.5593999997e+01 4.5594000000e+01 5.1100000000e-04 0.0000e+00 1.0000e+00
       11 -1    0    0    0    0 -0.0000000000e+00 -0.0000000000e+00 -4.5593999997e+01 4.5594000000e+01 5.1100000000e-04 0.0000e+00 -1.0000e+00
       23  2    1    2    0    0 +0.0000000000e+00 +0.0000000000e+00 +0.0000000000e+00 9.1188000000e+01 9.1188000000e+01 1.3889e-13 0.0000e+00
  9900012  1    3    3    0    0 +2.1043071864e+01 -1.1246755096e+01 -3.6253591549e+01 4.7787271044e+01 2.0000000000e+01 5.6739e-01 -1.0000e+00
      -12  1    3    3    0    0 -2.1043071864e+01 +1.1246755096e+01 +3.6253591549e+01 4.3400728956e+01 0.0000000000e+00 0.0000e+00 1.0000e+00
</event>
<event>
 5      5 +2.9511900e-02 9.11880000e+01 7.81616400e-03 1.18400000e-01
      -11 -1    0    0    0    0 +0.0000000000e+00 +0.0000000000e+00 +4.5593999997e+01 4.5594000000e+01 5.1100000000e-04 0.0000e+00 1.0000e+00
       11 -1    0    0    0    0 -0.0000000000e+00 -0.0000000000e+00 -4.5593999997e+01 4.5594000000e+01 5.1100000000e-04 0.0000e+00 -1.0000e+00
       23  2    1    2    0    0 +0.0000000000e+00 +0.0000000000e+00 +0.0000000000e+00 9.1188000000e+01 9.1188000000e+01 3.8074e-15 0.0000e+00
  9900012  1    3    3    0    0 -8.7908280648e+00 +3.9943359689e+01 +1.4521454217e+01 4.7787271044e+01 2.0000000000e+01 4.2993e-03 1.0000e+00
       12  1    3    3    0    0 +8.7908280648e+00 -3.9943359689e+01 -1.4521454217e+01 4.3400728956e+01 0.0000000000e+00 0.0000e+00 -1.0000e+00
</event>
<event>
 5      2 +2.9511900e-02 9.11880000e+01 7.81616400e-03 1.18400000e-01
      -11 -1    0    0    0    0 +0.0000000000e+00 +0.0000000000e+00 +4.5593999997e+01 4.5594000000e+01 5.1100000000e-04 0.0000e+00 -1.0000e+00
       11 -1    0    0    0    0 -0.0000000000e+00 -0.0000000000e+00 -4.5593999997e+01 4.5594000000e+01 5.1100000000e-04 0.0000e+00 1.0000e+00
       23  2    1    2    0    0 +0.0000000000e+00 +0.0000000000e+00 +0.0000000000e+00 9.1188000000e+01 9.1188000000e+01 6.9472e-14 0.0000e+00
  9900012  1    3    3    0    0 +2.4910669100e+00 +2.4215769431e+01 +3.5930688421e+01 4.7787271044e+01 2.0000000000e+01 1.8406e-01 -1.0000e+00
      -12  1    3    3    0    0 -2.4910669100e+00 -2.4215769431e+01 -3.5930688421e+01 4.3400728956e+01 0.0000000000e+00 0.0000e+00 1.0000e+00
</event>
<event>
 5      2 +2.9511900e-02 9.11880000e+01 7.81616400e-03 1.18400000e-01
      -11 -1    0    0    0    0 +0.0000000000e+00 +0.0000000000e+00 +4.5593999997e+01 4.5594000000e+01 5.1100000000e-04 0.0000e+00 1.0000e+00
       11 -1    0    0    0    0 -0.0000000000e+00 -0.0000000000e+00 -4.5593999997e+01 4.5594000000e+01 5.1100000000e-04 0.0000e+00 -1.0000e+00
       23  2    1    2    0    0 +0.0000000000e+00 +0.0000000000e+00 +0.0000000000e+00 9.1188000000e+01 9.1188000000e+01 1.8584e-13 0.0000e+00
  9900012  1    3    3    0    0 -7.1757107373e+00 -4.1772175927e+01 +9.3390453254e+00 4.7787271044e+01 2.0000000000e+01 2.8739e-03 -1.0000e+00
      -12  1    3    3    0    0 +7.1757107373e+00 +4.1772175927e+01 -9.3390453254e+00 4.3400728956e+01 0.0000000000e+00 0.0000e+00 1.0000e+00
</event>
<event>
 5      1 +2.9511900e-02 9.11880000e+01 7.81616400e-03 1.18400000e-01
      -11 -1    0    0    0    0 +0.0000000000e+00 +0.0000000000e+00 +4.5593999997e+01 4.5594000000e+01 5.1100000000e-04 0.0000e+00 -1.0000e+00
       11 -1    0    0    0    0 -0.0000000000e+00 -0.0000000000e+00 -4.5593999997e+01 4.5594000000e+01 5.1100000000e-04 0.0000e+00 1.0000e+00
       23  2    1    2    0    0 +0.0000000000e+00 +0.0000000000e+00 +0.0000000000e+00 9.1188000000e+01 9.1188000000e+01 4.0746e-14 0.0000e+00
  9900012  1    3    3    0    0 -3.1390013538e+01 +2.1484586592e+01 -2.0897436755e+01 4.7787271044e+01 2.0000000000e+01 3.8986e-02 1.0000e+00
       12  1    3    3    0    0 +3.1390013538e+01 -2.1484586592e+01 +2.0897436755e+01 4.3400728956e+01 0.0000000000e+00 0.0000e+00 -1.0000e+00
</event>
<event>
 5      8 +2.9511900e-02 9.11880000e+01 7.81616400e-03 1.18400000e-01
      -11 -1    0    0    0    0 +0.0000000000e+00 +0.0000000000e+00 +4.5593999997e+01 4.5594000000e+01 5.1100000000e-04 0.0000e+00 1.0000e+00
       11 -1    0    0    0    0 -0.0000000000e+00 -0.0000000000e+00 -4.5593999997e+01 4.5594000000e+01 5.1100000000e-04 0.0000e+00 -1.0000e+00
       23  2    1    2    0    0 +0.0000000000e+00 +0.0000000000e+00 +0.0000000000e+00 9.1188000000e+01 9.1188000000e+01 3.5838e-16 0.0000e+00
  9900012  1    3    3    0    0 +2.1352655046e+01 -2.6468868243e+01 -2.6964539868e+01 4.7787271044e+01 2.0000000000e+01 5.9780e-02 -1.0000e+00
      -12  1    3    3    0    0 -2.1352655046e+01 +2.6468868243e+01 +2.6964539868e+01 4.3400728956e+01 0.0000000000e+00 0.0000e+00 1.0000e+00
</event>
<event>
 5      2 +2.9511900e-02 9.11880000e+01 7.81616400e-03 1.18400000e-01
      -11 -1    0    0    0    0 +0.0000000000e+00 +0.0000000000e+00 +4.5593999997e+01 4.5594000000e+01 5.1100000000e-04 0.0000e+00 1.0000e+00
       11 -1    0    0    0    0 -0.0000000000e+00 -0.0000000000e+00 -4.5593999997e+01 4.5594000000e+01 5.1100000000e-04 0.0000e+00 -1.0000e+00
       23  2    1    2    0    0 +0.0000000000e+00 +0.0000000000e+00 +0.0000000000e+00 9.1188000000e+01 9.1188000000e+01 1.1459e-13 0.0000e+00
  9900012  1    3    3    0    0 -4.2960833519e+01 +2.0525354155e+00 +5.8118117296e+00 4.7787271044e+01 2.0000000000e+01 2.7267e-02 -1.0000e+00
      -12  1    3    3    0    0 +4.2960833519e+01 -2.0525354155e+00 -5.8118117296e+00 4.3400728956e+01 0.0000000000e+00 0.0000e+00 1.0000e+00
</event>
<event>
 5      2 +2.9511900e-02 9.11880000e+01 7.81616400e-03 1.18400000e-01
      -11 -1    0    0    0    0 +0.0000000000e+00 +0.0000000000e+00 +4.5593999997e+01 4.5594000000e+01 5.1100000000e-04 0.0000e+00 1.0000e+00
       11 -1    0    0    0    0 -0.0000000000e+00 -0.0000000000e+00 -4.5593999997e+01 4.5594000000e+01 5.1100000000e-04 0.0000e+00 -1.0000e+00
       23  2    1    2    0    0 +0.0000000000e+00 +0.0000000000e+00 +0.0000000000e+00 9.1188000000e+01 9.1188000000e+01 1.2556e-13 0.0000e+00
  9900012  1    3    3    0    0 -4.1092803105e+01 +8.0045561907e+00 -1.1442547228e+01 4.7787271044e+01 2.0000000000e+01 3.6399e-02 -1.0000e+00
      -12  1    3    3    0    0 +4.1092803105e+01 -8.0045561907e+00 +1.1442547228e+01 4.3400728956e+01 0.0000000000e+00 0.0000e+00 1.0000e+00
</event>
<event>
 5      4 +2.9511900e-02 9.11880000e+01 7.81616400e-03 1.18400000e-01
      -11 -1    0    0    0    0 +0.0000000000e+00 +0.0000000000e+00 +4.5593999997e+01 4.5594000000e+01 5.1100000000e-04 0.0000e+00 -1.0000e+00
       11 -1    0    0    0    0 -0.0000000000e+00 -0.0000000000e+00 -4.5593999997e+01 4.5594000000e+01 5.1100000000e-04 0.0000e+00 1.0000e+00
       23  2    1    2    0    0 +0.0000000000e+00 +0.0000000000e+00 +0.0000000000e+00 9.1188000000e+01 9.1188000000e+01 5.2024e-14 0.0000e+00
  9900012  1    3    3    0    0 -3.6966716839e+00 -3.7322715462e+01 +2.1839707023e+01 4.7787271044e+01 2.0000000000e+01 1.9219e-02 -1.0000e+00
      -12  1    3    3    0    0 +3.6966716839e+00 +3.7322715462e+01 -2.1839707023e+01 4.3400728956e+01 0.0000000000e+00 0.0000e+00 1.0000e+00
</event>
<event>
 5      2 +2.9511900e-02 9.11880000e+01 7.81616400e-03 1.18400000e-01
      -11 -1    0    0    0    0 +0.0000000000e+00 +0.0000000000e+00 +4.5593999997e+01 4.5594000000e+01 5.1100000000e-04 0.0000e+00 -1.0000e+00
       11 -1    0    0    0    0 -0.0000000000e+00 -0.0000000000e+00 -4.5593999997e+01 4.5594000000e+01 5.1100000000e-04 0.0000e+00 1.0000e+00
       23  2    1    2    0    0 +0.0000000000e+00 +0.0000000000e+00 +0.0000000000e+00 9.1188000000e+01 9.1188000000e+01 6.3319e-14 0.0000e+00
  9900012  1    3    3    0    0 -1.2846945683e+01 +4.0427562271e+00 +4.1258155346e+01 4.7787271044e+01 2.0000000000e+01 2.3593e-01 -1.0000e+00
      -12  1    3    3    0    0 +1.2846945683e+01 -4.0427562271e+00 -4.1258155346e+01 4.3400728956e+01 0.0000000000e+00 0.0000e+00 1.0000e+00
</event>
<event>
 5      2 +2.9511900e-02 9.11880000e+01 7.81616400e-03 1.18400000e-01
      -11 -1    0    0    0    0 +0.0000000000e+00 +0.0000000000e+00 +4.5593999997e+01 4.5594000000e+01 5.1100000000e-04 0.0000e+00 1.0000e+00
       11 -1    0    0    0    0 -0.0000000000e+00 -0.0000000000e+00 -4.5593999997e+01 4.5594000000e+01 5.1100000000e-04 0.0000e+00 -1.0000e+00
       23  2    1    2    0    0 +0.0000000000e+00 +0.0000000000e+00 +0.0000000000e+00 9.1188000000e+01 9.1188000000e+01 1.7100e-13 0.0000e+00
  9900012  1    3    3    0    0 -1.6922334448e+01 +3.9700286658e+01 +4.5983812331e+00 4.7787271044e+01 2.0000000000e+01 2.0108e-02 -1.0000e+00
      -12  1    3    3    0    0 +1.6922334448e+01 -3.9700286658e+01 -4.5983812331e+00 4.3400728956e+01 0.0000000000e+00 0.0000e+00 1.0000e+00
</event>
<event>
 5      6 +2.9511900e-02 9.11880000e+01 7.81616400e-03 1.18400000e-01
      -11 -1    0    0    0    0 +0.0000000000e+00 +0.0000000000e+00 +4.5593999997e+01 4.5594000000e+01 5.1100000000e-04 0.0000e+00 1.0000e+00
       11 -1    0    0    0    0 -0.0000000000e+00 -0.0000000000e+00 -4.5593999997e+01 4.5594000000e+01 5.1100000000e-04 0.0000e+00 -1.0000e+00
       23  2    1    2    0    0 +0.0000000000e+00 +0.0000000000e+00 +0.0000000000e+00 9.1188000000e+01 9.1188000000e+01 1.2703e-13 0.0000e+00
  9900012  1    3    3    0    0 +2.5971233449e+01 +1.4948258766e+01 -3.1395347854e+01 4.7787271044e+01 2.0000000000e+01 7.7629e-03 1.0000e+00
      -12  1    3    3    0    0 -2.5971233449e+01 -1.4948258766e+01 +3.1395347854e+01 4.3400728956e+01 0.0000000000e+00 0.0000e+00 1.0000e+00
</event>
<event>
 5      1 +2.9511900e-02 9.11880000e+01 7.81616400e-03 1.18400000e-01
      -11 -1    0    0    0    0 +0.0000000000e+00 +0.0000000000e+00 +4.5593999997e+01 4.5594000000e+01 5.1100000000e-04 0.0000e+00 1.0000e+00
       11 -1    0    0    0    0 -0.0000000000e+00 -0.0000000000e+00 -4.5593999997e+01 4.5594000000e+01 5.1100000000e-04 0.0000e+00 -1.0000e+00
       23  2    1    2    0    0 +0.0000000000e+00 +0.0000000000e+00 +0.0000000000e+00 9.1188000000e+01 9.1188000000e+01 1.0128e-13 0.0000e+00
  9900012  1    3    3    0    0 -3.2152090145e+01 +1.7109104355e+01 +2.3603917500e+01 4.7787271044e+01 2.0000000000e+01 1.2616e-01 1.0000e+00
       12  1    3    3    0    0 +3.2152090145e+01 -1.7109104355e+01 -2.3603917500e+01 4.3400728956e+01 0.0000000000e+00 0.0000e+00 -1.0000e+00
</event>
<event>
 5      1 +2.9511900e-02 9.11880000e+01 7.81616400e-03 1.18400000e-01
      -11 -1    0    0    0    0 +0.0000000000e+00 +0.0000000000e+00 +4.5593999997e+01 4.5594000000e+01 5.1100000000e-04 0.0000e+00 1.0000e+00
       11 -1    0    0    0    0 -0.0000000000e+00 -0.0000000000e+00 -4.5593999997e+01 4.5594000000e+01 5.1100000000e-04 0.0000e+00 -1.0000e+00
       23  2    1    2    0    0 +0.0000000000e+00 +0.0000000000e+00 +0.0000000000e+00 9.1188000000e+01 9.1188000000e+01 3.5052e-14 0.0000e+00
  9900012  1    3    3    0    0 -3.9231035935e+01 -7.1968944143e+00 +1.7110049798e+01 4.7787271044e+01 2.0000000000e+01 4.5425e-02 -1.0000e+00
       12  1    3    3    0    0 +3.9231035935e+01 +7.1968944143e+00 -1.7110049798e+01 4.3400728956e+01 0.0000000000e+00 0.0000e+00 -1.0000e+00
</event>
<event>
 5      8 +2.9511900e-02 9.11880000e+01 7.81616400e-03 1.18400000e-01
      -11 -1    0    0    0    0 +0.0000000000e+00 +0.0000000000e+00 +4.5593999997e+01 4.5594000000e+01 5.1100000000e-04 0.0000e+00 1.0000e+00
       11 -1    0    0    0    0 -0.0000000000e+00 -0.0000000000e+00 -4.5593999997e+01 4.5594000000e+01 5.1100000000e-04 0.0000e+00 -1.0000e+00
       23  2    1    2    0    0 +0.0000000000e+00 +0.0000000000e+00 +0.0000000000e+00 9.1188000000e+01 9.1188000000e+01 2.7830e-14 0.0000e+00
  9900012  1    3    3    0    0 -1.1039235148e+01 +3.9082254966e+01 +1.5308034099e+01 4.7787271044e+01 2.0000000000e+01 3.6469e-02 -1.0000e+00
      -12  1    3    3    0    0 +1.1039235148e+01 -3.9082254966e+01 -1.5308034099e+01 4.3400728956e+01 0.0000000000e+00 0.0000e+00 1.0000e+00
</event>
<event>
 5      7 +2.9511900e-02 9.11880000e+01 7.81616400e-03 1.18400000e-01
      -11 -1    0    0    0    0 +0.0000000000e+00 +0.0000000000e+00 +4.5593999997e+01 4.5594000000e+01 5.1100000000e-04 0.0000e+00 -1.0000e+00
       11 -1    0    0    0    0 -0.0000000000e+00 -0.0000000000e+00 -4.5593999997e+01 4.5594000000e+01 5.1100000000e-04 0.0000e+00 1.0000e+00
       23  2    1    2    0    0 +0.0000000000e+00 +0.0000000000e+00 +0.0000000000e+00 9.1188000000e+01 9.1188000000e+01 5.1076e-14 0.0000e+00
  9900012  1    3    3    0    0 -4.0028473065e+01 -1.2839178993e+01 -1.0793521238e+01 4.7787271044e+01 2.0000000000e+01 4.1118e-01 1.0000e+00
       12  1    3    3    0    0 +4.0028473065e+01 +1.2839178993e+01 +1.0793521238e+01 4.3400728956e+01 0.0000000000e+00 0.0000e+00 -1.0000e+00
</event>
<event>
 5      7 +2.9511900e-02 9.11880000e+01 7.81616400e-03 1.18400000e-01
      -11 -1    0    0    0    0 +0.0000000000e+00 +0.0000000000e+00 +4.5593999997e+01 4.5594000000e+01 5.1100000000e-04 0.0000e+00 1.0000e+00
       11 -1    0    0    0    0 -0.0000000000e+00 -0.0000000000e+00 -4.5593999997e+01 4.5594000000e+01 5.1100000000e-04 0.0000e+00 -1.0000e+00
       23  2    1    2    0    0 +0.0000000000e+00 +0.0000000000e+00 +0.0000000000e+00 9.1188000000e+01 9.1188000000e+01 3.1038e-14 0.0000e+00
  9900012  1    3    3    0    0 +1.7369687425e+01 +4.5206352829e+00 +3.9515580336e+01 4.7787271044e+01 2.0000000000e+01 3.4361e-01 1.0000e+00
       12  1    3    3    0    0 -1.7369687425e+01 -4.5206352829e+00 -3.9515580336e+01 4.3400728956e+01 0.0000000000e+00 0.0000e+00 -1.0000e+00
</event>
<event>
 5      7 +2.9511900e-02 9.11880000e+01 7.81616400e-03 1.18400000e-01
      -11 -1    0    0    0    0 +0.0000000000e+00 +0.0000000000e+00 +4.5593999997e+01 4.5594000000e+01 5.1100000000e-04 0.0000e+00 1.0000e+00
       11 -1    0    0    0    0 -0.0000000000e+00 -0.0000000000e+00 -4.5593999997e+01 4.5594000000e+01 5.1100000000e-04 0.0000e+00 -1.0000e+00
       23  2    1    2    0    0 +0.0000000000e+00 +0.0000000000e+00 +0.0000000000e+00 9.1188000000e+01 9.1188000000e+01 7.9166e-15 0.0000e+00
  9900012  1    3    3    0    0 +1.6443791219e+01 +2.4911126392e+01 +3.1506519740e+01 4.7787271044e+01 2.0000000000e+01 1.8858e-02 1.0000e+00
       12  1    3    3    0    0 -1.6443791219e+01 -2.4911126392e+01 -3.1506519740e+01 4.3400728956e+01 0.0000000000e+00 0.0000e+00 -1.0000e+00
</event>
<event>
 5      6 +2.9511900e-02 9.11880000e+01 7.81616400e-03 1.18400000e-01
      -11 -1    0    0    0    0 +0.0000000000e+00 +0.0000000000e+00 +4.5593999997e+01 4.5594000000e+01 5.1100000000e-04 0.0000e+00 -1.0000e+00
       11 -1    0    0    0    0 -0.0000000000e+00 -0.0000000000e+00 -4.5593999997e+01 4.5594000000e+01 5.1100000000e-04 0.0000e+00 1.0000e+00
       23  2    1    2    0    0 +0.0000000000e+00 +0.0000000000e+00 +0.0000000000e+00 9.1188000000e+01 9.1188000000e+01 3.7400e-14 0.0000e+00
  9900012  1    3    3    0    0 +1.7951911910e+01 +1.0306229034e+01 +3.8146215746e+01 4.7787271044e+01 2.0000000000e+01 3.7285e-02 -1.0000e+00
      -12  1    3    3    0    0 -1.7951911910e+01 -1.0306229034e+01 -3.8146215746e+01 4.3400728956e+01 0.0000000000e+00 0.0000e+00 1.0000e+00
</event>
<event>
 5      4 +2.9511900e-02 9.11880000e+01 7.81616400e-03 1.18400000e-01
      -11 -1    0    0    0    0 +0.0000000000e+00 +0.0000000000e+00 +4.5593999997e+01 4.5594000000e+01 5.1100000000e-04 0.0000e+00 1.0000e+00
       11 -1    0    0    0    0 -0.0000000000e+00 -0.0000000000e+00 -4.5593999997e+01 4.5594000000e+01 5.1100000000e-04 0.0000e+00 -1.0000e+00
       23  2    1    2    0    0 +0.0000000000e+00 +0.0000000000e+00 +0.0000000000e+00 9.1188000000e+01 9.1188000000e+01 9.0785e-14 0.0000e+00
  9900012  1    3    3    0    0 +1.9496465850e+01 -1.8412060365e+01 -3.4124875477e+01 4.7787271044e+01 2.0000000000e+01 1.3559e-01 -1.0000e+00
      -12  1    3    3    0    0 -1.9496465850e+01 +1.8412060365e+01 +3.4124875477e+01 4.3400728956e+01 0.0000000000e+00 0.0000e+00 1.0000e+00
</event>
<event>
 5      4 +2.9511900e-02 9.11880000e+01 7.81616400e-03 1.18400000e-01
      -11 -1    0    0    0    0 +0.0000000000e+00 +0.0000000000e+00 +4.5593999997e+01 4.5594000000e+01 5.1100000000e-04 0.0000e+00 1.0000e+00
       11 -1    0    0    0    0 -0.0000000000e+00 -0.0000000000e+00 -4.5593999997e+01 4.5594000000e+01 5.1100000000e-04 0.0000e+00 -1.0000e+00
       23  2    1    2    0    0 +0.0000000000e+00 +0.0000000000e+00 +0.0000000000e+00 9.1188000000e+01 9.1188000000e+01 7.4748e-14 0.0000e+00
  9900012  1    3    3    0    0 +7.2521073152e+00 +5.9833232874e+00 -4.2370155249e+01 4.7787271044e+01 2.0000000000e+01 9.3976e-02 -1.0000e+00
      -12  1    3    3    0    0 -7.2521073152e+00 -5.9833232874e+00 +4.2370155249e+01 4.3400728956e+01 0.0000000000e+00 0.0000e+00 1.0000e+00
</event>
<event>
 5      3 +2.9511900e-02 9.11880000e+01 7.81616400e-03 1.18400000e-01
      -11 -1    0    0    0    0 +0.0000000000e+00 +0.0000000000e+00 +4.5593999997e+01 4.5594000000e+01 5.1100000000e-04 0.0000e+00 1.0000e+00
       11 -1    0    0    0    0 -0.0000000000e+00 -0.0000000000e+00 -4.5593999997e+01 4.5594000000e+01 5.1100000000e-04 0.0000e+00 -1.0000e+00
       23  2    1    2    0    0 +0.0000000000e+00 +0.0000000000e+00 +0.0000000000e+00 9.1188000000e+01 9.1188000000e+01 1.5602e-13 0.0000e+00
  9900012  1    3    3    0    0 +3.3239324158e+01 +2.7059215738e+01 -6.8241810552e+00 4.7787271044e+01 2.0000000000e+01 1.3062e-01 1.0000e+00
       12  1    3    3    0    0 -3.3239324158e+01 -2.7059215738e+01 +6.8241810552e+00 4.3400728956e+01 0.0000000000e+00 0.0000e+00 -1.0000e+00
</event>
<event>
 5      5 +2.9511900e-02 9.11880000e+01 7.81616400e-03 1.18400000e-01
      -11 -1    0    0    0    0 +0.0000000000e+00 +0.0000000000e+00 +4.5593999997e+01 4.5594000000e+01 5.1100000000e-04 0.0000e+00 -1.0000e+00
       11 -1    0    0    0    0 -0.0000000000e+00 -0.0000000000e+00 -4.5593999997e+01 4.5594000000e+01 5.1100000000e-04 0.0000e+00 1.0000e+00
       23  2    1    2    0    0 +0.0000000000e+00 +0.0000000000e+00 +0.0000000000e+00 9.1188000000e+01 9.1188000000e+01 4.9078e-14 0.0000e+00
  9900012  1    3    3    0    0 -8.5160886592e+00 -3.1878080078e+00 -4.2437452656e+01 4.7787271044e+01 2.0000000000e+01 5.3726e-01 1.0000e+00
       12  1    3    3    0    0 +8.5160886592e+00 +3.1878080078e+00 +4.2437452656e+01 4.3400728956e+01 0.0000000000e+00 0.0000e+00 -1.0000e+00
</event>
<event>
 5      3 +2.9511900e-02 9.11880000e+01 7.81616400e-03 1.18400000e-01
      -11 -1    0    0    0    0 +0.0000000000e+00 +0.0000000000e+00 +4.5593999997e+01 4.5594000000e+01 5.1100000000e-04 0.0000e+00 1.0000e+00
       11 -1    0    0    0    0 -0.0000000000e+00 -0.0000000000e+00 -4.5593999997e+01 4.5594000000e+01 5.1100000000e-04 0.0000e+00 -1.0000e+00
       23  2    1    2    0    0 +0.0000000000e+00 +0.0000000000e+00 +0.0000000000e+00 9.1188000000e+01 9.1188000000e+01 1.2014e-14 0.0000e+00
  9900012  1    3    3    0    0 +3.2167071861e+01 +1.2517066168e+01 +2.6310184650e+01 4.7787271044e+01 2.0000000000e+01 1.8269e-02 1.0000e+00
       12  1    3    3    0    0 -3.2167071861e+01 -1.2517066168e+01 -2.6310184650e+01 4.3400728956e+01 0.0000000000e+00 0.0000e+00 -1.0000e+00
</event>
<event>
 5      1 +2.9511900e-02 9.11880000e+01 7.81616400e-03 1.18400000e-01
      -11 -1    0    0    0    0 +0.0000000000e+00 +0.0000000000e+00 +4.5593999997e+01 4.5594000000e+01 5.1100000000e-04 0.0000e+00 1.0000e+00
       11 -1    0    0    0    0 -0.0000000000e+00 -0.0000000000e+00 -4.5593999997e+01 4.5594000000e+01 5.1100000000e-04 0.0000e+00 -1.0000e+00
       23  2    1    2    0    0 +0.0000000000e+00 +0.0000000000e+00 +0.0000000000e+00 9.1188000000e+01 9.1188000000e+01 1.9014e-13 0.0000e+00
  9900012  1    3    3    0    0 -2.8777974478e+01 +8.2590408303e+00 +3.1420370835e+01 4.7787271044e+01 2.0000000000e+01 1.3750e-01 1.0000e+00
       12  1    3    3    0    0 +2.8777974478e+01 -8.2590408303e+00 -3.1420370835e+01 4.3400728956e+01 0.0000000000e+00 0.0000e+00 -1.0000e+00
</event>
<event>
 5      5 +2.9511900e-02 9.11880000e+01 7.81616400e-03 1.18400000e-01
      -11 -1    0    0    0    0 +0.0000000000e+00 +0.0000000000e+00 +4.5593999997e+01 4.5594000000e+01 5.1100000000e-04 0.0000e+00 -1.0000e+00
       11 -1    0    0    0    0 -0.0000000000e+00 -0.0000000000e+00 -4.5593999997e+01 4.5594000000e+01 5.1100000000e-04 0.0000e+00 1.0000e+00
       23  2    1    2    0    0 +0.0000000000e+00 +0.0000000000e+00 +0.0000000000e+00 9.1188000000e+01 9.1188000000e+01 1.6952e-13 0.0000e+00
  9900012  1    3    3    0    0 -1.4769232043e+01 +3.4525856961e+01 -2.1759096026e+01 4.7787271044e+01 2.0000000000e+01 9.4249e-02 1.0000e+00
       12  1    3    3    0    0 +1.4769232043e+01 -3.4525856961e+01 +2.1759096026e+01 4.3400728956e+01 0.0000000000e+00 0.0000e+00 -1.0000e+00
</event>
<event>
 5      4 +2.9511900e-02 9.11880000e+01 7.81616400e-03 1.18400000e-01
      -11 -1    0    0    0    0 +0.0000000000e+00 +0.0000000000e+00 +4.5593999997e+01 4.5594000000e+01 5.1100000000e-04 0.0000e+00 1.0000e+00
       11 -1    0    0    0    0 -0.0000000000e+00 -0.0000000000e+00 -4.5593999997e+01 4.5594000000e+01 5.1100000000e-04 0.0000e+00 -1.0000e+00
       23  2    1    2    0    0 +0.0000000000e+00 +0.0000000000e+00 +0.0000000000e+00 9.1188000000e+01 9.1188000000e+01 4.3519e-14 0.0000e+00
  9900012  1    3    3    0    0 +3.0986184129e+00 +4.3170089954e+01 -3.2194985874e+00 4.7787271044e+01 2.0000000000e+01 5.5022e-03 -1.0000e+00
      -12  1    3    3    0    0 -3.0986184129e+00 -4.3170089954e+01 +3.2194985874e+00 4.3400728956e+01 0.0000000000e+00 0.0000e+00 1.0000e+00
</event>
<event>
 5      1 +2.9511900e-02 9.11880000e+01 7.81616400e-03 1.18400000e-01
      -11 -1    0    0    0    0 +0.0000000000e+00 +0.0000000000e+00 +4.5593999997e+01 4.5594000000e+01 5.1100000000e-04 0.0000e+00 -1.0000e+00
       11 -1    0    0    0    0 -0.0000000000e+00 -0.0000000000e+00 -4.5593999997e+01 4.5594000000e+01 5.1100000000e-04 0.0000e+00 1.0000e+00
       23  2    1    2    0    0 +0.0000000000e+00 +0.0000000000e+00 +0.0000000000e+00 9.1188000000e+01 9.1188000000e+01 1.1906e-13 0.0000e+00
  9900012  1    3    3    0    0 -3.7163201231e+01 -1.9202252494e+01 +1.1566903100e+01 4.7787271044e+01 2.0000000000e+01 1.8532e-01 1.0000e+00
       12  1    3    3    0    0 +3.7163201231e+01 +1.9202252494e+01 -1.1566903100e+01 4.3400728956e+01 0.0000000000e+00 0.0000e+00 -1.0000e+00
</event>
<event>
 5      4 +2.9511900e-02 9.11880000e+01 7.81616400e-03 1.18400000e-01
      -11 -1    0    0    0    0 +0.0000000000e+00 +0.0000000000e+00 +4.5593999997e+01 4.5594000000e+01 5.1100000000e-04 0.0000e+00 1.0000e+00
       11 -1    0    0    0    0 -0.0000000000e+00 -0.0000000000e+00 -4.5593999997e+01 4.5594000000e+01 5.1100000000e-04 0.0000e+00 -1.0000e+00
       23  2    1    2    0    0 +0.0000000000e+00 +0.0000000000e+00 +0.0000000000e+00 9.1188000000e+01 9.1188000000e+01 7.5831e-14 0.0000e+00
  9900012  1    3    3    0    0 -2.2727228388e+01 +2.9455662483e+01 -2.2348608711e+01 4.7787271044e+01 2.0000000000e+01 1.0505e-02 -1.0000e+00
      -12  1    3    3    0    0 +2.2727228388e+01 -2.9455662483e+01 +2.2348608711e+01 4.3400728956e+01 0.0000000000e+00 0.0000e+00 1.0000e+00
</event>
<event>
 5      6 +2.9511900e-02 9.11880000e+01 7.81616400e-03 1.18400000e-01
      -11 -1    0    0    0    0 +0.0000000000e+00 +0.0000000000e+00 +4.5593999997e+01 4.5594000000e+01 5.1100000000e-04 0.0000e+00 1.0000e+00
       11 -1    0    0    0    0 -0.0000000000e+00 -0.0000000000e+00 -4.5593999997e+01 4.5594000000e+01 5.1100000000e-04 0.0000e+00 -1.0000e+00
       23  2    1    2    0    0 +0.0000000000e+00 +0.0000000000e+00 +0.0000000000e+00 9.1188000000e+01 9.1188000000e+01 5.3598e-14 0.0000e+00
  9900012  1    3    3    0    0 +1.7327009978e+01 -2.7148793592e+01 -2.9091940560e+01 4.7787271044e+01 2.0000000000e+01 1.2217e-01 1.0000e+00
      -12  1    3    3    0    0 -1.7327009978e+01 +2.7148793592e+01 +2.9091940560e+01 4.3400728956e+01 0.0000000000e+00 0.0000e+00 1.0000e+00
</event>
<event>
 5      1 +2.9511900e-02 9.11880000e+01 7.81616400e-03 1.18400000e-01
      -11 -1    0    0    0    0 +0.0000000000e+00 +0.0000000000e+00 +4.5593999997e+01 4.5594000000e+01 5.1100000000e-04 0.0000e+00 -1.0000e+00
       11 -1    0    0    0    0 -0.0000000000e+00 -0.0000000000e+00 -4.5593999997e+01 4.5594000000e+01 5.1100000000e-04 0.0000e+00 1.0000e+00
       23  2    1    2    0    0 +0.0000000000e+00 +0.0000000000e+00 +0.0000000000e+00 9.1188000000e+01 9.1188000000e+01 1.3328e-13 0.0000e+00
  9900012  1    3    3    0    0 -8.6056096012e+00 -1.3708308555e+01 -4.0269703672e+01 4.7787271044e+01 2.0000000000e+01 3.2201e-01 1.0000e+00
       12  1    3    3    0    0 +8.6056096012e+00 +1.3708308555e+01 +4.0269703672e+01 4.3400728956e+01 0.0000000000e+00 0.0000e+00 -1.0000e+00
</event>
<event>
 5      4 +2.9511900e-02 9.11880000e+01 7.81616400e-03 1.18400000e-01
      -11 -1    0    0    0    0 +0.0000000000e+00 +0.0000000000e+00 +4.5593999997e+01 4.5594000000e+01 5.1100000000e-04 0.0000e+00 -1.0000e+00
       11 -1    0    0    0    0 -0.0000000000e+00 -0.0000000000e+00 -4.5593999997e+01 4.5594000000e+01 5.1100000000e-04 0.0000e+00 1.0000e+00
       23  2    1    2    0    0 +0.0000000000e+00 +0.0000000000e+00 +0.0000000000e+00 9.1188000000e+01 9.1188000000e+01 6.1477e-14 0.0000e+00
  9900012  1    3    3    0    0 -2.9511465015e+01 -2.8579239517e+01 -1.3997277420e+01 4.7787271044e+01 2.0000000000e+01 5.8812e-03 -1.0000e+00
      -12  1    3    3    0    0 +2.9511465015e+01 +2.8579239517e+01 +1.3997277420e+01 4.3400728956e+01 0.0000000000e+00 0.0000e+00 1.0000e+00
</event>
<event>
 5      1 +2.9511900e-02 9.11880000e+01 7.81616400e-03 1.18400000e-01
      -11 -1    0    0    0    0 +0.0000000000e+00 +0.0000000000e+00 +4.5593999997e+01 4.5594000000e+01 5.1100000000e-04 0.0000e+00 -1.0000e+00
       11 -1    0    0    0    0 -0.0000000000e+00 -0.0000000000e+00 -4.5593999997e+01 4.5594000000e+01 5.1100000000e-04 0.0000e+00 1.0000e+00
       23  2    1    2    0    0 +0.0000000000e+00 +0.0000000000e+00 +0.0000000000e+00 9.1188000000e+01 9.1188000000e+01 6.1864e-14 0.0000e+00
  9900012  1    3    3    0    0 +3.3111613714e+01 +1.4360029361e+01 -2.4104644115e+01 4.7787271044e+01 2.0000000000e+01 2.1318e-02 1.0000e+00
       12  1    3    3    0    0 -3.3111613714e+01 -1.4360029361e+01 +2.4104644115e+01 4.3400728956e+01 0.0000000000e+00 0.0000e+00 -1.0000e+00
</event>
<event>
 5      1 +2.9511900e-02 9.11880000e+01 7.81616400e-03 1.18400000e-01
      -11 -1    0    0    0    0 +0.0000000000e+00 +0.0000000000e+00 +4.5593999997e+01 4.5594000000e+01 5.1100000000e-04 0.0000e+00 1.0000e+00
       11 -1    0    0    0    0 -0.0000000000e+00 -0.0000000000e+00 -4.5593999997e+01 4.5594000000e+01 5.1100000000e-04 0.0000e+00 -1.0000e+00
       23  2    1    2    0    0 +0.0000000000e+00 +0.0000000000e+00 +0.0000000000e+00 9.1188000000e+01 9.1188000000e+01 6.4140e-14 0.0000e+00
  9900012  1    3    3    0    0 +7.1511517737e+00 +7.6928330913e+00 +4.2110623615e+01 4.7787271044e+01 2.0000000000e+01 6.1113e-03 1.0000e+00
       12  1    3    3    0    0 -7.1511517737e+00 -7.6928330913e+00 -4.2110623615e+01 4.3400728956e+01 0.0000000000e+00 0.0000e+00 -1.0000e+00
</event>
<event>
 5      8 +2.9511900e-02 9.11880000e+01 7.81616400e-03 1.18400000e-01
      -11 -1    0    0    0    0 +0.0000000000e+00 +0.0000000000e+00 +4.5593999997e+01 4.5594000000e+01 5.1100000000e-04 0.0000e+00 1.0000e+00
       11 -1    0    0    0    0 -0.0000000000e+00 -0.0000000000e+00 -4.5593999997e+01 4.5594000000e+01 5.1100000000e-04 0.0000e+00 -1.0000e+00
       23  2    1    2    0    0 +0.0000000000e+00 +0.0000000000e+00 +0.0000000000e+00 9.1188000000e+01 9.1188000000e+01 1.7488e-14 0.0000e+00
  9900012  1    3    3    0    0 +2.1244972448e+01 +1.5312539943e+01 -3.4609255121e+01 4.7787271044e+01 2.0000000000e+01 7.6107e-02 -1.0000e+00
      -12  1    3    3    0    0 -2.1244972448e+01 -1.5312539943e+01 +3.4609255121e+01 4.3400728956e+01 0.0000000000e+00 0.0000e+00 1.0000e+00
</event>
<event>
 5      2 +2.9511900e-02 9.11880000e+01 7.81616400e-03 1.18400000e-01
      -11 -1    0    0    0    0 +0.0000000000e+00 +0.0000000000e+00 +4.5593999997e+01 4.5594000000e+01 5.1100000000e-04 0.0000e+00 -1.0000e+00
       11 -1    0    0    0    0 -0.0000000000e+00 -0.0000000000e+00 -4.5593999997e+01 4.5594000000e+01 5.1100000000e-04 0.0000e+00 1.0000e+00
       23  2    1    2    0    0 +0.0000000000e+00 +0.0000000000e+00 +0.0000000000e+00 9.1188000000e+01 9.1188000000e+01 4.0779e-15 0.0000e+00
  9900012  1    3    3    0    0 +3.9374883094e+01 +1.7317116587e+01 +5.7757534818e+00 4.7787271044e+01 2.0000000000e+01 5.4192e-02 -1.0000e+00
      -12  1    3    3    0    0 -3.9374883094e+01 -1.7317116587e+01 -5.7757534818e+00 4.3400728956e+01 0.0000000000e+00 0.0000e+00 1.0000e+00
</event>
<event>
 5      1 +2.9511900e-02 9.11880000e+01 7.81616400e-03 1.18400000e-01
      -11 -1    0    0    0    0 +0.0000000000e+00 +0.0000000000e+00 +4.5593999997e+01 4.5594000000e+01 5.1100000000e-04 0.0000e+00 1.0000e+00
       11 -1    0    0    0    0 -0.0000000000e+00 -0.0000000000e+00 -4.5593999997e+01 4.5594000000e+01 5.1100000000e-04 0.0000e+00 -1.0000e+00
       23  2    1    2    0    0 +0.0000000000e+00 +0.0000000000e+00 +0.0000000000e+00 9.1188000000e+01 9.1188000000e+01 1.7468e-13 0.0000e+00
  9900012  1    3    3    0    0 +3.7034964844e+01 -6.2526062213e+00 +2.1747173800e+01 4.7787271044e+01 2.0000000000e+01 4.7422e-02 1.0000e+00
       12  1    3    3    0    0 -3.7034964844e+01 +6.2526062213e+00 -2.1747173800e+01 4.3400728956e+01 0.0000000000e+00 0.0000e+00 -1.0000e+00
</event>
<event>
 5      8 +2.9511900e-02 9.11880000e+01 7.81616400e-03 1.18400000e-01
      -11 -1    0    0    0    0 +0.0000000000e+00 +0.0000000000e+00 +4.5593999997e+01 4.5594000000e+01 5.1100000000e-04 0.0000e+00 1.0000e+00
       11 -1    0    0    0    0 -0.0000000000e+00 -0.0000000000e+00 -4.5593999997e+01 4.5594000000e+01 5.1100000000e-04 0.0000e+00 -1.0000e+00
       23  2    1    2    0    0 +0.0000000000e+00 +0.0000000000e+00 +0.0000000000e+00 9.1188000000e+01 9.1188000000e+01 8.6989e-16 0.0000e+00
  9900012  1    3    3    0    0 -6.5954100376e+00 -3.1314754168e+01 -2.9317401176e+01 4.7787271044e+01 2.0000000000e+01 1.9380e-02 -1.0000e+00
      -12  1    3    3    0    0 +6.5954100376e+00 +3.1314754168e+01 +2.9317401176e+01 4.3400728956e+01 0.0000000000e+00 0.0000e+00 1.0000e+00
</event>
<event>
 5      3 +2.9511900e-02 9.11880000e+01 7.81616400e-03 1.18400000e-01
      -11 -1    0    0    0    0 +0.0000000000e+00 +0.0000000000e+00 +4.5593999997e+01 4.5594000000e+01 5.1100000000e-04 0.0000e+00 -1.0000e+00
       11 -1    0    0    0    0 -0.0000000000e+00 -0.0000000000e+00 -4.5593999997e+01 4.5594000000e+01 5.1100000000e-04 0.0000e+00 1.0000e+00
       23  2    1    2    0    0 +0.0000000000e+00 +0.0000000000e+00 +0.0000000000e+00 9.1188000000e+01 9.1188000000e+01 7.3270e-14 0.0000e+00
  9900012  1    3    3    0    0 +7.3273004456e+00 +3.2470245540e+00 -4.2654317174e+01 4.7787271044e+01 2.0000000000e+01 7.0459e-03 1.0000e+00
       12  1    3    3    0    0 -7.3273004456e+00 -3.2470245540e+00 +4.2654317174e+01 4.3400728956e+01 0.0000000000e+00 0.0000e+00 -1.0000e+00
</event>
<event>
 5      1 +2.9511900e-02 9.11880000e+01 7.81616400e-03 1.18400000e-01
      -11 -1    0    0    0    0 +0.0000000000e+00 +0.0000000000e+00 +4.5593999997e+01 4.5594000000e+01 5.1100000000e-04 0.0000e+00 1.0000e+00
       11 -1    0    0    0    0 -0.0000000000e+00 -0.0000000000e+00 -4.5593999997e+01 4.5594000000e+01 5.1100000000e-04 0.0000e+00 -1.0000e+00
       23  2    1    2    0    0 +0.0000000000e+00 +0.0000000000e+00 +0.0000000000e+00 9.1188000000e+01 9.1188000000e+01 4.6630e-14 0.0000e+00
  9900012  1    3    3    0    0 -2.0760925753e+01 +3.4338266574e+01 +1.6537553762e+01 4.7787271044e+01 2.0000000000e+01 8.9756e-02 1.0000e+00
       12  1    3    3    0    0 +2.0760925753e+01 -3.4338266574e+01 -1.6537553762e+01 4.3400728956e+01 0.0000000000e+00 0.0000e+00 -1.0000e+00
</event>
<event>
 5      4 +2.9511900e-02 9.11880000e+01 7.81616400e-03 1.18400000e-01
      -11 -1    0    0    0    0 +0.0000000000e+00 +0.0000000000e+00 +4.5593999997e+01 4.5594000000e+01 5.1100000000e-04 0.0000e+00 1.0000e+00
       11 -1    0    0    0    0 -0.0000000000e+00 -0.0000000000e+00 -4.5593999997e+01 4.5594000000e+01 5.1100000000e-04 0.0000e+00 -1.0000e+00
       23  2    1    2    0    0 +0.0000000000e+00 +0.0000000000e+00 +0.0000000000e+00 9.1188000000e+01 9.1188000000e+01 1.7829e-13 0.0000e+00
  9900012  1    3    3    0    0 +1.3602651423e+01 +3.7697842322e+01 -1.6657245644e+01 4.7787271044e+01 2.0000000000e+01 5.2945e-03 -1.0000e+00
      -12  1    3    3    0    0 -1.3602651423e+01 -3.7697842322e+01 +1.6657245644e+01 4.3400728956e+01 0.0000000000e+00 0.0000e+00 1.0000e+00
</event>
<event>
 5      8 +2.9511900e-02 9.11880000e+01 7.81616400e-03 1.18400000e-01
      -11 -1    0    0    0    0 +0.0000000000e+00 +0.0000000000e+00 +4.5593999997e+01 4.5594000000e+01 5.1100000000e-04 0.0000e+00 -1.0000e+00
       11 -1    0    0    0    0 -0.0000000000e+00 -0.0000000000e+00 -4.5593999997e+01 4.5594000000e+01 5.1100000000e-04 0.0000e+00 1.0000e+00
       23  2    1    2    0    0 +0.0000000000e+00 +0.0000000000e+00 +0.0000000000e+00 9.1188000000e+01 9.1188000000e+01 9.5417e-15 0.0000e+00
  9900012  1    3    3    0    0 +1.1524853052e+01 +3.9401902326e+01 +1.4081588302e+01 4.7787271044e+01 2.0000000000e+01 9.3125e-02 -1.0000e+00
      -12  1    3    3    0    0 -1.1524853052e+01 -3.9401902326e+01 -1.4081588302e+01 4.3400728956e+01 0.0000000000e+00 0.0000e+00 1.0000e+00
</event>
<event>
 5      6 +2.9511900e-02 9.11880000e+01 7.81616400e-03 1.18400000e-01
      -11 -1    0    0    0    0 +0.0000000000e+00 +0.0000000000e+00 +4.5593999997e+01 4.5594000000e+01 5.1100000000e-04 0.0000e+00 1.0000e+00
       11 -1    0    0    0    0 -0.0000000000e+00 -0.0000000000e+00 -4.5593999997e+01 4.5594000000e+01 5.1100000000e-04 0.0000e+00 -1.0000e+00
       23  2    1    2    0    0 +0.0000000000e+00 +0.0000000000e+00 +0.0000000000e+00 9.1188000000e+01 9.1188000000e+01 1.3091e-13 0.0000e+00
  9900012  1    3    3    0    0 +4.3187699371e+01 -4.0176897073e+00 +1.5179151181e+00 4.7787271044e+01 2.0000000000e+01 4.0172e-02 -1.0000e+00
      -12  1    3    3    0    0 -4.3187699371e+01 +4.0176897073e+00 -1.5179151181e+00 4.3400728956e+01 0.0000000000e+00 0.0000e+00 1.0000e+00
</event>
<event>
 5      1 +2.9511900e-02 9.11880000e+01 7.81616400e-03 1.18400000e-01
      -11 -1    0    0    0    0 +0.0000000000e+00 +0.0000000000e+00 +4.5593999997e+01 4.5594000000e+01 5.1100000000e-04 0.0000e+00 1.0000e+00
       11 -1    0    0    0    0 -0.0000000000e+00 -0.0000000000e+00 -4.5593999997e+01 4.5594000000e+01 5.1100000000e-04 0.0000e+00 -1.0000e+00
       23  2    1    2    0    0 +0.0000000000e+00 +0.0000000000e+00 +0.0000000000e+00 9.1188000000e+01 9.1188000000e+01 1.0132e-13 0.0000e+00
  9900012  1    3    3    0    0 -2.4336859662e+01 +3.3308218903e+01 +1.3487145331e+01 4.7787271044e+01 2.0000000000e+01 4.2784e-02 1.0000e+00
       12  1    3    3    0    0 +2.4336859662e+01 -3.3308218903e+01 -1.3487145331e+01 4.3400728956e+01 0.0000000000e+00 0.0000e+00 -1.0000e+00
</event>
<event>
 5      8 +2.9511900e-02 9.11880000e+01 7.81616400e-03 1.18400000e-01
      -11 -1    0    0    0    0 +0.0000000000e+00 +0.0000000000e+00 +4.5593999997e+01 4.5594000000e+01 5.1100000000e-04 0.0000e+00 1.0000e+00
       11 -1    0    0    0    0 -0.0000000000e+00 -0.0000000000e+00 -4.5593999997e+01 4.5594000000e+01 5.1100000000e-04 0.0000e+00 -1.0000e+00
       23  2    1    2    0    0 +0.0000000000e+00 +0.0000000000e+00 +0.0000000000e+00 9.1188000000e+01 9.1188000000e+01 4.2997e-14 0.0000e+00
  9900012  1    3    3    0    0 -3.4901558899e+01 +1.1318272945e+01 -2.3181914456e+01 4.7787271044e+01 2.0000000000e+01 1.3421e-02 -1.0000e+00
      -12  1    3    3    0    0 +3.4901558899e+01 -1.1318272945e+01 +2.3181914456e+01 4.3400728956e+01 0.0000000000e+00 0.0000e+00 1.0000e+00
</event>
<event>
 5      3 +2.9511900e-02 9.11880000e+01 7.81616400e-03 1.18400000e-01
      -11 -1    0    0    0    0 +0.0000000000e+00 +0.0000000000e+00 +4.5593999997e+01 4.5594000000e+01 5.1100000000e-04 0.0000e+00 1.0000e+00
       11 -1    0    0    0    0 -0.0000000000e+00 -0.0000000000e+00 -4.5593999997e+01 4.5594000000e+01 5.1100000000e-04 0.0000e+00 -1.0000e+00
       23  2    1    2    0    0 +0.0000000000e+00 +0.0000000000e+00 +0.0000000000e+00 9.1188000000e+01 9.1188000000e+01 2.6531e-14 0.0000e+00
  9900012  1    3    3    0    0 -2.3160917487e+01 -2.1149004481e+01 +2.9998579708e+01 4.7787271044e+01 2.0000000000e+01 1.5294e-02 1.0000e+00
       12  1    3    3    0    0 +2.3160917487e+01 +2.1149004481e+01 -2.9998579708e+01 4.3400728956e+01 0.0000000000e+00 0.0000e+00 -1.0000e+00
</event>
<event>
 5      4 +2.9511900e-02 9.11880000e+01 7.81616400e-03 1.18400000e-01
      -11 -1    0    0    0    0 +0.0000000000e+00 +0.0000000000e+00 +4.5593999997e+01 4.5594000000e+01 5.1100000000e-04 0.0000e+00 -1.0000e+00
       11 -1    0    0    0    0 -0.0000000000e+00 -0.0000000000e+00 -4.5593999997e+01 4.5594000000e+01 5.1100000000e-04 0.0000e+00 1.0000e+00
       23  2    1    2    0    0 +0.0000000000e+00 +0.0000000000e+00 +0.0000000000e+00 9.1188000000e+01 9.1188000000e+01 1.2987e-14 0.0000e+00
  9900012  1    3    3    0    0 +7.9882743934e-01 +3.0311257567e+01 +3.1051776331e+01 4.7787271044e+01 2.0000000000e+01 4.1154e-01 -1.0000e+00
      -12  1    3    3    0    0 -7.9882743934e-01 -3.0311257567e+01 -3.1051776331e+01 4.3400728956e+01 0.0000000000e+00 0.0000e+00 1.0000e+00
</event>
<event>
 5      3 +2.9511900e-02 9.11880000e+01 7.81616400e-03 1.18400000e-01
      -11 -1    0    0    0    0 +0.0000000000e+00 +0.0000000000e+00 +4.5593999997e+01 4.5594000000e+01 5.1100000000e-04 0.0000e+00 -1.0000e+00
       11 -1    0    0    0    0 -0.0000000000e+00 -0.0000000000e+00 -4.5593999997e+01 4.5594000000e+01 5.1100000000e-04 0.0000e+00 1.0000e+00
       23  2    1    2    0    0 +0.0000000000e+00 +0.0000000000e+00 +0.0000000000e+00 9.1188000000e+01 9.1188000000e+01 1.9546e-14 0.0000e+00
  9900012  1    3    3    0    0 +2.9855954824e+01 -3.1490822249e+01 +7.5719844633e-01 4.7787271044e+01 2.0000000000e+01 8.9265e-04 1.0000e+00
       12  1    3    3    0    0 -2.9855954824e+01 +3.1490822249e+01 -7.5719844633e-01 4.3400728956e+01 0.0000000000e+00 0.0000e+00 -1.0000e+00
</event>
<event>
 5      6 +2.9511900e-02 9.11880000e+01 7.81616400e-03 1.18400000e-01
      -11 -1    0    0    0    0 +0.0000000000e+00 +0.0000000000e+00 +4.5593999997e+01 4.5594000000e+01 5.1100000000e-04 0.0000e+00 1.0000e+00
       11 -1    0    0    0    0 -0.0000000000e+00 -0.0000000000e+00 -4.5593999997e+01 4.5594000000e+01 5.1100000000e-04 0.0000e+00 -1.0000e+00
       23  2    1    2    0    0 +0.0000000000e+00 +0.0000000000e+00 +0.0000000000e+00 9.1188000000e+01 9.1188000000e+01 2.9878e-14 0.0000e+00
  9900012  1    3    3    0    0 +1.0990470008e+01 -1.3235219236e+01 -3.9845474206e+01 4.7787271044e+01 2.0000000000e+01 5.8508e-03 -1.0000e+00
      -12  1    3    3    0    0 -1.0990470008e+01 +1.3235219236e+01 +3.9845474206e+01 4.3400728956e+01 0.0000000000e+00 0.0000e+00 1.0000e+00
</event>
<event>
 5      4 +2.9511900e-02 9.11880000e+01 7.81616400e-03 1.18400000e-01
      -11 -1    0    0    0    0 +0.0000000000e+00 +0.0000000000e+00 +4.5593999997e+01 4.5594000000e+01 5.1100000000e-04 0.0000e+00 1.0000e+00
       11 -1    0    0    0    0 -0.0000000000e+00 -0.0000000000e+00 -4.5593999997e+01 4.5594000000e+01 5.1100000000e-04 0.0000e+00 -1.0000e+00
       23  2    1    2    0    0 +0.0000000000e+00 +0.0000000000e+00 +0.0000000000e+00 9.1188000000e+01 9.1188000000e+01 7.8552e-15 0.0000e+00
  9900012  1    3    3    0    0 -6.3899801112e+00 +4.0419374346e+01 -1.4459101131e+01 4.7787271044e+01 2.0000000000e+01 3.3902e-02 -1.0000e+00
      -12  1    3    3    0    0 +6.3899801112e+00 -4.0419374346e+01 +1.4459101131e+01 4.3400728956e+01 0.0000000000e+00 0.0000e+00 1.0000e+00
</event>
<event>
 5      5 +2.9511900e-02 9.11880000e+01 7.81616400e-03 1.18400000e-01
      -11 -1    0    0    0    0 +0.0000000000e+00 +0.0000000000e+00 +4.5593999997e+01 4.5594000000e+01 5.1100000000e-04 0.0000e+00 1.0000e+00
       11 -1    0    0    0    0 -0.0000000000e+00 -0.0000000000e+00 -4.5593999997e+01 4.5594000000e+01 5.1100000000e-04 0.0000e+00 -1.0000e+00
       23  2    1    2    0    0 +0.0000000000e+00 +0.0000000000e+00 +0.0000000000e+00 9.1188000000e+01 9.1188000000e+01 1.8289e-13 0.0000e+00
  9900012  1    3    3    0    0 +3.5582217071e+01 +4.4085703759e+00 +2.4455952433e+01 4.7787271044e+01 2.0000000000e+01 7.5277e-02 1.0000e+00
       12  1    3    3    0    0 -3.5582217071e+01 -4.4085703759e+00 -2.4455952433e+01 4.3400728956e+01 0.0000000000e+00 0.0000e+00 -1.0000e+00
</event>
<event>
 5      7 +2.9511900e-02 9.11880000e+01 7.81616400e-03 1.18400000e-01
      -11 -1    0    0    0    0 +0.0000000000e+00 +0.0000000000e+00 +4.5593999997e+01 4.5594000000e+01 5.1100000000e-04 0.0000e+00 1.0000e+00
       11 -1    0    0    0    0 -0.0000000000e+00 -0.0000000000e+00 -4.5593999997e+01 4.5594000000e+01 5.1100000000e-04 0.0000e+00 -1.0000e+00
       23  2    1    2    0    0 +0.0000000000e+00 +0.0000000000e+00 +0.0000000000e+00 9.1188000000e+01 9.1188000000e+01 4.8994e-14 0.0000e+00
  9900012  1    3    3    0    0 +2.9324430037e+01 -2.6716885753e-01 +3.1994213503e+01 4.7787271044e+01 2.0000000000e+01 2.7352e-02 1.0000e+00
       12  1    3    3    0    0 -2.9324430037e+01 +2.6716885753e-01 -3.1994213503e+01 4.3400728956e+01 0.0000000000e+00 0.0000e+00 -1.0000e+00
</event>
<event>
 5      4 +2.9511900e-02 9.11880000e+01 7.81616400e-03 1.18400000e-01
      -11 -1    0    0    0    0 +0.0000000000e+00 +0.0000000000e+00 +4.5593999997e+01 4.5594000000e+01 5.1100000000e-04 0.0000e+00 -1.0000e+00
       11 -1    0    0    0    0 -0.0000000000e+00 -0.0000000000e+00 -4.5593999997e+01 4.5594000000e+01 5.1100000000e-04 0.0000e+00 1.0000e+00
       23  2    1    2    0    0 +0.0000000000e+00 +0.0000000000e+00 +0.0000000000e+00 9.1188000000e+01 9.1188000000e+01 1.1841e-13 0.0000e+00
  9900012  1    3    3    0    0 -1.1487250177e+01 +3.6919847337e+01 +1.9712717466e+01 4.7787271044e+01 2.0000000000e+01 7.6918e-04 -1.0000e+00
      -12  1    3    3    0    0 +1.1487250177e+01 -3.6919847337e+01 -1.9712717466e+01 4.3400728956e+01 0.0000000000e+00 0.0000e+00 1.0000e+00
</event>
<event>
 5      5 +2.9511900e-02 9.11880000e+01 7.81616400e-03 1.18400000e-01
      -11 -1    0    0    0    0 +0.0000000000e+00 +0.0000000000e+00 +4.5593999997e+01 4.5594000000e+01 5.1100000000e-04 0.0000e+00 -1.0000e+00
       11 -1    0    0    0    0 -0.0000000000e+00 -0.0000000000e+00 -4.5593999997e+01 4.5594000000e+01 5.1100000000e-04 0.0000e+00 1.0000e+00
       23  2    1    2    0    0 +0.0000000000e+00 +0.0000000000e+00 +0.0000000000e+00 9.1188000000e+01 9.1188000000e+01 7.8557e-15 0.0000e+00
  9900012  1    3    3    0    0 +2.0001483767e+01 +2.1847735079e+01 -3.1721292422e+01 4.7787271044e+01 2.0000000000e+01 1.9692e-02 1.0000e+00
       12  1    3    3    0    0 -2.0001483767e+01 -2.1847735079e+01 +3.1721292422e+01 4.3400728956e+01 0.0000000000e+00 0.0000e+00 -1.0000e+00
</event>
<event>
 5      3 +2.9511900e-02 9.11880000e+01 7.81616400e-03 1.18400000e-01
      -11 -1    0    0    0    0 +0.0000000000e+00 +0.0000000000e+00 +4.5593999997e+01 4.5594000000e+01 5.1100000000e-04 0.0000e+00 -1.0000e+00
       11 -1    0    0    0    0 -0.0000000000e+00 -0.0000000000e+00 -4.5593999997e+01 4.5594000000e+01 5.1100000000e-04 0.0000e+00 1.0000e+00
       23  2    1    2    0    0 +0.0000000000e+00 +0.0000000000e+00 +0.0000000000e+00 9.1188000000e+01 9.1188000000e+01 3.3763e-14 0.0000e+00
  9900012  1    3    3    0    0 -1.0477776711e+01 -3.8998340519e+01 -1.5904996254e+01 4.7787271044e+01 2.0000000000e+01 3.1563e-03 1.0000e+00
       12  1    3    3    0    0 +1.0477776711e+01 +3.8998340519e+01 +1.5904996254e+01 4.3400728956e+01 0.0000000000e+00 0.0000e+00 -1.0000e+00
</event>
<event>
 5      5 +2.9511900e-02 9.11880000e+01 7.81616400e-03 1.18400000e-01
      -11 -1    0    0    0    0 +0.0000000000e+00 +0.0000000000e+00 +4.5593999997e+01 4.5594000000e+01 5.1100000000e-04 0.0000e+00 1.0000e+00
       11 -1    0    0    0    0 -0.0000000000e+00 -0.0000000000e+00 -4.5593999997e+01 4.5594000000e+01 5.1100000000e-04 0.0000e+00 -1.0000e+00
       23  2    1    2    0    0 +0.0000000000e+00 +0.0000000000e+00 +0.0000000000e+00 9.1188000000e+01 9.1188000000e+01 7.8990e-14 0.0000e+00
  9900012  1    3    3    0    0 -3.0529318652e+01 +2.6795564713e+01 +1.5283379476e+01 4.7787271044e+01 2.0000000000e+01 1.7320e-01 1.0000e+00
       12  1    3    3    0    0 +3.0529318652e+01 -2.6795564713e+01 -1.5283379476e+01 4.3400728956e+01 0.0000000000e+00 0.0000e+00 -1.0000e+00
</event>
<event>
 5      6 +2.9511900e-02 9.11880000e+01 7.81616400e-03 1.18400000e-01
      -11 -1    0    0    0    0 +0.0000000000e+00 +0.0000000000e+00 +4.5593999997e+01 4.5594000000e+01 5.1100000000e-04 0.0000e+00 1.0000e+00
       11 -1    0    0    0    0 -0.0000000000e+00 -0.0000000000e+00 -4.5593999997e+01 4.5594000000e+01 5.1100000000e-04 0.0000e+00 -1.0000e+00
       23  2    1    2    0    0 +0.0000000000e+00 +0.0000000000e+00 +0.0000000000e+00 9.1188000000e+01 9.1188000000e+01 1.6271e-14 0.0000e+00
  9900012  1    3    3    0    0 -2.0470806515e+01 +3.8220338202e+01 -1.9429622259e+00 4.7787271044e+01 2.0000000000e+01 9.4607e-02 -1.0000e+00
      -12  1    3    3    0    0 +2.0470806515e+01 -3.8220338202e+01 +1.9429622259e+00 4.3400728956e+01 0.0000000000e+00 0.0000e+00 1.0000e+00
</event>
<event>
 5      8 +2.9511900e-02 9.11880000e+01 7.81616400e-03 1.18400000e-01
      -11 -1    0    0    0    0 +0.0000000000e+00 +0.0000000000e+00 +4.5593999997e+01 4.5594000000e+01 5.1100000000e-04 0.0000e+00 1.0000e+00
       11 -1    0    0    0    0 -0.0000000000e+00 -0.0000000000e+00 -4.5593999997e+01 4.5594000000e+01 5.1100000000e-04 0.0000e+00 -1.0000e+00
       23  2    1    2    0    0 +0.0000000000e+00 +0.0000000000e+00 +0.0000000000e+00 9.1188000000e+01 9.1188000000e+01 1.9469e-14 0.0000e+00
  9900012  1    3    3    0    0 +2.5771277399e+01 -3.4904952538e+01 -1.0530068483e+00 4.7787271044e+01 2.0000000000e+01 1.4375e-01 -1.0000e+00
      -12  1    3    3    0    0 -2.5771277399e+01 +3.4904952538e+01 +1.0530068483e+00 4.3400728956e+01 0.0000000000e+00 0.0000e+00 1.0000e+00
</event>
<event>
 5      6 +2.9511900e-02 9.11880000e+01 7.81616400e-03 1.18400000e-01
      -11 -1    0    0    0    0 +0.0000000000e+00 +0.0000000000e+00 +4.5593999997e+01 4.5594000000e+01 5.1100000000e-04 0.0000e+00 1.0000e+00
       11 -1    0    0    0    0 -0.0000000000e+00 -0.0000000000e+00 -4.5593999997e+01 4.5594000000e+01 5.1100000000e-04 0.0000e+00 -1.0000e+00
       23  2    1    2    0    0 +0.0000000000e+00 +0.0000000000e+00 +0.0000000000e+00 9.1188000000e+01 9.1188000000e+01 5.1524e-14 0.0000e+00
  9900012  1    3    3    0    0 +2.5230484591e+01 -1.3884963879e+01 -3.2469273156e+01 4.7787271044e+01 2.0000000000e+01 3.6513e-01 -1.0000e+00
      -12  1    3    3    0    0 -2.5230484591e+01 +1.3884963879e+01 +3.2469273156e+01 4.3400728956e+01 0.0000000000e+00 0.0000e+00 1.0000e+00
</event>
<event>
 5      5 +2.9511900e-02 9.11880000e+01 7.81616400e-03 1.18400000e-01
      -11 -1    0    0    0    0 +0.0000000000e+00 +0.0000000000e+00 +4.5593999997e+01 4.5594000000e+01 5.1100000000e-04 0.0000e+00 1.0000e+00
       11 -1    0    0    0    0 -0.0000000000e+00 -0.0000000000e+00 -4.5593999997e+01 4.5594000000e+01 5.1100000000e-04 0.0000e+00 -1.0000e+00
       23  2    1    2    0    0 +0.0000000000e+00 +0.0000000000e+00 +0.0000000000e+00 9.1188000000e+01 9.1188000000e+01 1.8115e-14 0.0000e+00
  9900012  1    3    3    0    0 -7.5419480218e+00 +2.5578336702e+01 +3.4241655705e+01 4.7787271044e+01 2.0000000000e+01 1.4606e-01 1.0000e+00
       12  1    3    3    0    0 +7.5419480218e+00 -2.5578336702e+01 -3.4241655705e+01 4.3400728956e+01 0.0000000000e+00 0.0000e+00 -1.0000e+00
</event>
<event>
 5      2 +2.9511900e-02 9.11880000e+01 7.81616400e-03 1.18400000e-01
      -11 -1    0    0    0    0 +0.0000000000e+00 +0.0000000000e+00 +4.5593999997e+01 4.5594000000e+01 5.1100000000e-04 0.0000e+00 -1.0000e+00
       11 -1    0    0    0    0 -0.0000000000e+00 -0.0000000000e+00 -4.5593999997e+01 4.5594000000e+01 5.1100000000e-04 0.0000e+00 1.0000e+00
       23  2    1    2    0    0 +0.0000000000e+00 +0.0000000000e+00 +0.0000000000e+00 9.1188000000e+01 9.1188000000e+01 9.0918e-14 0.0000e+00
  9900012  1    3    3    0    0 +1.6621928900e+01 -3.4280566735e+01 +2.0788879187e+01 4.7787271044e+01 2.0000000000e+01 3.8874e-01 -1.0000e+00
      -12  1    3    3    0    0 -1.6621928900e+01 +3.4280566735e+01 -2.0788879187e+01 4.3400728956e+01 0.0000000000e+00 0.0000e+00 1.0000e+00
</event>
<event>
 5      2 +2.9511900e-02 9.11880000e+01 7.81616400e-03 1.18400000e-01
      -11 -1    0    0    0    0 +0.0000000000e+00 +0.0000000000e+00 +4.5593999997e+01 4.5594000000e+01 5.1100000000e-04 0.0000e+00 -1.0000e+00
       11 -1    0    0    0    0 -0.0000000000e+00 -0.0000000000e+00 -4.5593999997e+01 4.5594000000e+01 5.1100000000e-04 0.0000e+00 1.0000e+00
       23  2    1    2    0    0 +0.0000000000e+00 +0.0000000000e+00 +0.0000000000e+00 9.1188000000e+01 9.1188000000e+01 1.0601e-13 0.0000e+00
  9900012  1    3    3    0    0 -7.8696244750e+00 +2.6566947546e+01 +3.3404933506e+01 4.7787271044e+01 2.0000000000e+01 1.7479e-01 -1.0000e+00
      -12  1    3    3    0    0 +7.8696244750e+00 -2.6566947546e+01 -3.3404933506e+01 4.3400728956e+01 0.0000000000e+00 0.0000e+00 1.0000e+00
</event>
<event>
 5      7 +2.9511900e-02 9.11880000e+01 7.81616400e-03 1.18400000e-01
      -11 -1    0    0    0    0 +0.0000000000e+00 +0.0000000000e+00 +4.5593999997e+01 4.5594000000e+01 5.1100000000e-04 0.0000e+00 -1.0000e+00
       11 -1    0    0    0    0 -0.0000000000e+00 -0.0000000000e+00 -4.5593999997e+01 4.5594000000e+01 5.1100000000e-04 0.0000e+00 1.0000e+00
       23  2    1    2    0    0 +0.0000000000e+00 +0.0000000000e+00 +0.0000000000e+00 9.1188000000e+01 9.1188000000e+01 2.2960e-14 0.0000e+00
  9900012  1    3    3    0    0 -1.5932185270e+01 +3.9258370436e+01 +9.4111156140e+00 4.7787271044e+01 2.0000000000e+01 6.5105e-02 1.0000e+00
       12  1    3    3    0    0 +1.5932185270e+01 -3.9258370436e+01 -9.4111156140e+00 4.3400728956e+01 0.0000000000e+00 0.0000e+00 -1.0000e+00
</event>
<event>
 5      8 +2.9511900e-02 9.11880000e+01 7.81616400e-03 1.18400000e-01
      -11 -1    0    0    0    0 +0.0000000000e+00 +0.0000000000e+00 +4.5593999997e+01 4.5594000000e+01 5.1100000000e-04 0.0000e+00 -1.0000e+00
       11 -1    0    0    0    0 -0.0000000000e+00 -0.0000000000e+00 -4.5593999997e+01 4.5594000000e+01 5.1100000000e-04 0.0000e+00 1.0000e+00
       23  2    1    2    0    0 +0.0000000000e+00 +0.0000000000e+00 +0.0000000000e+00 9.1188000000e+01 9.1188000000e+01 1.4446e-14 0.0000e+00
  9900012  1    3    3    0    0 +3.0003134603e+00 -3.1352768283e+01 +2.9860095680e+01 4.7787271044e+01 2.0000000000e+01 1.4104e-02 -1.0000e+00
      -12  1    3    3    0    0 -3.0003134603e+00 +3.1352768283e+01 -2.9860095680e+01 4.3400728956e+01 0.0000000000e+00 0.0000e+00 1.0000e+00
</event>
<event>
 5      2 +2.9511900e-02 9.11880000e+01 7.81616400e-03 1.18400000e-01
      -11 -1    0    0    0    0 +0.0000000000e+00 +0.0000000000e+00 +4.5593999997e+01 4.5594000000e+01 5.1100000000e-04 0.0000e+00 1.0000e+00
       11 -1    0    0    0    0 -0.0000000000e+00 -0.0000000000e+00 -4.5593999997e+01 4.5594000000e+01 5.1100000000e-04 0.0000e+00 -1.0000e+00
       23  2    1    2    0    0 +0.0000000000e+00 +0.0000000000e+00 +0.0000000000e+00 9.1188000000e+01 9.1188000000e+01 1.0023e-13 0.0000e+00
  9900012  1    3    3    0    0 +2.9283129688e+01 -2.7265217198e+01 +1.6814562758e+01 4.7787271044e+01 2.0000000000e+01 4.2733e-02 -1.0000e+00
      -12  1    3    3    0    0 -2.9283129688e+01 +2.7265217198e+01 -1.6814562758e+01 4.3400728956e+01 0.0000000000e+00 0.0000e+00 1.0000e+00
</event>
<event>
 5      2 +2.9511900e-02 9.11880000e+01 7.81616400e-03 1.18400000e-01
      -11 -1    0    0    0    0 +0.0000000000e+00 +0.0000000000e+00 +4.5593999997e+01 4.5594000000e+01 5.1100000000e-04 0.0000e+00 -1.0000e+00
       11 -1    0    0    0    0 -0.0000000000e+00 -0.0000000000e+00 -4.5593999997e+01 4.5594000000e+01 5.1100000000e-04 0.0000e+00 1.0000e+00
       23  2    1    2    0    0 +0.0000000000e+00 +0.0000000000e+00 +0.0000000000e+00 9.1188000000e+01 9.1188000000e+01 4.4900e-14 0.0000e+00
  9900012  1    3    3    0    0 -2.6928388697e+01 -3.0224317457e+01 +1.5651702473e+01 4.7787271044e+01 2.0000000000e+01 2.2593e-02 -1.0000e+00
      -12  1    3    3    0    0 +2.6928388697e+01 +3.0224317457e+01 -1.5651702473e+01 4.3400728956e+01 0.0000000000e+00 0.0000e+00 1.0000e+00
</event>
<event>
 5      8 +2.9511900e-02 9.11880000e+01 7.81616400e-03 1.18400000e-01
      -11 -1    0    0    0    0 +0.0000000000e+00 +0.0000000000e+00 +4.5593999997e+01 4.5594000000e+01 5.1100000000e-04 0.0000e+00 1.0000e+00
       11 -1    0    0    0    0 -0.0000000000e+00 -0.0000000000e+00 -4.5593999997e+01 4.5594000000e+01 5.1100000000e-04 0.0000e+00 -1.0000e+00
       23  2    1    2    0    0 +0.0000000000e+00 +0.0000000000e+00 +0.0000000000e+00 9.1188000000e+01 9.1188000000e+01 1.0395e-13 0.0000e+00
  9900012  1    3    3    0    0 -1.1045965069e+01 -3.7296706522e+01 -1.9250080836e+01 4.7787271044e+01 2.0000000000e+01 1.7982e-01 -1.0000e+00
      -12  1    3    3    0    0 +1.1045965069e+01 +3.7296706522e+01 +1.9250080836e+01 4.3400728956e+01 0.0000000000e+00 0.0000e+00 1.0000e+00
</event>
<event>
 5      1 +2.9511900e-02 9.11880000e+01 7.81616400e-03 1.18400000e-01
      -11 -1    0    0    0    0 +0.0000000000e+00 +0.0000000000e+00 +4.5593999997e+01 4.5594000000e+01 5.1100000000e-04 0.0000e+00 -1.0000e+00
       11 -1    0    0    0    0 -0.0000000000e+00 -0.0000000000e+00 -4.5593999997e+01 4.5594000000e+01 5.1100000000e-04 0.0000e+00 1.0000e+00
       23  2    1    2    0    0 +0.0000000000e+00 +0.0000000000e+00 +0.0000000000e+00 9.1188000000e+01 9.1188000000e+01 6.7419e-14 0.0000e+00
  9900012  1    3    3    0    0 -1.0690429084e+01 +2.7587428489e+01 -3.1753295722e+01 4.7787271044e+01 2.0000000000e+01 1.8258e-01 1.0000e+00
       12  1    3    3    0    0 +1.0690429084e+01 -2.7587428489e+01 +3.1753295722e+01 4.3400728956e+01 0.0000000000e+00 0.0000e+00 -1.0000e+00
</event>
<event>
 5      2 +2.9511900e-02 9.11880000e+01 7.81616400e-03 1.18400000e-01
      -11 -1    0    0    0    0 +0.0000000000e+00 +0.0000000000e+00 +4.5593999997e+01 4.5594000000e+01 5.1100000000e-04 0.0000e+00 1.0000e+00
       11 -1    0    0    0    0 -0.0000000000e+00 -0.0000000000e+00 -4.5593999997e+01 4.5594000000e+01 5.1100000000e-04 0.0000e+00 -1.0000e+00
       23  2    1    2    0    0 +0.0000000000e+00 +0.0000000000e+00 +0.0000000000e+00 9.1188000000e+01 9.1188000000e+01 8.0238e-14 0.0000e+00
  9900012  1    3    3    0    0 +1.7497196204e+01 +1.5096342850e+01 -3.6736519044e+01 4.7787271044e+01 2.0000000000e+01 8.8009e-02 -1.0000e+00
      -12  1    3    3    0    0 -1.7497196204e+01 -1.5096342850e+01 +3.6736519044e+01 4.3400728956e+01 0.0000000000e+00 0.0000e+00 1.0000e+00
</event>
<event>
 5      3 +2.9511900e-02 9.11880000e+01 7.81616400e-03 1.18400000e-01
      -11 -1    0    0    0    0 +0.0000000000e+00 +0.0000000000e+00 +4.5593999997e+01 4.5594000000e+01 5.1100000000e-04 0.0000e+00 -1.0000e+00
       11 -1    0    0    0    0 -0.0000000000e+00 -0.0000000000e+00 -4.5593999997e+01 4.5594000000e+01 5.1100000000e-04 0.0000e+00 1.0000e+00
       23  2    1    2    0    0 +0.0000000000e+00 +0.0000000000e+00 +0.0000000000e+00 9.1188000000e+01 9.1188000000e+01 4.3131e-14 0.0000e+00
  9900012  1    3    3    0    0 -2.9353875185e+01 +5.9744603806e-01 -3.1962733671e+01 4.7787271044e+01 2.0000000000e+01 6.9001e-03 1.0000e+00
       12  1    3    3    0    0 +2.9353875185e+01 -5.9744603806e-01 +3.1962733671e+01 4.3400728956e+01 0.0000000000e+00 0.0000e+00 -1.0000e+00
</event>
<event>
 5      6 +2.9511900e-02 9.11880000e+01 7.81616400e-03 1.18400000e-01
      -11 -1    0    0    0    0 +0.0000000000e+00 +0.0000000000e+00 +4.5593999997e+01 4.5594000000e+01 5.1100000000e-04 0.0000e+00 -1.0000e+00
       11 -1    0    0    0    0 -0.0000000000e+00 -0.0000000000e+00 -4.5593999997e+01 4.5594000000e+01 5.1100000000e-04 0.0000e+00 1.0000e+00
       23  2    1    2    0    0 +0.0000000000e+00 +0.0000000000e+00 +0.0000000000e+00 9.1188000000e+01 9.1188000000e+01 2.2422e-15 0.0000e+00
  9900012  1    3    3    0    0 +4.2465335893e+01 -1.0321949642e+00 +8.9024207353e+00 4.7787271044e+01 2.0000000000e+01 6.6631e-02 -1.0000e+00
      -12  1    3    3    0    0 -4.2465335893e+01 +1.0321949642e+00 -8.9024207353e+00 4.3400728956e+01 0.0000000000e+00 0.0000e+00 1.0000e+00
</event>
<event>
 5      7 +2.9511900e-02 9.11880000e+01 7.81616400e-03 1.18400000e-01
      -11 -1    0    0    0    0 +0.0000000000e+00 +0.0000000000e+00 +4.5593999997e+01 4.5594000000e+01 5.1100000000e-04 0.0000e+00 1.0000e+00
       11 -1    0    0    0    0 -0.0000000000e+00 -0.0000000000e+00 -4.5593999997e+01 4.5594000000e+01 5.1100000000e-04 0.0000e+00 -1.0000e+00
       23  2    1    2    0    0 +0.0000000000e+00 +0.0000000000e+00 +0.0000000000e+00 9.1188000000e+01 9.1188000000e+01 2.6749e-15 0.0000e+00
  9900012  1    3    3    0    0 +9.8343944376e+00 +1.7018095443e+01 +3.8694862545e+01 4.7787271044e+01 2.0000000000e+01 2.4742e-02 1.0000e+00
       12  1    3    3    0    0 -9.8343944376e+00 -1.7018095443e+01 -3.8694862545e+01 4.3400728956e+01 0.0000000000e+00 0.0000e+00 -1.0000e+00
</event>
<event>
 5      2 +2.9511900e-02 9.11880000e+01 7.81616400e-03 1.18400000e-01
      -11 -1    0    0    0    0 +0.0000000000e+00 +0.0000000000e+00 +4.5593999997e+01 4.5594000000e+01 5.1100000000e-04 0.0000e+00 -1.0000e+00
       11 -1    0    0    0    0 -0.0000000000e+00 -0.0000000000e+00 -4.5593999997e+01 4.5594000000e+01 5.1100000000e-04 0.0000e+00 1.0000e+00
       23  2    1    2    0    0 +0.0000000000e+00 +0.0000000000e+00 +0.0000000000e+00 9.1188000000e+01 9.1188000000e+01 1.3322e-14 0.0000e+00
  9900012  1    3    3    0    0 -2.0552470997e+01 +1.7899604023e+01 +3.3776077120e+01 4.7787271044e+01 2.0000000000e+01 8.5649e-03 -1.0000e+00
      -12  1    3    3    0    0 +2.0552470997e+01 -1.7899604023e+01 -3.3776077120e+01 4.3400728956e+01 0.0000000000e+00 0.0000e+00 1.0000e+00
</event>
<event>
 5      5 +2.9511900e-02 9.11880000e+01 7.81616400e-03 1.18400000e-01
      -11 -1    0    0    0    0 +0.0000000000e+00 +0.0000000000e+00 +4.5593999997e+01 4.5594000000e+01 5.1100000000e-04 0.0000e+00 1.0000e+00
       11 -1    0    0    0    0 -0.0000000000e+00 -0.0000000000e+00 -4.5593999997e+01 4.5594000000e+01 5.1100000000e-04 0.0000e+00 -1.0000e+00
       23  2    1    2    0    0 +0.0000000000e+00 +0.0000000000e+00 +0.0000000000e+00 9.1188000000e+01 9.1188000000e+01 7.9870e-14 0.0000e+00
  9900012  1    3    3    0    0 +1.1662282354e+01 -3.9365614157e+01 -1.4069927726e+01 4.7787271044e+01 2.0000000000e+01 3.6067e-03 1.0000e+00
       12  1    3    3    0    0 -1.1662282354e+01 +3.9365614157e+01 +1.4069927726e+01 4.3400728956e+01 0.0000000000e+00 0.0000e+00 -1.0000e+00
</event>
<event>
 5      7 +2.9511900e-02 9.11880000e+01 7.81616400e-03 1.18400000e-01
      -11 -1    0    0    0    0 +0.0000000000e+00 +0.0000000000e+00 +4.5593999997e+01 4.5594000000e+01 5.1100000000e-04 0.0000e+00 -1.0000e+00
       11 -1    0    0    0    0 -0.0000000000e+00 -0.0000000000e+00 -4.5593999997e+01 4.5594000000e+01 5.1100000000e-04 0.0000e+00 1.0000e+00
       23  2    1    2    0    0 +0.0000000000e+00 +0.0000000000e+00 +0.0000000000e+00 9.1188000000e+01 9.1188000000e+01 8.5437e-14 0.0000e+00
  9900012  1    3    3    0    0 -3.4066616739e+01 -1.2912501274e+01 -2.3587204342e+01 4.7787271044e+01 2.0000000000e+01 3.1274e-02 1.0000e+00
       12  1    3    3    0    0 +3.4066616739e+01 +1.2912501274e+01 +2.3587204342e+01 4.3400728956e+01 0.0000000000e+00 0.0000e+00 -1.0000e+00
</event>
<event>
 5      3 +2.9511900e-02 9.11880000e+01 7.81616400e-03 1.18400000e-01
      -11 -1    0    0    0    0 +0.0000000000e+00 +0.0000000000e+00 +4.5593999997e+01 4.5594000000e+01 5.1100000000e-04 0.0000e+00 1.0000e+00
       11 -1    0    0    0    0 -0.0000000000e+00 -0.0000000000e+00 -4.5593999997e+01 4.5594000000e+01 5.1100000000e-04 0.0000e+00 -1.0000e+00
       23  2    1    2    0    0 +0.0000000000e+00 +0.0000000000e+00 +0.0000000000e+00 9.1188000000e+01 9.1188000000e+01 1.6646e-14 0.0000e+00
  9900012  1    3    3    0    0 -5.9905379241e+00 +9.4391840904e-01 +4.2974943249e+01 4.7787271044e+01 2.0000000000e+01 1.3539e-01 1.0000e+00
       12  1    3    3    0    0 +5.9905379241e+00 -9.4391840904e-01 -4.2974943249e+01 4.3400728956e+01 0.0000000000e+00 0.0000e+00 -1.0000e+00
</event>
<event>
 5      5 +2.9511900e-02 9.11880000e+01 7.81616400e-03 1.18400000e-01
      -11 -1    0    0    0    0 +0.0000000000e+00 +0.0000000000e+00 +4.5593999997e+01 4.5594000000e+01 5.1100000000e-04 0.0000e+00 -1.0000e+00
       11 -1    0    0    0    0 -0.0000000000e+00 -0.0000000000e+00 -4.5593999997e+01 4.5594000000e+01 5.1100000000e-04 0.0000e+00 1.0000e+00
       23  2    1    2    0    0 +0.0000000000e+00 +0.0000000000e+00 +0.0000000000e+00 9.1188000000e+01 9.1188000000e+01 2.2587e-14 0.0000e+00
  9900012  1    3    3    0    0 +1.4058148957e+01 -1.1553431378e+01 -3.9401902811e+01 4.7787271044e+01 2.0000000000e+01 1.3057e-01 1.0000e+00
       12  1    3    3    0    0 -1.4058148957e+01 +1.1553431378e+01 +3.9401902811e+01 4.3400728956e+01 0.0000000000e+00 0.0000e+00 -1.0000e+00
</event>
<event>
 5      3 +2.9511900e-02 9.11880000e+01 7.81616400e-03 1.18400000e-01
      -11 -1    0    0    0    0 +0.0000000000e+00 +0.0000000000e+00 +4.5593999997e+01 4.5594000000e+01 5.1100000000e-04 0.0000e+00 -1.0000e+00
       11 -1    0    0    0    0 -0.0000000000e+00 -0.0000000000e+00 -4.5593999997e+01 4.5594000000e+01 5.1100000000e-04 0.0000e+00 1.0000e+00
       23  2    1    2    0    0 +0.0000000000e+00 +0.0000000000e+00 +0.0000000000e+00 9.1188000000e+01 9.1188000000e+01 2.2141e-14 0.0000e+00
  9900012  1    3    3    0    0 -3.1695727978e+01 -1.6815828358e+01 -2.4417862693e+01 4.7787271044e+01 2.0000000000e+01 1.2364e-01 1.0000e+00
       12  1    3    3    0    0 +3.1695727978e+01 +1.6815828358e+01 +2.4417862693e+01 4.3400728956e+01 0.0000000000e+00 0.0000e+00 -1.0000e+00
</event>
<event>
 5      6 +2.9511900e-02 9.11880000e+01 7.81616400e-03 1.18400000e-01
      -11 -1    0    0    0    0 +0.0000000000e+00 +0.0000000000e+00 +4.5593999997e+01 4.5594000000e+01 5.1100000000e-04 0.0000e+00 1.0000e+00
       11 -1    0    0    0    0 -0.0000000000e+00 -0.0000000000e+00 -4.5593999997e+01 4.5594000000e+01 5.1100000000e-04 0.0000e+00 -1.0000e+00
       23  2    1    2    0    0 +0.0000000000e+00 +0.0000000000e+00 +0.0000000000e+00 9.1188000000e+01 9.1188000000e+01 2.2899e-15 0.0000e+00
  9900012  1    3    3    0    0 -8.6697488480e+00 +2.9732387339e+01 -3.0404668588e+01 4.7787271044e+01 2.0000000000e+01 1.0610e-02 -1.0000e+00
      -12  1    3    3    0    0 +8.6697488480e+00 -2.9732387339e+01 +3.0404668588e+01 4.3400728956e+01 0.0000000000e+00 0.0000e+00 1.0000e+00
</event>
<event>
 5      2 +2.9511900e-02 9.11880000e+01 7.81616400e-03 1.18400000e-01
      -11 -1    0    0    0    0 +0.0000000000e+00 +0.0000000000e+00 +4.5593999997e+01 4.5594000000e+01 5.1100000000e-04 0.0000e+00 -1.0000e+00
       11 -1    0    0    0    0 -0.0000000000e+00 -0.0000000000e+00 -4.5593999997e+01 4.5594000000e+01 5.1100000000e-04 0.0000e+00 1.0000e+00
       23  2    1    2    0    0 +0.0000000000e+00 +0.0000000000e+00 +0.0000000000e+00 9.1188000000e+01 9.1188000000e+01 1.4582e-13 0.0000e+00
  9900012  1    3    3    0    0 +2.6908551966e+01 +3.0365816617e+01 +1.5410070932e+01 4.7787271044e+01 2.0000000000e+01 3.4690e-03 -1.0000e+00
      -12  1    3    3    0    0 -2.6908551966e+01 -3.0365816617e+01 -1.5410070932e+01 4.3400728956e+01 0.0000000000e+00 0.0000e+00 1.0000e+00
</event>
<event>
 5      4 +2.9511900e-02 9.11880000e+01 7.81616400e-03 1.18400000e-01
      -11 -1    0    0    0    0 +0.0000000000e+00 +0.0000000000e+00 +4.5593999997e+01 4.5594000000e+01 5.1100000000e-04 0.0000e+00 1.0000e+00
       11 -1    0    0    0    0 -0.0000000000e+00 -0.0000000000e+00 -4.5593999997e+01 4.5594000000e+01 5.1100000000e-04 0.0000e+00 -1.0000e+00
       23  2    1    2    0    0 +0.0000000000e+00 +0.0000000000e+00 +0.0000000000e+00 9.1188000000e+01 9.1188000000e+01 3.0041e-14 0.0000e+00
  9900012  1    3    3    0    0 +3.5002019885e+01 +1.3713189097e+01 -2.1689405770e+01 4.7787271044e+01 2.0000000000e+01 3.3902e-02 -1.0000e+00
      -12  1    3    3    0    0 -3.5002019885e+01 -1.3713189097e+01 +2.1689405770e+01 4.3400728956e+01 0.0000000000e+00 0.0000e+00 1.0000e+00
</event>
<event>
 5      4 +2.9511900e-02 9.11880000e+01 7.81616400e-03 1.18400000e-01
      -11 -1    0    0    0    0 +0.0000000000e+00 +0.0000000000e+00 +4.5593999997e+01 4.5594000000e+01 5.1100000000e-04 0.0000e+00 -1.0000e+00
       11 -1    0    0    0    0 -0.0000000000e+00 -0.0000000000e+00 -4.5593999997e+01 4.5594000000e+01 5.1100000000e-04 0.0000e+00 1.0000e+00
       23  2    1    2    0    0 +0.0000000000e+00 +0.0000000000e+00 +0.0000000000e+00 9.1188000000e+01 9.1188000000e+01 4.9396e-15 0.0000e+00
  9900012  1    3    3    0    0 -1.4277412828e+01 -2.8645067890e+01 +2.9312776095e+01 4.7787271044e+01 2.0000000000e+01 2.5231e-01 -1.0000e+00
      -12  1    3    3    0    0 +1.4277412828e+01 +2.8645067890e+01 -2.9312776095e+01 4.3400728956e+01 0.0000000000e+00 0.0000e+00 1.0000e+00
</event>
<event>
 5      8 +2.9511900e-02 9.11880000e+01 7.81616400e-03 1.18400000e-01
      -11 -1    0    0    0    0 +0.0000000000e+00 +0.0000000000e+00 +4.5593999997e+01 4.5594000000e+01 5.1100000000e-04 0.0000e+00 -1.0000e+00
       11 -1    0    0    0    0 -0.0000000000e+00 -0.0000000000e+00 -4.5593999997e+01 4.5594000000e+01 5.1100000000e-04 0.0000e+00 1.0000e+00
       23  2    1    2    0    0 +0.0000000000e+00 +0.0000000000e+00 +0.0000000000e+00 9.1188000000e+01 9.1188000000e+01 9.7850e-14 0.0000e+00
  9900012  1    3    3    0    0 +2.4305604415e+01 -3.0760293270e+01 +1.8618948033e+01 4.7787271044e+01 2.0000000000e+01 5.8207e-02 -1.0000e+00
      -12  1    3    3    0    0 -2.4305604415e+01 +3.0760293270e+01 -1.8618948033e+01 4.3400728956e+01 0.0000000000e+00 0.0000e+00 1.0000e+00
</event>
<event>
 5      2 +2.9511900e-02 9.11880000e+01 7.81616400e-03 1.18400000e-01
      -11 -1    0    0    0    0 +0.0000000000e+00 +0.0000000000e+00 +4.5593999997e+01 4.5594000000e+01 5.1100000000e-04 0.0000e+00 -1.0000e+00
       11 -1    0    0    0    0 -0.0000000000e+00 -0.0000000000e+00 -4.5593999997e+01 4.5594000000e+01 5.1100000000e-04 0.0000e+00 1.0000e+00
       23  2    1    2    0    0 +0.0000000000e+00 +0.0000000000e+00 +0.0000000000e+00 9.1188000000e+01 9.1188000000e+01 1.4380e-13 0.0000e+00
  9900012  1    3    3    0    0 -3.2966025837e+01 -2.5158254698e+01 -1.2803383730e+01 4.7787271044e+01 2.0000000000e+01 7.4476e-03 -1.0000e+00
      -12  1    3    3    0    0 +3.2966025837e+01 +2.5158254698e+01 +1.2803383730e+01 4.3400728956e+01 0.0000000000e+00 0.0000e+00 1.0000e+00
</event>
<event>
 5      8 +2.9511900e-02 9.11880000e+01 7.81616400e-03 1.18400000e-01
      -11 -1    0    0    0    0 +0.0000000000e+00 +0.0000000000e+00 +4.5593999997e+01 4.5594000000e+01 5.1100000000e-04 0.0000e+00 -1.0000e+00
       11 -1    0    0    0    0 -0.0000000000e+00 -0.0000000000e+00 -4.5593999997e+01 4.5594000000e+01 5.1100000000e-04 0.0000e+00 1.0000e+00
       23  2    1    2    0    0 +0.0000000000e+00 +0.0000000000e+00 +0.0000000000e+00 9.1188000000e+01 9.1188000000e+01 1.0905e-14 0.0000e+00
  9900012  1    3    3    0    0 -1.6925988960e+01 -1.3889492234e+01 +3.7472872549e+01 4.7787271044e+01 2.0000000000e+01 2.7290e-02 -1.0000e+00
      -12  1    3    3    0    0 +1.6925988960e+01 +1.3889492234e+01 -3.7472872549e+01 4.3400728956e+01 0.0000000000e+00 0.0000e+00 1.0000e+00
</event>
<event>
 5      6 +2.9511900e-02 9.11880000e+01 7.81616400e-03 1.18400000e-01
      -11 -1    0    0    0    0 +0.0000000000e+00 +0.0000000000e+00 +4.5593999997e+01 4.5594000000e+01 5.1100000000e-04 0.0000e+00 1.0000e+00
       11 -1    0    0    0    0 -0.0000000000e+00 -0.0000000000e+00 -4.5593999997e+01 4.5594000000e+01 5.1100000000e-04 0.0000e+00 -1.0000e+00
       23  2    1    2    0    0 +0.0000000000e+00 +0.0000000000e+00 +0.0000000000e+00 9.1188000000e+01 9.1188000000e+01 5.6283e-14 0.0000e+00
  9900012  1    3    3    0    0 -2.8195809300e+01 +7.4516366782e+00 -3.2141759793e+01 4.7787271044e+01 2.0000000000e+01 1.4865e-01 -1.0000e+00
      -12  1    3    3    0    0 +2.8195809300e+01 -7.4516366782e+00 +3.2141759793e+01 4.3400728956e+01 0.0000000000e+00 0.0000e+00 1.0000e+00
</event>
<event>
 5      7 +2.9511900e-02 9.11880000e+01 7.81616400e-03 1.18400000e-01
      -11 -1    0    0    0    0 +0.0000000000e+00 +0.0000000000e+00 +4.5593999997e+01 4.5594000000e+01 5.1100000000e-04 0.0000e+00 1.0000e+00
       11 -1    0    0    0    0 -0.0000000000e+00 -0.0000000000e+00 -4.5593999997e+01 4.5594000000e+01 5.1100000000e-04 0.0000e+00 -1.0000e+00
       23  2    1    2    0    0 +0.0000000000e+00 +0.0000000000e+00 +0.0000000000e+00 9.1188000000e+01 9.1188000000e+01 9.3890e-14 0.0000e+00
  9900012  1    3    3    0    0 +2.7622406934e+00 +3.3413217205e+01 +2.7559938611e+01 4.7787271044e+01 2.0000000000e+01 8.8705e-02 1.0000e+00
       12  1    3    3    0    0 -2.7622406934e+00 -3.3413217205e+01 -2.7559938611e+01 4.3400728956e+01 0.0000000000e+00 0.0000e+00 -1.0000e+00
</event>
<event>
 5      1 +2.9511900e-02 9.11880000e+01 7.81616400e-03 1.18400000e-01
      -11 -1    0    0    0    0 +0.0000000000e+00 +0.0000000000e+00 +4.5593999997e+01 4.5594000000e+01 5.1100000000e-04 0.0000e+00 -1.0000e+00
       11 -1    0    0    0    0 -0.0000000000e+00 -0.0000000000e+00 -4.5593999997e+01 4.5594000000e+01 5.1100000000e-04 0.0000e+00 1.0000e+00
       23  2    1    2    0    0 +0.0000000000e+00 +0.0000000000e+00 +0.0000000000e+00 9.1188000000e+01 9.1188000000e+01 1.8983e-16 0.0000e+00
  9900012  1    3    3    0    0 +2.8755708989e+01 -8.1521472208e+00 -3.1468634704e+01 4.7787271044e+01 2.0000000000e+01 2.3654e-02 1.0000e+00
       12  1    3    3    0    0 -2.8755708989e+01 +8.1521472208e+00 +3.1468634704e+01 4.3400728956e+01 0.0000000000e+00 0.0000e+00 -1.0000e+00
</event>
<event>
 5      7 +2.9511900e-02 9.11880000e+01 7.81616400e-03 1.18400000e-01
      -11 -1    0    0    0    0 +0.0000000000e+00 +0.0000000000e+00 +4.5593999997e+01 4.5594000000e+01 5.1100000000e-04 0.0000e+00 1.0000e+00
       11 -1    0    0    0    0 -0.0000000000e+00 -0.0000000000e+00 -4.5593999997e+01 4.5594000000e+01 5.1100000000e-04 0.0000e+00 -1.0000e+00
       23  2    1    2    0    0 +0.0000000000e+00 +0.0000000000e+00 +0.0000000000e+00 9.1188000000e+01 9.1188000000e+01 2.3211e-15 0.0000e+00
  9900012  1    3    3    0    0 +2.8004262462e+01 -1.0957560735e+01 +3.1294031709e+01 4.7787271044e+01 2.0000000000e+01 2.9012e-03 1.0000e+00
       12  1    3    3    0    0 -2.8004262462e+01 +1.0957560735e+01 -3.1294031709e+01 4.3400728956e+01 0.0000000000e+00 0.0000e+00 -1.0000e+00
</event>
<event>
 5      4 +2.9511900e-02 9.11880000e+01 7.81616400e-03 1.18400000e-01
      -11 -1    0    0    0    0 +0.0000000000e+00 +0.0000000000e+00 +4.5593999997e+01 4.5594000000e+01 5.1100000000e-04 0.0000e+00 1.0000e+00
       11 -1    0    0    0    0 -0.0000000000e+00 -0.0000000000e+00 -4.5593999997e+01 4.5594000000e+01 5.1100000000e-04 0.0000e+00 -1.0000e+00
       23  2    1    2    0    0 +0.0000000000e+00 +0.0000000000e+00 +0.0000000000e+00 9.1188000000e+01 9.1188000000e+01 1.2926e-14 0.0000e+00
  9900012  1    3    3    0    0 +3.2348335572e+00 -1.7151134287e+01 -3.9736604264e+01 4.7787271044e+01 2.0000000000e+01 2.3569e-01 -1.0000e+00
      -12  1    3    3    0    0 -3.2348335572e+00 +1.7151134287e+01 +3.9736604264e+01 4.3400728956e+01 0.0000000000e+00 0.0000e+00 1.0000e+00
</event>
<event>
 5      2 +2.9511900e-02 9.11880000e+01 7.81616400e-03 1.18400000e-01
      -11 -1    0    0    0    0 +0.0000000000e+00 +0.0000000000e+00 +4.5593999997e+01 4.5594000000e+01 5.1100000000e-04 0.0000e+00 1.0000e+00
       11 -1    0    0    0    0 -0.0000000000e+00 -0.0000000000e+00 -4.5593999997e+01 4.5594000000e+01 5.1100000000e-04 0.0000e+00 -1.0000e+00
       23  2    1    2    0    0 +0.0000000000e+00 +0.0000000000e+00 +0.0000000000e+00 9.1188000000e+01 9.1188000000e+01 1.0025e-13 0.0000e+00
  9900012  1    3    3    0    0 -4.0796793346e+01 +2.0369197943e+00 -1.4666147563e+01 4.7787271044e+01 2.0000000000e+01 2.0349e-02 -1.0000e+00
      -12  1    3    3    0    0 +4.0796793346e+01 -2.0369197943e+00 +1.4666147563e+01 4.3400728956e+01 0.0000000000e+00 0.0000e+00 1.0000e+00
</event>
<event>
 5      6 +2.9511900e-02 9.11880000e+01 7.81616400e-03 1.18400000e-01
      -11 -1    0    0    0    0 +0.0000000000e+00 +0.0000000000e+00 +4.5593999997e+01 4.5594000000e+01 5.1100000000e-04 0.0000e+00 1.0000e+00
       11 -1    0    0    0    0 -0.0000000000e+00 -0.0000000000e+00 -4.5593999997e+01 4.5594000000e+01 5.1100000000e-04 0.0000e+00 -1.0000e+00
       23  2    1    2    0    0 +0.0000000000e+00 +0.0000000000e+00 +0.0000000000e+00 9.1188000000e+01 9.1188000000e+01 4.6544e-14 0.0000e+00
  9900012  1    3    3    0    0 +8.2265606242e+00 +3.5841879237e+01 -2.3050090389e+01 4.7787271044e+01 2.0000000000e+01 2.0169e-01 -1.0000e+00
      -12  1    3    3    0    0 -8.2265606242e+00 -3.5841879237e+01 +2.3050090389e+01 4.3400728956e+01 0.0000000000e+00 0.0000e+00 1.0000e+00
</event>
<event>
 5      3 +2.9511900e-02 9.11880000e+01 7.81616400e-03 1.18400000e-01
      -11 -1    0    0    0    0 +0.0000000000e+00 +0.0000000000e+00 +4.5593999997e+01 4.5594000000e+01 5.1100000000e-04 0.0000e+00 1.0000e+00
       11 -1    0    0    0    0 -0.0000000000e+00 -0.0000000000e+00 -4.5593999997e+01 4.5594000000e+01 5.1100000000e-04 0.0000e+00 -1.0000e+00
       23  2    1    2    0    0 +0.0000000000e+00 +0.0000000000e+00 +0.0000000000e+00 9.1188000000e+01 9.1188000000e+01 7.0374e-14 0.0000e+00
  9900012  1    3    3    0    0 +1.8542583935e+01 +1.0803252637e+01 +3.7723806639e+01 4.7787271044e+01 2.0000000000e+01 5.5035e-02 1.0000e+00
       12  1    3    3    0    0 -1.8542583935e+01 -1.0803252637e+01 -3.7723806639e+01 4.3400728956e+01 0.0000000000e+00 0.0000e+00 -1.0000e+00
</event>
<event>
 5      5 +2.9511900e-02 9.11880000e+01 7.81616400e-03 1.18400000e-01
      -11 -1    0    0    0    0 +0.0000000000e+00 +0.0000000000e+00 +4.5593999997e+01 4.5594000000e+01 5.1100000000e-04 0.0000e+00 1.0000e+00
       11 -1    0    0    0    0 -0.0000000000e+00 -0.0000000000e+00 -4.5593999997e+01 4.5594000000e+01 5.1100000000e-04 0.0000e+00 -1.0000e+00
       23  2    1    2    0    0 +0.0000000000e+00 +0.0000000000e+00 +0.0000000000e+00 9.1188000000e+01 9.1188000000e+01 1.5673e-14 0.0000e+00
  9900012  1    3    3    0    0 -9.2995406275e+00 +3.9760054581e+01 +1.4706457006e+01 4.7787271044e+01 2.0000000000e+01 2.4079e-01 1.0000e+00
       12  1    3    3    0    0 +9.2995406275e+00 -3.9760054581e+01 -1.4706457006e+01 4.3400728956e+01 0.0000000000e+00 0.0000e+00 -1.0000e+00
</event>
<event>
 5      4 +2.9511900e-02 9.11880000e+01 7.81616400e-03 1.18400000e-01
      -11 -1    0    0    0    0 +0.0000000000e+00 +0.0000000000e+00 +4.5593999997e+01 4.5594000000e+01 5.1100000000e-04 0.0000e+00 1.0000e+00
       11 -1    0    0    0    0 -0.0000000000e+00 -0.0000000000e+00 -4.5593999997e+01 4.5594000000e+01 5.1100000000e-04 0.0000e+00 -1.0000e+00
       23  2    1    2    0    0 +0.0000000000e+00 +0.0000000000e+00 +0.0000000000e+00 9.1188000000e+01 9.1188000000e+01 4.2232e-14 0.0000e+00
  9900012  1    3    3    0    0 -3.7717339791e+01 +6.4410627203e+00 -2.0482633229e+01 4.7787271044e+01 2.0000000000e+01 7.8729e-03 -1.0000e+00
      -12  1    3    3    0    0 +3.7717339791e+01 -6.4410627203e+00 +2.0482633229e+01 4.3400728956e+01 0.0000000000e+00 0.0000e+00 1.0000e+00
</event>
<event>
 5      6 +2.9511900e-02 9.11880000e+01 7.81616400e-03 1.18400000e-01
      -11 -1    0    0    0    0 +0.0000000000e+00 +0.0000000000e+00 +4.5593999997e+01 4.5594000000e+01 5.1100000000e-04 0.0000e+00 1.0000e+00
       11 -1    0    0    0    0 -0.0000000000e+00 -0.0000000000e+00 -4.5593999997e+01 4.5594000000e+01 5.1100000000e-04 0.0000e+00 -1.0000e+00
       23  2    1    2    0    0 +0.0000000000e+00 +0.0000000000e+00 +0.0000000000e+00 9.1188000000e+01 9.1188000000e+01 2.6744e-14 0.0000e+00
  9900012  1    3    3    0    0 +3.0488454536e+01 +2.5936696689e+01 -1.6773943446e+01 4.7787271044e+01 2.0000000000e+01 1.1823e-01 -1.0000e+00
      -12  1    3    3    0    0 -3.0488454536e+01 -2.5936696689e+01 +1.6773943446e+01 4.3400728956e+01 0.0000000000e+00 0.0000e+00 1.0000e+00
</event>
<event>
 5      5 +2.9511900e-02 9.11880000e+01 7.81616400e-03 1.18400000e-01
      -11 -1    0    0    0    0 +0.0000000000e+00 +0.0000000000e+00 +4.5593999997e+01 4.5594000000e+01 5.1100000000e-04 0.0000e+00 1.0000e+00
       11 -1    0    0    0    0 -0.0000000000e+00 -0.0000000000e+00 -4.5593999997e+01 4.5594000000e+01 5.1100000000e-04 0.0000e+00 -1.0000e+00
       23  2    1    2    0    0 +0.0000000000e+00 +0.0000000000e+00 +0.0000000000e+00 9.1188000000e+01 9.1188000000e+01 3.0352e-14 0.0000e+00
  9900012  1    3    3    0    0 +1.1136412779e+01 -3.6343373372e+00 +4.1789893233e+01 4.7787271044e+01 2.0000000000e+01 4.4407e-02 1.0000e+00
       12  1    3    3    0    0 -1.1136412779e+01 +3.6343373372e+00 -4.1789893233e+01 4.3400728956e+01 0.0000000000e+00 0.0000e+00 -1.0000e+00
</event>
<event>
 5      7 +2.9511900e-02 9.11880000e+01 7.81616400e-03 1.18400000e-01
      -11 -1    0    0    0    0 +0.0000000000e+00 +0.0000000000e+00 +4.5593999997e+01 4.5594000000e+01 5.1100000000e-04 0.0000e+00 1.0000e+00
       11 -1    0    0    0    0 -0.0000000000e+00 -0.0000000000e+00 -4.5593999997e+01 4.5594000000e+01 5.1100000000e-04 0.0000e+00 -1.0000e+00
       23  2    1    2    0    0 +0.0000000000e+00 +0.0000000000e+00 +0.0000000000e+00 9.1188000000e+01 9.1188000000e+01 6.7389e-14 0.0000e+00
  9900012  1    3    3    0    0 -3.5923044700e+01 +2.4294687836e+01 +1.7106362330e+00 4.7787271044e+01 2.0000000000e+01 3.1156e-01 1.0000e+00
       12  1    3    3    0    0 +3.5923044700e+01 -2.4294687836e+01 -1.7106362330e+00 4.3400728956e+01 0.0000000000e+00 0.0000e+00 -1.0000e+00
</event>
</LesHouchesEvents>
