<event>
 8    1  0.2460897E-006  0.9118800E+02  0.7816164E-02  0.1184000E+00
        -11   -1    0    0    0    0  0.00000000000E+00  0.00000000000E+00  0.45593999997E+02  0.45594000000E+02  0.51100000000E-03 0. -1.
         11   -1    0    0    0    0 -0.00000000000E+00 -0.00000000000E+00 -0.45593999997E+02  0.45594000000E+02  0.51100000000E-03 0.  1.
         23    2    1    2    0    0  0.00000000000E+00  0.14432899320E-14 -0.17763568394E-14  0.91188000000E+02  0.91188000000E+02 0.  0.
    9900012    2    3    3    0    0 -0.34130973736E+02  0.60645385015E+00 -0.13801745779E+02  0.54367090981E+02  0.40000015509E+02 0.  0.
         12    1    3    3    0    0  0.34130973736E+02 -0.60645385015E+00  0.13801745779E+02  0.36820909019E+02  0.00000000000E+00 0. -1.
         11    1    4    4    0    0 -0.12139701281E+02 -0.93682924551E+01 -0.10184777718E+02  0.18408339093E+02  0.51100000000E-03 0. -1.
        -11    1    4    4    0    0 -0.21635658095E+02  0.12965267265E+02 -0.11350709132E+02  0.27659328526E+02  0.51100000000E-03 0.  1.
         12    1    4    4    0    0 -0.35561436000E+00 -0.29905209596E+01  0.77337410712E+01  0.82994233619E+01  0.00000000000E+00 0. -1.
</event>
<event>
 8    1  0.2460897E-006  0.9118800E+02  0.7816164E-02  0.1184000E+00
        -11   -1    0    0    0    0  0.00000000000E+00  0.00000000000E+00  0.45593999997E+02  0.45594000000E+02  0.51100000000E-03 0. -1.
         11   -1    0    0    0    0 -0.00000000000E+00 -0.00000000000E+00 -0.45593999997E+02  0.45594000000E+02  0.51100000000E-03 0.  1.
         23    2    1    2    0    0  0.00000000000E+00  0.71054273576E-14  0.00000000000E+00  0.91188000000E+02  0.91188000000E+02 0.  0.
    9900012    2    3    3    0    0 -0.15458775286E+02  0.31263367272E+02  0.11807161104E+02  0.54367069541E+02  0.39999966633E+02 0.  0.
        -12    1    3    3    0    0  0.15458775286E+02 -0.31263367272E+02 -0.11807161104E+02  0.36820930459E+02  0.00000000000E+00 0.  1.
         11    1    4    4    0    0 -0.31969805779E+01 -0.24282412639E+01  0.14751501993E+02  0.15288029689E+02  0.51100000000E-03 0. -1.
        -11    1    4    4    0    0 -0.33177955576E+01  0.23280107110E+02 -0.73935214456E+01  0.24650259919E+02  0.51100000000E-03 0.  1.
         12    1    4    4    0    0 -0.89439991504E+01  0.10411501426E+02  0.44491805557E+01  0.14428779933E+02  0.00000000000E+00 0. -1.
</event>
<event>
 8    1  0.2460897E-006  0.9118800E+02  0.7816164E-02  0.1184000E+00
        -11   -1    0    0    0    0  0.00000000000E+00  0.00000000000E+00  0.45593999997E+02  0.45594000000E+02  0.51100000000E-03 0.  1.
         11   -1    0    0    0    0 -0.00000000000E+00 -0.00000000000E+00 -0.45593999997E+02  0.45594000000E+02  0.51100000000E-03 0. -1.
         23    2    1    2    0    0  0.00000000000E+00 -0.35527136788E-14  0.00000000000E+00  0.91188000000E+02  0.91188000000E+02 0.  0.
    9900012    2    3    3    0    0  0.27270800211E+02 -0.23877522426E+02  0.64767147479E+01  0.54367075850E+02  0.39999981015E+02 0.  0.
        -12    1    3    3    0    0 -0.27270800211E+02  0.23877522426E+02 -0.64767147479E+01  0.36820924150E+02  0.00000000000E+00 0.  1.
         11    1    4    4    0    0  0.16329369190E+02 -0.22931623238E+01 -0.73770008564E+01  0.18064524170E+02  0.51100000000E-03 0. -1.
        -11    1    4    4    0    0  0.89201250689E+00 -0.70659090718E+01  0.16941303027E+02  0.18377445575E+02  0.51100000000E-03 0.  1.
        -12    1    4    4    0    0  0.10049418514E+02 -0.14518451030E+02 -0.30875874230E+01  0.17925106105E+02  0.00000000000E+00 0.  1.
</event>
<event>
 8    1  0.2460897E-006  0.9118800E+02  0.7816164E-02  0.1184000E+00
        -11   -1    0    0    0    0  0.00000000000E+00  0.00000000000E+00  0.45593999997E+02  0.45594000000E+02  0.51100000000E-03 0.  1.
         11   -1    0    0    0    0 -0.00000000000E+00 -0.00000000000E+00 -0.45593999997E+02  0.45594000000E+02  0.51100000000E-03 0. -1.
         23    2    1    2    0    0  0.44408920985E-15 -0.17763568394E-14  0.71054273576E-14  0.91188000000E+02  0.91188000000E+02 0.  0.
    9900012    2    3    3    0    0  0.31861592266E+01 -0.81084398247E+01  0.35775437472E+02  0.54367077506E+02  0.39999984791E+02 0.  0.
         12    1    3    3    0    0 -0.31861592266E+01  0.81084398247E+01 -0.35775437472E+02  0.36820922494E+02  0.00000000000E+00 0. -1.
         11    1    4    4    0    0 -0.48318524730E+01 -0.18048127499E+02  0.84397169386E+01  0.20501476211E+02  0.51100000000E-03 0. -1.
        -11    1    4    4    0    0  0.14739101880E+01 -0.15497138569E+01  0.16863296914E+02  0.16998376610E+02  0.51100000000E-03 0.  1.
        -12    1    4    4    0    0  0.65441015116E+01  0.11489401532E+02  0.10472423619E+02  0.16867224686E+02  0.00000000000E+00 0.  1.
</event>
<event>
 8    1  0.2460897E-006  0.9118800E+02  0.7816164E-02  0.1184000E+00
        -11   -1    0    0    0    0  0.00000000000E+00  0.00000000000E+00  0.45593999997E+02  0.45594000000E+02  0.51100000000E-03 0.  1.
         11   -1    0    0    0    0 -0.00000000000E+00 -0.00000000000E+00 -0.45593999997E+02  0.45594000000E+02  0.51100000000E-03 0. -1.
         23    2    1    2    0    0  0.00000000000E+00  0.00000000000E+00  0.00000000000E+00  0.91188000000E+02  0.91188000000E+02 0.  0.
    9900012    2    3    3    0    0  0.32979766799E+02  0.11302887753E+02  0.11847302168E+02  0.54367097535E+02  0.40000030451E+02 0.  0.
         12    1    3    3    0    0 -0.32979766799E+02 -0.11302887753E+02 -0.11847302168E+02  0.36820902465E+02  0.00000000000E+00 0. -1.
         11    1    4    4    0    0  0.72352615713E+01 -0.59290853028E+01 -0.62145158398E+01  0.11230461697E+02  0.51100000000E-03 0. -1.
        -11    1    4    4    0    0  0.12264915466E+02  0.61788925019E+01  0.21361435965E+02  0.25395232046E+02  0.51100000000E-03 0.  1.
        -12    1    4    4    0    0  0.13479589762E+02  0.11053080554E+02 -0.32996179564E+01  0.17741403793E+02  0.00000000000E+00 0.  1.
</event>
<event>
 8    1  0.2460897E-006  0.9118800E+02  0.7816164E-02  0.1184000E+00
        -11   -1    0    0    0    0  0.00000000000E+00  0.00000000000E+00  0.45593999997E+02  0.45594000000E+02  0.51100000000E-03 0.  1.
         11   -1    0    0    0    0 -0.00000000000E+00 -0.00000000000E+00 -0.45593999997E+02  0.45594000000E+02  0.51100000000E-03 0. -1.
         23    2    1    2    0    0  0.35527136788E-14 -0.35527136788E-14  0.00000000000E+00  0.91188000000E+02  0.91188000000E+02 0.  0.
    9900012    2    3    3    0    0  0.23211914196E+02 -0.26246363143E+02 -0.11318817272E+02  0.54367079815E+02  0.39999990054E+02 0.  0.
         12    1    3    3    0    0 -0.23211914196E+02  0.26246363143E+02  0.11318817272E+02  0.36820920185E+02  0.00000000000E+00 0. -1.
         11    1    4    4    0    0  0.19357476165E+01 -0.10514278053E+02  0.94280483925E+01  0.14254306667E+02  0.51100000000E-03 0. -1.
        -11    1    4    4    0    0  0.10004475160E+02 -0.15011392130E+02 -0.22331312599E+02  0.28707471842E+02  0.51100000000E-03 0.  1.
         12    1    4    4    0    0  0.11271691419E+02 -0.72069295962E+00  0.15844469341E+01  0.11405301305E+02  0.00000000000E+00 0. -1.
</event>
<event>
 8    1  0.2460897E-006  0.9118800E+02  0.7816164E-02  0.1184000E+00
        -11   -1    0    0    0    0  0.00000000000E+00  0.00000000000E+00  0.45593999997E+02  0.45594000000E+02  0.51100000000E-03 0.  1.
         11   -1    0    0    0    0 -0.00000000000E+00 -0.00000000000E+00 -0.45593999997E+02  0.45594000000E+02  0.51100000000E-03 0. -1.
         23    2    1    2    0    0  0.00000000000E+00  0.88817841970E-15 -0.88817841970E-15  0.91188000000E+02  0.91188000000E+02 0.  0.
    9900012    2    3    3    0    0 -0.36577345529E+02 -0.15492696511E+01 -0.39341309635E+01  0.54367084356E+02  0.40000000407E+02 0.  0.
        -12    1    3    3    0    0  0.36577345529E+02  0.15492696511E+01  0.39341309635E+01  0.36820915644E+02  0.00000000000E+00 0.  1.
         11    1    4    4    0    0  0.26226872037E+00 -0.99339660874E+01  0.89708892473E+01  0.13387655555E+02  0.51100000000E-03 0. -1.
        -11    1    4    4    0    0 -0.23456826136E+02  0.77469400632E+00 -0.70090253892E+01  0.24493862096E+02  0.51100000000E-03 0.  1.
         12    1    4    4    0    0 -0.13382788113E+02  0.76100024300E+01 -0.58959948215E+01  0.16485566706E+02  0.00000000000E+00 0. -1.
</event>
<event>
 8    1  0.2460897E-006  0.9118800E+02  0.7816164E-02  0.1184000E+00
        -11   -1    0    0    0    0  0.00000000000E+00  0.00000000000E+00  0.45593999997E+02  0.45594000000E+02  0.51100000000E-03 0.  1.
         11   -1    0    0    0    0 -0.00000000000E+00 -0.00000000000E+00 -0.45593999997E+02  0.45594000000E+02  0.51100000000E-03 0. -1.
         23    2    1    2    0    0  0.00000000000E+00  0.00000000000E+00 -0.35527136788E-14  0.91188000000E+02  0.91188000000E+02 0.  0.
    9900012    2    3    3    0    0  0.12911747909E+02 -0.18416445506E+02 -0.29153060527E+02  0.54367086958E+02  0.40000006338E+02 0.  0.
        -12    1    3    3    0    0 -0.12911747909E+02  0.18416445506E+02  0.29153060527E+02  0.36820913042E+02  0.00000000000E+00 0.  1.
         11    1    4    4    0    0  0.34343357828E+01  0.61825706716E+01 -0.22440472116E+02  0.23528570535E+02  0.51100000000E-03 0. -1.
        -11    1    4    4    0    0  0.96427520783E+00  0.19676526108E+01 -0.70295584183E+00  0.23012237288E+01  0.51100000000E-03 0.  1.
         12    1    4    4    0    0  0.85131369185E+01 -0.26566668788E+02 -0.60096325696E+01  0.28537292694E+02  0.00000000000E+00 0. -1.
</event>
<event>
 8    1  0.2460897E-006  0.9118800E+02  0.7816164E-02  0.1184000E+00
        -11   -1    0    0    0    0  0.00000000000E+00  0.00000000000E+00  0.45593999997E+02  0.45594000000E+02  0.51100000000E-03 0.  1.
         11   -1    0    0    0    0 -0.00000000000E+00 -0.00000000000E+00 -0.45593999997E+02  0.45594000000E+02  0.51100000000E-03 0. -1.
         23    2    1    2    0    0  0.00000000000E+00 -0.71054273576E-14  0.00000000000E+00  0.91188000000E+02  0.91188000000E+02 0.  0.
    9900012    2    3    3    0    0  0.62607518861E+01 -0.33048919173E+02 -0.14978287358E+02  0.54367120531E+02  0.40000082874E+02 0.  0.
         12    1    3    3    0    0 -0.62607518861E+01  0.33048919173E+02  0.14978287358E+02  0.36820879469E+02  0.00000000000E+00 0. -1.
         11    1    4    4    0    0 -0.11033073349E+01 -0.29738272235E+01  0.10664444009E+02  0.11126153949E+02  0.51100000000E-03 0. -1.
        -11    1    4    4    0    0  0.51662177336E+01 -0.19941946177E+02 -0.25616574309E+02  0.32872175203E+02  0.51100000000E-03 0.  1.
         12    1    4    4    0    0  0.21978414875E+01 -0.10133145773E+02 -0.26157057609E-01  0.10368791379E+02  0.00000000000E+00 0. -1.
</event>
<event>
 8    1  0.2460897E-006  0.9118800E+02  0.7816164E-02  0.1184000E+00
        -11   -1    0    0    0    0  0.00000000000E+00  0.00000000000E+00  0.45593999997E+02  0.45594000000E+02  0.51100000000E-03 0. -1.
         11   -1    0    0    0    0 -0.00000000000E+00 -0.00000000000E+00 -0.45593999997E+02  0.45594000000E+02  0.51100000000E-03 0.  1.
         23    2    1    2    0    0  0.35527136788E-14  0.00000000000E+00  0.00000000000E+00  0.91188000000E+02  0.91188000000E+02 0.  0.
    9900012    2    3    3    0    0 -0.16719701827E+02  0.11356458368E+02  0.30777637755E+02  0.54367074406E+02  0.39999977723E+02 0.  0.
        -12    1    3    3    0    0  0.16719701827E+02 -0.11356458368E+02 -0.30777637755E+02  0.36820925594E+02  0.00000000000E+00 0.  1.
         11    1    4    4    0    0 -0.25023163022E+02  0.98177429049E+01  0.19349991457E+02  0.33120521327E+02  0.51100000000E-03 0.  1.
        -11    1    4    4    0    0  0.47136944462E+01 -0.52948536922E+01  0.11520555160E+02  0.13526920655E+02  0.51100000000E-03 0. -1.
        -12    1    4    4    0    0  0.35897667488E+01  0.68335691549E+01 -0.92908861323E-01  0.77196324240E+01  0.00000000000E+00 0.  1.
</event>
<event>
 8    1  0.2460897E-006  0.9118800E+02  0.7816164E-02  0.1184000E+00
        -11   -1    0    0    0    0  0.00000000000E+00  0.00000000000E+00  0.45593999997E+02  0.45594000000E+02  0.51100000000E-03 0.  1.
         11   -1    0    0    0    0 -0.00000000000E+00 -0.00000000000E+00 -0.45593999997E+02  0.45594000000E+02  0.51100000000E-03 0. -1.
         23    2    1    2    0    0 -0.35527136788E-14  0.26645352591E-14  0.00000000000E+00  0.91188000000E+02  0.91188000000E+02 0.  0.
    9900012    2    3    3    0    0 -0.31149864178E+02  0.58948118443E+01 -0.18727440178E+02  0.54367083925E+02  0.39999999425E+02 0.  0.
        -12    1    3    3    0    0  0.31149864178E+02 -0.58948118443E+01  0.18727440178E+02  0.36820916075E+02  0.00000000000E+00 0.  1.
         11    1    4    4    0    0 -0.93595900823E+01  0.38800991674E+01 -0.75421774790E+01  0.12630975316E+02  0.51100000000E-03 0. -1.
        -11    1    4    4    0    0 -0.86188656160E+01 -0.15367412537E+02 -0.90924153088E+01  0.19827108438E+02  0.51100000000E-03 0.  1.
         12    1    4    4    0    0 -0.13171408479E+02  0.17382125214E+02 -0.20928473897E+01  0.21909000171E+02  0.00000000000E+00 0. -1.
</event>
<event>
 8    1  0.2460897E-006  0.9118800E+02  0.7816164E-02  0.1184000E+00
        -11   -1    0    0    0    0  0.00000000000E+00  0.00000000000E+00  0.45593999997E+02  0.45594000000E+02  0.51100000000E-03 0. -1.
         11   -1    0    0    0    0 -0.00000000000E+00 -0.00000000000E+00 -0.45593999997E+02  0.45594000000E+02  0.51100000000E-03 0.  1.
         23    2    1    2    0    0  0.35527136788E-14 -0.35527136788E-14  0.35527136788E-14  0.91188000000E+02  0.91188000000E+02 0.  0.
    9900012    2    3    3    0    0  0.16895641743E+02 -0.25699838788E+02 -0.20244370962E+02  0.54367095893E+02  0.40000026707E+02 0.  0.
         12    1    3    3    0    0 -0.16895641743E+02  0.25699838788E+02  0.20244370962E+02  0.36820904107E+02  0.00000000000E+00 0. -1.
         11    1    4    4    0    0 -0.17292945244E+01  0.31637326705E+01 -0.44678212194E+01  0.57411750254E+01  0.51100000000E-03 0. -1.
        -11    1    4    4    0    0  0.12276918794E+02 -0.31306022342E+02 -0.21350072695E+02  0.39832340808E+02  0.51100000000E-03 0.  1.
         12    1    4    4    0    0  0.63480174729E+01  0.24424508833E+01  0.55735229527E+01  0.87935800592E+01  0.00000000000E+00 0. -1.
</event>
<event>
 8    1  0.2460897E-006  0.9118800E+02  0.7816164E-02  0.1184000E+00
        -11   -1    0    0    0    0  0.00000000000E+00  0.00000000000E+00  0.45593999997E+02  0.45594000000E+02  0.51100000000E-03 0.  1.
         11   -1    0    0    0    0 -0.00000000000E+00 -0.00000000000E+00 -0.45593999997E+02  0.45594000000E+02  0.51100000000E-03 0. -1.
         23    2    1    2    0    0 -0.17763568394E-14  0.00000000000E+00 -0.35527136788E-14  0.91188000000E+02  0.91188000000E+02 0.  0.
    9900012    2    3    3    0    0  0.10519507506E+02 -0.21664129531E+02  0.27852903572E+02  0.54367098546E+02  0.40000032755E+02 0.  0.
         12    1    3    3    0    0 -0.10519507506E+02  0.21664129531E+02 -0.27852903572E+02  0.36820901454E+02  0.00000000000E+00 0. -1.
         11    1    4    4    0    0 -0.26825312511E+01 -0.11905961235E+02  0.17263225903E+02  0.21141590661E+02  0.51100000000E-03 0. -1.
        -11    1    4    4    0    0  0.13939221084E+01 -0.11877952583E+02  0.16073562018E+02  0.20034674258E+02  0.51100000000E-03 0.  1.
         12    1    4    4    0    0  0.11808116648E+02  0.21197842876E+01 -0.54838843493E+01  0.13190833627E+02  0.00000000000E+00 0. -1.
</event>
<event>
 8    1  0.2460897E-006  0.9118800E+02  0.7816164E-02  0.1184000E+00
        -11   -1    0    0    0    0  0.00000000000E+00  0.00000000000E+00  0.45593999997E+02  0.45594000000E+02  0.51100000000E-03 0. -1.
         11   -1    0    0    0    0 -0.00000000000E+00 -0.00000000000E+00 -0.45593999997E+02  0.45594000000E+02  0.51100000000E-03 0.  1.
         23    2    1    2    0    0  0.35527136788E-14  0.00000000000E+00  0.66613381478E-15  0.91188000000E+02  0.91188000000E+02 0.  0.
    9900012    2    3    3    0    0  0.26618220276E+02 -0.25392817911E+02  0.15668895375E+01  0.54367082101E+02  0.39999995265E+02 0.  0.
        -12    1    3    3    0    0 -0.26618220276E+02  0.25392817911E+02 -0.15668895375E+01  0.36820917899E+02  0.00000000000E+00 0.  1.
         11    1    4    4    0    0  0.44799416566E+01  0.61184830995E+01 -0.23544901938E+01  0.79403612650E+01  0.51100000000E-03 0. -1.
        -11    1    4    4    0    0  0.22734658591E+01  0.45430139544E+01  0.81497998563E+00  0.51450768158E+01  0.51100000000E-03 0.  1.
         12    1    4    4    0    0  0.19864812760E+02 -0.36054314965E+02  0.31063997456E+01  0.41281644020E+02  0.00000000000E+00 0. -1.
</event>
<event>
 8    1  0.2460897E-006  0.9118800E+02  0.7816164E-02  0.1184000E+00
        -11   -1    0    0    0    0  0.00000000000E+00  0.00000000000E+00  0.45593999997E+02  0.45594000000E+02  0.51100000000E-03 0. -1.
         11   -1    0    0    0    0 -0.00000000000E+00 -0.00000000000E+00 -0.45593999997E+02  0.45594000000E+02  0.51100000000E-03 0.  1.
         23    2    1    2    0    0  0.00000000000E+00  0.00000000000E+00 -0.35527136788E-14  0.91188000000E+02  0.91188000000E+02 0.  0.
    9900012    2    3    3    0    0 -0.42030278439E+01  0.20830759082E+02  0.30069818403E+02  0.54367082768E+02  0.39999996787E+02 0.  0.
        -12    1    3    3    0    0  0.42030278439E+01 -0.20830759082E+02 -0.30069818403E+02  0.36820917232E+02  0.00000000000E+00 0.  1.
         11    1    4    4    0    0 -0.10453975767E+02  0.78238414908E+01  0.25171460838E+02  0.28356666694E+02  0.51100000000E-03 0. -1.
        -11    1    4    4    0    0  0.38164632880E+01  0.98050488165E+01  0.13143697771E+02  0.16836304989E+02  0.51100000000E-03 0.  1.
        -12    1    4    4    0    0  0.24344846352E+01  0.32018687747E+01 -0.82453402063E+01  0.91741110854E+01  0.00000000000E+00 0.  1.
</event>
<event>
 8    1  0.2460897E-006  0.9118800E+02  0.7816164E-02  0.1184000E+00
        -11   -1    0    0    0    0  0.00000000000E+00  0.00000000000E+00  0.45593999997E+02  0.45594000000E+02  0.51100000000E-03 0.  1.
         11   -1    0    0    0    0 -0.00000000000E+00 -0.00000000000E+00 -0.45593999997E+02  0.45594000000E+02  0.51100000000E-03 0. -1.
         23    2    1    2    0    0  0.17763568394E-14 -0.13322676296E-14 -0.71054273576E-14  0.91188000000E+02  0.91188000000E+02 0.  0.
    9900012    2    3    3    0    0 -0.14343184709E+02  0.24158984196E+01  0.33826255663E+02  0.54367094457E+02  0.40000023435E+02 0.  0.
         12    1    3    3    0    0  0.14343184709E+02 -0.24158984196E+01 -0.33826255663E+02  0.36820905543E+02  0.00000000000E+00 0. -1.
         11    1    4    4    0    0 -0.14183492516E+02 -0.14686105095E+02  0.14832763302E+02  0.25236164730E+02  0.51100000000E-03 0. -1.
        -11    1    4    4    0    0 -0.63567936583E+01  0.76293435326E+01  0.12886587839E+02  0.16268984441E+02  0.51100000000E-03 0.  1.
         12    1    4    4    0    0  0.61971014657E+01  0.94726599823E+01  0.61069045226E+01  0.12861945287E+02  0.00000000000E+00 0. -1.
</event>
<event>
 8    1  0.2460897E-006  0.9118800E+02  0.7816164E-02  0.1184000E+00
        -11   -1    0    0    0    0  0.00000000000E+00  0.00000000000E+00  0.45593999997E+02  0.45594000000E+02  0.51100000000E-03 0. -1.
         11   -1    0    0    0    0 -0.00000000000E+00 -0.00000000000E+00 -0.45593999997E+02  0.45594000000E+02  0.51100000000E-03 0.  1.
         23    2    1    2    0    0  0.17763568394E-14  0.35527136788E-14 -0.35527136788E-14  0.91188000000E+02  0.91188000000E+02 0.  0.
    9900012    2    3    3    0    0 -0.12683631730E+02 -0.14199993405E+02  0.31516123808E+02  0.54367076784E+02  0.39999983145E+02 0.  0.
        -12    1    3    3    0    0  0.12683631730E+02  0.14199993405E+02 -0.31516123808E+02  0.36820923216E+02  0.00000000000E+00 0.  1.
         11    1    4    4    0    0 -0.82335214141E+01 -0.17949807126E+02  0.37392905104E+02  0.42287300731E+02  0.51100000000E-03 0. -1.
        -11    1    4    4    0    0 -0.51919509953E+01  0.59310889373E+01 -0.30964724837E+01  0.84689027166E+01  0.51100000000E-03 0.  1.
         12    1    4    4    0    0  0.74184067993E+00 -0.21812752171E+01 -0.27803088116E+01  0.36108733368E+01  0.00000000000E+00 0. -1.
</event>
<event>
 8    1  0.2460897E-006  0.9118800E+02  0.7816164E-02  0.1184000E+00
        -11   -1    0    0    0    0  0.00000000000E+00  0.00000000000E+00  0.45593999997E+02  0.45594000000E+02  0.51100000000E-03 0. -1.
         11   -1    0    0    0    0 -0.00000000000E+00 -0.00000000000E+00 -0.45593999997E+02  0.45594000000E+02  0.51100000000E-03 0.  1.
         23    2    1    2    0    0 -0.71054273576E-14 -0.71054273576E-14  0.35527136788E-14  0.91188000000E+02  0.91188000000E+02 0.  0.
    9900012    2    3    3    0    0 -0.20317716226E+02 -0.19952157585E+02  0.23342691359E+02  0.54367089843E+02  0.40000012915E+02 0.  0.
        -12    1    3    3    0    0  0.20317716226E+02  0.19952157585E+02 -0.23342691359E+02  0.36820910157E+02  0.00000000000E+00 0.  1.
         11    1    4    4    0    0 -0.11429663357E+02 -0.20964494912E+01  0.45106862742E+01  0.12465095100E+02  0.51100000000E-03 0. -1.
        -11    1    4    4    0    0  0.13069300503E+01  0.52190368020E+01  0.15560219198E+02  0.16464107417E+02  0.51100000000E-03 0.  1.
        -12    1    4    4    0    0 -0.10194982919E+02 -0.23074744896E+02  0.32717858871E+01  0.25437887326E+02  0.00000000000E+00 0.  1.
</event>
<event>
 8    1  0.2460897E-006  0.9118800E+02  0.7816164E-02  0.1184000E+00
        -11   -1    0    0    0    0  0.00000000000E+00  0.00000000000E+00  0.45593999997E+02  0.45594000000E+02  0.51100000000E-03 0.  1.
         11   -1    0    0    0    0 -0.00000000000E+00 -0.00000000000E+00 -0.45593999997E+02  0.45594000000E+02  0.51100000000E-03 0. -1.
         23    2    1    2    0    0 -0.26645352591E-14 -0.35527136788E-14  0.71054273576E-14  0.91188000000E+02  0.91188000000E+02 0.  0.
    9900012    2    3    3    0    0  0.68885221918E+01  0.14338994925E+02 -0.33207256911E+02  0.54367076261E+02  0.39999981952E+02 0.  0.
        -12    1    3    3    0    0 -0.68885221918E+01 -0.14338994925E+02  0.33207256911E+02  0.36820923739E+02  0.00000000000E+00 0.  1.
         11    1    4    4    0    0 -0.84946027565E+01  0.18412210940E+02 -0.11840256063E+02  0.23481044516E+02  0.51100000000E-03 0. -1.
        -11    1    4    4    0    0 -0.28961642341E+01  0.60126331697E+00 -0.54516573795E+01  0.62024070563E+01  0.51100000000E-03 0.  1.
        -12    1    4    4    0    0  0.18279289182E+02 -0.46744793318E+01 -0.15915343469E+02  0.24683624689E+02  0.00000000000E+00 0.  1.
</event>
<event>
 8    1  0.2460897E-006  0.9118800E+02  0.7816164E-02  0.1184000E+00
        -11   -1    0    0    0    0  0.00000000000E+00  0.00000000000E+00  0.45593999997E+02  0.45594000000E+02  0.51100000000E-03 0.  1.
         11   -1    0    0    0    0 -0.00000000000E+00 -0.00000000000E+00 -0.45593999997E+02  0.45594000000E+02  0.51100000000E-03 0. -1.
         23    2    1    2    0    0  0.00000000000E+00  0.00000000000E+00  0.53290705182E-14  0.91188000000E+02  0.91188000000E+02 0.  0.
    9900012    2    3    3    0    0 -0.31762733375E+02  0.15431976292E+02 -0.10428919292E+02  0.54367089075E+02  0.40000011165E+02 0.  0.
         12    1    3    3    0    0  0.31762733375E+02 -0.15431976292E+02  0.10428919292E+02  0.36820910925E+02  0.00000000000E+00 0. -1.
         11    1    4    4    0    0 -0.89320691703E+01 -0.19026302124E+01  0.59730448561E+01  0.10912338269E+02  0.51100000000E-03 0. -1.
        -11    1    4    4    0    0  0.60789956118E-01  0.10419491548E+02  0.48220694396E+01  0.11481369843E+02  0.51100000000E-03 0.  1.
        -12    1    4    4    0    0 -0.22891454161E+02  0.69151149565E+01 -0.21224033588E+02  0.31973380963E+02  0.00000000000E+00 0.  1.
</event>
<event>
 8    1  0.2460897E-006  0.9118800E+02  0.7816164E-02  0.1184000E+00
        -11   -1    0    0    0    0  0.00000000000E+00  0.00000000000E+00  0.45593999997E+02  0.45594000000E+02  0.51100000000E-03 0. -1.
         11   -1    0    0    0    0 -0.00000000000E+00 -0.00000000000E+00 -0.45593999997E+02  0.45594000000E+02  0.51100000000E-03 0.  1.
         23    2    1    2    0    0  0.00000000000E+00  0.88817841970E-15  0.35527136788E-14  0.91188000000E+02  0.91188000000E+02 0.  0.
    9900012    2    3    3    0    0 -0.23836818471E+02  0.39783217556E+01  0.27780572507E+02  0.54367066177E+02  0.39999958964E+02 0.  0.
        -12    1    3    3    0    0  0.23836818471E+02 -0.39783217556E+01 -0.27780572507E+02  0.36820933823E+02  0.00000000000E+00 0.  1.
         11    1    4    4    0    0 -0.17017089781E+02  0.13445033827E+02  0.87410527416E+01  0.23382820243E+02  0.51100000000E-03 0. -1.
        -11    1    4    4    0    0  0.40826716482E+01  0.29370489116E+01  0.12039586587E+02  0.13047839267E+02  0.51100000000E-03 0.  1.
        -12    1    4    4    0    0 -0.10902400338E+02 -0.12403760983E+02  0.69999331783E+01  0.17936406667E+02  0.00000000000E+00 0.  1.
</event>
<event>
 8    1  0.2460897E-006  0.9118800E+02  0.7816164E-02  0.1184000E+00
        -11   -1    0    0    0    0  0.00000000000E+00  0.00000000000E+00  0.45593999997E+02  0.45594000000E+02  0.51100000000E-03 0.  1.
         11   -1    0    0    0    0 -0.00000000000E+00 -0.00000000000E+00 -0.45593999997E+02  0.45594000000E+02  0.51100000000E-03 0. -1.
         23    2    1    2    0    0 -0.17763568394E-14  0.00000000000E+00  0.00000000000E+00  0.91188000000E+02  0.91188000000E+02 0.  0.
    9900012    2    3    3    0    0  0.15237330410E+02  0.99404320704E+01 -0.32012370950E+02  0.54367077665E+02  0.39999985152E+02 0.  0.
        -12    1    3    3    0    0 -0.15237330410E+02 -0.99404320704E+01  0.32012370950E+02  0.36820922335E+02  0.00000000000E+00 0.  1.
         11    1    4    4    0    0  0.16960832592E+02  0.17346773322E+02 -0.28678838804E+02  0.37564027769E+02  0.51100000000E-03 0. -1.
        -11    1    4    4    0    0  0.18861531950E+01 -0.40577573389E+01 -0.85374371534E+01  0.96390249458E+01  0.51100000000E-03 0.  1.
        -12    1    4    4    0    0 -0.36096553769E+01 -0.33485839122E+01  0.52039050068E+01  0.71640249495E+01  0.00000000000E+00 0.  1.
</event>
<event>
 8    1  0.2460897E-006  0.9118800E+02  0.7816164E-02  0.1184000E+00
        -11   -1    0    0    0    0  0.00000000000E+00  0.00000000000E+00  0.45593999997E+02  0.45594000000E+02  0.51100000000E-03 0. -1.
         11   -1    0    0    0    0 -0.00000000000E+00 -0.00000000000E+00 -0.45593999997E+02  0.45594000000E+02  0.51100000000E-03 0.  1.
         23    2    1    2    0    0 -0.35527136788E-14  0.00000000000E+00 -0.35527136788E-14  0.91188000000E+02  0.91188000000E+02 0.  0.
    9900012    2    3    3    0    0 -0.26037726907E+02  0.18075014340E+02 -0.18737945383E+02  0.54367082534E+02  0.39999996252E+02 0.  0.
         12    1    3    3    0    0  0.26037726907E+02 -0.18075014340E+02  0.18737945383E+02  0.36820917466E+02  0.00000000000E+00 0. -1.
         11    1    4    4    0    0 -0.14231947628E+02 -0.48417451326E+01 -0.92083311731E+01  0.17629072366E+02  0.51100000000E-03 0. -1.
        -11    1    4    4    0    0 -0.16013001471E+02  0.87605543260E+01  0.14873023499E+01  0.18313262864E+02  0.51100000000E-03 0.  1.
        -12    1    4    4    0    0  0.42072221915E+01  0.14156205146E+02 -0.11016916560E+02  0.18424747304E+02  0.00000000000E+00 0.  1.
</event>
<event>
 8    1  0.2460897E-006  0.9118800E+02  0.7816164E-02  0.1184000E+00
        -11   -1    0    0    0    0  0.00000000000E+00  0.00000000000E+00  0.45593999997E+02  0.45594000000E+02  0.51100000000E-03 0. -1.
         11   -1    0    0    0    0 -0.00000000000E+00 -0.00000000000E+00 -0.45593999997E+02  0.45594000000E+02  0.51100000000E-03 0.  1.
         23    2    1    2    0    0 -0.11102230246E-14 -0.35527136788E-14  0.00000000000E+00  0.91188000000E+02  0.91188000000E+02 0.  0.
    9900012    2    3    3    0    0  0.19657206954E+01 -0.23725877198E+02 -0.28089123457E+02  0.54367079816E+02  0.39999990055E+02 0.  0.
         12    1    3    3    0    0 -0.19657206954E+01  0.23725877198E+02  0.28089123457E+02  0.36820920184E+02  0.00000000000E+00 0. -1.
         11    1    4    4    0    0  0.88742901626E+01 -0.39723636621E+01 -0.63950899632E+01  0.11637434204E+02  0.51100000000E-03 0. -1.
        -11    1    4    4    0    0 -0.11594344954E+02 -0.24117738425E+02 -0.23978130149E+02  0.35931112804E+02  0.51100000000E-03 0.  1.
         12    1    4    4    0    0  0.46857754866E+01  0.43642248899E+01  0.22840966549E+01  0.67985328072E+01  0.00000000000E+00 0. -1.
</event>
<event>
 8    1  0.2460897E-006  0.9118800E+02  0.7816164E-02  0.1184000E+00
        -11   -1    0    0    0    0  0.00000000000E+00  0.00000000000E+00  0.45593999997E+02  0.45594000000E+02  0.51100000000E-03 0.  1.
         11   -1    0    0    0    0 -0.00000000000E+00 -0.00000000000E+00 -0.45593999997E+02  0.45594000000E+02  0.51100000000E-03 0. -1.
         23    2    1    2    0    0  0.00000000000E+00 -0.35527136788E-14  0.00000000000E+00  0.91188000000E+02  0.91188000000E+02 0.  0.
    9900012    2    3    3    0    0 -0.18808865794E+02 -0.24812442144E+02 -0.19655772087E+02  0.54367080757E+02  0.39999992201E+02 0.  0.
        -12    1    3    3    0    0  0.18808865794E+02  0.24812442144E+02  0.19655772087E+02  0.36820919243E+02  0.00000000000E+00 0.  1.
         11    1    4    4    0    0 -0.10686438450E+02 -0.24245670901E+02 -0.24690062286E+02  0.36216732322E+02  0.51100000000E-03 0. -1.
        -11    1    4    4    0    0 -0.95890014681E+01 -0.50739935740E+01  0.71152201539E+01  0.12973847465E+02  0.51100000000E-03 0.  1.
         12    1    4    4    0    0  0.14665741239E+01  0.45072223314E+01 -0.20809299552E+01  0.51765009692E+01  0.00000000000E+00 0. -1.
</event>
<event>
 8    1  0.2460897E-006  0.9118800E+02  0.7816164E-02  0.1184000E+00
        -11   -1    0    0    0    0  0.00000000000E+00  0.00000000000E+00  0.45593999997E+02  0.45594000000E+02  0.51100000000E-03 0. -1.
         11   -1    0    0    0    0 -0.00000000000E+00 -0.00000000000E+00 -0.45593999997E+02  0.45594000000E+02  0.51100000000E-03 0.  1.
         23    2    1    2    0    0 -0.17763568394E-14 -0.35527136788E-14  0.71054273576E-14  0.91188000000E+02  0.91188000000E+02 0.  0.
    9900012    2    3    3    0    0 -0.14255575309E+02 -0.24624587788E+02  0.23370669553E+02  0.54367082759E+02  0.39999996766E+02 0.  0.
         12    1    3    3    0    0  0.14255575309E+02  0.24624587788E+02 -0.23370669553E+02  0.36820917241E+02  0.00000000000E+00 0. -1.
         11    1    4    4    0    0  0.38600412283E+01 -0.74261252873E+01  0.46935648406E+01  0.95956660134E+01  0.51100000000E-03 0. -1.
        -11    1    4    4    0    0  0.91178584638E+01 -0.33410726446E+01  0.18405444173E+01  0.98836083186E+01  0.51100000000E-03 0.  1.
         12    1    4    4    0    0 -0.27233475001E+02 -0.13857389856E+02  0.16836560295E+02  0.34887808427E+02  0.00000000000E+00 0. -1.
</event>
<event>
 8    1  0.2460897E-006  0.9118800E+02  0.7816164E-02  0.1184000E+00
        -11   -1    0    0    0    0  0.00000000000E+00  0.00000000000E+00  0.45593999997E+02  0.45594000000E+02  0.51100000000E-03 0.  1.
         11   -1    0    0    0    0 -0.00000000000E+00 -0.00000000000E+00 -0.45593999997E+02  0.45594000000E+02  0.51100000000E-03 0. -1.
         23    2    1    2    0    0  0.12212453271E-14  0.00000000000E+00  0.00000000000E+00  0.91188000000E+02  0.91188000000E+02 0.  0.
    9900012    2    3    3    0    0 -0.98167930272E+00  0.28446089539E+01  0.36697761724E+02  0.54367065602E+02  0.39999957653E+02 0.  0.
         12    1    3    3    0    0  0.98167930272E+00 -0.28446089539E+01 -0.36697761724E+02  0.36820934398E+02  0.00000000000E+00 0. -1.
         11    1    4    4    0    0  0.29482795194E+01 -0.13365726404E+02  0.21531281419E+02  0.25513350901E+02  0.51100000000E-03 0. -1.
        -11    1    4    4    0    0 -0.87898777526E+01  0.13539420941E+01  0.60845489928E+01  0.10775752726E+02  0.51100000000E-03 0.  1.
         12    1    4    4    0    0  0.48599189305E+01  0.14856393263E+02  0.90819313128E+01  0.18077961975E+02  0.00000000000E+00 0. -1.
</event>
<event>
 8    1  0.2460897E-006  0.9118800E+02  0.7816164E-02  0.1184000E+00
        -11   -1    0    0    0    0  0.00000000000E+00  0.00000000000E+00  0.45593999997E+02  0.45594000000E+02  0.51100000000E-03 0. -1.
         11   -1    0    0    0    0 -0.00000000000E+00 -0.00000000000E+00 -0.45593999997E+02  0.45594000000E+02  0.51100000000E-03 0.  1.
         23    2    1    2    0    0  0.17763568394E-14  0.00000000000E+00  0.00000000000E+00  0.91188000000E+02  0.91188000000E+02 0.  0.
    9900012    2    3    3    0    0 -0.15623427930E+02 -0.16874115171E+02  0.28756780807E+02  0.54367086032E+02  0.40000004226E+02 0.  0.
        -12    1    3    3    0    0  0.15623427930E+02  0.16874115171E+02 -0.28756780807E+02  0.36820913968E+02  0.00000000000E+00 0.  1.
         11    1    4    4    0    0 -0.39828035647E+01 -0.58177844223E+01  0.94768854000E+01  0.11811887951E+02  0.51100000000E-03 0. -1.
        -11    1    4    4    0    0 -0.17382643520E+02 -0.19878630808E+02  0.17984823074E+02  0.31949493264E+02  0.51100000000E-03 0.  1.
        -12    1    4    4    0    0  0.57420191549E+01  0.88223000596E+01  0.12950723337E+01  0.10605704817E+02  0.00000000000E+00 0.  1.
</event>
<event>
 8    1  0.2460897E-006  0.9118800E+02  0.7816164E-02  0.1184000E+00
        -11   -1    0    0    0    0  0.00000000000E+00  0.00000000000E+00  0.45593999997E+02  0.45594000000E+02  0.51100000000E-03 0. -1.
         11   -1    0    0    0    0 -0.00000000000E+00 -0.00000000000E+00 -0.45593999997E+02  0.45594000000E+02  0.51100000000E-03 0.  1.
         23    2    1    2    0    0  0.17763568394E-14  0.00000000000E+00  0.00000000000E+00  0.91188000000E+02  0.91188000000E+02 0.  0.
    9900012    2    3    3    0    0 -0.12944592465E+02 -0.10357612598E+02  0.32877630654E+02  0.54367065598E+02  0.39999957644E+02 0.  0.
        -12    1    3    3    0    0  0.12944592465E+02  0.10357612598E+02 -0.32877630654E+02  0.36820934402E+02  0.00000000000E+00 0.  1.
         11    1    4    4    0    0 -0.31261470804E+01  0.36990544113E+01  0.17215565834E+02  0.17883833659E+02  0.51100000000E-03 0. -1.
        -11    1    4    4    0    0 -0.17615047081E+02 -0.15653022655E+02  0.67026557495E+01  0.24499644819E+02  0.51100000000E-03 0.  1.
        -12    1    4    4    0    0  0.77966016964E+01  0.15963556455E+01  0.89594090704E+01  0.11983587119E+02  0.00000000000E+00 0.  1.
</event>
<event>
 8    1  0.2460897E-006  0.9118800E+02  0.7816164E-02  0.1184000E+00
        -11   -1    0    0    0    0  0.00000000000E+00  0.00000000000E+00  0.45593999997E+02  0.45594000000E+02  0.51100000000E-03 0. -1.
         11   -1    0    0    0    0 -0.00000000000E+00 -0.00000000000E+00 -0.45593999997E+02  0.45594000000E+02  0.51100000000E-03 0.  1.
         23    2    1    2    0    0  0.00000000000E+00  0.88817841970E-15  0.00000000000E+00  0.91188000000E+02  0.91188000000E+02 0.  0.
    9900012    2    3    3    0    0  0.35241124884E+01  0.54377081372E+01 -0.36246271332E+02  0.54367078989E+02  0.39999988172E+02 0.  0.
         12    1    3    3    0    0 -0.35241124884E+01 -0.54377081372E+01  0.36246271332E+02  0.36820921011E+02  0.00000000000E+00 0. -1.
         11    1    4    4    0    0  0.27776515652E+01 -0.51207557493E+01 -0.32689302818E-01  0.58256807768E+01  0.51100000000E-03 0. -1.
        -11    1    4    4    0    0  0.42279408945E+01  0.18473376992E+02 -0.35011623503E+02  0.39811492339E+02  0.51100000000E-03 0.  1.
        -12    1    4    4    0    0 -0.34814799714E+01 -0.79149131057E+01 -0.12019585260E+01  0.87299058735E+01  0.00000000000E+00 0.  1.
</event>
<event>
 8    1  0.2460897E-006  0.9118800E+02  0.7816164E-02  0.1184000E+00
        -11   -1    0    0    0    0  0.00000000000E+00  0.00000000000E+00  0.45593999997E+02  0.45594000000E+02  0.51100000000E-03 0.  1.
         11   -1    0    0    0    0 -0.00000000000E+00 -0.00000000000E+00 -0.45593999997E+02  0.45594000000E+02  0.51100000000E-03 0. -1.
         23    2    1    2    0    0  0.00000000000E+00  0.00000000000E+00  0.88817841970E-15  0.91188000000E+02  0.91188000000E+02 0.  0.
    9900012    2    3    3    0    0  0.38122263253E+01 -0.36036519859E+02 -0.65281422056E+01  0.54367075599E+02  0.39999980442E+02 0.  0.
        -12    1    3    3    0    0 -0.38122263253E+01  0.36036519859E+02  0.65281422056E+01  0.36820924401E+02  0.00000000000E+00 0.  1.
         11    1    4    4    0    0  0.15131344195E+01 -0.18972676578E+01  0.65608350332E+01  0.69952667519E+01  0.51100000000E-03 0.  1.
        -11    1    4    4    0    0 -0.98987183965E+01 -0.25947479062E+02 -0.11705935537E+00  0.27771748211E+02  0.51100000000E-03 0. -1.
         12    1    4    4    0    0  0.12197810302E+02 -0.81917731395E+01 -0.12971917883E+02  0.19600060636E+02  0.00000000000E+00 0. -1.
</event>
<event>
 8    1  0.2460897E-006  0.9118800E+02  0.7816164E-02  0.1184000E+00
        -11   -1    0    0    0    0  0.00000000000E+00  0.00000000000E+00  0.45593999997E+02  0.45594000000E+02  0.51100000000E-03 0. -1.
         11   -1    0    0    0    0 -0.00000000000E+00 -0.00000000000E+00 -0.45593999997E+02  0.45594000000E+02  0.51100000000E-03 0.  1.
         23    2    1    2    0    0  0.35527136788E-14  0.00000000000E+00  0.26645352591E-14  0.91188000000E+02  0.91188000000E+02 0.  0.
    9900012    2    3    3    0    0 -0.17698186479E+02 -0.31679844374E+02  0.62402463733E+01  0.54367095353E+02  0.40000025476E+02 0.  0.
         12    1    3    3    0    0  0.17698186479E+02  0.31679844374E+02 -0.62402463733E+01  0.36820904647E+02  0.00000000000E+00 0. -1.
         11    1    4    4    0    0 -0.13452414335E+02 -0.53980919774E+01 -0.41474138447E+01  0.15076733409E+02  0.51100000000E-03 0. -1.
        -11    1    4    4    0    0 -0.38582920601E+00 -0.11872113686E+02  0.18744620808E+02  0.22191366723E+02  0.51100000000E-03 0.  1.
        -12    1    4    4    0    0 -0.38599429381E+01 -0.14409638711E+02 -0.83569605897E+01  0.17098995221E+02  0.00000000000E+00 0.  1.
</event>
<event>
 8    1  0.2460897E-006  0.9118800E+02  0.7816164E-02  0.1184000E+00
        -11   -1    0    0    0    0  0.00000000000E+00  0.00000000000E+00  0.45593999997E+02  0.45594000000E+02  0.51100000000E-03 0. -1.
         11   -1    0    0    0    0 -0.00000000000E+00 -0.00000000000E+00 -0.45593999997E+02  0.45594000000E+02  0.51100000000E-03 0.  1.
         23    2    1    2    0    0  0.00000000000E+00  0.00000000000E+00 -0.35527136788E-14  0.91188000000E+02  0.91188000000E+02 0.  0.
    9900012    2    3    3    0    0 -0.16635315848E+02  0.17744425653E+02  0.27643851219E+02  0.54367070009E+02  0.39999967700E+02 0.  0.
        -12    1    3    3    0    0  0.16635315848E+02 -0.17744425653E+02 -0.27643851219E+02  0.36820929991E+02  0.00000000000E+00 0.  1.
         11    1    4    4    0    0 -0.12251147376E+02 -0.11813863707E+01 -0.46683888978E+01  0.13163591492E+02  0.51100000000E-03 0.  1.
        -11    1    4    4    0    0 -0.10663411812E+02  0.13305154157E+02  0.19977636805E+02  0.26264832975E+02  0.51100000000E-03 0. -1.
        -12    1    4    4    0    0  0.62792433404E+01  0.56206578672E+01  0.12334603312E+02  0.14938645543E+02  0.00000000000E+00 0.  1.
</event>
<event>
 8    1  0.2460897E-006  0.9118800E+02  0.7816164E-02  0.1184000E+00
        -11   -1    0    0    0    0  0.00000000000E+00  0.00000000000E+00  0.45593999997E+02  0.45594000000E+02  0.51100000000E-03 0.  1.
         11   -1    0    0    0    0 -0.00000000000E+00 -0.00000000000E+00 -0.45593999997E+02  0.45594000000E+02  0.51100000000E-03 0. -1.
         23    2    1    2    0    0  0.00000000000E+00  0.11102230246E-15  0.00000000000E+00  0.91188000000E+02  0.91188000000E+02 0.  0.
    9900012    2    3    3    0    0 -0.27994050066E+02  0.89183043284E+00  0.23902236062E+02  0.54367094397E+02  0.40000023298E+02 0.  0.
         12    1    3    3    0    0  0.27994050066E+02 -0.89183043284E+00 -0.23902236062E+02  0.36820905603E+02  0.00000000000E+00 0. -1.
         11    1    4    4    0    0 -0.14299347215E+02 -0.13392456371E+02  0.37224931796E+01  0.19942070459E+02  0.51100000000E-03 0. -1.
        -11    1    4    4    0    0 -0.55687189605E+01 -0.43347370627E+00  0.16217462095E+02  0.17152393634E+02  0.51100000000E-03 0.  1.
        -12    1    4    4    0    0 -0.81259838900E+01  0.14717760510E+02  0.39622807882E+01  0.17272630305E+02  0.00000000000E+00 0.  1.
</event>
<event>
 8    1  0.2460897E-006  0.9118800E+02  0.7816164E-02  0.1184000E+00
        -11   -1    0    0    0    0  0.00000000000E+00  0.00000000000E+00  0.45593999997E+02  0.45594000000E+02  0.51100000000E-03 0. -1.
         11   -1    0    0    0    0 -0.00000000000E+00 -0.00000000000E+00 -0.45593999997E+02  0.45594000000E+02  0.51100000000E-03 0.  1.
         23    2    1    2    0    0 -0.22204460493E-15  0.00000000000E+00  0.00000000000E+00  0.91188000000E+02  0.91188000000E+02 0.  0.
    9900012    2    3    3    0    0  0.65213149266E+00  0.28516599496E+02 -0.23284299365E+02  0.54367077698E+02  0.39999985227E+02 0.  0.
         12    1    3    3    0    0 -0.65213149266E+00 -0.28516599496E+02  0.23284299365E+02  0.36820922302E+02  0.00000000000E+00 0. -1.
         11    1    4    4    0    0  0.35702564188E+01  0.21238720762E+02 -0.13964345887E+02  0.25667741366E+02  0.51100000000E-03 0. -1.
        -11    1    4    4    0    0 -0.62557200635E+01  0.16190813181E+02 -0.40624844303E+01  0.17826391811E+02  0.51100000000E-03 0.  1.
         12    1    4    4    0    0  0.33375951373E+01 -0.89129344476E+01 -0.52574690475E+01  0.10872944521E+02  0.00000000000E+00 0. -1.
</event>
<event>
 8    1  0.2460897E-006  0.9118800E+02  0.7816164E-02  0.1184000E+00
        -11   -1    0    0    0    0  0.00000000000E+00  0.00000000000E+00  0.45593999997E+02  0.45594000000E+02  0.51100000000E-03 0.  1.
         11   -1    0    0    0    0 -0.00000000000E+00 -0.00000000000E+00 -0.45593999997E+02  0.45594000000E+02  0.51100000000E-03 0. -1.
         23    2    1    2    0    0  0.00000000000E+00  0.44408920985E-15  0.17763568394E-14  0.91188000000E+02  0.91188000000E+02 0.  0.
    9900012    2    3    3    0    0 -0.35598641692E+02 -0.19780902263E+01 -0.91980352825E+01  0.54367082245E+02  0.39999995593E+02 0.  0.
         12    1    3    3    0    0  0.35598641692E+02  0.19780902263E+01  0.91980352825E+01  0.36820917755E+02  0.00000000000E+00 0. -1.
         11    1    4    4    0    0 -0.28605588185E+01  0.58887082513E+01  0.48196767485E+01  0.81295120299E+01  0.51100000000E-03 0.  1.
        -11    1    4    4    0    0 -0.13198326586E+02  0.99159312692E+01 -0.39704645013E+00  0.16512999841E+02  0.51100000000E-03 0. -1.
         12    1    4    4    0    0 -0.19539756287E+02 -0.17782729747E+02 -0.13620665581E+02  0.29724570373E+02  0.00000000000E+00 0. -1.
</event>
<event>
 8    1  0.2460897E-006  0.9118800E+02  0.7816164E-02  0.1184000E+00
        -11   -1    0    0    0    0  0.00000000000E+00  0.00000000000E+00  0.45593999997E+02  0.45594000000E+02  0.51100000000E-03 0.  1.
         11   -1    0    0    0    0 -0.00000000000E+00 -0.00000000000E+00 -0.45593999997E+02  0.45594000000E+02  0.51100000000E-03 0. -1.
         23    2    1    2    0    0 -0.17763568394E-14  0.00000000000E+00 -0.44408920985E-15  0.91188000000E+02  0.91188000000E+02 0.  0.
    9900012    2    3    3    0    0  0.11517038856E+02  0.34948054219E+02 -0.13305570203E+01  0.54367094801E+02  0.40000024217E+02 0.  0.
         12    1    3    3    0    0 -0.11517038856E+02 -0.34948054219E+02  0.13305570203E+01  0.36820905199E+02  0.00000000000E+00 0. -1.
         11    1    4    4    0    0  0.86225554242E+00  0.27407187027E+02 -0.52585364129E+01  0.27920415305E+02  0.51100000000E-03 0. -1.
        -11    1    4    4    0    0  0.53967374364E+01  0.15367742198E+02  0.14881309364E+00  0.16288475092E+02  0.51100000000E-03 0.  1.
         12    1    4    4    0    0  0.52580458772E+01 -0.78268750052E+01  0.37791662990E+01  0.10158204404E+02  0.00000000000E+00 0. -1.
</event>
<event>
 8    1  0.2460897E-006  0.9118800E+02  0.7816164E-02  0.1184000E+00
        -11   -1    0    0    0    0  0.00000000000E+00  0.00000000000E+00  0.45593999997E+02  0.45594000000E+02  0.51100000000E-03 0.  1.
         11   -1    0    0    0    0 -0.00000000000E+00 -0.00000000000E+00 -0.45593999997E+02  0.45594000000E+02  0.51100000000E-03 0. -1.
         23    2    1    2    0    0  0.00000000000E+00  0.00000000000E+00  0.00000000000E+00  0.91188000000E+02  0.91188000000E+02 0.  0.
    9900012    2    3    3    0    0 -0.10894656524E+02  0.31766747325E+02 -0.15098313596E+02  0.54367097650E+02  0.40000030714E+02 0.  0.
         12    1    3    3    0    0  0.10894656524E+02 -0.31766747325E+02  0.15098313596E+02  0.36820902350E+02  0.00000000000E+00 0. -1.
         11    1    4    4    0    0  0.35743118970E+01  0.31476364824E+02 -0.21679231314E+02  0.38386538248E+02  0.51100000000E-03 0. -1.
        -11    1    4    4    0    0 -0.61350493499E+01  0.41149800921E+00  0.36208627981E+01  0.71357416434E+01  0.51100000000E-03 0.  1.
         12    1    4    4    0    0 -0.83339190714E+01 -0.12111550825E+00  0.29600549199E+01  0.88448177586E+01  0.00000000000E+00 0. -1.
</event>
<event>
 8    1  0.2460897E-006  0.9118800E+02  0.7816164E-02  0.1184000E+00
        -11   -1    0    0    0    0  0.00000000000E+00  0.00000000000E+00  0.45593999997E+02  0.45594000000E+02  0.51100000000E-03 0.  1.
         11   -1    0    0    0    0 -0.00000000000E+00 -0.00000000000E+00 -0.45593999997E+02  0.45594000000E+02  0.51100000000E-03 0. -1.
         23    2    1    2    0    0  0.00000000000E+00  0.17763568394E-14  0.00000000000E+00  0.91188000000E+02  0.91188000000E+02 0.  0.
    9900012    2    3    3    0    0 -0.26510233035E+02 -0.85251333986E+01 -0.24089605733E+02  0.54367089373E+02  0.40000011844E+02 0.  0.
        -12    1    3    3    0    0  0.26510233035E+02  0.85251333986E+01  0.24089605733E+02  0.36820910627E+02  0.00000000000E+00 0.  1.
         11    1    4    4    0    0 -0.91962642505E+01  0.44649106660E+01 -0.19183734940E+02  0.21737580131E+02  0.51100000000E-03 0. -1.
        -11    1    4    4    0    0 -0.17307566174E+02  0.12462033661E+01 -0.59772721223E+01  0.18353001171E+02  0.51100000000E-03 0.  1.
        -12    1    4    4    0    0 -0.64026098896E-02 -0.14236247431E+02  0.10714013297E+01  0.14276508071E+02  0.00000000000E+00 0.  1.
</event>
<event>
 8    1  0.2460897E-006  0.9118800E+02  0.7816164E-02  0.1184000E+00
        -11   -1    0    0    0    0  0.00000000000E+00  0.00000000000E+00  0.45593999997E+02  0.45594000000E+02  0.51100000000E-03 0. -1.
         11   -1    0    0    0    0 -0.00000000000E+00 -0.00000000000E+00 -0.45593999997E+02  0.45594000000E+02  0.51100000000E-03 0.  1.
         23    2    1    2    0    0  0.00000000000E+00  0.00000000000E+00  0.00000000000E+00  0.91188000000E+02  0.91188000000E+02 0.  0.
    9900012    2    3    3    0    0 -0.86582055186E+00 -0.22041811766E+02  0.29482054193E+02  0.54367046310E+02  0.39999913674E+02 0.  0.
        -12    1    3    3    0    0  0.86582055186E+00  0.22041811766E+02 -0.29482054193E+02  0.36820953690E+02  0.00000000000E+00 0.  1.
         11    1    4    4    0    0 -0.12219740919E+02 -0.26954108810E+02  0.17872922532E+02  0.34572928860E+02  0.51100000000E-03 0. -1.
        -11    1    4    4    0    0  0.51189302223E+01  0.36806618647E+01 -0.28200663593E+00  0.63111208503E+01  0.51100000000E-03 0.  1.
         12    1    4    4    0    0  0.62349901448E+01  0.12316351789E+01  0.11891138297E+02  0.13482996600E+02  0.00000000000E+00 0. -1.
</event>
<event>
 8    1  0.2460897E-006  0.9118800E+02  0.7816164E-02  0.1184000E+00
        -11   -1    0    0    0    0  0.00000000000E+00  0.00000000000E+00  0.45593999997E+02  0.45594000000E+02  0.51100000000E-03 0.  1.
         11   -1    0    0    0    0 -0.00000000000E+00 -0.00000000000E+00 -0.45593999997E+02  0.45594000000E+02  0.51100000000E-03 0. -1.
         23    2    1    2    0    0  0.00000000000E+00  0.00000000000E+00  0.00000000000E+00  0.91188000000E+02  0.91188000000E+02 0.  0.
    9900012    2    3    3    0    0 -0.24027462492E+01 -0.58959785075E+01  0.36266278264E+02  0.54367099804E+02  0.40000035623E+02 0.  0.
         12    1    3    3    0    0  0.24027462492E+01  0.58959785075E+01 -0.36266278264E+02  0.36820900196E+02  0.00000000000E+00 0. -1.
         11    1    4    4    0    0 -0.25131535001E+01 -0.54585771630E+01 -0.43841084037E+01  0.74385759333E+01  0.51100000000E-03 0. -1.
        -11    1    4    4    0    0 -0.45393459083E+01 -0.95987299982E+01  0.31244471525E+02  0.32999367872E+02  0.51100000000E-03 0.  1.
        -12    1    4    4    0    0  0.46497531592E+01  0.91613286537E+01  0.94059151432E+01  0.13929155998E+02  0.00000000000E+00 0.  1.
</event>
<event>
 8    1  0.2460897E-006  0.9118800E+02  0.7816164E-02  0.1184000E+00
        -11   -1    0    0    0    0  0.00000000000E+00  0.00000000000E+00  0.45593999997E+02  0.45594000000E+02  0.51100000000E-03 0.  1.
         11   -1    0    0    0    0 -0.00000000000E+00 -0.00000000000E+00 -0.45593999997E+02  0.45594000000E+02  0.51100000000E-03 0. -1.
         23    2    1    2    0    0  0.66613381478E-15 -0.35527136788E-14 -0.71054273576E-14  0.91188000000E+02  0.91188000000E+02 0.  0.
    9900012    2    3    3    0    0 -0.15763809339E+01 -0.18595780429E+02 -0.31741016389E+02  0.54367080022E+02  0.39999990526E+02 0.  0.
        -12    1    3    3    0    0  0.15763809339E+01  0.18595780429E+02  0.31741016389E+02  0.36820919978E+02  0.00000000000E+00 0.  1.
         11    1    4    4    0    0  0.17077036754E+02 -0.10046393559E+02 -0.13783427432E+02  0.24135825651E+02  0.51100000000E-03 0. -1.
        -11    1    4    4    0    0 -0.71611066921E+00  0.15285937578E+01  0.12374294620E+01  0.20929991165E+01  0.51100000000E-03 0.  1.
        -12    1    4    4    0    0 -0.17937307019E+02 -0.10077980628E+02 -0.19195018420E+02  0.28138255254E+02  0.00000000000E+00 0.  1.
</event>
<event>
 8    1  0.2460897E-006  0.9118800E+02  0.7816164E-02  0.1184000E+00
        -11   -1    0    0    0    0  0.00000000000E+00  0.00000000000E+00  0.45593999997E+02  0.45594000000E+02  0.51100000000E-03 0. -1.
         11   -1    0    0    0    0 -0.00000000000E+00 -0.00000000000E+00 -0.45593999997E+02  0.45594000000E+02  0.51100000000E-03 0.  1.
         23    2    1    2    0    0  0.00000000000E+00 -0.17763568394E-14  0.71054273576E-14  0.91188000000E+02  0.91188000000E+02 0.  0.
    9900012    2    3    3    0    0 -0.44394641821E+01 -0.14672106621E+02  0.33478365036E+02  0.54367075509E+02  0.39999980237E+02 0.  0.
        -12    1    3    3    0    0  0.44394641821E+01  0.14672106621E+02 -0.33478365036E+02  0.36820924491E+02  0.00000000000E+00 0.  1.
         11    1    4    4    0    0  0.55162283510E+01  0.11622444152E+01  0.18630890112E+02  0.19465088079E+02  0.51100000000E-03 0. -1.
        -11    1    4    4    0    0 -0.47773046649E+01 -0.22375530942E+02  0.84565509031E+01  0.24392627539E+02  0.51100000000E-03 0.  1.
        -12    1    4    4    0    0 -0.51783878682E+01  0.65411799062E+01  0.63909240211E+01  0.10509359891E+02  0.00000000000E+00 0.  1.
</event>
<event>
 8    1  0.2460897E-006  0.9118800E+02  0.7816164E-02  0.1184000E+00
        -11   -1    0    0    0    0  0.00000000000E+00  0.00000000000E+00  0.45593999997E+02  0.45594000000E+02  0.51100000000E-03 0.  1.
         11   -1    0    0    0    0 -0.00000000000E+00 -0.00000000000E+00 -0.45593999997E+02  0.45594000000E+02  0.51100000000E-03 0. -1.
         23    2    1    2    0    0 -0.88817841970E-15  0.00000000000E+00 -0.17763568394E-14  0.91188000000E+02  0.91188000000E+02 0.  0.
    9900012    2    3    3    0    0  0.52136386960E+01 -0.35132093282E+02 -0.97125736318E+01  0.54367080764E+02  0.39999992219E+02 0.  0.
        -12    1    3    3    0    0 -0.52136386960E+01  0.35132093282E+02  0.97125736318E+01  0.36820919236E+02  0.00000000000E+00 0.  1.
         11    1    4    4    0    0  0.52678154766E+01 -0.27561458312E+02 -0.13152224248E+02  0.30989754228E+02  0.51100000000E-03 0. -1.
        -11    1    4    4    0    0 -0.58452453455E+01 -0.13110261896E+01 -0.74412872654E+01  0.95529283074E+01  0.51100000000E-03 0.  1.
        -12    1    4    4    0    0  0.57910685649E+01 -0.62596087799E+01  0.10880937882E+02  0.13824398229E+02  0.00000000000E+00 0.  1.
</event>
<event>
 8    1  0.2460897E-006  0.9118800E+02  0.7816164E-02  0.1184000E+00
        -11   -1    0    0    0    0  0.00000000000E+00  0.00000000000E+00  0.45593999997E+02  0.45594000000E+02  0.51100000000E-03 0. -1.
         11   -1    0    0    0    0 -0.00000000000E+00 -0.00000000000E+00 -0.45593999997E+02  0.45594000000E+02  0.51100000000E-03 0.  1.
         23    2    1    2    0    0  0.35527136788E-14 -0.35527136788E-14  0.00000000000E+00  0.91188000000E+02  0.91188000000E+02 0.  0.
    9900012    2    3    3    0    0 -0.25599774751E+02  0.14198997720E+02  0.22334291203E+02  0.54367074331E+02  0.39999977553E+02 0.  0.
        -12    1    3    3    0    0  0.25599774751E+02 -0.14198997720E+02 -0.22334291203E+02  0.36820925669E+02  0.00000000000E+00 0.  1.
         11    1    4    4    0    0 -0.50843132668E+01  0.21305985108E+02  0.14105826572E+02  0.26053206834E+02  0.51100000000E-03 0. -1.
        -11    1    4    4    0    0 -0.57024793096E-01 -0.16967891495E+00  0.66513290314E+01  0.66537373638E+01  0.51100000000E-03 0.  1.
        -12    1    4    4    0    0 -0.20458436691E+02 -0.69373084734E+01  0.15771356000E+01  0.21660130133E+02  0.00000000000E+00 0.  1.
</event>
<event>
 8    1  0.2460897E-006  0.9118800E+02  0.7816164E-02  0.1184000E+00
        -11   -1    0    0    0    0  0.00000000000E+00  0.00000000000E+00  0.45593999997E+02  0.45594000000E+02  0.51100000000E-03 0. -1.
         11   -1    0    0    0    0 -0.00000000000E+00 -0.00000000000E+00 -0.45593999997E+02  0.45594000000E+02  0.51100000000E-03 0.  1.
         23    2    1    2    0    0  0.00000000000E+00  0.35527136788E-14  0.00000000000E+00  0.91188000000E+02  0.91188000000E+02 0.  0.
    9900012    2    3    3    0    0  0.15394758636E+02 -0.30049135592E+02 -0.14690703063E+02  0.54367273503E+02  0.40000431603E+02 0.  0.
         12    1    3    3    0    0 -0.15394758636E+02  0.30049135592E+02  0.14690703063E+02  0.36820726497E+02  0.00000000000E+00 0. -1.
         11    1    4    4    0    0  0.16140792825E+02 -0.47252869767E+01 -0.35321365616E+00  0.16821958571E+02  0.51100000000E-03 0. -1.
        -11    1    4    4    0    0 -0.10388269521E+02 -0.12984495586E+02 -0.14228197697E+02  0.21885037794E+02  0.51100000000E-03 0.  1.
        -12    1    4    4    0    0  0.96422353322E+01 -0.12339353029E+02 -0.10929171005E+00  0.15660277138E+02  0.00000000000E+00 0.  1.
</event>
<event>
 8    1  0.2460897E-006  0.9118800E+02  0.7816164E-02  0.1184000E+00
        -11   -1    0    0    0    0  0.00000000000E+00  0.00000000000E+00  0.45593999997E+02  0.45594000000E+02  0.51100000000E-03 0.  1.
         11   -1    0    0    0    0 -0.00000000000E+00 -0.00000000000E+00 -0.45593999997E+02  0.45594000000E+02  0.51100000000E-03 0. -1.
         23    2    1    2    0    0  0.71054273576E-14  0.00000000000E+00  0.00000000000E+00  0.91188000000E+02  0.91188000000E+02 0.  0.
    9900012    2    3    3    0    0 -0.26670884548E+02  0.16837041994E+02 -0.18998902196E+02  0.54367077274E+02  0.39999984263E+02 0.  0.
        -12    1    3    3    0    0  0.26670884548E+02 -0.16837041994E+02  0.18998902196E+02  0.36820922726E+02  0.00000000000E+00 0.  1.
         11    1    4    4    0    0 -0.74889424697E+01  0.94429403192E+01 -0.11849408104E+02  0.16901534069E+02  0.51100000000E-03 0. -1.
        -11    1    4    4    0    0 -0.17514746223E+02  0.68285916073E+01  0.92642669367E+01  0.20957639197E+02  0.51100000000E-03 0.  1.
         12    1    4    4    0    0 -0.16671958560E+01  0.56551006754E+00 -0.16413761029E+02  0.16507904009E+02  0.00000000000E+00 0. -1.
</event>
<event>
 8    1  0.2460897E-006  0.9118800E+02  0.7816164E-02  0.1184000E+00
        -11   -1    0    0    0    0  0.00000000000E+00  0.00000000000E+00  0.45593999997E+02  0.45594000000E+02  0.51100000000E-03 0.  1.
         11   -1    0    0    0    0 -0.00000000000E+00 -0.00000000000E+00 -0.45593999997E+02  0.45594000000E+02  0.51100000000E-03 0. -1.
         23    2    1    2    0    0 -0.35527136788E-14  0.00000000000E+00 -0.13567705986E-14  0.91188000000E+02  0.91188000000E+02 0.  0.
    9900012    2    3    3    0    0 -0.31986352674E+02 -0.18238745214E+02  0.14767251042E-02  0.54367101226E+02  0.40000038865E+02 0.  0.
        -12    1    3    3    0    0  0.31986352674E+02  0.18238745214E+02 -0.14767251042E-02  0.36820898774E+02  0.00000000000E+00 0.  1.
         11    1    4    4    0    0 -0.10439424143E+01  0.65204156764E+01  0.42050175777E+01  0.78286531056E+01  0.51100000000E-03 0. -1.
        -11    1    4    4    0    0 -0.23226806411E+01  0.46937491844E+01  0.16042503959E+00  0.52394525689E+01  0.51100000000E-03 0.  1.
         12    1    4    4    0    0 -0.28619729618E+02 -0.29452910074E+02 -0.43639658922E+01  0.41298995552E+02  0.00000000000E+00 0. -1.
</event>
<event>
 8    1  0.2460897E-006  0.9118800E+02  0.7816164E-02  0.1184000E+00
        -11   -1    0    0    0    0  0.00000000000E+00  0.00000000000E+00  0.45593999997E+02  0.45594000000E+02  0.51100000000E-03 0. -1.
         11   -1    0    0    0    0 -0.00000000000E+00 -0.00000000000E+00 -0.45593999997E+02  0.45594000000E+02  0.51100000000E-03 0.  1.
         23    2    1    2    0    0  0.00000000000E+00 -0.71054273576E-14  0.35527136788E-14  0.91188000000E+02  0.91188000000E+02 0.  0.
    9900012    2    3    3    0    0  0.11160627814E+02 -0.26694314033E+02  0.22773540131E+02  0.54367080063E+02  0.39999990620E+02 0.  0.
        -12    1    3    3    0    0 -0.11160627814E+02  0.26694314033E+02 -0.22773540131E+02  0.36820919937E+02  0.00000000000E+00 0.  1.
         11    1    4    4    0    0  0.16362143657E+02 -0.16128696047E+02  0.17665969867E+02  0.28981736884E+02  0.51100000000E-03 0. -1.
        -11    1    4    4    0    0  0.44727828763E+01  0.33750102731E+01  0.62306956978E+01  0.83796211216E+01  0.51100000000E-03 0.  1.
        -12    1    4    4    0    0 -0.96742987193E+01 -0.13940628259E+02 -0.11231254335E+01  0.17005722058E+02  0.00000000000E+00 0.  1.
</event>
<event>
 8    1  0.2460897E-006  0.9118800E+02  0.7816164E-02  0.1184000E+00
        -11   -1    0    0    0    0  0.00000000000E+00  0.00000000000E+00  0.45593999997E+02  0.45594000000E+02  0.51100000000E-03 0.  1.
         11   -1    0    0    0    0 -0.00000000000E+00 -0.00000000000E+00 -0.45593999997E+02  0.45594000000E+02  0.51100000000E-03 0. -1.
         23    2    1    2    0    0 -0.71054273576E-14  0.44408920985E-15  0.17763568394E-14  0.91188000000E+02  0.91188000000E+02 0.  0.
    9900012    2    3    3    0    0  0.35852320953E+02 -0.17961717882E+01  0.81953281550E+01  0.54367101663E+02  0.40000039861E+02 0.  0.
        -12    1    3    3    0    0 -0.35852320953E+02  0.17961717882E+01 -0.81953281550E+01  0.36820898337E+02  0.00000000000E+00 0.  1.
         11    1    4    4    0    0  0.10027780534E+02 -0.62275151200E+01 -0.13559213163E+02  0.17977502297E+02  0.51100000000E-03 0. -1.
        -11    1    4    4    0    0  0.19746584555E+02 -0.25266597455E+01  0.14157462057E+02  0.24428371686E+02  0.51100000000E-03 0.  1.
         12    1    4    4    0    0  0.60779558639E+01  0.69580030773E+01  0.75970792612E+01  0.11961227680E+02  0.00000000000E+00 0. -1.
</event>
<event>
 8    1  0.2460897E-006  0.9118800E+02  0.7816164E-02  0.1184000E+00
        -11   -1    0    0    0    0  0.00000000000E+00  0.00000000000E+00  0.45593999997E+02  0.45594000000E+02  0.51100000000E-03 0. -1.
         11   -1    0    0    0    0 -0.00000000000E+00 -0.00000000000E+00 -0.45593999997E+02  0.45594000000E+02  0.51100000000E-03 0.  1.
         23    2    1    2    0    0  0.00000000000E+00  0.00000000000E+00  0.88817841970E-15  0.91188000000E+02  0.91188000000E+02 0.  0.
    9900012    2    3    3    0    0  0.34567065849E+02  0.10201868763E+02  0.75378941799E+01  0.54367081810E+02  0.39999994603E+02 0.  0.
        -12    1    3    3    0    0 -0.34567065849E+02 -0.10201868763E+02 -0.75378941799E+01  0.36820918190E+02  0.00000000000E+00 0.  1.
         11    1    4    4    0    0  0.23520458839E+02 -0.58761841279E+01  0.37440177947E+01  0.24530780530E+02  0.51100000000E-03 0. -1.
        -11    1    4    4    0    0  0.44953955638E+01 -0.37717938391E+01 -0.44518450185E+01  0.73657270089E+01  0.51100000000E-03 0.  1.
         12    1    4    4    0    0  0.65512114458E+01  0.19849846730E+02  0.82457214037E+01  0.22470574271E+02  0.00000000000E+00 0. -1.
</event>
<event>
 8    1  0.2460897E-006  0.9118800E+02  0.7816164E-02  0.1184000E+00
        -11   -1    0    0    0    0  0.00000000000E+00  0.00000000000E+00  0.45593999997E+02  0.45594000000E+02  0.51100000000E-03 0.  1.
         11   -1    0    0    0    0 -0.00000000000E+00 -0.00000000000E+00 -0.45593999997E+02  0.45594000000E+02  0.51100000000E-03 0. -1.
         23    2    1    2    0    0 -0.44408920985E-15  0.00000000000E+00  0.35527136788E-14  0.91188000000E+02  0.91188000000E+02 0.  0.
    9900012    2    3    3    0    0  0.23096216577E+01  0.27548253836E+02 -0.24321321999E+02  0.54367253872E+02  0.40000386851E+02 0.  0.
        -12    1    3    3    0    0 -0.23096216577E+01 -0.27548253836E+02  0.24321321999E+02  0.36820746128E+02  0.00000000000E+00 0.  1.
         11    1    4    4    0    0  0.17723368696E+01  0.12690769277E+02 -0.29132813309E+02  0.31826366653E+02  0.51100000000E-03 0. -1.
        -11    1    4    4    0    0 -0.53243637619E+01  0.64831513571E+01 -0.37670482116E+01  0.91962358320E+01  0.51100000000E-03 0.  1.
        -12    1    4    4    0    0  0.58616485500E+01  0.83743332027E+01  0.85785395215E+01  0.13344651387E+02  0.00000000000E+00 0.  1.
</event>
<event>
 8    1  0.2460897E-006  0.9118800E+02  0.7816164E-02  0.1184000E+00
        -11   -1    0    0    0    0  0.00000000000E+00  0.00000000000E+00  0.45593999997E+02  0.45594000000E+02  0.51100000000E-03 0. -1.
         11   -1    0    0    0    0 -0.00000000000E+00 -0.00000000000E+00 -0.45593999997E+02  0.45594000000E+02  0.51100000000E-03 0.  1.
         23    2    1    2    0    0 -0.88817841970E-15  0.00000000000E+00  0.71054273576E-14  0.91188000000E+02  0.91188000000E+02 0.  0.
    9900012    2    3    3    0    0  0.68484330792E+01  0.18527467005E+02 -0.31074286869E+02  0.54367090537E+02  0.40000014496E+02 0.  0.
         12    1    3    3    0    0 -0.68484330792E+01 -0.18527467005E+02  0.31074286869E+02  0.36820909463E+02  0.00000000000E+00 0. -1.
         11    1    4    4    0    0  0.26325393307E+01  0.16993384503E+00 -0.75878327619E+01  0.80333272759E+01  0.51100000000E-03 0. -1.
        -11    1    4    4    0    0  0.37300802697E+01  0.16729751799E+02  0.49544163871E+01  0.17842206592E+02  0.51100000000E-03 0.  1.
        -12    1    4    4    0    0  0.48581347878E+00  0.16277813611E+01 -0.28440870495E+02  0.28491556668E+02  0.00000000000E+00 0.  1.
</event>
<event>
 8    1  0.2460897E-006  0.9118800E+02  0.7816164E-02  0.1184000E+00
        -11   -1    0    0    0    0  0.00000000000E+00  0.00000000000E+00  0.45593999997E+02  0.45594000000E+02  0.51100000000E-03 0. -1.
         11   -1    0    0    0    0 -0.00000000000E+00 -0.00000000000E+00 -0.45593999997E+02  0.45594000000E+02  0.51100000000E-03 0.  1.
         23    2    1    2    0    0  0.35527136788E-14  0.35527136788E-14 -0.71054273576E-14  0.91188000000E+02  0.91188000000E+02 0.  0.
    9900012    2    3    3    0    0 -0.22891321140E+02  0.13456400866E+02 -0.25508671375E+02  0.54367087149E+02  0.40000006774E+02 0.  0.
         12    1    3    3    0    0  0.22891321140E+02 -0.13456400866E+02  0.25508671375E+02  0.36820912851E+02  0.00000000000E+00 0. -1.
         11    1    4    4    0    0 -0.66678026781E+01  0.10599156104E+02 -0.53147983238E-01  0.12522161460E+02  0.51100000000E-03 0. -1.
        -11    1    4    4    0    0  0.64456415126E+01 -0.53919828315E+01 -0.10550561775E+02  0.13488295941E+02  0.51100000000E-03 0.  1.
        -12    1    4    4    0    0 -0.22669159975E+02  0.82492275938E+01 -0.14904961617E+02  0.28356629748E+02  0.00000000000E+00 0.  1.
</event>
<event>
 8    1  0.2460897E-006  0.9118800E+02  0.7816164E-02  0.1184000E+00
        -11   -1    0    0    0    0  0.00000000000E+00  0.00000000000E+00  0.45593999997E+02  0.45594000000E+02  0.51100000000E-03 0.  1.
         11   -1    0    0    0    0 -0.00000000000E+00 -0.00000000000E+00 -0.45593999997E+02  0.45594000000E+02  0.51100000000E-03 0. -1.
         23    2    1    2    0    0  0.17763568394E-14 -0.71054273576E-14  0.35527136788E-14  0.91188000000E+02  0.91188000000E+02 0.  0.
    9900012    2    3    3    0    0  0.71220736630E+01  0.28004689623E+02 -0.22820881166E+02  0.54367093013E+02  0.40000020141E+02 0.  0.
        -12    1    3    3    0    0 -0.71220736630E+01 -0.28004689623E+02  0.22820881166E+02  0.36820906987E+02  0.00000000000E+00 0.  1.
         11    1    4    4    0    0  0.98888328094E+01  0.15683410287E+02 -0.17690095296E+02  0.25626116452E+02  0.51100000000E-03 0. -1.
        -11    1    4    4    0    0 -0.41802290094E+01 -0.73478980970E+01 -0.40890944985E+00  0.84636356381E+01  0.51100000000E-03 0.  1.
        -12    1    4    4    0    0  0.14134698630E+01  0.19669177433E+02 -0.47218764198E+01  0.20277340922E+02  0.00000000000E+00 0.  1.
</event>
<event>
 8    1  0.2460897E-006  0.9118800E+02  0.7816164E-02  0.1184000E+00
        -11   -1    0    0    0    0  0.00000000000E+00  0.00000000000E+00  0.45593999997E+02  0.45594000000E+02  0.51100000000E-03 0. -1.
         11   -1    0    0    0    0 -0.00000000000E+00 -0.00000000000E+00 -0.45593999997E+02  0.45594000000E+02  0.51100000000E-03 0.  1.
         23    2    1    2    0    0  0.35527136788E-14  0.17763568394E-14  0.00000000000E+00  0.91188000000E+02  0.91188000000E+02 0.  0.
    9900012    2    3    3    0    0 -0.24043934299E+02  0.90882331308E+01  0.26364260926E+02  0.54367068287E+02  0.39999963774E+02 0.  0.
        -12    1    3    3    0    0  0.24043934299E+02 -0.90882331308E+01 -0.26364260926E+02  0.36820931713E+02  0.00000000000E+00 0.  1.
         11    1    4    4    0    0 -0.18278886336E+02 -0.81567165005E+01  0.12428103764E+02  0.23560718859E+02  0.51100000000E-03 0. -1.
        -11    1    4    4    0    0 -0.54690450343E+01  0.15968542382E+02  0.70853151888E-01  0.16879271898E+02  0.51100000000E-03 0.  1.
        -12    1    4    4    0    0 -0.29600292869E+00  0.12764072496E+01  0.13865304011E+02  0.13927077530E+02  0.00000000000E+00 0.  1.
</event>
<event>
 8    1  0.2460897E-006  0.9118800E+02  0.7816164E-02  0.1184000E+00
        -11   -1    0    0    0    0  0.00000000000E+00  0.00000000000E+00  0.45593999997E+02  0.45594000000E+02  0.51100000000E-03 0.  1.
         11   -1    0    0    0    0 -0.00000000000E+00 -0.00000000000E+00 -0.45593999997E+02  0.45594000000E+02  0.51100000000E-03 0. -1.
         23    2    1    2    0    0 -0.17763568394E-14 -0.44408920985E-15  0.71054273576E-14  0.91188000000E+02  0.91188000000E+02 0.  0.
    9900012    2    3    3    0    0  0.63048087307E+01 -0.32746699877E+01 -0.36129003989E+02  0.54367095531E+02  0.40000025882E+02 0.  0.
        -12    1    3    3    0    0 -0.63048087307E+01  0.32746699877E+01  0.36129003989E+02  0.36820904469E+02  0.00000000000E+00 0.  1.
         11    1    4    4    0    0 -0.21393753753E+01 -0.14879620612E+02 -0.17774533728E+02  0.23279048221E+02  0.51100000000E-03 0. -1.
        -11    1    4    4    0    0 -0.63837473507E+01  0.51089051471E+01 -0.28124648369E+01  0.86465658362E+01  0.51100000000E-03 0.  1.
        -12    1    4    4    0    0  0.14827931457E+02  0.64960454775E+01 -0.15542005424E+02  0.22441481474E+02  0.00000000000E+00 0.  1.
</event>
<event>
 8    1  0.2460897E-006  0.9118800E+02  0.7816164E-02  0.1184000E+00
        -11   -1    0    0    0    0  0.00000000000E+00  0.00000000000E+00  0.45593999997E+02  0.45594000000E+02  0.51100000000E-03 0.  1.
         11   -1    0    0    0    0 -0.00000000000E+00 -0.00000000000E+00 -0.45593999997E+02  0.45594000000E+02  0.51100000000E-03 0. -1.
         23    2    1    2    0    0 -0.35527136788E-14  0.00000000000E+00  0.00000000000E+00  0.91188000000E+02  0.91188000000E+02 0.  0.
    9900012    2    3    3    0    0  0.18536174622E+02 -0.13171588438E+02  0.28960296054E+02  0.54367092092E+02  0.40000018043E+02 0.  0.
         12    1    3    3    0    0 -0.18536174622E+02  0.13171588438E+02 -0.28960296054E+02  0.36820907908E+02  0.00000000000E+00 0. -1.
         11    1    4    4    0    0  0.11789651374E+02 -0.14795302274E+02  0.77858104350E+01  0.20457656105E+02  0.51100000000E-03 0. -1.
        -11    1    4    4    0    0  0.15607378460E+02  0.46602736727E+01  0.92007676218E+01  0.18707285698E+02  0.51100000000E-03 0.  1.
         12    1    4    4    0    0 -0.88608552129E+01 -0.30365598372E+01  0.11973717997E+02  0.15202150290E+02  0.00000000000E+00 0. -1.
</event>
<event>
 8    1  0.2460897E-006  0.9118800E+02  0.7816164E-02  0.1184000E+00
        -11   -1    0    0    0    0  0.00000000000E+00  0.00000000000E+00  0.45593999997E+02  0.45594000000E+02  0.51100000000E-03 0.  1.
         11   -1    0    0    0    0 -0.00000000000E+00 -0.00000000000E+00 -0.45593999997E+02  0.45594000000E+02  0.51100000000E-03 0. -1.
         23    2    1    2    0    0 -0.35527136788E-14  0.44408920985E-15  0.00000000000E+00  0.91188000000E+02  0.91188000000E+02 0.  0.
    9900012    2    3    3    0    0 -0.18769014602E+02  0.22875785174E+01 -0.31595431170E+02  0.54367079379E+02  0.39999989059E+02 0.  0.
        -12    1    3    3    0    0  0.18769014602E+02 -0.22875785174E+01  0.31595431170E+02  0.36820920621E+02  0.00000000000E+00 0.  1.
         11    1    4    4    0    0  0.34947139875E+01  0.10387422511E+02 -0.95950620788E+01  0.14566289467E+02  0.51100000000E-03 0. -1.
        -11    1    4    4    0    0 -0.27164074293E+02 -0.73211215434E+01 -0.17728325975E+02  0.33253259915E+02  0.51100000000E-03 0.  1.
        -12    1    4    4    0    0  0.49003457033E+01 -0.77872245054E+00 -0.42720431160E+01  0.65475299962E+01  0.00000000000E+00 0.  1.
</event>
<event>
 8    1  0.2460897E-006  0.9118800E+02  0.7816164E-02  0.1184000E+00
        -11   -1    0    0    0    0  0.00000000000E+00  0.00000000000E+00  0.45593999997E+02  0.45594000000E+02  0.51100000000E-03 0.  1.
         11   -1    0    0    0    0 -0.00000000000E+00 -0.00000000000E+00 -0.45593999997E+02  0.45594000000E+02  0.51100000000E-03 0. -1.
         23    2    1    2    0    0  0.00000000000E+00  0.00000000000E+00 -0.17763568394E-14  0.91188000000E+02  0.91188000000E+02 0.  0.
    9900012    2    3    3    0    0  0.34804842328E+02  0.79393862797E+01  0.90207310880E+01  0.54367021016E+02  0.39999856009E+02 0.  0.
         12    1    3    3    0    0 -0.34804842328E+02 -0.79393862797E+01 -0.90207310880E+01  0.36820978984E+02  0.00000000000E+00 0. -1.
         11    1    4    4    0    0  0.27237749238E+02  0.77463959848E+01 -0.14507550892E+01  0.28355005288E+02  0.51100000000E-03 0. -1.
        -11    1    4    4    0    0  0.14228120320E+02 -0.30818289113E+01  0.19129692041E+01  0.14683205669E+02  0.51100000000E-03 0.  1.
         12    1    4    4    0    0 -0.66610272289E+01  0.32748192063E+01  0.85585169731E+01  0.11328810059E+02  0.00000000000E+00 0. -1.
</event>
<event>
 8    1  0.2460897E-006  0.9118800E+02  0.7816164E-02  0.1184000E+00
        -11   -1    0    0    0    0  0.00000000000E+00  0.00000000000E+00  0.45593999997E+02  0.45594000000E+02  0.51100000000E-03 0. -1.
         11   -1    0    0    0    0 -0.00000000000E+00 -0.00000000000E+00 -0.45593999997E+02  0.45594000000E+02  0.51100000000E-03 0.  1.
         23    2    1    2    0    0 -0.71054273576E-14  0.00000000000E+00 -0.35527136788E-14  0.91188000000E+02  0.91188000000E+02 0.  0.
    9900012    2    3    3    0    0  0.30242892404E+02 -0.96177090670E+01  0.18672104083E+02  0.54367077421E+02  0.39999984597E+02 0.  0.
        -12    1    3    3    0    0 -0.30242892404E+02  0.96177090670E+01 -0.18672104083E+02  0.36820922579E+02  0.00000000000E+00 0.  1.
         11    1    4    4    0    0  0.23822942712E+02 -0.28142484486E+01  0.12320927494E+02  0.26967718635E+02  0.51100000000E-03 0. -1.
        -11    1    4    4    0    0 -0.45856465922E+01 -0.21084007688E+01  0.12834005789E+02  0.13790765509E+02  0.51100000000E-03 0.  1.
        -12    1    4    4    0    0  0.11005596284E+02 -0.46950598496E+01 -0.64828291997E+01  0.13608593277E+02  0.00000000000E+00 0.  1.
</event>
<event>
 8    1  0.2460897E-006  0.9118800E+02  0.7816164E-02  0.1184000E+00
        -11   -1    0    0    0    0  0.00000000000E+00  0.00000000000E+00  0.45593999997E+02  0.45594000000E+02  0.51100000000E-03 0. -1.
         11   -1    0    0    0    0 -0.00000000000E+00 -0.00000000000E+00 -0.45593999997E+02  0.45594000000E+02  0.51100000000E-03 0.  1.
         23    2    1    2    0    0  0.00000000000E+00 -0.17763568394E-14  0.00000000000E+00  0.91188000000E+02  0.91188000000E+02 0.  0.
    9900012    2    3    3    0    0 -0.68556072195E+01  0.11136419399E+02 -0.34420346533E+02  0.54367089598E+02  0.40000012357E+02 0.  0.
         12    1    3    3    0    0  0.68556072195E+01 -0.11136419399E+02  0.34420346533E+02  0.36820910402E+02  0.00000000000E+00 0. -1.
         11    1    4    4    0    0 -0.79394373310E+00  0.11824543935E+02 -0.26240989395E+02  0.28793049693E+02  0.51100000000E-03 0. -1.
        -11    1    4    4    0    0  0.73102210614E+01 -0.71687844497E+00 -0.96433876782E+01  0.12122218149E+02  0.51100000000E-03 0.  1.
         12    1    4    4    0    0 -0.13371884548E+02  0.28753909182E-01  0.14640305406E+01  0.13451821757E+02  0.00000000000E+00 0. -1.
</event>
<event>
 8    1  0.2460897E-006  0.9118800E+02  0.7816164E-02  0.1184000E+00
        -11   -1    0    0    0    0  0.00000000000E+00  0.00000000000E+00  0.45593999997E+02  0.45594000000E+02  0.51100000000E-03 0. -1.
         11   -1    0    0    0    0 -0.00000000000E+00 -0.00000000000E+00 -0.45593999997E+02  0.45594000000E+02  0.51100000000E-03 0.  1.
         23    2    1    2    0    0  0.17763568394E-14  0.35527136788E-14  0.35527136788E-14  0.91188000000E+02  0.91188000000E+02 0.  0.
    9900012    2    3    3    0    0 -0.70065883708E+01 -0.18231099397E+02  0.31214010348E+02  0.54367086000E+02  0.40000004154E+02 0.  0.
        -12    1    3    3    0    0  0.70065883708E+01  0.18231099397E+02 -0.31214010348E+02  0.36820914000E+02  0.00000000000E+00 0.  1.
         11    1    4    4    0    0  0.61726843422E+01 -0.15208836459E+01 -0.35014026292E+01  0.72577503185E+01  0.51100000000E-03 0. -1.
        -11    1    4    4    0    0 -0.29490561105E+00 -0.10101750092E+02  0.68849657529E+00  0.10129479357E+02  0.51100000000E-03 0.  1.
         12    1    4    4    0    0 -0.12884367102E+02 -0.66084656588E+01  0.34026916402E+02  0.36979856324E+02  0.00000000000E+00 0. -1.
</event>
<event>
 8    1  0.2460897E-006  0.9118800E+02  0.7816164E-02  0.1184000E+00
        -11   -1    0    0    0    0  0.00000000000E+00  0.00000000000E+00  0.45593999997E+02  0.45594000000E+02  0.51100000000E-03 0. -1.
         11   -1    0    0    0    0 -0.00000000000E+00 -0.00000000000E+00 -0.45593999997E+02  0.45594000000E+02  0.51100000000E-03 0.  1.
         23    2    1    2    0    0  0.00000000000E+00  0.00000000000E+00  0.44408920985E-15  0.91188000000E+02  0.91188000000E+02 0.  0.
    9900012    2    3    3    0    0 -0.29028126627E+02  0.22299854936E+02  0.39829936337E+01  0.54367083337E+02  0.39999998083E+02 0.  0.
        -12    1    3    3    0    0  0.29028126627E+02 -0.22299854936E+02 -0.39829936337E+01  0.36820916663E+02  0.00000000000E+00 0.  1.
         11    1    4    4    0    0 -0.19610915796E+01  0.13519867962E+01  0.35184732765E+01  0.42489296228E+01  0.51100000000E-03 0. -1.
        -11    1    4    4    0    0 -0.12481522326E+02  0.14278885698E+02 -0.17661677248E+02  0.25915435937E+02  0.51100000000E-03 0.  1.
        -12    1    4    4    0    0 -0.14585512722E+02  0.66689824417E+01  0.18126197605E+02  0.24202717777E+02  0.00000000000E+00 0.  1.
</event>
<event>
 8    1  0.2460897E-006  0.9118800E+02  0.7816164E-02  0.1184000E+00
        -11   -1    0    0    0    0  0.00000000000E+00  0.00000000000E+00  0.45593999997E+02  0.45594000000E+02  0.51100000000E-03 0.  1.
         11   -1    0    0    0    0 -0.00000000000E+00 -0.00000000000E+00 -0.45593999997E+02  0.45594000000E+02  0.51100000000E-03 0. -1.
         23    2    1    2    0    0  0.35527136788E-14  0.00000000000E+00  0.00000000000E+00  0.91188000000E+02  0.91188000000E+02 0.  0.
    9900012    2    3    3    0    0 -0.28611585739E+02  0.22476668105E+02 -0.56532757090E+01  0.54367041650E+02  0.39999903049E+02 0.  0.
        -12    1    3    3    0    0  0.28611585739E+02 -0.22476668105E+02  0.56532757090E+01  0.36820958350E+02  0.00000000000E+00 0.  1.
         11    1    4    4    0    0  0.18519074437E+01  0.34535841805E+01 -0.18982528653E+01  0.43543276259E+01  0.51100000000E-03 0.  1.
        -11    1    4    4    0    0 -0.17170596171E+02 -0.85309113833E+01  0.13494591034E+00  0.19173524260E+02  0.51100000000E-03 0. -1.
         12    1    4    4    0    0 -0.13292897012E+02  0.27553995307E+02 -0.38899687541E+01  0.30839189764E+02  0.00000000000E+00 0. -1.
</event>
<event>
 8    1  0.2460897E-006  0.9118800E+02  0.7816164E-02  0.1184000E+00
        -11   -1    0    0    0    0  0.00000000000E+00  0.00000000000E+00  0.45593999997E+02  0.45594000000E+02  0.51100000000E-03 0.  1.
         11   -1    0    0    0    0 -0.00000000000E+00 -0.00000000000E+00 -0.45593999997E+02  0.45594000000E+02  0.51100000000E-03 0. -1.
         23    2    1    2    0    0  0.00000000000E+00 -0.17763568394E-14 -0.35527136788E-14  0.91188000000E+02  0.91188000000E+02 0.  0.
    9900012    2    3    3    0    0  0.23188723360E+02  0.12287072838E+02 -0.25828103790E+02  0.54367082094E+02  0.39999995250E+02 0.  0.
        -12    1    3    3    0    0 -0.23188723360E+02 -0.12287072838E+02  0.25828103790E+02  0.36820917906E+02  0.00000000000E+00 0.  1.
         11    1    4    4    0    0  0.16611750376E+02  0.18682524022E+02 -0.20142686771E+02  0.32104747079E+02  0.51100000000E-03 0. -1.
        -11    1    4    4    0    0  0.78531493137E+01  0.37669486299E+01 -0.79277131314E+01  0.11777541844E+02  0.51100000000E-03 0.  1.
         12    1    4    4    0    0 -0.12761763292E+01 -0.10162399813E+02  0.22422961126E+01  0.10484793171E+02  0.00000000000E+00 0. -1.
</event>
<event>
 8    1  0.2460897E-006  0.9118800E+02  0.7816164E-02  0.1184000E+00
        -11   -1    0    0    0    0  0.00000000000E+00  0.00000000000E+00  0.45593999997E+02  0.45594000000E+02  0.51100000000E-03 0.  1.
         11   -1    0    0    0    0 -0.00000000000E+00 -0.00000000000E+00 -0.45593999997E+02  0.45594000000E+02  0.51100000000E-03 0. -1.
         23    2    1    2    0    0  0.00000000000E+00  0.17763568394E-14  0.00000000000E+00  0.91188000000E+02  0.91188000000E+02 0.  0.
    9900012    2    3    3    0    0  0.21994160501E+02  0.15111571957E+02  0.25370808930E+02  0.54367073221E+02  0.39999975021E+02 0.  0.
         12    1    3    3    0    0 -0.21994160501E+02 -0.15111571957E+02 -0.25370808930E+02  0.36820926779E+02  0.00000000000E+00 0. -1.
         11    1    4    4    0    0  0.30830651776E+01  0.15665926111E+02 -0.37741384849E+01  0.16406421102E+02  0.51100000000E-03 0. -1.
        -11    1    4    4    0    0  0.98024467227E+01  0.71241073862E+01  0.11764347431E+02  0.16889071571E+02  0.51100000000E-03 0.  1.
         12    1    4    4    0    0  0.91086486005E+01 -0.76784615410E+01  0.17380599984E+02  0.21071580548E+02  0.00000000000E+00 0. -1.
</event>
<event>
 8    1  0.2460897E-006  0.9118800E+02  0.7816164E-02  0.1184000E+00
        -11   -1    0    0    0    0  0.00000000000E+00  0.00000000000E+00  0.45593999997E+02  0.45594000000E+02  0.51100000000E-03 0.  1.
         11   -1    0    0    0    0 -0.00000000000E+00 -0.00000000000E+00 -0.45593999997E+02  0.45594000000E+02  0.51100000000E-03 0. -1.
         23    2    1    2    0    0  0.00000000000E+00  0.00000000000E+00  0.00000000000E+00  0.91188000000E+02  0.91188000000E+02 0.  0.
    9900012    2    3    3    0    0  0.10171883787E+02  0.28314473052E+02 -0.21227381891E+02  0.54367104493E+02  0.40000046313E+02 0.  0.
        -12    1    3    3    0    0 -0.10171883787E+02 -0.28314473052E+02  0.21227381891E+02  0.36820895507E+02  0.00000000000E+00 0.  1.
         11    1    4    4    0    0  0.11323843010E+02  0.29630871308E+02 -0.72452986480E+01  0.32537859606E+02  0.51100000000E-03 0. -1.
        -11    1    4    4    0    0  0.17079151623E+01 -0.43397074832E-01  0.35924944303E+01  0.39780490194E+01  0.51100000000E-03 0.  1.
         12    1    4    4    0    0 -0.28598743854E+01 -0.12730011813E+01 -0.17574577673E+02  0.17851195868E+02  0.00000000000E+00 0. -1.
</event>
<event>
 8    1  0.2460897E-006  0.9118800E+02  0.7816164E-02  0.1184000E+00
        -11   -1    0    0    0    0  0.00000000000E+00  0.00000000000E+00  0.45593999997E+02  0.45594000000E+02  0.51100000000E-03 0. -1.
         11   -1    0    0    0    0 -0.00000000000E+00 -0.00000000000E+00 -0.45593999997E+02  0.45594000000E+02  0.51100000000E-03 0.  1.
         23    2    1    2    0    0  0.17763568394E-14 -0.35527136788E-14 -0.35527136788E-14  0.91188000000E+02  0.91188000000E+02 0.  0.
    9900012    2    3    3    0    0 -0.15985718238E+02  0.28540591725E+02  0.16901800009E+02  0.54367090083E+02  0.40000013462E+02 0.  0.
        -12    1    3    3    0    0  0.15985718238E+02 -0.28540591725E+02 -0.16901800009E+02  0.36820909917E+02  0.00000000000E+00 0.  1.
         11    1    4    4    0    0  0.85404016616E+01  0.35446802352E+01  0.13766131979E+02  0.16583413654E+02  0.51100000000E-03 0. -1.
        -11    1    4    4    0    0 -0.13775610061E+02  0.16485226782E+02 -0.46997408964E+01  0.21991309633E+02  0.51100000000E-03 0.  1.
         12    1    4    4    0    0 -0.10750509838E+02  0.85106847077E+01  0.78354089273E+01  0.15792366796E+02  0.00000000000E+00 0. -1.
</event>
<event>
 8    1  0.2460897E-006  0.9118800E+02  0.7816164E-02  0.1184000E+00
        -11   -1    0    0    0    0  0.00000000000E+00  0.00000000000E+00  0.45593999997E+02  0.45594000000E+02  0.51100000000E-03 0. -1.
         11   -1    0    0    0    0 -0.00000000000E+00 -0.00000000000E+00 -0.45593999997E+02  0.45594000000E+02  0.51100000000E-03 0.  1.
         23    2    1    2    0    0  0.00000000000E+00 -0.55511151231E-15  0.17763568394E-14  0.91188000000E+02  0.91188000000E+02 0.  0.
    9900012    2    3    3    0    0 -0.34578842712E+02  0.72726644944E+00 -0.12631646772E+02  0.54367030703E+02  0.39999878094E+02 0.  0.
         12    1    3    3    0    0  0.34578842712E+02 -0.72726644944E+00  0.12631646772E+02  0.36820969297E+02  0.00000000000E+00 0. -1.
         11    1    4    4    0    0 -0.33148371020E+01 -0.65083552624E+01  0.92098613845E+01  0.11754504678E+02  0.51100000000E-03 0. -1.
        -11    1    4    4    0    0 -0.34922590457E+01  0.68417115157E+01 -0.71203863651E+00  0.77143949204E+01  0.51100000000E-03 0.  1.
        -12    1    4    4    0    0 -0.27771746564E+02  0.39391019613E+00 -0.21129469520E+02  0.34898131105E+02  0.00000000000E+00 0.  1.
</event>
<event>
 8    1  0.2460897E-006  0.9118800E+02  0.7816164E-02  0.1184000E+00
        -11   -1    0    0    0    0  0.00000000000E+00  0.00000000000E+00  0.45593999997E+02  0.45594000000E+02  0.51100000000E-03 0.  1.
         11   -1    0    0    0    0 -0.00000000000E+00 -0.00000000000E+00 -0.45593999997E+02  0.45594000000E+02  0.51100000000E-03 0. -1.
         23    2    1    2    0    0 -0.35527136788E-14 -0.35527136788E-14  0.00000000000E+00  0.91188000000E+02  0.91188000000E+02 0.  0.
    9900012    2    3    3    0    0  0.21020973979E+02  0.20804727031E+02  0.21933121809E+02  0.54367084121E+02  0.39999999871E+02 0.  0.
         12    1    3    3    0    0 -0.21020973979E+02 -0.20804727031E+02 -0.21933121809E+02  0.36820915879E+02  0.00000000000E+00 0. -1.
         11    1    4    4    0    0 -0.52011516972E+01  0.13336819272E+02 -0.77684707922E+00  0.14336185647E+02  0.51100000000E-03 0. -1.
        -11    1    4    4    0    0  0.31269316953E+01 -0.55396439458E+01  0.32156526042E+01  0.71278172539E+01  0.51100000000E-03 0.  1.
        -12    1    4    4    0    0  0.23095193981E+02  0.13007551705E+02  0.19494316284E+02  0.32903081220E+02  0.00000000000E+00 0.  1.
</event>
<event>
 8    1  0.2460897E-006  0.9118800E+02  0.7816164E-02  0.1184000E+00
        -11   -1    0    0    0    0  0.00000000000E+00  0.00000000000E+00  0.45593999997E+02  0.45594000000E+02  0.51100000000E-03 0.  1.
         11   -1    0    0    0    0 -0.00000000000E+00 -0.00000000000E+00 -0.45593999997E+02  0.45594000000E+02  0.51100000000E-03 0. -1.
         23    2    1    2    0    0  0.88817841970E-15 -0.35527136788E-14 -0.35527136788E-14  0.91188000000E+02  0.91188000000E+02 0.  0.
    9900012    2    3    3    0    0  0.72541519320E+01 -0.30434697923E+02 -0.19413545126E+02  0.54367091643E+02  0.40000017018E+02 0.  0.
         12    1    3    3    0    0 -0.72541519320E+01  0.30434697923E+02  0.19413545126E+02  0.36820908357E+02  0.00000000000E+00 0. -1.
         11    1    4    4    0    0  0.17091942117E+01 -0.49702865106E+01  0.99054704147E+01  0.11213538124E+02  0.51100000000E-03 0. -1.
        -11    1    4    4    0    0 -0.28683849394E+00 -0.72880203033E+01  0.96306405172E+00  0.73569700890E+01  0.51100000000E-03 0.  1.
         12    1    4    4    0    0  0.58317962142E+01 -0.18176391109E+02 -0.30282079592E+02  0.35796583430E+02  0.00000000000E+00 0. -1.
</event>
<event>
 8    1  0.2460897E-006  0.9118800E+02  0.7816164E-02  0.1184000E+00
        -11   -1    0    0    0    0  0.00000000000E+00  0.00000000000E+00  0.45593999997E+02  0.45594000000E+02  0.51100000000E-03 0. -1.
         11   -1    0    0    0    0 -0.00000000000E+00 -0.00000000000E+00 -0.45593999997E+02  0.45594000000E+02  0.51100000000E-03 0.  1.
         23    2    1    2    0    0  0.11102230246E-14  0.00000000000E+00  0.35527136788E-14  0.91188000000E+02  0.91188000000E+02 0.  0.
    9900012    2    3    3    0    0 -0.96882259611E+00  0.20826915082E+02  0.30349299504E+02  0.54367095754E+02  0.40000026391E+02 0.  0.
        -12    1    3    3    0    0  0.96882259611E+00 -0.20826915082E+02 -0.30349299504E+02  0.36820904246E+02  0.00000000000E+00 0.  1.
         11    1    4    4    0    0 -0.11223424546E+01 -0.41060135612E+01 -0.24136924180E+01  0.48933537886E+01  0.51100000000E-03 0. -1.
        -11    1    4    4    0    0  0.10997005487E+02  0.11871106559E+02  0.50090256435E+01  0.16939528883E+02  0.51100000000E-03 0.  1.
         12    1    4    4    0    0 -0.10843485628E+02  0.13061822085E+02  0.27753966279E+02  0.32534213083E+02  0.00000000000E+00 0. -1.
</event>
<event>
 8    1  0.2460897E-006  0.9118800E+02  0.7816164E-02  0.1184000E+00
        -11   -1    0    0    0    0  0.00000000000E+00  0.00000000000E+00  0.45593999997E+02  0.45594000000E+02  0.51100000000E-03 0.  1.
         11   -1    0    0    0    0 -0.00000000000E+00 -0.00000000000E+00 -0.45593999997E+02  0.45594000000E+02  0.51100000000E-03 0. -1.
         23    2    1    2    0    0  0.00000000000E+00  0.66613381478E-15  0.00000000000E+00  0.91188000000E+02  0.91188000000E+02 0.  0.
    9900012    2    3    3    0    0 -0.26507901072E+02  0.17459300408E+01  0.25496312957E+02  0.54367094724E+02  0.40000024042E+02 0.  0.
         12    1    3    3    0    0  0.26507901072E+02 -0.17459300408E+01 -0.25496312957E+02  0.36820905276E+02  0.00000000000E+00 0. -1.
         11    1    4    4    0    0 -0.16016293382E+02 -0.22670423114E+01  0.51236590048E+01  0.16967999776E+02  0.51100000000E-03 0. -1.
        -11    1    4    4    0    0 -0.11204806963E+02  0.15410797709E+02  0.83065610947E+01  0.20785556105E+02  0.51100000000E-03 0.  1.
         12    1    4    4    0    0  0.71319927302E+00 -0.11397825356E+02  0.12066092857E+02  0.16613538843E+02  0.00000000000E+00 0. -1.
</event>
<event>
 8    1  0.2460897E-006  0.9118800E+02  0.7816164E-02  0.1184000E+00
        -11   -1    0    0    0    0  0.00000000000E+00  0.00000000000E+00  0.45593999997E+02  0.45594000000E+02  0.51100000000E-03 0. -1.
         11   -1    0    0    0    0 -0.00000000000E+00 -0.00000000000E+00 -0.45593999997E+02  0.45594000000E+02  0.51100000000E-03 0.  1.
         23    2    1    2    0    0  0.71054273576E-14 -0.17763568394E-14  0.35527136788E-14  0.91188000000E+02  0.91188000000E+02 0.  0.
    9900012    2    3    3    0    0  0.16386046484E+02 -0.11443352626E+02  0.30924501271E+02  0.54367114383E+02  0.40000068860E+02 0.  0.
        -12    1    3    3    0    0 -0.16386046484E+02  0.11443352626E+02 -0.30924501271E+02  0.36820885617E+02  0.00000000000E+00 0.  1.
         11    1    4    4    0    0  0.25101978603E+02 -0.61602507566E+01  0.19391838176E+02  0.32312558042E+02  0.51100000000E-03 0. -1.
        -11    1    4    4    0    0 -0.11025601154E+02 -0.36297455136E+01  0.14073950246E+02  0.18243218167E+02  0.51100000000E-03 0.  1.
        -12    1    4    4    0    0  0.23096690362E+01 -0.16533563559E+01 -0.25412871502E+01  0.38113381740E+01  0.00000000000E+00 0.  1.
</event>
<event>
 8    1  0.2460897E-006  0.9118800E+02  0.7816164E-02  0.1184000E+00
        -11   -1    0    0    0    0  0.00000000000E+00  0.00000000000E+00  0.45593999997E+02  0.45594000000E+02  0.51100000000E-03 0.  1.
         11   -1    0    0    0    0 -0.00000000000E+00 -0.00000000000E+00 -0.45593999997E+02  0.45594000000E+02  0.51100000000E-03 0. -1.
         23    2    1    2    0    0  0.00000000000E+00  0.00000000000E+00  0.35527136788E-14  0.91188000000E+02  0.91188000000E+02 0.  0.
    9900012    2    3    3    0    0  0.23206566894E+02 -0.72130099956E+01 -0.27662362695E+02  0.54367101449E+02  0.40000039374E+02 0.  0.
        -12    1    3    3    0    0 -0.23206566894E+02  0.72130099956E+01  0.27662362695E+02  0.36820898551E+02  0.00000000000E+00 0.  1.
         11    1    4    4    0    0  0.20294740396E+01 -0.26026362710E+01 -0.37138168637E+01  0.49683917312E+01  0.51100000000E-03 0. -1.
        -11    1    4    4    0    0  0.30404658181E+01 -0.12877870145E+02 -0.26188176727E+02  0.29341175376E+02  0.51100000000E-03 0.  1.
        -12    1    4    4    0    0  0.18136627037E+02  0.82674964207E+01  0.22396308964E+01  0.20057534342E+02  0.00000000000E+00 0.  1.
</event>
<event>
 8    1  0.2460897E-006  0.9118800E+02  0.7816164E-02  0.1184000E+00
        -11   -1    0    0    0    0  0.00000000000E+00  0.00000000000E+00  0.45593999997E+02  0.45594000000E+02  0.51100000000E-03 0.  1.
         11   -1    0    0    0    0 -0.00000000000E+00 -0.00000000000E+00 -0.45593999997E+02  0.45594000000E+02  0.51100000000E-03 0. -1.
         23    2    1    2    0    0 -0.35527136788E-14  0.00000000000E+00 -0.17763568394E-14  0.91188000000E+02  0.91188000000E+02 0.  0.
    9900012    2    3    3    0    0 -0.26327049791E+02  0.22052668389E+02 -0.13279582365E+02  0.54367067888E+02  0.39999962865E+02 0.  0.
        -12    1    3    3    0    0  0.26327049791E+02 -0.22052668389E+02  0.13279582365E+02  0.36820932112E+02  0.00000000000E+00 0.  1.
         11    1    4    4    0    0 -0.81778754276E+01 -0.61288126934E+01 -0.51017908476E+01  0.11422270425E+02  0.51100000000E-03 0. -1.
        -11    1    4    4    0    0 -0.19301517352E+02  0.32123340843E+02 -0.94430036311E+01  0.38647482671E+02  0.51100000000E-03 0.  1.
        -12    1    4    4    0    0  0.11523429891E+01 -0.39418597601E+01  0.12652121135E+01  0.42973147924E+01  0.00000000000E+00 0.  1.
</event>
<event>
 8    1  0.2460897E-006  0.9118800E+02  0.7816164E-02  0.1184000E+00
        -11   -1    0    0    0    0  0.00000000000E+00  0.00000000000E+00  0.45593999997E+02  0.45594000000E+02  0.51100000000E-03 0. -1.
         11   -1    0    0    0    0 -0.00000000000E+00 -0.00000000000E+00 -0.45593999997E+02  0.45594000000E+02  0.51100000000E-03 0.  1.
         23    2    1    2    0    0 -0.17763568394E-14 -0.71054273576E-14 -0.17763568394E-14  0.91188000000E+02  0.91188000000E+02 0.  0.
    9900012    2    3    3    0    0 -0.10303088240E+02  0.33578471766E+02  0.11050052811E+02  0.54367203423E+02  0.40000271843E+02 0.  0.
        -12    1    3    3    0    0  0.10303088240E+02 -0.33578471766E+02 -0.11050052811E+02  0.36820796577E+02  0.00000000000E+00 0.  1.
         11    1    4    4    0    0  0.48593901820E+01 -0.61502087409E+01  0.52805866816E+01  0.94511023940E+01  0.51100000000E-03 0. -1.
        -11    1    4    4    0    0 -0.12025445622E+02  0.15319669395E+02  0.57483112343E+01  0.20306321555E+02  0.51100000000E-03 0.  1.
         12    1    4    4    0    0 -0.31370328004E+01  0.24409011112E+02  0.21154895130E-01  0.24609779474E+02  0.00000000000E+00 0. -1.
</event>
<event>
 8    1  0.2460897E-006  0.9118800E+02  0.7816164E-02  0.1184000E+00
        -11   -1    0    0    0    0  0.00000000000E+00  0.00000000000E+00  0.45593999997E+02  0.45594000000E+02  0.51100000000E-03 0.  1.
         11   -1    0    0    0    0 -0.00000000000E+00 -0.00000000000E+00 -0.45593999997E+02  0.45594000000E+02  0.51100000000E-03 0. -1.
         23    2    1    2    0    0  0.00000000000E+00  0.00000000000E+00  0.35527136788E-14  0.91188000000E+02  0.91188000000E+02 0.  0.
    9900012    2    3    3    0    0  0.28200376460E+02 -0.10727506268E+02  0.21105433066E+02  0.54367083008E+02  0.39999997333E+02 0.  0.
         12    1    3    3    0    0 -0.28200376460E+02  0.10727506268E+02 -0.21105433066E+02  0.36820916992E+02  0.00000000000E+00 0. -1.
         11    1    4    4    0    0  0.76375426221E+01  0.34258009417E+01 -0.90824594300E+01  0.12351487318E+02  0.51100000000E-03 0. -1.
        -11    1    4    4    0    0  0.93016780837E+01 -0.61260102647E+01  0.30350869796E+01  0.11543871542E+02  0.51100000000E-03 0.  1.
         12    1    4    4    0    0  0.11261155754E+02 -0.80272969449E+01  0.27152805517E+02  0.30471724149E+02  0.00000000000E+00 0. -1.
</event>
<event>
 8    1  0.2460897E-006  0.9118800E+02  0.7816164E-02  0.1184000E+00
        -11   -1    0    0    0    0  0.00000000000E+00  0.00000000000E+00  0.45593999997E+02  0.45594000000E+02  0.51100000000E-03 0.  1.
         11   -1    0    0    0    0 -0.00000000000E+00 -0.00000000000E+00 -0.45593999997E+02  0.45594000000E+02  0.51100000000E-03 0. -1.
         23    2    1    2    0    0  0.17763568394E-14 -0.71054273576E-14 -0.66613381478E-15  0.91188000000E+02  0.91188000000E+02 0.  0.
    9900012    2    3    3    0    0  0.12611492976E+02  0.34567537116E+02 -0.13479193336E+01  0.54367064870E+02  0.39999955983E+02 0.  0.
         12    1    3    3    0    0 -0.12611492976E+02 -0.34567537116E+02  0.13479193336E+01  0.36820935130E+02  0.00000000000E+00 0. -1.
         11    1    4    4    0    0 -0.78309833731E+01  0.26887757796E+02  0.58497125501E+00  0.28011033745E+02  0.51100000000E-03 0.  1.
        -11    1    4    4    0    0  0.17622925792E+01  0.41302144722E-01 -0.55762437433E+01  0.58482369607E+01  0.51100000000E-03 0. -1.
        -12    1    4    4    0    0  0.18680183770E+02  0.76384771756E+01  0.36433531547E+01  0.20507794164E+02  0.00000000000E+00 0.  1.
</event>
<event>
 8    1  0.2460897E-006  0.9118800E+02  0.7816164E-02  0.1184000E+00
        -11   -1    0    0    0    0  0.00000000000E+00  0.00000000000E+00  0.45593999997E+02  0.45594000000E+02  0.51100000000E-03 0.  1.
         11   -1    0    0    0    0 -0.00000000000E+00 -0.00000000000E+00 -0.45593999997E+02  0.45594000000E+02  0.51100000000E-03 0. -1.
         23    2    1    2    0    0  0.71054273576E-14  0.66613381478E-15  0.00000000000E+00  0.91188000000E+02  0.91188000000E+02 0.  0.
    9900012    2    3    3    0    0  0.36802565150E+02  0.76023256746E+00 -0.87975302120E+00  0.54367072248E+02  0.39999972803E+02 0.  0.
        -12    1    3    3    0    0 -0.36802565150E+02 -0.76023256746E+00  0.87975302120E+00  0.36820927752E+02  0.00000000000E+00 0.  1.
         11    1    4    4    0    0  0.14144327998E+02 -0.11711408495E+02  0.10363098007E+01  0.18392744268E+02  0.51100000000E-03 0. -1.
        -11    1    4    4    0    0 -0.54995391927E+01  0.18349507888E+01 -0.81286845044E+00  0.58542916829E+01  0.51100000000E-03 0.  1.
         12    1    4    4    0    0  0.28157776345E+02  0.10636690274E+02 -0.11031943715E+01  0.30120036296E+02  0.00000000000E+00 0. -1.
</event>
<event>
 8    1  0.2460897E-006  0.9118800E+02  0.7816164E-02  0.1184000E+00
        -11   -1    0    0    0    0  0.00000000000E+00  0.00000000000E+00  0.45593999997E+02  0.45594000000E+02  0.51100000000E-03 0.  1.
         11   -1    0    0    0    0 -0.00000000000E+00 -0.00000000000E+00 -0.45593999997E+02  0.45594000000E+02  0.51100000000E-03 0. -1.
         23    2    1    2    0    0 -0.10658141036E-13 -0.35527136788E-14  0.88817841970E-15  0.91188000000E+02  0.91188000000E+02 0.  0.
    9900012    2    3    3    0    0 -0.29826920127E+02  0.20475762568E+02  0.68468301833E+01  0.54367067088E+02  0.39999961040E+02 0.  0.
        -12    1    3    3    0    0  0.29826920127E+02 -0.20475762568E+02 -0.68468301833E+01  0.36820932912E+02  0.00000000000E+00 0.  1.
         11    1    4    4    0    0  0.31973990355E+01  0.79311161717E+01 -0.25129102225E+01  0.89129502618E+01  0.51100000000E-03 0. -1.
        -11    1    4    4    0    0  0.40347734544E+01  0.29066885833E+01  0.47656612161E+01  0.68876528975E+01  0.51100000000E-03 0.  1.
         12    1    4    4    0    0 -0.37059092616E+02  0.96379578127E+01  0.45940791897E+01  0.38566463929E+02  0.00000000000E+00 0. -1.
</event>
<event>
 8    1  0.2460897E-006  0.9118800E+02  0.7816164E-02  0.1184000E+00
        -11   -1    0    0    0    0  0.00000000000E+00  0.00000000000E+00  0.45593999997E+02  0.45594000000E+02  0.51100000000E-03 0.  1.
         11   -1    0    0    0    0 -0.00000000000E+00 -0.00000000000E+00 -0.45593999997E+02  0.45594000000E+02  0.51100000000E-03 0. -1.
         23    2    1    2    0    0  0.88817841970E-15  0.00000000000E+00  0.00000000000E+00  0.91188000000E+02  0.91188000000E+02 0.  0.
    9900012    2    3    3    0    0  0.33942620183E+01  0.16834488854E+02 -0.32570829038E+02  0.54367082930E+02  0.39999997156E+02 0.  0.
        -12    1    3    3    0    0 -0.33942620183E+01 -0.16834488854E+02  0.32570829038E+02  0.36820917070E+02  0.00000000000E+00 0.  1.
         11    1    4    4    0    0 -0.43869031667E+01 -0.43700519722E+01 -0.27559390083E+02  0.28246455629E+02  0.51100000000E-03 0. -1.
        -11    1    4    4    0    0  0.94315921844E+00  0.14281239862E+01  0.32104090298E+01  0.36381058026E+01  0.51100000000E-03 0.  1.
         12    1    4    4    0    0  0.68380059666E+01  0.19776416840E+02 -0.82218479857E+01  0.22482521498E+02  0.00000000000E+00 0. -1.
</event>
<event>
 8    1  0.2460897E-006  0.9118800E+02  0.7816164E-02  0.1184000E+00
        -11   -1    0    0    0    0  0.00000000000E+00  0.00000000000E+00  0.45593999997E+02  0.45594000000E+02  0.51100000000E-03 0.  1.
         11   -1    0    0    0    0 -0.00000000000E+00 -0.00000000000E+00 -0.45593999997E+02  0.45594000000E+02  0.51100000000E-03 0. -1.
         23    2    1    2    0    0  0.00000000000E+00 -0.17763568394E-14  0.00000000000E+00  0.91188000000E+02  0.91188000000E+02 0.  0.
    9900012    2    3    3    0    0 -0.22556374002E+01  0.15740502439E+02 -0.33210382330E+02  0.54367071011E+02  0.39999969984E+02 0.  0.
        -12    1    3    3    0    0  0.22556374002E+01 -0.15740502439E+02  0.33210382330E+02  0.36820928989E+02  0.00000000000E+00 0.  1.
         11    1    4    4    0    0  0.40740741971E+01 -0.67484996146E+00 -0.16485078843E+02  0.16994449910E+02  0.51100000000E-03 0. -1.
        -11    1    4    4    0    0 -0.14494686648E+02  0.72382875549E+01 -0.18904617967E+02  0.24897255441E+02  0.51100000000E-03 0.  1.
        -12    1    4    4    0    0  0.81649750506E+01  0.91770648452E+01  0.21793144803E+01  0.12475365660E+02  0.00000000000E+00 0.  1.
</event>
<event>
 8    1  0.2460897E-006  0.9118800E+02  0.7816164E-02  0.1184000E+00
        -11   -1    0    0    0    0  0.00000000000E+00  0.00000000000E+00  0.45593999997E+02  0.45594000000E+02  0.51100000000E-03 0. -1.
         11   -1    0    0    0    0 -0.00000000000E+00 -0.00000000000E+00 -0.45593999997E+02  0.45594000000E+02  0.51100000000E-03 0.  1.
         23    2    1    2    0    0  0.00000000000E+00  0.71054273576E-14  0.00000000000E+00  0.91188000000E+02  0.91188000000E+02 0.  0.
    9900012    2    3    3    0    0  0.17139284467E+02  0.32308737804E+02 -0.42627079612E+01  0.54367078098E+02  0.39999986140E+02 0.  0.
         12    1    3    3    0    0 -0.17139284467E+02 -0.32308737804E+02  0.42627079612E+01  0.36820921902E+02  0.00000000000E+00 0. -1.
         11    1    4    4    0    0  0.13323397325E+02  0.10180339497E+02  0.26150718354E+01  0.16970292558E+02  0.51100000000E-03 0. -1.
        -11    1    4    4    0    0  0.94809864355E+01  0.96789290359E+01  0.91325940551E+01  0.16339371025E+02  0.51100000000E-03 0.  1.
        -12    1    4    4    0    0 -0.56650992932E+01  0.12449469271E+02 -0.16010373852E+02  0.21057414514E+02  0.00000000000E+00 0.  1.
</event>
<event>
 8    1  0.2460897E-006  0.9118800E+02  0.7816164E-02  0.1184000E+00
        -11   -1    0    0    0    0  0.00000000000E+00  0.00000000000E+00  0.45593999997E+02  0.45594000000E+02  0.51100000000E-03 0. -1.
         11   -1    0    0    0    0 -0.00000000000E+00 -0.00000000000E+00 -0.45593999997E+02  0.45594000000E+02  0.51100000000E-03 0.  1.
         23    2    1    2    0    0  0.35527136788E-14  0.00000000000E+00  0.00000000000E+00  0.91188000000E+02  0.91188000000E+02 0.  0.
    9900012    2    3    3    0    0  0.27543344361E+02  0.10151537833E+02 -0.22228097101E+02  0.54367111367E+02  0.40000061984E+02 0.  0.
         12    1    3    3    0    0 -0.27543344361E+02 -0.10151537833E+02  0.22228097101E+02  0.36820888633E+02  0.00000000000E+00 0. -1.
         11    1    4    4    0    0 -0.58861717331E+00 -0.94042685371E+01 -0.13258737496E+02  0.16265941631E+02  0.51100000000E-03 0. -1.
        -11    1    4    4    0    0  0.46576232756E+01 -0.17417110083E+01 -0.31191008425E+01  0.58699064848E+01  0.51100000000E-03 0.  1.
         12    1    4    4    0    0  0.23474338259E+02  0.21297517379E+02 -0.58502587620E+01  0.32231263251E+02  0.00000000000E+00 0. -1.
</event>
<event>
 8    1  0.2460897E-006  0.9118800E+02  0.7816164E-02  0.1184000E+00
        -11   -1    0    0    0    0  0.00000000000E+00  0.00000000000E+00  0.45593999997E+02  0.45594000000E+02  0.51100000000E-03 0. -1.
         11   -1    0    0    0    0 -0.00000000000E+00 -0.00000000000E+00 -0.45593999997E+02  0.45594000000E+02  0.51100000000E-03 0.  1.
         23    2    1    2    0    0 -0.88817841970E-15  0.00000000000E+00  0.88817841970E-15  0.91188000000E+02  0.91188000000E+02 0.  0.
    9900012    2    3    3    0    0 -0.28383537007E+01 -0.36595574821E+02  0.29120678689E+01  0.54367184047E+02  0.40000227671E+02 0.  0.
        -12    1    3    3    0    0  0.28383537007E+01  0.36595574821E+02 -0.29120678689E+01  0.36820815953E+02  0.00000000000E+00 0.  1.
         11    1    4    4    0    0  0.40453798831E+01 -0.36095714203E+02  0.72921921838E+01  0.37046480930E+02  0.51100000000E-03 0. -1.
        -11    1    4    4    0    0  0.11604150535E+00  0.23720227004E+01  0.48414208596E+01  0.53925238547E+01  0.51100000000E-03 0.  1.
        -12    1    4    4    0    0 -0.69997750892E+01 -0.28718833186E+01 -0.92215451746E+01  0.11928179262E+02  0.00000000000E+00 0.  1.
</event>
<event>
 8    1  0.2460897E-006  0.9118800E+02  0.7816164E-02  0.1184000E+00
        -11   -1    0    0    0    0  0.00000000000E+00  0.00000000000E+00  0.45593999997E+02  0.45594000000E+02  0.51100000000E-03 0.  1.
         11   -1    0    0    0    0 -0.00000000000E+00 -0.00000000000E+00 -0.45593999997E+02  0.45594000000E+02  0.51100000000E-03 0. -1.
         23    2    1    2    0    0 -0.35527136788E-14  0.00000000000E+00  0.00000000000E+00  0.91188000000E+02  0.91188000000E+02 0.  0.
    9900012    2    3    3    0    0 -0.14821466264E+02 -0.30658389345E+02  0.14005953053E+02  0.54367089903E+02  0.40000013051E+02 0.  0.
         12    1    3    3    0    0  0.14821466264E+02  0.30658389345E+02 -0.14005953053E+02  0.36820910097E+02  0.00000000000E+00 0. -1.
         11    1    4    4    0    0 -0.70570849952E+01 -0.61065748619E+01 -0.92964803348E+01  0.13172594735E+02  0.51100000000E-03 0. -1.
        -11    1    4    4    0    0  0.34341118406E+01 -0.77866873777E+00 -0.25370731811E+01  0.43400679401E+01  0.51100000000E-03 0.  1.
        -12    1    4    4    0    0 -0.11198493110E+02 -0.23773145746E+02  0.25839506569E+02  0.36854427228E+02  0.00000000000E+00 0.  1.
</event>
<event>
 8    1  0.2460897E-006  0.9118800E+02  0.7816164E-02  0.1184000E+00
        -11   -1    0    0    0    0  0.00000000000E+00  0.00000000000E+00  0.45593999997E+02  0.45594000000E+02  0.51100000000E-03 0. -1.
         11   -1    0    0    0    0 -0.00000000000E+00 -0.00000000000E+00 -0.45593999997E+02  0.45594000000E+02  0.51100000000E-03 0.  1.
         23    2    1    2    0    0 -0.88817841970E-15 -0.35527136788E-14 -0.35527136788E-14  0.91188000000E+02  0.91188000000E+02 0.  0.
    9900012    2    3    3    0    0 -0.42502738952E+01 -0.18074028951E+02  0.31796994176E+02  0.54367025144E+02  0.39999865421E+02 0.  0.
        -12    1    3    3    0    0  0.42502738952E+01  0.18074028951E+02 -0.31796994176E+02  0.36820974856E+02  0.00000000000E+00 0.  1.
         11    1    4    4    0    0  0.17928914565E+01 -0.43854411054E+01 -0.35530945728E+01  0.59220802737E+01  0.51100000000E-03 0. -1.
        -11    1    4    4    0    0 -0.91946390885E+01  0.42529145004E+01  0.18294822458E+01  0.10294448760E+02  0.51100000000E-03 0.  1.
         12    1    4    4    0    0  0.31514737368E+01 -0.17941502346E+02  0.33520606503E+02  0.38150496111E+02  0.00000000000E+00 0. -1.
</event>
<event>
 8    1  0.2460897E-006  0.9118800E+02  0.7816164E-02  0.1184000E+00
        -11   -1    0    0    0    0  0.00000000000E+00  0.00000000000E+00  0.45593999997E+02  0.45594000000E+02  0.51100000000E-03 0.  1.
         11   -1    0    0    0    0 -0.00000000000E+00 -0.00000000000E+00 -0.45593999997E+02  0.45594000000E+02  0.51100000000E-03 0. -1.
         23    2    1    2    0    0  0.17763568394E-14  0.00000000000E+00  0.88817841970E-15  0.91188000000E+02  0.91188000000E+02 0.  0.
    9900012    2    3    3    0    0  0.41236443689E+01  0.35820205358E+02  0.74625852507E+01  0.54367058494E+02  0.39999941449E+02 0.  0.
         12    1    3    3    0    0 -0.41236443689E+01 -0.35820205358E+02 -0.74625852507E+01  0.36820941506E+02  0.00000000000E+00 0. -1.
         11    1    4    4    0    0  0.11547553384E+02 -0.18278882729E+01 -0.37581037006E+01  0.12280493003E+02  0.51100000000E-03 0. -1.
        -11    1    4    4    0    0 -0.82502743382E+01  0.25844823477E+02  0.22206210870E+01  0.27220453440E+02  0.51100000000E-03 0.  1.
        -12    1    4    4    0    0  0.82636532263E+00  0.11803270154E+02  0.90000678643E+01  0.14866112052E+02  0.00000000000E+00 0.  1.
</event>
<event>
 8    1  0.2460897E-006  0.9118800E+02  0.7816164E-02  0.1184000E+00
        -11   -1    0    0    0    0  0.00000000000E+00  0.00000000000E+00  0.45593999997E+02  0.45594000000E+02  0.51100000000E-03 0. -1.
         11   -1    0    0    0    0 -0.00000000000E+00 -0.00000000000E+00 -0.45593999997E+02  0.45594000000E+02  0.51100000000E-03 0.  1.
         23    2    1    2    0    0 -0.35527136788E-14  0.35527136788E-14 -0.35527136788E-14  0.91188000000E+02  0.91188000000E+02 0.  0.
    9900012    2    3    3    0    0  0.30107619798E+02 -0.11115325379E+02  0.18048964891E+02  0.54367022802E+02  0.39999860081E+02 0.  0.
        -12    1    3    3    0    0 -0.30107619798E+02  0.11115325379E+02 -0.18048964891E+02  0.36820977198E+02  0.00000000000E+00 0.  1.
         11    1    4    4    0    0  0.75041800537E+01  0.59255213702E+01 -0.19344622574E+01  0.97553403976E+01  0.51100000000E-03 0. -1.
        -11    1    4    4    0    0  0.14857591294E+01  0.11157808610E+01  0.16431412243E+02  0.16536134847E+02  0.51100000000E-03 0.  1.
         12    1    4    4    0    0  0.21117680615E+02 -0.18156627610E+02  0.35520149051E+01  0.28075547557E+02  0.00000000000E+00 0. -1.
</event>
<event>
 8    1  0.2460897E-006  0.9118800E+02  0.7816164E-02  0.1184000E+00
        -11   -1    0    0    0    0  0.00000000000E+00  0.00000000000E+00  0.45593999997E+02  0.45594000000E+02  0.51100000000E-03 0.  1.
         11   -1    0    0    0    0 -0.00000000000E+00 -0.00000000000E+00 -0.45593999997E+02  0.45594000000E+02  0.51100000000E-03 0. -1.
         23    2    1    2    0    0  0.00000000000E+00 -0.22204460493E-15  0.00000000000E+00  0.91188000000E+02  0.91188000000E+02 0.  0.
    9900012    2    3    3    0    0 -0.26818831947E+02 -0.97620779173E+00 -0.25210666116E+02  0.54367076401E+02  0.39999982271E+02 0.  0.
        -12    1    3    3    0    0  0.26818831947E+02  0.97620779173E+00  0.25210666116E+02  0.36820923599E+02  0.00000000000E+00 0.  1.
         11    1    4    4    0    0 -0.84606726534E+00  0.26885241829E+01 -0.12484022761E+02  0.12798234904E+02  0.51100000000E-03 0. -1.
        -11    1    4    4    0    0 -0.19014540692E+02 -0.71570856581E+01  0.60859920109E+01  0.21208864464E+02  0.51100000000E-03 0.  1.
        -12    1    4    4    0    0 -0.69582239897E+01  0.34923536835E+01 -0.18812635366E+02  0.20359977033E+02  0.00000000000E+00 0.  1.
</event>
<event>
 8    1  0.2460897E-006  0.9118800E+02  0.7816164E-02  0.1184000E+00
        -11   -1    0    0    0    0  0.00000000000E+00  0.00000000000E+00  0.45593999997E+02  0.45594000000E+02  0.51100000000E-03 0. -1.
         11   -1    0    0    0    0 -0.00000000000E+00 -0.00000000000E+00 -0.45593999997E+02  0.45594000000E+02  0.51100000000E-03 0.  1.
         23    2    1    2    0    0  0.00000000000E+00  0.00000000000E+00 -0.88817841970E-15  0.91188000000E+02  0.91188000000E+02 0.  0.
    9900012    2    3    3    0    0  0.35331379497E+02  0.87988758759E+01  0.54820908916E+01  0.54367083194E+02  0.39999997758E+02 0.  0.
        -12    1    3    3    0    0 -0.35331379497E+02 -0.87988758759E+01 -0.54820908916E+01  0.36820916806E+02  0.00000000000E+00 0.  1.
         11    1    4    4    0    0  0.71526390158E+01  0.41573027948E+01  0.46628755758E+01  0.94966215211E+01  0.51100000000E-03 0. -1.
        -11    1    4    4    0    0  0.10294124451E+02 -0.68638491883E+01  0.14898660139E+02  0.19366246360E+02  0.51100000000E-03 0.  1.
        -12    1    4    4    0    0  0.17884616031E+02  0.11505422269E+02 -0.14079444824E+02  0.25504215313E+02  0.00000000000E+00 0.  1.
</event>
<event>
 8    1  0.2460897E-006  0.9118800E+02  0.7816164E-02  0.1184000E+00
        -11   -1    0    0    0    0  0.00000000000E+00  0.00000000000E+00  0.45593999997E+02  0.45594000000E+02  0.51100000000E-03 0. -1.
         11   -1    0    0    0    0 -0.00000000000E+00 -0.00000000000E+00 -0.45593999997E+02  0.45594000000E+02  0.51100000000E-03 0.  1.
         23    2    1    2    0    0  0.00000000000E+00 -0.35527136788E-14  0.00000000000E+00  0.91188000000E+02  0.91188000000E+02 0.  0.
    9900012    2    3    3    0    0 -0.35307053366E+02  0.66888964105E+01 -0.80280194517E+01  0.54367103095E+02  0.40000043126E+02 0.  0.
         12    1    3    3    0    0  0.35307053366E+02 -0.66888964105E+01  0.80280194517E+01  0.36820896905E+02  0.00000000000E+00 0. -1.
         11    1    4    4    0    0 -0.12844083202E+02  0.15355761105E+02 -0.17209129444E+01  0.20093068806E+02  0.51100000000E-03 0.  1.
        -11    1    4    4    0    0 -0.62140964034E+01 -0.12746693046E+02  0.38348505452E+01  0.14690107443E+02  0.51100000000E-03 0. -1.
         12    1    4    4    0    0 -0.16248873761E+02  0.40798283510E+01 -0.10141957053E+02  0.19583926846E+02  0.00000000000E+00 0. -1.
</event>
<event>
 8    1  0.2460897E-006  0.9118800E+02  0.7816164E-02  0.1184000E+00
        -11   -1    0    0    0    0  0.00000000000E+00  0.00000000000E+00  0.45593999997E+02  0.45594000000E+02  0.51100000000E-03 0. -1.
         11   -1    0    0    0    0 -0.00000000000E+00 -0.00000000000E+00 -0.45593999997E+02  0.45594000000E+02  0.51100000000E-03 0.  1.
         23    2    1    2    0    0  0.00000000000E+00  0.44408920985E-14  0.00000000000E+00  0.91188000000E+02  0.91188000000E+02 0.  0.
    9900012    2    3    3    0    0  0.49191959686E+01  0.75220254522E+01  0.35707145469E+02  0.54367087553E+02  0.40000007695E+02 0.  0.
        -12    1    3    3    0    0 -0.49191959686E+01 -0.75220254522E+01 -0.35707145469E+02  0.36820912447E+02  0.00000000000E+00 0.  1.
         11    1    4    4    0    0  0.39726899696E+01  0.19932013869E+02  0.15592760338E+02  0.25616432571E+02  0.51100000000E-03 0. -1.
        -11    1    4    4    0    0 -0.77357264289E+00 -0.15951664282E+02  0.12891122097E+02  0.20524011236E+02  0.51100000000E-03 0.  1.
        -12    1    4    4    0    0  0.17200786419E+01  0.35416758657E+01  0.72232630335E+01  0.82266437459E+01  0.00000000000E+00 0.  1.
</event>
<event>
 8    1  0.2460897E-006  0.9118800E+02  0.7816164E-02  0.1184000E+00
        -11   -1    0    0    0    0  0.00000000000E+00  0.00000000000E+00  0.45593999997E+02  0.45594000000E+02  0.51100000000E-03 0.  1.
         11   -1    0    0    0    0 -0.00000000000E+00 -0.00000000000E+00 -0.45593999997E+02  0.45594000000E+02  0.51100000000E-03 0. -1.
         23    2    1    2    0    0  0.88817841970E-15  0.17763568394E-14  0.00000000000E+00  0.91188000000E+02  0.91188000000E+02 0.  0.
    9900012    2    3    3    0    0  0.71748261080E+01 -0.13838693056E+02 -0.33358539722E+02  0.54367085732E+02  0.40000003543E+02 0.  0.
        -12    1    3    3    0    0 -0.71748261080E+01  0.13838693056E+02  0.33358539722E+02  0.36820914268E+02  0.00000000000E+00 0.  1.
         11    1    4    4    0    0 -0.47109316185E+01 -0.12782607826E+01 -0.47574462060E+01  0.68161662250E+01  0.51100000000E-03 0.  1.
        -11    1    4    4    0    0  0.50660375450E+01 -0.88111435227E+01  0.61898208786E+01  0.11900204593E+02  0.51100000000E-03 0. -1.
         12    1    4    4    0    0  0.68197201815E+01 -0.37492887507E+01 -0.34790914394E+02  0.35650714914E+02  0.00000000000E+00 0. -1.
</event>
<event>
 8    1  0.2460897E-006  0.9118800E+02  0.7816164E-02  0.1184000E+00
        -11   -1    0    0    0    0  0.00000000000E+00  0.00000000000E+00  0.45593999997E+02  0.45594000000E+02  0.51100000000E-03 0. -1.
         11   -1    0    0    0    0 -0.00000000000E+00 -0.00000000000E+00 -0.45593999997E+02  0.45594000000E+02  0.51100000000E-03 0.  1.
         23    2    1    2    0    0  0.44408920985E-15  0.35527136788E-14  0.00000000000E+00  0.91188000000E+02  0.91188000000E+02 0.  0.
    9900012    2    3    3    0    0  0.39848428143E+01  0.31451870478E+02 -0.18726449368E+02  0.54367095139E+02  0.40000024988E+02 0.  0.
         12    1    3    3    0    0 -0.39848428143E+01 -0.31451870478E+02  0.18726449368E+02  0.36820904861E+02  0.00000000000E+00 0. -1.
         11    1    4    4    0    0  0.60512675980E+01  0.43098833956E+01 -0.28182135114E+01  0.79457700749E+01  0.51100000000E-03 0. -1.
        -11    1    4    4    0    0 -0.59884265401E+01  0.55612394485E+01 -0.22155542256E+02  0.23614755759E+02  0.51100000000E-03 0.  1.
         12    1    4    4    0    0  0.39220017564E+01  0.21580747634E+02  0.62473063991E+01  0.22806569305E+02  0.00000000000E+00 0. -1.
</event>
<event>
 8    1  0.2460897E-006  0.9118800E+02  0.7816164E-02  0.1184000E+00
        -11   -1    0    0    0    0  0.00000000000E+00  0.00000000000E+00  0.45593999997E+02  0.45594000000E+02  0.51100000000E-03 0. -1.
         11   -1    0    0    0    0 -0.00000000000E+00 -0.00000000000E+00 -0.45593999997E+02  0.45594000000E+02  0.51100000000E-03 0.  1.
         23    2    1    2    0    0 -0.71054273576E-14  0.00000000000E+00 -0.88817841970E-15  0.91188000000E+02  0.91188000000E+02 0.  0.
    9900012    2    3    3    0    0  0.20642577584E+02  0.30383653832E+02  0.25489792643E+01  0.54367085769E+02  0.40000003628E+02 0.  0.
         12    1    3    3    0    0 -0.20642577584E+02 -0.30383653832E+02 -0.25489792643E+01  0.36820914231E+02  0.00000000000E+00 0. -1.
         11    1    4    4    0    0  0.25281524684E+02  0.13831318238E+02  0.10717118989E+02  0.30746015908E+02  0.51100000000E-03 0. -1.
        -11    1    4    4    0    0  0.14297441433E+01  0.15472182417E+02 -0.36023932037E+01  0.15950229908E+02  0.51100000000E-03 0.  1.
        -12    1    4    4    0    0 -0.60686912427E+01  0.10801531766E+01 -0.45657465213E+01  0.76708399528E+01  0.00000000000E+00 0.  1.
</event>
<event>
 8    1  0.2460897E-006  0.9118800E+02  0.7816164E-02  0.1184000E+00
        -11   -1    0    0    0    0  0.00000000000E+00  0.00000000000E+00  0.45593999997E+02  0.45594000000E+02  0.51100000000E-03 0.  1.
         11   -1    0    0    0    0 -0.00000000000E+00 -0.00000000000E+00 -0.45593999997E+02  0.45594000000E+02  0.51100000000E-03 0. -1.
         23    2    1    2    0    0  0.00000000000E+00 -0.44408920985E-15  0.00000000000E+00  0.91188000000E+02  0.91188000000E+02 0.  0.
    9900012    2    3    3    0    0  0.23869905958E+02 -0.27757881510E+01  0.27898133240E+02  0.54367037919E+02  0.39999894543E+02 0.  0.
         12    1    3    3    0    0 -0.23869905958E+02  0.27757881510E+01 -0.27898133240E+02  0.36820962081E+02  0.00000000000E+00 0. -1.
         11    1    4    4    0    0  0.14928065741E+01  0.48937451409E+01 -0.31724400357E+01  0.60200987544E+01  0.51100000000E-03 0. -1.
        -11    1    4    4    0    0 -0.14484152669E+01  0.22935002869E+01  0.20110638342E+02  0.20292753020E+02  0.51100000000E-03 0.  1.
         12    1    4    4    0    0  0.23825514651E+02 -0.99630335787E+01  0.10959934934E+02  0.28054186145E+02  0.00000000000E+00 0. -1.
</event>
<event>
 8    1  0.2460897E-006  0.9118800E+02  0.7816164E-02  0.1184000E+00
        -11   -1    0    0    0    0  0.00000000000E+00  0.00000000000E+00  0.45593999997E+02  0.45594000000E+02  0.51100000000E-03 0.  1.
         11   -1    0    0    0    0 -0.00000000000E+00 -0.00000000000E+00 -0.45593999997E+02  0.45594000000E+02  0.51100000000E-03 0. -1.
         23    2    1    2    0    0 -0.71054273576E-14 -0.17763568394E-14  0.17763568394E-14  0.91188000000E+02  0.91188000000E+02 0.  0.
    9900012    2    3    3    0    0 -0.33505637174E+02  0.11311301348E+02 -0.10257066468E+02  0.54367072891E+02  0.39999974270E+02 0.  0.
        -12    1    3    3    0    0  0.33505637174E+02 -0.11311301348E+02  0.10257066468E+02  0.36820927109E+02  0.00000000000E+00 0.  1.
         11    1    4    4    0    0  0.68613406473E+00  0.31183800363E+01 -0.41631994927E+01  0.52466469561E+01  0.51100000000E-03 0. -1.
        -11    1    4    4    0    0 -0.27517370188E+01  0.30670017943E+01  0.11859130598E+02  0.12554582249E+02  0.51100000000E-03 0.  1.
         12    1    4    4    0    0 -0.31440034220E+02  0.51259195179E+01 -0.17952997574E+02  0.36565843687E+02  0.00000000000E+00 0. -1.
</event>
<event>
 8    1  0.2460897E-006  0.9118800E+02  0.7816164E-02  0.1184000E+00
        -11   -1    0    0    0    0  0.00000000000E+00  0.00000000000E+00  0.45593999997E+02  0.45594000000E+02  0.51100000000E-03 0.  1.
         11   -1    0    0    0    0 -0.00000000000E+00 -0.00000000000E+00 -0.45593999997E+02  0.45594000000E+02  0.51100000000E-03 0. -1.
         23    2    1    2    0    0  0.17763568394E-14  0.00000000000E+00  0.00000000000E+00  0.91188000000E+02  0.91188000000E+02 0.  0.
    9900012    2    3    3    0    0  0.11012889483E+02  0.32934541111E+02 -0.12239806618E+02  0.54367073898E+02  0.39999976566E+02 0.  0.
        -12    1    3    3    0    0 -0.11012889483E+02 -0.32934541111E+02  0.12239806618E+02  0.36820926102E+02  0.00000000000E+00 0.  1.
         11    1    4    4    0    0 -0.11920935111E+02  0.20393094250E+02 -0.99200188349E+01  0.25620182688E+02  0.51100000000E-03 0. -1.
        -11    1    4    4    0    0  0.14497211235E+02  0.11000258225E+02  0.32978292825E+01  0.18494607129E+02  0.51100000000E-03 0.  1.
         12    1    4    4    0    0  0.84366133593E+01  0.15411886356E+01 -0.56176170661E+01  0.10252284081E+02  0.00000000000E+00 0. -1.
</event>
<event>
 8    1  0.2460897E-006  0.9118800E+02  0.7816164E-02  0.1184000E+00
        -11   -1    0    0    0    0  0.00000000000E+00  0.00000000000E+00  0.45593999997E+02  0.45594000000E+02  0.51100000000E-03 0.  1.
         11   -1    0    0    0    0 -0.00000000000E+00 -0.00000000000E+00 -0.45593999997E+02  0.45594000000E+02  0.51100000000E-03 0. -1.
         23    2    1    2    0    0 -0.17763568394E-14  0.71054273576E-14  0.00000000000E+00  0.91188000000E+02  0.91188000000E+02 0.  0.
    9900012    2    3    3    0    0 -0.89641824514E+01  0.28181416461E+02  0.21936932725E+02  0.54367111660E+02  0.40000062652E+02 0.  0.
         12    1    3    3    0    0  0.89641824514E+01 -0.28181416461E+02 -0.21936932725E+02  0.36820888340E+02  0.00000000000E+00 0. -1.
         11    1    4    4    0    0 -0.48426267617E+01 -0.67526358005E+01  0.83718782373E+00  0.83516470184E+01  0.51100000000E-03 0.  1.
        -11    1    4    4    0    0 -0.97381320357E+01  0.10138606871E+02  0.13475233843E+02  0.19473173656E+02  0.51100000000E-03 0. -1.
        -12    1    4    4    0    0  0.56165763460E+01  0.24795445390E+02  0.76245110580E+01  0.26542290986E+02  0.00000000000E+00 0.  1.
</event>
<event>
 8    1  0.2460897E-006  0.9118800E+02  0.7816164E-02  0.1184000E+00
        -11   -1    0    0    0    0  0.00000000000E+00  0.00000000000E+00  0.45593999997E+02  0.45594000000E+02  0.51100000000E-03 0.  1.
         11   -1    0    0    0    0 -0.00000000000E+00 -0.00000000000E+00 -0.45593999997E+02  0.45594000000E+02  0.51100000000E-03 0. -1.
         23    2    1    2    0    0  0.00000000000E+00  0.00000000000E+00  0.35527136788E-14  0.91188000000E+02  0.91188000000E+02 0.  0.
    9900012    2    3    3    0    0  0.27642763405E+02 -0.28043177564E+01 -0.24161813466E+02  0.54367084792E+02  0.40000001401E+02 0.  0.
        -12    1    3    3    0    0 -0.27642763405E+02  0.28043177564E+01  0.24161813466E+02  0.36820915208E+02  0.00000000000E+00 0.  1.
         11    1    4    4    0    0  0.16300883171E+00 -0.14667030283E+02 -0.96719764118E+01  0.17569731847E+02  0.51100000000E-03 0. -1.
        -11    1    4    4    0    0  0.34080439622E+01 -0.51757580176E+00 -0.83605495497E+01  0.90433089847E+01  0.51100000000E-03 0.  1.
        -12    1    4    4    0    0  0.24071710611E+02  0.12380288328E+02 -0.61292875049E+01  0.27754043961E+02  0.00000000000E+00 0.  1.
</event>
<event>
 8    1  0.2460897E-006  0.9118800E+02  0.7816164E-02  0.1184000E+00
        -11   -1    0    0    0    0  0.00000000000E+00  0.00000000000E+00  0.45593999997E+02  0.45594000000E+02  0.51100000000E-03 0. -1.
         11   -1    0    0    0    0 -0.00000000000E+00 -0.00000000000E+00 -0.45593999997E+02  0.45594000000E+02  0.51100000000E-03 0.  1.
         23    2    1    2    0    0  0.00000000000E+00  0.00000000000E+00  0.00000000000E+00  0.91188000000E+02  0.91188000000E+02 0.  0.
    9900012    2    3    3    0    0 -0.24918321398E+02  0.23731490503E+02  0.13102427730E+02  0.54367082097E+02  0.39999995257E+02 0.  0.
         12    1    3    3    0    0  0.24918321398E+02 -0.23731490503E+02 -0.13102427730E+02  0.36820917903E+02  0.00000000000E+00 0. -1.
         11    1    4    4    0    0 -0.35846035704E+01 -0.34421319044E+01 -0.27826703329E+01  0.56956921657E+01  0.51100000000E-03 0. -1.
        -11    1    4    4    0    0 -0.11960443967E+02  0.68812926349E+00 -0.56756282468E+01  0.13256639771E+02  0.51100000000E-03 0.  1.
         12    1    4    4    0    0 -0.93732738612E+01  0.26485493144E+02  0.21560726309E+02  0.35414750161E+02  0.00000000000E+00 0. -1.
</event>
<event>
 8    1  0.2460897E-006  0.9118800E+02  0.7816164E-02  0.1184000E+00
        -11   -1    0    0    0    0  0.00000000000E+00  0.00000000000E+00  0.45593999997E+02  0.45594000000E+02  0.51100000000E-03 0.  1.
         11   -1    0    0    0    0 -0.00000000000E+00 -0.00000000000E+00 -0.45593999997E+02  0.45594000000E+02  0.51100000000E-03 0. -1.
         23    2    1    2    0    0  0.35527136788E-14  0.00000000000E+00  0.71054273576E-14  0.91188000000E+02  0.91188000000E+02 0.  0.
    9900012    2    3    3    0    0  0.84090831837E+01  0.16726025872E+02  0.31706586120E+02  0.54367078979E+02  0.39999988148E+02 0.  0.
         12    1    3    3    0    0 -0.84090831837E+01 -0.16726025872E+02 -0.31706586120E+02  0.36820921021E+02  0.00000000000E+00 0. -1.
         11    1    4    4    0    0 -0.75339081502E+01  0.19599506390E+01  0.58222559941E+01  0.97211030055E+01  0.51100000000E-03 0. -1.
        -11    1    4    4    0    0  0.39715108059E+01  0.12970436479E+02  0.29112413112E+02  0.32117560897E+02  0.51100000000E-03 0.  1.
         12    1    4    4    0    0  0.11971480528E+02  0.17956387543E+01 -0.32280829857E+01  0.12528415077E+02  0.00000000000E+00 0. -1.
</event>
<event>
 8    1  0.2460897E-006  0.9118800E+02  0.7816164E-02  0.1184000E+00
        -11   -1    0    0    0    0  0.00000000000E+00  0.00000000000E+00  0.45593999997E+02  0.45594000000E+02  0.51100000000E-03 0.  1.
         11   -1    0    0    0    0 -0.00000000000E+00 -0.00000000000E+00 -0.45593999997E+02  0.45594000000E+02  0.51100000000E-03 0. -1.
         23    2    1    2    0    0  0.00000000000E+00  0.17763568394E-14  0.00000000000E+00  0.91188000000E+02  0.91188000000E+02 0.  0.
    9900012    2    3    3    0    0  0.12223398403E+02  0.12535108325E+02  0.32391955357E+02  0.54367093153E+02  0.40000020460E+02 0.  0.
         12    1    3    3    0    0 -0.12223398403E+02 -0.12535108325E+02 -0.32391955357E+02  0.36820906847E+02  0.00000000000E+00 0. -1.
         11    1    4    4    0    0  0.30507462871E+01 -0.78424598532E+01 -0.18171861904E+01  0.86089137160E+01  0.51100000000E-03 0. -1.
        -11    1    4    4    0    0  0.31566653881E+01  0.26415115755E+00  0.20366571979E+02  0.20611442614E+02  0.51100000000E-03 0.  1.
         12    1    4    4    0    0  0.60159867280E+01  0.20113417021E+02  0.13842569568E+02  0.25146736822E+02  0.00000000000E+00 0. -1.
</event>
<event>
 8    1  0.2460897E-006  0.9118800E+02  0.7816164E-02  0.1184000E+00
        -11   -1    0    0    0    0  0.00000000000E+00  0.00000000000E+00  0.45593999997E+02  0.45594000000E+02  0.51100000000E-03 0. -1.
         11   -1    0    0    0    0 -0.00000000000E+00 -0.00000000000E+00 -0.45593999997E+02  0.45594000000E+02  0.51100000000E-03 0.  1.
         23    2    1    2    0    0  0.00000000000E+00 -0.17763568394E-14  0.00000000000E+00  0.91188000000E+02  0.91188000000E+02 0.  0.
    9900012    2    3    3    0    0  0.20963441906E+02  0.51739445915E+01 -0.29825247312E+02  0.54367068773E+02  0.39999964883E+02 0.  0.
         12    1    3    3    0    0 -0.20963441906E+02 -0.51739445915E+01  0.29825247312E+02  0.36820931227E+02  0.00000000000E+00 0. -1.
         11    1    4    4    0    0  0.12770568940E+02 -0.54291363232E+01  0.38787501103E+01  0.14408596564E+02  0.51100000000E-03 0. -1.
        -11    1    4    4    0    0  0.11731374913E+02  0.98111970797E+01 -0.17005258094E+02  0.22870582603E+02  0.51100000000E-03 0.  1.
         12    1    4    4    0    0 -0.35385019476E+01  0.79188383501E+00 -0.16698739328E+02  0.17087889606E+02  0.00000000000E+00 0. -1.
</event>
<event>
 8    1  0.2460897E-006  0.9118800E+02  0.7816164E-02  0.1184000E+00
        -11   -1    0    0    0    0  0.00000000000E+00  0.00000000000E+00  0.45593999997E+02  0.45594000000E+02  0.51100000000E-03 0.  1.
         11   -1    0    0    0    0 -0.00000000000E+00 -0.00000000000E+00 -0.45593999997E+02  0.45594000000E+02  0.51100000000E-03 0. -1.
         23    2    1    2    0    0 -0.88817841970E-15  0.00000000000E+00  0.00000000000E+00  0.91188000000E+02  0.91188000000E+02 0.  0.
    9900012    2    3    3    0    0  0.70855062017E+01 -0.30587298008E+02  0.19235193261E+02  0.54367083969E+02  0.39999999525E+02 0.  0.
         12    1    3    3    0    0 -0.70855062017E+01  0.30587298008E+02 -0.19235193261E+02  0.36820916031E+02  0.00000000000E+00 0. -1.
         11    1    4    4    0    0 -0.10610437204E+02 -0.92071182172E+01  0.14534325800E+01  0.14123203251E+02  0.51100000000E-03 0. -1.
        -11    1    4    4    0    0  0.19882542940E+02 -0.63770407005E+01  0.11446654114E+02  0.23811930886E+02  0.51100000000E-03 0.  1.
        -12    1    4    4    0    0 -0.21865995338E+01 -0.15003139090E+02  0.63351065664E+01  0.16431949832E+02  0.00000000000E+00 0.  1.
</event>
<event>
 8    1  0.2460897E-006  0.9118800E+02  0.7816164E-02  0.1184000E+00
        -11   -1    0    0    0    0  0.00000000000E+00  0.00000000000E+00  0.45593999997E+02  0.45594000000E+02  0.51100000000E-03 0. -1.
         11   -1    0    0    0    0 -0.00000000000E+00 -0.00000000000E+00 -0.45593999997E+02  0.45594000000E+02  0.51100000000E-03 0.  1.
         23    2    1    2    0    0  0.35527136788E-14  0.35527136788E-14  0.00000000000E+00  0.91188000000E+02  0.91188000000E+02 0.  0.
    9900012    2    3    3    0    0 -0.28387584609E+02 -0.22937223208E+02  0.48794527114E+01  0.54367078947E+02  0.39999988076E+02 0.  0.
         12    1    3    3    0    0  0.28387584609E+02  0.22937223208E+02 -0.48794527114E+01  0.36820921053E+02  0.00000000000E+00 0. -1.
         11    1    4    4    0    0 -0.82902569857E+00 -0.17082476444E+02 -0.33317436853E+01  0.17424086815E+02  0.51100000000E-03 0. -1.
        -11    1    4    4    0    0 -0.14696530795E+02 -0.13232248513E+02 -0.43133352383E+00  0.19780456693E+02  0.51100000000E-03 0.  1.
         12    1    4    4    0    0 -0.12862028115E+02  0.73775017487E+01  0.86425299205E+01  0.17162535440E+02  0.00000000000E+00 0. -1.
</event>
<event>
 8    1  0.2460897E-006  0.9118800E+02  0.7816164E-02  0.1184000E+00
        -11   -1    0    0    0    0  0.00000000000E+00  0.00000000000E+00  0.45593999997E+02  0.45594000000E+02  0.51100000000E-03 0. -1.
         11   -1    0    0    0    0 -0.00000000000E+00 -0.00000000000E+00 -0.45593999997E+02  0.45594000000E+02  0.51100000000E-03 0.  1.
         23    2    1    2    0    0 -0.17763568394E-14  0.00000000000E+00  0.00000000000E+00  0.91188000000E+02  0.91188000000E+02 0.  0.
    9900012    2    3    3    0    0  0.13719416469E+02 -0.29081133719E+02 -0.17940048097E+02  0.54367081321E+02  0.39999993487E+02 0.  0.
         12    1    3    3    0    0 -0.13719416469E+02  0.29081133719E+02  0.17940048097E+02  0.36820918679E+02  0.00000000000E+00 0. -1.
         11    1    4    4    0    0  0.37595580541E+01 -0.43638463550E+01  0.40563581889E+01  0.70449608792E+01  0.51100000000E-03 0. -1.
        -11    1    4    4    0    0  0.13809764601E+02 -0.24610068668E+02 -0.35083742426E+01  0.28437189880E+02  0.51100000000E-03 0.  1.
        -12    1    4    4    0    0 -0.38499061862E+01 -0.10721869637E+00 -0.18488032044E+02  0.18884930562E+02  0.00000000000E+00 0.  1.
</event>
<event>
 8    1  0.2460897E-006  0.9118800E+02  0.7816164E-02  0.1184000E+00
        -11   -1    0    0    0    0  0.00000000000E+00  0.00000000000E+00  0.45593999997E+02  0.45594000000E+02  0.51100000000E-03 0.  1.
         11   -1    0    0    0    0 -0.00000000000E+00 -0.00000000000E+00 -0.45593999997E+02  0.45594000000E+02  0.51100000000E-03 0. -1.
         23    2    1    2    0    0  0.00000000000E+00  0.35527136788E-14  0.35527136788E-14  0.91188000000E+02  0.91188000000E+02 0.  0.
    9900012    2    3    3    0    0 -0.17145989928E+02  0.20100295145E+02  0.25647063751E+02  0.54367099487E+02  0.40000034901E+02 0.  0.
         12    1    3    3    0    0  0.17145989928E+02 -0.20100295145E+02 -0.25647063751E+02  0.36820900513E+02  0.00000000000E+00 0. -1.
         11    1    4    4    0    0  0.20247564690E+00  0.12665942579E+01 -0.96242620796E+00  0.16035965418E+01  0.51100000000E-03 0. -1.
        -11    1    4    4    0    0 -0.66409633040E+01 -0.10808358590E+02  0.21442156432E+01  0.12865483668E+02  0.51100000000E-03 0.  1.
        -12    1    4    4    0    0 -0.10707502271E+02  0.29642059477E+02  0.24465274316E+02  0.39898019278E+02  0.00000000000E+00 0.  1.
</event>
<event>
 8    1  0.2460897E-006  0.9118800E+02  0.7816164E-02  0.1184000E+00
        -11   -1    0    0    0    0  0.00000000000E+00  0.00000000000E+00  0.45593999997E+02  0.45594000000E+02  0.51100000000E-03 0.  1.
         11   -1    0    0    0    0 -0.00000000000E+00 -0.00000000000E+00 -0.45593999997E+02  0.45594000000E+02  0.51100000000E-03 0. -1.
         23    2    1    2    0    0  0.17763568394E-14  0.00000000000E+00 -0.88817841970E-15  0.91188000000E+02  0.91188000000E+02 0.  0.
    9900012    2    3    3    0    0  0.92338455050E+01  0.34989944985E+02  0.67985398986E+01  0.54367077990E+02  0.39999985894E+02 0.  0.
         12    1    3    3    0    0 -0.92338455050E+01 -0.34989944985E+02 -0.67985398986E+01  0.36820922010E+02  0.00000000000E+00 0. -1.
         11    1    4    4    0    0 -0.48031668949E+01  0.12921259012E+02 -0.96723891700E+01  0.16839966128E+02  0.51100000000E-03 0. -1.
        -11    1    4    4    0    0  0.99135288641E+01  0.12574051404E+02 -0.22160653498E+01  0.16164645655E+02  0.51100000000E-03 0.  1.
         12    1    4    4    0    0  0.41234835358E+01  0.94946345697E+01  0.18686994418E+02  0.21362466208E+02  0.00000000000E+00 0. -1.
</event>
<event>
 8    1  0.2460897E-006  0.9118800E+02  0.7816164E-02  0.1184000E+00
        -11   -1    0    0    0    0  0.00000000000E+00  0.00000000000E+00  0.45593999997E+02  0.45594000000E+02  0.51100000000E-03 0.  1.
         11   -1    0    0    0    0 -0.00000000000E+00 -0.00000000000E+00 -0.45593999997E+02  0.45594000000E+02  0.51100000000E-03 0. -1.
         23    2    1    2    0    0  0.00000000000E+00  0.00000000000E+00  0.00000000000E+00  0.91188000000E+02  0.91188000000E+02 0.  0.
    9900012    2    3    3    0    0  0.15844402089E+02 -0.47935415865E+01  0.32890075131E+02  0.54367079851E+02  0.39999990135E+02 0.  0.
         12    1    3    3    0    0 -0.15844402089E+02  0.47935415865E+01 -0.32890075131E+02  0.36820920149E+02  0.00000000000E+00 0. -1.
         11    1    4    4    0    0  0.17122774677E+02  0.11871293502E+01  0.52964746361E+01  0.17962497949E+02  0.51100000000E-03 0. -1.
        -11    1    4    4    0    0  0.96454150354E+01  0.48416282948E-01  0.56962628506E+01  0.11201954565E+02  0.51100000000E-03 0.  1.
         12    1    4    4    0    0 -0.10923787624E+02 -0.60290872196E+01  0.21897337645E+02  0.25202627337E+02  0.00000000000E+00 0. -1.
</event>
<event>
 8    1  0.2460897E-006  0.9118800E+02  0.7816164E-02  0.1184000E+00
        -11   -1    0    0    0    0  0.00000000000E+00  0.00000000000E+00  0.45593999997E+02  0.45594000000E+02  0.51100000000E-03 0.  1.
         11   -1    0    0    0    0 -0.00000000000E+00 -0.00000000000E+00 -0.45593999997E+02  0.45594000000E+02  0.51100000000E-03 0. -1.
         23    2    1    2    0    0  0.00000000000E+00  0.11102230246E-14  0.00000000000E+00  0.91188000000E+02  0.91188000000E+02 0.  0.
    9900012    2    3    3    0    0  0.35385433595E+02  0.57187320112E+00  0.10164836905E+02  0.54367083948E+02  0.39999999475E+02 0.  0.
         12    1    3    3    0    0 -0.35385433595E+02 -0.57187320112E+00 -0.10164836905E+02  0.36820916052E+02  0.00000000000E+00 0. -1.
         11    1    4    4    0    0  0.28060770323E+02  0.59473414018E+01 -0.16242827974E+01  0.28730053877E+02  0.51100000000E-03 0. -1.
        -11    1    4    4    0    0  0.39576118762E+01 -0.74372716538E+01 -0.40254857419E+01  0.93370357788E+01  0.51100000000E-03 0.  1.
        -12    1    4    4    0    0  0.33670513952E+01  0.20618034531E+01  0.15814605444E+02  0.16299994292E+02  0.00000000000E+00 0.  1.
</event>
<event>
 8    1  0.2460897E-006  0.9118800E+02  0.7816164E-02  0.1184000E+00
        -11   -1    0    0    0    0  0.00000000000E+00  0.00000000000E+00  0.45593999997E+02  0.45594000000E+02  0.51100000000E-03 0. -1.
         11   -1    0    0    0    0 -0.00000000000E+00 -0.00000000000E+00 -0.45593999997E+02  0.45594000000E+02  0.51100000000E-03 0.  1.
         23    2    1    2    0    0 -0.17763568394E-14  0.00000000000E+00 -0.71054273576E-14  0.91188000000E+02  0.91188000000E+02 0.  0.
    9900012    2    3    3    0    0 -0.86740634024E+01 -0.34776703018E+01 -0.35615249116E+02  0.54367088330E+02  0.40000009466E+02 0.  0.
         12    1    3    3    0    0  0.86740634024E+01  0.34776703018E+01  0.35615249116E+02  0.36820911670E+02  0.00000000000E+00 0. -1.
         11    1    4    4    0    0 -0.40404539296E+01 -0.53859031018E+01  0.26014372991E+01  0.72180812175E+01  0.51100000000E-03 0. -1.
        -11    1    4    4    0    0  0.52710518526E+00 -0.13403511293E+01  0.41256421959E+01  0.43698174809E+01  0.51100000000E-03 0.  1.
        -12    1    4    4    0    0 -0.51607146581E+01  0.32485839293E+01 -0.42342328611E+02  0.42779189631E+02  0.00000000000E+00 0.  1.
</event>
<event>
 8    1  0.2460897E-006  0.9118800E+02  0.7816164E-02  0.1184000E+00
        -11   -1    0    0    0    0  0.00000000000E+00  0.00000000000E+00  0.45593999997E+02  0.45594000000E+02  0.51100000000E-03 0.  1.
         11   -1    0    0    0    0 -0.00000000000E+00 -0.00000000000E+00 -0.45593999997E+02  0.45594000000E+02  0.51100000000E-03 0. -1.
         23    2    1    2    0    0  0.00000000000E+00  0.44408920985E-15  0.00000000000E+00  0.91188000000E+02  0.91188000000E+02 0.  0.
    9900012    2    3    3    0    0 -0.15619378218E+02 -0.34114463260E+01 -0.33168925894E+02  0.54367074062E+02  0.39999976940E+02 0.  0.
        -12    1    3    3    0    0  0.15619378218E+02  0.34114463260E+01  0.33168925894E+02  0.36820925938E+02  0.00000000000E+00 0.  1.
         11    1    4    4    0    0 -0.16663671840E+01  0.24870519997E+01 -0.25775836263E+02  0.25949102924E+02  0.51100000000E-03 0. -1.
        -11    1    4    4    0    0 -0.15271998707E+02 -0.10092248471E+02  0.16330853817E+01  0.18378095436E+02  0.51100000000E-03 0.  1.
        -12    1    4    4    0    0  0.13189876732E+01  0.41937501456E+01 -0.90261750126E+01  0.10039875703E+02  0.00000000000E+00 0.  1.
</event>
<event>
 8    1  0.2460897E-006  0.9118800E+02  0.7816164E-02  0.1184000E+00
        -11   -1    0    0    0    0  0.00000000000E+00  0.00000000000E+00  0.45593999997E+02  0.45594000000E+02  0.51100000000E-03 0.  1.
         11   -1    0    0    0    0 -0.00000000000E+00 -0.00000000000E+00 -0.45593999997E+02  0.45594000000E+02  0.51100000000E-03 0. -1.
         23    2    1    2    0    0  0.17763568394E-14  0.35527136788E-14 -0.35527136788E-14  0.91188000000E+02  0.91188000000E+02 0.  0.
    9900012    2    3    3    0    0  0.15271219012E+02  0.28390329243E+02 -0.17792098428E+02  0.54367086227E+02  0.40000004672E+02 0.  0.
        -12    1    3    3    0    0 -0.15271219012E+02 -0.28390329243E+02  0.17792098428E+02  0.36820913773E+02  0.00000000000E+00 0.  1.
         11    1    4    4    0    0  0.95743816310E+01  0.32148673351E+02 -0.96735700848E+01  0.34911086209E+02  0.51100000000E-03 0. -1.
        -11    1    4    4    0    0  0.11161913200E+02 -0.78288838257E+00 -0.35588614771E+01  0.11741665801E+02  0.51100000000E-03 0.  1.
        -12    1    4    4    0    0 -0.54650758191E+01 -0.29754557260E+01 -0.45596668659E+01  0.77143342171E+01  0.00000000000E+00 0.  1.
</event>
<event>
 8    1  0.2460897E-006  0.9118800E+02  0.7816164E-02  0.1184000E+00
        -11   -1    0    0    0    0  0.00000000000E+00  0.00000000000E+00  0.45593999997E+02  0.45594000000E+02  0.51100000000E-03 0.  1.
         11   -1    0    0    0    0 -0.00000000000E+00 -0.00000000000E+00 -0.45593999997E+02  0.45594000000E+02  0.51100000000E-03 0. -1.
         23    2    1    2    0    0  0.11102230246E-15  0.00000000000E+00  0.00000000000E+00  0.91188000000E+02  0.91188000000E+02 0.  0.
    9900012    2    3    3    0    0 -0.78500477537E+00  0.33582345633E+02 -0.15079469698E+02  0.54367074195E+02  0.39999977243E+02 0.  0.
        -12    1    3    3    0    0  0.78500477537E+00 -0.33582345633E+02  0.15079469698E+02  0.36820925805E+02  0.00000000000E+00 0.  1.
         11    1    4    4    0    0 -0.18360883244E+02  0.18578723853E+02 -0.12746178295E+02  0.29064687765E+02  0.51100000000E-03 0. -1.
        -11    1    4    4    0    0  0.15559971384E+02  0.13296534489E+02  0.16380348690E+01  0.20532746952E+02  0.51100000000E-03 0.  1.
         12    1    4    4    0    0  0.20159070844E+01  0.17070872916E+01 -0.39713262722E+01  0.47696394784E+01  0.00000000000E+00 0. -1.
</event>
<event>
 8    1  0.2460897E-006  0.9118800E+02  0.7816164E-02  0.1184000E+00
        -11   -1    0    0    0    0  0.00000000000E+00  0.00000000000E+00  0.45593999997E+02  0.45594000000E+02  0.51100000000E-03 0. -1.
         11   -1    0    0    0    0 -0.00000000000E+00 -0.00000000000E+00 -0.45593999997E+02  0.45594000000E+02  0.51100000000E-03 0.  1.
         23    2    1    2    0    0  0.00000000000E+00  0.00000000000E+00  0.00000000000E+00  0.91188000000E+02  0.91188000000E+02 0.  0.
    9900012    2    3    3    0    0  0.32289461216E+02  0.12549365375E+02  0.12477466911E+02  0.54367040514E+02  0.39999900460E+02 0.  0.
        -12    1    3    3    0    0 -0.32289461216E+02 -0.12549365375E+02 -0.12477466911E+02  0.36820959486E+02  0.00000000000E+00 0.  1.
         11    1    4    4    0    0  0.88212858621E+01  0.10237052751E+02  0.37715460680E+01  0.14029857209E+02  0.51100000000E-03 0. -1.
        -11    1    4    4    0    0  0.99282656011E+01  0.14598547729E+02 -0.39623214804E+01  0.18093867619E+02  0.51100000000E-03 0.  1.
        -12    1    4    4    0    0  0.13539909753E+02 -0.12286235105E+02  0.12668242324E+02  0.22243315687E+02  0.00000000000E+00 0.  1.
</event>
<event>
 8    1  0.2460897E-006  0.9118800E+02  0.7816164E-02  0.1184000E+00
        -11   -1    0    0    0    0  0.00000000000E+00  0.00000000000E+00  0.45593999997E+02  0.45594000000E+02  0.51100000000E-03 0. -1.
         11   -1    0    0    0    0 -0.00000000000E+00 -0.00000000000E+00 -0.45593999997E+02  0.45594000000E+02  0.51100000000E-03 0.  1.
         23    2    1    2    0    0  0.00000000000E+00  0.00000000000E+00  0.00000000000E+00  0.91188000000E+02  0.91188000000E+02 0.  0.
    9900012    2    3    3    0    0  0.19701834625E+02  0.19537481492E+02  0.24205467541E+02  0.54367080273E+02  0.39999991099E+02 0.  0.
        -12    1    3    3    0    0 -0.19701834625E+02 -0.19537481492E+02 -0.24205467541E+02  0.36820919727E+02  0.00000000000E+00 0.  1.
         11    1    4    4    0    0  0.47018048271E+01  0.24665629015E+02  0.17126119324E+02  0.30394147244E+02  0.51100000000E-03 0. -1.
        -11    1    4    4    0    0  0.13460497583E+02 -0.82816839577E+01  0.10578062708E+02  0.19017536519E+02  0.51100000000E-03 0.  1.
         12    1    4    4    0    0  0.15395322146E+01  0.31535364346E+01 -0.34987144902E+01  0.49553965097E+01  0.00000000000E+00 0. -1.
</event>
<event>
 8    1  0.2460897E-006  0.9118800E+02  0.7816164E-02  0.1184000E+00
        -11   -1    0    0    0    0  0.00000000000E+00  0.00000000000E+00  0.45593999997E+02  0.45594000000E+02  0.51100000000E-03 0.  1.
         11   -1    0    0    0    0 -0.00000000000E+00 -0.00000000000E+00 -0.45593999997E+02  0.45594000000E+02  0.51100000000E-03 0. -1.
         23    2    1    2    0    0 -0.35527136788E-14 -0.49960036108E-15  0.00000000000E+00  0.91188000000E+02  0.91188000000E+02 0.  0.
    9900012    2    3    3    0    0  0.26585918308E+02  0.38721954211E+00 -0.25471911125E+02  0.54367092249E+02  0.40000018401E+02 0.  0.
        -12    1    3    3    0    0 -0.26585918308E+02 -0.38721954211E+00  0.25471911125E+02  0.36820907751E+02  0.00000000000E+00 0.  1.
         11    1    4    4    0    0  0.59626969637E+01  0.77639873331E+01 -0.14547778907E+02  0.17534854598E+02  0.51100000000E-03 0. -1.
        -11    1    4    4    0    0  0.36939978859E+00 -0.11245035402E+02 -0.11654734390E+02  0.16199386141E+02  0.51100000000E-03 0.  1.
        -12    1    4    4    0    0  0.20253821555E+02  0.38682676105E+01  0.73060217218E+00  0.20632851510E+02  0.00000000000E+00 0.  1.
</event>
<event>
 8    1  0.2460897E-006  0.9118800E+02  0.7816164E-02  0.1184000E+00
        -11   -1    0    0    0    0  0.00000000000E+00  0.00000000000E+00  0.45593999997E+02  0.45594000000E+02  0.51100000000E-03 0. -1.
         11   -1    0    0    0    0 -0.00000000000E+00 -0.00000000000E+00 -0.45593999997E+02  0.45594000000E+02  0.51100000000E-03 0.  1.
         23    2    1    2    0    0 -0.88817841970E-15 -0.71054273576E-14 -0.35527136788E-14  0.91188000000E+02  0.91188000000E+02 0.  0.
    9900012    2    3    3    0    0 -0.66445923102E+01  0.20875487977E+02  0.29594634552E+02  0.54367095618E+02  0.40000026080E+02 0.  0.
        -12    1    3    3    0    0  0.66445923102E+01 -0.20875487977E+02 -0.29594634552E+02  0.36820904382E+02  0.00000000000E+00 0.  1.
         11    1    4    4    0    0 -0.26383766723E+01  0.24402375682E+02  0.88530626802E+01  0.26092406739E+02  0.51100000000E-03 0. -1.
        -11    1    4    4    0    0  0.16649957518E+01  0.33394412977E+01 -0.17224158602E+01  0.41098413219E+01  0.51100000000E-03 0.  1.
        -12    1    4    4    0    0 -0.56712113898E+01 -0.68663290024E+01  0.22463987732E+02  0.24164847557E+02  0.00000000000E+00 0.  1.
</event>
<event>
 8    1  0.2460897E-006  0.9118800E+02  0.7816164E-02  0.1184000E+00
        -11   -1    0    0    0    0  0.00000000000E+00  0.00000000000E+00  0.45593999997E+02  0.45594000000E+02  0.51100000000E-03 0. -1.
         11   -1    0    0    0    0 -0.00000000000E+00 -0.00000000000E+00 -0.45593999997E+02  0.45594000000E+02  0.51100000000E-03 0.  1.
         23    2    1    2    0    0  0.00000000000E+00  0.00000000000E+00 -0.44408920985E-15  0.91188000000E+02  0.91188000000E+02 0.  0.
    9900012    2    3    3    0    0 -0.32983827490E+02  0.16291075059E+02  0.15646802256E+01  0.54367078954E+02  0.39999988092E+02 0.  0.
         12    1    3    3    0    0  0.32983827490E+02 -0.16291075059E+02 -0.15646802256E+01  0.36820921046E+02  0.00000000000E+00 0. -1.
         11    1    4    4    0    0  0.45279780887E+01  0.39158200408E+01  0.24727975130E+01  0.64769560725E+01  0.51100000000E-03 0. -1.
        -11    1    4    4    0    0 -0.10867991908E+02 -0.40701587656E+01 -0.99646281531E+01  0.15296184327E+02  0.51100000000E-03 0.  1.
         12    1    4    4    0    0 -0.26643813671E+02  0.16445413784E+02  0.90565108658E+01  0.32593938555E+02  0.00000000000E+00 0. -1.
</event>
<event>
 8    1  0.2460897E-006  0.9118800E+02  0.7816164E-02  0.1184000E+00
        -11   -1    0    0    0    0  0.00000000000E+00  0.00000000000E+00  0.45593999997E+02  0.45594000000E+02  0.51100000000E-03 0. -1.
         11   -1    0    0    0    0 -0.00000000000E+00 -0.00000000000E+00 -0.45593999997E+02  0.45594000000E+02  0.51100000000E-03 0.  1.
         23    2    1    2    0    0  0.00000000000E+00  0.00000000000E+00  0.00000000000E+00  0.91188000000E+02  0.91188000000E+02 0.  0.
    9900012    2    3    3    0    0 -0.28741243886E+02 -0.13882295370E+02 -0.18357627395E+02  0.54367085992E+02  0.40000004135E+02 0.  0.
         12    1    3    3    0    0  0.28741243886E+02  0.13882295370E+02  0.18357627395E+02  0.36820914008E+02  0.00000000000E+00 0. -1.
         11    1    4    4    0    0 -0.17903422283E+02 -0.10401390504E+00 -0.23405240744E+01  0.18056062737E+02  0.51100000000E-03 0. -1.
        -11    1    4    4    0    0 -0.60735060772E+00 -0.59653066446E+01 -0.21499158070E+02  0.22319667473E+02  0.51100000000E-03 0.  1.
        -12    1    4    4    0    0 -0.10230470995E+02 -0.78129748204E+01  0.54820547502E+01  0.13991355781E+02  0.00000000000E+00 0.  1.
</event>
<event>
 8    1  0.2460897E-006  0.9118800E+02  0.7816164E-02  0.1184000E+00
        -11   -1    0    0    0    0  0.00000000000E+00  0.00000000000E+00  0.45593999997E+02  0.45594000000E+02  0.51100000000E-03 0.  1.
         11   -1    0    0    0    0 -0.00000000000E+00 -0.00000000000E+00 -0.45593999997E+02  0.45594000000E+02  0.51100000000E-03 0. -1.
         23    2    1    2    0    0  0.35527136788E-14  0.00000000000E+00 -0.13322676296E-14  0.91188000000E+02  0.91188000000E+02 0.  0.
    9900012    2    3    3    0    0 -0.21599662774E+02 -0.29800480230E+02  0.10793915295E+01  0.54367093710E+02  0.40000021732E+02 0.  0.
        -12    1    3    3    0    0  0.21599662774E+02  0.29800480230E+02 -0.10793915295E+01  0.36820906290E+02  0.00000000000E+00 0.  1.
         11    1    4    4    0    0 -0.97592868452E+01 -0.28676422344E+01 -0.11328980439E+02  0.15225401465E+02  0.51100000000E-03 0. -1.
        -11    1    4    4    0    0 -0.15644329925E+02 -0.81585899186E+01  0.85283466518E+01  0.19596947342E+02  0.51100000000E-03 0.  1.
        -12    1    4    4    0    0  0.38039539960E+01 -0.18774248077E+02  0.38800253170E+01  0.19544744903E+02  0.00000000000E+00 0.  1.
</event>
<event>
 8    1  0.2460897E-006  0.9118800E+02  0.7816164E-02  0.1184000E+00
        -11   -1    0    0    0    0  0.00000000000E+00  0.00000000000E+00  0.45593999997E+02  0.45594000000E+02  0.51100000000E-03 0. -1.
         11   -1    0    0    0    0 -0.00000000000E+00 -0.00000000000E+00 -0.45593999997E+02  0.45594000000E+02  0.51100000000E-03 0.  1.
         23    2    1    2    0    0  0.35527136788E-14  0.00000000000E+00 -0.44408920985E-15  0.91188000000E+02  0.91188000000E+02 0.  0.
    9900012    2    3    3    0    0 -0.14976200673E+02 -0.33562257707E+02 -0.22519742434E+01  0.54367039706E+02  0.39999898618E+02 0.  0.
         12    1    3    3    0    0  0.14976200673E+02  0.33562257707E+02  0.22519742434E+01  0.36820960294E+02  0.00000000000E+00 0. -1.
         11    1    4    4    0    0 -0.18829397168E+02 -0.58580426391E+01  0.95379836601E+01  0.21905159069E+02  0.51100000000E-03 0. -1.
        -11    1    4    4    0    0  0.28515896311E+01 -0.20792366707E+02 -0.13892108723E+02  0.25168328544E+02  0.51100000000E-03 0.  1.
        -12    1    4    4    0    0  0.10016068635E+01 -0.69118483610E+01  0.21021508192E+01  0.72935520936E+01  0.00000000000E+00 0.  1.
</event>
<event>
 8    1  0.2460897E-006  0.9118800E+02  0.7816164E-02  0.1184000E+00
        -11   -1    0    0    0    0  0.00000000000E+00  0.00000000000E+00  0.45593999997E+02  0.45594000000E+02  0.51100000000E-03 0. -1.
         11   -1    0    0    0    0 -0.00000000000E+00 -0.00000000000E+00 -0.45593999997E+02  0.45594000000E+02  0.51100000000E-03 0.  1.
         23    2    1    2    0    0 -0.35527136788E-14  0.00000000000E+00 -0.35527136788E-14  0.91188000000E+02  0.91188000000E+02 0.  0.
    9900012    2    3    3    0    0  0.26656770261E+02  0.18194087283E+02 -0.17724912420E+02  0.54367072077E+02  0.39999972414E+02 0.  0.
         12    1    3    3    0    0 -0.26656770261E+02 -0.18194087283E+02  0.17724912420E+02  0.36820927923E+02  0.00000000000E+00 0. -1.
         11    1    4    4    0    0 -0.65731703481E+00  0.98822073277E+01  0.35399387176E+01  0.10517663892E+02  0.51100000000E-03 0. -1.
        -11    1    4    4    0    0 -0.24608848878E+01  0.30249320433E+01  0.31263362311E+01  0.49980142845E+01  0.51100000000E-03 0.  1.
        -12    1    4    4    0    0  0.29774972184E+02  0.52869479115E+01 -0.24391187369E+02  0.38851393901E+02  0.00000000000E+00 0.  1.
</event>
<event>
 8    1  0.2460897E-006  0.9118800E+02  0.7816164E-02  0.1184000E+00
        -11   -1    0    0    0    0  0.00000000000E+00  0.00000000000E+00  0.45593999997E+02  0.45594000000E+02  0.51100000000E-03 0.  1.
         11   -1    0    0    0    0 -0.00000000000E+00 -0.00000000000E+00 -0.45593999997E+02  0.45594000000E+02  0.51100000000E-03 0. -1.
         23    2    1    2    0    0 -0.17763568394E-14 -0.35527136788E-14 -0.35527136788E-14  0.91188000000E+02  0.91188000000E+02 0.  0.
    9900012    2    3    3    0    0  0.48382844079E+01  0.28262328164E+02  0.23100051320E+02  0.54367074424E+02  0.39999977764E+02 0.  0.
         12    1    3    3    0    0 -0.48382844079E+01 -0.28262328164E+02 -0.23100051320E+02  0.36820925576E+02  0.00000000000E+00 0. -1.
         11    1    4    4    0    0 -0.74184788560E+01 -0.58420188445E+01  0.11504500724E+02  0.14883432060E+02  0.51100000000E-03 0. -1.
        -11    1    4    4    0    0  0.59541690284E+01  0.62340782245E+01 -0.67741549773E-01  0.86209308840E+01  0.51100000000E-03 0.  1.
         12    1    4    4    0    0  0.63025942356E+01  0.27870268784E+02  0.11663292146E+02  0.30862711480E+02  0.00000000000E+00 0. -1.
</event>
<event>
 8    1  0.2460897E-006  0.9118800E+02  0.7816164E-02  0.1184000E+00
        -11   -1    0    0    0    0  0.00000000000E+00  0.00000000000E+00  0.45593999997E+02  0.45594000000E+02  0.51100000000E-03 0. -1.
         11   -1    0    0    0    0 -0.00000000000E+00 -0.00000000000E+00 -0.45593999997E+02  0.45594000000E+02  0.51100000000E-03 0.  1.
         23    2    1    2    0    0  0.00000000000E+00 -0.13322676296E-14  0.00000000000E+00  0.91188000000E+02  0.91188000000E+02 0.  0.
    9900012    2    3    3    0    0 -0.34232619215E+02  0.31089051752E+01  0.13200076003E+02  0.54367088602E+02  0.40000010086E+02 0.  0.
         12    1    3    3    0    0  0.34232619215E+02 -0.31089051752E+01 -0.13200076003E+02  0.36820911398E+02  0.00000000000E+00 0. -1.
         11    1    4    4    0    0  0.19693325360E+01  0.17060748973E+01  0.13900032189E+02  0.14142130579E+02  0.51100000000E-03 0. -1.
        -11    1    4    4    0    0 -0.15239240451E+02  0.92452514961E+01 -0.81460195841E+00  0.17843001467E+02  0.51100000000E-03 0.  1.
         12    1    4    4    0    0 -0.20962711300E+02 -0.78424212183E+01  0.11464577183E+00  0.22381956556E+02  0.00000000000E+00 0. -1.
</event>
<event>
 8    1  0.2460897E-006  0.9118800E+02  0.7816164E-02  0.1184000E+00
        -11   -1    0    0    0    0  0.00000000000E+00  0.00000000000E+00  0.45593999997E+02  0.45594000000E+02  0.51100000000E-03 0.  1.
         11   -1    0    0    0    0 -0.00000000000E+00 -0.00000000000E+00 -0.45593999997E+02  0.45594000000E+02  0.51100000000E-03 0. -1.
         23    2    1    2    0    0  0.00000000000E+00  0.00000000000E+00 -0.35527136788E-14  0.91188000000E+02  0.91188000000E+02 0.  0.
    9900012    2    3    3    0    0  0.10200330308E+02  0.30459354925E+02 -0.17998890657E+02  0.54367094176E+02  0.40000022792E+02 0.  0.
        -12    1    3    3    0    0 -0.10200330308E+02 -0.30459354925E+02  0.17998890657E+02  0.36820905824E+02  0.00000000000E+00 0.  1.
         11    1    4    4    0    0  0.37103602246E+01  0.15322227805E+02 -0.95537336815E+01  0.18433970419E+02  0.51100000000E-03 0. -1.
        -11    1    4    4    0    0 -0.41525205833E+01  0.57397694399E+00  0.95652226744E+01  0.10443484179E+02  0.51100000000E-03 0.  1.
        -12    1    4    4    0    0  0.10642490666E+02  0.14563150176E+02 -0.18010379650E+02  0.25489639577E+02  0.00000000000E+00 0.  1.
</event>
<event>
 8    1  0.2460897E-006  0.9118800E+02  0.7816164E-02  0.1184000E+00
        -11   -1    0    0    0    0  0.00000000000E+00  0.00000000000E+00  0.45593999997E+02  0.45594000000E+02  0.51100000000E-03 0. -1.
         11   -1    0    0    0    0 -0.00000000000E+00 -0.00000000000E+00 -0.45593999997E+02  0.45594000000E+02  0.51100000000E-03 0.  1.
         23    2    1    2    0    0  0.00000000000E+00  0.00000000000E+00  0.00000000000E+00  0.91188000000E+02  0.91188000000E+02 0.  0.
    9900012    2    3    3    0    0 -0.11279027720E+02  0.34957530278E+02  0.25560693651E+01  0.54367097240E+02  0.40000029778E+02 0.  0.
        -12    1    3    3    0    0  0.11279027720E+02 -0.34957530278E+02 -0.25560693651E+01  0.36820902760E+02  0.00000000000E+00 0.  1.
         11    1    4    4    0    0  0.36719843397E+01 -0.17527319459E+01  0.11216089678E+01  0.42206095772E+01  0.51100000000E-03 0. -1.
        -11    1    4    4    0    0  0.72561790359E+01  0.22771051553E+02  0.25758396429E+00  0.23900612393E+02  0.51100000000E-03 0.  1.
         12    1    4    4    0    0 -0.22207191096E+02  0.13939210671E+02  0.11768764330E+01  0.26245875269E+02  0.00000000000E+00 0. -1.
</event>
<event>
 8    1  0.2460897E-006  0.9118800E+02  0.7816164E-02  0.1184000E+00
        -11   -1    0    0    0    0  0.00000000000E+00  0.00000000000E+00  0.45593999997E+02  0.45594000000E+02  0.51100000000E-03 0. -1.
         11   -1    0    0    0    0 -0.00000000000E+00 -0.00000000000E+00 -0.45593999997E+02  0.45594000000E+02  0.51100000000E-03 0.  1.
         23    2    1    2    0    0  0.17763568394E-14  0.17763568394E-14  0.00000000000E+00  0.91188000000E+02  0.91188000000E+02 0.  0.
    9900012    2    3    3    0    0 -0.11048819031E+02  0.12719207320E+02 -0.32740261077E+02  0.54367091100E+02  0.40000015781E+02 0.  0.
         12    1    3    3    0    0  0.11048819031E+02 -0.12719207320E+02  0.32740261077E+02  0.36820908900E+02  0.00000000000E+00 0. -1.
         11    1    4    4    0    0 -0.18615353162E+02 -0.59828304823E+01 -0.52589526031E+01  0.20248017599E+02  0.51100000000E-03 0. -1.
        -11    1    4    4    0    0  0.26762770645E+01  0.81323685907E+01 -0.12260622568E+02  0.14953954121E+02  0.51100000000E-03 0.  1.
         12    1    4    4    0    0  0.48902570674E+01  0.10569669211E+02 -0.15220685906E+02  0.19165119381E+02  0.00000000000E+00 0. -1.
</event>
<event>
 8    1  0.2460897E-006  0.9118800E+02  0.7816164E-02  0.1184000E+00
        -11   -1    0    0    0    0  0.00000000000E+00  0.00000000000E+00  0.45593999997E+02  0.45594000000E+02  0.51100000000E-03 0.  1.
         11   -1    0    0    0    0 -0.00000000000E+00 -0.00000000000E+00 -0.45593999997E+02  0.45594000000E+02  0.51100000000E-03 0. -1.
         23    2    1    2    0    0  0.35527136788E-14  0.00000000000E+00  0.00000000000E+00  0.91188000000E+02  0.91188000000E+02 0.  0.
    9900012    2    3    3    0    0 -0.31309716710E+02  0.17337875616E+02 -0.86533750053E+01  0.54367065869E+02  0.39999958261E+02 0.  0.
         12    1    3    3    0    0  0.31309716710E+02 -0.17337875616E+02  0.86533750053E+01  0.36820934131E+02  0.00000000000E+00 0. -1.
         11    1    4    4    0    0  0.15508231555E+01  0.55484485082E+01 -0.75060552098E+01  0.94620927062E+01  0.51100000000E-03 0. -1.
        -11    1    4    4    0    0 -0.16101337334E+02  0.17698027077E+02  0.75919523886E+01  0.25102011228E+02  0.51100000000E-03 0.  1.
        -12    1    4    4    0    0 -0.16759202532E+02 -0.59085999692E+01 -0.87392721841E+01  0.19802961935E+02  0.00000000000E+00 0.  1.
</event>
<event>
 8    1  0.2460897E-006  0.9118800E+02  0.7816164E-02  0.1184000E+00
        -11   -1    0    0    0    0  0.00000000000E+00  0.00000000000E+00  0.45593999997E+02  0.45594000000E+02  0.51100000000E-03 0. -1.
         11   -1    0    0    0    0 -0.00000000000E+00 -0.00000000000E+00 -0.45593999997E+02  0.45594000000E+02  0.51100000000E-03 0.  1.
         23    2    1    2    0    0 -0.35527136788E-14  0.00000000000E+00  0.88817841970E-15  0.91188000000E+02  0.91188000000E+02 0.  0.
    9900012    2    3    3    0    0  0.16138381808E+02 -0.32730961022E+02  0.49003614783E+01  0.54367126579E+02  0.40000096663E+02 0.  0.
        -12    1    3    3    0    0 -0.16138381808E+02  0.32730961022E+02 -0.49003614783E+01  0.36820873421E+02  0.00000000000E+00 0.  1.
         11    1    4    4    0    0  0.39390504671E+01 -0.74134819290E+01  0.30315374254E+00  0.84004604247E+01  0.51100000000E-03 0. -1.
        -11    1    4    4    0    0  0.40887776183E+01  0.29582876024E+01  0.14162291914E+02  0.15034629376E+02  0.51100000000E-03 0.  1.
        -12    1    4    4    0    0  0.81105537231E+01 -0.28275766696E+02 -0.95650841783E+01  0.30932036779E+02  0.00000000000E+00 0.  1.
</event>
<event>
 8    1  0.2460897E-006  0.9118800E+02  0.7816164E-02  0.1184000E+00
        -11   -1    0    0    0    0  0.00000000000E+00  0.00000000000E+00  0.45593999997E+02  0.45594000000E+02  0.51100000000E-03 0. -1.
         11   -1    0    0    0    0 -0.00000000000E+00 -0.00000000000E+00 -0.45593999997E+02  0.45594000000E+02  0.51100000000E-03 0.  1.
         23    2    1    2    0    0  0.00000000000E+00  0.00000000000E+00  0.00000000000E+00  0.91188000000E+02  0.91188000000E+02 0.  0.
    9900012    2    3    3    0    0 -0.42813982280E+01  0.24500579384E+02  0.27150894102E+02  0.54367084593E+02  0.40000000946E+02 0.  0.
        -12    1    3    3    0    0  0.42813982280E+01 -0.24500579384E+02 -0.27150894102E+02  0.36820915407E+02  0.00000000000E+00 0.  1.
         11    1    4    4    0    0  0.77592667301E+00  0.14286089016E+01  0.66108171452E+01  0.68077815170E+01  0.51100000000E-03 0. -1.
        -11    1    4    4    0    0 -0.14789870930E+02  0.14359514781E+02  0.26188153207E+02  0.33327995972E+02  0.51100000000E-03 0.  1.
        -12    1    4    4    0    0  0.97325460288E+01  0.87124557008E+01 -0.56480762504E+01  0.14231307103E+02  0.00000000000E+00 0.  1.
</event>
<event>
 8    1  0.2460897E-006  0.9118800E+02  0.7816164E-02  0.1184000E+00
        -11   -1    0    0    0    0  0.00000000000E+00  0.00000000000E+00  0.45593999997E+02  0.45594000000E+02  0.51100000000E-03 0.  1.
         11   -1    0    0    0    0 -0.00000000000E+00 -0.00000000000E+00 -0.45593999997E+02  0.45594000000E+02  0.51100000000E-03 0. -1.
         23    2    1    2    0    0 -0.17763568394E-14  0.00000000000E+00 -0.71054273576E-14  0.91188000000E+02  0.91188000000E+02 0.  0.
    9900012    2    3    3    0    0  0.54397157301E+01  0.60627925010E+01  0.35908663665E+02  0.54367080860E+02  0.39999992437E+02 0.  0.
         12    1    3    3    0    0 -0.54397157301E+01 -0.60627925010E+01 -0.35908663665E+02  0.36820919140E+02  0.00000000000E+00 0. -1.
         11    1    4    4    0    0  0.75806609499E+01  0.20727176784E+01  0.96698441387E+00  0.79181840171E+01  0.51100000000E-03 0. -1.
        -11    1    4    4    0    0  0.13999134729E+02  0.62572776248E+00  0.17965266392E+02  0.22784163474E+02  0.51100000000E-03 0.  1.
        -12    1    4    4    0    0 -0.16140079949E+02  0.33643470602E+01  0.16976412858E+02  0.23664733369E+02  0.00000000000E+00 0.  1.
</event>
<event>
 8    1  0.2460897E-006  0.9118800E+02  0.7816164E-02  0.1184000E+00
        -11   -1    0    0    0    0  0.00000000000E+00  0.00000000000E+00  0.45593999997E+02  0.45594000000E+02  0.51100000000E-03 0.  1.
         11   -1    0    0    0    0 -0.00000000000E+00 -0.00000000000E+00 -0.45593999997E+02  0.45594000000E+02  0.51100000000E-03 0. -1.
         23    2    1    2    0    0  0.17763568394E-14  0.00000000000E+00 -0.35527136788E-14  0.91188000000E+02  0.91188000000E+02 0.  0.
    9900012    2    3    3    0    0  0.99809941100E+01  0.24788571559E+02  0.25331516507E+02  0.54367092191E+02  0.40000018268E+02 0.  0.
         12    1    3    3    0    0 -0.99809941100E+01 -0.24788571559E+02 -0.25331516507E+02  0.36820907809E+02  0.00000000000E+00 0. -1.
         11    1    4    4    0    0 -0.32978445626E+01 -0.57690434020E+01  0.45484163019E+01  0.80526847480E+01  0.51100000000E-03 0. -1.
        -11    1    4    4    0    0  0.12979479149E+02  0.27518882347E+02  0.26163239160E+02  0.40128180225E+02  0.51100000000E-03 0.  1.
        -12    1    4    4    0    0  0.29935952358E+00  0.30387326139E+01 -0.53801389544E+01  0.61862272179E+01  0.00000000000E+00 0.  1.
</event>
<event>
 8    1  0.2460897E-006  0.9118800E+02  0.7816164E-02  0.1184000E+00
        -11   -1    0    0    0    0  0.00000000000E+00  0.00000000000E+00  0.45593999997E+02  0.45594000000E+02  0.51100000000E-03 0. -1.
         11   -1    0    0    0    0 -0.00000000000E+00 -0.00000000000E+00 -0.45593999997E+02  0.45594000000E+02  0.51100000000E-03 0.  1.
         23    2    1    2    0    0  0.35527136788E-14  0.00000000000E+00  0.35527136788E-14  0.91188000000E+02  0.91188000000E+02 0.  0.
    9900012    2    3    3    0    0  0.24365391553E+02 -0.13232093632E+02  0.24228505686E+02  0.54367067160E+02  0.39999961205E+02 0.  0.
        -12    1    3    3    0    0 -0.24365391553E+02  0.13232093632E+02 -0.24228505686E+02  0.36820932840E+02  0.00000000000E+00 0.  1.
         11    1    4    4    0    0  0.10020560555E+01 -0.54321945373E+00  0.17603138398E+02  0.17640002422E+02  0.51100000000E-03 0. -1.
        -11    1    4    4    0    0  0.10487675170E+02 -0.30551162406E+01 -0.91133522342E+01  0.14225971142E+02  0.51100000000E-03 0.  1.
        -12    1    4    4    0    0  0.12875660327E+02 -0.96337579379E+01  0.15738719522E+02  0.22501093597E+02  0.00000000000E+00 0.  1.
</event>
<event>
 8    1  0.2460897E-006  0.9118800E+02  0.7816164E-02  0.1184000E+00
        -11   -1    0    0    0    0  0.00000000000E+00  0.00000000000E+00  0.45593999997E+02  0.45594000000E+02  0.51100000000E-03 0.  1.
         11   -1    0    0    0    0 -0.00000000000E+00 -0.00000000000E+00 -0.45593999997E+02  0.45594000000E+02  0.51100000000E-03 0. -1.
         23    2    1    2    0    0 -0.71054273576E-14  0.00000000000E+00  0.00000000000E+00  0.91188000000E+02  0.91188000000E+02 0.  0.
    9900012    2    3    3    0    0 -0.19397298518E+02  0.30983682314E+02  0.44202341847E+01  0.54367051754E+02  0.39999926083E+02 0.  0.
        -12    1    3    3    0    0  0.19397298518E+02 -0.30983682314E+02 -0.44202341847E+01  0.36820948246E+02  0.00000000000E+00 0.  1.
         11    1    4    4    0    0 -0.18956949050E+01  0.17025368879E+02 -0.67610155747E+01  0.18416519120E+02  0.51100000000E-03 0. -1.
        -11    1    4    4    0    0  0.44475135832E+01  0.69192909204E+01  0.98910080958E+01  0.12864253003E+02  0.51100000000E-03 0.  1.
        -12    1    4    4    0    0 -0.21949117196E+02  0.70390225141E+01  0.12902416635E+01  0.23086279631E+02  0.00000000000E+00 0.  1.
</event>
<event>
 8    1  0.2460897E-006  0.9118800E+02  0.7816164E-02  0.1184000E+00
        -11   -1    0    0    0    0  0.00000000000E+00  0.00000000000E+00  0.45593999997E+02  0.45594000000E+02  0.51100000000E-03 0. -1.
         11   -1    0    0    0    0 -0.00000000000E+00 -0.00000000000E+00 -0.45593999997E+02  0.45594000000E+02  0.51100000000E-03 0.  1.
         23    2    1    2    0    0  0.00000000000E+00  0.00000000000E+00 -0.35527136788E-14  0.91188000000E+02  0.91188000000E+02 0.  0.
    9900012    2    3    3    0    0  0.24377913261E+02 -0.13510172284E+02  0.24061825305E+02  0.54367097688E+02  0.40000030799E+02 0.  0.
        -12    1    3    3    0    0 -0.24377913261E+02  0.13510172284E+02 -0.24061825305E+02  0.36820902312E+02  0.00000000000E+00 0.  1.
         11    1    4    4    0    0  0.24991695558E+02 -0.71059872680E+01 -0.28347132317E+00  0.25983846100E+02  0.51100000000E-03 0. -1.
        -11    1    4    4    0    0  0.48121440738E+01 -0.10952313032E+01  0.31136351673E+01  0.58353223056E+01  0.51100000000E-03 0.  1.
        -12    1    4    4    0    0 -0.54259263709E+01 -0.53089537124E+01  0.21231661461E+02  0.22547929282E+02  0.00000000000E+00 0.  1.
</event>
<event>
 8    1  0.2460897E-006  0.9118800E+02  0.7816164E-02  0.1184000E+00
        -11   -1    0    0    0    0  0.00000000000E+00  0.00000000000E+00  0.45593999997E+02  0.45594000000E+02  0.51100000000E-03 0.  1.
         11   -1    0    0    0    0 -0.00000000000E+00 -0.00000000000E+00 -0.45593999997E+02  0.45594000000E+02  0.51100000000E-03 0. -1.
         23    2    1    2    0    0  0.00000000000E+00  0.00000000000E+00 -0.22204460493E-15  0.91188000000E+02  0.91188000000E+02 0.  0.
    9900012    2    3    3    0    0 -0.25338640575E+02  0.26689704719E+02  0.11804119427E+01  0.54367076376E+02  0.39999982214E+02 0.  0.
         12    1    3    3    0    0  0.25338640575E+02 -0.26689704719E+02 -0.11804119427E+01  0.36820923624E+02  0.00000000000E+00 0. -1.
         11    1    4    4    0    0 -0.10457961337E+02  0.15340941118E+02 -0.18893409859E+01  0.18662342815E+02  0.51100000000E-03 0. -1.
        -11    1    4    4    0    0 -0.47895898605E+01  0.19877027445E+02  0.74870990378E+01  0.21773677763E+02  0.51100000000E-03 0.  1.
        -12    1    4    4    0    0 -0.10091089377E+02 -0.85282638433E+01 -0.44173461093E+01  0.13931055798E+02  0.00000000000E+00 0.  1.
</event>
<event>
 8    1  0.2460897E-006  0.9118800E+02  0.7816164E-02  0.1184000E+00
        -11   -1    0    0    0    0  0.00000000000E+00  0.00000000000E+00  0.45593999997E+02  0.45594000000E+02  0.51100000000E-03 0. -1.
         11   -1    0    0    0    0 -0.00000000000E+00 -0.00000000000E+00 -0.45593999997E+02  0.45594000000E+02  0.51100000000E-03 0.  1.
         23    2    1    2    0    0  0.35527136788E-14  0.00000000000E+00  0.00000000000E+00  0.91188000000E+02  0.91188000000E+02 0.  0.
    9900012    2    3    3    0    0  0.23309946441E+02  0.12232623287E+02  0.25744676682E+02  0.54367094892E+02  0.40000024424E+02 0.  0.
        -12    1    3    3    0    0 -0.23309946441E+02 -0.12232623287E+02 -0.25744676682E+02  0.36820905108E+02  0.00000000000E+00 0.  1.
         11    1    4    4    0    0  0.53720554741E+00 -0.58780480885E+01  0.15116678600E+02  0.16228185705E+02  0.51100000000E-03 0. -1.
        -11    1    4    4    0    0 -0.26651846296E+01  0.37951688242E+01 -0.34032005264E+01  0.57522421366E+01  0.51100000000E-03 0.  1.
         12    1    4    4    0    0  0.25437925523E+02  0.14315502551E+02  0.14031198608E+02  0.32386667050E+02  0.00000000000E+00 0. -1.
</event>
<event>
 8    1  0.2460897E-006  0.9118800E+02  0.7816164E-02  0.1184000E+00
        -11   -1    0    0    0    0  0.00000000000E+00  0.00000000000E+00  0.45593999997E+02  0.45594000000E+02  0.51100000000E-03 0.  1.
         11   -1    0    0    0    0 -0.00000000000E+00 -0.00000000000E+00 -0.45593999997E+02  0.45594000000E+02  0.51100000000E-03 0. -1.
         23    2    1    2    0    0  0.35527136788E-14  0.17763568394E-14  0.00000000000E+00  0.91188000000E+02  0.91188000000E+02 0.  0.
    9900012    2    3    3    0    0 -0.13497215123E+02 -0.99184059133E+01  0.32790696396E+02  0.54367090695E+02  0.40000014857E+02 0.  0.
         12    1    3    3    0    0  0.13497215123E+02  0.99184059133E+01 -0.32790696396E+02  0.36820909305E+02  0.00000000000E+00 0. -1.
         11    1    4    4    0    0  0.11155756454E+02 -0.31675997877E+01  0.53701967226E+01  0.12779812345E+02  0.51100000000E-03 0. -1.
        -11    1    4    4    0    0 -0.98046848296E+01  0.36597489611E+01  0.18781283756E+02  0.21500284343E+02  0.51100000000E-03 0.  1.
         12    1    4    4    0    0 -0.14848286747E+02 -0.10410555087E+02  0.86392159177E+01  0.20086994006E+02  0.00000000000E+00 0. -1.
</event>
<event>
 8    1  0.2460897E-006  0.9118800E+02  0.7816164E-02  0.1184000E+00
        -11   -1    0    0    0    0  0.00000000000E+00  0.00000000000E+00  0.45593999997E+02  0.45594000000E+02  0.51100000000E-03 0. -1.
         11   -1    0    0    0    0 -0.00000000000E+00 -0.00000000000E+00 -0.45593999997E+02  0.45594000000E+02  0.51100000000E-03 0.  1.
         23    2    1    2    0    0 -0.88817841970E-15  0.00000000000E+00  0.00000000000E+00  0.91188000000E+02  0.91188000000E+02 0.  0.
    9900012    2    3    3    0    0  0.61464937411E+01 -0.15183585676E+02  0.32976641435E+02  0.54367088284E+02  0.40000009360E+02 0.  0.
        -12    1    3    3    0    0 -0.61464937411E+01  0.15183585676E+02 -0.32976641435E+02  0.36820911716E+02  0.00000000000E+00 0.  1.
         11    1    4    4    0    0 -0.58163446625E+01  0.79084875915E+01  0.71665920684E+01  0.12154591040E+02  0.51100000000E-03 0.  1.
        -11    1    4    4    0    0  0.12370188787E+02 -0.83309704433E+01  0.22637644811E+02  0.27108847301E+02  0.51100000000E-03 0. -1.
         12    1    4    4    0    0 -0.40735038330E+00 -0.14761102824E+02  0.31724045560E+01  0.15103649943E+02  0.00000000000E+00 0. -1.
</event>
<event>
 8    1  0.2460897E-006  0.9118800E+02  0.7816164E-02  0.1184000E+00
        -11   -1    0    0    0    0  0.00000000000E+00  0.00000000000E+00  0.45593999997E+02  0.45594000000E+02  0.51100000000E-03 0. -1.
         11   -1    0    0    0    0 -0.00000000000E+00 -0.00000000000E+00 -0.45593999997E+02  0.45594000000E+02  0.51100000000E-03 0.  1.
         23    2    1    2    0    0  0.00000000000E+00  0.88817841970E-15 -0.71054273576E-14  0.91188000000E+02  0.91188000000E+02 0.  0.
    9900012    2    3    3    0    0 -0.17858692848E+02 -0.29359670200E+01  0.32065863311E+02  0.54367185201E+02  0.40000230301E+02 0.  0.
        -12    1    3    3    0    0  0.17858692848E+02  0.29359670200E+01 -0.32065863311E+02  0.36820814799E+02  0.00000000000E+00 0.  1.
         11    1    4    4    0    0 -0.74832704622E+01  0.39552660230E+01  0.15673891563E+02  0.17813319262E+02  0.51100000000E-03 0. -1.
        -11    1    4    4    0    0 -0.16233065556E+02  0.11833414011E+01 -0.12106941458E+01  0.16321105808E+02  0.51100000000E-03 0.  1.
         12    1    4    4    0    0  0.58576431699E+01 -0.80745744441E+01  0.17602665894E+02  0.20232760131E+02  0.00000000000E+00 0. -1.
</event>
<event>
 8    1  0.2460897E-006  0.9118800E+02  0.7816164E-02  0.1184000E+00
        -11   -1    0    0    0    0  0.00000000000E+00  0.00000000000E+00  0.45593999997E+02  0.45594000000E+02  0.51100000000E-03 0.  1.
         11   -1    0    0    0    0 -0.00000000000E+00 -0.00000000000E+00 -0.45593999997E+02  0.45594000000E+02  0.51100000000E-03 0. -1.
         23    2    1    2    0    0  0.00000000000E+00 -0.88817841970E-15  0.35527136788E-14  0.91188000000E+02  0.91188000000E+02 0.  0.
    9900012    2    3    3    0    0 -0.31968868114E+02 -0.69408997166E+01  0.16899552931E+02  0.54367088732E+02  0.40000010383E+02 0.  0.
        -12    1    3    3    0    0  0.31968868114E+02  0.69408997166E+01 -0.16899552931E+02  0.36820911268E+02  0.00000000000E+00 0.  1.
         11    1    4    4    0    0 -0.38912268218E+01  0.12046706436E+02  0.27729972563E+01  0.12959718214E+02  0.51100000000E-03 0. -1.
        -11    1    4    4    0    0 -0.11697006332E+02 -0.15890159230E+02  0.14889968143E+02  0.24718986003E+02  0.51100000000E-03 0.  1.
        -12    1    4    4    0    0 -0.16380634960E+02 -0.30974469227E+01 -0.76341246854E+00  0.16688384515E+02  0.00000000000E+00 0.  1.
</event>
<event>
 8    1  0.2460897E-006  0.9118800E+02  0.7816164E-02  0.1184000E+00
        -11   -1    0    0    0    0  0.00000000000E+00  0.00000000000E+00  0.45593999997E+02  0.45594000000E+02  0.51100000000E-03 0.  1.
         11   -1    0    0    0    0 -0.00000000000E+00 -0.00000000000E+00 -0.45593999997E+02  0.45594000000E+02  0.51100000000E-03 0. -1.
         23    2    1    2    0    0 -0.17763568394E-14  0.00000000000E+00  0.00000000000E+00  0.91188000000E+02  0.91188000000E+02 0.  0.
    9900012    2    3    3    0    0 -0.86061285289E+01  0.21327100998E+02 -0.28755367935E+02  0.54367056635E+02  0.39999937210E+02 0.  0.
        -12    1    3    3    0    0  0.86061285289E+01 -0.21327100998E+02  0.28755367935E+02  0.36820943365E+02  0.00000000000E+00 0.  1.
         11    1    4    4    0    0 -0.51959260728E+01  0.81231892373E+01 -0.95564026031E+01  0.13576033372E+02  0.51100000000E-03 0. -1.
        -11    1    4    4    0    0  0.47052420110E+01  0.52640425389E+01 -0.26412399370E+02  0.27339793104E+02  0.51100000000E-03 0.  1.
        -12    1    4    4    0    0 -0.81154444671E+01  0.79398692218E+01  0.72134340381E+01  0.13451230159E+02  0.00000000000E+00 0.  1.
</event>
<event>
 8    1  0.2460897E-006  0.9118800E+02  0.7816164E-02  0.1184000E+00
        -11   -1    0    0    0    0  0.00000000000E+00  0.00000000000E+00  0.45593999997E+02  0.45594000000E+02  0.51100000000E-03 0. -1.
         11   -1    0    0    0    0 -0.00000000000E+00 -0.00000000000E+00 -0.45593999997E+02  0.45594000000E+02  0.51100000000E-03 0.  1.
         23    2    1    2    0    0  0.00000000000E+00  0.00000000000E+00  0.71054273576E-14  0.91188000000E+02  0.91188000000E+02 0.  0.
    9900012    2    3    3    0    0 -0.56546042388E+01  0.86205464150E+01  0.35348145468E+02  0.54367085324E+02  0.40000002612E+02 0.  0.
        -12    1    3    3    0    0  0.56546042388E+01 -0.86205464150E+01 -0.35348145468E+02  0.36820914676E+02  0.00000000000E+00 0.  1.
         11    1    4    4    0    0 -0.11248434732E+01 -0.51669187993E+01  0.34254461297E+00  0.52990244188E+01  0.51100000000E-03 0. -1.
        -11    1    4    4    0    0  0.13405097771E+02  0.50467374737E+01  0.12719020202E+02  0.19155669671E+02  0.51100000000E-03 0.  1.
        -12    1    4    4    0    0 -0.17934858536E+02  0.87407277406E+01  0.22286580652E+02  0.29912391234E+02  0.00000000000E+00 0.  1.
</event>
<event>
 8    1  0.2460897E-006  0.9118800E+02  0.7816164E-02  0.1184000E+00
        -11   -1    0    0    0    0  0.00000000000E+00  0.00000000000E+00  0.45593999997E+02  0.45594000000E+02  0.51100000000E-03 0.  1.
         11   -1    0    0    0    0 -0.00000000000E+00 -0.00000000000E+00 -0.45593999997E+02  0.45594000000E+02  0.51100000000E-03 0. -1.
         23    2    1    2    0    0  0.00000000000E+00  0.00000000000E+00 -0.35527136788E-14  0.91188000000E+02  0.91188000000E+02 0.  0.
    9900012    2    3    3    0    0 -0.26945700416E+02  0.56167168719E+01 -0.24457333130E+02  0.54367089865E+02  0.40000012965E+02 0.  0.
        -12    1    3    3    0    0  0.26945700416E+02 -0.56167168719E+01  0.24457333130E+02  0.36820910135E+02  0.00000000000E+00 0.  1.
         11    1    4    4    0    0 -0.20856989402E+01  0.88682977533E+01 -0.18246335652E+02  0.20394254341E+02  0.51100000000E-03 0. -1.
        -11    1    4    4    0    0 -0.88041126687E+01  0.94322262096E+01 -0.31728411300E+01  0.13287069363E+02  0.51100000000E-03 0.  1.
         12    1    4    4    0    0 -0.16055888807E+02 -0.12683807091E+02 -0.30381563479E+01  0.20685766162E+02  0.00000000000E+00 0. -1.
</event>
<event>
 8    1  0.2460897E-006  0.9118800E+02  0.7816164E-02  0.1184000E+00
        -11   -1    0    0    0    0  0.00000000000E+00  0.00000000000E+00  0.45593999997E+02  0.45594000000E+02  0.51100000000E-03 0.  1.
         11   -1    0    0    0    0 -0.00000000000E+00 -0.00000000000E+00 -0.45593999997E+02  0.45594000000E+02  0.51100000000E-03 0. -1.
         23    2    1    2    0    0 -0.35527136788E-14  0.71054273576E-14 -0.17763568394E-14  0.91188000000E+02  0.91188000000E+02 0.  0.
    9900012    2    3    3    0    0  0.14724348427E+02 -0.32302532471E+02  0.97734506184E+01  0.54367076904E+02  0.39999983417E+02 0.  0.
        -12    1    3    3    0    0 -0.14724348427E+02  0.32302532471E+02 -0.97734506184E+01  0.36820923096E+02  0.00000000000E+00 0.  1.
         11    1    4    4    0    0  0.51658848527E+00 -0.29946786720E+02  0.78249036352E+01  0.30956518145E+02  0.51100000000E-03 0. -1.
        -11    1    4    4    0    0  0.22754576960E+01  0.26526562098E+01  0.82921638081E+01  0.89985706406E+01  0.51100000000E-03 0.  1.
        -12    1    4    4    0    0  0.11932302246E+02 -0.50084019618E+01 -0.63436168249E+01  0.14411988118E+02  0.00000000000E+00 0.  1.
</event>
<event>
 8    1  0.2460897E-006  0.9118800E+02  0.7816164E-02  0.1184000E+00
        -11   -1    0    0    0    0  0.00000000000E+00  0.00000000000E+00  0.45593999997E+02  0.45594000000E+02  0.51100000000E-03 0.  1.
         11   -1    0    0    0    0 -0.00000000000E+00 -0.00000000000E+00 -0.45593999997E+02  0.45594000000E+02  0.51100000000E-03 0. -1.
         23    2    1    2    0    0  0.35527136788E-14  0.44408920985E-15  0.00000000000E+00  0.91188000000E+02  0.91188000000E+02 0.  0.
    9900012    2    3    3    0    0  0.31074300039E+02 -0.35137865666E+01 -0.19437623640E+02  0.54367081602E+02  0.39999994127E+02 0.  0.
        -12    1    3    3    0    0 -0.31074300039E+02  0.35137865666E+01  0.19437623640E+02  0.36820918398E+02  0.00000000000E+00 0.  1.
         11    1    4    4    0    0  0.85225686277E+01 -0.32209588445E+01 -0.84846032371E+01  0.12449788924E+02  0.51100000000E-03 0. -1.
        -11    1    4    4    0    0  0.71496238480E+01  0.87945436729E+01  0.94711961126E+01  0.14770398629E+02  0.51100000000E-03 0.  1.
         12    1    4    4    0    0  0.15402107563E+02 -0.90873713951E+01 -0.20424216516E+02  0.27146894049E+02  0.00000000000E+00 0. -1.
</event>
<event>
 8    1  0.2460897E-006  0.9118800E+02  0.7816164E-02  0.1184000E+00
        -11   -1    0    0    0    0  0.00000000000E+00  0.00000000000E+00  0.45593999997E+02  0.45594000000E+02  0.51100000000E-03 0. -1.
         11   -1    0    0    0    0 -0.00000000000E+00 -0.00000000000E+00 -0.45593999997E+02  0.45594000000E+02  0.51100000000E-03 0.  1.
         23    2    1    2    0    0  0.00000000000E+00  0.35527136788E-14  0.00000000000E+00  0.91188000000E+02  0.91188000000E+02 0.  0.
    9900012    2    3    3    0    0 -0.87513526979E+01  0.28811266027E+02  0.21192093316E+02  0.54367081445E+02  0.39999993770E+02 0.  0.
        -12    1    3    3    0    0  0.87513526979E+01 -0.28811266027E+02 -0.21192093316E+02  0.36820918555E+02  0.00000000000E+00 0.  1.
         11    1    4    4    0    0  0.10682226616E+02  0.20997271079E+02  0.49399551154E+01  0.24070698267E+02  0.51100000000E-03 0. -1.
        -11    1    4    4    0    0  0.79970072904E+00  0.50900566911E+01  0.32651085382E+01  0.60999288850E+01  0.51100000000E-03 0.  1.
        -12    1    4    4    0    0 -0.20233280043E+02  0.27239382566E+01  0.12987029663E+02  0.24196454293E+02  0.00000000000E+00 0.  1.
</event>
<event>
 8    1  0.2460897E-006  0.9118800E+02  0.7816164E-02  0.1184000E+00
        -11   -1    0    0    0    0  0.00000000000E+00  0.00000000000E+00  0.45593999997E+02  0.45594000000E+02  0.51100000000E-03 0. -1.
         11   -1    0    0    0    0 -0.00000000000E+00 -0.00000000000E+00 -0.45593999997E+02  0.45594000000E+02  0.51100000000E-03 0.  1.
         23    2    1    2    0    0  0.88817841970E-15  0.35527136788E-14  0.00000000000E+00  0.91188000000E+02  0.91188000000E+02 0.  0.
    9900012    2    3    3    0    0 -0.10326517105E+01 -0.30246102609E+02 -0.20973465925E+02  0.54367090648E+02  0.40000014750E+02 0.  0.
         12    1    3    3    0    0  0.10326517105E+01  0.30246102609E+02  0.20973465925E+02  0.36820909352E+02  0.00000000000E+00 0. -1.
         11    1    4    4    0    0  0.11774560069E+02 -0.46155699672E+01  0.19757865123E+01  0.12800292323E+02  0.51100000000E-03 0. -1.
        -11    1    4    4    0    0 -0.13664428038E+02 -0.15978954663E+02 -0.23898881549E+02  0.31830804660E+02  0.51100000000E-03 0.  1.
         12    1    4    4    0    0  0.85721625859E+00 -0.96515779794E+01  0.94962911189E+00  0.97359936656E+01  0.00000000000E+00 0. -1.
</event>
<event>
 8    1  0.2460897E-006  0.9118800E+02  0.7816164E-02  0.1184000E+00
        -11   -1    0    0    0    0  0.00000000000E+00  0.00000000000E+00  0.45593999997E+02  0.45594000000E+02  0.51100000000E-03 0.  1.
         11   -1    0    0    0    0 -0.00000000000E+00 -0.00000000000E+00 -0.45593999997E+02  0.45594000000E+02  0.51100000000E-03 0. -1.
         23    2    1    2    0    0  0.00000000000E+00 -0.17763568394E-14  0.00000000000E+00  0.91188000000E+02  0.91188000000E+02 0.  0.
    9900012    2    3    3    0    0  0.11692980107E+02 -0.15917448739E+02 -0.31075538245E+02  0.54367081552E+02  0.39999994015E+02 0.  0.
        -12    1    3    3    0    0 -0.11692980107E+02  0.15917448739E+02  0.31075538245E+02  0.36820918448E+02  0.00000000000E+00 0.  1.
         11    1    4    4    0    0  0.16970689454E+02 -0.17182708130E+02 -0.27066443001E+02  0.36274537850E+02  0.51100000000E-03 0. -1.
        -11    1    4    4    0    0  0.22911399582E+00 -0.94277244042E-01  0.63112816443E+01  0.63161426263E+01  0.51100000000E-03 0.  1.
         12    1    4    4    0    0 -0.55068233428E+01  0.13595366356E+01 -0.10320376888E+02  0.11776401076E+02  0.00000000000E+00 0. -1.
</event>
<event>
 8    1  0.2460897E-006  0.9118800E+02  0.7816164E-02  0.1184000E+00
        -11   -1    0    0    0    0  0.00000000000E+00  0.00000000000E+00  0.45593999997E+02  0.45594000000E+02  0.51100000000E-03 0.  1.
         11   -1    0    0    0    0 -0.00000000000E+00 -0.00000000000E+00 -0.45593999997E+02  0.45594000000E+02  0.51100000000E-03 0. -1.
         23    2    1    2    0    0  0.00000000000E+00  0.00000000000E+00  0.00000000000E+00  0.91188000000E+02  0.91188000000E+02 0.  0.
    9900012    2    3    3    0    0  0.85058181392E+01  0.22583449590E+02 -0.27810385253E+02  0.54367100153E+02  0.40000036419E+02 0.  0.
        -12    1    3    3    0    0 -0.85058181392E+01 -0.22583449590E+02  0.27810385253E+02  0.36820899847E+02  0.00000000000E+00 0.  1.
         11    1    4    4    0    0  0.10261267396E+02  0.16335558527E+02 -0.49019491528E+00  0.19297263336E+02  0.51100000000E-03 0. -1.
        -11    1    4    4    0    0 -0.56915326288E+01 -0.34812152877E+01 -0.10153348335E+01  0.67485782673E+01  0.51100000000E-03 0.  1.
         12    1    4    4    0    0  0.39360833717E+01  0.97291063513E+01 -0.26304855504E+02  0.28321258549E+02  0.00000000000E+00 0. -1.
</event>
<event>
 8    1  0.2460897E-006  0.9118800E+02  0.7816164E-02  0.1184000E+00
        -11   -1    0    0    0    0  0.00000000000E+00  0.00000000000E+00  0.45593999997E+02  0.45594000000E+02  0.51100000000E-03 0. -1.
         11   -1    0    0    0    0 -0.00000000000E+00 -0.00000000000E+00 -0.45593999997E+02  0.45594000000E+02  0.51100000000E-03 0.  1.
         23    2    1    2    0    0  0.00000000000E+00 -0.35527136788E-14  0.35527136788E-14  0.91188000000E+02  0.91188000000E+02 0.  0.
    9900012    2    3    3    0    0 -0.12152274428E+02 -0.23257348312E+02  0.25830150760E+02  0.54367099514E+02  0.40000034962E+02 0.  0.
        -12    1    3    3    0    0  0.12152274428E+02  0.23257348312E+02 -0.25830150760E+02  0.36820900486E+02  0.00000000000E+00 0.  1.
         11    1    4    4    0    0  0.70016930467E+01 -0.32082635186E+01  0.51992359265E+01  0.92924009172E+01  0.51100000000E-03 0. -1.
        -11    1    4    4    0    0 -0.10908609898E+02 -0.27066141762E+02  0.16192661623E+02  0.33373284083E+02  0.51100000000E-03 0.  1.
        -12    1    4    4    0    0 -0.82453575771E+01  0.70170569680E+01  0.44382532109E+01  0.11701414514E+02  0.00000000000E+00 0.  1.
</event>
<event>
 8    1  0.2460897E-006  0.9118800E+02  0.7816164E-02  0.1184000E+00
        -11   -1    0    0    0    0  0.00000000000E+00  0.00000000000E+00  0.45593999997E+02  0.45594000000E+02  0.51100000000E-03 0.  1.
         11   -1    0    0    0    0 -0.00000000000E+00 -0.00000000000E+00 -0.45593999997E+02  0.45594000000E+02  0.51100000000E-03 0. -1.
         23    2    1    2    0    0  0.38857805862E-15  0.17763568394E-14  0.00000000000E+00  0.91188000000E+02  0.91188000000E+02 0.  0.
    9900012    2    3    3    0    0 -0.37560822600E+00  0.14126943885E+02 -0.34000991732E+02  0.54367094745E+02  0.40000024090E+02 0.  0.
        -12    1    3    3    0    0  0.37560822600E+00 -0.14126943885E+02  0.34000991732E+02  0.36820905255E+02  0.00000000000E+00 0.  1.
         11    1    4    4    0    0 -0.10349214495E+02 -0.17242701494E+01 -0.38394121563E+01  0.11172306574E+02  0.51100000000E-03 0. -1.
        -11    1    4    4    0    0  0.20018674482E+01  0.11015822876E+02  0.43949247872E+00  0.11204864159E+02  0.51100000000E-03 0.  1.
        -12    1    4    4    0    0  0.79717388205E+01  0.48353911580E+01 -0.30601072054E+02  0.31989924012E+02  0.00000000000E+00 0.  1.
</event>
<event>
 8    1  0.2460897E-006  0.9118800E+02  0.7816164E-02  0.1184000E+00
        -11   -1    0    0    0    0  0.00000000000E+00  0.00000000000E+00  0.45593999997E+02  0.45594000000E+02  0.51100000000E-03 0. -1.
         11   -1    0    0    0    0 -0.00000000000E+00 -0.00000000000E+00 -0.45593999997E+02  0.45594000000E+02  0.51100000000E-03 0.  1.
         23    2    1    2    0    0  0.00000000000E+00  0.35527136788E-14 -0.35527136788E-14  0.91188000000E+02  0.91188000000E+02 0.  0.
    9900012    2    3    3    0    0 -0.16646195214E+02  0.15709592801E+02  0.28842555494E+02  0.54367080287E+02  0.39999991130E+02 0.  0.
        -12    1    3    3    0    0  0.16646195214E+02 -0.15709592801E+02 -0.28842555494E+02  0.36820919713E+02  0.00000000000E+00 0.  1.
         11    1    4    4    0    0 -0.13475131565E+01 -0.19525190464E+01 -0.12904492154E+00  0.23758735628E+01  0.51100000000E-03 0. -1.
        -11    1    4    4    0    0 -0.68718385023E+01 -0.52158707353E+01 -0.51552729237E+01  0.10050090105E+02  0.51100000000E-03 0.  1.
        -12    1    4    4    0    0 -0.84268435548E+01  0.22877982583E+02  0.34126873340E+02  0.41941116620E+02  0.00000000000E+00 0.  1.
</event>
<event>
 8    1  0.2460897E-006  0.9118800E+02  0.7816164E-02  0.1184000E+00
        -11   -1    0    0    0    0  0.00000000000E+00  0.00000000000E+00  0.45593999997E+02  0.45594000000E+02  0.51100000000E-03 0.  1.
         11   -1    0    0    0    0 -0.00000000000E+00 -0.00000000000E+00 -0.45593999997E+02  0.45594000000E+02  0.51100000000E-03 0. -1.
         23    2    1    2    0    0  0.00000000000E+00  0.00000000000E+00  0.00000000000E+00  0.91188000000E+02  0.91188000000E+02 0.  0.
    9900012    2    3    3    0    0  0.11005811917E+02 -0.34823532725E+02 -0.46868405684E+01  0.54367179777E+02  0.40000217936E+02 0.  0.
         12    1    3    3    0    0 -0.11005811917E+02  0.34823532725E+02  0.46868405684E+01  0.36820820223E+02  0.00000000000E+00 0. -1.
         11    1    4    4    0    0  0.71799128107E+01  0.56793997877E+01 -0.39996690804E+01  0.99901993439E+01  0.51100000000E-03 0. -1.
        -11    1    4    4    0    0  0.52246877340E+01 -0.33876448571E+02  0.60697253289E+01  0.34810238373E+02  0.51100000000E-03 0.  1.
         12    1    4    4    0    0 -0.13987886274E+01 -0.66264839414E+01 -0.67568968169E+01  0.95667420601E+01  0.00000000000E+00 0. -1.
</event>
<event>
 8    1  0.2460897E-006  0.9118800E+02  0.7816164E-02  0.1184000E+00
        -11   -1    0    0    0    0  0.00000000000E+00  0.00000000000E+00  0.45593999997E+02  0.45594000000E+02  0.51100000000E-03 0.  1.
         11   -1    0    0    0    0 -0.00000000000E+00 -0.00000000000E+00 -0.45593999997E+02  0.45594000000E+02  0.51100000000E-03 0. -1.
         23    2    1    2    0    0  0.88817841970E-15  0.00000000000E+00  0.00000000000E+00  0.91188000000E+02  0.91188000000E+02 0.  0.
    9900012    2    3    3    0    0 -0.71175230998E+01 -0.27513366674E+02  0.23412300633E+02  0.54367077934E+02  0.39999985767E+02 0.  0.
         12    1    3    3    0    0  0.71175230998E+01  0.27513366674E+02 -0.23412300633E+02  0.36820922066E+02  0.00000000000E+00 0. -1.
         11    1    4    4    0    0 -0.87208619030E+00  0.11349822302E+01  0.16448310746E+02  0.16510470788E+02  0.51100000000E-03 0. -1.
        -11    1    4    4    0    0  0.31229054043E+01 -0.24088304853E+02 -0.16384100234E+01  0.24345088961E+02  0.51100000000E-03 0.  1.
        -12    1    4    4    0    0 -0.93683423139E+01 -0.45600440518E+01  0.86023999111E+01  0.13511518186E+02  0.00000000000E+00 0.  1.
</event>
<event>
 8    1  0.2460897E-006  0.9118800E+02  0.7816164E-02  0.1184000E+00
        -11   -1    0    0    0    0  0.00000000000E+00  0.00000000000E+00  0.45593999997E+02  0.45594000000E+02  0.51100000000E-03 0.  1.
         11   -1    0    0    0    0 -0.00000000000E+00 -0.00000000000E+00 -0.45593999997E+02  0.45594000000E+02  0.51100000000E-03 0. -1.
         23    2    1    2    0    0  0.00000000000E+00 -0.35527136788E-14  0.35527136788E-14  0.91188000000E+02  0.91188000000E+02 0.  0.
    9900012    2    3    3    0    0  0.17700194474E+02  0.27192196590E+02 -0.17408848552E+02  0.54367075953E+02  0.39999981250E+02 0.  0.
         12    1    3    3    0    0 -0.17700194474E+02 -0.27192196590E+02  0.17408848552E+02  0.36820924047E+02  0.00000000000E+00 0. -1.
         11    1    4    4    0    0  0.11933125951E+01 -0.92017774592E-01 -0.72244916973E-01  0.11990336982E+01  0.51100000000E-03 0. -1.
        -11    1    4    4    0    0  0.28324831366E+02  0.11682410520E+02 -0.11734579467E+02  0.32809680630E+02  0.51100000000E-03 0.  1.
         12    1    4    4    0    0 -0.11817949487E+02  0.15601803844E+02 -0.56020241674E+01  0.20358361625E+02  0.00000000000E+00 0. -1.
</event>
<event>
 8    1  0.2460897E-006  0.9118800E+02  0.7816164E-02  0.1184000E+00
        -11   -1    0    0    0    0  0.00000000000E+00  0.00000000000E+00  0.45593999997E+02  0.45594000000E+02  0.51100000000E-03 0. -1.
         11   -1    0    0    0    0 -0.00000000000E+00 -0.00000000000E+00 -0.45593999997E+02  0.45594000000E+02  0.51100000000E-03 0.  1.
         23    2    1    2    0    0  0.00000000000E+00  0.00000000000E+00  0.00000000000E+00  0.91188000000E+02  0.91188000000E+02 0.  0.
    9900012    2    3    3    0    0  0.32690890075E+02  0.12150004326E+02 -0.11809399334E+02  0.54367098169E+02  0.40000031896E+02 0.  0.
         12    1    3    3    0    0 -0.32690890075E+02 -0.12150004326E+02  0.11809399334E+02  0.36820901831E+02  0.00000000000E+00 0. -1.
         11    1    4    4    0    0  0.34750575882E+01 -0.12463350865E+02 -0.61025283667E+01  0.14305662961E+02  0.51100000000E-03 0. -1.
        -11    1    4    4    0    0  0.57372084233E+01  0.25665353496E+00  0.58829260160E-01  0.57432475720E+01  0.51100000000E-03 0.  1.
         12    1    4    4    0    0  0.23478624063E+02  0.24356701657E+02 -0.57657002275E+01  0.34318187636E+02  0.00000000000E+00 0. -1.
</event>
<event>
 8    1  0.2460897E-006  0.9118800E+02  0.7816164E-02  0.1184000E+00
        -11   -1    0    0    0    0  0.00000000000E+00  0.00000000000E+00  0.45593999997E+02  0.45594000000E+02  0.51100000000E-03 0. -1.
         11   -1    0    0    0    0 -0.00000000000E+00 -0.00000000000E+00 -0.45593999997E+02  0.45594000000E+02  0.51100000000E-03 0.  1.
         23    2    1    2    0    0  0.00000000000E+00  0.00000000000E+00  0.35527136788E-14  0.91188000000E+02  0.91188000000E+02 0.  0.
    9900012    2    3    3    0    0  0.28632325514E+01 -0.20918691796E+02 -0.30166047242E+02  0.54367079678E+02  0.39999989743E+02 0.  0.
         12    1    3    3    0    0 -0.28632325514E+01  0.20918691796E+02  0.30166047242E+02  0.36820920322E+02  0.00000000000E+00 0. -1.
         11    1    4    4    0    0 -0.23174638089E+01 -0.22778076300E+02 -0.52224638459E+01  0.23483728991E+02  0.51100000000E-03 0. -1.
        -11    1    4    4    0    0  0.82315605017E+01 -0.48630854619E+01 -0.82419858038E+01  0.12622936218E+02  0.51100000000E-03 0.  1.
         12    1    4    4    0    0 -0.30508641414E+01  0.67224699661E+01 -0.16701597593E+02  0.18260414470E+02  0.00000000000E+00 0. -1.
</event>
<event>
 8    1  0.2460897E-006  0.9118800E+02  0.7816164E-02  0.1184000E+00
        -11   -1    0    0    0    0  0.00000000000E+00  0.00000000000E+00  0.45593999997E+02  0.45594000000E+02  0.51100000000E-03 0.  1.
         11   -1    0    0    0    0 -0.00000000000E+00 -0.00000000000E+00 -0.45593999997E+02  0.45594000000E+02  0.51100000000E-03 0. -1.
         23    2    1    2    0    0  0.00000000000E+00  0.00000000000E+00  0.00000000000E+00  0.91188000000E+02  0.91188000000E+02 0.  0.
    9900012    2    3    3    0    0  0.28272815378E+02 -0.57788223692E+01 -0.22869898134E+02  0.54367094009E+02  0.40000022411E+02 0.  0.
        -12    1    3    3    0    0 -0.28272815378E+02  0.57788223692E+01  0.22869898134E+02  0.36820905991E+02  0.00000000000E+00 0.  1.
         11    1    4    4    0    0  0.63208565554E+01  0.60351069606E+00 -0.10583830277E+02  0.12342403183E+02  0.51100000000E-03 0. -1.
        -11    1    4    4    0    0  0.17888905417E+02 -0.14339020849E+02  0.41674421230E+01  0.23302103553E+02  0.51100000000E-03 0.  1.
        -12    1    4    4    0    0  0.40630534056E+01  0.79566877836E+01 -0.16453509981E+02  0.18722587272E+02  0.00000000000E+00 0.  1.
</event>
<event>
 8    1  0.2460897E-006  0.9118800E+02  0.7816164E-02  0.1184000E+00
        -11   -1    0    0    0    0  0.00000000000E+00  0.00000000000E+00  0.45593999997E+02  0.45594000000E+02  0.51100000000E-03 0. -1.
         11   -1    0    0    0    0 -0.00000000000E+00 -0.00000000000E+00 -0.45593999997E+02  0.45594000000E+02  0.51100000000E-03 0.  1.
         23    2    1    2    0    0  0.00000000000E+00  0.00000000000E+00  0.17763568394E-14  0.91188000000E+02  0.91188000000E+02 0.  0.
    9900012    2    3    3    0    0 -0.34391686526E+02 -0.65004657366E+01  0.11433865926E+02  0.54367116701E+02  0.40000074143E+02 0.  0.
        -12    1    3    3    0    0  0.34391686526E+02  0.65004657366E+01 -0.11433865926E+02  0.36820883299E+02  0.00000000000E+00 0.  1.
         11    1    4    4    0    0 -0.16523508900E+00  0.34682031763E+01 -0.53518110157E+00  0.35131403301E+01  0.51100000000E-03 0.  1.
        -11    1    4    4    0    0 -0.17103156912E+02  0.84235901313E+01  0.16626683162E+02  0.25296668561E+02  0.51100000000E-03 0. -1.
         12    1    4    4    0    0 -0.17123294525E+02 -0.18392259044E+02 -0.46576361338E+01  0.25557307810E+02  0.00000000000E+00 0. -1.
</event>
<event>
 8    1  0.2460897E-006  0.9118800E+02  0.7816164E-02  0.1184000E+00
        -11   -1    0    0    0    0  0.00000000000E+00  0.00000000000E+00  0.45593999997E+02  0.45594000000E+02  0.51100000000E-03 0. -1.
         11   -1    0    0    0    0 -0.00000000000E+00 -0.00000000000E+00 -0.45593999997E+02  0.45594000000E+02  0.51100000000E-03 0.  1.
         23    2    1    2    0    0  0.44408920985E-15  0.00000000000E+00 -0.71054273576E-14  0.91188000000E+02  0.91188000000E+02 0.  0.
    9900012    2    3    3    0    0  0.35599838359E+01  0.95733505619E+01  0.35375921670E+02  0.54367104304E+02  0.40000045881E+02 0.  0.
        -12    1    3    3    0    0 -0.35599838359E+01 -0.95733505619E+01 -0.35375921670E+02  0.36820895696E+02  0.00000000000E+00 0.  1.
         11    1    4    4    0    0  0.53563450560E+01 -0.94432942616E+01  0.10263015189E+02  0.14939736273E+02  0.51100000000E-03 0. -1.
        -11    1    4    4    0    0  0.10145472899E+02  0.77983329331E+01  0.56558063605E+01  0.13990452556E+02  0.51100000000E-03 0.  1.
         12    1    4    4    0    0 -0.11941834119E+02  0.11218311890E+02  0.19457100121E+02  0.25436915475E+02  0.00000000000E+00 0. -1.
</event>
<event>
 8    1  0.2460897E-006  0.9118800E+02  0.7816164E-02  0.1184000E+00
        -11   -1    0    0    0    0  0.00000000000E+00  0.00000000000E+00  0.45593999997E+02  0.45594000000E+02  0.51100000000E-03 0.  1.
         11   -1    0    0    0    0 -0.00000000000E+00 -0.00000000000E+00 -0.45593999997E+02  0.45594000000E+02  0.51100000000E-03 0. -1.
         23    2    1    2    0    0  0.00000000000E+00 -0.35527136788E-14 -0.17763568394E-14  0.91188000000E+02  0.91188000000E+02 0.  0.
    9900012    2    3    3    0    0 -0.18462911758E+02  0.31592609589E+02  0.40997689224E+01  0.54367079365E+02  0.39999989028E+02 0.  0.
         12    1    3    3    0    0  0.18462911758E+02 -0.31592609589E+02 -0.40997689224E+01  0.36820920635E+02  0.00000000000E+00 0. -1.
         11    1    4    4    0    0  0.56779575235E+01  0.58686382209E+01  0.18346247042E+01  0.83693467052E+01  0.51100000000E-03 0. -1.
        -11    1    4    4    0    0 -0.10708073375E+02  0.74418128956E+01  0.15084742926E+02  0.19939731291E+02  0.51100000000E-03 0.  1.
         12    1    4    4    0    0 -0.13432795906E+02  0.18282158473E+02 -0.12819598708E+02  0.26058001368E+02  0.00000000000E+00 0. -1.
</event>
<event>
 8    1  0.2460897E-006  0.9118800E+02  0.7816164E-02  0.1184000E+00
        -11   -1    0    0    0    0  0.00000000000E+00  0.00000000000E+00  0.45593999997E+02  0.45594000000E+02  0.51100000000E-03 0.  1.
         11   -1    0    0    0    0 -0.00000000000E+00 -0.00000000000E+00 -0.45593999997E+02  0.45594000000E+02  0.51100000000E-03 0. -1.
         23    2    1    2    0    0  0.00000000000E+00  0.00000000000E+00  0.00000000000E+00  0.91188000000E+02  0.91188000000E+02 0.  0.
    9900012    2    3    3    0    0  0.16150425213E+02 -0.17609170402E+01 -0.33043049008E+02  0.54367079980E+02  0.39999990429E+02 0.  0.
        -12    1    3    3    0    0 -0.16150425213E+02  0.17609170402E+01  0.33043049008E+02  0.36820920020E+02  0.00000000000E+00 0.  1.
         11    1    4    4    0    0  0.57792998812E+01 -0.15582138837E+02 -0.11978586441E+02  0.20486334256E+02  0.51100000000E-03 0. -1.
        -11    1    4    4    0    0  0.14736885238E+02  0.85558008054E+01 -0.73555618167E+01  0.18560221008E+02  0.51100000000E-03 0.  1.
         12    1    4    4    0    0 -0.43657599066E+01  0.52654209916E+01 -0.13708900751E+02  0.15320524716E+02  0.00000000000E+00 0. -1.
</event>
<event>
 8    1  0.2460897E-006  0.9118800E+02  0.7816164E-02  0.1184000E+00
        -11   -1    0    0    0    0  0.00000000000E+00  0.00000000000E+00  0.45593999997E+02  0.45594000000E+02  0.51100000000E-03 0.  1.
         11   -1    0    0    0    0 -0.00000000000E+00 -0.00000000000E+00 -0.45593999997E+02  0.45594000000E+02  0.51100000000E-03 0. -1.
         23    2    1    2    0    0  0.00000000000E+00  0.00000000000E+00 -0.22204460493E-15  0.91188000000E+02  0.91188000000E+02 0.  0.
    9900012    2    3    3    0    0  0.10425929553E+02 -0.35267732269E+02  0.18075001134E+01  0.54367081990E+02  0.39999995012E+02 0.  0.
         12    1    3    3    0    0 -0.10425929553E+02  0.35267732269E+02 -0.18075001134E+01  0.36820918010E+02  0.00000000000E+00 0. -1.
         11    1    4    4    0    0  0.12021414862E+02  0.14309182457E+01 -0.39323370439E+01  0.12728912648E+02  0.51100000000E-03 0. -1.
        -11    1    4    4    0    0 -0.64338347179E+01 -0.35322619613E+02  0.33222988949E+01  0.36057167882E+02  0.51100000000E-03 0.  1.
        -12    1    4    4    0    0  0.48383494085E+01 -0.13760309022E+01  0.24175382623E+01  0.55810014597E+01  0.00000000000E+00 0.  1.
</event>
<event>
 8    1  0.2460897E-006  0.9118800E+02  0.7816164E-02  0.1184000E+00
        -11   -1    0    0    0    0  0.00000000000E+00  0.00000000000E+00  0.45593999997E+02  0.45594000000E+02  0.51100000000E-03 0. -1.
         11   -1    0    0    0    0 -0.00000000000E+00 -0.00000000000E+00 -0.45593999997E+02  0.45594000000E+02  0.51100000000E-03 0.  1.
         23    2    1    2    0    0 -0.88817841970E-15 -0.71054273576E-14  0.00000000000E+00  0.91188000000E+02  0.91188000000E+02 0.  0.
    9900012    2    3    3    0    0  0.51540936496E+01  0.28178469138E+02  0.23134234145E+02  0.54367033231E+02  0.39999883856E+02 0.  0.
        -12    1    3    3    0    0 -0.51540936496E+01 -0.28178469138E+02 -0.23134234145E+02  0.36820966769E+02  0.00000000000E+00 0.  1.
         11    1    4    4    0    0  0.59480711617E-01 -0.35276045890E+01  0.74066305718E+00  0.36050123601E+01  0.51100000000E-03 0. -1.
        -11    1    4    4    0    0 -0.29734539658E+01 -0.11388205150E+01  0.16035135827E+02  0.16348208523E+02  0.51100000000E-03 0.  1.
         12    1    4    4    0    0  0.80680669038E+01  0.32844894242E+02  0.63584352614E+01  0.34413812348E+02  0.00000000000E+00 0. -1.
</event>
<event>
 8    1  0.2460897E-006  0.9118800E+02  0.7816164E-02  0.1184000E+00
        -11   -1    0    0    0    0  0.00000000000E+00  0.00000000000E+00  0.45593999997E+02  0.45594000000E+02  0.51100000000E-03 0. -1.
         11   -1    0    0    0    0 -0.00000000000E+00 -0.00000000000E+00 -0.45593999997E+02  0.45594000000E+02  0.51100000000E-03 0.  1.
         23    2    1    2    0    0  0.00000000000E+00 -0.71054273576E-14  0.17763568394E-14  0.91188000000E+02  0.91188000000E+02 0.  0.
    9900012    2    3    3    0    0 -0.10518615297E+02  0.32585451010E+02  0.13539854533E+02  0.54367074617E+02  0.39999978204E+02 0.  0.
        -12    1    3    3    0    0  0.10518615297E+02 -0.32585451010E+02 -0.13539854533E+02  0.36820925383E+02  0.00000000000E+00 0.  1.
         11    1    4    4    0    0  0.26765702927E+01  0.18073708361E+02 -0.10586384883E+02  0.21116214329E+02  0.51100000000E-03 0. -1.
        -11    1    4    4    0    0 -0.15874258930E+01  0.20174474762E+01  0.12133376515E+02  0.12401969247E+02  0.51100000000E-03 0.  1.
         12    1    4    4    0    0 -0.11607759696E+02  0.12494295173E+02  0.11992862901E+02  0.20848891040E+02  0.00000000000E+00 0. -1.
</event>
<event>
 8    1  0.2460897E-006  0.9118800E+02  0.7816164E-02  0.1184000E+00
        -11   -1    0    0    0    0  0.00000000000E+00  0.00000000000E+00  0.45593999997E+02  0.45594000000E+02  0.51100000000E-03 0. -1.
         11   -1    0    0    0    0 -0.00000000000E+00 -0.00000000000E+00 -0.45593999997E+02  0.45594000000E+02  0.51100000000E-03 0.  1.
         23    2    1    2    0    0  0.71054273576E-14 -0.88817841970E-15  0.00000000000E+00  0.91188000000E+02  0.91188000000E+02 0.  0.
    9900012    2    3    3    0    0  0.30631458774E+02 -0.38303719595E+01 -0.20070399779E+02  0.54367096110E+02  0.40000027203E+02 0.  0.
         12    1    3    3    0    0 -0.30631458774E+02  0.38303719595E+01  0.20070399779E+02  0.36820903890E+02  0.00000000000E+00 0. -1.
         11    1    4    4    0    0 -0.95741918581E+00 -0.11783695425E+02 -0.18135472274E+01  0.11960814487E+02  0.51100000000E-03 0. -1.
        -11    1    4    4    0    0  0.17652493427E+02 -0.32817403956E+01 -0.17221935160E+01  0.18037358315E+02  0.51100000000E-03 0.  1.
        -12    1    4    4    0    0  0.13936384532E+02  0.11235063862E+02 -0.16534659036E+02  0.24368923309E+02  0.00000000000E+00 0.  1.
</event>
<event>
 8    1  0.2460897E-006  0.9118800E+02  0.7816164E-02  0.1184000E+00
        -11   -1    0    0    0    0  0.00000000000E+00  0.00000000000E+00  0.45593999997E+02  0.45594000000E+02  0.51100000000E-03 0.  1.
         11   -1    0    0    0    0 -0.00000000000E+00 -0.00000000000E+00 -0.45593999997E+02  0.45594000000E+02  0.51100000000E-03 0. -1.
         23    2    1    2    0    0  0.71054273576E-14  0.17763568394E-14  0.26645352591E-14  0.91188000000E+02  0.91188000000E+02 0.  0.
    9900012    2    3    3    0    0  0.35024809557E+02  0.10391280638E+02 -0.45891298576E+01  0.54367134847E+02  0.40000115510E+02 0.  0.
         12    1    3    3    0    0 -0.35024809557E+02 -0.10391280638E+02  0.45891298576E+01  0.36820865153E+02  0.00000000000E+00 0. -1.
         11    1    4    4    0    0  0.30753272237E+01  0.41696723941E+00  0.83112701772E+01  0.88717930223E+01  0.51100000000E-03 0. -1.
        -11    1    4    4    0    0  0.61949894780E+01 -0.94917598296E+01 -0.29253417568E+01  0.11705939687E+02  0.51100000000E-03 0.  1.
         12    1    4    4    0    0  0.25754492855E+02  0.19466073228E+02 -0.99750582780E+01  0.33789402137E+02  0.00000000000E+00 0. -1.
</event>
<event>
 8    1  0.2460897E-006  0.9118800E+02  0.7816164E-02  0.1184000E+00
        -11   -1    0    0    0    0  0.00000000000E+00  0.00000000000E+00  0.45593999997E+02  0.45594000000E+02  0.51100000000E-03 0.  1.
         11   -1    0    0    0    0 -0.00000000000E+00 -0.00000000000E+00 -0.45593999997E+02  0.45594000000E+02  0.51100000000E-03 0. -1.
         23    2    1    2    0    0 -0.22204460493E-14  0.00000000000E+00  0.35527136788E-14  0.91188000000E+02  0.91188000000E+02 0.  0.
    9900012    2    3    3    0    0  0.35141547891E+01 -0.20885259875E+02  0.30120390382E+02  0.54367064641E+02  0.39999955462E+02 0.  0.
         12    1    3    3    0    0 -0.35141547891E+01  0.20885259875E+02 -0.30120390382E+02  0.36820935359E+02  0.00000000000E+00 0. -1.
         11    1    4    4    0    0  0.17708079802E+02 -0.16731209809E+02  0.16753102963E+02  0.29566466328E+02  0.51100000000E-03 0. -1.
        -11    1    4    4    0    0 -0.11109996991E+02 -0.38733085174E+01  0.16585135469E+02  0.20334730655E+02  0.51100000000E-03 0.  1.
        -12    1    4    4    0    0 -0.30839280221E+01 -0.28074154946E+00 -0.32178480509E+01  0.44658676584E+01  0.00000000000E+00 0.  1.
</event>
<event>
 8    1  0.2460897E-006  0.9118800E+02  0.7816164E-02  0.1184000E+00
        -11   -1    0    0    0    0  0.00000000000E+00  0.00000000000E+00  0.45593999997E+02  0.45594000000E+02  0.51100000000E-03 0.  1.
         11   -1    0    0    0    0 -0.00000000000E+00 -0.00000000000E+00 -0.45593999997E+02  0.45594000000E+02  0.51100000000E-03 0. -1.
         23    2    1    2    0    0 -0.88817841970E-15  0.35527136788E-14  0.00000000000E+00  0.91188000000E+02  0.91188000000E+02 0.  0.
    9900012    2    3    3    0    0  0.71511053852E+01 -0.23815984726E+02 -0.27155792971E+02  0.54367129171E+02  0.40000102571E+02 0.  0.
        -12    1    3    3    0    0 -0.71511053852E+01  0.23815984726E+02  0.27155792971E+02  0.36820870829E+02  0.00000000000E+00 0.  1.
         11    1    4    4    0    0 -0.11374170535E+02 -0.17623330619E+02 -0.15979483017E+02  0.26368492851E+02  0.51100000000E-03 0. -1.
        -11    1    4    4    0    0  0.11742929096E+02 -0.51811407593E+01 -0.15320372377E+02  0.19986355679E+02  0.51100000000E-03 0.  1.
        -12    1    4    4    0    0  0.67823468244E+01 -0.10115133475E+01  0.41440624229E+01  0.80122806406E+01  0.00000000000E+00 0.  1.
</event>
<event>
 8    1  0.2460897E-006  0.9118800E+02  0.7816164E-02  0.1184000E+00
        -11   -1    0    0    0    0  0.00000000000E+00  0.00000000000E+00  0.45593999997E+02  0.45594000000E+02  0.51100000000E-03 0.  1.
         11   -1    0    0    0    0 -0.00000000000E+00 -0.00000000000E+00 -0.45593999997E+02  0.45594000000E+02  0.51100000000E-03 0. -1.
         23    2    1    2    0    0  0.00000000000E+00  0.00000000000E+00  0.00000000000E+00  0.91188000000E+02  0.91188000000E+02 0.  0.
    9900012    2    3    3    0    0  0.62999731558E+00  0.10111340394E+02  0.35399783986E+02  0.54367071068E+02  0.39999970113E+02 0.  0.
         12    1    3    3    0    0 -0.62999731558E+00 -0.10111340394E+02 -0.35399783986E+02  0.36820928932E+02  0.00000000000E+00 0. -1.
         11    1    4    4    0    0 -0.84849117128E+01 -0.11641271145E+01 -0.22445206444E+01  0.88536315655E+01  0.51100000000E-03 0. -1.
        -11    1    4    4    0    0 -0.38371094477E+01  0.20759911420E+01 -0.30466009693E+00  0.43733243844E+01  0.51100000000E-03 0.  1.
        -12    1    4    4    0    0  0.12952018476E+02  0.91994763664E+01  0.37948964727E+02  0.41140115118E+02  0.00000000000E+00 0.  1.
</event>
<event>
 8    1  0.2460897E-006  0.9118800E+02  0.7816164E-02  0.1184000E+00
        -11   -1    0    0    0    0  0.00000000000E+00  0.00000000000E+00  0.45593999997E+02  0.45594000000E+02  0.51100000000E-03 0. -1.
         11   -1    0    0    0    0 -0.00000000000E+00 -0.00000000000E+00 -0.45593999997E+02  0.45594000000E+02  0.51100000000E-03 0.  1.
         23    2    1    2    0    0  0.11102230246E-15  0.00000000000E+00  0.71054273576E-14  0.91188000000E+02  0.91188000000E+02 0.  0.
    9900012    2    3    3    0    0 -0.33890758156E+00  0.23610973360E+02 -0.28252209866E+02  0.54367078180E+02  0.39999986327E+02 0.  0.
         12    1    3    3    0    0  0.33890758156E+00 -0.23610973360E+02  0.28252209866E+02  0.36820921820E+02  0.00000000000E+00 0. -1.
         11    1    4    4    0    0  0.72749330942E+01  0.51794921068E+01  0.52222887613E+01  0.10345244810E+02  0.51100000000E-03 0. -1.
        -11    1    4    4    0    0  0.61353509881E+01  0.10666549082E+02 -0.18777254813E+02  0.22450013355E+02  0.51100000000E-03 0.  1.
        -12    1    4    4    0    0 -0.13749191664E+02  0.77649321713E+01 -0.14697243814E+02  0.21571820015E+02  0.00000000000E+00 0.  1.
</event>
<event>
 8    1  0.2460897E-006  0.9118800E+02  0.7816164E-02  0.1184000E+00
        -11   -1    0    0    0    0  0.00000000000E+00  0.00000000000E+00  0.45593999997E+02  0.45594000000E+02  0.51100000000E-03 0.  1.
         11   -1    0    0    0    0 -0.00000000000E+00 -0.00000000000E+00 -0.45593999997E+02  0.45594000000E+02  0.51100000000E-03 0. -1.
         23    2    1    2    0    0 -0.71054273576E-14  0.00000000000E+00  0.00000000000E+00  0.91188000000E+02  0.91188000000E+02 0.  0.
    9900012    2    3    3    0    0 -0.35730720535E+02 -0.39807202759E+01 -0.79528849231E+01  0.54367096935E+02  0.40000029084E+02 0.  0.
        -12    1    3    3    0    0  0.35730720535E+02  0.39807202759E+01  0.79528849231E+01  0.36820903065E+02  0.00000000000E+00 0.  1.
         11    1    4    4    0    0 -0.22788868314E+02 -0.50130411451E+01 -0.74881453977E+01  0.24505824253E+02  0.51100000000E-03 0. -1.
        -11    1    4    4    0    0  0.35770496889E+01  0.88812991267E+01 -0.53006201896E+01  0.10943917640E+02  0.51100000000E-03 0.  1.
        -12    1    4    4    0    0 -0.16518901910E+02 -0.78489782575E+01  0.48358806641E+01  0.18917355042E+02  0.00000000000E+00 0.  1.
</event>
<event>
 8    1  0.2460897E-006  0.9118800E+02  0.7816164E-02  0.1184000E+00
        -11   -1    0    0    0    0  0.00000000000E+00  0.00000000000E+00  0.45593999997E+02  0.45594000000E+02  0.51100000000E-03 0.  1.
         11   -1    0    0    0    0 -0.00000000000E+00 -0.00000000000E+00 -0.45593999997E+02  0.45594000000E+02  0.51100000000E-03 0. -1.
         23    2    1    2    0    0  0.35527136788E-14  0.88817841970E-15 -0.35527136788E-14  0.91188000000E+02  0.91188000000E+02 0.  0.
    9900012    2    3    3    0    0 -0.24820132794E+02  0.78180388657E+01  0.26050215621E+02  0.54367157294E+02  0.40000166684E+02 0.  0.
         12    1    3    3    0    0  0.24820132794E+02 -0.78180388657E+01 -0.26050215621E+02  0.36820842706E+02  0.00000000000E+00 0. -1.
         11    1    4    4    0    0  0.30367345024E+01 -0.35981042309E+01  0.15976647805E+01  0.49719858715E+01  0.51100000000E-03 0. -1.
        -11    1    4    4    0    0  0.65724702992E+01  0.40145578039E+01  0.42961542011E+01  0.88187857087E+01  0.51100000000E-03 0.  1.
        -12    1    4    4    0    0 -0.34429337596E+02  0.74015852927E+01  0.20156396640E+02  0.40576385714E+02  0.00000000000E+00 0.  1.
</event>
<event>
 8    1  0.2460897E-006  0.9118800E+02  0.7816164E-02  0.1184000E+00
        -11   -1    0    0    0    0  0.00000000000E+00  0.00000000000E+00  0.45593999997E+02  0.45594000000E+02  0.51100000000E-03 0.  1.
         11   -1    0    0    0    0 -0.00000000000E+00 -0.00000000000E+00 -0.45593999997E+02  0.45594000000E+02  0.51100000000E-03 0. -1.
         23    2    1    2    0    0  0.00000000000E+00  0.00000000000E+00 -0.35527136788E-14  0.91188000000E+02  0.91188000000E+02 0.  0.
    9900012    2    3    3    0    0 -0.27526929166E+02  0.72338474321E+01 -0.23360646082E+02  0.54367079814E+02  0.39999990052E+02 0.  0.
        -12    1    3    3    0    0  0.27526929166E+02 -0.72338474321E+01  0.23360646082E+02  0.36820920186E+02  0.00000000000E+00 0.  1.
         11    1    4    4    0    0 -0.13841386718E+02  0.95710041243E+01 -0.10184837701E+02  0.19670257382E+02  0.51100000000E-03 0. -1.
        -11    1    4    4    0    0  0.77856970164E+01 -0.65663001021E+01 -0.48760493698E+01  0.11291998618E+02  0.51100000000E-03 0.  1.
        -12    1    4    4    0    0 -0.21471239464E+02  0.42291434099E+01 -0.82997590112E+01  0.23404823814E+02  0.00000000000E+00 0.  1.
</event>
<event>
 8    1  0.2460897E-006  0.9118800E+02  0.7816164E-02  0.1184000E+00
        -11   -1    0    0    0    0  0.00000000000E+00  0.00000000000E+00  0.45593999997E+02  0.45594000000E+02  0.51100000000E-03 0. -1.
         11   -1    0    0    0    0 -0.00000000000E+00 -0.00000000000E+00 -0.45593999997E+02  0.45594000000E+02  0.51100000000E-03 0.  1.
         23    2    1    2    0    0  0.35527136788E-14  0.35527136788E-14  0.35527136788E-14  0.91188000000E+02  0.91188000000E+02 0.  0.
    9900012    2    3    3    0    0  0.20626842838E+02  0.25867258225E+02  0.16161612363E+02  0.54367090074E+02  0.40000013442E+02 0.  0.
        -12    1    3    3    0    0 -0.20626842838E+02 -0.25867258225E+02 -0.16161612363E+02  0.36820909926E+02  0.00000000000E+00 0.  1.
         11    1    4    4    0    0  0.16742268086E+02  0.28749861343E+02  0.36032528760E+01  0.33464032923E+02  0.51100000000E-03 0. -1.
        -11    1    4    4    0    0 -0.20994768947E+01  0.57568434241E+01  0.36991030670E+01  0.71576821110E+01  0.51100000000E-03 0.  1.
        -12    1    4    4    0    0  0.59840516470E+01 -0.86394465423E+01  0.88592564204E+01  0.13745375040E+02  0.00000000000E+00 0.  1.
</event>
<event>
 8    1  0.2460897E-006  0.9118800E+02  0.7816164E-02  0.1184000E+00
        -11   -1    0    0    0    0  0.00000000000E+00  0.00000000000E+00  0.45593999997E+02  0.45594000000E+02  0.51100000000E-03 0.  1.
         11   -1    0    0    0    0 -0.00000000000E+00 -0.00000000000E+00 -0.45593999997E+02  0.45594000000E+02  0.51100000000E-03 0. -1.
         23    2    1    2    0    0  0.00000000000E+00  0.00000000000E+00 -0.25535129566E-14  0.91188000000E+02  0.91188000000E+02 0.  0.
    9900012    2    3    3    0    0 -0.21650348241E+02  0.29777923789E+02  0.56234277848E+00  0.54367101674E+02  0.40000039887E+02 0.  0.
        -12    1    3    3    0    0  0.21650348241E+02 -0.29777923789E+02 -0.56234277848E+00  0.36820898326E+02  0.00000000000E+00 0.  1.
         11    1    4    4    0    0 -0.10278322363E+02  0.30172119409E+01 -0.12649051041E+02  0.16575462920E+02  0.51100000000E-03 0.  1.
        -11    1    4    4    0    0 -0.25778003580E+01  0.11860487742E+02 -0.45816518749E+01  0.12973348000E+02  0.51100000000E-03 0. -1.
         12    1    4    4    0    0 -0.87942255202E+01  0.14900224106E+02  0.17793045695E+02  0.24818290755E+02  0.00000000000E+00 0. -1.
</event>
<event>
 8    1  0.2460897E-006  0.9118800E+02  0.7816164E-02  0.1184000E+00
        -11   -1    0    0    0    0  0.00000000000E+00  0.00000000000E+00  0.45593999997E+02  0.45594000000E+02  0.51100000000E-03 0.  1.
         11   -1    0    0    0    0 -0.00000000000E+00 -0.00000000000E+00 -0.45593999997E+02  0.45594000000E+02  0.51100000000E-03 0. -1.
         23    2    1    2    0    0 -0.88817841970E-15  0.00000000000E+00  0.35527136788E-14  0.91188000000E+02  0.91188000000E+02 0.  0.
    9900012    2    3    3    0    0 -0.29676928461E+01  0.20732097763E+02 -0.30284551765E+02  0.54367066360E+02  0.39999959381E+02 0.  0.
         12    1    3    3    0    0  0.29676928461E+01 -0.20732097763E+02  0.30284551765E+02  0.36820933640E+02  0.00000000000E+00 0. -1.
         11    1    4    4    0    0  0.26938941697E+01 -0.34355397807E+01 -0.41965368142E+01  0.60556519778E+01  0.51100000000E-03 0. -1.
        -11    1    4    4    0    0 -0.16310812655E+02  0.76658521037E+01 -0.21662623737E+02  0.28179374823E+02  0.51100000000E-03 0.  1.
        -12    1    4    4    0    0  0.10649225639E+02  0.16501785440E+02 -0.44253912139E+01  0.20132039560E+02  0.00000000000E+00 0.  1.
</event>
<event>
 8    1  0.2460897E-006  0.9118800E+02  0.7816164E-02  0.1184000E+00
        -11   -1    0    0    0    0  0.00000000000E+00  0.00000000000E+00  0.45593999997E+02  0.45594000000E+02  0.51100000000E-03 0.  1.
         11   -1    0    0    0    0 -0.00000000000E+00 -0.00000000000E+00 -0.45593999997E+02  0.45594000000E+02  0.51100000000E-03 0. -1.
         23    2    1    2    0    0  0.35527136788E-14 -0.35527136788E-14 -0.35527136788E-14  0.91188000000E+02  0.91188000000E+02 0.  0.
    9900012    2    3    3    0    0 -0.28115393990E+02  0.13755019161E+02  0.19393383581E+02  0.54367092107E+02  0.40000018076E+02 0.  0.
         12    1    3    3    0    0  0.28115393990E+02 -0.13755019161E+02 -0.19393383581E+02  0.36820907893E+02  0.00000000000E+00 0. -1.
         11    1    4    4    0    0 -0.80826180472E+01  0.16311500605E+02  0.98177086761E+01  0.20682871426E+02  0.51100000000E-03 0. -1.
        -11    1    4    4    0    0 -0.31165888547E+01  0.76009778755E+01  0.11195655899E+02  0.13886349485E+02  0.51100000000E-03 0.  1.
         12    1    4    4    0    0 -0.16916187088E+02 -0.10157459320E+02 -0.16199809942E+01  0.19797871196E+02  0.00000000000E+00 0. -1.
</event>
<event>
 8    1  0.2460897E-006  0.9118800E+02  0.7816164E-02  0.1184000E+00
        -11   -1    0    0    0    0  0.00000000000E+00  0.00000000000E+00  0.45593999997E+02  0.45594000000E+02  0.51100000000E-03 0. -1.
         11   -1    0    0    0    0 -0.00000000000E+00 -0.00000000000E+00 -0.45593999997E+02  0.45594000000E+02  0.51100000000E-03 0.  1.
         23    2    1    2    0    0 -0.35527136788E-14  0.00000000000E+00  0.00000000000E+00  0.91188000000E+02  0.91188000000E+02 0.  0.
    9900012    2    3    3    0    0  0.11543518647E+02 -0.25369497641E+02  0.24060645563E+02  0.54367096994E+02  0.40000029216E+02 0.  0.
        -12    1    3    3    0    0 -0.11543518647E+02  0.25369497641E+02 -0.24060645563E+02  0.36820903006E+02  0.00000000000E+00 0.  1.
         11    1    4    4    0    0  0.83453762522E+01 -0.26378709616E+02 -0.57042047939E+00  0.27673218200E+02  0.51100000000E-03 0.  1.
        -11    1    4    4    0    0 -0.11216509858E+01  0.51875681922E-01  0.20831508973E+02  0.20861748689E+02  0.51100000000E-03 0. -1.
        -12    1    4    4    0    0  0.43197933806E+01  0.95733629262E+00  0.37995570690E+01  0.58321301039E+01  0.00000000000E+00 0.  1.
</event>
<event>
 8    1  0.2460897E-006  0.9118800E+02  0.7816164E-02  0.1184000E+00
        -11   -1    0    0    0    0  0.00000000000E+00  0.00000000000E+00  0.45593999997E+02  0.45594000000E+02  0.51100000000E-03 0.  1.
         11   -1    0    0    0    0 -0.00000000000E+00 -0.00000000000E+00 -0.45593999997E+02  0.45594000000E+02  0.51100000000E-03 0. -1.
         23    2    1    2    0    0 -0.13322676296E-14  0.00000000000E+00  0.00000000000E+00  0.91188000000E+02  0.91188000000E+02 0.  0.
    9900012    2    3    3    0    0 -0.37116373850E+01  0.32760771079E+02 -0.16393193942E+02  0.54367065990E+02  0.39999958537E+02 0.  0.
         12    1    3    3    0    0  0.37116373850E+01 -0.32760771079E+02  0.16393193942E+02  0.36820934010E+02  0.00000000000E+00 0. -1.
         11    1    4    4    0    0 -0.11771097449E+02  0.94571614109E+01  0.61614645621E+01  0.16308288780E+02  0.51100000000E-03 0. -1.
        -11    1    4    4    0    0  0.46962001552E+01 -0.10299052265E+01 -0.14833176178E+00  0.48100938916E+01  0.51100000000E-03 0.  1.
         12    1    4    4    0    0  0.33632599090E+01  0.24333514895E+02 -0.22406326742E+02  0.33248683319E+02  0.00000000000E+00 0. -1.
</event>
<event>
 8    1  0.2460897E-006  0.9118800E+02  0.7816164E-02  0.1184000E+00
        -11   -1    0    0    0    0  0.00000000000E+00  0.00000000000E+00  0.45593999997E+02  0.45594000000E+02  0.51100000000E-03 0.  1.
         11   -1    0    0    0    0 -0.00000000000E+00 -0.00000000000E+00 -0.45593999997E+02  0.45594000000E+02  0.51100000000E-03 0. -1.
         23    2    1    2    0    0  0.00000000000E+00  0.44408920985E-15 -0.71054273576E-14  0.91188000000E+02  0.91188000000E+02 0.  0.
    9900012    2    3    3    0    0 -0.12889326407E+02  0.13891374913E+01  0.34463247634E+02  0.54367083720E+02  0.39999998957E+02 0.  0.
         12    1    3    3    0    0  0.12889326407E+02 -0.13891374913E+01 -0.34463247634E+02  0.36820916280E+02  0.00000000000E+00 0. -1.
         11    1    4    4    0    0 -0.60584327867E+01 -0.33881497814E+01  0.34769440880E+01  0.77635885533E+01  0.51100000000E-03 0. -1.
        -11    1    4    4    0    0 -0.90387008974E+01 -0.26577699633E+01  0.36102859422E+02  0.37311905792E+02  0.51100000000E-03 0.  1.
         12    1    4    4    0    0  0.22078072770E+01  0.74350572361E+01 -0.51165558766E+01  0.92915893751E+01  0.00000000000E+00 0. -1.
</event>
<event>
 8    1  0.2460897E-006  0.9118800E+02  0.7816164E-02  0.1184000E+00
        -11   -1    0    0    0    0  0.00000000000E+00  0.00000000000E+00  0.45593999997E+02  0.45594000000E+02  0.51100000000E-03 0.  1.
         11   -1    0    0    0    0 -0.00000000000E+00 -0.00000000000E+00 -0.45593999997E+02  0.45594000000E+02  0.51100000000E-03 0. -1.
         23    2    1    2    0    0  0.35527136788E-14  0.00000000000E+00  0.17763568394E-14  0.91188000000E+02  0.91188000000E+02 0.  0.
    9900012    2    3    3    0    0  0.20646319311E+02 -0.28596303744E+02  0.10571695639E+02  0.54367084237E+02  0.40000000136E+02 0.  0.
        -12    1    3    3    0    0 -0.20646319311E+02  0.28596303744E+02 -0.10571695639E+02  0.36820915763E+02  0.00000000000E+00 0.  1.
         11    1    4    4    0    0  0.20475003219E+02 -0.32603132403E+02  0.14811155307E+02  0.41249973589E+02  0.51100000000E-03 0. -1.
        -11    1    4    4    0    0  0.43603629424E+01  0.58294968223E+01 -0.65289465246E+00  0.73090402844E+01  0.51100000000E-03 0.  1.
         12    1    4    4    0    0 -0.41890468505E+01 -0.18226681636E+01 -0.35865650149E+01  0.58080703642E+01  0.00000000000E+00 0. -1.
</event>
<event>
 8    1  0.2460897E-006  0.9118800E+02  0.7816164E-02  0.1184000E+00
        -11   -1    0    0    0    0  0.00000000000E+00  0.00000000000E+00  0.45593999997E+02  0.45594000000E+02  0.51100000000E-03 0.  1.
         11   -1    0    0    0    0 -0.00000000000E+00 -0.00000000000E+00 -0.45593999997E+02  0.45594000000E+02  0.51100000000E-03 0. -1.
         23    2    1    2    0    0 -0.88817841970E-15  0.71054273576E-14  0.00000000000E+00  0.91188000000E+02  0.91188000000E+02 0.  0.
    9900012    2    3    3    0    0 -0.52090654830E+01  0.34274162749E+02 -0.12406798668E+02  0.54367065078E+02  0.39999956459E+02 0.  0.
         12    1    3    3    0    0  0.52090654830E+01 -0.34274162749E+02  0.12406798668E+02  0.36820934922E+02  0.00000000000E+00 0. -1.
         11    1    4    4    0    0  0.36941961620E+01  0.39962843778E+01 -0.16095379297E+02  0.16990544696E+02  0.51100000000E-03 0. -1.
        -11    1    4    4    0    0 -0.23095723367E-01  0.27875091327E+02  0.14730281465E+01  0.27913994019E+02  0.51100000000E-03 0.  1.
        -12    1    4    4    0    0 -0.88801659217E+01  0.24027870439E+01  0.22155524828E+01  0.94625263634E+01  0.00000000000E+00 0.  1.
</event>
<event>
 8    1  0.2460897E-006  0.9118800E+02  0.7816164E-02  0.1184000E+00
        -11   -1    0    0    0    0  0.00000000000E+00  0.00000000000E+00  0.45593999997E+02  0.45594000000E+02  0.51100000000E-03 0. -1.
         11   -1    0    0    0    0 -0.00000000000E+00 -0.00000000000E+00 -0.45593999997E+02  0.45594000000E+02  0.51100000000E-03 0.  1.
         23    2    1    2    0    0 -0.17763568394E-14 -0.88817841970E-15  0.00000000000E+00  0.91188000000E+02  0.91188000000E+02 0.  0.
    9900012    2    3    3    0    0 -0.96689754744E+01 -0.75880788334E+01  0.34708958396E+02  0.54367084476E+02  0.40000000679E+02 0.  0.
        -12    1    3    3    0    0  0.96689754744E+01  0.75880788334E+01 -0.34708958396E+02  0.36820915524E+02  0.00000000000E+00 0.  1.
         11    1    4    4    0    0 -0.72995926717E+01 -0.34304943525E+01 -0.17235266187E+01  0.82475989804E+01  0.51100000000E-03 0. -1.
        -11    1    4    4    0    0 -0.12654804579E+02  0.57942789822E+01  0.19313153240E+02  0.23805789972E+02  0.51100000000E-03 0.  1.
         12    1    4    4    0    0  0.10285421776E+02 -0.99518634631E+01  0.17119331775E+02  0.22313695523E+02  0.00000000000E+00 0. -1.
</event>
<event>
 8    1  0.2460897E-006  0.9118800E+02  0.7816164E-02  0.1184000E+00
        -11   -1    0    0    0    0  0.00000000000E+00  0.00000000000E+00  0.45593999997E+02  0.45594000000E+02  0.51100000000E-03 0. -1.
         11   -1    0    0    0    0 -0.00000000000E+00 -0.00000000000E+00 -0.45593999997E+02  0.45594000000E+02  0.51100000000E-03 0.  1.
         23    2    1    2    0    0  0.00000000000E+00  0.00000000000E+00  0.00000000000E+00  0.91188000000E+02  0.91188000000E+02 0.  0.
    9900012    2    3    3    0    0  0.25453624955E+02 -0.14878755445E+02 -0.22057071617E+02  0.54367098392E+02  0.40000032403E+02 0.  0.
         12    1    3    3    0    0 -0.25453624955E+02  0.14878755445E+02  0.22057071617E+02  0.36820901608E+02  0.00000000000E+00 0. -1.
         11    1    4    4    0    0  0.65274859264E+01  0.17411156564E+01  0.91284962104E+01  0.11356451892E+02  0.51100000000E-03 0. -1.
        -11    1    4    4    0    0  0.37959788429E+00  0.35944662650E+00 -0.10327223307E+02  0.10340446699E+02  0.51100000000E-03 0.  1.
        -12    1    4    4    0    0  0.18546541144E+02 -0.16979317728E+02 -0.20858344520E+02  0.32670199801E+02  0.00000000000E+00 0.  1.
</event>
<event>
 8    1  0.2460897E-006  0.9118800E+02  0.7816164E-02  0.1184000E+00
        -11   -1    0    0    0    0  0.00000000000E+00  0.00000000000E+00  0.45593999997E+02  0.45594000000E+02  0.51100000000E-03 0.  1.
         11   -1    0    0    0    0 -0.00000000000E+00 -0.00000000000E+00 -0.45593999997E+02  0.45594000000E+02  0.51100000000E-03 0. -1.
         23    2    1    2    0    0 -0.13322676296E-14  0.71054273576E-14  0.00000000000E+00  0.91188000000E+02  0.91188000000E+02 0.  0.
    9900012    2    3    3    0    0  0.34705353255E+01 -0.25399794065E+02  0.26430767540E+02  0.54367087100E+02  0.40000006663E+02 0.  0.
         12    1    3    3    0    0 -0.34705353255E+01  0.25399794065E+02 -0.26430767540E+02  0.36820912900E+02  0.00000000000E+00 0. -1.
         11    1    4    4    0    0 -0.90776212931E+01 -0.76578999068E+00 -0.60100688067E+00  0.91296687882E+01  0.51100000000E-03 0. -1.
        -11    1    4    4    0    0  0.38132945093E+01  0.34798510780E+01  0.99280745069E+01  0.11190051037E+02  0.51100000000E-03 0.  1.
        -12    1    4    4    0    0  0.87348621093E+01 -0.28113855153E+02  0.17103699914E+02  0.34047367275E+02  0.00000000000E+00 0.  1.
</event>
<event>
 8    1  0.2460897E-006  0.9118800E+02  0.7816164E-02  0.1184000E+00
        -11   -1    0    0    0    0  0.00000000000E+00  0.00000000000E+00  0.45593999997E+02  0.45594000000E+02  0.51100000000E-03 0.  1.
         11   -1    0    0    0    0 -0.00000000000E+00 -0.00000000000E+00 -0.45593999997E+02  0.45594000000E+02  0.51100000000E-03 0. -1.
         23    2    1    2    0    0  0.88817841970E-15 -0.35527136788E-14  0.35527136788E-14  0.91188000000E+02  0.91188000000E+02 0.  0.
    9900012    2    3    3    0    0 -0.73354203060E+01  0.25660121249E+02 -0.25367890404E+02  0.54367080985E+02  0.39999992721E+02 0.  0.
        -12    1    3    3    0    0  0.73354203060E+01 -0.25660121249E+02  0.25367890404E+02  0.36820919015E+02  0.00000000000E+00 0.  1.
         11    1    4    4    0    0 -0.39855191671E+01  0.46909559966E+01 -0.19236263032E+02  0.20197109865E+02  0.51100000000E-03 0. -1.
        -11    1    4    4    0    0  0.59287822939E+01  0.16013649207E+02 -0.13125930095E+02  0.21537814688E+02  0.51100000000E-03 0.  1.
        -12    1    4    4    0    0 -0.92786834329E+01  0.49555160458E+01  0.69943027234E+01  0.12632156432E+02  0.00000000000E+00 0.  1.
</event>
<event>
 8    1  0.2460897E-006  0.9118800E+02  0.7816164E-02  0.1184000E+00
        -11   -1    0    0    0    0  0.00000000000E+00  0.00000000000E+00  0.45593999997E+02  0.45594000000E+02  0.51100000000E-03 0.  1.
         11   -1    0    0    0    0 -0.00000000000E+00 -0.00000000000E+00 -0.45593999997E+02  0.45594000000E+02  0.51100000000E-03 0. -1.
         23    2    1    2    0    0  0.00000000000E+00  0.88817841970E-15 -0.17763568394E-14  0.91188000000E+02  0.91188000000E+02 0.  0.
    9900012    2    3    3    0    0 -0.34419774569E+02 -0.71377816523E+01 -0.10959554621E+02  0.54367073263E+02  0.39999975118E+02 0.  0.
         12    1    3    3    0    0  0.34419774569E+02  0.71377816523E+01  0.10959554621E+02  0.36820926737E+02  0.00000000000E+00 0. -1.
         11    1    4    4    0    0  0.41878285462E+01 -0.18497793986E+01 -0.16939659408E+01  0.48815072084E+01  0.51100000000E-03 0. -1.
        -11    1    4    4    0    0 -0.53701271718E+01  0.10080731559E+02 -0.54899133555E+01  0.12672748854E+02  0.51100000000E-03 0.  1.
         12    1    4    4    0    0 -0.33237475943E+02 -0.15368733813E+02 -0.37756753250E+01  0.36812817200E+02  0.00000000000E+00 0. -1.
</event>
<event>
 8    1  0.2460897E-006  0.9118800E+02  0.7816164E-02  0.1184000E+00
        -11   -1    0    0    0    0  0.00000000000E+00  0.00000000000E+00  0.45593999997E+02  0.45594000000E+02  0.51100000000E-03 0.  1.
         11   -1    0    0    0    0 -0.00000000000E+00 -0.00000000000E+00 -0.45593999997E+02  0.45594000000E+02  0.51100000000E-03 0. -1.
         23    2    1    2    0    0  0.00000000000E+00  0.00000000000E+00  0.00000000000E+00  0.91188000000E+02  0.91188000000E+02 0.  0.
    9900012    2    3    3    0    0 -0.67654021375E+01  0.10979014265E+02 -0.34488712234E+02  0.54367072637E+02  0.39999973691E+02 0.  0.
        -12    1    3    3    0    0  0.67654021375E+01 -0.10979014265E+02  0.34488712234E+02  0.36820927363E+02  0.00000000000E+00 0.  1.
         11    1    4    4    0    0 -0.20649841261E+02  0.46658552660E+01 -0.23948080896E+02  0.31963991120E+02  0.51100000000E-03 0. -1.
        -11    1    4    4    0    0  0.74777128741E+01  0.81211980684E+01 -0.11184493336E+02  0.15715054545E+02  0.51100000000E-03 0.  1.
         12    1    4    4    0    0  0.64067262494E+01 -0.18080390694E+01  0.64386199846E+00  0.66880269725E+01  0.00000000000E+00 0. -1.
</event>
<event>
 8    1  0.2460897E-006  0.9118800E+02  0.7816164E-02  0.1184000E+00
        -11   -1    0    0    0    0  0.00000000000E+00  0.00000000000E+00  0.45593999997E+02  0.45594000000E+02  0.51100000000E-03 0.  1.
         11   -1    0    0    0    0 -0.00000000000E+00 -0.00000000000E+00 -0.45593999997E+02  0.45594000000E+02  0.51100000000E-03 0. -1.
         23    2    1    2    0    0 -0.71054273576E-14 -0.35527136788E-14 -0.13322676296E-14  0.91188000000E+02  0.91188000000E+02 0.  0.
    9900012    2    3    3    0    0  0.26536815455E+02  0.25232103741E+02  0.38631152346E+01  0.54367010157E+02  0.39999831255E+02 0.  0.
        -12    1    3    3    0    0 -0.26536815455E+02 -0.25232103741E+02 -0.38631152346E+01  0.36820989843E+02  0.00000000000E+00 0.  1.
         11    1    4    4    0    0  0.17937032087E+01 -0.50286862682E+01 -0.18025022487E+01  0.56350751018E+01  0.51100000000E-03 0. -1.
        -11    1    4    4    0    0  0.42506725489E+01 -0.53518001027E+01 -0.15688557704E+01  0.70122243366E+01  0.51100000000E-03 0.  1.
         12    1    4    4    0    0  0.20492439697E+02  0.35612590112E+02  0.72344732538E+01  0.41719710719E+02  0.00000000000E+00 0. -1.
</event>
<event>
 8    1  0.2460897E-006  0.9118800E+02  0.7816164E-02  0.1184000E+00
        -11   -1    0    0    0    0  0.00000000000E+00  0.00000000000E+00  0.45593999997E+02  0.45594000000E+02  0.51100000000E-03 0. -1.
         11   -1    0    0    0    0 -0.00000000000E+00 -0.00000000000E+00 -0.45593999997E+02  0.45594000000E+02  0.51100000000E-03 0.  1.
         23    2    1    2    0    0  0.00000000000E+00 -0.17763568394E-14  0.00000000000E+00  0.91188000000E+02  0.91188000000E+02 0.  0.
    9900012    2    3    3    0    0  0.47486872117E+01  0.15296365345E+02  0.33154949890E+02  0.54367088480E+02  0.40000009807E+02 0.  0.
        -12    1    3    3    0    0 -0.47486872117E+01 -0.15296365345E+02 -0.33154949890E+02  0.36820911520E+02  0.00000000000E+00 0.  1.
         11    1    4    4    0    0  0.58498908062E+01 -0.76248906467E+01  0.12892287717E+02  0.16080151201E+02  0.51100000000E-03 0.  1.
        -11    1    4    4    0    0 -0.73928525763E+01  0.21901026036E+01  0.13577566834E+02  0.15614132701E+02  0.51100000000E-03 0. -1.
        -12    1    4    4    0    0  0.62916489818E+01  0.20731153388E+02  0.66850953393E+01  0.22672804577E+02  0.00000000000E+00 0.  1.
</event>
<event>
 8    1  0.2460897E-006  0.9118800E+02  0.7816164E-02  0.1184000E+00
        -11   -1    0    0    0    0  0.00000000000E+00  0.00000000000E+00  0.45593999997E+02  0.45594000000E+02  0.51100000000E-03 0. -1.
         11   -1    0    0    0    0 -0.00000000000E+00 -0.00000000000E+00 -0.45593999997E+02  0.45594000000E+02  0.51100000000E-03 0.  1.
         23    2    1    2    0    0 -0.35527136788E-14 -0.35527136788E-14  0.88817841970E-15  0.91188000000E+02  0.91188000000E+02 0.  0.
    9900012    2    3    3    0    0  0.29853624064E+02  0.21492937063E+02  0.16110155333E+01  0.54367074097E+02  0.39999977018E+02 0.  0.
         12    1    3    3    0    0 -0.29853624064E+02 -0.21492937063E+02 -0.16110155333E+01  0.36820925903E+02  0.00000000000E+00 0. -1.
         11    1    4    4    0    0  0.58687487770E+01  0.55189373673E+01  0.12380769902E+02  0.14771064468E+02  0.51100000000E-03 0. -1.
        -11    1    4    4    0    0  0.25832249442E+02  0.20230111600E+02 -0.11754354323E+02  0.34852939222E+02  0.51100000000E-03 0.  1.
         12    1    4    4    0    0 -0.18473741556E+01 -0.42561119043E+01  0.98459995453E+00  0.47430704067E+01  0.00000000000E+00 0. -1.
</event>
<event>
 8    1  0.2460897E-006  0.9118800E+02  0.7816164E-02  0.1184000E+00
        -11   -1    0    0    0    0  0.00000000000E+00  0.00000000000E+00  0.45593999997E+02  0.45594000000E+02  0.51100000000E-03 0. -1.
         11   -1    0    0    0    0 -0.00000000000E+00 -0.00000000000E+00 -0.45593999997E+02  0.45594000000E+02  0.51100000000E-03 0.  1.
         23    2    1    2    0    0  0.00000000000E+00  0.00000000000E+00  0.00000000000E+00  0.91188000000E+02  0.91188000000E+02 0.  0.
    9900012    2    3    3    0    0 -0.25253790369E+02 -0.13732746223E+02  0.23009393950E+02  0.54367157305E+02  0.40000166708E+02 0.  0.
        -12    1    3    3    0    0  0.25253790369E+02  0.13732746223E+02 -0.23009393950E+02  0.36820842695E+02  0.00000000000E+00 0.  1.
         11    1    4    4    0    0 -0.17353932596E+01 -0.17785689847E+02  0.24430187628E+02  0.30268406316E+02  0.51100000000E-03 0. -1.
        -11    1    4    4    0    0 -0.17311957085E+02  0.16538041305E+01 -0.13686268943E+01  0.17444542586E+02  0.51100000000E-03 0.  1.
        -12    1    4    4    0    0 -0.62064400248E+01  0.23991394933E+01 -0.52166784606E-01  0.66542084025E+01  0.00000000000E+00 0.  1.
</event>
<event>
 8    1  0.2460897E-006  0.9118800E+02  0.7816164E-02  0.1184000E+00
        -11   -1    0    0    0    0  0.00000000000E+00  0.00000000000E+00  0.45593999997E+02  0.45594000000E+02  0.51100000000E-03 0.  1.
         11   -1    0    0    0    0 -0.00000000000E+00 -0.00000000000E+00 -0.45593999997E+02  0.45594000000E+02  0.51100000000E-03 0. -1.
         23    2    1    2    0    0  0.00000000000E+00  0.00000000000E+00  0.00000000000E+00  0.91188000000E+02  0.91188000000E+02 0.  0.
    9900012    2    3    3    0    0 -0.26276362514E+02  0.19935290260E+02  0.16368140974E+02  0.54367094747E+02  0.40000024094E+02 0.  0.
         12    1    3    3    0    0  0.26276362514E+02 -0.19935290260E+02 -0.16368140974E+02  0.36820905253E+02  0.00000000000E+00 0. -1.
         11    1    4    4    0    0 -0.13201732301E+02 -0.54897591767E+00  0.34565298246E+01  0.13657771011E+02  0.51100000000E-03 0. -1.
        -11    1    4    4    0    0 -0.39883412125E+01  0.16370965358E+02  0.21660104101E+02  0.27442220798E+02  0.51100000000E-03 0.  1.
         12    1    4    4    0    0 -0.90862890009E+01  0.41133008199E+01 -0.87484929519E+01  0.13267102938E+02  0.00000000000E+00 0. -1.
</event>
<event>
 8    1  0.2460897E-006  0.9118800E+02  0.7816164E-02  0.1184000E+00
        -11   -1    0    0    0    0  0.00000000000E+00  0.00000000000E+00  0.45593999997E+02  0.45594000000E+02  0.51100000000E-03 0. -1.
         11   -1    0    0    0    0 -0.00000000000E+00 -0.00000000000E+00 -0.45593999997E+02  0.45594000000E+02  0.51100000000E-03 0.  1.
         23    2    1    2    0    0  0.00000000000E+00  0.00000000000E+00  0.00000000000E+00  0.91188000000E+02  0.91188000000E+02 0.  0.
    9900012    2    3    3    0    0  0.32070308358E+02  0.15191999066E+02  0.98223222684E+01  0.54367088434E+02  0.40000009704E+02 0.  0.
        -12    1    3    3    0    0 -0.32070308358E+02 -0.15191999066E+02 -0.98223222684E+01  0.36820911566E+02  0.00000000000E+00 0.  1.
         11    1    4    4    0    0  0.14672381717E+02  0.68180516817E+01  0.13276584621E+01  0.16233523685E+02  0.51100000000E-03 0. -1.
        -11    1    4    4    0    0  0.12803455672E+02  0.10390313323E+01 -0.10931019497E+02  0.16866987009E+02  0.51100000000E-03 0.  1.
        -12    1    4    4    0    0  0.45944709691E+01  0.73349160517E+01  0.19425683304E+02  0.21266577740E+02  0.00000000000E+00 0.  1.
</event>
<event>
 8    1  0.2460897E-006  0.9118800E+02  0.7816164E-02  0.1184000E+00
        -11   -1    0    0    0    0  0.00000000000E+00  0.00000000000E+00  0.45593999997E+02  0.45594000000E+02  0.51100000000E-03 0.  1.
         11   -1    0    0    0    0 -0.00000000000E+00 -0.00000000000E+00 -0.45593999997E+02  0.45594000000E+02  0.51100000000E-03 0. -1.
         23    2    1    2    0    0  0.00000000000E+00  0.00000000000E+00  0.00000000000E+00  0.91188000000E+02  0.91188000000E+02 0.  0.
    9900012    2    3    3    0    0 -0.17494864912E+02 -0.16607672006E+02 -0.27818957921E+02  0.54367088991E+02  0.40000010973E+02 0.  0.
        -12    1    3    3    0    0  0.17494864912E+02  0.16607672006E+02  0.27818957921E+02  0.36820911009E+02  0.00000000000E+00 0.  1.
         11    1    4    4    0    0 -0.39784261066E+00 -0.82424589066E+01 -0.56130561951E+01  0.99801206245E+01  0.51100000000E-03 0. -1.
        -11    1    4    4    0    0 -0.78650483257E+01 -0.81796976452E+00  0.84022898553E+01  0.11538047269E+02  0.51100000000E-03 0.  1.
         12    1    4    4    0    0 -0.92319739755E+01 -0.75472433347E+01 -0.30608191581E+02  0.32848921098E+02  0.00000000000E+00 0. -1.
</event>
<event>
 8    1  0.2460897E-006  0.9118800E+02  0.7816164E-02  0.1184000E+00
        -11   -1    0    0    0    0  0.00000000000E+00  0.00000000000E+00  0.45593999997E+02  0.45594000000E+02  0.51100000000E-03 0.  1.
         11   -1    0    0    0    0 -0.00000000000E+00 -0.00000000000E+00 -0.45593999997E+02  0.45594000000E+02  0.51100000000E-03 0. -1.
         23    2    1    2    0    0  0.00000000000E+00 -0.35527136788E-14  0.00000000000E+00  0.91188000000E+02  0.91188000000E+02 0.  0.
    9900012    2    3    3    0    0  0.21589892491E+02  0.27735590131E+02 -0.10972386884E+02  0.54367086220E+02  0.40000004655E+02 0.  0.
        -12    1    3    3    0    0 -0.21589892491E+02 -0.27735590131E+02  0.10972386884E+02  0.36820913780E+02  0.00000000000E+00 0.  1.
         11    1    4    4    0    0  0.11346238170E+02  0.13401346578E+01 -0.72561299460E+01  0.13534566989E+02  0.51100000000E-03 0. -1.
        -11    1    4    4    0    0  0.16407785229E+02  0.90641641731E+01  0.64396940883E+01  0.19820296378E+02  0.51100000000E-03 0.  1.
         12    1    4    4    0    0 -0.61641309087E+01  0.17331291300E+02 -0.10155951027E+02  0.21012222853E+02  0.00000000000E+00 0. -1.
</event>
<event>
 8    1  0.2460897E-006  0.9118800E+02  0.7816164E-02  0.1184000E+00
        -11   -1    0    0    0    0  0.00000000000E+00  0.00000000000E+00  0.45593999997E+02  0.45594000000E+02  0.51100000000E-03 0.  1.
         11   -1    0    0    0    0 -0.00000000000E+00 -0.00000000000E+00 -0.45593999997E+02  0.45594000000E+02  0.51100000000E-03 0. -1.
         23    2    1    2    0    0  0.00000000000E+00  0.00000000000E+00 -0.33306690739E-15  0.91188000000E+02  0.91188000000E+02 0.  0.
    9900012    2    3    3    0    0 -0.24671739402E+02  0.27320159078E+02  0.83308345705E+00  0.54367084133E+02  0.39999999899E+02 0.  0.
        -12    1    3    3    0    0  0.24671739402E+02 -0.27320159078E+02 -0.83308345705E+00  0.36820915867E+02  0.00000000000E+00 0.  1.
         11    1    4    4    0    0 -0.67407402446E+01  0.51102708588E+01 -0.11336454218E+01  0.85344946833E+01  0.51100000000E-03 0. -1.
        -11    1    4    4    0    0  0.47035158376E+01 -0.61118249140E+01 -0.46110494081E+01  0.89855017622E+01  0.51100000000E-03 0.  1.
        -12    1    4    4    0    0 -0.22634514995E+02  0.28321713134E+02  0.65777782870E+01  0.36847087688E+02  0.00000000000E+00 0.  1.
</event>
<event>
 8    1  0.2460897E-006  0.9118800E+02  0.7816164E-02  0.1184000E+00
        -11   -1    0    0    0    0  0.00000000000E+00  0.00000000000E+00  0.45593999997E+02  0.45594000000E+02  0.51100000000E-03 0.  1.
         11   -1    0    0    0    0 -0.00000000000E+00 -0.00000000000E+00 -0.45593999997E+02  0.45594000000E+02  0.51100000000E-03 0. -1.
         23    2    1    2    0    0  0.00000000000E+00  0.00000000000E+00 -0.35527136788E-14  0.91188000000E+02  0.91188000000E+02 0.  0.
    9900012    2    3    3    0    0  0.29874886692E+02 -0.10381697449E+02 -0.18854519736E+02  0.54367062868E+02  0.39999951421E+02 0.  0.
        -12    1    3    3    0    0 -0.29874886692E+02  0.10381697449E+02  0.18854519736E+02  0.36820937132E+02  0.00000000000E+00 0.  1.
         11    1    4    4    0    0  0.10089715258E+02 -0.10762776193E+02 -0.10958103900E+02  0.18377152846E+02  0.51100000000E-03 0. -1.
        -11    1    4    4    0    0 -0.41380147000E+01 -0.14192064819E+01  0.66305545738E+01  0.79436494707E+01  0.51100000000E-03 0.  1.
        -12    1    4    4    0    0  0.23923186133E+02  0.18002852256E+01 -0.14526970410E+02  0.28046260552E+02  0.00000000000E+00 0.  1.
</event>
<event>
 8    1  0.2460897E-006  0.9118800E+02  0.7816164E-02  0.1184000E+00
        -11   -1    0    0    0    0  0.00000000000E+00  0.00000000000E+00  0.45593999997E+02  0.45594000000E+02  0.51100000000E-03 0.  1.
         11   -1    0    0    0    0 -0.00000000000E+00 -0.00000000000E+00 -0.45593999997E+02  0.45594000000E+02  0.51100000000E-03 0. -1.
         23    2    1    2    0    0  0.00000000000E+00 -0.17763568394E-14  0.00000000000E+00  0.91188000000E+02  0.91188000000E+02 0.  0.
    9900012    2    3    3    0    0  0.24744122354E+02  0.13152314453E+02  0.23885671551E+02  0.54367078338E+02  0.39999986688E+02 0.  0.
         12    1    3    3    0    0 -0.24744122354E+02 -0.13152314453E+02 -0.23885671551E+02  0.36820921662E+02  0.00000000000E+00 0. -1.
         11    1    4    4    0    0  0.17301327383E+02 -0.74244838669E+01  0.13850212115E+02  0.23372789003E+02  0.51100000000E-03 0. -1.
        -11    1    4    4    0    0 -0.82471411245E+00 -0.13258498869E+01 -0.35843390424E+01  0.39096697970E+01  0.51100000000E-03 0.  1.
        -12    1    4    4    0    0  0.82675090840E+01  0.21902648207E+02  0.13619798479E+02  0.27084619538E+02  0.00000000000E+00 0.  1.
</event>
<event>
 8    1  0.2460897E-006  0.9118800E+02  0.7816164E-02  0.1184000E+00
        -11   -1    0    0    0    0  0.00000000000E+00  0.00000000000E+00  0.45593999997E+02  0.45594000000E+02  0.51100000000E-03 0.  1.
         11   -1    0    0    0    0 -0.00000000000E+00 -0.00000000000E+00 -0.45593999997E+02  0.45594000000E+02  0.51100000000E-03 0. -1.
         23    2    1    2    0    0  0.00000000000E+00 -0.17763568394E-14  0.17763568394E-14  0.91188000000E+02  0.91188000000E+02 0.  0.
    9900012    2    3    3    0    0  0.34755686271E+02 -0.88073094063E+01  0.83820334754E+01  0.54367015327E+02  0.39999843040E+02 0.  0.
         12    1    3    3    0    0 -0.34755686271E+02  0.88073094063E+01 -0.83820334754E+01  0.36820984673E+02  0.00000000000E+00 0. -1.
         11    1    4    4    0    0 -0.31994532745E+00 -0.10576492197E+01  0.21079741549E+01  0.23800298703E+01  0.51100000000E-03 0. -1.
        -11    1    4    4    0    0  0.18545910838E+01 -0.64935567821E+00  0.16416673779E+02  0.16533854635E+02  0.51100000000E-03 0.  1.
         12    1    4    4    0    0  0.33221040514E+02 -0.71003045084E+01 -0.10142614458E+02  0.35453130821E+02  0.00000000000E+00 0. -1.
</event>
<event>
 8    1  0.2460897E-006  0.9118800E+02  0.7816164E-02  0.1184000E+00
        -11   -1    0    0    0    0  0.00000000000E+00  0.00000000000E+00  0.45593999997E+02  0.45594000000E+02  0.51100000000E-03 0.  1.
         11   -1    0    0    0    0 -0.00000000000E+00 -0.00000000000E+00 -0.45593999997E+02  0.45594000000E+02  0.51100000000E-03 0. -1.
         23    2    1    2    0    0 -0.71054273576E-14  0.00000000000E+00  0.00000000000E+00  0.91188000000E+02  0.91188000000E+02 0.  0.
    9900012    2    3    3    0    0 -0.31414902197E+02 -0.15725814317E+02 -0.11026733011E+02  0.54366998427E+02  0.39999804513E+02 0.  0.
        -12    1    3    3    0    0  0.31414902197E+02  0.15725814317E+02  0.11026733011E+02  0.36821001573E+02  0.00000000000E+00 0.  1.
         11    1    4    4    0    0 -0.38314561661E+01 -0.14121236228E+02 -0.60085813633E+01  0.15817471960E+02  0.51100000000E-03 0. -1.
        -11    1    4    4    0    0  0.39369564676E+01  0.94798319456E+00  0.39725825424E+01  0.56727163407E+01  0.51100000000E-03 0.  1.
         12    1    4    4    0    0 -0.31520402499E+02 -0.25525612836E+01 -0.89907341900E+01  0.32876810126E+02  0.00000000000E+00 0. -1.
</event>
<event>
 8    1  0.2460897E-006  0.9118800E+02  0.7816164E-02  0.1184000E+00
        -11   -1    0    0    0    0  0.00000000000E+00  0.00000000000E+00  0.45593999997E+02  0.45594000000E+02  0.51100000000E-03 0. -1.
         11   -1    0    0    0    0 -0.00000000000E+00 -0.00000000000E+00 -0.45593999997E+02  0.45594000000E+02  0.51100000000E-03 0.  1.
         23    2    1    2    0    0  0.71054273576E-14  0.00000000000E+00 -0.38857805862E-15  0.91188000000E+02  0.91188000000E+02 0.  0.
    9900012    2    3    3    0    0  0.32264434263E+02 -0.17737726824E+02  0.39866080612E+00  0.54367087442E+02  0.40000007442E+02 0.  0.
        -12    1    3    3    0    0 -0.32264434263E+02  0.17737726824E+02 -0.39866080612E+00  0.36820912558E+02  0.00000000000E+00 0.  1.
         11    1    4    4    0    0  0.43784882658E+01 -0.13010057345E+02  0.56879234541E+01  0.14858843330E+02  0.51100000000E-03 0. -1.
        -11    1    4    4    0    0  0.16241018583E+02  0.10461003662E+02  0.10493299850E+01  0.19346947457E+02  0.51100000000E-03 0.  1.
        -12    1    4    4    0    0  0.11644927414E+02 -0.15188673141E+02 -0.63385926330E+01  0.20161296655E+02  0.00000000000E+00 0.  1.
</event>
<event>
 8    1  0.2460897E-006  0.9118800E+02  0.7816164E-02  0.1184000E+00
        -11   -1    0    0    0    0  0.00000000000E+00  0.00000000000E+00  0.45593999997E+02  0.45594000000E+02  0.51100000000E-03 0.  1.
         11   -1    0    0    0    0 -0.00000000000E+00 -0.00000000000E+00 -0.45593999997E+02  0.45594000000E+02  0.51100000000E-03 0. -1.
         23    2    1    2    0    0  0.71054273576E-14 -0.35527136788E-14  0.00000000000E+00  0.91188000000E+02  0.91188000000E+02 0.  0.
    9900012    2    3    3    0    0 -0.17357073051E+02  0.26031482878E+02 -0.19413251125E+02  0.54367076533E+02  0.39999982572E+02 0.  0.
        -12    1    3    3    0    0  0.17357073051E+02 -0.26031482878E+02  0.19413251125E+02  0.36820923467E+02  0.00000000000E+00 0.  1.
         11    1    4    4    0    0 -0.14759504267E+02  0.28999299976E+02 -0.22024083002E+01  0.32613692951E+02  0.51100000000E-03 0. -1.
        -11    1    4    4    0    0 -0.56070227792E+00 -0.44451810940E+01 -0.12385177129E+00  0.44821157420E+01  0.51100000000E-03 0.  1.
        -12    1    4    4    0    0 -0.20368665063E+01  0.14773639961E+01 -0.17086991053E+02  0.17271267840E+02  0.00000000000E+00 0.  1.
</event>
<event>
 8    1  0.2460897E-006  0.9118800E+02  0.7816164E-02  0.1184000E+00
        -11   -1    0    0    0    0  0.00000000000E+00  0.00000000000E+00  0.45593999997E+02  0.45594000000E+02  0.51100000000E-03 0.  1.
         11   -1    0    0    0    0 -0.00000000000E+00 -0.00000000000E+00 -0.45593999997E+02  0.45594000000E+02  0.51100000000E-03 0. -1.
         23    2    1    2    0    0 -0.88817841970E-15  0.00000000000E+00  0.17763568394E-14  0.91188000000E+02  0.91188000000E+02 0.  0.
    9900012    2    3    3    0    0  0.75688780127E+01 -0.35813615995E+02 -0.39847154199E+01  0.54367068969E+02  0.39999965330E+02 0.  0.
        -12    1    3    3    0    0 -0.75688780127E+01  0.35813615995E+02  0.39847154199E+01  0.36820931031E+02  0.00000000000E+00 0.  1.
         11    1    4    4    0    0  0.90246298631E+01 -0.25553135936E+02 -0.83323105248E+01  0.28351968172E+02  0.51100000000E-03 0. -1.
        -11    1    4    4    0    0 -0.21956857189E+01  0.53210451652E+01  0.81323724818E+01  0.99634351441E+01  0.51100000000E-03 0.  1.
        -12    1    4    4    0    0  0.73993386851E+00 -0.15581525224E+02 -0.37847773769E+01  0.16051665653E+02  0.00000000000E+00 0.  1.
</event>
<event>
 8    1  0.2460897E-006  0.9118800E+02  0.7816164E-02  0.1184000E+00
        -11   -1    0    0    0    0  0.00000000000E+00  0.00000000000E+00  0.45593999997E+02  0.45594000000E+02  0.51100000000E-03 0.  1.
         11   -1    0    0    0    0 -0.00000000000E+00 -0.00000000000E+00 -0.45593999997E+02  0.45594000000E+02  0.51100000000E-03 0. -1.
         23    2    1    2    0    0  0.71054273576E-14  0.44408920985E-15 -0.44408920985E-15  0.91188000000E+02  0.91188000000E+02 0.  0.
    9900012    2    3    3    0    0  0.36594233940E+02  0.28414977700E+01 -0.29268685833E+01  0.54367100677E+02  0.40000037614E+02 0.  0.
        -12    1    3    3    0    0 -0.36594233940E+02 -0.28414977700E+01  0.29268685833E+01  0.36820899323E+02  0.00000000000E+00 0.  1.
         11    1    4    4    0    0 -0.57510693226E+01 -0.21378126822E+01 -0.72006047543E+01  0.94601136624E+01  0.51100000000E-03 0. -1.
        -11    1    4    4    0    0 -0.99917059158E+00  0.16653013212E+00 -0.30131282168E+00  0.10568177864E+01  0.51100000000E-03 0.  1.
        -12    1    4    4    0    0  0.43344473854E+02  0.48127803201E+01  0.45750489926E+01  0.43850169229E+02  0.00000000000E+00 0.  1.
</event>
<event>
 8    1  0.2460897E-006  0.9118800E+02  0.7816164E-02  0.1184000E+00
        -11   -1    0    0    0    0  0.00000000000E+00  0.00000000000E+00  0.45593999997E+02  0.45594000000E+02  0.51100000000E-03 0.  1.
         11   -1    0    0    0    0 -0.00000000000E+00 -0.00000000000E+00 -0.45593999997E+02  0.45594000000E+02  0.51100000000E-03 0. -1.
         23    2    1    2    0    0  0.71054273576E-14  0.00000000000E+00  0.00000000000E+00  0.91188000000E+02  0.91188000000E+02 0.  0.
    9900012    2    3    3    0    0 -0.28692838500E+02  0.89257501969E+01  0.21279871503E+02  0.54367069417E+02  0.39999966351E+02 0.  0.
         12    1    3    3    0    0  0.28692838500E+02 -0.89257501969E+01 -0.21279871503E+02  0.36820930583E+02  0.00000000000E+00 0. -1.
         11    1    4    4    0    0 -0.92750796112E+01 -0.35671105140E+01 -0.22667230218E+01  0.10192615598E+02  0.51100000000E-03 0. -1.
        -11    1    4    4    0    0 -0.17400104210E+02  0.21769172029E+02  0.18082634593E+02  0.33221110028E+02  0.51100000000E-03 0.  1.
        -12    1    4    4    0    0 -0.20176546787E+01 -0.92763113185E+01  0.54639599315E+01  0.10953343791E+02  0.00000000000E+00 0.  1.
</event>
<event>
 8    1  0.2460897E-006  0.9118800E+02  0.7816164E-02  0.1184000E+00
        -11   -1    0    0    0    0  0.00000000000E+00  0.00000000000E+00  0.45593999997E+02  0.45594000000E+02  0.51100000000E-03 0. -1.
         11   -1    0    0    0    0 -0.00000000000E+00 -0.00000000000E+00 -0.45593999997E+02  0.45594000000E+02  0.51100000000E-03 0.  1.
         23    2    1    2    0    0  0.00000000000E+00 -0.11102230246E-14  0.38857805862E-15  0.91188000000E+02  0.91188000000E+02 0.  0.
    9900012    2    3    3    0    0 -0.36798791433E+02 -0.12562323238E+01  0.22234574812E+00  0.54367100932E+02  0.40000038194E+02 0.  0.
         12    1    3    3    0    0  0.36798791433E+02  0.12562323238E+01 -0.22234574812E+00  0.36820899068E+02  0.00000000000E+00 0. -1.
         11    1    4    4    0    0 -0.23602526986E+02  0.14148862230E+02 -0.11282018070E+02  0.29741444391E+02  0.51100000000E-03 0. -1.
        -11    1    4    4    0    0 -0.89137891172E+01 -0.78598343849E+01  0.25440712998E+01  0.12153391791E+02  0.51100000000E-03 0.  1.
         12    1    4    4    0    0 -0.42824753301E+01 -0.75452601689E+01  0.89602925180E+01  0.12472264749E+02  0.00000000000E+00 0. -1.
</event>
<event>
 8    1  0.2460897E-006  0.9118800E+02  0.7816164E-02  0.1184000E+00
        -11   -1    0    0    0    0  0.00000000000E+00  0.00000000000E+00  0.45593999997E+02  0.45594000000E+02  0.51100000000E-03 0.  1.
         11   -1    0    0    0    0 -0.00000000000E+00 -0.00000000000E+00 -0.45593999997E+02  0.45594000000E+02  0.51100000000E-03 0. -1.
         23    2    1    2    0    0  0.00000000000E+00 -0.17763568394E-14  0.00000000000E+00  0.91188000000E+02  0.91188000000E+02 0.  0.
    9900012    2    3    3    0    0  0.29123315470E+02  0.10292867225E+02  0.20041700518E+02  0.54367076881E+02  0.39999983366E+02 0.  0.
         12    1    3    3    0    0 -0.29123315470E+02 -0.10292867225E+02 -0.20041700518E+02  0.36820923119E+02  0.00000000000E+00 0. -1.
         11    1    4    4    0    0  0.57405934359E+00 -0.21612106924E+01  0.13821784972E+02  0.14001504057E+02  0.51100000000E-03 0. -1.
        -11    1    4    4    0    0  0.93661541765E+01 -0.75394554401E+01  0.27392516514E+00  0.12026772952E+02  0.51100000000E-03 0.  1.
         12    1    4    4    0    0  0.19183101950E+02  0.19993533357E+02  0.59459903804E+01  0.28338799871E+02  0.00000000000E+00 0. -1.
</event>
<event>
 8    1  0.2460897E-006  0.9118800E+02  0.7816164E-02  0.1184000E+00
        -11   -1    0    0    0    0  0.00000000000E+00  0.00000000000E+00  0.45593999997E+02  0.45594000000E+02  0.51100000000E-03 0.  1.
         11   -1    0    0    0    0 -0.00000000000E+00 -0.00000000000E+00 -0.45593999997E+02  0.45594000000E+02  0.51100000000E-03 0. -1.
         23    2    1    2    0    0  0.35527136788E-14  0.00000000000E+00  0.00000000000E+00  0.91188000000E+02  0.91188000000E+02 0.  0.
    9900012    2    3    3    0    0 -0.15631931389E+02 -0.28163502762E+02  0.17839265330E+02  0.54367088085E+02  0.40000008907E+02 0.  0.
         12    1    3    3    0    0  0.15631931389E+02  0.28163502762E+02 -0.17839265330E+02  0.36820911915E+02  0.00000000000E+00 0. -1.
         11    1    4    4    0    0  0.48457599974E+01 -0.11932664896E+02 -0.97693469500E+01  0.16165086501E+02  0.51100000000E-03 0. -1.
        -11    1    4    4    0    0 -0.10465926518E+02 -0.10417825358E+02  0.16742439082E+02  0.22324335819E+02  0.51100000000E-03 0.  1.
         12    1    4    4    0    0 -0.10011764868E+02 -0.58130125079E+01  0.10866173198E+02  0.15877665765E+02  0.00000000000E+00 0. -1.
</event>
<event>
 8    1  0.2460897E-006  0.9118800E+02  0.7816164E-02  0.1184000E+00
        -11   -1    0    0    0    0  0.00000000000E+00  0.00000000000E+00  0.45593999997E+02  0.45594000000E+02  0.51100000000E-03 0.  1.
         11   -1    0    0    0    0 -0.00000000000E+00 -0.00000000000E+00 -0.45593999997E+02  0.45594000000E+02  0.51100000000E-03 0. -1.
         23    2    1    2    0    0 -0.44408920985E-15  0.00000000000E+00  0.17763568394E-14  0.91188000000E+02  0.91188000000E+02 0.  0.
    9900012    2    3    3    0    0  0.30443694071E+01 -0.35316569926E+02  0.99625175607E+01  0.54367081318E+02  0.39999993481E+02 0.  0.
         12    1    3    3    0    0 -0.30443694071E+01  0.35316569926E+02 -0.99625175607E+01  0.36820918682E+02  0.00000000000E+00 0. -1.
         11    1    4    4    0    0  0.28673599932E+01  0.49722471674E+01  0.49093857395E+01  0.75529506701E+01  0.51100000000E-03 0. -1.
        -11    1    4    4    0    0 -0.73873620475E+01 -0.24560871939E+02 -0.57556330993E+01  0.26285677869E+02  0.51100000000E-03 0.  1.
        -12    1    4    4    0    0  0.75643714613E+01 -0.15727945155E+02  0.10808764921E+02  0.20528452779E+02  0.00000000000E+00 0.  1.
</event>
<event>
 8    1  0.2460897E-006  0.9118800E+02  0.7816164E-02  0.1184000E+00
        -11   -1    0    0    0    0  0.00000000000E+00  0.00000000000E+00  0.45593999997E+02  0.45594000000E+02  0.51100000000E-03 0.  1.
         11   -1    0    0    0    0 -0.00000000000E+00 -0.00000000000E+00 -0.45593999997E+02  0.45594000000E+02  0.51100000000E-03 0. -1.
         23    2    1    2    0    0 -0.44408920985E-15 -0.35527136788E-14 -0.71054273576E-14  0.91188000000E+02  0.91188000000E+02 0.  0.
    9900012    2    3    3    0    0  0.31630128705E+01 -0.14785194533E+02 -0.33573384892E+02  0.54367098315E+02  0.40000032228E+02 0.  0.
        -12    1    3    3    0    0 -0.31630128705E+01  0.14785194533E+02  0.33573384892E+02  0.36820901685E+02  0.00000000000E+00 0.  1.
         11    1    4    4    0    0 -0.13961835148E+01  0.30634658045E+01  0.68227228808E+00  0.34350614082E+01  0.51100000000E-03 0. -1.
        -11    1    4    4    0    0 -0.13715141127E+02 -0.39278613629E+01 -0.93930973924E+01  0.17081085150E+02  0.51100000000E-03 0.  1.
         12    1    4    4    0    0  0.18274337513E+02 -0.13920798974E+02 -0.24862559788E+02  0.33850951756E+02  0.00000000000E+00 0. -1.
</event>
<event>
 8    1  0.2460897E-006  0.9118800E+02  0.7816164E-02  0.1184000E+00
        -11   -1    0    0    0    0  0.00000000000E+00  0.00000000000E+00  0.45593999997E+02  0.45594000000E+02  0.51100000000E-03 0. -1.
         11   -1    0    0    0    0 -0.00000000000E+00 -0.00000000000E+00 -0.45593999997E+02  0.45594000000E+02  0.51100000000E-03 0.  1.
         23    2    1    2    0    0 -0.17763568394E-14 -0.17763568394E-14  0.71054273576E-14  0.91188000000E+02  0.91188000000E+02 0.  0.
    9900012    2    3    3    0    0 -0.98816293319E+01 -0.95967151592E+01  0.34147278949E+02  0.54367079320E+02  0.39999988926E+02 0.  0.
        -12    1    3    3    0    0  0.98816293319E+01  0.95967151592E+01 -0.34147278949E+02  0.36820920680E+02  0.00000000000E+00 0.  1.
         11    1    4    4    0    0  0.23348293632E+00 -0.17891581647E+02  0.19937831283E+02  0.26789556260E+02  0.51100000000E-03 0. -1.
        -11    1    4    4    0    0 -0.83245902714E+00 -0.18858191464E+01 -0.41439927616E+01  0.46283882891E+01  0.51100000000E-03 0.  1.
        -12    1    4    4    0    0 -0.92826532411E+01  0.10180685634E+02  0.18353440428E+02  0.22949134771E+02  0.00000000000E+00 0.  1.
</event>
<event>
 8    1  0.2460897E-006  0.9118800E+02  0.7816164E-02  0.1184000E+00
        -11   -1    0    0    0    0  0.00000000000E+00  0.00000000000E+00  0.45593999997E+02  0.45594000000E+02  0.51100000000E-03 0.  1.
         11   -1    0    0    0    0 -0.00000000000E+00 -0.00000000000E+00 -0.45593999997E+02  0.45594000000E+02  0.51100000000E-03 0. -1.
         23    2    1    2    0    0  0.00000000000E+00  0.00000000000E+00  0.00000000000E+00  0.91188000000E+02  0.91188000000E+02 0.  0.
    9900012    2    3    3    0    0  0.16931727453E+02 -0.10112466386E+02  0.31094025096E+02  0.54367030871E+02  0.39999878476E+02 0.  0.
         12    1    3    3    0    0 -0.16931727453E+02  0.10112466386E+02 -0.31094025096E+02  0.36820969129E+02  0.00000000000E+00 0. -1.
         11    1    4    4    0    0 -0.58425736934E+01 -0.84277308998E+01  0.18347624040E+02  0.21018982460E+02  0.51100000000E-03 0. -1.
        -11    1    4    4    0    0  0.78204322582E+01 -0.47765471161E+01  0.15330749984E+02  0.17860751898E+02  0.51100000000E-03 0.  1.
         12    1    4    4    0    0  0.14953868888E+02  0.30918116300E+01 -0.25843489277E+01  0.15487296512E+02  0.00000000000E+00 0. -1.
</event>
<event>
 8    1  0.2460897E-006  0.9118800E+02  0.7816164E-02  0.1184000E+00
        -11   -1    0    0    0    0  0.00000000000E+00  0.00000000000E+00  0.45593999997E+02  0.45594000000E+02  0.51100000000E-03 0. -1.
         11   -1    0    0    0    0 -0.00000000000E+00 -0.00000000000E+00 -0.45593999997E+02  0.45594000000E+02  0.51100000000E-03 0.  1.
         23    2    1    2    0    0 -0.35527136788E-14  0.00000000000E+00  0.00000000000E+00  0.91188000000E+02  0.91188000000E+02 0.  0.
    9900012    2    3    3    0    0  0.30902736834E+02  0.16394425113E+02 -0.11490137639E+02  0.54367087714E+02  0.40000008061E+02 0.  0.
        -12    1    3    3    0    0 -0.30902736834E+02 -0.16394425113E+02  0.11490137639E+02  0.36820912286E+02  0.00000000000E+00 0.  1.
         11    1    4    4    0    0  0.11075771615E+01  0.30494178838E+01  0.12141102011E+02  0.12567101292E+02  0.51100000000E-03 0. -1.
        -11    1    4    4    0    0  0.23588915420E+02  0.13553740330E+02 -0.14702507259E+02  0.30924173839E+02  0.51100000000E-03 0.  1.
        -12    1    4    4    0    0  0.62062442521E+01 -0.20873310079E+00 -0.89287323908E+01  0.10875812583E+02  0.00000000000E+00 0.  1.
</event>
<event>
 8    1  0.2460897E-006  0.9118800E+02  0.7816164E-02  0.1184000E+00
        -11   -1    0    0    0    0  0.00000000000E+00  0.00000000000E+00  0.45593999997E+02  0.45594000000E+02  0.51100000000E-03 0.  1.
         11   -1    0    0    0    0 -0.00000000000E+00 -0.00000000000E+00 -0.45593999997E+02  0.45594000000E+02  0.51100000000E-03 0. -1.
         23    2    1    2    0    0  0.00000000000E+00 -0.35527136788E-14  0.35527136788E-14  0.91188000000E+02  0.91188000000E+02 0.  0.
    9900012    2    3    3    0    0 -0.20344211799E+02 -0.25568065461E+02  0.16975468970E+02  0.54367089203E+02  0.40000011457E+02 0.  0.
        -12    1    3    3    0    0  0.20344211799E+02  0.25568065461E+02 -0.16975468970E+02  0.36820910797E+02  0.00000000000E+00 0.  1.
         11    1    4    4    0    0 -0.51761051836E+01  0.24653285044E+00 -0.54847055313E+01  0.75455177652E+01  0.51100000000E-03 0. -1.
        -11    1    4    4    0    0 -0.86610672927E+01 -0.65388218316E+01  0.24080294918E+02  0.26412703027E+02  0.51100000000E-03 0.  1.
        -12    1    4    4    0    0 -0.65070393226E+01 -0.19275776480E+02 -0.16201204169E+01  0.20408868411E+02  0.00000000000E+00 0.  1.
</event>
<event>
 8    1  0.2460897E-006  0.9118800E+02  0.7816164E-02  0.1184000E+00
        -11   -1    0    0    0    0  0.00000000000E+00  0.00000000000E+00  0.45593999997E+02  0.45594000000E+02  0.51100000000E-03 0.  1.
         11   -1    0    0    0    0 -0.00000000000E+00 -0.00000000000E+00 -0.45593999997E+02  0.45594000000E+02  0.51100000000E-03 0. -1.
         23    2    1    2    0    0 -0.17763568394E-14 -0.71054273576E-14  0.88817841970E-15  0.91188000000E+02  0.91188000000E+02 0.  0.
    9900012    2    3    3    0    0 -0.15031921355E+02 -0.33239086515E+02  0.49984768884E+01  0.54367077915E+02  0.39999985723E+02 0.  0.
         12    1    3    3    0    0  0.15031921355E+02  0.33239086515E+02 -0.49984768884E+01  0.36820922085E+02  0.00000000000E+00 0. -1.
         11    1    4    4    0    0 -0.13994297351E+02 -0.32876200469E+01  0.11499991951E+02  0.18409199305E+02  0.51100000000E-03 0. -1.
        -11    1    4    4    0    0 -0.90458703175E+00 -0.19579625095E+02 -0.13181274158E+02  0.23620456923E+02  0.51100000000E-03 0.  1.
        -12    1    4    4    0    0 -0.13303697171E+00 -0.10371841374E+02  0.66797590955E+01  0.12337421687E+02  0.00000000000E+00 0.  1.
</event>
<event>
 8    1  0.2460897E-006  0.9118800E+02  0.7816164E-02  0.1184000E+00
        -11   -1    0    0    0    0  0.00000000000E+00  0.00000000000E+00  0.45593999997E+02  0.45594000000E+02  0.51100000000E-03 0.  1.
         11   -1    0    0    0    0 -0.00000000000E+00 -0.00000000000E+00 -0.45593999997E+02  0.45594000000E+02  0.51100000000E-03 0. -1.
         23    2    1    2    0    0  0.00000000000E+00  0.35527136788E-14 -0.35527136788E-14  0.91188000000E+02  0.91188000000E+02 0.  0.
    9900012    2    3    3    0    0 -0.18485081256E+02  0.26078350988E+02  0.18275497156E+02  0.54367185023E+02  0.40000229897E+02 0.  0.
         12    1    3    3    0    0  0.18485081256E+02 -0.26078350988E+02 -0.18275497156E+02  0.36820814977E+02  0.00000000000E+00 0. -1.
         11    1    4    4    0    0  0.20817450003E+01 -0.24414950273E+01  0.28360713784E+01  0.42822729174E+01  0.51100000000E-03 0. -1.
        -11    1    4    4    0    0  0.43426723159E+01  0.21261317225E+02  0.70477043673E+01  0.22816059040E+02  0.51100000000E-03 0.  1.
        -12    1    4    4    0    0 -0.24909498572E+02  0.72585287897E+01  0.83917214098E+01  0.27268853066E+02  0.00000000000E+00 0.  1.
</event>
<event>
 8    1  0.2460897E-006  0.9118800E+02  0.7816164E-02  0.1184000E+00
        -11   -1    0    0    0    0  0.00000000000E+00  0.00000000000E+00  0.45593999997E+02  0.45594000000E+02  0.51100000000E-03 0. -1.
         11   -1    0    0    0    0 -0.00000000000E+00 -0.00000000000E+00 -0.45593999997E+02  0.45594000000E+02  0.51100000000E-03 0.  1.
         23    2    1    2    0    0  0.00000000000E+00  0.35527136788E-14 -0.35527136788E-14  0.91188000000E+02  0.91188000000E+02 0.  0.
    9900012    2    3    3    0    0  0.26199135553E+02  0.23257474453E+02 -0.11334621674E+02  0.54367102806E+02  0.40000042467E+02 0.  0.
         12    1    3    3    0    0 -0.26199135553E+02 -0.23257474453E+02  0.11334621674E+02  0.36820897194E+02  0.00000000000E+00 0. -1.
         11    1    4    4    0    0  0.12470763862E+02 -0.69007138104E+01  0.57943204135E+01  0.15385511096E+02  0.51100000000E-03 0. -1.
        -11    1    4    4    0    0  0.47903788100E+01  0.21799427774E+01 -0.48155427899E+01  0.71336759303E+01  0.51100000000E-03 0.  1.
         12    1    4    4    0    0  0.89379928813E+01  0.27978245486E+02 -0.12313399297E+02  0.31847915779E+02  0.00000000000E+00 0. -1.
</event>
<event>
 8    1  0.2460897E-006  0.9118800E+02  0.7816164E-02  0.1184000E+00
        -11   -1    0    0    0    0  0.00000000000E+00  0.00000000000E+00  0.45593999997E+02  0.45594000000E+02  0.51100000000E-03 0.  1.
         11   -1    0    0    0    0 -0.00000000000E+00 -0.00000000000E+00 -0.45593999997E+02  0.45594000000E+02  0.51100000000E-03 0. -1.
         23    2    1    2    0    0 -0.17763568394E-14  0.00000000000E+00  0.71054273576E-14  0.91188000000E+02  0.91188000000E+02 0.  0.
    9900012    2    3    3    0    0  0.13576641074E+02  0.92348474819E+01 -0.32957174278E+02  0.54367042282E+02  0.39999904491E+02 0.  0.
        -12    1    3    3    0    0 -0.13576641074E+02 -0.92348474819E+01  0.32957174278E+02  0.36820957718E+02  0.00000000000E+00 0.  1.
         11    1    4    4    0    0 -0.36179540943E+01  0.19201833550E+02 -0.22909419543E+02  0.30110488332E+02  0.51100000000E-03 0. -1.
        -11    1    4    4    0    0  0.45429597566E+01 -0.19131849685E+01  0.16908207154E+01  0.52112987850E+01  0.51100000000E-03 0.  1.
         12    1    4    4    0    0  0.12651635412E+02 -0.80538010993E+01 -0.11738575450E+02  0.19045255166E+02  0.00000000000E+00 0. -1.
</event>
<event>
 8    1  0.2460897E-006  0.9118800E+02  0.7816164E-02  0.1184000E+00
        -11   -1    0    0    0    0  0.00000000000E+00  0.00000000000E+00  0.45593999997E+02  0.45594000000E+02  0.51100000000E-03 0. -1.
         11   -1    0    0    0    0 -0.00000000000E+00 -0.00000000000E+00 -0.45593999997E+02  0.45594000000E+02  0.51100000000E-03 0.  1.
         23    2    1    2    0    0  0.00000000000E+00  0.35527136788E-14  0.17763568394E-14  0.91188000000E+02  0.91188000000E+02 0.  0.
    9900012    2    3    3    0    0  0.31997673710E+02 -0.14461815454E+02  0.11080865052E+02  0.54367071177E+02  0.39999970363E+02 0.  0.
        -12    1    3    3    0    0 -0.31997673710E+02  0.14461815454E+02 -0.11080865052E+02  0.36820928823E+02  0.00000000000E+00 0.  1.
         11    1    4    4    0    0  0.19753447780E+02  0.21685148850E+01  0.21025983050E+02  0.28930833370E+02  0.51100000000E-03 0. -1.
        -11    1    4    4    0    0  0.27453749542E+01 -0.79331568796E+01 -0.93182123479E+01  0.12541975257E+02  0.51100000000E-03 0.  1.
         12    1    4    4    0    0  0.94988509753E+01 -0.86971734592E+01 -0.62690564998E+00  0.12894262551E+02  0.00000000000E+00 0. -1.
</event>
<event>
 8    1  0.2460897E-006  0.9118800E+02  0.7816164E-02  0.1184000E+00
        -11   -1    0    0    0    0  0.00000000000E+00  0.00000000000E+00  0.45593999997E+02  0.45594000000E+02  0.51100000000E-03 0.  1.
         11   -1    0    0    0    0 -0.00000000000E+00 -0.00000000000E+00 -0.45593999997E+02  0.45594000000E+02  0.51100000000E-03 0. -1.
         23    2    1    2    0    0  0.17763568394E-14  0.00000000000E+00 -0.71054273576E-14  0.91188000000E+02  0.91188000000E+02 0.  0.
    9900012    2    3    3    0    0  0.35284423311E+01 -0.20873907261E+01  0.36591982565E+02  0.54367078048E+02  0.39999986027E+02 0.  0.
         12    1    3    3    0    0 -0.35284423311E+01  0.20873907261E+01 -0.36591982565E+02  0.36820921952E+02  0.00000000000E+00 0. -1.
         11    1    4    4    0    0 -0.25994628501E+01 -0.23919285434E+00 -0.34746163057E+01  0.43459612358E+01  0.51100000000E-03 0. -1.
        -11    1    4    4    0    0  0.14832452455E+02 -0.42682931650E+01  0.94460595540E+01  0.18095524688E+02  0.51100000000E-03 0.  1.
        -12    1    4    4    0    0 -0.87045472734E+01  0.24200952932E+01  0.30620539317E+02  0.31925592125E+02  0.00000000000E+00 0.  1.
</event>
<event>
 8    1  0.2460897E-006  0.9118800E+02  0.7816164E-02  0.1184000E+00
        -11   -1    0    0    0    0  0.00000000000E+00  0.00000000000E+00  0.45593999997E+02  0.45594000000E+02  0.51100000000E-03 0. -1.
         11   -1    0    0    0    0 -0.00000000000E+00 -0.00000000000E+00 -0.45593999997E+02  0.45594000000E+02  0.51100000000E-03 0.  1.
         23    2    1    2    0    0  0.00000000000E+00 -0.26645352591E-14  0.00000000000E+00  0.91188000000E+02  0.91188000000E+02 0.  0.
    9900012    2    3    3    0    0  0.32147983252E+02 -0.20732588003E+01  0.17832250987E+02  0.54367076540E+02  0.39999982588E+02 0.  0.
        -12    1    3    3    0    0 -0.32147983252E+02  0.20732588003E+01 -0.17832250987E+02  0.36820923460E+02  0.00000000000E+00 0.  1.
         11    1    4    4    0    0  0.16647682255E+01  0.26945657927E+01 -0.42759463782E+01  0.53212644875E+01  0.51100000000E-03 0. -1.
        -11    1    4    4    0    0  0.21421677936E+02 -0.16220835663E+02  0.21527305850E+02  0.34430055077E+02  0.51100000000E-03 0.  1.
        -12    1    4    4    0    0  0.90615370897E+01  0.11453011070E+02  0.58089151548E+00  0.14615756975E+02  0.00000000000E+00 0.  1.
</event>
<event>
 8    1  0.2460897E-006  0.9118800E+02  0.7816164E-02  0.1184000E+00
        -11   -1    0    0    0    0  0.00000000000E+00  0.00000000000E+00  0.45593999997E+02  0.45594000000E+02  0.51100000000E-03 0. -1.
         11   -1    0    0    0    0 -0.00000000000E+00 -0.00000000000E+00 -0.45593999997E+02  0.45594000000E+02  0.51100000000E-03 0.  1.
         23    2    1    2    0    0  0.00000000000E+00  0.00000000000E+00  0.00000000000E+00  0.91188000000E+02  0.91188000000E+02 0.  0.
    9900012    2    3    3    0    0 -0.33128852273E+02  0.66965576359E+01 -0.14608734334E+02  0.54367083988E+02  0.39999999568E+02 0.  0.
         12    1    3    3    0    0  0.33128852273E+02 -0.66965576359E+01  0.14608734334E+02  0.36820916012E+02  0.00000000000E+00 0. -1.
         11    1    4    4    0    0 -0.50056399310E+01 -0.10031310898E+01  0.57960786395E+01  0.77238093554E+01  0.51100000000E-03 0. -1.
        -11    1    4    4    0    0 -0.17908665559E+02  0.56684258608E+01  0.47860488411E+01  0.19384468463E+02  0.51100000000E-03 0.  1.
        -12    1    4    4    0    0 -0.10214546784E+02  0.20312628649E+01 -0.25190861815E+02  0.27258806170E+02  0.00000000000E+00 0.  1.
</event>
<event>
 8    1  0.2460897E-006  0.9118800E+02  0.7816164E-02  0.1184000E+00
        -11   -1    0    0    0    0  0.00000000000E+00  0.00000000000E+00  0.45593999997E+02  0.45594000000E+02  0.51100000000E-03 0.  1.
         11   -1    0    0    0    0 -0.00000000000E+00 -0.00000000000E+00 -0.45593999997E+02  0.45594000000E+02  0.51100000000E-03 0. -1.
         23    2    1    2    0    0  0.00000000000E+00 -0.22204460493E-15  0.00000000000E+00  0.91188000000E+02  0.91188000000E+02 0.  0.
    9900012    2    3    3    0    0  0.24916442780E+02 -0.11250302806E+01  0.27086618794E+02  0.54367085677E+02  0.40000003417E+02 0.  0.
         12    1    3    3    0    0 -0.24916442780E+02  0.11250302806E+01 -0.27086618794E+02  0.36820914323E+02  0.00000000000E+00 0. -1.
         11    1    4    4    0    0  0.14788335581E+00 -0.79535330078E+01 -0.59911426893E+01  0.99586318226E+01  0.51100000000E-03 0. -1.
        -11    1    4    4    0    0  0.54855201565E+01 -0.43298430320E+01  0.51394943333E+01  0.86748414586E+01  0.51100000000E-03 0.  1.
        -12    1    4    4    0    0  0.19283039268E+02  0.11158345759E+02  0.27938267150E+02  0.35733612395E+02  0.00000000000E+00 0.  1.
</event>
<event>
 8    1  0.2460897E-006  0.9118800E+02  0.7816164E-02  0.1184000E+00
        -11   -1    0    0    0    0  0.00000000000E+00  0.00000000000E+00  0.45593999997E+02  0.45594000000E+02  0.51100000000E-03 0.  1.
         11   -1    0    0    0    0 -0.00000000000E+00 -0.00000000000E+00 -0.45593999997E+02  0.45594000000E+02  0.51100000000E-03 0. -1.
         23    2    1    2    0    0  0.17763568394E-14  0.17763568394E-14  0.00000000000E+00  0.91188000000E+02  0.91188000000E+02 0.  0.
    9900012    2    3    3    0    0 -0.11704251314E+02 -0.20723394796E+01  0.34849594979E+02  0.54367104303E+02  0.40000045880E+02 0.  0.
         12    1    3    3    0    0  0.11704251314E+02  0.20723394796E+01 -0.34849594979E+02  0.36820895697E+02  0.00000000000E+00 0. -1.
         11    1    4    4    0    0  0.80576724176E+01  0.82745397981E+01  0.17047623603E+02  0.20591638216E+02  0.51100000000E-03 0. -1.
        -11    1    4    4    0    0 -0.39003817606E+01 -0.15217400398E+01  0.14795942107E+02  0.15376884396E+02  0.51100000000E-03 0.  1.
         12    1    4    4    0    0 -0.15861541972E+02 -0.88251392380E+01  0.30060292691E+01  0.18398581691E+02  0.00000000000E+00 0. -1.
</event>
<event>
 8    1  0.2460897E-006  0.9118800E+02  0.7816164E-02  0.1184000E+00
        -11   -1    0    0    0    0  0.00000000000E+00  0.00000000000E+00  0.45593999997E+02  0.45594000000E+02  0.51100000000E-03 0. -1.
         11   -1    0    0    0    0 -0.00000000000E+00 -0.00000000000E+00 -0.45593999997E+02  0.45594000000E+02  0.51100000000E-03 0.  1.
         23    2    1    2    0    0  0.00000000000E+00  0.71054273576E-14 -0.35527136788E-14  0.91188000000E+02  0.91188000000E+02 0.  0.
    9900012    2    3    3    0    0 -0.25810629312E+01  0.28784869862E+02  0.22815558170E+02  0.54367077776E+02  0.39999985407E+02 0.  0.
        -12    1    3    3    0    0  0.25810629312E+01 -0.28784869862E+02 -0.22815558170E+02  0.36820922224E+02  0.00000000000E+00 0.  1.
         11    1    4    4    0    0 -0.72777448232E+01  0.14600433288E+02  0.16190921301E+02  0.22984432879E+02  0.51100000000E-03 0. -1.
        -11    1    4    4    0    0  0.37317171052E+01 -0.36379486635E+01  0.11715457493E+02  0.12822337055E+02  0.51100000000E-03 0.  1.
        -12    1    4    4    0    0  0.96496478682E+00  0.17822385237E+02 -0.50908206243E+01  0.18560307842E+02  0.00000000000E+00 0.  1.
</event>
<event>
 8    1  0.2460897E-006  0.9118800E+02  0.7816164E-02  0.1184000E+00
        -11   -1    0    0    0    0  0.00000000000E+00  0.00000000000E+00  0.45593999997E+02  0.45594000000E+02  0.51100000000E-03 0.  1.
         11   -1    0    0    0    0 -0.00000000000E+00 -0.00000000000E+00 -0.45593999997E+02  0.45594000000E+02  0.51100000000E-03 0. -1.
         23    2    1    2    0    0  0.00000000000E+00  0.00000000000E+00 -0.44408920985E-15  0.91188000000E+02  0.91188000000E+02 0.  0.
    9900012    2    3    3    0    0  0.26094432541E+02 -0.25864889967E+02 -0.24224262633E+01  0.54367080788E+02  0.39999992272E+02 0.  0.
        -12    1    3    3    0    0 -0.26094432541E+02  0.25864889967E+02  0.24224262633E+01  0.36820919212E+02  0.00000000000E+00 0.  1.
         11    1    4    4    0    0  0.14732698026E+02 -0.13773829082E+01  0.11639220262E+02  0.18826072967E+02  0.51100000000E-03 0. -1.
        -11    1    4    4    0    0 -0.37436031407E+01 -0.13326978468E+02 -0.53989566440E+01  0.14858386611E+02  0.51100000000E-03 0.  1.
        -12    1    4    4    0    0  0.15105337656E+02 -0.11160528590E+02 -0.86626898817E+01  0.20682621210E+02  0.00000000000E+00 0.  1.
</event>
<event>
 8    1  0.2460897E-006  0.9118800E+02  0.7816164E-02  0.1184000E+00
        -11   -1    0    0    0    0  0.00000000000E+00  0.00000000000E+00  0.45593999997E+02  0.45594000000E+02  0.51100000000E-03 0.  1.
         11   -1    0    0    0    0 -0.00000000000E+00 -0.00000000000E+00 -0.45593999997E+02  0.45594000000E+02  0.51100000000E-03 0. -1.
         23    2    1    2    0    0  0.00000000000E+00  0.00000000000E+00 -0.22204460493E-15  0.91188000000E+02  0.91188000000E+02 0.  0.
    9900012    2    3    3    0    0 -0.16789443262E+02  0.32736790508E+02  0.14823564774E+01  0.54367078793E+02  0.39999987724E+02 0.  0.
         12    1    3    3    0    0  0.16789443262E+02 -0.32736790508E+02 -0.14823564774E+01  0.36820921207E+02  0.00000000000E+00 0. -1.
         11    1    4    4    0    0  0.93538790006E+00 -0.36338015944E+01  0.26721890783E+01  0.46065235571E+01  0.51100000000E-03 0. -1.
        -11    1    4    4    0    0 -0.25631277111E+02  0.30823626277E+02 -0.96447242276E+00  0.40099732050E+02  0.51100000000E-03 0.  1.
        -12    1    4    4    0    0  0.79064459485E+01  0.55469658256E+01 -0.22536017815E+00  0.96608231853E+01  0.00000000000E+00 0.  1.
</event>
<event>
 8    1  0.2460897E-006  0.9118800E+02  0.7816164E-02  0.1184000E+00
        -11   -1    0    0    0    0  0.00000000000E+00  0.00000000000E+00  0.45593999997E+02  0.45594000000E+02  0.51100000000E-03 0. -1.
         11   -1    0    0    0    0 -0.00000000000E+00 -0.00000000000E+00 -0.45593999997E+02  0.45594000000E+02  0.51100000000E-03 0.  1.
         23    2    1    2    0    0  0.35527136788E-14 -0.35527136788E-14  0.17763568394E-14  0.91188000000E+02  0.91188000000E+02 0.  0.
    9900012    2    3    3    0    0  0.25462826797E+02  0.24420640284E+02 -0.10538339235E+02  0.54367084555E+02  0.40000000860E+02 0.  0.
        -12    1    3    3    0    0 -0.25462826797E+02 -0.24420640284E+02  0.10538339235E+02  0.36820915445E+02  0.00000000000E+00 0.  1.
         11    1    4    4    0    0 -0.63624831207E+01  0.13264138342E+02 -0.55240353181E+01  0.15714118616E+02  0.51100000000E-03 0. -1.
        -11    1    4    4    0    0  0.18308705675E+02 -0.31679865500E+01 -0.14413719411E+01  0.18636587552E+02  0.51100000000E-03 0.  1.
         12    1    4    4    0    0  0.13516604243E+02  0.14324488493E+02 -0.35729319757E+01  0.20016378387E+02  0.00000000000E+00 0. -1.
</event>
<event>
 8    1  0.2460897E-006  0.9118800E+02  0.7816164E-02  0.1184000E+00
        -11   -1    0    0    0    0  0.00000000000E+00  0.00000000000E+00  0.45593999997E+02  0.45594000000E+02  0.51100000000E-03 0.  1.
         11   -1    0    0    0    0 -0.00000000000E+00 -0.00000000000E+00 -0.45593999997E+02  0.45594000000E+02  0.51100000000E-03 0. -1.
         23    2    1    2    0    0  0.35527136788E-14  0.00000000000E+00 -0.71054273576E-14  0.91188000000E+02  0.91188000000E+02 0.  0.
    9900012    2    3    3    0    0  0.18876388877E+02  0.29995720308E+01 -0.31471613155E+02  0.54367110223E+02  0.40000059374E+02 0.  0.
        -12    1    3    3    0    0 -0.18876388877E+02 -0.29995720308E+01  0.31471613155E+02  0.36820889777E+02  0.00000000000E+00 0.  1.
         11    1    4    4    0    0  0.24057935457E+02  0.78850063447E+01 -0.33318913384E+02  0.41846237261E+02  0.51100000000E-03 0. -1.
        -11    1    4    4    0    0 -0.60903604020E+01 -0.69093304968E+01 -0.58472698371E+00  0.92289351307E+01  0.51100000000E-03 0.  1.
        -12    1    4    4    0    0  0.90881382193E+00  0.20238961829E+01  0.24320272124E+01  0.32919378312E+01  0.00000000000E+00 0.  1.
</event>
<event>
 8    1  0.2460897E-006  0.9118800E+02  0.7816164E-02  0.1184000E+00
        -11   -1    0    0    0    0  0.00000000000E+00  0.00000000000E+00  0.45593999997E+02  0.45594000000E+02  0.51100000000E-03 0.  1.
         11   -1    0    0    0    0 -0.00000000000E+00 -0.00000000000E+00 -0.45593999997E+02  0.45594000000E+02  0.51100000000E-03 0. -1.
         23    2    1    2    0    0 -0.35527136788E-14 -0.35527136788E-14  0.00000000000E+00  0.91188000000E+02  0.91188000000E+02 0.  0.
    9900012    2    3    3    0    0 -0.23944506005E+02  0.24168920494E+02 -0.14082026922E+02  0.54367087900E+02  0.40000008485E+02 0.  0.
         12    1    3    3    0    0  0.23944506005E+02 -0.24168920494E+02  0.14082026922E+02  0.36820912100E+02  0.00000000000E+00 0. -1.
         11    1    4    4    0    0  0.47546752181E+01  0.30440425808E+01 -0.17913094772E+01  0.59229993726E+01  0.51100000000E-03 0. -1.
        -11    1    4    4    0    0 -0.10419146883E+02  0.10674937222E+01  0.91115638765E+01  0.13882318292E+02  0.51100000000E-03 0.  1.
         12    1    4    4    0    0 -0.18280034340E+02  0.20057384191E+02 -0.21402281321E+02  0.34561770235E+02  0.00000000000E+00 0. -1.
</event>
<event>
 8    1  0.2460897E-006  0.9118800E+02  0.7816164E-02  0.1184000E+00
        -11   -1    0    0    0    0  0.00000000000E+00  0.00000000000E+00  0.45593999997E+02  0.45594000000E+02  0.51100000000E-03 0.  1.
         11   -1    0    0    0    0 -0.00000000000E+00 -0.00000000000E+00 -0.45593999997E+02  0.45594000000E+02  0.51100000000E-03 0. -1.
         23    2    1    2    0    0  0.00000000000E+00 -0.17763568394E-14  0.00000000000E+00  0.91188000000E+02  0.91188000000E+02 0.  0.
    9900012    2    3    3    0    0 -0.72380230213E+01 -0.12106901804E+02 -0.34011933236E+02  0.54367113930E+02  0.40000067826E+02 0.  0.
        -12    1    3    3    0    0  0.72380230213E+01  0.12106901804E+02  0.34011933236E+02  0.36820886070E+02  0.00000000000E+00 0.  1.
         11    1    4    4    0    0 -0.17485908064E+02 -0.12724976645E+02 -0.18091618017E+02  0.28195543161E+02  0.51100000000E-03 0. -1.
        -11    1    4    4    0    0  0.99596131455E+01  0.49060467064E+01 -0.15960974864E+01  0.11216537600E+02  0.51100000000E-03 0.  1.
         12    1    4    4    0    0  0.28827189700E+00 -0.42879718659E+01 -0.14324217732E+02  0.14955033168E+02  0.00000000000E+00 0. -1.
</event>
<event>
 8    1  0.2460897E-006  0.9118800E+02  0.7816164E-02  0.1184000E+00
        -11   -1    0    0    0    0  0.00000000000E+00  0.00000000000E+00  0.45593999997E+02  0.45594000000E+02  0.51100000000E-03 0.  1.
         11   -1    0    0    0    0 -0.00000000000E+00 -0.00000000000E+00 -0.45593999997E+02  0.45594000000E+02  0.51100000000E-03 0. -1.
         23    2    1    2    0    0  0.00000000000E+00  0.00000000000E+00  0.00000000000E+00  0.91188000000E+02  0.91188000000E+02 0.  0.
    9900012    2    3    3    0    0  0.16405555745E+02 -0.26838046917E+02 -0.19140371306E+02  0.54367125005E+02  0.40000093075E+02 0.  0.
        -12    1    3    3    0    0 -0.16405555745E+02  0.26838046917E+02  0.19140371306E+02  0.36820874995E+02  0.00000000000E+00 0.  1.
         11    1    4    4    0    0  0.29108984916E+01 -0.14961601769E+02 -0.42833668684E+01  0.15832564212E+02  0.51100000000E-03 0. -1.
        -11    1    4    4    0    0  0.21108615458E+02 -0.15942965178E+02 -0.13806285854E+02  0.29838989838E+02  0.51100000000E-03 0.  1.
        -12    1    4    4    0    0 -0.76139582046E+01  0.40665200304E+01 -0.10507185844E+01  0.86955709556E+01  0.00000000000E+00 0.  1.
</event>
<event>
 8    1  0.2460897E-006  0.9118800E+02  0.7816164E-02  0.1184000E+00
        -11   -1    0    0    0    0  0.00000000000E+00  0.00000000000E+00  0.45593999997E+02  0.45594000000E+02  0.51100000000E-03 0.  1.
         11   -1    0    0    0    0 -0.00000000000E+00 -0.00000000000E+00 -0.45593999997E+02  0.45594000000E+02  0.51100000000E-03 0. -1.
         23    2    1    2    0    0 -0.35527136788E-14 -0.35527136788E-14  0.00000000000E+00  0.91188000000E+02  0.91188000000E+02 0.  0.
    9900012    2    3    3    0    0  0.19945671234E+02 -0.30543397752E+02 -0.50053831494E+01  0.54367043906E+02  0.39999908193E+02 0.  0.
        -12    1    3    3    0    0 -0.19945671234E+02  0.30543397752E+02  0.50053831494E+01  0.36820956094E+02  0.00000000000E+00 0.  1.
         11    1    4    4    0    0  0.16747263777E+02 -0.11621144722E+02 -0.51185736355E+01  0.21017175000E+02  0.51100000000E-03 0. -1.
        -11    1    4    4    0    0 -0.10891661031E+02 -0.14129715613E+02  0.32658718287E+01  0.18136787543E+02  0.51100000000E-03 0.  1.
        -12    1    4    4    0    0  0.14090068489E+02 -0.47925374162E+01 -0.31526813426E+01  0.15213081363E+02  0.00000000000E+00 0.  1.
</event>
<event>
 8    1  0.2460897E-006  0.9118800E+02  0.7816164E-02  0.1184000E+00
        -11   -1    0    0    0    0  0.00000000000E+00  0.00000000000E+00  0.45593999997E+02  0.45594000000E+02  0.51100000000E-03 0.  1.
         11   -1    0    0    0    0 -0.00000000000E+00 -0.00000000000E+00 -0.45593999997E+02  0.45594000000E+02  0.51100000000E-03 0. -1.
         23    2    1    2    0    0  0.00000000000E+00  0.00000000000E+00  0.00000000000E+00  0.91188000000E+02  0.91188000000E+02 0.  0.
    9900012    2    3    3    0    0  0.14009135411E+02 -0.22428482808E+02 -0.25622014912E+02  0.54367077087E+02  0.39999983834E+02 0.  0.
        -12    1    3    3    0    0 -0.14009135411E+02  0.22428482808E+02  0.25622014912E+02  0.36820922913E+02  0.00000000000E+00 0.  1.
         11    1    4    4    0    0  0.46174957098E+01 -0.22365591951E+02  0.87188917947E+00  0.22853909096E+02  0.51100000000E-03 0. -1.
        -11    1    4    4    0    0  0.26725376872E+01 -0.57471154225E+01 -0.18743220989E+02  0.19785856733E+02  0.51100000000E-03 0.  1.
        -12    1    4    4    0    0  0.67191020138E+01  0.56842245652E+01 -0.77506831027E+01  0.11727311258E+02  0.00000000000E+00 0.  1.
</event>
<event>
 8    1  0.2460897E-006  0.9118800E+02  0.7816164E-02  0.1184000E+00
        -11   -1    0    0    0    0  0.00000000000E+00  0.00000000000E+00  0.45593999997E+02  0.45594000000E+02  0.51100000000E-03 0.  1.
         11   -1    0    0    0    0 -0.00000000000E+00 -0.00000000000E+00 -0.45593999997E+02  0.45594000000E+02  0.51100000000E-03 0. -1.
         23    2    1    2    0    0  0.00000000000E+00  0.00000000000E+00  0.00000000000E+00  0.91188000000E+02  0.91188000000E+02 0.  0.
    9900012    2    3    3    0    0  0.25948821810E+02 -0.22788319807E+02  0.12772315117E+02  0.54367069724E+02  0.39999967049E+02 0.  0.
         12    1    3    3    0    0 -0.25948821810E+02  0.22788319807E+02 -0.12772315117E+02  0.36820930276E+02  0.00000000000E+00 0. -1.
         11    1    4    4    0    0  0.14217251085E+02 -0.33756355581E+01  0.98913153873E+01  0.17645488494E+02  0.51100000000E-03 0. -1.
        -11    1    4    4    0    0  0.22333289494E+00 -0.19572027205E+02  0.11171660386E+02  0.22537083274E+02  0.51100000000E-03 0.  1.
         12    1    4    4    0    0  0.11508237830E+02  0.15934295553E+00 -0.82906606558E+01  0.14184497955E+02  0.00000000000E+00 0. -1.
</event>
<event>
 8    1  0.2460897E-006  0.9118800E+02  0.7816164E-02  0.1184000E+00
        -11   -1    0    0    0    0  0.00000000000E+00  0.00000000000E+00  0.45593999997E+02  0.45594000000E+02  0.51100000000E-03 0.  1.
         11   -1    0    0    0    0 -0.00000000000E+00 -0.00000000000E+00 -0.45593999997E+02  0.45594000000E+02  0.51100000000E-03 0. -1.
         23    2    1    2    0    0  0.35527136788E-14 -0.71054273576E-14  0.00000000000E+00  0.91188000000E+02  0.91188000000E+02 0.  0.
    9900012    2    3    3    0    0  0.16971551138E+02 -0.32394036721E+02  0.42864173760E+01  0.54367074740E+02  0.39999978484E+02 0.  0.
         12    1    3    3    0    0 -0.16971551138E+02  0.32394036721E+02 -0.42864173760E+01  0.36820925260E+02  0.00000000000E+00 0. -1.
         11    1    4    4    0    0 -0.42296548911E+01  0.60431546051E+01  0.13936675544E+01  0.75067974258E+01  0.51100000000E-03 0. -1.
        -11    1    4    4    0    0  0.33263126028E+01 -0.13477968911E+02 -0.56593309237E+01  0.14991598589E+02  0.51100000000E-03 0.  1.
         12    1    4    4    0    0  0.17874893426E+02 -0.24959222415E+02  0.85520807453E+01  0.31868678724E+02  0.00000000000E+00 0. -1.
</event>
<event>
 8    1  0.2460897E-006  0.9118800E+02  0.7816164E-02  0.1184000E+00
        -11   -1    0    0    0    0  0.00000000000E+00  0.00000000000E+00  0.45593999997E+02  0.45594000000E+02  0.51100000000E-03 0.  1.
         11   -1    0    0    0    0 -0.00000000000E+00 -0.00000000000E+00 -0.45593999997E+02  0.45594000000E+02  0.51100000000E-03 0. -1.
         23    2    1    2    0    0  0.00000000000E+00  0.00000000000E+00  0.00000000000E+00  0.91188000000E+02  0.91188000000E+02 0.  0.
    9900012    2    3    3    0    0  0.18869300139E+01  0.64034470983E+01 -0.36210719191E+02  0.54367070843E+02  0.39999969602E+02 0.  0.
        -12    1    3    3    0    0 -0.18869300139E+01 -0.64034470983E+01  0.36210719191E+02  0.36820929157E+02  0.00000000000E+00 0.  1.
         11    1    4    4    0    0  0.19694491297E+01  0.56296426891E+00  0.80414384874E+01  0.82982161849E+01  0.51100000000E-03 0. -1.
        -11    1    4    4    0    0 -0.51326748439E+00 -0.28747526004E+01 -0.44583787339E+01  0.53296141718E+01  0.51100000000E-03 0.  1.
         12    1    4    4    0    0  0.43074836851E+00  0.87152354297E+01 -0.39793778945E+02  0.40739240487E+02  0.00000000000E+00 0. -1.
</event>
<event>
 8    1  0.2460897E-006  0.9118800E+02  0.7816164E-02  0.1184000E+00
        -11   -1    0    0    0    0  0.00000000000E+00  0.00000000000E+00  0.45593999997E+02  0.45594000000E+02  0.51100000000E-03 0.  1.
         11   -1    0    0    0    0 -0.00000000000E+00 -0.00000000000E+00 -0.45593999997E+02  0.45594000000E+02  0.51100000000E-03 0. -1.
         23    2    1    2    0    0  0.00000000000E+00 -0.35527136788E-14  0.35527136788E-14  0.91188000000E+02  0.91188000000E+02 0.  0.
    9900012    2    3    3    0    0  0.10035109766E+02  0.16648552606E+02 -0.31271431566E+02  0.54367079804E+02  0.39999990028E+02 0.  0.
        -12    1    3    3    0    0 -0.10035109766E+02 -0.16648552606E+02  0.31271431566E+02  0.36820920196E+02  0.00000000000E+00 0.  1.
         11    1    4    4    0    0  0.60033296603E+01  0.11739087005E+00 -0.19888037439E+01  0.63252737664E+01  0.51100000000E-03 0. -1.
        -11    1    4    4    0    0  0.16837135963E+01 -0.54066976969E+01  0.48119604814E+01  0.74311664896E+01  0.51100000000E-03 0.  1.
         12    1    4    4    0    0  0.23480665096E+01  0.21937859433E+02 -0.34094588304E+02  0.40610639548E+02  0.00000000000E+00 0. -1.
</event>
<event>
 8    1  0.2460897E-006  0.9118800E+02  0.7816164E-02  0.1184000E+00
        -11   -1    0    0    0    0  0.00000000000E+00  0.00000000000E+00  0.45593999997E+02  0.45594000000E+02  0.51100000000E-03 0.  1.
         11   -1    0    0    0    0 -0.00000000000E+00 -0.00000000000E+00 -0.45593999997E+02  0.45594000000E+02  0.51100000000E-03 0. -1.
         23    2    1    2    0    0  0.00000000000E+00  0.17763568394E-14  0.35527136788E-14  0.91188000000E+02  0.91188000000E+02 0.  0.
    9900012    2    3    3    0    0 -0.17109799202E+02  0.11496398847E+02  0.30510125247E+02  0.54367079889E+02  0.39999990224E+02 0.  0.
         12    1    3    3    0    0  0.17109799202E+02 -0.11496398847E+02 -0.30510125247E+02  0.36820920111E+02  0.00000000000E+00 0. -1.
         11    1    4    4    0    0  0.26157356484E+01  0.13179473731E+02  0.93924311745E+01  0.16393851422E+02  0.51100000000E-03 0. -1.
        -11    1    4    4    0    0 -0.24157128425E+02 -0.57689929265E+01  0.19895975677E+02  0.31822915981E+02  0.51100000000E-03 0.  1.
        -12    1    4    4    0    0  0.44315935737E+01  0.40859180419E+01  0.12217183958E+01  0.61503124869E+01  0.00000000000E+00 0.  1.
</event>
<event>
 8    1  0.2460897E-006  0.9118800E+02  0.7816164E-02  0.1184000E+00
        -11   -1    0    0    0    0  0.00000000000E+00  0.00000000000E+00  0.45593999997E+02  0.45594000000E+02  0.51100000000E-03 0.  1.
         11   -1    0    0    0    0 -0.00000000000E+00 -0.00000000000E+00 -0.45593999997E+02  0.45594000000E+02  0.51100000000E-03 0. -1.
         23    2    1    2    0    0  0.44408920985E-15  0.35527136788E-14  0.35527136788E-14  0.91188000000E+02  0.91188000000E+02 0.  0.
    9900012    2    3    3    0    0  0.13752722285E+01 -0.24269331627E+02 -0.27656608318E+02  0.54367084545E+02  0.40000000837E+02 0.  0.
        -12    1    3    3    0    0 -0.13752722285E+01  0.24269331627E+02  0.27656608318E+02  0.36820915455E+02  0.00000000000E+00 0.  1.
         11    1    4    4    0    0 -0.74108579028E+01 -0.66056941332E+01 -0.18073861930E+02  0.20620875228E+02  0.51100000000E-03 0. -1.
        -11    1    4    4    0    0  0.12333190581E+02  0.37817021927E+00 -0.91369105872E+01  0.15353622959E+02  0.51100000000E-03 0.  1.
        -12    1    4    4    0    0 -0.35470604493E+01 -0.18041807713E+02 -0.44583580062E+00  0.18392586359E+02  0.00000000000E+00 0.  1.
</event>
<event>
 8    1  0.2460897E-006  0.9118800E+02  0.7816164E-02  0.1184000E+00
        -11   -1    0    0    0    0  0.00000000000E+00  0.00000000000E+00  0.45593999997E+02  0.45594000000E+02  0.51100000000E-03 0. -1.
         11   -1    0    0    0    0 -0.00000000000E+00 -0.00000000000E+00 -0.45593999997E+02  0.45594000000E+02  0.51100000000E-03 0.  1.
         23    2    1    2    0    0  0.17763568394E-14 -0.22204460493E-15  0.00000000000E+00  0.91188000000E+02  0.91188000000E+02 0.  0.
    9900012    2    3    3    0    0  0.80761226109E+01 -0.69197335009E+00 -0.35917642536E+02  0.54367087072E+02  0.40000006597E+02 0.  0.
         12    1    3    3    0    0 -0.80761226109E+01  0.69197335009E+00  0.35917642536E+02  0.36820912928E+02  0.00000000000E+00 0. -1.
         11    1    4    4    0    0  0.78555141984E+01  0.85808302694E+01 -0.20817290658E+02  0.23847417933E+02  0.51100000000E-03 0. -1.
        -11    1    4    4    0    0  0.10964939648E+02 -0.16146803816E+01 -0.13124746360E+02  0.17178360268E+02  0.51100000000E-03 0.  1.
        -12    1    4    4    0    0 -0.10744331236E+02 -0.76581232379E+01 -0.19756055177E+01  0.13341308871E+02  0.00000000000E+00 0.  1.
</event>
<event>
 8    1  0.2460897E-006  0.9118800E+02  0.7816164E-02  0.1184000E+00
        -11   -1    0    0    0    0  0.00000000000E+00  0.00000000000E+00  0.45593999997E+02  0.45594000000E+02  0.51100000000E-03 0.  1.
         11   -1    0    0    0    0 -0.00000000000E+00 -0.00000000000E+00 -0.45593999997E+02  0.45594000000E+02  0.51100000000E-03 0. -1.
         23    2    1    2    0    0  0.00000000000E+00  0.27755575616E-15  0.00000000000E+00  0.91188000000E+02  0.91188000000E+02 0.  0.
    9900012    2    3    3    0    0  0.16344904249E+02 -0.42574302440E+00  0.32991555734E+02  0.54367083366E+02  0.39999998149E+02 0.  0.
         12    1    3    3    0    0 -0.16344904249E+02  0.42574302440E+00 -0.32991555734E+02  0.36820916634E+02  0.00000000000E+00 0. -1.
         11    1    4    4    0    0  0.79030220312E+01  0.51728182963E+01 -0.59558861745E+01  0.11166395423E+02  0.51100000000E-03 0. -1.
        -11    1    4    4    0    0  0.13025027027E+02 -0.49411426182E+01  0.31312327428E+02  0.34271388485E+02  0.51100000000E-03 0.  1.
         12    1    4    4    0    0 -0.45831448092E+01 -0.65741870246E+00  0.76351144802E+01  0.89292994585E+01  0.00000000000E+00 0. -1.
</event>
<event>
 8    1  0.2460897E-006  0.9118800E+02  0.7816164E-02  0.1184000E+00
        -11   -1    0    0    0    0  0.00000000000E+00  0.00000000000E+00  0.45593999997E+02  0.45594000000E+02  0.51100000000E-03 0. -1.
         11   -1    0    0    0    0 -0.00000000000E+00 -0.00000000000E+00 -0.45593999997E+02  0.45594000000E+02  0.51100000000E-03 0.  1.
         23    2    1    2    0    0 -0.88817841970E-15  0.00000000000E+00  0.44408920985E-15  0.91188000000E+02  0.91188000000E+02 0.  0.
    9900012    2    3    3    0    0 -0.53984149711E+01 -0.36421112984E+02  0.37122927420E+00  0.54367106932E+02  0.40000051872E+02 0.  0.
        -12    1    3    3    0    0  0.53984149711E+01  0.36421112984E+02 -0.37122927420E+00  0.36820893068E+02  0.00000000000E+00 0.  1.
         11    1    4    4    0    0  0.32444513719E+01  0.37542524741E+01 -0.49434370346E+01  0.70041734930E+01  0.51100000000E-03 0. -1.
        -11    1    4    4    0    0 -0.12996746960E+02 -0.10476199769E+02 -0.86939436317E+00  0.16715921750E+02  0.51100000000E-03 0.  1.
         12    1    4    4    0    0  0.43538806168E+01 -0.29699165689E+02  0.61840606720E+01  0.30647011688E+02  0.00000000000E+00 0. -1.
</event>
<event>
 8    1  0.2460897E-006  0.9118800E+02  0.7816164E-02  0.1184000E+00
        -11   -1    0    0    0    0  0.00000000000E+00  0.00000000000E+00  0.45593999997E+02  0.45594000000E+02  0.51100000000E-03 0. -1.
         11   -1    0    0    0    0 -0.00000000000E+00 -0.00000000000E+00 -0.45593999997E+02  0.45594000000E+02  0.51100000000E-03 0.  1.
         23    2    1    2    0    0  0.17763568394E-14  0.35527136788E-14  0.00000000000E+00  0.91188000000E+02  0.91188000000E+02 0.  0.
    9900012    2    3    3    0    0  0.13210372205E+02 -0.18140706500E+02  0.29192171494E+02  0.54367054294E+02  0.39999931875E+02 0.  0.
        -12    1    3    3    0    0 -0.13210372205E+02  0.18140706500E+02 -0.29192171494E+02  0.36820945706E+02  0.00000000000E+00 0.  1.
         11    1    4    4    0    0 -0.96922421859E+00 -0.11894902182E+02  0.24153973861E+02  0.26941465199E+02  0.51100000000E-03 0. -1.
        -11    1    4    4    0    0  0.15200211876E+02 -0.10370565247E+02  0.99597836189E+01  0.20923488108E+02  0.51100000000E-03 0.  1.
         12    1    4    4    0    0 -0.10206154524E+01  0.41247609292E+01 -0.49215859862E+01  0.65021009870E+01  0.00000000000E+00 0. -1.
</event>
<event>
 8    1  0.2460897E-006  0.9118800E+02  0.7816164E-02  0.1184000E+00
        -11   -1    0    0    0    0  0.00000000000E+00  0.00000000000E+00  0.45593999997E+02  0.45594000000E+02  0.51100000000E-03 0.  1.
         11   -1    0    0    0    0 -0.00000000000E+00 -0.00000000000E+00 -0.45593999997E+02  0.45594000000E+02  0.51100000000E-03 0. -1.
         23    2    1    2    0    0  0.00000000000E+00  0.00000000000E+00  0.44408920985E-15  0.91188000000E+02  0.91188000000E+02 0.  0.
    9900012    2    3    3    0    0 -0.14964798137E+02  0.33613471192E+02 -0.14035693285E+01  0.54367073399E+02  0.39999975428E+02 0.  0.
        -12    1    3    3    0    0  0.14964798137E+02 -0.33613471192E+02  0.14035693285E+01  0.36820926601E+02  0.00000000000E+00 0.  1.
         11    1    4    4    0    0  0.33470811107E+01  0.16531269095E+02 -0.58393637948E+01  0.17848920966E+02  0.51100000000E-03 0. -1.
        -11    1    4    4    0    0 -0.78099308553E+01  0.21845236128E+02 -0.20466018390E+01  0.23289438396E+02  0.51100000000E-03 0.  1.
        -12    1    4    4    0    0 -0.10501948393E+02 -0.47630340306E+01  0.64823963054E+01  0.13228714037E+02  0.00000000000E+00 0.  1.
</event>
<event>
 8    1  0.2460897E-006  0.9118800E+02  0.7816164E-02  0.1184000E+00
        -11   -1    0    0    0    0  0.00000000000E+00  0.00000000000E+00  0.45593999997E+02  0.45594000000E+02  0.51100000000E-03 0.  1.
         11   -1    0    0    0    0 -0.00000000000E+00 -0.00000000000E+00 -0.45593999997E+02  0.45594000000E+02  0.51100000000E-03 0. -1.
         23    2    1    2    0    0  0.55511151231E-15  0.00000000000E+00  0.00000000000E+00  0.91188000000E+02  0.91188000000E+02 0.  0.
    9900012    2    3    3    0    0  0.95413546003E+00 -0.19665228889E+02 -0.31115111435E+02  0.54367058114E+02  0.39999940582E+02 0.  0.
        -12    1    3    3    0    0 -0.95413546003E+00  0.19665228889E+02  0.31115111435E+02  0.36820941886E+02  0.00000000000E+00 0.  1.
         11    1    4    4    0    0  0.46016567211E+01 -0.38299763502E+01  0.40168323529E+01  0.72096397853E+01  0.51100000000E-03 0.  1.
        -11    1    4    4    0    0  0.72004663037E+01 -0.17845579284E+02 -0.15799928747E+02  0.24898778356E+02  0.51100000000E-03 0. -1.
        -12    1    4    4    0    0 -0.10847987565E+02  0.20103267452E+01 -0.19332015042E+02  0.22258639972E+02  0.00000000000E+00 0.  1.
</event>
<event>
 8    1  0.2460897E-006  0.9118800E+02  0.7816164E-02  0.1184000E+00
        -11   -1    0    0    0    0  0.00000000000E+00  0.00000000000E+00  0.45593999997E+02  0.45594000000E+02  0.51100000000E-03 0.  1.
         11   -1    0    0    0    0 -0.00000000000E+00 -0.00000000000E+00 -0.45593999997E+02  0.45594000000E+02  0.51100000000E-03 0. -1.
         23    2    1    2    0    0  0.00000000000E+00  0.17763568394E-14  0.71054273576E-14  0.91188000000E+02  0.91188000000E+02 0.  0.
    9900012    2    3    3    0    0 -0.79316129002E+01  0.12978358980E+02  0.33532610299E+02  0.54367024477E+02  0.39999863900E+02 0.  0.
         12    1    3    3    0    0  0.79316129002E+01 -0.12978358980E+02 -0.33532610299E+02  0.36820975523E+02  0.00000000000E+00 0. -1.
         11    1    4    4    0    0  0.57457589620E+01  0.19382594289E+02  0.19323258976E+02  0.27965819229E+02  0.51100000000E-03 0. -1.
        -11    1    4    4    0    0 -0.10323030605E+02  0.14597885489E+01  0.74565933027E+00  0.10452365836E+02  0.51100000000E-03 0.  1.
        -12    1    4    4    0    0 -0.33543412576E+01 -0.78640238581E+01  0.13463691993E+02  0.15948839412E+02  0.00000000000E+00 0.  1.
</event>
<event>
 8    1  0.2460897E-006  0.9118800E+02  0.7816164E-02  0.1184000E+00
        -11   -1    0    0    0    0  0.00000000000E+00  0.00000000000E+00  0.45593999997E+02  0.45594000000E+02  0.51100000000E-03 0.  1.
         11   -1    0    0    0    0 -0.00000000000E+00 -0.00000000000E+00 -0.45593999997E+02  0.45594000000E+02  0.51100000000E-03 0. -1.
         23    2    1    2    0    0  0.35527136788E-14  0.00000000000E+00  0.00000000000E+00  0.91188000000E+02  0.91188000000E+02 0.  0.
    9900012    2    3    3    0    0  0.18233127936E+02  0.31030536015E+02 -0.77742072740E+01  0.54367089929E+02  0.40000013112E+02 0.  0.
        -12    1    3    3    0    0 -0.18233127936E+02 -0.31030536015E+02  0.77742072740E+01  0.36820910071E+02  0.00000000000E+00 0.  1.
         11    1    4    4    0    0  0.19142498572E+02  0.14672177870E+02 -0.15175950306E+02  0.28495921163E+02  0.51100000000E-03 0. -1.
        -11    1    4    4    0    0  0.70966599656E+01  0.40956881811E+01 -0.20434717525E+01  0.84447037490E+01  0.51100000000E-03 0.  1.
        -12    1    4    4    0    0 -0.80060306019E+01  0.12262669964E+02  0.94452147842E+01  0.17426465017E+02  0.00000000000E+00 0.  1.
</event>
<event>
 8    1  0.2460897E-006  0.9118800E+02  0.7816164E-02  0.1184000E+00
        -11   -1    0    0    0    0  0.00000000000E+00  0.00000000000E+00  0.45593999997E+02  0.45594000000E+02  0.51100000000E-03 0. -1.
         11   -1    0    0    0    0 -0.00000000000E+00 -0.00000000000E+00 -0.45593999997E+02  0.45594000000E+02  0.51100000000E-03 0.  1.
         23    2    1    2    0    0  0.00000000000E+00 -0.17763568394E-14  0.00000000000E+00  0.91188000000E+02  0.91188000000E+02 0.  0.
    9900012    2    3    3    0    0 -0.18283187277E+02  0.12639798210E+02  0.29355398754E+02  0.54367097352E+02  0.40000030034E+02 0.  0.
        -12    1    3    3    0    0  0.18283187277E+02 -0.12639798210E+02 -0.29355398754E+02  0.36820902648E+02  0.00000000000E+00 0.  1.
         11    1    4    4    0    0 -0.16035723669E+02  0.22895939183E+01  0.90201880895E+01  0.18540508821E+02  0.51100000000E-03 0. -1.
        -11    1    4    4    0    0 -0.10913324963E+02 -0.36072374303E+01  0.28664342410E+01  0.11846065555E+02  0.51100000000E-03 0.  1.
        -12    1    4    4    0    0  0.86658613555E+01  0.13957441722E+02  0.17468776424E+02  0.23980522976E+02  0.00000000000E+00 0.  1.
</event>
<event>
 8    1  0.2460897E-006  0.9118800E+02  0.7816164E-02  0.1184000E+00
        -11   -1    0    0    0    0  0.00000000000E+00  0.00000000000E+00  0.45593999997E+02  0.45594000000E+02  0.51100000000E-03 0.  1.
         11   -1    0    0    0    0 -0.00000000000E+00 -0.00000000000E+00 -0.45593999997E+02  0.45594000000E+02  0.51100000000E-03 0. -1.
         23    2    1    2    0    0 -0.17763568394E-14  0.00000000000E+00 -0.44408920985E-15  0.91188000000E+02  0.91188000000E+02 0.  0.
    9900012    2    3    3    0    0 -0.15230207017E+02 -0.33454998040E+02  0.21426220099E+01  0.54366987945E+02  0.39999780618E+02 0.  0.
         12    1    3    3    0    0  0.15230207017E+02  0.33454998040E+02 -0.21426220099E+01  0.36821012055E+02  0.00000000000E+00 0. -1.
         11    1    4    4    0    0  0.46856761280E+01 -0.67573880843E+01 -0.10178486513E+02  0.13085084732E+02  0.51100000000E-03 0. -1.
        -11    1    4    4    0    0 -0.19813935028E+02 -0.26184377722E+02  0.41538008174E+01  0.33097850677E+02  0.51100000000E-03 0.  1.
        -12    1    4    4    0    0 -0.10194811683E+00 -0.51323223408E+00  0.81673077055E+01  0.81840525353E+01  0.00000000000E+00 0.  1.
</event>
<event>
 8    1  0.2460897E-006  0.9118800E+02  0.7816164E-02  0.1184000E+00
        -11   -1    0    0    0    0  0.00000000000E+00  0.00000000000E+00  0.45593999997E+02  0.45594000000E+02  0.51100000000E-03 0.  1.
         11   -1    0    0    0    0 -0.00000000000E+00 -0.00000000000E+00 -0.45593999997E+02  0.45594000000E+02  0.51100000000E-03 0. -1.
         23    2    1    2    0    0  0.00000000000E+00 -0.71054273576E-14 -0.88817841970E-15  0.91188000000E+02  0.91188000000E+02 0.  0.
    9900012    2    3    3    0    0  0.16161659037E+02 -0.33032280975E+02 -0.18568692243E+01  0.54367098700E+02  0.40000033107E+02 0.  0.
        -12    1    3    3    0    0 -0.16161659037E+02  0.33032280975E+02  0.18568692243E+01  0.36820901300E+02  0.00000000000E+00 0.  1.
         11    1    4    4    0    0  0.19231121245E+01 -0.21843644140E+02 -0.55911213363E+01  0.22629710286E+02  0.51100000000E-03 0. -1.
        -11    1    4    4    0    0  0.21770553932E+02 -0.91446108590E+01  0.17115468896E+01  0.23675099140E+02  0.51100000000E-03 0.  1.
         12    1    4    4    0    0 -0.75320070198E+01 -0.20440259760E+01  0.20227052225E+01  0.80622892750E+01  0.00000000000E+00 0. -1.
</event>
<event>
 8    1  0.2460897E-006  0.9118800E+02  0.7816164E-02  0.1184000E+00
        -11   -1    0    0    0    0  0.00000000000E+00  0.00000000000E+00  0.45593999997E+02  0.45594000000E+02  0.51100000000E-03 0.  1.
         11   -1    0    0    0    0 -0.00000000000E+00 -0.00000000000E+00 -0.45593999997E+02  0.45594000000E+02  0.51100000000E-03 0. -1.
         23    2    1    2    0    0  0.17763568394E-14  0.00000000000E+00  0.00000000000E+00  0.91188000000E+02  0.91188000000E+02 0.  0.
    9900012    2    3    3    0    0 -0.93371242244E+01 -0.29878031505E+02  0.19388037776E+02  0.54367154488E+02  0.40000160286E+02 0.  0.
         12    1    3    3    0    0  0.93371242244E+01  0.29878031505E+02 -0.19388037776E+02  0.36820845512E+02  0.00000000000E+00 0. -1.
         11    1    4    4    0    0  0.64100314320E+01 -0.12768705709E+02  0.37635787746E+01  0.14774737693E+02  0.51100000000E-03 0. -1.
        -11    1    4    4    0    0 -0.17456528140E+02 -0.11498971754E+02  0.22395004726E+02  0.30634832512E+02  0.51100000000E-03 0.  1.
         12    1    4    4    0    0  0.17093724840E+01 -0.56103540429E+01 -0.67705457250E+01  0.89575842832E+01  0.00000000000E+00 0. -1.
</event>
<event>
 8    1  0.2460897E-006  0.9118800E+02  0.7816164E-02  0.1184000E+00
        -11   -1    0    0    0    0  0.00000000000E+00  0.00000000000E+00  0.45593999997E+02  0.45594000000E+02  0.51100000000E-03 0. -1.
         11   -1    0    0    0    0 -0.00000000000E+00 -0.00000000000E+00 -0.45593999997E+02  0.45594000000E+02  0.51100000000E-03 0.  1.
         23    2    1    2    0    0 -0.17763568394E-14  0.00000000000E+00  0.88817841970E-15  0.91188000000E+02  0.91188000000E+02 0.  0.
    9900012    2    3    3    0    0  0.14077903324E+02  0.33140861939E+02 -0.76989428662E+01  0.54367111726E+02  0.40000062801E+02 0.  0.
         12    1    3    3    0    0 -0.14077903324E+02 -0.33140861939E+02  0.76989428662E+01  0.36820888274E+02  0.00000000000E+00 0. -1.
         11    1    4    4    0    0 -0.18311997101E+01  0.34279077806E+01  0.35515873487E+01  0.52647523292E+01  0.51100000000E-03 0. -1.
        -11    1    4    4    0    0 -0.21987014423E+01  0.29259651787E+02 -0.97807517785E+01  0.30929348786E+02  0.51100000000E-03 0.  1.
        -12    1    4    4    0    0  0.18107804476E+02  0.45330237127E+00 -0.14697784364E+01  0.18173010610E+02  0.00000000000E+00 0.  1.
</event>
<event>
 8    1  0.2460897E-006  0.9118800E+02  0.7816164E-02  0.1184000E+00
        -11   -1    0    0    0    0  0.00000000000E+00  0.00000000000E+00  0.45593999997E+02  0.45594000000E+02  0.51100000000E-03 0.  1.
         11   -1    0    0    0    0 -0.00000000000E+00 -0.00000000000E+00 -0.45593999997E+02  0.45594000000E+02  0.51100000000E-03 0. -1.
         23    2    1    2    0    0  0.00000000000E+00  0.35527136788E-14  0.00000000000E+00  0.91188000000E+02  0.91188000000E+02 0.  0.
    9900012    2    3    3    0    0 -0.13724259594E+02  0.17677828594E+02  0.29238919278E+02  0.54367145505E+02  0.40000139807E+02 0.  0.
         12    1    3    3    0    0  0.13724259594E+02 -0.17677828594E+02 -0.29238919278E+02  0.36820854495E+02  0.00000000000E+00 0. -1.
         11    1    4    4    0    0  0.37197026616E+01 -0.36422377578E+01 -0.55368463419E+01  0.75999178581E+01  0.51100000000E-03 0. -1.
        -11    1    4    4    0    0 -0.16770333580E+02  0.10195213541E+02  0.26032198411E+02  0.32601561648E+02  0.51100000000E-03 0.  1.
         12    1    4    4    0    0 -0.67362867619E+00  0.11124852810E+02  0.87435672092E+01  0.14165665999E+02  0.00000000000E+00 0. -1.
</event>
<event>
 8    1  0.2460897E-006  0.9118800E+02  0.7816164E-02  0.1184000E+00
        -11   -1    0    0    0    0  0.00000000000E+00  0.00000000000E+00  0.45593999997E+02  0.45594000000E+02  0.51100000000E-03 0.  1.
         11   -1    0    0    0    0 -0.00000000000E+00 -0.00000000000E+00 -0.45593999997E+02  0.45594000000E+02  0.51100000000E-03 0. -1.
         23    2    1    2    0    0  0.00000000000E+00  0.00000000000E+00  0.00000000000E+00  0.91188000000E+02  0.91188000000E+02 0.  0.
    9900012    2    3    3    0    0  0.14045601743E+02 -0.12198243885E+02 -0.31775842078E+02  0.54367079018E+02  0.39999988237E+02 0.  0.
        -12    1    3    3    0    0 -0.14045601743E+02  0.12198243885E+02  0.31775842078E+02  0.36820920982E+02  0.00000000000E+00 0.  1.
         11    1    4    4    0    0  0.10807298751E+02 -0.15765458525E+02  0.10331644178E+01  0.19141964835E+02  0.51100000000E-03 0. -1.
        -11    1    4    4    0    0 -0.70478259942E+00 -0.37143468809E+01 -0.53951368306E+01  0.65879126395E+01  0.51100000000E-03 0.  1.
         12    1    4    4    0    0  0.39430855914E+01  0.72815615208E+01 -0.27413869666E+02  0.28637201543E+02  0.00000000000E+00 0. -1.
</event>
<event>
 8    1  0.2460897E-006  0.9118800E+02  0.7816164E-02  0.1184000E+00
        -11   -1    0    0    0    0  0.00000000000E+00  0.00000000000E+00  0.45593999997E+02  0.45594000000E+02  0.51100000000E-03 0. -1.
         11   -1    0    0    0    0 -0.00000000000E+00 -0.00000000000E+00 -0.45593999997E+02  0.45594000000E+02  0.51100000000E-03 0.  1.
         23    2    1    2    0    0 -0.71054273576E-14  0.35527136788E-14  0.00000000000E+00  0.91188000000E+02  0.91188000000E+02 0.  0.
    9900012    2    3    3    0    0 -0.33006495479E+02  0.14260672576E+02 -0.79361792348E+01  0.54367102849E+02  0.40000042566E+02 0.  0.
        -12    1    3    3    0    0  0.33006495479E+02 -0.14260672576E+02  0.79361792348E+01  0.36820897151E+02  0.00000000000E+00 0.  1.
         11    1    4    4    0    0 -0.21371885400E+02  0.23462533887E+02  0.59021488250E+01  0.32281315695E+02  0.51100000000E-03 0. -1.
        -11    1    4    4    0    0 -0.11014270772E+02 -0.85384141868E+01 -0.77820887192E+01  0.15961816393E+02  0.51100000000E-03 0.  1.
        -12    1    4    4    0    0 -0.62033930720E+00 -0.66344712411E+00 -0.60562393406E+01  0.61239707619E+01  0.00000000000E+00 0.  1.
</event>
<event>
 8    1  0.2460897E-006  0.9118800E+02  0.7816164E-02  0.1184000E+00
        -11   -1    0    0    0    0  0.00000000000E+00  0.00000000000E+00  0.45593999997E+02  0.45594000000E+02  0.51100000000E-03 0.  1.
         11   -1    0    0    0    0 -0.00000000000E+00 -0.00000000000E+00 -0.45593999997E+02  0.45594000000E+02  0.51100000000E-03 0. -1.
         23    2    1    2    0    0 -0.13322676296E-14  0.35527136788E-14 -0.71054273576E-14  0.91188000000E+02  0.91188000000E+02 0.  0.
    9900012    2    3    3    0    0  0.14114717215E+01 -0.14740196146E+02  0.33712218624E+02  0.54367091275E+02  0.40000016179E+02 0.  0.
         12    1    3    3    0    0 -0.14114717215E+01  0.14740196146E+02 -0.33712218624E+02  0.36820908725E+02  0.00000000000E+00 0. -1.
         11    1    4    4    0    0 -0.87784658741E+01 -0.10094199175E+02  0.34856580012E+01  0.13824041813E+02  0.51100000000E-03 0. -1.
        -11    1    4    4    0    0  0.21624201194E+01 -0.66241385807E+01  0.31425625196E+02  0.32188898582E+02  0.51100000000E-03 0.  1.
         12    1    4    4    0    0  0.80275174762E+01  0.19781416099E+01 -0.11990645738E+01  0.83541508791E+01  0.00000000000E+00 0. -1.
</event>
<event>
 8    1  0.2460897E-006  0.9118800E+02  0.7816164E-02  0.1184000E+00
        -11   -1    0    0    0    0  0.00000000000E+00  0.00000000000E+00  0.45593999997E+02  0.45594000000E+02  0.51100000000E-03 0. -1.
         11   -1    0    0    0    0 -0.00000000000E+00 -0.00000000000E+00 -0.45593999997E+02  0.45594000000E+02  0.51100000000E-03 0.  1.
         23    2    1    2    0    0 -0.71054273576E-14  0.00000000000E+00  0.00000000000E+00  0.91188000000E+02  0.91188000000E+02 0.  0.
    9900012    2    3    3    0    0 -0.32122544010E+02  0.85422076055E+01  0.15841500100E+02  0.54367078367E+02  0.39999986754E+02 0.  0.
        -12    1    3    3    0    0  0.32122544010E+02 -0.85422076055E+01 -0.15841500100E+02  0.36820921633E+02  0.00000000000E+00 0.  1.
         11    1    4    4    0    0 -0.39084170593E+00  0.13533397346E+01  0.15951360790E+02  0.16013438013E+02  0.51100000000E-03 0. -1.
        -11    1    4    4    0    0  0.97548589360E+00  0.51471821853E+01  0.17678317565E+01  0.55290402926E+01  0.51100000000E-03 0.  1.
        -12    1    4    4    0    0 -0.32707188198E+02  0.20416856856E+01 -0.18776924471E+01  0.32824600061E+02  0.00000000000E+00 0.  1.
</event>
<event>
 8    1  0.2460897E-006  0.9118800E+02  0.7816164E-02  0.1184000E+00
        -11   -1    0    0    0    0  0.00000000000E+00  0.00000000000E+00  0.45593999997E+02  0.45594000000E+02  0.51100000000E-03 0. -1.
         11   -1    0    0    0    0 -0.00000000000E+00 -0.00000000000E+00 -0.45593999997E+02  0.45594000000E+02  0.51100000000E-03 0.  1.
         23    2    1    2    0    0  0.00000000000E+00  0.00000000000E+00 -0.88817841970E-15  0.91188000000E+02  0.91188000000E+02 0.  0.
    9900012    2    3    3    0    0 -0.34148040644E+02  0.13098387771E+02 -0.42573290155E+01  0.54367064483E+02  0.39999955101E+02 0.  0.
        -12    1    3    3    0    0  0.34148040644E+02 -0.13098387771E+02  0.42573290155E+01  0.36820935517E+02  0.00000000000E+00 0.  1.
         11    1    4    4    0    0 -0.77082680816E+01 -0.76515755399E+01  0.94130065153E+01  0.14372497938E+02  0.51100000000E-03 0. -1.
        -11    1    4    4    0    0 -0.17711955552E+02  0.92761667755E+01 -0.15719615824E+02  0.25433579406E+02  0.51100000000E-03 0.  1.
        -12    1    4    4    0    0 -0.87278170107E+01  0.11473796536E+02  0.20492802932E+01  0.14560987138E+02  0.00000000000E+00 0.  1.
</event>
<event>
 8    1  0.2460897E-006  0.9118800E+02  0.7816164E-02  0.1184000E+00
        -11   -1    0    0    0    0  0.00000000000E+00  0.00000000000E+00  0.45593999997E+02  0.45594000000E+02  0.51100000000E-03 0. -1.
         11   -1    0    0    0    0 -0.00000000000E+00 -0.00000000000E+00 -0.45593999997E+02  0.45594000000E+02  0.51100000000E-03 0.  1.
         23    2    1    2    0    0  0.00000000000E+00  0.35527136788E-14  0.00000000000E+00  0.91188000000E+02  0.91188000000E+02 0.  0.
    9900012    2    3    3    0    0  0.14902099096E+02 -0.29287126579E+02 -0.16612180150E+02  0.54367178852E+02  0.40000215828E+02 0.  0.
        -12    1    3    3    0    0 -0.14902099096E+02  0.29287126579E+02  0.16612180150E+02  0.36820821148E+02  0.00000000000E+00 0.  1.
         11    1    4    4    0    0 -0.79039246350E+00  0.95785116218E-01 -0.96768773341E+01  0.97095751831E+01  0.51100000000E-03 0. -1.
        -11    1    4    4    0    0  0.21771471468E+02 -0.30170816973E+02 -0.88344318871E+01  0.38240323662E+02  0.51100000000E-03 0.  1.
         12    1    4    4    0    0 -0.60789799087E+01  0.78790527850E+00  0.18991290711E+01  0.64172800069E+01  0.00000000000E+00 0. -1.
</event>
<event>
 8    1  0.2460897E-006  0.9118800E+02  0.7816164E-02  0.1184000E+00
        -11   -1    0    0    0    0  0.00000000000E+00  0.00000000000E+00  0.45593999997E+02  0.45594000000E+02  0.51100000000E-03 0.  1.
         11   -1    0    0    0    0 -0.00000000000E+00 -0.00000000000E+00 -0.45593999997E+02  0.45594000000E+02  0.51100000000E-03 0. -1.
         23    2    1    2    0    0  0.00000000000E+00  0.17763568394E-14  0.00000000000E+00  0.91188000000E+02  0.91188000000E+02 0.  0.
    9900012    2    3    3    0    0  0.26473324388E+02 -0.43360959463E+01 -0.25221819771E+02  0.54367097991E+02  0.40000031490E+02 0.  0.
        -12    1    3    3    0    0 -0.26473324388E+02  0.43360959463E+01  0.25221819771E+02  0.36820902009E+02  0.00000000000E+00 0.  1.
         11    1    4    4    0    0  0.31225523328E+02  0.19506657567E+01 -0.17192442260E+02  0.35698998237E+02  0.51100000000E-03 0. -1.
        -11    1    4    4    0    0 -0.29409073830E+00  0.46351178616E+01 -0.49524845098E+00  0.46707684852E+01  0.51100000000E-03 0.  1.
         12    1    4    4    0    0 -0.44581082015E+01 -0.10921879565E+02 -0.75341290603E+01  0.13997331269E+02  0.00000000000E+00 0. -1.
</event>
<event>
 8    1  0.2460897E-006  0.9118800E+02  0.7816164E-02  0.1184000E+00
        -11   -1    0    0    0    0  0.00000000000E+00  0.00000000000E+00  0.45593999997E+02  0.45594000000E+02  0.51100000000E-03 0. -1.
         11   -1    0    0    0    0 -0.00000000000E+00 -0.00000000000E+00 -0.45593999997E+02  0.45594000000E+02  0.51100000000E-03 0.  1.
         23    2    1    2    0    0 -0.35527136788E-14 -0.35527136788E-14  0.17763568394E-14  0.91188000000E+02  0.91188000000E+02 0.  0.
    9900012    2    3    3    0    0 -0.30932065183E+02 -0.12299908342E+02  0.15738476332E+02  0.54367081504E+02  0.39999993904E+02 0.  0.
        -12    1    3    3    0    0  0.30932065183E+02  0.12299908342E+02 -0.15738476332E+02  0.36820918496E+02  0.00000000000E+00 0.  1.
         11    1    4    4    0    0 -0.56187267826E+01 -0.21003372312E+02  0.33276151015E+01  0.21995107676E+02  0.51100000000E-03 0. -1.
        -11    1    4    4    0    0 -0.75448467087E+01 -0.19115616460E+01  0.80935318572E+01  0.11228714885E+02  0.51100000000E-03 0.  1.
        -12    1    4    4    0    0 -0.17768491691E+02  0.10615025616E+02  0.43173293730E+01  0.21143258943E+02  0.00000000000E+00 0.  1.
</event>
<event>
 8    1  0.2460897E-006  0.9118800E+02  0.7816164E-02  0.1184000E+00
        -11   -1    0    0    0    0  0.00000000000E+00  0.00000000000E+00  0.45593999997E+02  0.45594000000E+02  0.51100000000E-03 0.  1.
         11   -1    0    0    0    0 -0.00000000000E+00 -0.00000000000E+00 -0.45593999997E+02  0.45594000000E+02  0.51100000000E-03 0. -1.
         23    2    1    2    0    0  0.35527136788E-14 -0.74940054162E-15  0.35527136788E-14  0.91188000000E+02  0.91188000000E+02 0.  0.
    9900012    2    3    3    0    0 -0.23440693790E+02  0.23232092022E+00  0.28394707238E+02  0.54367088856E+02  0.40000010665E+02 0.  0.
         12    1    3    3    0    0  0.23440693790E+02 -0.23232092022E+00 -0.28394707238E+02  0.36820911144E+02  0.00000000000E+00 0. -1.
         11    1    4    4    0    0 -0.38193745817E+01 -0.14273170864E+01 -0.32897191927E+01  0.52389988441E+01  0.51100000000E-03 0. -1.
        -11    1    4    4    0    0 -0.85386157157E+01 -0.13436132576E+02  0.24186687059E+02  0.28955715292E+02  0.51100000000E-03 0.  1.
         12    1    4    4    0    0 -0.11082703492E+02  0.15095770582E+02  0.74977393716E+01  0.20172374720E+02  0.00000000000E+00 0. -1.
</event>
<event>
 8    1  0.2460897E-006  0.9118800E+02  0.7816164E-02  0.1184000E+00
        -11   -1    0    0    0    0  0.00000000000E+00  0.00000000000E+00  0.45593999997E+02  0.45594000000E+02  0.51100000000E-03 0.  1.
         11   -1    0    0    0    0 -0.00000000000E+00 -0.00000000000E+00 -0.45593999997E+02  0.45594000000E+02  0.51100000000E-03 0. -1.
         23    2    1    2    0    0  0.00000000000E+00  0.00000000000E+00  0.00000000000E+00  0.91188000000E+02  0.91188000000E+02 0.  0.
    9900012    2    3    3    0    0  0.33202149040E+02 -0.53356674445E+01  0.14997597844E+02  0.54367082181E+02  0.39999995449E+02 0.  0.
        -12    1    3    3    0    0 -0.33202149040E+02  0.53356674445E+01 -0.14997597844E+02  0.36820917819E+02  0.00000000000E+00 0.  1.
         11    1    4    4    0    0  0.16843609277E+02  0.71681305910E+01  0.20142563848E+01  0.18415930569E+02  0.51100000000E-03 0. -1.
        -11    1    4    4    0    0  0.20375638524E+01 -0.16369302322E+02  0.40182475180E+00  0.16500520851E+02  0.51100000000E-03 0.  1.
        -12    1    4    4    0    0  0.14320975910E+02  0.38655042861E+01  0.12581516707E+02  0.19450630762E+02  0.00000000000E+00 0.  1.
</event>
<event>
 8    1  0.2460897E-006  0.9118800E+02  0.7816164E-02  0.1184000E+00
        -11   -1    0    0    0    0  0.00000000000E+00  0.00000000000E+00  0.45593999997E+02  0.45594000000E+02  0.51100000000E-03 0.  1.
         11   -1    0    0    0    0 -0.00000000000E+00 -0.00000000000E+00 -0.45593999997E+02  0.45594000000E+02  0.51100000000E-03 0. -1.
         23    2    1    2    0    0  0.00000000000E+00  0.00000000000E+00  0.00000000000E+00  0.91188000000E+02  0.91188000000E+02 0.  0.
    9900012    2    3    3    0    0  0.13986910706E+02  0.13645080772E+02  0.31208309756E+02  0.54367075267E+02  0.39999979686E+02 0.  0.
         12    1    3    3    0    0 -0.13986910706E+02 -0.13645080772E+02 -0.31208309756E+02  0.36820924733E+02  0.00000000000E+00 0. -1.
         11    1    4    4    0    0  0.23672617810E+01  0.13090063978E+02  0.99908868867E+01  0.16636451675E+02  0.51100000000E-03 0. -1.
        -11    1    4    4    0    0  0.31589526906E+01  0.48894436424E+01  0.26309910186E+02  0.26946187402E+02  0.51100000000E-03 0.  1.
        -12    1    4    4    0    0  0.84606962339E+01 -0.43344268482E+01 -0.50924873171E+01  0.10784436190E+02  0.00000000000E+00 0.  1.
</event>
<event>
 8    1  0.2460897E-006  0.9118800E+02  0.7816164E-02  0.1184000E+00
        -11   -1    0    0    0    0  0.00000000000E+00  0.00000000000E+00  0.45593999997E+02  0.45594000000E+02  0.51100000000E-03 0. -1.
         11   -1    0    0    0    0 -0.00000000000E+00 -0.00000000000E+00 -0.45593999997E+02  0.45594000000E+02  0.51100000000E-03 0.  1.
         23    2    1    2    0    0  0.71054273576E-14 -0.44408920985E-15 -0.35527136788E-14  0.91188000000E+02  0.91188000000E+02 0.  0.
    9900012    2    3    3    0    0 -0.32882362630E+02 -0.39596539033E+01  0.16088891198E+02  0.54367067758E+02  0.39999962568E+02 0.  0.
        -12    1    3    3    0    0  0.32882362630E+02  0.39596539033E+01 -0.16088891198E+02  0.36820932242E+02  0.00000000000E+00 0.  1.
         11    1    4    4    0    0 -0.12235287036E+02  0.53559274644E+01 -0.32426955061E+01  0.13744209044E+02  0.51100000000E-03 0. -1.
        -11    1    4    4    0    0  0.38110574606E+01 -0.10113325108E+02  0.30481051803E+01  0.11229178472E+02  0.51100000000E-03 0.  1.
         12    1    4    4    0    0 -0.24458133055E+02  0.79774374007E+00  0.16283481524E+02  0.29393680242E+02  0.00000000000E+00 0. -1.
</event>
<event>
 8    1  0.2460897E-006  0.9118800E+02  0.7816164E-02  0.1184000E+00
        -11   -1    0    0    0    0  0.00000000000E+00  0.00000000000E+00  0.45593999997E+02  0.45594000000E+02  0.51100000000E-03 0. -1.
         11   -1    0    0    0    0 -0.00000000000E+00 -0.00000000000E+00 -0.45593999997E+02  0.45594000000E+02  0.51100000000E-03 0.  1.
         23    2    1    2    0    0  0.00000000000E+00  0.00000000000E+00  0.17763568394E-14  0.91188000000E+02  0.91188000000E+02 0.  0.
    9900012    2    3    3    0    0  0.36087725362E+02 -0.20180815442E+01 -0.70271486018E+01  0.54367117442E+02  0.40000075832E+02 0.  0.
         12    1    3    3    0    0 -0.36087725362E+02  0.20180815442E+01  0.70271486018E+01  0.36820882558E+02  0.00000000000E+00 0. -1.
         11    1    4    4    0    0 -0.58557690010E+01  0.35828875618E+01 -0.49951749855E+00  0.68830684921E+01  0.51100000000E-03 0. -1.
        -11    1    4    4    0    0  0.14776878076E+02  0.98011326535E+00 -0.11926959143E+02  0.19014970480E+02  0.51100000000E-03 0.  1.
        -12    1    4    4    0    0  0.27166616286E+02 -0.65810823713E+01  0.53993280401E+01  0.28469078469E+02  0.00000000000E+00 0.  1.
</event>
<event>
 8    1  0.2460897E-006  0.9118800E+02  0.7816164E-02  0.1184000E+00
        -11   -1    0    0    0    0  0.00000000000E+00  0.00000000000E+00  0.45593999997E+02  0.45594000000E+02  0.51100000000E-03 0.  1.
         11   -1    0    0    0    0 -0.00000000000E+00 -0.00000000000E+00 -0.45593999997E+02  0.45594000000E+02  0.51100000000E-03 0. -1.
         23    2    1    2    0    0  0.53290705182E-14  0.71054273576E-14  0.35527136788E-14  0.91188000000E+02  0.91188000000E+02 0.  0.
    9900012    2    3    3    0    0 -0.99115530650E+01 -0.19616405557E+02  0.29542142933E+02  0.54367075783E+02  0.39999980863E+02 0.  0.
         12    1    3    3    0    0  0.99115530650E+01  0.19616405557E+02 -0.29542142933E+02  0.36820924217E+02  0.00000000000E+00 0. -1.
         11    1    4    4    0    0  0.90704670953E+01  0.41773142147E+01  0.12941878563E+02  0.16346728981E+02  0.51100000000E-03 0. -1.
        -11    1    4    4    0    0 -0.91800125354E+01 -0.91235720782E+01  0.15709519857E+02  0.20354390485E+02  0.51100000000E-03 0.  1.
         12    1    4    4    0    0 -0.98020076249E+01 -0.14670147693E+02  0.89074451260E+00  0.17665956317E+02  0.00000000000E+00 0. -1.
</event>
<event>
 8    1  0.2460897E-006  0.9118800E+02  0.7816164E-02  0.1184000E+00
        -11   -1    0    0    0    0  0.00000000000E+00  0.00000000000E+00  0.45593999997E+02  0.45594000000E+02  0.51100000000E-03 0. -1.
         11   -1    0    0    0    0 -0.00000000000E+00 -0.00000000000E+00 -0.45593999997E+02  0.45594000000E+02  0.51100000000E-03 0.  1.
         23    2    1    2    0    0  0.00000000000E+00 -0.35527136788E-14  0.35527136788E-14  0.91188000000E+02  0.91188000000E+02 0.  0.
    9900012    2    3    3    0    0  0.54608677551E+01 -0.21467339602E+02  0.29412765410E+02  0.54367102194E+02  0.40000041071E+02 0.  0.
        -12    1    3    3    0    0 -0.54608677551E+01  0.21467339602E+02 -0.29412765410E+02  0.36820897806E+02  0.00000000000E+00 0.  1.
         11    1    4    4    0    0 -0.16915641687E+01  0.10219344563E+01  0.28271723052E+02  0.28340713892E+02  0.51100000000E-03 0. -1.
        -11    1    4    4    0    0  0.86676736870E+01 -0.98662111061E+01  0.19976917497E+01  0.13283879754E+02  0.51100000000E-03 0.  1.
        -12    1    4    4    0    0 -0.15152417632E+01 -0.12623062952E+02 -0.85664939153E+00  0.12742508547E+02  0.00000000000E+00 0.  1.
</event>
<event>
 8    1  0.2460897E-006  0.9118800E+02  0.7816164E-02  0.1184000E+00
        -11   -1    0    0    0    0  0.00000000000E+00  0.00000000000E+00  0.45593999997E+02  0.45594000000E+02  0.51100000000E-03 0.  1.
         11   -1    0    0    0    0 -0.00000000000E+00 -0.00000000000E+00 -0.45593999997E+02  0.45594000000E+02  0.51100000000E-03 0. -1.
         23    2    1    2    0    0  0.00000000000E+00  0.35527136788E-14  0.00000000000E+00  0.91188000000E+02  0.91188000000E+02 0.  0.
    9900012    2    3    3    0    0 -0.14984104165E+02  0.21123173542E+02 -0.26173794827E+02  0.54367090536E+02  0.40000014495E+02 0.  0.
        -12    1    3    3    0    0  0.14984104165E+02 -0.21123173542E+02  0.26173794827E+02  0.36820909464E+02  0.00000000000E+00 0.  1.
         11    1    4    4    0    0 -0.51608640089E+01  0.16040733855E+01  0.38499999325E+00  0.54180987441E+01  0.51100000000E-03 0. -1.
        -11    1    4    4    0    0 -0.10857466694E+02  0.29066671887E+02 -0.16916206780E+02  0.35339978066E+02  0.51100000000E-03 0.  1.
        -12    1    4    4    0    0  0.10342265383E+01 -0.95475717304E+01 -0.96425880405E+01  0.13609013726E+02  0.00000000000E+00 0.  1.
</event>
<event>
 8    1  0.2460897E-006  0.9118800E+02  0.7816164E-02  0.1184000E+00
        -11   -1    0    0    0    0  0.00000000000E+00  0.00000000000E+00  0.45593999997E+02  0.45594000000E+02  0.51100000000E-03 0.  1.
         11   -1    0    0    0    0 -0.00000000000E+00 -0.00000000000E+00 -0.45593999997E+02  0.45594000000E+02  0.51100000000E-03 0. -1.
         23    2    1    2    0    0  0.00000000000E+00  0.00000000000E+00  0.88817841970E-15  0.91188000000E+02  0.91188000000E+02 0.  0.
    9900012    2    3    3    0    0 -0.33591466557E+02 -0.14535134208E+02  0.40155864111E+01  0.54367059136E+02  0.39999942912E+02 0.  0.
         12    1    3    3    0    0  0.33591466557E+02  0.14535134208E+02 -0.40155864111E+01  0.36820940864E+02  0.00000000000E+00 0. -1.
         11    1    4    4    0    0 -0.11318385326E+02 -0.73090069014E+01  0.47839684278E+01  0.14297334802E+02  0.51100000000E-03 0. -1.
        -11    1    4    4    0    0 -0.37974417954E+01 -0.14125544732E+02  0.98853782596E+01  0.17654242599E+02  0.51100000000E-03 0.  1.
         12    1    4    4    0    0 -0.18475639436E+02  0.68994174250E+01 -0.10653760276E+02  0.22415481734E+02  0.00000000000E+00 0. -1.
</event>
<event>
 8    1  0.2460897E-006  0.9118800E+02  0.7816164E-02  0.1184000E+00
        -11   -1    0    0    0    0  0.00000000000E+00  0.00000000000E+00  0.45593999997E+02  0.45594000000E+02  0.51100000000E-03 0. -1.
         11   -1    0    0    0    0 -0.00000000000E+00 -0.00000000000E+00 -0.45593999997E+02  0.45594000000E+02  0.51100000000E-03 0.  1.
         23    2    1    2    0    0  0.17763568394E-14  0.00000000000E+00 -0.71054273576E-14  0.91188000000E+02  0.91188000000E+02 0.  0.
    9900012    2    3    3    0    0  0.15619255043E+02 -0.85181153388E+01  0.32237570776E+02  0.54367076783E+02  0.39999983143E+02 0.  0.
        -12    1    3    3    0    0 -0.15619255043E+02  0.85181153388E+01 -0.32237570776E+02  0.36820923217E+02  0.00000000000E+00 0.  1.
         11    1    4    4    0    0 -0.24657064216E+01  0.58660426004E+01  0.28491357108E+02  0.29193279947E+02  0.51100000000E-03 0. -1.
        -11    1    4    4    0    0  0.12865808592E+02 -0.52500412995E+01 -0.30904504956E+00  0.13899189670E+02  0.51100000000E-03 0.  1.
         12    1    4    4    0    0  0.52191528721E+01 -0.91341166397E+01  0.40552587172E+01  0.11274607166E+02  0.00000000000E+00 0. -1.
</event>
<event>
 8    1  0.2460897E-006  0.9118800E+02  0.7816164E-02  0.1184000E+00
        -11   -1    0    0    0    0  0.00000000000E+00  0.00000000000E+00  0.45593999997E+02  0.45594000000E+02  0.51100000000E-03 0.  1.
         11   -1    0    0    0    0 -0.00000000000E+00 -0.00000000000E+00 -0.45593999997E+02  0.45594000000E+02  0.51100000000E-03 0. -1.
         23    2    1    2    0    0  0.00000000000E+00  0.00000000000E+00  0.88817841970E-15  0.91188000000E+02  0.91188000000E+02 0.  0.
    9900012    2    3    3    0    0  0.80384707119E+01  0.35179900311E+02  0.73168763360E+01  0.54367094571E+02  0.40000023694E+02 0.  0.
         12    1    3    3    0    0 -0.80384707119E+01 -0.35179900311E+02 -0.73168763360E+01  0.36820905429E+02  0.00000000000E+00 0. -1.
         11    1    4    4    0    0 -0.56016969778E+00 -0.35272294380E+00 -0.39158648100E+01  0.39714230493E+01  0.51100000000E-03 0. -1.
        -11    1    4    4    0    0  0.22858525880E+01  0.21154032447E+01 -0.98850913095E+01  0.10364124826E+02  0.51100000000E-03 0.  1.
        -12    1    4    4    0    0  0.63127878217E+01  0.33417220010E+02  0.21117832455E+02  0.40031546696E+02  0.00000000000E+00 0.  1.
</event>
<event>
 8    1  0.2460897E-006  0.9118800E+02  0.7816164E-02  0.1184000E+00
        -11   -1    0    0    0    0  0.00000000000E+00  0.00000000000E+00  0.45593999997E+02  0.45594000000E+02  0.51100000000E-03 0.  1.
         11   -1    0    0    0    0 -0.00000000000E+00 -0.00000000000E+00 -0.45593999997E+02  0.45594000000E+02  0.51100000000E-03 0. -1.
         23    2    1    2    0    0  0.00000000000E+00  0.00000000000E+00  0.00000000000E+00  0.91188000000E+02  0.91188000000E+02 0.  0.
    9900012    2    3    3    0    0  0.32359975311E+02  0.15829290422E+02  0.76188516100E+01  0.54367063873E+02  0.39999953712E+02 0.  0.
         12    1    3    3    0    0 -0.32359975311E+02 -0.15829290422E+02 -0.76188516100E+01  0.36820936127E+02  0.00000000000E+00 0. -1.
         11    1    4    4    0    0  0.11556524559E+02  0.68454184592E+01 -0.93185798147E+01  0.16347750420E+02  0.51100000000E-03 0. -1.
        -11    1    4    4    0    0 -0.96518203432E+00  0.12015197681E+02  0.56726467350E+01  0.13321992078E+02  0.51100000000E-03 0.  1.
        -12    1    4    4    0    0  0.21768632787E+02 -0.30313257188E+01  0.11264784690E+02  0.24697321376E+02  0.00000000000E+00 0.  1.
</event>
<event>
 8    1  0.2460897E-006  0.9118800E+02  0.7816164E-02  0.1184000E+00
        -11   -1    0    0    0    0  0.00000000000E+00  0.00000000000E+00  0.45593999997E+02  0.45594000000E+02  0.51100000000E-03 0.  1.
         11   -1    0    0    0    0 -0.00000000000E+00 -0.00000000000E+00 -0.45593999997E+02  0.45594000000E+02  0.51100000000E-03 0. -1.
         23    2    1    2    0    0  0.00000000000E+00  0.88817841970E-15  0.00000000000E+00  0.91188000000E+02  0.91188000000E+02 0.  0.
    9900012    2    3    3    0    0  0.19805630416E+02  0.27788984299E+01  0.30915889577E+02  0.54367115967E+02  0.40000072470E+02 0.  0.
         12    1    3    3    0    0 -0.19805630416E+02 -0.27788984299E+01 -0.30915889577E+02  0.36820884033E+02  0.00000000000E+00 0. -1.
         11    1    4    4    0    0 -0.24538181058E+01  0.67478111416E+01  0.17421198805E+02  0.18842832764E+02  0.51100000000E-03 0. -1.
        -11    1    4    4    0    0  0.23984205183E+02  0.62554989825E+00  0.17076255439E+02  0.29448801521E+02  0.51100000000E-03 0.  1.
        -12    1    4    4    0    0 -0.17247566616E+01 -0.45944626100E+01 -0.35815646667E+01  0.60754816827E+01  0.00000000000E+00 0.  1.
</event>
<event>
 8    1  0.2460897E-006  0.9118800E+02  0.7816164E-02  0.1184000E+00
        -11   -1    0    0    0    0  0.00000000000E+00  0.00000000000E+00  0.45593999997E+02  0.45594000000E+02  0.51100000000E-03 0. -1.
         11   -1    0    0    0    0 -0.00000000000E+00 -0.00000000000E+00 -0.45593999997E+02  0.45594000000E+02  0.51100000000E-03 0.  1.
         23    2    1    2    0    0 -0.71054273576E-14  0.00000000000E+00 -0.30531133177E-15  0.91188000000E+02  0.91188000000E+02 0.  0.
    9900012    2    3    3    0    0 -0.31601078248E+02 -0.18897727799E+02 -0.16793744203E+00  0.54367075713E+02  0.39999980702E+02 0.  0.
         12    1    3    3    0    0  0.31601078248E+02  0.18897727799E+02  0.16793744203E+00  0.36820924287E+02  0.00000000000E+00 0. -1.
         11    1    4    4    0    0 -0.15505557254E+01  0.57186346851E+01 -0.37788067771E+01  0.70275448514E+01  0.51100000000E-03 0.  1.
        -11    1    4    4    0    0 -0.17495535369E+02 -0.25491241108E+02 -0.60121178428E+01  0.31496709230E+02  0.51100000000E-03 0. -1.
         12    1    4    4    0    0 -0.12554987153E+02  0.87487862406E+00  0.96229871778E+01  0.15842821631E+02  0.00000000000E+00 0. -1.
</event>
<event>
 8    1  0.2460897E-006  0.9118800E+02  0.7816164E-02  0.1184000E+00
        -11   -1    0    0    0    0  0.00000000000E+00  0.00000000000E+00  0.45593999997E+02  0.45594000000E+02  0.51100000000E-03 0. -1.
         11   -1    0    0    0    0 -0.00000000000E+00 -0.00000000000E+00 -0.45593999997E+02  0.45594000000E+02  0.51100000000E-03 0.  1.
         23    2    1    2    0    0  0.00000000000E+00  0.00000000000E+00  0.00000000000E+00  0.91188000000E+02  0.91188000000E+02 0.  0.
    9900012    2    3    3    0    0 -0.20986684114E+02  0.15997779637E+02 -0.25678979627E+02  0.54367083959E+02  0.39999999502E+02 0.  0.
         12    1    3    3    0    0  0.20986684114E+02 -0.15997779637E+02  0.25678979627E+02  0.36820916041E+02  0.00000000000E+00 0. -1.
         11    1    4    4    0    0 -0.88700244701E+01 -0.11299835594E+00  0.70262196383E+01  0.11316265523E+02  0.51100000000E-03 0. -1.
        -11    1    4    4    0    0 -0.12607308300E+02  0.53968418521E+01 -0.74368860142E+01  0.15600557631E+02  0.51100000000E-03 0.  1.
         12    1    4    4    0    0  0.49064865611E+00  0.10713936140E+02 -0.25268313251E+02  0.27450260805E+02  0.00000000000E+00 0. -1.
</event>
<event>
 8    1  0.2460897E-006  0.9118800E+02  0.7816164E-02  0.1184000E+00
        -11   -1    0    0    0    0  0.00000000000E+00  0.00000000000E+00  0.45593999997E+02  0.45594000000E+02  0.51100000000E-03 0.  1.
         11   -1    0    0    0    0 -0.00000000000E+00 -0.00000000000E+00 -0.45593999997E+02  0.45594000000E+02  0.51100000000E-03 0. -1.
         23    2    1    2    0    0  0.00000000000E+00  0.00000000000E+00 -0.44408920985E-15  0.91188000000E+02  0.91188000000E+02 0.  0.
    9900012    2    3    3    0    0 -0.22149080703E+02  0.29312878508E+02  0.24400365686E+01  0.54367076588E+02  0.39999982699E+02 0.  0.
        -12    1    3    3    0    0  0.22149080703E+02 -0.29312878508E+02 -0.24400365686E+01  0.36820923412E+02  0.00000000000E+00 0.  1.
         11    1    4    4    0    0 -0.48367913378E+01  0.34367702508E+02  0.45919907309E+01  0.35008854669E+02  0.51100000000E-03 0. -1.
        -11    1    4    4    0    0 -0.43540198634E+01 -0.23172338375E+01  0.22229871932E+01  0.54100585903E+01  0.51100000000E-03 0.  1.
         12    1    4    4    0    0 -0.12958269502E+02 -0.27375901625E+01 -0.43749413554E+01  0.13948163329E+02  0.00000000000E+00 0. -1.
</event>
<event>
 8    1  0.2460897E-006  0.9118800E+02  0.7816164E-02  0.1184000E+00
        -11   -1    0    0    0    0  0.00000000000E+00  0.00000000000E+00  0.45593999997E+02  0.45594000000E+02  0.51100000000E-03 0.  1.
         11   -1    0    0    0    0 -0.00000000000E+00 -0.00000000000E+00 -0.45593999997E+02  0.45594000000E+02  0.51100000000E-03 0. -1.
         23    2    1    2    0    0 -0.13322676296E-14  0.00000000000E+00  0.88817841970E-15  0.91188000000E+02  0.91188000000E+02 0.  0.
    9900012    2    3    3    0    0  0.19269926327E+01 -0.36353182676E+02  0.55239231437E+01  0.54367069564E+02  0.39999966685E+02 0.  0.
         12    1    3    3    0    0 -0.19269926327E+01  0.36353182676E+02 -0.55239231437E+01  0.36820930436E+02  0.00000000000E+00 0. -1.
         11    1    4    4    0    0  0.10906185612E+02 -0.13778178269E+02  0.14740111394E+00  0.17572842922E+02  0.51100000000E-03 0. -1.
        -11    1    4    4    0    0 -0.37709994296E+01 -0.25347960873E+02  0.11677338831E+02  0.28162027618E+02  0.51100000000E-03 0.  1.
         12    1    4    4    0    0 -0.52081935502E+01  0.27729564656E+01 -0.63008168016E+01  0.86321990236E+01  0.00000000000E+00 0. -1.
</event>
<event>
 8    1  0.2460897E-006  0.9118800E+02  0.7816164E-02  0.1184000E+00
        -11   -1    0    0    0    0  0.00000000000E+00  0.00000000000E+00  0.45593999997E+02  0.45594000000E+02  0.51100000000E-03 0.  1.
         11   -1    0    0    0    0 -0.00000000000E+00 -0.00000000000E+00 -0.45593999997E+02  0.45594000000E+02  0.51100000000E-03 0. -1.
         23    2    1    2    0    0  0.00000000000E+00  0.35527136788E-14  0.00000000000E+00  0.91188000000E+02  0.91188000000E+02 0.  0.
    9900012    2    3    3    0    0 -0.13062941119E+02 -0.31744387633E+02  0.13320416458E+02  0.54367081061E+02  0.39999992894E+02 0.  0.
         12    1    3    3    0    0  0.13062941119E+02  0.31744387633E+02 -0.13320416458E+02  0.36820918939E+02  0.00000000000E+00 0. -1.
         11    1    4    4    0    0  0.79336343775E+01  0.45048582952E+01  0.67499958352E+01  0.11348953552E+02  0.51100000000E-03 0. -1.
        -11    1    4    4    0    0 -0.10454595570E+01 -0.56615314427E+00  0.13585873280E+01  0.18053461876E+01  0.51100000000E-03 0.  1.
         12    1    4    4    0    0 -0.19951115940E+02 -0.35683092784E+02  0.52118332950E+01  0.41212781321E+02  0.00000000000E+00 0. -1.
</event>
<event>
 8    1  0.2460897E-006  0.9118800E+02  0.7816164E-02  0.1184000E+00
        -11   -1    0    0    0    0  0.00000000000E+00  0.00000000000E+00  0.45593999997E+02  0.45594000000E+02  0.51100000000E-03 0. -1.
         11   -1    0    0    0    0 -0.00000000000E+00 -0.00000000000E+00 -0.45593999997E+02  0.45594000000E+02  0.51100000000E-03 0.  1.
         23    2    1    2    0    0  0.71054273576E-14  0.35527136788E-14  0.44408920985E-15  0.91188000000E+02  0.91188000000E+02 0.  0.
    9900012    2    3    3    0    0  0.19512010841E+02  0.31159338756E+02  0.20390595038E+01  0.54367072222E+02  0.39999972745E+02 0.  0.
         12    1    3    3    0    0 -0.19512010841E+02 -0.31159338756E+02 -0.20390595038E+01  0.36820927778E+02  0.00000000000E+00 0. -1.
         11    1    4    4    0    0  0.50217353132E+01  0.14669242075E+01 -0.48950414831E+01  0.71645742071E+01  0.51100000000E-03 0.  1.
        -11    1    4    4    0    0 -0.85843225195E+01  0.19373506634E+02  0.54623353592E+01  0.21882880529E+02  0.51100000000E-03 0. -1.
        -12    1    4    4    0    0  0.23074598047E+02  0.10318907915E+02  0.14717656278E+01  0.25319617486E+02  0.00000000000E+00 0.  1.
</event>
<event>
 8    1  0.2460897E-006  0.9118800E+02  0.7816164E-02  0.1184000E+00
        -11   -1    0    0    0    0  0.00000000000E+00  0.00000000000E+00  0.45593999997E+02  0.45594000000E+02  0.51100000000E-03 0. -1.
         11   -1    0    0    0    0 -0.00000000000E+00 -0.00000000000E+00 -0.45593999997E+02  0.45594000000E+02  0.51100000000E-03 0.  1.
         23    2    1    2    0    0  0.88817841970E-15  0.00000000000E+00  0.71054273576E-14  0.91188000000E+02  0.91188000000E+02 0.  0.
    9900012    2    3    3    0    0  0.10104927083E+01 -0.16585607077E+02  0.32858429677E+02  0.54367083954E+02  0.39999999490E+02 0.  0.
        -12    1    3    3    0    0 -0.10104927083E+01  0.16585607077E+02 -0.32858429677E+02  0.36820916046E+02  0.00000000000E+00 0.  1.
         11    1    4    4    0    0 -0.11325283818E+02 -0.12561114546E+01  0.22121274321E+02  0.24883541697E+02  0.51100000000E-03 0. -1.
        -11    1    4    4    0    0  0.52516700280E+01 -0.15403278937E+01 -0.49857035588E+01  0.74033700665E+01  0.51100000000E-03 0.  1.
        -12    1    4    4    0    0  0.70841064979E+01 -0.13789167728E+02  0.15722858915E+02  0.22080172191E+02  0.00000000000E+00 0.  1.
</event>
<event>
 8    1  0.2460897E-006  0.9118800E+02  0.7816164E-02  0.1184000E+00
        -11   -1    0    0    0    0  0.00000000000E+00  0.00000000000E+00  0.45593999997E+02  0.45594000000E+02  0.51100000000E-03 0.  1.
         11   -1    0    0    0    0 -0.00000000000E+00 -0.00000000000E+00 -0.45593999997E+02  0.45594000000E+02  0.51100000000E-03 0. -1.
         23    2    1    2    0    0  0.00000000000E+00  0.17763568394E-14  0.17763568394E-14  0.91188000000E+02  0.91188000000E+02 0.  0.
    9900012    2    3    3    0    0 -0.34367400989E+02  0.10443148333E+02  0.80993793169E+01  0.54367115394E+02  0.40000071165E+02 0.  0.
         12    1    3    3    0    0  0.34367400989E+02 -0.10443148333E+02 -0.80993793169E+01  0.36820884606E+02  0.00000000000E+00 0. -1.
         11    1    4    4    0    0 -0.52513975043E+01  0.12590887401E+02 -0.85852187693E+01  0.16118734531E+02  0.51100000000E-03 0.  1.
        -11    1    4    4    0    0 -0.24207244459E+02 -0.81286276428E+01  0.83267596911E+01  0.26858894222E+02  0.51100000000E-03 0. -1.
        -12    1    4    4    0    0 -0.49087590255E+01  0.59808885748E+01  0.83578383951E+01  0.11389486641E+02  0.00000000000E+00 0.  1.
</event>
<event>
 8    1  0.2460897E-006  0.9118800E+02  0.7816164E-02  0.1184000E+00
        -11   -1    0    0    0    0  0.00000000000E+00  0.00000000000E+00  0.45593999997E+02  0.45594000000E+02  0.51100000000E-03 0. -1.
         11   -1    0    0    0    0 -0.00000000000E+00 -0.00000000000E+00 -0.45593999997E+02  0.45594000000E+02  0.51100000000E-03 0.  1.
         23    2    1    2    0    0  0.00000000000E+00 -0.71054273576E-14 -0.17763568394E-14  0.91188000000E+02  0.91188000000E+02 0.  0.
    9900012    2    3    3    0    0 -0.13995350440E+02  0.33205995671E+02 -0.75678708059E+01  0.54367073192E+02  0.39999974957E+02 0.  0.
        -12    1    3    3    0    0  0.13995350440E+02 -0.33205995671E+02  0.75678708059E+01  0.36820926808E+02  0.00000000000E+00 0.  1.
         11    1    4    4    0    0 -0.87882225776E+01  0.47987423991E+01 -0.77912129540E+01  0.12687150359E+02  0.51100000000E-03 0. -1.
        -11    1    4    4    0    0 -0.29466206131E+01  0.20346647959E+01  0.12136157931E+02  0.12653409163E+02  0.51100000000E-03 0.  1.
        -12    1    4    4    0    0 -0.22605072496E+01  0.26372588476E+02 -0.11912815783E+02  0.29026513670E+02  0.00000000000E+00 0.  1.
</event>
<event>
 8    1  0.2460897E-006  0.9118800E+02  0.7816164E-02  0.1184000E+00
        -11   -1    0    0    0    0  0.00000000000E+00  0.00000000000E+00  0.45593999997E+02  0.45594000000E+02  0.51100000000E-03 0.  1.
         11   -1    0    0    0    0 -0.00000000000E+00 -0.00000000000E+00 -0.45593999997E+02  0.45594000000E+02  0.51100000000E-03 0. -1.
         23    2    1    2    0    0  0.88817841970E-15  0.00000000000E+00  0.00000000000E+00  0.91188000000E+02  0.91188000000E+02 0.  0.
    9900012    2    3    3    0    0  0.46709440986E+01 -0.13175888652E+02  0.34063973385E+02  0.54367135761E+02  0.40000117594E+02 0.  0.
         12    1    3    3    0    0 -0.46709440986E+01  0.13175888652E+02 -0.34063973385E+02  0.36820864239E+02  0.00000000000E+00 0. -1.
         11    1    4    4    0    0  0.82165598938E+01 -0.11738359603E+02 -0.23090923919E+01  0.14513195740E+02  0.51100000000E-03 0. -1.
        -11    1    4    4    0    0  0.47094066268E+01 -0.48193918381E+01  0.10405453982E+02  0.12396714133E+02  0.51100000000E-03 0.  1.
        -12    1    4    4    0    0 -0.82550224219E+01  0.33818627891E+01  0.25967611795E+02  0.27457225888E+02  0.00000000000E+00 0.  1.
</event>
<event>
 8    1  0.2460897E-006  0.9118800E+02  0.7816164E-02  0.1184000E+00
        -11   -1    0    0    0    0  0.00000000000E+00  0.00000000000E+00  0.45593999997E+02  0.45594000000E+02  0.51100000000E-03 0. -1.
         11   -1    0    0    0    0 -0.00000000000E+00 -0.00000000000E+00 -0.45593999997E+02  0.45594000000E+02  0.51100000000E-03 0.  1.
         23    2    1    2    0    0  0.00000000000E+00  0.71054273576E-14  0.00000000000E+00  0.91188000000E+02  0.91188000000E+02 0.  0.
    9900012    2    3    3    0    0  0.43356288756E+01  0.31779050689E+02  0.18085215748E+02  0.54367071588E+02  0.39999971299E+02 0.  0.
        -12    1    3    3    0    0 -0.43356288756E+01 -0.31779050689E+02 -0.18085215748E+02  0.36820928412E+02  0.00000000000E+00 0.  1.
         11    1    4    4    0    0  0.21706626231E+01  0.32431114687E+01  0.10432807820E+02  0.11138807274E+02  0.51100000000E-03 0. -1.
        -11    1    4    4    0    0  0.33562514840E+01  0.35212098500E+02  0.42051406839E+01  0.35620773619E+02  0.51100000000E-03 0.  1.
        -12    1    4    4    0    0 -0.11912852315E+01 -0.66761592791E+01  0.34472672442E+01  0.76074906950E+01  0.00000000000E+00 0.  1.
</event>
<event>
 8    1  0.2460897E-006  0.9118800E+02  0.7816164E-02  0.1184000E+00
        -11   -1    0    0    0    0  0.00000000000E+00  0.00000000000E+00  0.45593999997E+02  0.45594000000E+02  0.51100000000E-03 0.  1.
         11   -1    0    0    0    0 -0.00000000000E+00 -0.00000000000E+00 -0.45593999997E+02  0.45594000000E+02  0.51100000000E-03 0. -1.
         23    2    1    2    0    0  0.00000000000E+00  0.00000000000E+00  0.00000000000E+00  0.91188000000E+02  0.91188000000E+02 0.  0.
    9900012    2    3    3    0    0 -0.16160958284E+02 -0.20250267378E+02  0.26163491869E+02  0.54367106362E+02  0.40000050572E+02 0.  0.
         12    1    3    3    0    0  0.16160958284E+02  0.20250267378E+02 -0.26163491869E+02  0.36820893638E+02  0.00000000000E+00 0. -1.
         11    1    4    4    0    0  0.31652881234E+01  0.93814056518E+00 -0.19057854721E+01  0.38119778529E+01  0.51100000000E-03 0. -1.
        -11    1    4    4    0    0 -0.11785838037E+02  0.52621628545E+00  0.24633954035E+02  0.27313267352E+02  0.51100000000E-03 0.  1.
        -12    1    4    4    0    0 -0.75404083707E+01 -0.21714624229E+02  0.34353233066E+01  0.23241861156E+02  0.00000000000E+00 0.  1.
</event>
<event>
 8    1  0.2460897E-006  0.9118800E+02  0.7816164E-02  0.1184000E+00
        -11   -1    0    0    0    0  0.00000000000E+00  0.00000000000E+00  0.45593999997E+02  0.45594000000E+02  0.51100000000E-03 0. -1.
         11   -1    0    0    0    0 -0.00000000000E+00 -0.00000000000E+00 -0.45593999997E+02  0.45594000000E+02  0.51100000000E-03 0.  1.
         23    2    1    2    0    0  0.17763568394E-14  0.00000000000E+00 -0.71054273576E-14  0.91188000000E+02  0.91188000000E+02 0.  0.
    9900012    2    3    3    0    0  0.10903041376E+02 -0.52640628359E+01 -0.34773461981E+02  0.54367077592E+02  0.39999984987E+02 0.  0.
         12    1    3    3    0    0 -0.10903041376E+02  0.52640628359E+01  0.34773461981E+02  0.36820922408E+02  0.00000000000E+00 0. -1.
         11    1    4    4    0    0 -0.63490644176E+01  0.35823244185E+01 -0.45775907546E+01  0.86080197837E+01  0.51100000000E-03 0. -1.
        -11    1    4    4    0    0 -0.64350254342E+01 -0.84491900454E+01 -0.10725611891E+02  0.15094274261E+02  0.51100000000E-03 0.  1.
         12    1    4    4    0    0  0.23687131228E+02 -0.39719720890E+00 -0.19470259335E+02  0.30664783548E+02  0.00000000000E+00 0. -1.
</event>
<event>
 8    1  0.2460897E-006  0.9118800E+02  0.7816164E-02  0.1184000E+00
        -11   -1    0    0    0    0  0.00000000000E+00  0.00000000000E+00  0.45593999997E+02  0.45594000000E+02  0.51100000000E-03 0.  1.
         11   -1    0    0    0    0 -0.00000000000E+00 -0.00000000000E+00 -0.45593999997E+02  0.45594000000E+02  0.51100000000E-03 0. -1.
         23    2    1    2    0    0  0.00000000000E+00  0.00000000000E+00  0.00000000000E+00  0.91188000000E+02  0.91188000000E+02 0.  0.
    9900012    2    3    3    0    0  0.23914453378E+02 -0.16152648687E+02 -0.22868596058E+02  0.54367057241E+02  0.39999938593E+02 0.  0.
        -12    1    3    3    0    0 -0.23914453378E+02  0.16152648687E+02  0.22868596058E+02  0.36820942759E+02  0.00000000000E+00 0.  1.
         11    1    4    4    0    0 -0.53933146703E+01 -0.24669658480E+01 -0.27996850572E+01  0.65583534755E+01  0.51100000000E-03 0. -1.
        -11    1    4    4    0    0  0.19902449316E+00 -0.64161873892E+01  0.54502846112E+01  0.84209663321E+01  0.51100000000E-03 0.  1.
         12    1    4    4    0    0  0.29108743555E+02 -0.72694954494E+01 -0.25519195612E+02  0.39387737434E+02  0.00000000000E+00 0. -1.
</event>
<event>
 8    1  0.2460897E-006  0.9118800E+02  0.7816164E-02  0.1184000E+00
        -11   -1    0    0    0    0  0.00000000000E+00  0.00000000000E+00  0.45593999997E+02  0.45594000000E+02  0.51100000000E-03 0. -1.
         11   -1    0    0    0    0 -0.00000000000E+00 -0.00000000000E+00 -0.45593999997E+02  0.45594000000E+02  0.51100000000E-03 0.  1.
         23    2    1    2    0    0 -0.88817841970E-15  0.00000000000E+00 -0.35527136788E-14  0.91188000000E+02  0.91188000000E+02 0.  0.
    9900012    2    3    3    0    0  0.25190823976E+01 -0.18204070364E+02 -0.31906786286E+02  0.54367123244E+02  0.40000089060E+02 0.  0.
         12    1    3    3    0    0 -0.25190823976E+01  0.18204070364E+02  0.31906786286E+02  0.36820876756E+02  0.00000000000E+00 0. -1.
         11    1    4    4    0    0 -0.10721186325E+02 -0.19937159021E+02 -0.26409520755E+02  0.34783572744E+02  0.51100000000E-03 0. -1.
        -11    1    4    4    0    0  0.60052145072E+01 -0.53470784458E+01 -0.49574784774E+01  0.94461866537E+01  0.51100000000E-03 0.  1.
        -12    1    4    4    0    0  0.72350542150E+01  0.70801671031E+01 -0.53978705344E+00  0.10137363847E+02  0.00000000000E+00 0.  1.
</event>
<event>
 8    1  0.2460897E-006  0.9118800E+02  0.7816164E-02  0.1184000E+00
        -11   -1    0    0    0    0  0.00000000000E+00  0.00000000000E+00  0.45593999997E+02  0.45594000000E+02  0.51100000000E-03 0. -1.
         11   -1    0    0    0    0 -0.00000000000E+00 -0.00000000000E+00 -0.45593999997E+02  0.45594000000E+02  0.51100000000E-03 0.  1.
         23    2    1    2    0    0  0.00000000000E+00 -0.35527136788E-14  0.00000000000E+00  0.91188000000E+02  0.91188000000E+02 0.  0.
    9900012    2    3    3    0    0 -0.66087621184E+01  0.13737286586E+02 -0.33517027353E+02  0.54367083362E+02  0.39999998141E+02 0.  0.
         12    1    3    3    0    0  0.66087621184E+01 -0.13737286586E+02  0.33517027353E+02  0.36820916638E+02  0.00000000000E+00 0. -1.
         11    1    4    4    0    0  0.14754736698E+02  0.10138365324E+01 -0.10810901970E+02  0.18319544787E+02  0.51100000000E-03 0. -1.
        -11    1    4    4    0    0 -0.12562949014E+02  0.11919230428E+02 -0.20694228803E+02  0.26984196263E+02  0.51100000000E-03 0.  1.
         12    1    4    4    0    0 -0.88005498021E+01  0.80421962555E+00 -0.20118965795E+01  0.90633423124E+01  0.00000000000E+00 0. -1.
</event>
<event>
 8    1  0.2460897E-006  0.9118800E+02  0.7816164E-02  0.1184000E+00
        -11   -1    0    0    0    0  0.00000000000E+00  0.00000000000E+00  0.45593999997E+02  0.45594000000E+02  0.51100000000E-03 0.  1.
         11   -1    0    0    0    0 -0.00000000000E+00 -0.00000000000E+00 -0.45593999997E+02  0.45594000000E+02  0.51100000000E-03 0. -1.
         23    2    1    2    0    0  0.16956921978E-15  0.00000000000E+00  0.17763568394E-14  0.91188000000E+02  0.91188000000E+02 0.  0.
    9900012    2    3    3    0    0  0.10577375301E-02  0.35932798438E+02  0.80379794350E+01  0.54367148325E+02  0.40000146235E+02 0.  0.
         12    1    3    3    0    0 -0.10577375301E-02 -0.35932798438E+02 -0.80379794350E+01  0.36820851675E+02  0.00000000000E+00 0. -1.
         11    1    4    4    0    0  0.94934785843E+01  0.23090627619E+02 -0.83933331321E+01  0.26339158316E+02  0.51100000000E-03 0. -1.
        -11    1    4    4    0    0 -0.21112945944E+00 -0.18725687262E+01 -0.19551014438E+01  0.27154209986E+01  0.51100000000E-03 0.  1.
        -12    1    4    4    0    0 -0.92812913874E+01  0.14714739545E+02  0.18386414011E+02  0.25312569010E+02  0.00000000000E+00 0.  1.
</event>
<event>
 8    1  0.2460897E-006  0.9118800E+02  0.7816164E-02  0.1184000E+00
        -11   -1    0    0    0    0  0.00000000000E+00  0.00000000000E+00  0.45593999997E+02  0.45594000000E+02  0.51100000000E-03 0.  1.
         11   -1    0    0    0    0 -0.00000000000E+00 -0.00000000000E+00 -0.45593999997E+02  0.45594000000E+02  0.51100000000E-03 0. -1.
         23    2    1    2    0    0  0.00000000000E+00  0.35527136788E-14 -0.35527136788E-14  0.91188000000E+02  0.91188000000E+02 0.  0.
    9900012    2    3    3    0    0  0.84884722569E+01  0.23463945871E+02 -0.27077088216E+02  0.54367087146E+02  0.40000006768E+02 0.  0.
        -12    1    3    3    0    0 -0.84884722569E+01 -0.23463945871E+02  0.27077088216E+02  0.36820912854E+02  0.00000000000E+00 0.  1.
         11    1    4    4    0    0  0.12785850284E+02  0.14265558333E+02 -0.50176142820E+00  0.19163399668E+02  0.51100000000E-03 0. -1.
        -11    1    4    4    0    0 -0.11695413916E+01  0.80579541615E+01  0.27569839681E+00  0.81470523628E+01  0.51100000000E-03 0.  1.
         12    1    4    4    0    0 -0.31278366353E+01  0.11404333764E+01 -0.26851025185E+02  0.27056635116E+02  0.00000000000E+00 0. -1.
</event>
<event>
 8    1  0.2460897E-006  0.9118800E+02  0.7816164E-02  0.1184000E+00
        -11   -1    0    0    0    0  0.00000000000E+00  0.00000000000E+00  0.45593999997E+02  0.45594000000E+02  0.51100000000E-03 0.  1.
         11   -1    0    0    0    0 -0.00000000000E+00 -0.00000000000E+00 -0.45593999997E+02  0.45594000000E+02  0.51100000000E-03 0. -1.
         23    2    1    2    0    0  0.71054273576E-14  0.00000000000E+00 -0.88817841970E-15  0.91188000000E+02  0.91188000000E+02 0.  0.
    9900012    2    3    3    0    0 -0.34521258624E+02 -0.11579192484E+02  0.54759103807E+01  0.54367074020E+02  0.39999976842E+02 0.  0.
        -12    1    3    3    0    0  0.34521258624E+02  0.11579192484E+02 -0.54759103807E+01  0.36820925980E+02  0.00000000000E+00 0.  1.
         11    1    4    4    0    0 -0.24466470738E+02  0.90568270160E+01  0.26712183919E+01  0.26225363942E+02  0.51100000000E-03 0. -1.
        -11    1    4    4    0    0 -0.36494637963E+00  0.74262311679E+00  0.45312649948E+01  0.46061955742E+01  0.51100000000E-03 0.  1.
         12    1    4    4    0    0 -0.96898415066E+01 -0.21378642617E+02 -0.17265730061E+01  0.23535514503E+02  0.00000000000E+00 0. -1.
</event>
<event>
 8    1  0.2460897E-006  0.9118800E+02  0.7816164E-02  0.1184000E+00
        -11   -1    0    0    0    0  0.00000000000E+00  0.00000000000E+00  0.45593999997E+02  0.45594000000E+02  0.51100000000E-03 0. -1.
         11   -1    0    0    0    0 -0.00000000000E+00 -0.00000000000E+00 -0.45593999997E+02  0.45594000000E+02  0.51100000000E-03 0.  1.
         23    2    1    2    0    0  0.00000000000E+00  0.00000000000E+00  0.00000000000E+00  0.91188000000E+02  0.91188000000E+02 0.  0.
    9900012    2    3    3    0    0  0.22602598077E+02  0.10699334889E+02 -0.27026404304E+02  0.54367085610E+02  0.40000003266E+02 0.  0.
         12    1    3    3    0    0 -0.22602598077E+02 -0.10699334889E+02  0.27026404304E+02  0.36820914390E+02  0.00000000000E+00 0. -1.
         11    1    4    4    0    0 -0.27414289470E+01 -0.47617513560E+01 -0.48466031905E+01  0.73266139106E+01  0.51100000000E-03 0. -1.
        -11    1    4    4    0    0  0.35533587963E+01  0.18709088592E+02 -0.13582440057E+02  0.23391003245E+02  0.51100000000E-03 0.  1.
        -12    1    4    4    0    0  0.21790668227E+02 -0.32480023470E+01 -0.85973610568E+01  0.23649468454E+02  0.00000000000E+00 0.  1.
</event>
<event>
 8    1  0.2460897E-006  0.9118800E+02  0.7816164E-02  0.1184000E+00
        -11   -1    0    0    0    0  0.00000000000E+00  0.00000000000E+00  0.45593999997E+02  0.45594000000E+02  0.51100000000E-03 0.  1.
         11   -1    0    0    0    0 -0.00000000000E+00 -0.00000000000E+00 -0.45593999997E+02  0.45594000000E+02  0.51100000000E-03 0. -1.
         23    2    1    2    0    0  0.17763568394E-14 -0.71054273576E-14  0.00000000000E+00  0.91188000000E+02  0.91188000000E+02 0.  0.
    9900012    2    3    3    0    0 -0.10708111565E+02  0.32740369842E+02 -0.13007070786E+02  0.54367090708E+02  0.40000014887E+02 0.  0.
        -12    1    3    3    0    0  0.10708111565E+02 -0.32740369842E+02  0.13007070786E+02  0.36820909292E+02  0.00000000000E+00 0.  1.
         11    1    4    4    0    0 -0.73775470698E+01  0.14302237092E+02 -0.38496887197E+01  0.16546972233E+02  0.51100000000E-03 0. -1.
        -11    1    4    4    0    0  0.12293353586E+02  0.16982222076E+02 -0.60912339437E+01  0.21831755318E+02  0.51100000000E-03 0.  1.
        -12    1    4    4    0    0 -0.15623918082E+02  0.14559106735E+01 -0.30661481229E+01  0.15988363156E+02  0.00000000000E+00 0.  1.
</event>
<event>
 8    1  0.2460897E-006  0.9118800E+02  0.7816164E-02  0.1184000E+00
        -11   -1    0    0    0    0  0.00000000000E+00  0.00000000000E+00  0.45593999997E+02  0.45594000000E+02  0.51100000000E-03 0. -1.
         11   -1    0    0    0    0 -0.00000000000E+00 -0.00000000000E+00 -0.45593999997E+02  0.45594000000E+02  0.51100000000E-03 0.  1.
         23    2    1    2    0    0  0.00000000000E+00  0.00000000000E+00 -0.17763568394E-14  0.91188000000E+02  0.91188000000E+02 0.  0.
    9900012    2    3    3    0    0 -0.13981177462E+02 -0.32607110228E+02  0.98530538907E+01  0.54367087034E+02  0.40000006512E+02 0.  0.
        -12    1    3    3    0    0  0.13981177462E+02  0.32607110228E+02 -0.98530538907E+01  0.36820912966E+02  0.00000000000E+00 0.  1.
         11    1    4    4    0    0 -0.14632062911E+02 -0.97904923160E+01 -0.44421699424E+01  0.18157199092E+02  0.51100000000E-03 0. -1.
        -11    1    4    4    0    0  0.68562895859E+01 -0.51932203772E+01 -0.45007223929E+01  0.97074583229E+01  0.51100000000E-03 0.  1.
         12    1    4    4    0    0 -0.62054041375E+01 -0.17623397535E+02  0.18795946226E+02  0.26502429619E+02  0.00000000000E+00 0. -1.
</event>
<event>
 8    1  0.2460897E-006  0.9118800E+02  0.7816164E-02  0.1184000E+00
        -11   -1    0    0    0    0  0.00000000000E+00  0.00000000000E+00  0.45593999997E+02  0.45594000000E+02  0.51100000000E-03 0. -1.
         11   -1    0    0    0    0 -0.00000000000E+00 -0.00000000000E+00 -0.45593999997E+02  0.45594000000E+02  0.51100000000E-03 0.  1.
         23    2    1    2    0    0  0.00000000000E+00 -0.88817841970E-15  0.00000000000E+00  0.91188000000E+02  0.91188000000E+02 0.  0.
    9900012    2    3    3    0    0 -0.34030142910E+02  0.73668594527E+01 -0.11977645164E+02  0.54367011035E+02  0.39999833256E+02 0.  0.
         12    1    3    3    0    0  0.34030142910E+02 -0.73668594527E+01  0.11977645164E+02  0.36820988965E+02  0.00000000000E+00 0. -1.
         11    1    4    4    0    0 -0.40871690620E+01 -0.21234317502E+01  0.18883762826E+01  0.49779391906E+01  0.51100000000E-03 0. -1.
        -11    1    4    4    0    0  0.59684861947E+01  0.82347778607E+01  0.15512627708E+01  0.10287896302E+02  0.51100000000E-03 0.  1.
        -12    1    4    4    0    0 -0.35911460043E+02  0.12555133422E+01 -0.15417284217E+02  0.39101175543E+02  0.00000000000E+00 0.  1.
</event>
<event>
 8    1  0.2460897E-006  0.9118800E+02  0.7816164E-02  0.1184000E+00
        -11   -1    0    0    0    0  0.00000000000E+00  0.00000000000E+00  0.45593999997E+02  0.45594000000E+02  0.51100000000E-03 0.  1.
         11   -1    0    0    0    0 -0.00000000000E+00 -0.00000000000E+00 -0.45593999997E+02  0.45594000000E+02  0.51100000000E-03 0. -1.
         23    2    1    2    0    0  0.00000000000E+00  0.00000000000E+00  0.71054273576E-14  0.91188000000E+02  0.91188000000E+02 0.  0.
    9900012    2    3    3    0    0  0.58504779521E+01  0.10806512531E+02  0.34709812008E+02  0.54367084001E+02  0.39999999597E+02 0.  0.
         12    1    3    3    0    0 -0.58504779521E+01 -0.10806512531E+02 -0.34709812008E+02  0.36820915999E+02  0.00000000000E+00 0. -1.
         11    1    4    4    0    0  0.39834362382E+01  0.13598368239E+01  0.64236900502E+01  0.76798902709E+01  0.51100000000E-03 0. -1.
        -11    1    4    4    0    0 -0.98216550965E+01  0.41449010415E+01  0.31668043272E+02  0.33414219704E+02  0.51100000000E-03 0.  1.
         12    1    4    4    0    0  0.11688696810E+02  0.53017746655E+01 -0.33819213141E+01  0.13272974026E+02  0.00000000000E+00 0. -1.
</event>
<event>
 8    1  0.2460897E-006  0.9118800E+02  0.7816164E-02  0.1184000E+00
        -11   -1    0    0    0    0  0.00000000000E+00  0.00000000000E+00  0.45593999997E+02  0.45594000000E+02  0.51100000000E-03 0.  1.
         11   -1    0    0    0    0 -0.00000000000E+00 -0.00000000000E+00 -0.45593999997E+02  0.45594000000E+02  0.51100000000E-03 0. -1.
         23    2    1    2    0    0 -0.71054273576E-14  0.00000000000E+00  0.71054273576E-14  0.91188000000E+02  0.91188000000E+02 0.  0.
    9900012    2    3    3    0    0  0.28639119944E+02  0.14333955550E+02 -0.18169176543E+02  0.54367075933E+02  0.39999981204E+02 0.  0.
         12    1    3    3    0    0 -0.28639119944E+02 -0.14333955550E+02  0.18169176543E+02  0.36820924067E+02  0.00000000000E+00 0. -1.
         11    1    4    4    0    0  0.97962996135E+01  0.20930187430E+01  0.61713381591E+00  0.10036387198E+02  0.51100000000E-03 0. -1.
        -11    1    4    4    0    0  0.26610272859E+02  0.14121729226E+02 -0.84938862258E+01  0.31299775742E+02  0.51100000000E-03 0.  1.
         12    1    4    4    0    0 -0.77674525287E+01 -0.18807924193E+01 -0.10292424133E+02  0.13030912994E+02  0.00000000000E+00 0. -1.
</event>
<event>
 8    1  0.2460897E-006  0.9118800E+02  0.7816164E-02  0.1184000E+00
        -11   -1    0    0    0    0  0.00000000000E+00  0.00000000000E+00  0.45593999997E+02  0.45594000000E+02  0.51100000000E-03 0. -1.
         11   -1    0    0    0    0 -0.00000000000E+00 -0.00000000000E+00 -0.45593999997E+02  0.45594000000E+02  0.51100000000E-03 0.  1.
         23    2    1    2    0    0 -0.35527136788E-14 -0.88817841970E-15  0.00000000000E+00  0.91188000000E+02  0.91188000000E+02 0.  0.
    9900012    2    3    3    0    0  0.25177669152E+02  0.46902782274E+01  0.26455046855E+02  0.54367038064E+02  0.39999894875E+02 0.  0.
         12    1    3    3    0    0 -0.25177669152E+02 -0.46902782274E+01 -0.26455046855E+02  0.36820961936E+02  0.00000000000E+00 0. -1.
         11    1    4    4    0    0 -0.15991208607E+01 -0.14833563917E+01 -0.80268988521E+01  0.83179708556E+01  0.51100000000E-03 0. -1.
        -11    1    4    4    0    0  0.22742912525E+02  0.10759115170E+00  0.29385021008E+02  0.37158190293E+02  0.51100000000E-03 0.  1.
        -12    1    4    4    0    0  0.40338774878E+01  0.60660434674E+01  0.50969246992E+01  0.88908769154E+01  0.00000000000E+00 0.  1.
</event>
<event>
 8    1  0.2460897E-006  0.9118800E+02  0.7816164E-02  0.1184000E+00
        -11   -1    0    0    0    0  0.00000000000E+00  0.00000000000E+00  0.45593999997E+02  0.45594000000E+02  0.51100000000E-03 0.  1.
         11   -1    0    0    0    0 -0.00000000000E+00 -0.00000000000E+00 -0.45593999997E+02  0.45594000000E+02  0.51100000000E-03 0. -1.
         23    2    1    2    0    0  0.00000000000E+00 -0.35527136788E-14 -0.44408920985E-15  0.91188000000E+02  0.91188000000E+02 0.  0.
    9900012    2    3    3    0    0 -0.30719325026E+02  0.20129473089E+02 -0.26278713839E+01  0.54367104779E+02  0.40000046964E+02 0.  0.
        -12    1    3    3    0    0  0.30719325026E+02 -0.20129473089E+02  0.26278713839E+01  0.36820895221E+02  0.00000000000E+00 0.  1.
         11    1    4    4    0    0 -0.49741850545E+01  0.17412933666E+02 -0.38338940423E+01  0.18510848700E+02  0.51100000000E-03 0. -1.
        -11    1    4    4    0    0  0.48476867419E+01  0.16806896732E+01 -0.74118215451E+00  0.51840269841E+01  0.51100000000E-03 0.  1.
        -12    1    4    4    0    0 -0.30592826713E+02  0.10358497499E+01  0.19472048129E+01  0.30672229094E+02  0.00000000000E+00 0.  1.
</event>
<event>
 8    1  0.2460897E-006  0.9118800E+02  0.7816164E-02  0.1184000E+00
        -11   -1    0    0    0    0  0.00000000000E+00  0.00000000000E+00  0.45593999997E+02  0.45594000000E+02  0.51100000000E-03 0.  1.
         11   -1    0    0    0    0 -0.00000000000E+00 -0.00000000000E+00 -0.45593999997E+02  0.45594000000E+02  0.51100000000E-03 0. -1.
         23    2    1    2    0    0  0.00000000000E+00  0.35527136788E-14  0.00000000000E+00  0.91188000000E+02  0.91188000000E+02 0.  0.
    9900012    2    3    3    0    0  0.22095884920E+02 -0.22253791479E+02 -0.19295588476E+02  0.54367094250E+02  0.40000022962E+02 0.  0.
        -12    1    3    3    0    0 -0.22095884920E+02  0.22253791479E+02  0.19295588476E+02  0.36820905750E+02  0.00000000000E+00 0.  1.
         11    1    4    4    0    0  0.87123809184E+01 -0.24803569299E+02 -0.60341732810E+01  0.26972835940E+02  0.51100000000E-03 0. -1.
        -11    1    4    4    0    0 -0.13682279462E+01 -0.62897169888E+01 -0.57385734639E+01  0.86234455512E+01  0.51100000000E-03 0.  1.
        -12    1    4    4    0    0  0.14751731947E+02  0.88394948080E+01 -0.75228417311E+01  0.18770812759E+02  0.00000000000E+00 0.  1.
</event>
<event>
 8    1  0.2460897E-006  0.9118800E+02  0.7816164E-02  0.1184000E+00
        -11   -1    0    0    0    0  0.00000000000E+00  0.00000000000E+00  0.45593999997E+02  0.45594000000E+02  0.51100000000E-03 0. -1.
         11   -1    0    0    0    0 -0.00000000000E+00 -0.00000000000E+00 -0.45593999997E+02  0.45594000000E+02  0.51100000000E-03 0.  1.
         23    2    1    2    0    0  0.00000000000E+00 -0.88817841970E-15  0.00000000000E+00  0.91188000000E+02  0.91188000000E+02 0.  0.
    9900012    2    3    3    0    0  0.35487970981E+02  0.31389177231E+01  0.93022468581E+01  0.54367072725E+02  0.39999973890E+02 0.  0.
        -12    1    3    3    0    0 -0.35487970981E+02 -0.31389177231E+01 -0.93022468581E+01  0.36820927275E+02  0.00000000000E+00 0.  1.
         11    1    4    4    0    0 -0.64315976214E+01  0.43937196039E+01 -0.29155674538E+01  0.83168956804E+01  0.51100000000E-03 0.  1.
        -11    1    4    4    0    0  0.16766773768E+02  0.38217942608E+01  0.10891933967E+02  0.20355958336E+02  0.51100000000E-03 0. -1.
         12    1    4    4    0    0  0.25152794834E+02 -0.50765961415E+01  0.13258803447E+01  0.25694218709E+02  0.00000000000E+00 0. -1.
</event>
<event>
 8    1  0.2460897E-006  0.9118800E+02  0.7816164E-02  0.1184000E+00
        -11   -1    0    0    0    0  0.00000000000E+00  0.00000000000E+00  0.45593999997E+02  0.45594000000E+02  0.51100000000E-03 0.  1.
         11   -1    0    0    0    0 -0.00000000000E+00 -0.00000000000E+00 -0.45593999997E+02  0.45594000000E+02  0.51100000000E-03 0. -1.
         23    2    1    2    0    0  0.00000000000E+00 -0.35527136788E-14  0.00000000000E+00  0.91188000000E+02  0.91188000000E+02 0.  0.
    9900012    2    3    3    0    0  0.25879502715E+02  0.25558948539E+02  0.57245512901E+01  0.54367095629E+02  0.40000026105E+02 0.  0.
        -12    1    3    3    0    0 -0.25879502715E+02 -0.25558948539E+02 -0.57245512901E+01  0.36820904371E+02  0.00000000000E+00 0.  1.
         11    1    4    4    0    0  0.66518725491E+00  0.15773018970E+02  0.37428643542E+01  0.16224661333E+02  0.51100000000E-03 0. -1.
        -11    1    4    4    0    0  0.15026049942E+00  0.95557440185E+01  0.78869591184E+01  0.12391083341E+02  0.51100000000E-03 0.  1.
        -12    1    4    4    0    0  0.25064054961E+02  0.23018555053E+00 -0.59052721825E+01  0.25751350955E+02  0.00000000000E+00 0.  1.
</event>
<event>
 8    1  0.2460897E-006  0.9118800E+02  0.7816164E-02  0.1184000E+00
        -11   -1    0    0    0    0  0.00000000000E+00  0.00000000000E+00  0.45593999997E+02  0.45594000000E+02  0.51100000000E-03 0. -1.
         11   -1    0    0    0    0 -0.00000000000E+00 -0.00000000000E+00 -0.45593999997E+02  0.45594000000E+02  0.51100000000E-03 0.  1.
         23    2    1    2    0    0  0.00000000000E+00  0.44408920985E-15 -0.88817841970E-15  0.91188000000E+02  0.91188000000E+02 0.  0.
    9900012    2    3    3    0    0 -0.36381774935E+02  0.13931751590E+01  0.54959309935E+01  0.54367085537E+02  0.40000003099E+02 0.  0.
        -12    1    3    3    0    0  0.36381774935E+02 -0.13931751590E+01 -0.54959309935E+01  0.36820914463E+02  0.00000000000E+00 0.  1.
         11    1    4    4    0    0 -0.20779861753E+02 -0.90850262025E-01  0.89156349343E+01  0.22611931691E+02  0.51100000000E-03 0. -1.
        -11    1    4    4    0    0 -0.22139216481E+02  0.56321202091E+01 -0.59559584076E+01  0.23608030948E+02  0.51100000000E-03 0.  1.
         12    1    4    4    0    0  0.65373032993E+01 -0.41480947880E+01  0.25362544668E+01  0.81471228982E+01  0.00000000000E+00 0. -1.
</event>
<event>
 8    1  0.2460897E-006  0.9118800E+02  0.7816164E-02  0.1184000E+00
        -11   -1    0    0    0    0  0.00000000000E+00  0.00000000000E+00  0.45593999997E+02  0.45594000000E+02  0.51100000000E-03 0.  1.
         11   -1    0    0    0    0 -0.00000000000E+00 -0.00000000000E+00 -0.45593999997E+02  0.45594000000E+02  0.51100000000E-03 0. -1.
         23    2    1    2    0    0  0.17763568394E-14  0.00000000000E+00  0.72164496601E-15  0.91188000000E+02  0.91188000000E+02 0.  0.
    9900012    2    3    3    0    0 -0.12996874220E+02  0.34449485207E+02  0.30658393140E+00  0.54367085234E+02  0.40000002407E+02 0.  0.
         12    1    3    3    0    0  0.12996874220E+02 -0.34449485207E+02 -0.30658393140E+00  0.36820914766E+02  0.00000000000E+00 0. -1.
         11    1    4    4    0    0 -0.15893352988E+02  0.21282643590E+02 -0.12427983222E+02  0.29325830842E+02  0.51100000000E-03 0. -1.
        -11    1    4    4    0    0  0.81910703723E+01  0.13624215362E+02  0.74836272105E+01  0.17570360115E+02  0.51100000000E-03 0.  1.
        -12    1    4    4    0    0 -0.52945916047E+01 -0.45737374464E+00  0.52509399432E+01  0.74708942765E+01  0.00000000000E+00 0.  1.
</event>
<event>
 8    1  0.2460897E-006  0.9118800E+02  0.7816164E-02  0.1184000E+00
        -11   -1    0    0    0    0  0.00000000000E+00  0.00000000000E+00  0.45593999997E+02  0.45594000000E+02  0.51100000000E-03 0.  1.
         11   -1    0    0    0    0 -0.00000000000E+00 -0.00000000000E+00 -0.45593999997E+02  0.45594000000E+02  0.51100000000E-03 0. -1.
         23    2    1    2    0    0  0.00000000000E+00  0.00000000000E+00 -0.17763568394E-14  0.91188000000E+02  0.91188000000E+02 0.  0.
    9900012    2    3    3    0    0 -0.18909186963E+02  0.29823378143E+02  0.10430474137E+02  0.54367000201E+02  0.39999808559E+02 0.  0.
         12    1    3    3    0    0  0.18909186963E+02 -0.29823378143E+02 -0.10430474137E+02  0.36820999799E+02  0.00000000000E+00 0. -1.
         11    1    4    4    0    0  0.35772989965E+01  0.60083274126E+01  0.13243747789E+02  0.14976445579E+02  0.51100000000E-03 0. -1.
        -11    1    4    4    0    0 -0.14893669053E+02  0.61326368886E+01 -0.98739389977E+01  0.18892466347E+02  0.51100000000E-03 0.  1.
        -12    1    4    4    0    0 -0.75928169062E+01  0.17682413842E+02  0.70606653449E+01  0.20498088275E+02  0.00000000000E+00 0.  1.
</event>
<event>
 8    1  0.2460897E-006  0.9118800E+02  0.7816164E-02  0.1184000E+00
        -11   -1    0    0    0    0  0.00000000000E+00  0.00000000000E+00  0.45593999997E+02  0.45594000000E+02  0.51100000000E-03 0.  1.
         11   -1    0    0    0    0 -0.00000000000E+00 -0.00000000000E+00 -0.45593999997E+02  0.45594000000E+02  0.51100000000E-03 0. -1.
         23    2    1    2    0    0  0.00000000000E+00  0.00000000000E+00  0.35527136788E-14  0.91188000000E+02  0.91188000000E+02 0.  0.
    9900012    2    3    3    0    0  0.14206534983E+02  0.16272486372E+02  0.29818760369E+02  0.54367110292E+02  0.40000059532E+02 0.  0.
         12    1    3    3    0    0 -0.14206534983E+02 -0.16272486372E+02 -0.29818760369E+02  0.36820889708E+02  0.00000000000E+00 0. -1.
         11    1    4    4    0    0  0.58757128766E+01  0.80307775455E+01  0.93441604830E+01  0.13650301286E+02  0.51100000000E-03 0.  1.
        -11    1    4    4    0    0  0.13847861788E+02  0.61044664335E+01 -0.39051599959E+01  0.15629397346E+02  0.51100000000E-03 0. -1.
        -12    1    4    4    0    0 -0.55170396817E+01  0.21372423926E+01  0.24379759882E+02  0.25087411660E+02  0.00000000000E+00 0.  1.
</event>
<event>
 8    1  0.2460897E-006  0.9118800E+02  0.7816164E-02  0.1184000E+00
        -11   -1    0    0    0    0  0.00000000000E+00  0.00000000000E+00  0.45593999997E+02  0.45594000000E+02  0.51100000000E-03 0.  1.
         11   -1    0    0    0    0 -0.00000000000E+00 -0.00000000000E+00 -0.45593999997E+02  0.45594000000E+02  0.51100000000E-03 0. -1.
         23    2    1    2    0    0 -0.17763568394E-14  0.00000000000E+00  0.71054273576E-14  0.91188000000E+02  0.91188000000E+02 0.  0.
    9900012    2    3    3    0    0  0.12596896363E+02 -0.45370815761E+01  0.34300329637E+02  0.54367088544E+02  0.40000009955E+02 0.  0.
         12    1    3    3    0    0 -0.12596896363E+02  0.45370815761E+01 -0.34300329637E+02  0.36820911456E+02  0.00000000000E+00 0. -1.
         11    1    4    4    0    0  0.93238993816E+00  0.84963368849E+01 -0.14668011342E+01  0.86722890454E+01  0.51100000000E-03 0. -1.
        -11    1    4    4    0    0  0.47782150426E+01  0.22943002384E+01  0.25407354956E+02  0.25954360687E+02  0.51100000000E-03 0.  1.
         12    1    4    4    0    0  0.68862913822E+01 -0.15327718699E+02  0.10359775815E+02  0.19740438812E+02  0.00000000000E+00 0. -1.
</event>
<event>
 8    1  0.2460897E-006  0.9118800E+02  0.7816164E-02  0.1184000E+00
        -11   -1    0    0    0    0  0.00000000000E+00  0.00000000000E+00  0.45593999997E+02  0.45594000000E+02  0.51100000000E-03 0.  1.
         11   -1    0    0    0    0 -0.00000000000E+00 -0.00000000000E+00 -0.45593999997E+02  0.45594000000E+02  0.51100000000E-03 0. -1.
         23    2    1    2    0    0  0.00000000000E+00  0.00000000000E+00 -0.33306690739E-15  0.91188000000E+02  0.91188000000E+02 0.  0.
    9900012    2    3    3    0    0 -0.33007849137E+02 -0.16303361091E+02 -0.67988470052E+00  0.54367082973E+02  0.39999997254E+02 0.  0.
         12    1    3    3    0    0  0.33007849137E+02  0.16303361091E+02  0.67988470052E+00  0.36820917027E+02  0.00000000000E+00 0. -1.
         11    1    4    4    0    0  0.22365675184E+01 -0.11722071556E+02  0.37896399987E+01  0.12520805382E+02  0.51100000000E-03 0. -1.
        -11    1    4    4    0    0 -0.10977403951E+02  0.16149185667E+01 -0.11350377215E+02  0.15872694247E+02  0.51100000000E-03 0.  1.
         12    1    4    4    0    0 -0.24267012704E+02 -0.61962081011E+01  0.68808525156E+01  0.25973583344E+02  0.00000000000E+00 0. -1.
</event>
<event>
 8    1  0.2460897E-006  0.9118800E+02  0.7816164E-02  0.1184000E+00
        -11   -1    0    0    0    0  0.00000000000E+00  0.00000000000E+00  0.45593999997E+02  0.45594000000E+02  0.51100000000E-03 0.  1.
         11   -1    0    0    0    0 -0.00000000000E+00 -0.00000000000E+00 -0.45593999997E+02  0.45594000000E+02  0.51100000000E-03 0. -1.
         23    2    1    2    0    0  0.44408920985E-15  0.00000000000E+00  0.35527136788E-14  0.91188000000E+02  0.91188000000E+02 0.  0.
    9900012    2    3    3    0    0  0.32781565623E+01 -0.24723458532E+02  0.27088442441E+02  0.54367089825E+02  0.40000012874E+02 0.  0.
         12    1    3    3    0    0 -0.32781565623E+01  0.24723458532E+02 -0.27088442441E+02  0.36820910175E+02  0.00000000000E+00 0. -1.
         11    1    4    4    0    0  0.77475789955E+01 -0.73979231092E+01  0.18514514273E+02  0.21390219392E+02  0.51100000000E-03 0. -1.
        -11    1    4    4    0    0 -0.28639211011E+01 -0.15384847100E+02  0.17632051399E+02  0.23575088571E+02  0.51100000000E-03 0.  1.
         12    1    4    4    0    0 -0.16055013320E+01 -0.19406883235E+01 -0.90581232313E+01  0.94017818614E+01  0.00000000000E+00 0. -1.
</event>
<event>
 8    1  0.2460897E-006  0.9118800E+02  0.7816164E-02  0.1184000E+00
        -11   -1    0    0    0    0  0.00000000000E+00  0.00000000000E+00  0.45593999997E+02  0.45594000000E+02  0.51100000000E-03 0. -1.
         11   -1    0    0    0    0 -0.00000000000E+00 -0.00000000000E+00 -0.45593999997E+02  0.45594000000E+02  0.51100000000E-03 0.  1.
         23    2    1    2    0    0  0.00000000000E+00  0.00000000000E+00  0.00000000000E+00  0.91188000000E+02  0.91188000000E+02 0.  0.
    9900012    2    3    3    0    0 -0.15937051453E+02 -0.24938392242E+02 -0.21905822350E+02  0.54367108247E+02  0.40000054871E+02 0.  0.
         12    1    3    3    0    0  0.15937051453E+02  0.24938392242E+02  0.21905822350E+02  0.36820891753E+02  0.00000000000E+00 0. -1.
         11    1    4    4    0    0 -0.13573570445E+02 -0.23894033161E+02 -0.23031569306E+02  0.35855540998E+02  0.51100000000E-03 0. -1.
        -11    1    4    4    0    0 -0.78441082887E+01  0.23114981769E+00 -0.56751323268E+01  0.96845543145E+01  0.51100000000E-03 0.  1.
         12    1    4    4    0    0  0.54806272810E+01 -0.12755088985E+01  0.68008792819E+01  0.88270129348E+01  0.00000000000E+00 0. -1.
</event>
<event>
 8    1  0.2460897E-006  0.9118800E+02  0.7816164E-02  0.1184000E+00
        -11   -1    0    0    0    0  0.00000000000E+00  0.00000000000E+00  0.45593999997E+02  0.45594000000E+02  0.51100000000E-03 0. -1.
         11   -1    0    0    0    0 -0.00000000000E+00 -0.00000000000E+00 -0.45593999997E+02  0.45594000000E+02  0.51100000000E-03 0.  1.
         23    2    1    2    0    0  0.88817841970E-15  0.35527136788E-14 -0.35527136788E-14  0.91188000000E+02  0.91188000000E+02 0.  0.
    9900012    2    3    3    0    0  0.73968403694E+01  0.26314629152E+02 -0.24669939722E+02  0.54367097230E+02  0.40000029756E+02 0.  0.
         12    1    3    3    0    0 -0.73968403694E+01 -0.26314629152E+02  0.24669939722E+02  0.36820902770E+02  0.00000000000E+00 0. -1.
         11    1    4    4    0    0  0.72241618993E+01 -0.13134449223E+01 -0.21363063832E+02  0.22589691217E+02  0.51100000000E-03 0. -1.
        -11    1    4    4    0    0  0.15966276409E+01  0.13228884528E+02 -0.91592545408E+01  0.16169247035E+02  0.51100000000E-03 0.  1.
         12    1    4    4    0    0 -0.14239491707E+01  0.14399189546E+02  0.58523786505E+01  0.15608158979E+02  0.00000000000E+00 0. -1.
</event>
<event>
 8    1  0.2460897E-006  0.9118800E+02  0.7816164E-02  0.1184000E+00
        -11   -1    0    0    0    0  0.00000000000E+00  0.00000000000E+00  0.45593999997E+02  0.45594000000E+02  0.51100000000E-03 0. -1.
         11   -1    0    0    0    0 -0.00000000000E+00 -0.00000000000E+00 -0.45593999997E+02  0.45594000000E+02  0.51100000000E-03 0.  1.
         23    2    1    2    0    0  0.00000000000E+00  0.00000000000E+00 -0.35527136788E-14  0.91188000000E+02  0.91188000000E+02 0.  0.
    9900012    2    3    3    0    0 -0.18744924087E+02 -0.17387229029E+02  0.26497002822E+02  0.54367094649E+02  0.40000023872E+02 0.  0.
        -12    1    3    3    0    0  0.18744924087E+02  0.17387229029E+02 -0.26497002822E+02  0.36820905351E+02  0.00000000000E+00 0.  1.
         11    1    4    4    0    0 -0.16434467131E+02  0.30872420448E+01  0.16199524427E+02  0.23281910687E+02  0.51100000000E-03 0. -1.
        -11    1    4    4    0    0 -0.82400529046E+01 -0.78872543968E+01  0.12584407927E+02  0.16984539350E+02  0.51100000000E-03 0.  1.
        -12    1    4    4    0    0  0.59295959487E+01 -0.12587216677E+02 -0.22869295331E+01  0.14100644612E+02  0.00000000000E+00 0.  1.
</event>
<event>
 8    1  0.2460897E-006  0.9118800E+02  0.7816164E-02  0.1184000E+00
        -11   -1    0    0    0    0  0.00000000000E+00  0.00000000000E+00  0.45593999997E+02  0.45594000000E+02  0.51100000000E-03 0.  1.
         11   -1    0    0    0    0 -0.00000000000E+00 -0.00000000000E+00 -0.45593999997E+02  0.45594000000E+02  0.51100000000E-03 0. -1.
         23    2    1    2    0    0  0.88817841970E-15  0.00000000000E+00  0.00000000000E+00  0.91188000000E+02  0.91188000000E+02 0.  0.
    9900012    2    3    3    0    0 -0.23006397751E+01  0.36436461956E+02 -0.47821673135E+01  0.54367111533E+02  0.40000062362E+02 0.  0.
        -12    1    3    3    0    0  0.23006397751E+01 -0.36436461956E+02  0.47821673135E+01  0.36820888467E+02  0.00000000000E+00 0.  1.
         11    1    4    4    0    0 -0.48903792023E+01 -0.40376477808E+01 -0.13757023438E+01  0.64892962288E+01  0.51100000000E-03 0. -1.
        -11    1    4    4    0    0 -0.10827698725E+01  0.17457917382E+02  0.10823959134E+02  0.20569622298E+02  0.51100000000E-03 0.  1.
         12    1    4    4    0    0  0.36725092997E+01  0.23016192355E+02 -0.14230424104E+02  0.27308193006E+02  0.00000000000E+00 0. -1.
</event>
<event>
 8    1  0.2460897E-006  0.9118800E+02  0.7816164E-02  0.1184000E+00
        -11   -1    0    0    0    0  0.00000000000E+00  0.00000000000E+00  0.45593999997E+02  0.45594000000E+02  0.51100000000E-03 0. -1.
         11   -1    0    0    0    0 -0.00000000000E+00 -0.00000000000E+00 -0.45593999997E+02  0.45594000000E+02  0.51100000000E-03 0.  1.
         23    2    1    2    0    0  0.00000000000E+00  0.00000000000E+00  0.17763568394E-14  0.91188000000E+02  0.91188000000E+02 0.  0.
    9900012    2    3    3    0    0 -0.51730097202E+01 -0.35427316651E+02  0.85985838028E+01  0.54366940292E+02  0.39999671981E+02 0.  0.
         12    1    3    3    0    0  0.51730097202E+01  0.35427316651E+02 -0.85985838028E+01  0.36821059708E+02  0.00000000000E+00 0. -1.
         11    1    4    4    0    0 -0.78574885134E+01 -0.75192510510E+01  0.95006375722E+01  0.14440961763E+02  0.51100000000E-03 0. -1.
        -11    1    4    4    0    0 -0.43096289849E+01 -0.22837335657E+02  0.10597853135E+02  0.25542734647E+02  0.51100000000E-03 0.  1.
        -12    1    4    4    0    0  0.69941077782E+01 -0.50707299423E+01 -0.11499906904E+02  0.14383243882E+02  0.00000000000E+00 0.  1.
</event>
<event>
 8    1  0.2460897E-006  0.9118800E+02  0.7816164E-02  0.1184000E+00
        -11   -1    0    0    0    0  0.00000000000E+00  0.00000000000E+00  0.45593999997E+02  0.45594000000E+02  0.51100000000E-03 0. -1.
         11   -1    0    0    0    0 -0.00000000000E+00 -0.00000000000E+00 -0.45593999997E+02  0.45594000000E+02  0.51100000000E-03 0.  1.
         23    2    1    2    0    0  0.35527136788E-14 -0.35527136788E-14 -0.35527136788E-14  0.91188000000E+02  0.91188000000E+02 0.  0.
    9900012    2    3    3    0    0  0.61994241902E+01 -0.20944414064E+02 -0.29642484099E+02  0.54367106416E+02  0.40000050696E+02 0.  0.
         12    1    3    3    0    0 -0.61994241902E+01  0.20944414064E+02  0.29642484099E+02  0.36820893584E+02  0.00000000000E+00 0. -1.
         11    1    4    4    0    0 -0.95245283174E+01 -0.13392205892E+02 -0.32894131197E+01  0.16759715309E+02  0.51100000000E-03 0. -1.
        -11    1    4    4    0    0 -0.46719532724E+01 -0.94308702068E+00 -0.20206066100E+01  0.51768148355E+01  0.51100000000E-03 0.  1.
        -12    1    4    4    0    0  0.20395905780E+02 -0.66091211512E+01 -0.24332464369E+02  0.32430576271E+02  0.00000000000E+00 0.  1.
</event>
<event>
 8    1  0.2460897E-006  0.9118800E+02  0.7816164E-02  0.1184000E+00
        -11   -1    0    0    0    0  0.00000000000E+00  0.00000000000E+00  0.45593999997E+02  0.45594000000E+02  0.51100000000E-03 0.  1.
         11   -1    0    0    0    0 -0.00000000000E+00 -0.00000000000E+00 -0.45593999997E+02  0.45594000000E+02  0.51100000000E-03 0. -1.
         23    2    1    2    0    0  0.27755575616E-15  0.00000000000E+00  0.00000000000E+00  0.91188000000E+02  0.91188000000E+02 0.  0.
    9900012    2    3    3    0    0  0.30372738002E+00  0.25504718676E+02 -0.26555543804E+02  0.54367084316E+02  0.40000000316E+02 0.  0.
        -12    1    3    3    0    0 -0.30372738002E+00 -0.25504718676E+02  0.26555543804E+02  0.36820915684E+02  0.00000000000E+00 0.  1.
         11    1    4    4    0    0 -0.89325087822E+01  0.22240836821E+02 -0.20258985213E+02  0.31382654728E+02  0.51100000000E-03 0. -1.
        -11    1    4    4    0    0 -0.71639886851E+00 -0.58645867508E+01  0.29634159789E+01  0.66097231124E+01  0.51100000000E-03 0.  1.
         12    1    4    4    0    0  0.99526350307E+01  0.91284686050E+01 -0.92599745708E+01  0.16374706476E+02  0.00000000000E+00 0. -1.
</event>
<event>
 8    1  0.2460897E-006  0.9118800E+02  0.7816164E-02  0.1184000E+00
        -11   -1    0    0    0    0  0.00000000000E+00  0.00000000000E+00  0.45593999997E+02  0.45594000000E+02  0.51100000000E-03 0. -1.
         11   -1    0    0    0    0 -0.00000000000E+00 -0.00000000000E+00 -0.45593999997E+02  0.45594000000E+02  0.51100000000E-03 0.  1.
         23    2    1    2    0    0  0.00000000000E+00  0.88817841970E-15  0.00000000000E+00  0.91188000000E+02  0.91188000000E+02 0.  0.
    9900012    2    3    3    0    0 -0.35939440810E+02 -0.52417353717E+01  0.60549278997E+01  0.54367063737E+02  0.39999953400E+02 0.  0.
         12    1    3    3    0    0  0.35939440810E+02  0.52417353717E+01 -0.60549278997E+01  0.36820936263E+02  0.00000000000E+00 0. -1.
         11    1    4    4    0    0  0.40917053530E+01 -0.66414356930E+00 -0.88628337973E+01  0.97843222839E+01  0.51100000000E-03 0. -1.
        -11    1    4    4    0    0 -0.12131770183E+02 -0.48567055020E+01  0.26979818839E+00  0.13070586346E+02  0.51100000000E-03 0.  1.
         12    1    4    4    0    0 -0.27899375980E+02  0.27911369957E+00  0.14647963509E+02  0.31512155107E+02  0.00000000000E+00 0. -1.
</event>
<event>
 8    1  0.2460897E-006  0.9118800E+02  0.7816164E-02  0.1184000E+00
        -11   -1    0    0    0    0  0.00000000000E+00  0.00000000000E+00  0.45593999997E+02  0.45594000000E+02  0.51100000000E-03 0. -1.
         11   -1    0    0    0    0 -0.00000000000E+00 -0.00000000000E+00 -0.45593999997E+02  0.45594000000E+02  0.51100000000E-03 0.  1.
         23    2    1    2    0    0  0.00000000000E+00  0.00000000000E+00  0.00000000000E+00  0.91188000000E+02  0.91188000000E+02 0.  0.
    9900012    2    3    3    0    0  0.19097297394E+01  0.10345915359E+02 -0.35285912963E+02  0.54367072718E+02  0.39999973875E+02 0.  0.
         12    1    3    3    0    0 -0.19097297394E+01 -0.10345915359E+02  0.35285912963E+02  0.36820927282E+02  0.00000000000E+00 0. -1.
         11    1    4    4    0    0  0.73411640410E+00  0.18270089164E+02 -0.22176801731E+02  0.28742749003E+02  0.51100000000E-03 0. -1.
        -11    1    4    4    0    0  0.21144722269E+01 -0.77910096934E+01  0.36349335405E+01  0.88534494377E+01  0.51100000000E-03 0.  1.
        -12    1    4    4    0    0 -0.93885889162E+00 -0.13316411172E+00 -0.16744044772E+02  0.16770874277E+02  0.00000000000E+00 0.  1.
</event>
<event>
 8    1  0.2460897E-006  0.9118800E+02  0.7816164E-02  0.1184000E+00
        -11   -1    0    0    0    0  0.00000000000E+00  0.00000000000E+00  0.45593999997E+02  0.45594000000E+02  0.51100000000E-03 0.  1.
         11   -1    0    0    0    0 -0.00000000000E+00 -0.00000000000E+00 -0.45593999997E+02  0.45594000000E+02  0.51100000000E-03 0. -1.
         23    2    1    2    0    0  0.13322676296E-14  0.00000000000E+00 -0.17763568394E-14  0.91188000000E+02  0.91188000000E+02 0.  0.
    9900012    2    3    3    0    0 -0.50453683192E+00  0.33246057074E+02 -0.15818521742E+02  0.54367075263E+02  0.39999979678E+02 0.  0.
        -12    1    3    3    0    0  0.50453683192E+00 -0.33246057074E+02  0.15818521742E+02  0.36820924737E+02  0.00000000000E+00 0.  1.
         11    1    4    4    0    0  0.19113062359E+01  0.94442968451E+00 -0.54633733579E+01  0.58645961212E+01  0.51100000000E-03 0. -1.
        -11    1    4    4    0    0 -0.15851491182E+02  0.95354865389E+01 -0.11944460606E+02  0.22019659753E+02  0.51100000000E-03 0.  1.
        -12    1    4    4    0    0  0.13435648114E+02  0.22766140850E+02  0.15893122215E+01  0.26482819389E+02  0.00000000000E+00 0.  1.
</event>
<event>
 8    1  0.2460897E-006  0.9118800E+02  0.7816164E-02  0.1184000E+00
        -11   -1    0    0    0    0  0.00000000000E+00  0.00000000000E+00  0.45593999997E+02  0.45594000000E+02  0.51100000000E-03 0.  1.
         11   -1    0    0    0    0 -0.00000000000E+00 -0.00000000000E+00 -0.45593999997E+02  0.45594000000E+02  0.51100000000E-03 0. -1.
         23    2    1    2    0    0  0.17763568394E-14  0.00000000000E+00  0.00000000000E+00  0.91188000000E+02  0.91188000000E+02 0.  0.
    9900012    2    3    3    0    0 -0.14971856421E+02  0.10596086606E+01  0.33622926982E+02  0.54367075595E+02  0.39999980433E+02 0.  0.
         12    1    3    3    0    0  0.14971856421E+02 -0.10596086606E+01 -0.33622926982E+02  0.36820924405E+02  0.00000000000E+00 0. -1.
         11    1    4    4    0    0  0.38702391439E+01  0.93349842308E+01  0.10384401812E+02  0.14489875185E+02  0.51100000000E-03 0. -1.
        -11    1    4    4    0    0 -0.65908384507E+01  0.17215675755E+01 -0.43471969169E+01  0.80809076035E+01  0.51100000000E-03 0.  1.
        -12    1    4    4    0    0 -0.12251257114E+02 -0.99969431457E+01  0.27585722087E+02  0.31796292806E+02  0.00000000000E+00 0.  1.
</event>
<event>
 8    1  0.2460897E-006  0.9118800E+02  0.7816164E-02  0.1184000E+00
        -11   -1    0    0    0    0  0.00000000000E+00  0.00000000000E+00  0.45593999997E+02  0.45594000000E+02  0.51100000000E-03 0.  1.
         11   -1    0    0    0    0 -0.00000000000E+00 -0.00000000000E+00 -0.45593999997E+02  0.45594000000E+02  0.51100000000E-03 0. -1.
         23    2    1    2    0    0 -0.11102230246E-15  0.00000000000E+00 -0.11657341759E-14  0.91188000000E+02  0.91188000000E+02 0.  0.
    9900012    2    3    3    0    0 -0.51325594019E+00 -0.36814752585E+02  0.43727419024E+00  0.54367073229E+02  0.39999975040E+02 0.  0.
        -12    1    3    3    0    0  0.51325594019E+00  0.36814752585E+02 -0.43727419024E+00  0.36820926771E+02  0.00000000000E+00 0.  1.
         11    1    4    4    0    0 -0.54620212181E+01 -0.16990273904E+02 -0.49022247401E+01  0.18507698149E+02  0.51100000000E-03 0. -1.
        -11    1    4    4    0    0  0.14035182055E+00 -0.23642331783E+02  0.12239656830E+02  0.26623086793E+02  0.51100000000E-03 0.  1.
        -12    1    4    4    0    0  0.48084134573E+01  0.38178531015E+01 -0.69001579000E+01  0.92362882873E+01  0.00000000000E+00 0.  1.
</event>
<event>
 8    1  0.2460897E-006  0.9118800E+02  0.7816164E-02  0.1184000E+00
        -11   -1    0    0    0    0  0.00000000000E+00  0.00000000000E+00  0.45593999997E+02  0.45594000000E+02  0.51100000000E-03 0. -1.
         11   -1    0    0    0    0 -0.00000000000E+00 -0.00000000000E+00 -0.45593999997E+02  0.45594000000E+02  0.51100000000E-03 0.  1.
         23    2    1    2    0    0  0.00000000000E+00  0.00000000000E+00  0.00000000000E+00  0.91188000000E+02  0.91188000000E+02 0.  0.
    9900012    2    3    3    0    0 -0.13657188492E+02 -0.33541713244E+02  0.66493821805E+01  0.54367087352E+02  0.40000007237E+02 0.  0.
        -12    1    3    3    0    0  0.13657188492E+02  0.33541713244E+02 -0.66493821805E+01  0.36820912648E+02  0.00000000000E+00 0.  1.
         11    1    4    4    0    0 -0.12604702048E+02 -0.77014722356E+01  0.37771848560E+01  0.15246583683E+02  0.51100000000E-03 0.  1.
        -11    1    4    4    0    0  0.63007945591E+01 -0.18378434937E+02 -0.10538766171E+02  0.22102770764E+02  0.51100000000E-03 0. -1.
         12    1    4    4    0    0 -0.73532810026E+01 -0.74618060715E+01  0.13410963495E+02  0.17017732905E+02  0.00000000000E+00 0. -1.
</event>
<event>
 8    1  0.2460897E-006  0.9118800E+02  0.7816164E-02  0.1184000E+00
        -11   -1    0    0    0    0  0.00000000000E+00  0.00000000000E+00  0.45593999997E+02  0.45594000000E+02  0.51100000000E-03 0. -1.
         11   -1    0    0    0    0 -0.00000000000E+00 -0.00000000000E+00 -0.45593999997E+02  0.45594000000E+02  0.51100000000E-03 0.  1.
         23    2    1    2    0    0  0.35527136788E-14 -0.11102230246E-15  0.00000000000E+00  0.91188000000E+02  0.91188000000E+02 0.  0.
    9900012    2    3    3    0    0  0.27017456296E+02  0.57331907789E+00 -0.25010188032E+02  0.54367066486E+02  0.39999959667E+02 0.  0.
         12    1    3    3    0    0 -0.27017456296E+02 -0.57331907789E+00  0.25010188032E+02  0.36820933514E+02  0.00000000000E+00 0. -1.
         11    1    4    4    0    0  0.11431597427E+02  0.39416358572E+01  0.20246145147E+01  0.12260382423E+02  0.51100000000E-03 0. -1.
        -11    1    4    4    0    0  0.23388960082E+02  0.36383460254E+00 -0.21924026708E+02  0.32059924777E+02  0.51100000000E-03 0.  1.
         12    1    4    4    0    0 -0.78031012130E+01 -0.37321513818E+01 -0.51107758387E+01  0.10046759286E+02  0.00000000000E+00 0. -1.
</event>
<event>
 8    1  0.2460897E-006  0.9118800E+02  0.7816164E-02  0.1184000E+00
        -11   -1    0    0    0    0  0.00000000000E+00  0.00000000000E+00  0.45593999997E+02  0.45594000000E+02  0.51100000000E-03 0. -1.
         11   -1    0    0    0    0 -0.00000000000E+00 -0.00000000000E+00 -0.45593999997E+02  0.45594000000E+02  0.51100000000E-03 0.  1.
         23    2    1    2    0    0 -0.35527136788E-14  0.00000000000E+00  0.35527136788E-14  0.91188000000E+02  0.91188000000E+02 0.  0.
    9900012    2    3    3    0    0 -0.21386738946E+02 -0.28874489920E+02 -0.80405804460E+01  0.54367086041E+02  0.40000004247E+02 0.  0.
        -12    1    3    3    0    0  0.21386738946E+02  0.28874489920E+02  0.80405804460E+01  0.36820913959E+02  0.00000000000E+00 0.  1.
         11    1    4    4    0    0  0.27619923888E+01 -0.10617923775E+02  0.83214924401E+01  0.13770117790E+02  0.51100000000E-03 0. -1.
        -11    1    4    4    0    0 -0.87497079667E+01  0.29424612188E+01  0.81445485360E+00  0.92670817681E+01  0.51100000000E-03 0.  1.
         12    1    4    4    0    0 -0.15399023368E+02 -0.21199027364E+02 -0.17176527740E+02  0.31329886483E+02  0.00000000000E+00 0. -1.
</event>
<event>
 8    1  0.2460897E-006  0.9118800E+02  0.7816164E-02  0.1184000E+00
        -11   -1    0    0    0    0  0.00000000000E+00  0.00000000000E+00  0.45593999997E+02  0.45594000000E+02  0.51100000000E-03 0. -1.
         11   -1    0    0    0    0 -0.00000000000E+00 -0.00000000000E+00 -0.45593999997E+02  0.45594000000E+02  0.51100000000E-03 0.  1.
         23    2    1    2    0    0  0.17763568394E-14 -0.44408920985E-14  0.00000000000E+00  0.91188000000E+02  0.91188000000E+02 0.  0.
    9900012    2    3    3    0    0 -0.78206037317E+00  0.87596544382E+00  0.36802175192E+02  0.54367095166E+02  0.40000025050E+02 0.  0.
        -12    1    3    3    0    0  0.78206037317E+00 -0.87596544382E+00 -0.36802175192E+02  0.36820904834E+02  0.00000000000E+00 0.  1.
         11    1    4    4    0    0 -0.26949479967E+01  0.97748442466E+01  0.14259573687E+02  0.17497021654E+02  0.51100000000E-03 0. -1.
        -11    1    4    4    0    0  0.87477658334E+01 -0.16485453918E+02  0.17034305150E+02  0.25267788787E+02  0.51100000000E-03 0.  1.
        -12    1    4    4    0    0 -0.68348782099E+01  0.75865751152E+01  0.55082963550E+01  0.11602284726E+02  0.00000000000E+00 0.  1.
</event>
<event>
 8    1  0.2460897E-006  0.9118800E+02  0.7816164E-02  0.1184000E+00
        -11   -1    0    0    0    0  0.00000000000E+00  0.00000000000E+00  0.45593999997E+02  0.45594000000E+02  0.51100000000E-03 0. -1.
         11   -1    0    0    0    0 -0.00000000000E+00 -0.00000000000E+00 -0.45593999997E+02  0.45594000000E+02  0.51100000000E-03 0.  1.
         23    2    1    2    0    0 -0.35527136788E-14  0.00000000000E+00  0.00000000000E+00  0.91188000000E+02  0.91188000000E+02 0.  0.
    9900012    2    3    3    0    0  0.26233525663E+02  0.97891750506E+01 -0.23911370185E+02  0.54367089622E+02  0.40000012412E+02 0.  0.
         12    1    3    3    0    0 -0.26233525663E+02 -0.97891750506E+01  0.23911370185E+02  0.36820910378E+02  0.00000000000E+00 0. -1.
         11    1    4    4    0    0  0.43170205876E+01  0.37372343956E+01  0.93744826778E+01  0.10976543783E+02  0.51100000000E-03 0. -1.
        -11    1    4    4    0    0  0.59222650128E+01  0.62065431114E+01 -0.29065310734E+01  0.90577217564E+01  0.51100000000E-03 0.  1.
        -12    1    4    4    0    0  0.15994240063E+02 -0.15460245647E+00 -0.30379321790E+02  0.34332824083E+02  0.00000000000E+00 0.  1.
</event>
<event>
 8    1  0.2460897E-006  0.9118800E+02  0.7816164E-02  0.1184000E+00
        -11   -1    0    0    0    0  0.00000000000E+00  0.00000000000E+00  0.45593999997E+02  0.45594000000E+02  0.51100000000E-03 0.  1.
         11   -1    0    0    0    0 -0.00000000000E+00 -0.00000000000E+00 -0.45593999997E+02  0.45594000000E+02  0.51100000000E-03 0. -1.
         23    2    1    2    0    0  0.00000000000E+00  0.00000000000E+00  0.00000000000E+00  0.91188000000E+02  0.91188000000E+02 0.  0.
    9900012    2    3    3    0    0 -0.60537980889E+01  0.11917276809E+02 -0.34309035211E+02  0.54367084002E+02  0.39999999599E+02 0.  0.
        -12    1    3    3    0    0  0.60537980889E+01 -0.11917276809E+02  0.34309035211E+02  0.36820915998E+02  0.00000000000E+00 0.  1.
         11    1    4    4    0    0  0.11360607491E+01 -0.18650363205E+01 -0.19109425441E+02  0.19233801898E+02  0.51100000000E-03 0. -1.
        -11    1    4    4    0    0  0.15928313803E+01  0.15565689794E+02 -0.19656890282E+02  0.25124114838E+02  0.51100000000E-03 0.  1.
        -12    1    4    4    0    0 -0.87826902182E+01 -0.17833766645E+01  0.44572805119E+01  0.10009167266E+02  0.00000000000E+00 0.  1.
</event>
<event>
 8    1  0.2460897E-006  0.9118800E+02  0.7816164E-02  0.1184000E+00
        -11   -1    0    0    0    0  0.00000000000E+00  0.00000000000E+00  0.45593999997E+02  0.45594000000E+02  0.51100000000E-03 0. -1.
         11   -1    0    0    0    0 -0.00000000000E+00 -0.00000000000E+00 -0.45593999997E+02  0.45594000000E+02  0.51100000000E-03 0.  1.
         23    2    1    2    0    0  0.71054273576E-14  0.00000000000E+00  0.00000000000E+00  0.91188000000E+02  0.91188000000E+02 0.  0.
    9900012    2    3    3    0    0 -0.33508424669E+02  0.85140634339E+01  0.12667936765E+02  0.54367076304E+02  0.39999982050E+02 0.  0.
         12    1    3    3    0    0  0.33508424669E+02 -0.85140634339E+01 -0.12667936765E+02  0.36820923696E+02  0.00000000000E+00 0. -1.
         11    1    4    4    0    0 -0.16144671509E+01 -0.49119087598E+01 -0.35561057322E+00  0.51826451728E+01  0.51100000000E-03 0. -1.
        -11    1    4    4    0    0 -0.33170540441E+01  0.62460883116E+01 -0.96791696809E+01  0.11987609966E+02  0.51100000000E-03 0.  1.
         12    1    4    4    0    0 -0.28576903474E+02  0.71798838821E+01  0.22702717019E+02  0.37196821165E+02  0.00000000000E+00 0. -1.
</event>
<event>
 8    1  0.2460897E-006  0.9118800E+02  0.7816164E-02  0.1184000E+00
        -11   -1    0    0    0    0  0.00000000000E+00  0.00000000000E+00  0.45593999997E+02  0.45594000000E+02  0.51100000000E-03 0. -1.
         11   -1    0    0    0    0 -0.00000000000E+00 -0.00000000000E+00 -0.45593999997E+02  0.45594000000E+02  0.51100000000E-03 0.  1.
         23    2    1    2    0    0  0.35527136788E-14 -0.71054273576E-14  0.00000000000E+00  0.91188000000E+02  0.91188000000E+02 0.  0.
    9900012    2    3    3    0    0 -0.20629942941E+02  0.28287430306E+02  0.11402029343E+02  0.54367088384E+02  0.40000009590E+02 0.  0.
        -12    1    3    3    0    0  0.20629942941E+02 -0.28287430306E+02 -0.11402029343E+02  0.36820911616E+02  0.00000000000E+00 0.  1.
         11    1    4    4    0    0 -0.23567080142E+01 -0.16133993527E+01 -0.43805849984E+01  0.52294029607E+01  0.51100000000E-03 0. -1.
        -11    1    4    4    0    0  0.42789550124E+01  0.20922516431E+02  0.12217997771E+02  0.24603670857E+02  0.51100000000E-03 0.  1.
         12    1    4    4    0    0 -0.22552189940E+02  0.89783132272E+01  0.35646165699E+01  0.24534014567E+02  0.00000000000E+00 0. -1.
</event>
<event>
 8    1  0.2460897E-006  0.9118800E+02  0.7816164E-02  0.1184000E+00
        -11   -1    0    0    0    0  0.00000000000E+00  0.00000000000E+00  0.45593999997E+02  0.45594000000E+02  0.51100000000E-03 0.  1.
         11   -1    0    0    0    0 -0.00000000000E+00 -0.00000000000E+00 -0.45593999997E+02  0.45594000000E+02  0.51100000000E-03 0. -1.
         23    2    1    2    0    0 -0.10658141036E-13  0.35527136788E-14  0.17763568394E-14  0.91188000000E+02  0.91188000000E+02 0.  0.
    9900012    2    3    3    0    0  0.28153637631E+02 -0.20695951057E+02 -0.11612062329E+02  0.54366950401E+02  0.39999695029E+02 0.  0.
        -12    1    3    3    0    0 -0.28153637631E+02  0.20695951057E+02  0.11612062329E+02  0.36821049599E+02  0.00000000000E+00 0.  1.
         11    1    4    4    0    0  0.77982005153E+01 -0.11972975484E+02 -0.51719414733E+01  0.15195823508E+02  0.51100000000E-03 0. -1.
        -11    1    4    4    0    0 -0.58259781056E+01  0.44921911808E+01  0.35766539662E+01  0.81801134678E+01  0.51100000000E-03 0.  1.
        -12    1    4    4    0    0  0.26181415221E+02 -0.13215166754E+02 -0.10016774822E+02  0.30991013426E+02  0.00000000000E+00 0.  1.
</event>
<event>
 8    1  0.2460897E-006  0.9118800E+02  0.7816164E-02  0.1184000E+00
        -11   -1    0    0    0    0  0.00000000000E+00  0.00000000000E+00  0.45593999997E+02  0.45594000000E+02  0.51100000000E-03 0.  1.
         11   -1    0    0    0    0 -0.00000000000E+00 -0.00000000000E+00 -0.45593999997E+02  0.45594000000E+02  0.51100000000E-03 0. -1.
         23    2    1    2    0    0  0.00000000000E+00  0.00000000000E+00 -0.35527136788E-14  0.91188000000E+02  0.91188000000E+02 0.  0.
    9900012    2    3    3    0    0 -0.81989473389E+01  0.19170659948E+02 -0.30348705406E+02  0.54367070352E+02  0.39999968482E+02 0.  0.
        -12    1    3    3    0    0  0.81989473389E+01 -0.19170659948E+02  0.30348705406E+02  0.36820929648E+02  0.00000000000E+00 0.  1.
         11    1    4    4    0    0 -0.52779773253E+01  0.17614873921E+02 -0.25632891813E+02  0.31546568290E+02  0.51100000000E-03 0. -1.
        -11    1    4    4    0    0  0.16563889733E+01  0.92941254958E+01  0.40418108682E+01  0.10269402539E+02  0.51100000000E-03 0.  1.
        -12    1    4    4    0    0 -0.45773589869E+01 -0.77383394693E+01 -0.87576244609E+01  0.12551099523E+02  0.00000000000E+00 0.  1.
</event>
<event>
 8    1  0.2460897E-006  0.9118800E+02  0.7816164E-02  0.1184000E+00
        -11   -1    0    0    0    0  0.00000000000E+00  0.00000000000E+00  0.45593999997E+02  0.45594000000E+02  0.51100000000E-03 0.  1.
         11   -1    0    0    0    0 -0.00000000000E+00 -0.00000000000E+00 -0.45593999997E+02  0.45594000000E+02  0.51100000000E-03 0. -1.
         23    2    1    2    0    0 -0.35527136788E-14 -0.17763568394E-14 -0.35527136788E-14  0.91188000000E+02  0.91188000000E+02 0.  0.
    9900012    2    3    3    0    0  0.19587865827E+02 -0.15878033355E+02 -0.26832501477E+02  0.54367087920E+02  0.40000008532E+02 0.  0.
        -12    1    3    3    0    0 -0.19587865827E+02  0.15878033355E+02  0.26832501477E+02  0.36820912080E+02  0.00000000000E+00 0.  1.
         11    1    4    4    0    0  0.25477081397E+01 -0.12642546640E+02  0.25430091646E+01  0.13145025606E+02  0.51100000000E-03 0.  1.
        -11    1    4    4    0    0  0.17208665913E+02 -0.85433017645E+01 -0.11095706235E+02  0.22186502308E+02  0.51100000000E-03 0. -1.
         12    1    4    4    0    0 -0.16850822533E+00  0.53078150494E+01 -0.18279804407E+02  0.19035560007E+02  0.00000000000E+00 0. -1.
</event>
<event>
 8    1  0.2460897E-006  0.9118800E+02  0.7816164E-02  0.1184000E+00
        -11   -1    0    0    0    0  0.00000000000E+00  0.00000000000E+00  0.45593999997E+02  0.45594000000E+02  0.51100000000E-03 0.  1.
         11   -1    0    0    0    0 -0.00000000000E+00 -0.00000000000E+00 -0.45593999997E+02  0.45594000000E+02  0.51100000000E-03 0. -1.
         23    2    1    2    0    0 -0.35527136788E-14 -0.35527136788E-14  0.00000000000E+00  0.91188000000E+02  0.91188000000E+02 0.  0.
    9900012    2    3    3    0    0  0.18308909542E+02  0.26382802168E+02 -0.18014201497E+02  0.54367083737E+02  0.39999998996E+02 0.  0.
         12    1    3    3    0    0 -0.18308909542E+02 -0.26382802168E+02  0.18014201497E+02  0.36820916263E+02  0.00000000000E+00 0. -1.
         11    1    4    4    0    0 -0.89672596114E+01  0.77443088772E+01 -0.55014768477E+01  0.13063395910E+02  0.51100000000E-03 0. -1.
        -11    1    4    4    0    0  0.16098829141E+02  0.21485327360E+02 -0.12850574733E+02  0.29764557156E+02  0.51100000000E-03 0.  1.
         12    1    4    4    0    0  0.11177340012E+02 -0.28468340695E+01  0.33785008357E+00  0.11539130671E+02  0.00000000000E+00 0. -1.
</event>
<event>
 8    1  0.2460897E-006  0.9118800E+02  0.7816164E-02  0.1184000E+00
        -11   -1    0    0    0    0  0.00000000000E+00  0.00000000000E+00  0.45593999997E+02  0.45594000000E+02  0.51100000000E-03 0.  1.
         11   -1    0    0    0    0 -0.00000000000E+00 -0.00000000000E+00 -0.45593999997E+02  0.45594000000E+02  0.51100000000E-03 0. -1.
         23    2    1    2    0    0 -0.71054273576E-14  0.00000000000E+00 -0.35527136788E-14  0.91188000000E+02  0.91188000000E+02 0.  0.
    9900012    2    3    3    0    0  0.21995632077E+02  0.13623080744E+02  0.26198940324E+02  0.54367073429E+02  0.39999975497E+02 0.  0.
         12    1    3    3    0    0 -0.21995632077E+02 -0.13623080744E+02 -0.26198940324E+02  0.36820926571E+02  0.00000000000E+00 0. -1.
         11    1    4    4    0    0 -0.10830951272E+01  0.26627365468E+01 -0.28569809236E+01  0.40528510004E+01  0.51100000000E-03 0. -1.
        -11    1    4    4    0    0  0.95816101285E+01  0.41575707124E+01  0.33066283622E+02  0.34676674577E+02  0.51100000000E-03 0.  1.
         12    1    4    4    0    0  0.13497117076E+02  0.68027734848E+01 -0.40103623750E+01  0.15637547852E+02  0.00000000000E+00 0. -1.
</event>
<event>
 8    1  0.2460897E-006  0.9118800E+02  0.7816164E-02  0.1184000E+00
        -11   -1    0    0    0    0  0.00000000000E+00  0.00000000000E+00  0.45593999997E+02  0.45594000000E+02  0.51100000000E-03 0. -1.
         11   -1    0    0    0    0 -0.00000000000E+00 -0.00000000000E+00 -0.45593999997E+02  0.45594000000E+02  0.51100000000E-03 0.  1.
         23    2    1    2    0    0  0.00000000000E+00  0.17763568394E-14  0.44408920985E-15  0.91188000000E+02  0.91188000000E+02 0.  0.
    9900012    2    3    3    0    0 -0.35842946032E+02 -0.82018818516E+01  0.19471812427E+01  0.54367093426E+02  0.40000021082E+02 0.  0.
        -12    1    3    3    0    0  0.35842946032E+02  0.82018818516E+01 -0.19471812427E+01  0.36820906574E+02  0.00000000000E+00 0.  1.
         11    1    4    4    0    0 -0.39599345391E+01  0.40004432054E+01  0.33295244398E+01  0.65399052477E+01  0.51100000000E-03 0. -1.
        -11    1    4    4    0    0  0.21027913417E+01  0.63651997316E+01 -0.57798491733E+01  0.88512234057E+01  0.51100000000E-03 0.  1.
        -12    1    4    4    0    0 -0.33985802835E+02 -0.18567524789E+02  0.43975059763E+01  0.38975964772E+02  0.00000000000E+00 0.  1.
</event>
<event>
 8    1  0.2460897E-006  0.9118800E+02  0.7816164E-02  0.1184000E+00
        -11   -1    0    0    0    0  0.00000000000E+00  0.00000000000E+00  0.45593999997E+02  0.45594000000E+02  0.51100000000E-03 0.  1.
         11   -1    0    0    0    0 -0.00000000000E+00 -0.00000000000E+00 -0.45593999997E+02  0.45594000000E+02  0.51100000000E-03 0. -1.
         23    2    1    2    0    0  0.00000000000E+00 -0.17763568394E-14  0.17763568394E-14  0.91188000000E+02  0.91188000000E+02 0.  0.
    9900012    2    3    3    0    0 -0.32451321564E+02 -0.14146072972E+02  0.10128196001E+02  0.54367081950E+02  0.39999994921E+02 0.  0.
         12    1    3    3    0    0  0.32451321564E+02  0.14146072972E+02 -0.10128196001E+02  0.36820918050E+02  0.00000000000E+00 0. -1.
         11    1    4    4    0    0 -0.66735798347E+01  0.67913300808E+01  0.76947438356E+00  0.95525349078E+01  0.51100000000E-03 0. -1.
        -11    1    4    4    0    0  0.48179381361E+01 -0.10079524242E+02  0.42347036150E+01  0.11947470518E+02  0.51100000000E-03 0.  1.
        -12    1    4    4    0    0 -0.30595679866E+02 -0.10857878811E+02  0.51240180029E+01  0.32867076524E+02  0.00000000000E+00 0.  1.
</event>
<event>
 8    1  0.2460897E-006  0.9118800E+02  0.7816164E-02  0.1184000E+00
        -11   -1    0    0    0    0  0.00000000000E+00  0.00000000000E+00  0.45593999997E+02  0.45594000000E+02  0.51100000000E-03 0.  1.
         11   -1    0    0    0    0 -0.00000000000E+00 -0.00000000000E+00 -0.45593999997E+02  0.45594000000E+02  0.51100000000E-03 0. -1.
         23    2    1    2    0    0  0.00000000000E+00  0.66613381478E-15 -0.35527136788E-14  0.91188000000E+02  0.91188000000E+02 0.  0.
    9900012    2    3    3    0    0 -0.35439702419E+02 -0.19479601935E+01  0.97985527946E+01  0.54367099776E+02  0.40000035559E+02 0.  0.
         12    1    3    3    0    0  0.35439702419E+02  0.19479601935E+01 -0.97985527946E+01  0.36820900224E+02  0.00000000000E+00 0. -1.
         11    1    4    4    0    0 -0.44363689964E+01 -0.66833856217E+01 -0.72969201388E+01  0.10844079353E+02  0.51100000000E-03 0. -1.
        -11    1    4    4    0    0 -0.34502765677E+02  0.31476881207E+01  0.11060985883E+02  0.36368862903E+02  0.51100000000E-03 0.  1.
         12    1    4    4    0    0  0.34994322549E+01  0.15877373075E+01  0.60344870505E+01  0.71541575204E+01  0.00000000000E+00 0. -1.
</event>
<event>
 8    1  0.2460897E-006  0.9118800E+02  0.7816164E-02  0.1184000E+00
        -11   -1    0    0    0    0  0.00000000000E+00  0.00000000000E+00  0.45593999997E+02  0.45594000000E+02  0.51100000000E-03 0.  1.
         11   -1    0    0    0    0 -0.00000000000E+00 -0.00000000000E+00 -0.45593999997E+02  0.45594000000E+02  0.51100000000E-03 0. -1.
         23    2    1    2    0    0  0.00000000000E+00  0.35527136788E-14  0.35527136788E-14  0.91188000000E+02  0.91188000000E+02 0.  0.
    9900012    2    3    3    0    0 -0.16125555284E+02  0.28047623746E+02 -0.17580645575E+02  0.54367057184E+02  0.39999938463E+02 0.  0.
         12    1    3    3    0    0  0.16125555284E+02 -0.28047623746E+02  0.17580645575E+02  0.36820942816E+02  0.00000000000E+00 0. -1.
         11    1    4    4    0    0 -0.14562352284E+02  0.17102609374E+02 -0.14577185811E+02  0.26777895696E+02  0.51100000000E-03 0. -1.
        -11    1    4    4    0    0 -0.11544832723E+02  0.89008788542E+01 -0.75674924274E+01  0.16424851564E+02  0.51100000000E-03 0.  1.
        -12    1    4    4    0    0  0.99816297231E+01  0.20441355169E+01  0.45640326638E+01  0.11164309925E+02  0.00000000000E+00 0.  1.
</event>
<event>
 8    1  0.2460897E-006  0.9118800E+02  0.7816164E-02  0.1184000E+00
        -11   -1    0    0    0    0  0.00000000000E+00  0.00000000000E+00  0.45593999997E+02  0.45594000000E+02  0.51100000000E-03 0. -1.
         11   -1    0    0    0    0 -0.00000000000E+00 -0.00000000000E+00 -0.45593999997E+02  0.45594000000E+02  0.51100000000E-03 0.  1.
         23    2    1    2    0    0  0.88817841970E-15 -0.17763568394E-14  0.71054273576E-14  0.91188000000E+02  0.91188000000E+02 0.  0.
    9900012    2    3    3    0    0 -0.67570832943E+01 -0.10363850406E+02 -0.34680167023E+02  0.54367060921E+02  0.39999946983E+02 0.  0.
         12    1    3    3    0    0  0.67570832943E+01  0.10363850406E+02  0.34680167023E+02  0.36820939079E+02  0.00000000000E+00 0. -1.
         11    1    4    4    0    0 -0.22839212158E+01 -0.97176337001E+01  0.47182356769E+01  0.11041306490E+02  0.51100000000E-03 0. -1.
        -11    1    4    4    0    0  0.34557212663E+01 -0.24990522330E+01 -0.32127850742E+02  0.32409660058E+02  0.51100000000E-03 0.  1.
         12    1    4    4    0    0 -0.79288833448E+01  0.18528355270E+01 -0.72705519576E+01  0.10916094373E+02  0.00000000000E+00 0. -1.
</event>
<event>
 8    1  0.2460897E-006  0.9118800E+02  0.7816164E-02  0.1184000E+00
        -11   -1    0    0    0    0  0.00000000000E+00  0.00000000000E+00  0.45593999997E+02  0.45594000000E+02  0.51100000000E-03 0.  1.
         11   -1    0    0    0    0 -0.00000000000E+00 -0.00000000000E+00 -0.45593999997E+02  0.45594000000E+02  0.51100000000E-03 0. -1.
         23    2    1    2    0    0  0.17763568394E-14  0.00000000000E+00  0.00000000000E+00  0.91188000000E+02  0.91188000000E+02 0.  0.
    9900012    2    3    3    0    0 -0.10601241330E+02  0.11823862155E+02  0.33220305134E+02  0.54367099587E+02  0.40000035129E+02 0.  0.
         12    1    3    3    0    0  0.10601241330E+02 -0.11823862155E+02 -0.33220305134E+02  0.36820900413E+02  0.00000000000E+00 0. -1.
         11    1    4    4    0    0  0.60417877984E+01  0.34680346527E+01  0.18366152794E+01  0.72044167078E+01  0.51100000000E-03 0. -1.
        -11    1    4    4    0    0 -0.51195544299E+00  0.26782945292E+01  0.29870625615E+02  0.29994826802E+02  0.51100000000E-03 0.  1.
         12    1    4    4    0    0 -0.16131073686E+02  0.56775329727E+01  0.15130642399E+01  0.17167856078E+02  0.00000000000E+00 0. -1.
</event>
<event>
 8    1  0.2460897E-006  0.9118800E+02  0.7816164E-02  0.1184000E+00
        -11   -1    0    0    0    0  0.00000000000E+00  0.00000000000E+00  0.45593999997E+02  0.45594000000E+02  0.51100000000E-03 0.  1.
         11   -1    0    0    0    0 -0.00000000000E+00 -0.00000000000E+00 -0.45593999997E+02  0.45594000000E+02  0.51100000000E-03 0. -1.
         23    2    1    2    0    0  0.00000000000E+00  0.00000000000E+00 -0.17763568394E-14  0.91188000000E+02  0.91188000000E+02 0.  0.
    9900012    2    3    3    0    0  0.32561011407E+02 -0.16424498533E+02 -0.50786461064E+01  0.54367132788E+02  0.40000110818E+02 0.  0.
        -12    1    3    3    0    0 -0.32561011407E+02  0.16424498533E+02  0.50786461064E+01  0.36820867212E+02  0.00000000000E+00 0.  1.
         11    1    4    4    0    0  0.79445111032E+01 -0.55186280712E+01 -0.15103118354E+02  0.17935291933E+02  0.51100000000E-03 0. -1.
        -11    1    4    4    0    0  0.20376695008E+02 -0.52629424651E+01 -0.33488753705E+01  0.21310167277E+02  0.51100000000E-03 0.  1.
        -12    1    4    4    0    0  0.42398052960E+01 -0.56429279967E+01  0.13373347618E+02  0.15121673579E+02  0.00000000000E+00 0.  1.
</event>
<event>
 8    1  0.2460897E-006  0.9118800E+02  0.7816164E-02  0.1184000E+00
        -11   -1    0    0    0    0  0.00000000000E+00  0.00000000000E+00  0.45593999997E+02  0.45594000000E+02  0.51100000000E-03 0.  1.
         11   -1    0    0    0    0 -0.00000000000E+00 -0.00000000000E+00 -0.45593999997E+02  0.45594000000E+02  0.51100000000E-03 0. -1.
         23    2    1    2    0    0  0.00000000000E+00  0.88817841970E-15 -0.13322676296E-14  0.91188000000E+02  0.91188000000E+02 0.  0.
    9900012    2    3    3    0    0 -0.36307987069E+02  0.55080562073E+01  0.26779770273E+01  0.54367079735E+02  0.39999989871E+02 0.  0.
         12    1    3    3    0    0  0.36307987069E+02 -0.55080562073E+01 -0.26779770273E+01  0.36820920265E+02  0.00000000000E+00 0. -1.
         11    1    4    4    0    0 -0.12635229212E+02 -0.61047028666E+01 -0.14259905616E+02  0.20006532002E+02  0.51100000000E-03 0. -1.
        -11    1    4    4    0    0 -0.22322251534E+02  0.47085223797E+01  0.13751469948E+02  0.26637492798E+02  0.51100000000E-03 0.  1.
        -12    1    4    4    0    0 -0.13505063233E+01  0.69042366943E+01  0.31864126955E+01  0.77230549348E+01  0.00000000000E+00 0.  1.
</event>
<event>
 8    1  0.2460897E-006  0.9118800E+02  0.7816164E-02  0.1184000E+00
        -11   -1    0    0    0    0  0.00000000000E+00  0.00000000000E+00  0.45593999997E+02  0.45594000000E+02  0.51100000000E-03 0.  1.
         11   -1    0    0    0    0 -0.00000000000E+00 -0.00000000000E+00 -0.45593999997E+02  0.45594000000E+02  0.51100000000E-03 0. -1.
         23    2    1    2    0    0  0.35527136788E-14  0.00000000000E+00 -0.35527136788E-14  0.91188000000E+02  0.91188000000E+02 0.  0.
    9900012    2    3    3    0    0 -0.19598854542E+02 -0.20186022341E+02  0.23752652202E+02  0.54367094471E+02  0.40000023467E+02 0.  0.
         12    1    3    3    0    0  0.19598854542E+02  0.20186022341E+02 -0.23752652202E+02  0.36820905529E+02  0.00000000000E+00 0. -1.
         11    1    4    4    0    0  0.27604617442E+01 -0.21265170390E+02  0.18438775952E+02  0.28281019777E+02  0.51100000000E-03 0. -1.
        -11    1    4    4    0    0 -0.47937160986E+01  0.10913387251E+01  0.68741483111E+01  0.84513105203E+01  0.51100000000E-03 0.  1.
         12    1    4    4    0    0 -0.17565600188E+02 -0.12190676467E-01 -0.15602720616E+01  0.17634764174E+02  0.00000000000E+00 0. -1.
</event>
<event>
 8    1  0.2460897E-006  0.9118800E+02  0.7816164E-02  0.1184000E+00
        -11   -1    0    0    0    0  0.00000000000E+00  0.00000000000E+00  0.45593999997E+02  0.45594000000E+02  0.51100000000E-03 0.  1.
         11   -1    0    0    0    0 -0.00000000000E+00 -0.00000000000E+00 -0.45593999997E+02  0.45594000000E+02  0.51100000000E-03 0. -1.
         23    2    1    2    0    0  0.15543122345E-14  0.71054273576E-14  0.00000000000E+00  0.91188000000E+02  0.91188000000E+02 0.  0.
    9900012    2    3    3    0    0 -0.46031553703E+00 -0.26708385879E+02  0.25342260944E+02  0.54367082624E+02  0.39999996457E+02 0.  0.
         12    1    3    3    0    0  0.46031553703E+00  0.26708385879E+02 -0.25342260944E+02  0.36820917376E+02  0.00000000000E+00 0. -1.
         11    1    4    4    0    0  0.10116804003E+02 -0.16333536501E+02  0.21423965643E+01  0.19331942508E+02  0.51100000000E-03 0. -1.
        -11    1    4    4    0    0 -0.13952775846E+02 -0.13556799771E+02  0.11863064316E+02  0.22785940162E+02  0.51100000000E-03 0.  1.
         12    1    4    4    0    0  0.33756563061E+01  0.31819503923E+01  0.11336800064E+02  0.12249199953E+02  0.00000000000E+00 0. -1.
</event>
<event>
 8    1  0.2460897E-006  0.9118800E+02  0.7816164E-02  0.1184000E+00
        -11   -1    0    0    0    0  0.00000000000E+00  0.00000000000E+00  0.45593999997E+02  0.45594000000E+02  0.51100000000E-03 0.  1.
         11   -1    0    0    0    0 -0.00000000000E+00 -0.00000000000E+00 -0.45593999997E+02  0.45594000000E+02  0.51100000000E-03 0. -1.
         23    2    1    2    0    0  0.00000000000E+00  0.35527136788E-14  0.00000000000E+00  0.91188000000E+02  0.91188000000E+02 0.  0.
    9900012    2    3    3    0    0 -0.13183718892E+02  0.30146827651E+02  0.16526864593E+02  0.54367096772E+02  0.40000028711E+02 0.  0.
         12    1    3    3    0    0  0.13183718892E+02 -0.30146827651E+02 -0.16526864593E+02  0.36820903228E+02  0.00000000000E+00 0. -1.
         11    1    4    4    0    0 -0.37355269582E+00  0.14454729070E+02  0.13446230989E+02  0.19745375716E+02  0.51100000000E-03 0. -1.
        -11    1    4    4    0    0 -0.17959870175E+02  0.19599444269E+02  0.64169535929E+01  0.27347256645E+02  0.51100000000E-03 0.  1.
         12    1    4    4    0    0  0.51497039790E+01 -0.39073456875E+01 -0.33363199886E+01  0.72744644104E+01  0.00000000000E+00 0. -1.
</event>
<event>
 8    1  0.2460897E-006  0.9118800E+02  0.7816164E-02  0.1184000E+00
        -11   -1    0    0    0    0  0.00000000000E+00  0.00000000000E+00  0.45593999997E+02  0.45594000000E+02  0.51100000000E-03 0. -1.
         11   -1    0    0    0    0 -0.00000000000E+00 -0.00000000000E+00 -0.45593999997E+02  0.45594000000E+02  0.51100000000E-03 0.  1.
         23    2    1    2    0    0  0.00000000000E+00  0.11102230246E-14  0.00000000000E+00  0.91188000000E+02  0.91188000000E+02 0.  0.
    9900012    2    3    3    0    0 -0.16652360057E+02  0.10937488835E+01 -0.32821988883E+02  0.54367077465E+02  0.39999984697E+02 0.  0.
         12    1    3    3    0    0  0.16652360057E+02 -0.10937488835E+01  0.32821988883E+02  0.36820922535E+02  0.00000000000E+00 0. -1.
         11    1    4    4    0    0  0.74502677113E+01 -0.78439809734E+01 -0.84082610206E+00  0.10850876245E+02  0.51100000000E-03 0. -1.
        -11    1    4    4    0    0 -0.19106622540E+02  0.11294072622E+02 -0.30635965529E+02  0.37830959351E+02  0.51100000000E-03 0.  1.
        -12    1    4    4    0    0 -0.49960052285E+01 -0.23563427651E+01 -0.13451972522E+01  0.56852418697E+01  0.00000000000E+00 0.  1.
</event>
<event>
 8    1  0.2460897E-006  0.9118800E+02  0.7816164E-02  0.1184000E+00
        -11   -1    0    0    0    0  0.00000000000E+00  0.00000000000E+00  0.45593999997E+02  0.45594000000E+02  0.51100000000E-03 0.  1.
         11   -1    0    0    0    0 -0.00000000000E+00 -0.00000000000E+00 -0.45593999997E+02  0.45594000000E+02  0.51100000000E-03 0. -1.
         23    2    1    2    0    0 -0.88817841970E-15  0.00000000000E+00  0.00000000000E+00  0.91188000000E+02  0.91188000000E+02 0.  0.
    9900012    2    3    3    0    0  0.70870685056E+01  0.23093561291E+02 -0.27789216483E+02  0.54367086570E+02  0.40000005453E+02 0.  0.
         12    1    3    3    0    0 -0.70870685056E+01 -0.23093561291E+02  0.27789216483E+02  0.36820913430E+02  0.00000000000E+00 0. -1.
         11    1    4    4    0    0 -0.82603517731E+01  0.17668885502E+02 -0.15180344708E+02  0.24715699302E+02  0.51100000000E-03 0. -1.
        -11    1    4    4    0    0  0.45400402384E+01  0.98538359123E+01  0.19114965110E+01  0.11016526981E+02  0.51100000000E-03 0.  1.
        -12    1    4    4    0    0  0.10807380040E+02 -0.44291601234E+01 -0.14520368286E+02  0.18634860286E+02  0.00000000000E+00 0.  1.
</event>
<event>
 8    1  0.2460897E-006  0.9118800E+02  0.7816164E-02  0.1184000E+00
        -11   -1    0    0    0    0  0.00000000000E+00  0.00000000000E+00  0.45593999997E+02  0.45594000000E+02  0.51100000000E-03 0.  1.
         11   -1    0    0    0    0 -0.00000000000E+00 -0.00000000000E+00 -0.45593999997E+02  0.45594000000E+02  0.51100000000E-03 0. -1.
         23    2    1    2    0    0  0.00000000000E+00  0.17763568394E-14  0.00000000000E+00  0.91188000000E+02  0.91188000000E+02 0.  0.
    9900012    2    3    3    0    0  0.13239653340E+02  0.10824603492E+02  0.32608590390E+02  0.54367073497E+02  0.39999975651E+02 0.  0.
         12    1    3    3    0    0 -0.13239653340E+02 -0.10824603492E+02 -0.32608590390E+02  0.36820926503E+02  0.00000000000E+00 0. -1.
         11    1    4    4    0    0  0.72041986912E+01 -0.12458907881E+02  0.88184064184E+01  0.16878659793E+02  0.51100000000E-03 0. -1.
        -11    1    4    4    0    0  0.79760904176E+00  0.19763506763E+02  0.96587821489E+01  0.22011916150E+02  0.51100000000E-03 0.  1.
        -12    1    4    4    0    0  0.52378456067E+01  0.35200046105E+01  0.14131401823E+02  0.15476497554E+02  0.00000000000E+00 0.  1.
</event>
<event>
 8    1  0.2460897E-006  0.9118800E+02  0.7816164E-02  0.1184000E+00
        -11   -1    0    0    0    0  0.00000000000E+00  0.00000000000E+00  0.45593999997E+02  0.45594000000E+02  0.51100000000E-03 0.  1.
         11   -1    0    0    0    0 -0.00000000000E+00 -0.00000000000E+00 -0.45593999997E+02  0.45594000000E+02  0.51100000000E-03 0. -1.
         23    2    1    2    0    0  0.00000000000E+00  0.35527136788E-14  0.35527136788E-14  0.91188000000E+02  0.91188000000E+02 0.  0.
    9900012    2    3    3    0    0  0.37428712666E+01 -0.22424273824E+02 -0.28964190749E+02  0.54367061832E+02  0.39999949058E+02 0.  0.
        -12    1    3    3    0    0 -0.37428712666E+01  0.22424273824E+02  0.28964190749E+02  0.36820938168E+02  0.00000000000E+00 0.  1.
         11    1    4    4    0    0 -0.65982198552E+01 -0.81471575485E+01 -0.10148870110E+02  0.14591512813E+02  0.51100000000E-03 0. -1.
        -11    1    4    4    0    0 -0.82151619103E+01  0.24342670585E+01 -0.10285674088E+02  0.13386920222E+02  0.51100000000E-03 0.  1.
         12    1    4    4    0    0  0.18556253032E+02 -0.16711383334E+02 -0.85296465504E+01  0.26388628797E+02  0.00000000000E+00 0. -1.
</event>
<event>
 8    1  0.2460897E-006  0.9118800E+02  0.7816164E-02  0.1184000E+00
        -11   -1    0    0    0    0  0.00000000000E+00  0.00000000000E+00  0.45593999997E+02  0.45594000000E+02  0.51100000000E-03 0. -1.
         11   -1    0    0    0    0 -0.00000000000E+00 -0.00000000000E+00 -0.45593999997E+02  0.45594000000E+02  0.51100000000E-03 0.  1.
         23    2    1    2    0    0  0.35527136788E-14  0.35527136788E-14  0.35527136788E-14  0.91188000000E+02  0.91188000000E+02 0.  0.
    9900012    2    3    3    0    0 -0.22970513243E+02  0.15018879227E+02  0.24547260875E+02  0.54367092511E+02  0.40000018996E+02 0.  0.
        -12    1    3    3    0    0  0.22970513243E+02 -0.15018879227E+02 -0.24547260875E+02  0.36820907489E+02  0.00000000000E+00 0.  1.
         11    1    4    4    0    0 -0.57362643439E+01  0.10026921861E+02  0.47159379224E+01  0.12477337912E+02  0.51100000000E-03 0. -1.
        -11    1    4    4    0    0 -0.21328565161E+02 -0.79929437674E+01  0.89957058394E+01  0.24489131583E+02  0.51100000000E-03 0.  1.
        -12    1    4    4    0    0  0.40943162614E+01  0.12984901134E+02  0.10835617113E+02  0.17400623015E+02  0.00000000000E+00 0.  1.
</event>
<event>
 8    1  0.2460897E-006  0.9118800E+02  0.7816164E-02  0.1184000E+00
        -11   -1    0    0    0    0  0.00000000000E+00  0.00000000000E+00  0.45593999997E+02  0.45594000000E+02  0.51100000000E-03 0.  1.
         11   -1    0    0    0    0 -0.00000000000E+00 -0.00000000000E+00 -0.45593999997E+02  0.45594000000E+02  0.51100000000E-03 0. -1.
         23    2    1    2    0    0 -0.35527136788E-14  0.00000000000E+00 -0.35527136788E-14  0.91188000000E+02  0.91188000000E+02 0.  0.
    9900012    2    3    3    0    0  0.26652228207E+02  0.64235206384E+01  0.24580043292E+02  0.54367062830E+02  0.39999951335E+02 0.  0.
         12    1    3    3    0    0 -0.26652228207E+02 -0.64235206384E+01 -0.24580043292E+02  0.36820937170E+02  0.00000000000E+00 0. -1.
         11    1    4    4    0    0  0.18588493677E+01  0.97003456183E+01  0.42959013611E+01  0.10770645053E+02  0.51100000000E-03 0. -1.
        -11    1    4    4    0    0  0.16905466659E+01  0.69532844884E+00 -0.72257985498E+01  0.74534283806E+01  0.51100000000E-03 0.  1.
        -12    1    4    4    0    0  0.23102832174E+02 -0.39721534287E+01  0.27509940481E+02  0.36142989397E+02  0.00000000000E+00 0.  1.
</event>
<event>
 8    1  0.2460897E-006  0.9118800E+02  0.7816164E-02  0.1184000E+00
        -11   -1    0    0    0    0  0.00000000000E+00  0.00000000000E+00  0.45593999997E+02  0.45594000000E+02  0.51100000000E-03 0.  1.
         11   -1    0    0    0    0 -0.00000000000E+00 -0.00000000000E+00 -0.45593999997E+02  0.45594000000E+02  0.51100000000E-03 0. -1.
         23    2    1    2    0    0  0.00000000000E+00  0.00000000000E+00  0.88817841970E-15  0.91188000000E+02  0.91188000000E+02 0.  0.
    9900012    2    3    3    0    0  0.14633034332E+02 -0.33783785420E+02  0.55796517605E+00  0.54367066061E+02  0.39999958698E+02 0.  0.
         12    1    3    3    0    0 -0.14633034332E+02  0.33783785420E+02 -0.55796517605E+00  0.36820933939E+02  0.00000000000E+00 0. -1.
         11    1    4    4    0    0  0.38206566536E+01  0.37274034855E+01 -0.21428182603E+01  0.57517496787E+01  0.51100000000E-03 0. -1.
        -11    1    4    4    0    0 -0.63328350894E+01 -0.25178333337E+02  0.73637150687E+01  0.26986618346E+02  0.51100000000E-03 0.  1.
        -12    1    4    4    0    0  0.17145212767E+02 -0.12332855568E+02 -0.46629316324E+01  0.21628698035E+02  0.00000000000E+00 0.  1.
</event>
<event>
 8    1  0.2460897E-006  0.9118800E+02  0.7816164E-02  0.1184000E+00
        -11   -1    0    0    0    0  0.00000000000E+00  0.00000000000E+00  0.45593999997E+02  0.45594000000E+02  0.51100000000E-03 0.  1.
         11   -1    0    0    0    0 -0.00000000000E+00 -0.00000000000E+00 -0.45593999997E+02  0.45594000000E+02  0.51100000000E-03 0. -1.
         23    2    1    2    0    0  0.35527136788E-14  0.00000000000E+00 -0.17763568394E-14  0.91188000000E+02  0.91188000000E+02 0.  0.
    9900012    2    3    3    0    0  0.17143820658E+02  0.29223663262E+02 -0.14416873771E+02  0.54367091123E+02  0.40000015832E+02 0.  0.
        -12    1    3    3    0    0 -0.17143820658E+02 -0.29223663262E+02  0.14416873771E+02  0.36820908877E+02  0.00000000000E+00 0.  1.
         11    1    4    4    0    0  0.12990612089E+02 -0.18320641067E+01  0.12723110729E+01  0.13180714589E+02  0.51100000000E-03 0. -1.
        -11    1    4    4    0    0 -0.78820207723E+01  0.15956871241E+02 -0.29147350789E+01  0.18034513359E+02  0.51100000000E-03 0.  1.
         12    1    4    4    0    0  0.12035229341E+02  0.15098856128E+02 -0.12774449765E+02  0.23151863175E+02  0.00000000000E+00 0. -1.
</event>
<event>
 8    1  0.2460897E-006  0.9118800E+02  0.7816164E-02  0.1184000E+00
        -11   -1    0    0    0    0  0.00000000000E+00  0.00000000000E+00  0.45593999997E+02  0.45594000000E+02  0.51100000000E-03 0.  1.
         11   -1    0    0    0    0 -0.00000000000E+00 -0.00000000000E+00 -0.45593999997E+02  0.45594000000E+02  0.51100000000E-03 0. -1.
         23    2    1    2    0    0  0.35527136788E-14  0.00000000000E+00  0.35527136788E-14  0.91188000000E+02  0.91188000000E+02 0.  0.
    9900012    2    3    3    0    0 -0.11533759079E+02 -0.21980001410E+02 -0.27196188674E+02  0.54367071999E+02  0.39999972236E+02 0.  0.
        -12    1    3    3    0    0  0.11533759079E+02  0.21980001410E+02  0.27196188674E+02  0.36820928001E+02  0.00000000000E+00 0.  1.
         11    1    4    4    0    0 -0.20997081328E+02 -0.18975067185E+02 -0.12879509143E+02  0.31093606336E+02  0.51100000000E-03 0. -1.
        -11    1    4    4    0    0 -0.83700524747E+00 -0.46401107158E+01 -0.11562085069E+02  0.12486513390E+02  0.51100000000E-03 0.  1.
        -12    1    4    4    0    0  0.10300327496E+02  0.16351764910E+01 -0.27545944618E+01  0.10786952272E+02  0.00000000000E+00 0.  1.
</event>
<event>
 8    1  0.2460897E-006  0.9118800E+02  0.7816164E-02  0.1184000E+00
        -11   -1    0    0    0    0  0.00000000000E+00  0.00000000000E+00  0.45593999997E+02  0.45594000000E+02  0.51100000000E-03 0. -1.
         11   -1    0    0    0    0 -0.00000000000E+00 -0.00000000000E+00 -0.45593999997E+02  0.45594000000E+02  0.51100000000E-03 0.  1.
         23    2    1    2    0    0  0.00000000000E+00  0.44408920985E-15  0.00000000000E+00  0.91188000000E+02  0.91188000000E+02 0.  0.
    9900012    2    3    3    0    0  0.23451227752E+02  0.32284559775E+01 -0.28202769117E+02  0.54367092937E+02  0.40000019969E+02 0.  0.
         12    1    3    3    0    0 -0.23451227752E+02 -0.32284559775E+01  0.28202769117E+02  0.36820907063E+02  0.00000000000E+00 0. -1.
         11    1    4    4    0    0  0.74563961218E+01 -0.11618607342E+02  0.28278662391E+01  0.14092079598E+02  0.51100000000E-03 0.  1.
        -11    1    4    4    0    0 -0.21812774578E+01 -0.27643999089E-01 -0.23961189991E+01  0.32403891830E+01  0.51100000000E-03 0. -1.
        -12    1    4    4    0    0  0.18176109088E+02  0.14874707318E+02 -0.28634516357E+02  0.37034624156E+02  0.00000000000E+00 0.  1.
</event>
<event>
 8    1  0.2460897E-006  0.9118800E+02  0.7816164E-02  0.1184000E+00
        -11   -1    0    0    0    0  0.00000000000E+00  0.00000000000E+00  0.45593999997E+02  0.45594000000E+02  0.51100000000E-03 0. -1.
         11   -1    0    0    0    0 -0.00000000000E+00 -0.00000000000E+00 -0.45593999997E+02  0.45594000000E+02  0.51100000000E-03 0.  1.
         23    2    1    2    0    0  0.00000000000E+00  0.00000000000E+00  0.35527136788E-14  0.91188000000E+02  0.91188000000E+02 0.  0.
    9900012    2    3    3    0    0 -0.21851458862E+02  0.61990618019E+01  0.28980405839E+02  0.54367101801E+02  0.40000040175E+02 0.  0.
        -12    1    3    3    0    0  0.21851458862E+02 -0.61990618019E+01 -0.28980405839E+02  0.36820898199E+02  0.00000000000E+00 0.  1.
         11    1    4    4    0    0 -0.24710487452E+02  0.25998852625E+01  0.17236182233E+02  0.30239933395E+02  0.51100000000E-03 0. -1.
        -11    1    4    4    0    0 -0.16126274612E+01  0.87106504716E+01  0.14340832833E+02  0.16856318862E+02  0.51100000000E-03 0.  1.
         12    1    4    4    0    0  0.44716560516E+01 -0.51114739321E+01 -0.25966092277E+01  0.72708495435E+01  0.00000000000E+00 0. -1.
</event>
<event>
 8    1  0.2460897E-006  0.9118800E+02  0.7816164E-02  0.1184000E+00
        -11   -1    0    0    0    0  0.00000000000E+00  0.00000000000E+00  0.45593999997E+02  0.45594000000E+02  0.51100000000E-03 0.  1.
         11   -1    0    0    0    0 -0.00000000000E+00 -0.00000000000E+00 -0.45593999997E+02  0.45594000000E+02  0.51100000000E-03 0. -1.
         23    2    1    2    0    0  0.35527136788E-14  0.00000000000E+00 -0.17763568394E-14  0.91188000000E+02  0.91188000000E+02 0.  0.
    9900012    2    3    3    0    0 -0.26989458563E+02  0.22667499306E+02  0.10655124975E+02  0.54367108015E+02  0.40000054343E+02 0.  0.
         12    1    3    3    0    0  0.26989458563E+02 -0.22667499306E+02 -0.10655124975E+02  0.36820891985E+02  0.00000000000E+00 0. -1.
         11    1    4    4    0    0 -0.10842523525E+02  0.17394677005E+02  0.11261249361E+02  0.23386980180E+02  0.51100000000E-03 0. -1.
        -11    1    4    4    0    0 -0.21564841682E+02  0.59803418776E+01  0.52339019150E+01  0.22982615501E+02  0.51100000000E-03 0.  1.
         12    1    4    4    0    0  0.54179066439E+01 -0.70751957666E+00 -0.58400263010E+01  0.79975123351E+01  0.00000000000E+00 0. -1.
</event>
<event>
 8    1  0.2460897E-006  0.9118800E+02  0.7816164E-02  0.1184000E+00
        -11   -1    0    0    0    0  0.00000000000E+00  0.00000000000E+00  0.45593999997E+02  0.45594000000E+02  0.51100000000E-03 0. -1.
         11   -1    0    0    0    0 -0.00000000000E+00 -0.00000000000E+00 -0.45593999997E+02  0.45594000000E+02  0.51100000000E-03 0.  1.
         23    2    1    2    0    0  0.71054273576E-14  0.00000000000E+00  0.00000000000E+00  0.91188000000E+02  0.91188000000E+02 0.  0.
    9900012    2    3    3    0    0  0.17357698346E+02 -0.28480209785E+02 -0.15600169690E+02  0.54367118212E+02  0.40000077589E+02 0.  0.
        -12    1    3    3    0    0 -0.17357698346E+02  0.28480209785E+02  0.15600169690E+02  0.36820881788E+02  0.00000000000E+00 0.  1.
         11    1    4    4    0    0 -0.22314749970E+01 -0.16897420953E+02 -0.13932248725E+02  0.22013856325E+02  0.51100000000E-03 0.  1.
        -11    1    4    4    0    0 -0.30849323697E+01 -0.83656652192E+01  0.20584669388E+01  0.91508714713E+01  0.51100000000E-03 0. -1.
         12    1    4    4    0    0  0.22674105713E+02 -0.32171236131E+01 -0.37263879043E+01  0.23202390416E+02  0.00000000000E+00 0. -1.
</event>
<event>
 8    1  0.2460897E-006  0.9118800E+02  0.7816164E-02  0.1184000E+00
        -11   -1    0    0    0    0  0.00000000000E+00  0.00000000000E+00  0.45593999997E+02  0.45594000000E+02  0.51100000000E-03 0.  1.
         11   -1    0    0    0    0 -0.00000000000E+00 -0.00000000000E+00 -0.45593999997E+02  0.45594000000E+02  0.51100000000E-03 0. -1.
         23    2    1    2    0    0  0.00000000000E+00 -0.35527136788E-14  0.44408920985E-15  0.91188000000E+02  0.91188000000E+02 0.  0.
    9900012    2    3    3    0    0 -0.18467764110E+02 -0.31789357605E+02  0.20392161865E+01  0.54367082429E+02  0.39999996012E+02 0.  0.
         12    1    3    3    0    0  0.18467764110E+02  0.31789357605E+02 -0.20392161865E+01  0.36820917571E+02  0.00000000000E+00 0. -1.
         11    1    4    4    0    0 -0.15868328670E+01  0.64550016067E+01  0.42816851894E+01  0.79068269623E+01  0.51100000000E-03 0. -1.
        -11    1    4    4    0    0 -0.11747961849E+02 -0.32959155031E+02  0.58946104829E+01  0.35483333284E+02  0.51100000000E-03 0.  1.
         12    1    4    4    0    0 -0.51329693942E+01 -0.52852041804E+01 -0.81370794857E+01  0.10976922182E+02  0.00000000000E+00 0. -1.
</event>
<event>
 8    1  0.2460897E-006  0.9118800E+02  0.7816164E-02  0.1184000E+00
        -11   -1    0    0    0    0  0.00000000000E+00  0.00000000000E+00  0.45593999997E+02  0.45594000000E+02  0.51100000000E-03 0. -1.
         11   -1    0    0    0    0 -0.00000000000E+00 -0.00000000000E+00 -0.45593999997E+02  0.45594000000E+02  0.51100000000E-03 0.  1.
         23    2    1    2    0    0  0.17763568394E-14  0.00000000000E+00 -0.88817841970E-15  0.91188000000E+02  0.91188000000E+02 0.  0.
    9900012    2    3    3    0    0  0.15939364005E+02 -0.32435077057E+02 -0.70485448774E+01  0.54367088368E+02  0.40000009552E+02 0.  0.
        -12    1    3    3    0    0 -0.15939364005E+02  0.32435077057E+02  0.70485448774E+01  0.36820911632E+02  0.00000000000E+00 0.  1.
         11    1    4    4    0    0  0.16636757787E+01 -0.32253160051E+02 -0.96892188689E+01  0.33718171850E+02  0.51100000000E-03 0. -1.
        -11    1    4    4    0    0  0.11143281343E+02  0.62181530353E+01 -0.69828012122E+00  0.12779895996E+02  0.51100000000E-03 0.  1.
        -12    1    4    4    0    0  0.31324068829E+01 -0.64000700413E+01  0.33389541128E+01  0.78690205223E+01  0.00000000000E+00 0.  1.
</event>
<event>
 8    1  0.2460897E-006  0.9118800E+02  0.7816164E-02  0.1184000E+00
        -11   -1    0    0    0    0  0.00000000000E+00  0.00000000000E+00  0.45593999997E+02  0.45594000000E+02  0.51100000000E-03 0.  1.
         11   -1    0    0    0    0 -0.00000000000E+00 -0.00000000000E+00 -0.45593999997E+02  0.45594000000E+02  0.51100000000E-03 0. -1.
         23    2    1    2    0    0 -0.44408920985E-15  0.71054273576E-14 -0.17763568394E-14  0.91188000000E+02  0.91188000000E+02 0.  0.
    9900012    2    3    3    0    0  0.30368399363E+01  0.35030044767E+02 -0.10929453404E+02  0.54367090385E+02  0.40000014150E+02 0.  0.
        -12    1    3    3    0    0 -0.30368399363E+01 -0.35030044767E+02  0.10929453404E+02  0.36820909615E+02  0.00000000000E+00 0.  1.
         11    1    4    4    0    0  0.14341966193E+01  0.28180540645E+02 -0.10909557384E+02  0.30252573999E+02  0.51100000000E-03 0. -1.
        -11    1    4    4    0    0  0.11836345805E+02  0.68449318128E-01 -0.14460567753E+00  0.11837427017E+02  0.51100000000E-03 0.  1.
        -12    1    4    4    0    0 -0.10233702488E+02  0.67810548040E+01  0.12470965781E+00  0.12277089369E+02  0.00000000000E+00 0.  1.
</event>
<event>
 8    1  0.2460897E-006  0.9118800E+02  0.7816164E-02  0.1184000E+00
        -11   -1    0    0    0    0  0.00000000000E+00  0.00000000000E+00  0.45593999997E+02  0.45594000000E+02  0.51100000000E-03 0.  1.
         11   -1    0    0    0    0 -0.00000000000E+00 -0.00000000000E+00 -0.45593999997E+02  0.45594000000E+02  0.51100000000E-03 0. -1.
         23    2    1    2    0    0  0.00000000000E+00  0.31086244690E-14  0.00000000000E+00  0.91188000000E+02  0.91188000000E+02 0.  0.
    9900012    2    3    3    0    0 -0.48377683862E+01  0.15791947102E+01 -0.36467582390E+02  0.54367049112E+02  0.39999920061E+02 0.  0.
        -12    1    3    3    0    0  0.48377683862E+01 -0.15791947102E+01  0.36467582390E+02  0.36820950888E+02  0.00000000000E+00 0.  1.
         11    1    4    4    0    0 -0.71221598096E+01  0.34454883847E+01 -0.39947236385E+00  0.79218766080E+01  0.51100000000E-03 0.  1.
        -11    1    4    4    0    0  0.96515597449E+01 -0.12760285506E+02 -0.17769924192E+02  0.23911246261E+02  0.51100000000E-03 0. -1.
        -12    1    4    4    0    0 -0.73671683216E+01  0.10893991831E+02 -0.18298185835E+02  0.22533926243E+02  0.00000000000E+00 0.  1.
</event>
<event>
 8    1  0.2460897E-006  0.9118800E+02  0.7816164E-02  0.1184000E+00
        -11   -1    0    0    0    0  0.00000000000E+00  0.00000000000E+00  0.45593999997E+02  0.45594000000E+02  0.51100000000E-03 0.  1.
         11   -1    0    0    0    0 -0.00000000000E+00 -0.00000000000E+00 -0.45593999997E+02  0.45594000000E+02  0.51100000000E-03 0. -1.
         23    2    1    2    0    0  0.88817841970E-15  0.00000000000E+00  0.00000000000E+00  0.91188000000E+02  0.91188000000E+02 0.  0.
    9900012    2    3    3    0    0  0.20009932489E+01  0.34363043729E+02 -0.13074971797E+02  0.54367114137E+02  0.40000068297E+02 0.  0.
        -12    1    3    3    0    0 -0.20009932489E+01 -0.34363043729E+02  0.13074971797E+02  0.36820885863E+02  0.00000000000E+00 0.  1.
         11    1    4    4    0    0 -0.69883950346E+01  0.26984929328E+02 -0.14887514687E+02  0.31601616570E+02  0.51100000000E-03 0. -1.
        -11    1    4    4    0    0  0.91811241908E+01  0.17191831283E+01  0.94307267159E+01  0.13273554109E+02  0.51100000000E-03 0.  1.
         12    1    4    4    0    0 -0.19173590729E+00  0.56589312719E+01 -0.76181838260E+01  0.94919434578E+01  0.00000000000E+00 0. -1.
</event>
<event>
 8    1  0.2460897E-006  0.9118800E+02  0.7816164E-02  0.1184000E+00
        -11   -1    0    0    0    0  0.00000000000E+00  0.00000000000E+00  0.45593999997E+02  0.45594000000E+02  0.51100000000E-03 0.  1.
         11   -1    0    0    0    0 -0.00000000000E+00 -0.00000000000E+00 -0.45593999997E+02  0.45594000000E+02  0.51100000000E-03 0. -1.
         23    2    1    2    0    0  0.00000000000E+00  0.00000000000E+00  0.00000000000E+00  0.91188000000E+02  0.91188000000E+02 0.  0.
    9900012    2    3    3    0    0 -0.22976933324E+01 -0.49898069423E+01  0.36408810559E+02  0.54367094874E+02  0.40000024385E+02 0.  0.
         12    1    3    3    0    0  0.22976933324E+01  0.49898069423E+01 -0.36408810559E+02  0.36820905126E+02  0.00000000000E+00 0. -1.
         11    1    4    4    0    0  0.27173038099E+01 -0.73753022849E+01 -0.52538602971E+01  0.94541986477E+01  0.51100000000E-03 0. -1.
        -11    1    4    4    0    0  0.25105957711E+01 -0.41799964226E+00  0.63830320546E-01  0.25459554980E+01  0.51100000000E-03 0.  1.
        -12    1    4    4    0    0 -0.75255929134E+01  0.28034949849E+01  0.41598840535E+02  0.42366940729E+02  0.00000000000E+00 0.  1.
</event>
<event>
 8    1  0.2460897E-006  0.9118800E+02  0.7816164E-02  0.1184000E+00
        -11   -1    0    0    0    0  0.00000000000E+00  0.00000000000E+00  0.45593999997E+02  0.45594000000E+02  0.51100000000E-03 0.  1.
         11   -1    0    0    0    0 -0.00000000000E+00 -0.00000000000E+00 -0.45593999997E+02  0.45594000000E+02  0.51100000000E-03 0. -1.
         23    2    1    2    0    0 -0.35527136788E-14  0.35527136788E-14  0.17763568394E-14  0.91188000000E+02  0.91188000000E+02 0.  0.
    9900012    2    3    3    0    0 -0.18146273544E+02  0.28406398995E+02  0.14817888740E+02  0.54367074236E+02  0.39999977336E+02 0.  0.
         12    1    3    3    0    0  0.18146273544E+02 -0.28406398995E+02 -0.14817888740E+02  0.36820925764E+02  0.00000000000E+00 0. -1.
         11    1    4    4    0    0 -0.19807577762E+02 -0.61318892317E+00  0.47229976449E+01  0.20372109475E+02  0.51100000000E-03 0. -1.
        -11    1    4    4    0    0  0.70206534603E+01  0.91556684004E+01  0.60474827170E+01  0.13026430299E+02  0.51100000000E-03 0.  1.
        -12    1    4    4    0    0 -0.53593492424E+01  0.19863919518E+02  0.40474083780E+01  0.20968534462E+02  0.00000000000E+00 0.  1.
</event>
<event>
 8    1  0.2460897E-006  0.9118800E+02  0.7816164E-02  0.1184000E+00
        -11   -1    0    0    0    0  0.00000000000E+00  0.00000000000E+00  0.45593999997E+02  0.45594000000E+02  0.51100000000E-03 0.  1.
         11   -1    0    0    0    0 -0.00000000000E+00 -0.00000000000E+00 -0.45593999997E+02  0.45594000000E+02  0.51100000000E-03 0. -1.
         23    2    1    2    0    0  0.71054273576E-14  0.88817841970E-15 -0.17763568394E-14  0.91188000000E+02  0.91188000000E+02 0.  0.
    9900012    2    3    3    0    0 -0.35670224354E+02 -0.75923904493E+01  0.50765496728E+01  0.54367073141E+02  0.39999974840E+02 0.  0.
        -12    1    3    3    0    0  0.35670224354E+02  0.75923904493E+01 -0.50765496728E+01  0.36820926859E+02  0.00000000000E+00 0.  1.
         11    1    4    4    0    0 -0.10523034649E+01  0.48872531496E+01 -0.55350210452E+01  0.74584880614E+01  0.51100000000E-03 0. -1.
        -11    1    4    4    0    0 -0.84929752445E+01 -0.16938067122E+01  0.15945796225E+02  0.18145744051E+02  0.51100000000E-03 0.  1.
         12    1    4    4    0    0 -0.26124945644E+02 -0.10785836887E+02 -0.53342255065E+01  0.28762841028E+02  0.00000000000E+00 0. -1.
</event>
<event>
 8    1  0.2460897E-006  0.9118800E+02  0.7816164E-02  0.1184000E+00
        -11   -1    0    0    0    0  0.00000000000E+00  0.00000000000E+00  0.45593999997E+02  0.45594000000E+02  0.51100000000E-03 0. -1.
         11   -1    0    0    0    0 -0.00000000000E+00 -0.00000000000E+00 -0.45593999997E+02  0.45594000000E+02  0.51100000000E-03 0.  1.
         23    2    1    2    0    0  0.17763568394E-14  0.00000000000E+00  0.00000000000E+00  0.91188000000E+02  0.91188000000E+02 0.  0.
    9900012    2    3    3    0    0 -0.49495788823E+01 -0.34434510105E+02 -0.12064266509E+02  0.54367077365E+02  0.39999984468E+02 0.  0.
         12    1    3    3    0    0  0.49495788823E+01  0.34434510105E+02  0.12064266509E+02  0.36820922635E+02  0.00000000000E+00 0. -1.
         11    1    4    4    0    0 -0.37794214738E+01  0.92082024798E+00 -0.60846525180E+01  0.72218372408E+01  0.51100000000E-03 0. -1.
        -11    1    4    4    0    0  0.72093661821E+01 -0.14497577085E+02 -0.15793391248E+02  0.22618264953E+02  0.51100000000E-03 0.  1.
        -12    1    4    4    0    0 -0.83795235906E+01 -0.20857753268E+02  0.98137772573E+01  0.24526975171E+02  0.00000000000E+00 0.  1.
</event>
<event>
 8    1  0.2460897E-006  0.9118800E+02  0.7816164E-02  0.1184000E+00
        -11   -1    0    0    0    0  0.00000000000E+00  0.00000000000E+00  0.45593999997E+02  0.45594000000E+02  0.51100000000E-03 0.  1.
         11   -1    0    0    0    0 -0.00000000000E+00 -0.00000000000E+00 -0.45593999997E+02  0.45594000000E+02  0.51100000000E-03 0. -1.
         23    2    1    2    0    0 -0.88817841970E-15 -0.35527136788E-14  0.35527136788E-14  0.91188000000E+02  0.91188000000E+02 0.  0.
    9900012    2    3    3    0    0  0.72840796195E+01  0.25973871543E+02 -0.25061766925E+02  0.54366919350E+02  0.39999624240E+02 0.  0.
        -12    1    3    3    0    0 -0.72840796195E+01 -0.25973871543E+02  0.25061766925E+02  0.36821080650E+02  0.00000000000E+00 0.  1.
         11    1    4    4    0    0 -0.61656344239E+01  0.48024082359E+01 -0.13585184514E+01  0.79324488878E+01  0.51100000000E-03 0. -1.
        -11    1    4    4    0    0  0.40695532277E+01 -0.65845386926E+01  0.13836126858E+01  0.78633197565E+01  0.51100000000E-03 0.  1.
         12    1    4    4    0    0  0.93801608157E+01  0.27756001999E+02 -0.25086861160E+02  0.38571150706E+02  0.00000000000E+00 0. -1.
</event>
<event>
 8    1  0.2460897E-006  0.9118800E+02  0.7816164E-02  0.1184000E+00
        -11   -1    0    0    0    0  0.00000000000E+00  0.00000000000E+00  0.45593999997E+02  0.45594000000E+02  0.51100000000E-03 0.  1.
         11   -1    0    0    0    0 -0.00000000000E+00 -0.00000000000E+00 -0.45593999997E+02  0.45594000000E+02  0.51100000000E-03 0. -1.
         23    2    1    2    0    0 -0.44408920985E-15 -0.35527136788E-14  0.00000000000E+00  0.91188000000E+02  0.91188000000E+02 0.  0.
    9900012    2    3    3    0    0  0.32409185001E+01  0.16559639056E+02  0.32726962199E+02  0.54367092173E+02  0.40000018227E+02 0.  0.
         12    1    3    3    0    0 -0.32409185001E+01 -0.16559639056E+02 -0.32726962199E+02  0.36820907827E+02  0.00000000000E+00 0. -1.
         11    1    4    4    0    0 -0.24584140387E+01  0.10097160901E+02 -0.74562922975E+01  0.12790338265E+02  0.51100000000E-03 0. -1.
        -11    1    4    4    0    0  0.42853397327E+01  0.58964905419E+01  0.38923703830E+02  0.39600346684E+02  0.51100000000E-03 0.  1.
        -12    1    4    4    0    0  0.14139928062E+01  0.56598761298E+00  0.12595506665E+01  0.19764072241E+01  0.00000000000E+00 0.  1.
</event>
<event>
 8    1  0.2460897E-006  0.9118800E+02  0.7816164E-02  0.1184000E+00
        -11   -1    0    0    0    0  0.00000000000E+00  0.00000000000E+00  0.45593999997E+02  0.45594000000E+02  0.51100000000E-03 0.  1.
         11   -1    0    0    0    0 -0.00000000000E+00 -0.00000000000E+00 -0.45593999997E+02  0.45594000000E+02  0.51100000000E-03 0. -1.
         23    2    1    2    0    0  0.88817841970E-15  0.35527136788E-14  0.35527136788E-14  0.91188000000E+02  0.91188000000E+02 0.  0.
    9900012    2    3    3    0    0 -0.61561975327E+01  0.30110762455E+02  0.20278591514E+02  0.54367108410E+02  0.40000055242E+02 0.  0.
         12    1    3    3    0    0  0.61561975327E+01 -0.30110762455E+02 -0.20278591514E+02  0.36820891590E+02  0.00000000000E+00 0. -1.
         11    1    4    4    0    0 -0.62078135346E+01 -0.54707229823E+01  0.12208152097E+02  0.14748041792E+02  0.51100000000E-03 0. -1.
        -11    1    4    4    0    0 -0.12509268865E+01  0.16586249297E+02  0.11568215664E+02  0.20260604574E+02  0.51100000000E-03 0.  1.
         12    1    4    4    0    0  0.13025428884E+01  0.18995236140E+02 -0.34977762468E+01  0.19358462043E+02  0.00000000000E+00 0. -1.
</event>
<event>
 8    1  0.2460897E-006  0.9118800E+02  0.7816164E-02  0.1184000E+00
        -11   -1    0    0    0    0  0.00000000000E+00  0.00000000000E+00  0.45593999997E+02  0.45594000000E+02  0.51100000000E-03 0.  1.
         11   -1    0    0    0    0 -0.00000000000E+00 -0.00000000000E+00 -0.45593999997E+02  0.45594000000E+02  0.51100000000E-03 0. -1.
         23    2    1    2    0    0  0.00000000000E+00 -0.35527136788E-14  0.17763568394E-14  0.91188000000E+02  0.91188000000E+02 0.  0.
    9900012    2    3    3    0    0 -0.16573691599E+02  0.29729634319E+02 -0.14044332850E+02  0.54367059013E+02  0.39999942632E+02 0.  0.
        -12    1    3    3    0    0  0.16573691599E+02 -0.29729634319E+02  0.14044332850E+02  0.36820940987E+02  0.00000000000E+00 0.  1.
         11    1    4    4    0    0 -0.13180133892E+02  0.17775137969E+02 -0.98913696129E+01  0.24238619026E+02  0.51100000000E-03 0. -1.
        -11    1    4    4    0    0 -0.11383029702E+02 -0.35714201164E+01 -0.42577258835E+01  0.12667147935E+02  0.51100000000E-03 0.  1.
        -12    1    4    4    0    0  0.79894719949E+01  0.15525916467E+02  0.10476264691E+00  0.17461292051E+02  0.00000000000E+00 0.  1.
</event>
<event>
 8    1  0.2460897E-006  0.9118800E+02  0.7816164E-02  0.1184000E+00
        -11   -1    0    0    0    0  0.00000000000E+00  0.00000000000E+00  0.45593999997E+02  0.45594000000E+02  0.51100000000E-03 0. -1.
         11   -1    0    0    0    0 -0.00000000000E+00 -0.00000000000E+00 -0.45593999997E+02  0.45594000000E+02  0.51100000000E-03 0.  1.
         23    2    1    2    0    0  0.35527136788E-14  0.35527136788E-14  0.00000000000E+00  0.91188000000E+02  0.91188000000E+02 0.  0.
    9900012    2    3    3    0    0  0.30092994345E+02  0.12213240243E+02  0.17350148522E+02  0.54367092901E+02  0.40000019886E+02 0.  0.
        -12    1    3    3    0    0 -0.30092994345E+02 -0.12213240243E+02 -0.17350148522E+02  0.36820907099E+02  0.00000000000E+00 0.  1.
         11    1    4    4    0    0  0.19736570624E+01  0.20624072505E+00  0.19636577317E+02  0.19736591053E+02  0.51100000000E-03 0. -1.
        -11    1    4    4    0    0  0.75757342658E+00 -0.26332933603E+01  0.18752919916E+01  0.33203722281E+01  0.51100000000E-03 0.  1.
        -12    1    4    4    0    0  0.27361763856E+02  0.14640292878E+02 -0.41617207862E+01  0.31310129619E+02  0.00000000000E+00 0.  1.
</event>
<event>
 8    1  0.2460897E-006  0.9118800E+02  0.7816164E-02  0.1184000E+00
        -11   -1    0    0    0    0  0.00000000000E+00  0.00000000000E+00  0.45593999997E+02  0.45594000000E+02  0.51100000000E-03 0. -1.
         11   -1    0    0    0    0 -0.00000000000E+00 -0.00000000000E+00 -0.45593999997E+02  0.45594000000E+02  0.51100000000E-03 0.  1.
         23    2    1    2    0    0  0.00000000000E+00  0.35527136788E-14  0.88817841970E-15  0.91188000000E+02  0.91188000000E+02 0.  0.
    9900012    2    3    3    0    0 -0.27229196077E+02  0.23655499032E+02  0.74005537378E+01  0.54367082723E+02  0.39999996685E+02 0.  0.
         12    1    3    3    0    0  0.27229196077E+02 -0.23655499032E+02 -0.74005537378E+01  0.36820917277E+02  0.00000000000E+00 0. -1.
         11    1    4    4    0    0 -0.11965984539E+02 -0.14639327221E+01  0.29023939783E+01  0.12399668385E+02  0.51100000000E-03 0. -1.
        -11    1    4    4    0    0 -0.17490552621E+02  0.11074343170E+02  0.13886019115E+02  0.24927535673E+02  0.51100000000E-03 0.  1.
        -12    1    4    4    0    0  0.22273410821E+01  0.14045088584E+02 -0.93878593558E+01  0.17039878665E+02  0.00000000000E+00 0.  1.
</event>
<event>
 8    1  0.2460897E-006  0.9118800E+02  0.7816164E-02  0.1184000E+00
        -11   -1    0    0    0    0  0.00000000000E+00  0.00000000000E+00  0.45593999997E+02  0.45594000000E+02  0.51100000000E-03 0. -1.
         11   -1    0    0    0    0 -0.00000000000E+00 -0.00000000000E+00 -0.45593999997E+02  0.45594000000E+02  0.51100000000E-03 0.  1.
         23    2    1    2    0    0  0.00000000000E+00  0.00000000000E+00  0.17763568394E-14  0.91188000000E+02  0.91188000000E+02 0.  0.
    9900012    2    3    3    0    0 -0.25957653239E+02  0.24420736581E+02 -0.92524101993E+01  0.54367092470E+02  0.40000018904E+02 0.  0.
         12    1    3    3    0    0  0.25957653239E+02 -0.24420736581E+02  0.92524101993E+01  0.36820907530E+02  0.00000000000E+00 0. -1.
         11    1    4    4    0    0 -0.16521319455E+02  0.68380890529E+01  0.13396370029E+02  0.22342251199E+02  0.51100000000E-03 0. -1.
        -11    1    4    4    0    0 -0.10682899573E+02  0.12154175014E+02 -0.12497404339E+02  0.20445865817E+02  0.51100000000E-03 0.  1.
         12    1    4    4    0    0  0.12465657895E+01  0.54284725144E+01 -0.10151375889E+02  0.11578975454E+02  0.00000000000E+00 0. -1.
</event>
<event>
 8    1  0.2460897E-006  0.9118800E+02  0.7816164E-02  0.1184000E+00
        -11   -1    0    0    0    0  0.00000000000E+00  0.00000000000E+00  0.45593999997E+02  0.45594000000E+02  0.51100000000E-03 0.  1.
         11   -1    0    0    0    0 -0.00000000000E+00 -0.00000000000E+00 -0.45593999997E+02  0.45594000000E+02  0.51100000000E-03 0. -1.
         23    2    1    2    0    0  0.35527136788E-14  0.71054273576E-14  0.35527136788E-14  0.91188000000E+02  0.91188000000E+02 0.  0.
    9900012    2    3    3    0    0  0.26090473600E+02  0.23025260283E+02  0.12037630207E+02  0.54367082510E+02  0.39999996199E+02 0.  0.
         12    1    3    3    0    0 -0.26090473600E+02 -0.23025260283E+02 -0.12037630207E+02  0.36820917490E+02  0.00000000000E+00 0. -1.
         11    1    4    4    0    0 -0.28400710619E+01 -0.34436835414E+01  0.78039615995E+01  0.89903713426E+01  0.51100000000E-03 0. -1.
        -11    1    4    4    0    0  0.14471129207E+02  0.24602612058E+02  0.91771644774E+01  0.29982035433E+02  0.51100000000E-03 0.  1.
        -12    1    4    4    0    0  0.14459415455E+02  0.18663317664E+01 -0.49434958698E+01  0.15394675735E+02  0.00000000000E+00 0.  1.
</event>
<event>
 8    1  0.2460897E-006  0.9118800E+02  0.7816164E-02  0.1184000E+00
        -11   -1    0    0    0    0  0.00000000000E+00  0.00000000000E+00  0.45593999997E+02  0.45594000000E+02  0.51100000000E-03 0. -1.
         11   -1    0    0    0    0 -0.00000000000E+00 -0.00000000000E+00 -0.45593999997E+02  0.45594000000E+02  0.51100000000E-03 0.  1.
         23    2    1    2    0    0  0.00000000000E+00  0.00000000000E+00 -0.71054273576E-14  0.91188000000E+02  0.91188000000E+02 0.  0.
    9900012    2    3    3    0    0  0.12835906198E+02 -0.83979620468E+01 -0.33473777815E+02  0.54367081276E+02  0.39999993384E+02 0.  0.
         12    1    3    3    0    0 -0.12835906198E+02  0.83979620468E+01  0.33473777815E+02  0.36820918724E+02  0.00000000000E+00 0. -1.
         11    1    4    4    0    0  0.18460642982E+02  0.49403606218E-01 -0.15473771975E+02  0.24088075876E+02  0.51100000000E-03 0. -1.
        -11    1    4    4    0    0  0.68398964141E+01  0.14854276338E+01 -0.11640709780E+01  0.70954731846E+01  0.51100000000E-03 0.  1.
         12    1    4    4    0    0 -0.12464633198E+02 -0.99327932868E+01 -0.16835934863E+02  0.23183532215E+02  0.00000000000E+00 0. -1.
</event>
<event>
 8    1  0.2460897E-006  0.9118800E+02  0.7816164E-02  0.1184000E+00
        -11   -1    0    0    0    0  0.00000000000E+00  0.00000000000E+00  0.45593999997E+02  0.45594000000E+02  0.51100000000E-03 0. -1.
         11   -1    0    0    0    0 -0.00000000000E+00 -0.00000000000E+00 -0.45593999997E+02  0.45594000000E+02  0.51100000000E-03 0.  1.
         23    2    1    2    0    0  0.00000000000E+00  0.00000000000E+00  0.35527136788E-14  0.91188000000E+02  0.91188000000E+02 0.  0.
    9900012    2    3    3    0    0 -0.12756310246E+02  0.15231638912E+02 -0.31000874688E+02  0.54367075155E+02  0.39999979430E+02 0.  0.
         12    1    3    3    0    0  0.12756310246E+02 -0.15231638912E+02  0.31000874688E+02  0.36820924845E+02  0.00000000000E+00 0. -1.
         11    1    4    4    0    0 -0.24900971625E+01  0.61643570461E+01 -0.11439035360E+02  0.13230699600E+02  0.51100000000E-03 0. -1.
        -11    1    4    4    0    0 -0.19176436579E+02  0.96904417808E+00 -0.21626393443E+02  0.28920160098E+02  0.51100000000E-03 0.  1.
         12    1    4    4    0    0  0.89102234956E+01  0.80982376878E+01  0.20645541151E+01  0.12216215457E+02  0.00000000000E+00 0. -1.
</event>
<event>
 8    1  0.2460897E-006  0.9118800E+02  0.7816164E-02  0.1184000E+00
        -11   -1    0    0    0    0  0.00000000000E+00  0.00000000000E+00  0.45593999997E+02  0.45594000000E+02  0.51100000000E-03 0.  1.
         11   -1    0    0    0    0 -0.00000000000E+00 -0.00000000000E+00 -0.45593999997E+02  0.45594000000E+02  0.51100000000E-03 0. -1.
         23    2    1    2    0    0 -0.35527136788E-14  0.00000000000E+00  0.00000000000E+00  0.91188000000E+02  0.91188000000E+02 0.  0.
    9900012    2    3    3    0    0  0.17826766553E+02 -0.26976859519E+02  0.17613538933E+02  0.54367064257E+02  0.39999954586E+02 0.  0.
         12    1    3    3    0    0 -0.17826766553E+02  0.26976859519E+02 -0.17613538933E+02  0.36820935743E+02  0.00000000000E+00 0. -1.
         11    1    4    4    0    0  0.49752710440E+01  0.58300174448E+01  0.43041612057E+01  0.87902348838E+01  0.51100000000E-03 0. -1.
        -11    1    4    4    0    0 -0.36627170772E+01 -0.18440134202E+02  0.14368472041E+02  0.23662354803E+02  0.51100000000E-03 0.  1.
        -12    1    4    4    0    0  0.16514212586E+02 -0.14366742762E+02 -0.10590943130E+01  0.21914474570E+02  0.00000000000E+00 0.  1.
</event>
<event>
 8    1  0.2460897E-006  0.9118800E+02  0.7816164E-02  0.1184000E+00
        -11   -1    0    0    0    0  0.00000000000E+00  0.00000000000E+00  0.45593999997E+02  0.45594000000E+02  0.51100000000E-03 0.  1.
         11   -1    0    0    0    0 -0.00000000000E+00 -0.00000000000E+00 -0.45593999997E+02  0.45594000000E+02  0.51100000000E-03 0. -1.
         23    2    1    2    0    0  0.00000000000E+00  0.00000000000E+00  0.00000000000E+00  0.91188000000E+02  0.91188000000E+02 0.  0.
    9900012    2    3    3    0    0 -0.26011501276E+02 -0.75619193940E+01  0.24939818563E+02  0.54367144857E+02  0.40000138330E+02 0.  0.
         12    1    3    3    0    0  0.26011501276E+02  0.75619193940E+01 -0.24939818563E+02  0.36820855143E+02  0.00000000000E+00 0. -1.
         11    1    4    4    0    0 -0.38420479202E+01 -0.32047727736E+01  0.22558586497E+02  0.23106746325E+02  0.51100000000E-03 0. -1.
        -11    1    4    4    0    0  0.35159355425E+01  0.19968203416E+00  0.37419438302E+01  0.51384647068E+01  0.51100000000E-03 0.  1.
         12    1    4    4    0    0 -0.25685388898E+02 -0.45568286545E+01 -0.13607117641E+01  0.26121933825E+02  0.00000000000E+00 0. -1.
</event>
<event>
 8    1  0.2460897E-006  0.9118800E+02  0.7816164E-02  0.1184000E+00
        -11   -1    0    0    0    0  0.00000000000E+00  0.00000000000E+00  0.45593999997E+02  0.45594000000E+02  0.51100000000E-03 0.  1.
         11   -1    0    0    0    0 -0.00000000000E+00 -0.00000000000E+00 -0.45593999997E+02  0.45594000000E+02  0.51100000000E-03 0. -1.
         23    2    1    2    0    0 -0.17763568394E-14  0.53290705182E-14  0.71054273576E-14  0.91188000000E+02  0.91188000000E+02 0.  0.
    9900012    2    3    3    0    0  0.11225852108E+02 -0.11755011003E+02 -0.33039059058E+02  0.54367089329E+02  0.40000011743E+02 0.  0.
        -12    1    3    3    0    0 -0.11225852108E+02  0.11755011003E+02  0.33039059058E+02  0.36820910671E+02  0.00000000000E+00 0.  1.
         11    1    4    4    0    0  0.64571844362E+01 -0.13365572651E+02 -0.21222220900E+02  0.25898193437E+02  0.51100000000E-03 0. -1.
        -11    1    4    4    0    0  0.84095039051E+01  0.11796024932E+02 -0.37178939671E+01  0.14956225992E+02  0.51100000000E-03 0.  1.
        -12    1    4    4    0    0 -0.36408362335E+01 -0.10185463285E+02 -0.80989441905E+01  0.13512669899E+02  0.00000000000E+00 0.  1.
</event>
<event>
 8    1  0.2460897E-006  0.9118800E+02  0.7816164E-02  0.1184000E+00
        -11   -1    0    0    0    0  0.00000000000E+00  0.00000000000E+00  0.45593999997E+02  0.45594000000E+02  0.51100000000E-03 0.  1.
         11   -1    0    0    0    0 -0.00000000000E+00 -0.00000000000E+00 -0.45593999997E+02  0.45594000000E+02  0.51100000000E-03 0. -1.
         23    2    1    2    0    0 -0.35527136788E-14  0.71054273576E-14  0.35527136788E-14  0.91188000000E+02  0.91188000000E+02 0.  0.
    9900012    2    3    3    0    0  0.14617787207E+02 -0.30722315511E+02 -0.14079757048E+02  0.54367082959E+02  0.39999997222E+02 0.  0.
         12    1    3    3    0    0 -0.14617787207E+02  0.30722315511E+02  0.14079757048E+02  0.36820917041E+02  0.00000000000E+00 0. -1.
         11    1    4    4    0    0  0.25316020902E+01 -0.15443772557E+02 -0.12699764710E+02  0.20154481980E+02  0.51100000000E-03 0. -1.
        -11    1    4    4    0    0 -0.85513721943E+01 -0.39948074419E+01 -0.45520158149E+01  0.10478802467E+02  0.51100000000E-03 0.  1.
        -12    1    4    4    0    0  0.20637557311E+02 -0.11283735512E+02  0.31720234762E+01  0.23733798512E+02  0.00000000000E+00 0.  1.
</event>
<event>
 8    1  0.2460897E-006  0.9118800E+02  0.7816164E-02  0.1184000E+00
        -11   -1    0    0    0    0  0.00000000000E+00  0.00000000000E+00  0.45593999997E+02  0.45594000000E+02  0.51100000000E-03 0.  1.
         11   -1    0    0    0    0 -0.00000000000E+00 -0.00000000000E+00 -0.45593999997E+02  0.45594000000E+02  0.51100000000E-03 0. -1.
         23    2    1    2    0    0  0.00000000000E+00  0.00000000000E+00 -0.88817841970E-15  0.91188000000E+02  0.91188000000E+02 0.  0.
    9900012    2    3    3    0    0  0.35125827470E+02  0.87902248007E+01 -0.66847017788E+01  0.54367122153E+02  0.40000086573E+02 0.  0.
        -12    1    3    3    0    0 -0.35125827470E+02 -0.87902248007E+01  0.66847017788E+01  0.36820877847E+02  0.00000000000E+00 0.  1.
         11    1    4    4    0    0  0.21447097378E+02  0.17994854830E+01 -0.10475914862E+02  0.23936602232E+02  0.51100000000E-03 0. -1.
        -11    1    4    4    0    0 -0.22488865313E+01 -0.79714148123E+01  0.18860779919E+01  0.84946003551E+01  0.51100000000E-03 0.  1.
        -12    1    4    4    0    0  0.15927616624E+02  0.14962154130E+02  0.19051350912E+01  0.21935919567E+02  0.00000000000E+00 0.  1.
</event>
<event>
 8    1  0.2460897E-006  0.9118800E+02  0.7816164E-02  0.1184000E+00
        -11   -1    0    0    0    0  0.00000000000E+00  0.00000000000E+00  0.45593999997E+02  0.45594000000E+02  0.51100000000E-03 0.  1.
         11   -1    0    0    0    0 -0.00000000000E+00 -0.00000000000E+00 -0.45593999997E+02  0.45594000000E+02  0.51100000000E-03 0. -1.
         23    2    1    2    0    0  0.00000000000E+00 -0.35527136788E-14  0.17763568394E-14  0.91188000000E+02  0.91188000000E+02 0.  0.
    9900012    2    3    3    0    0  0.23010367145E+02  0.27876837270E+02 -0.70129148291E+01  0.54367135986E+02  0.40000118107E+02 0.  0.
         12    1    3    3    0    0 -0.23010367145E+02 -0.27876837270E+02  0.70129148291E+01  0.36820864014E+02  0.00000000000E+00 0. -1.
         11    1    4    4    0    0  0.98719492545E+01  0.10249269224E+02  0.12265585051E+02  0.18786896460E+02  0.51100000000E-03 0. -1.
        -11    1    4    4    0    0  0.84519841053E+01 -0.26852610296E+01 -0.76374449074E+01  0.11703727060E+02  0.51100000000E-03 0.  1.
         12    1    4    4    0    0  0.46864337852E+01  0.20312829076E+02 -0.11641054972E+02  0.23876512466E+02  0.00000000000E+00 0. -1.
</event>
<event>
 8    1  0.2460897E-006  0.9118800E+02  0.7816164E-02  0.1184000E+00
        -11   -1    0    0    0    0  0.00000000000E+00  0.00000000000E+00  0.45593999997E+02  0.45594000000E+02  0.51100000000E-03 0.  1.
         11   -1    0    0    0    0 -0.00000000000E+00 -0.00000000000E+00 -0.45593999997E+02  0.45594000000E+02  0.51100000000E-03 0. -1.
         23    2    1    2    0    0  0.00000000000E+00  0.00000000000E+00  0.00000000000E+00  0.91188000000E+02  0.91188000000E+02 0.  0.
    9900012    2    3    3    0    0  0.12081781468E+02 -0.13447602560E+02 -0.32077610644E+02  0.54367074391E+02  0.39999977689E+02 0.  0.
        -12    1    3    3    0    0 -0.12081781468E+02  0.13447602560E+02  0.32077610644E+02  0.36820925609E+02  0.00000000000E+00 0.  1.
         11    1    4    4    0    0  0.10429318421E+02  0.85900298807E+01 -0.97716128951E+00  0.13546739110E+02  0.51100000000E-03 0. -1.
        -11    1    4    4    0    0  0.56156056867E+00 -0.67436585949E+01 -0.73941422318E+00  0.68072766340E+01  0.51100000000E-03 0.  1.
        -12    1    4    4    0    0  0.10909024787E+01 -0.15293973846E+02 -0.30361035132E+02  0.34013058647E+02  0.00000000000E+00 0.  1.
</event>
<event>
 8    1  0.2460897E-006  0.9118800E+02  0.7816164E-02  0.1184000E+00
        -11   -1    0    0    0    0  0.00000000000E+00  0.00000000000E+00  0.45593999997E+02  0.45594000000E+02  0.51100000000E-03 0.  1.
         11   -1    0    0    0    0 -0.00000000000E+00 -0.00000000000E+00 -0.45593999997E+02  0.45594000000E+02  0.51100000000E-03 0. -1.
         23    2    1    2    0    0 -0.71054273576E-14 -0.53290705182E-14  0.88817841970E-15  0.91188000000E+02  0.91188000000E+02 0.  0.
    9900012    2    3    3    0    0 -0.33315170723E+02 -0.15105799443E+02  0.42064369905E+01  0.54367083536E+02  0.39999998537E+02 0.  0.
        -12    1    3    3    0    0  0.33315170723E+02  0.15105799443E+02 -0.42064369905E+01  0.36820916464E+02  0.00000000000E+00 0.  1.
         11    1    4    4    0    0 -0.16479603920E+01  0.10580503868E+02  0.26798864315E+01  0.11038325376E+02  0.51100000000E-03 0. -1.
        -11    1    4    4    0    0  0.21550061002E+00  0.13646015775E+01 -0.49556398251E+00  0.14677063399E+01  0.51100000000E-03 0.  1.
         12    1    4    4    0    0 -0.31882710941E+02 -0.27050904889E+02  0.20221145415E+01  0.41861051820E+02  0.00000000000E+00 0. -1.
</event>
<event>
 8    1  0.2460897E-006  0.9118800E+02  0.7816164E-02  0.1184000E+00
        -11   -1    0    0    0    0  0.00000000000E+00  0.00000000000E+00  0.45593999997E+02  0.45594000000E+02  0.51100000000E-03 0. -1.
         11   -1    0    0    0    0 -0.00000000000E+00 -0.00000000000E+00 -0.45593999997E+02  0.45594000000E+02  0.51100000000E-03 0.  1.
         23    2    1    2    0    0  0.00000000000E+00  0.00000000000E+00  0.00000000000E+00  0.91188000000E+02  0.91188000000E+02 0.  0.
    9900012    2    3    3    0    0 -0.14857948835E+02  0.28212083706E+02 -0.18414719994E+02  0.54367051844E+02  0.39999926289E+02 0.  0.
         12    1    3    3    0    0  0.14857948835E+02 -0.28212083706E+02  0.18414719994E+02  0.36820948156E+02  0.00000000000E+00 0. -1.
         11    1    4    4    0    0 -0.12506947828E+01  0.17755215527E+00  0.21427892702E+01  0.24874300644E+01  0.51100000000E-03 0.  1.
        -11    1    4    4    0    0 -0.18749901317E+02  0.19970484056E+02  0.19115523035E+01  0.27459662513E+02  0.51100000000E-03 0. -1.
        -12    1    4    4    0    0  0.51426472647E+01  0.80640474945E+01 -0.22469061568E+02  0.24419959267E+02  0.00000000000E+00 0.  1.
</event>
<event>
 8    1  0.2460897E-006  0.9118800E+02  0.7816164E-02  0.1184000E+00
        -11   -1    0    0    0    0  0.00000000000E+00  0.00000000000E+00  0.45593999997E+02  0.45594000000E+02  0.51100000000E-03 0.  1.
         11   -1    0    0    0    0 -0.00000000000E+00 -0.00000000000E+00 -0.45593999997E+02  0.45594000000E+02  0.51100000000E-03 0. -1.
         23    2    1    2    0    0  0.00000000000E+00 -0.17763568394E-14  0.00000000000E+00  0.91188000000E+02  0.91188000000E+02 0.  0.
    9900012    2    3    3    0    0  0.32626094741E+02  0.10873461760E+02 -0.13156198830E+02  0.54367084798E+02  0.40000001414E+02 0.  0.
        -12    1    3    3    0    0 -0.32626094741E+02 -0.10873461760E+02  0.13156198830E+02  0.36820915202E+02  0.00000000000E+00 0.  1.
         11    1    4    4    0    0  0.16882162478E+01 -0.32763644296E+01 -0.61458087764E+01  0.71662824220E+01  0.51100000000E-03 0. -1.
        -11    1    4    4    0    0  0.23511809161E+02 -0.28649143037E+01 -0.13824590248E+02  0.27425028711E+02  0.51100000000E-03 0.  1.
        -12    1    4    4    0    0  0.74260693316E+01  0.17014740493E+02  0.68142001943E+01  0.19775773665E+02  0.00000000000E+00 0.  1.
</event>
<event>
 8    1  0.2460897E-006  0.9118800E+02  0.7816164E-02  0.1184000E+00
        -11   -1    0    0    0    0  0.00000000000E+00  0.00000000000E+00  0.45593999997E+02  0.45594000000E+02  0.51100000000E-03 0.  1.
         11   -1    0    0    0    0 -0.00000000000E+00 -0.00000000000E+00 -0.45593999997E+02  0.45594000000E+02  0.51100000000E-03 0. -1.
         23    2    1    2    0    0  0.00000000000E+00 -0.35527136788E-14  0.00000000000E+00  0.91188000000E+02  0.91188000000E+02 0.  0.
    9900012    2    3    3    0    0  0.15367752052E+02 -0.28056469942E+02 -0.18233112609E+02  0.54367086049E+02  0.40000004267E+02 0.  0.
        -12    1    3    3    0    0 -0.15367752052E+02  0.28056469942E+02  0.18233112609E+02  0.36820913951E+02  0.00000000000E+00 0.  1.
         11    1    4    4    0    0  0.29906602340E+01 -0.18614407362E+02  0.65378109249E+01  0.19954527858E+02  0.51100000000E-03 0. -1.
        -11    1    4    4    0    0 -0.40016604662E+01 -0.25305006484E+01 -0.11909959528E+01  0.48821298261E+01  0.51100000000E-03 0.  1.
        -12    1    4    4    0    0  0.16378752284E+02 -0.69115619314E+01 -0.23579927581E+02  0.29530428366E+02  0.00000000000E+00 0.  1.
</event>
<event>
 8    1  0.2460897E-006  0.9118800E+02  0.7816164E-02  0.1184000E+00
        -11   -1    0    0    0    0  0.00000000000E+00  0.00000000000E+00  0.45593999997E+02  0.45594000000E+02  0.51100000000E-03 0.  1.
         11   -1    0    0    0    0 -0.00000000000E+00 -0.00000000000E+00 -0.45593999997E+02  0.45594000000E+02  0.51100000000E-03 0. -1.
         23    2    1    2    0    0  0.00000000000E+00 -0.88817841970E-15  0.00000000000E+00  0.91188000000E+02  0.91188000000E+02 0.  0.
    9900012    2    3    3    0    0 -0.36517239536E+02  0.28567859914E+01  0.37562298544E+01  0.54367091914E+02  0.40000017637E+02 0.  0.
         12    1    3    3    0    0  0.36517239536E+02 -0.28567859914E+01 -0.37562298544E+01  0.36820908086E+02  0.00000000000E+00 0. -1.
         11    1    4    4    0    0 -0.20418166480E+02  0.81020057627E+01  0.67093852682E+01  0.22968671505E+02  0.51100000000E-03 0. -1.
        -11    1    4    4    0    0  0.31972243006E+01 -0.36279176497E+01  0.78536362315E+01  0.92229947424E+01  0.51100000000E-03 0.  1.
         12    1    4    4    0    0 -0.19296297357E+02 -0.16173021217E+01 -0.10806791645E+02  0.22175425667E+02  0.00000000000E+00 0. -1.
</event>
<event>
 8    1  0.2460897E-006  0.9118800E+02  0.7816164E-02  0.1184000E+00
        -11   -1    0    0    0    0  0.00000000000E+00  0.00000000000E+00  0.45593999997E+02  0.45594000000E+02  0.51100000000E-03 0. -1.
         11   -1    0    0    0    0 -0.00000000000E+00 -0.00000000000E+00 -0.45593999997E+02  0.45594000000E+02  0.51100000000E-03 0.  1.
         23    2    1    2    0    0  0.00000000000E+00  0.00000000000E+00 -0.66613381478E-15  0.91188000000E+02  0.91188000000E+02 0.  0.
    9900012    2    3    3    0    0  0.31049449325E+02 -0.19729952667E+02 -0.15613822560E+01  0.54367119372E+02  0.40000080232E+02 0.  0.
         12    1    3    3    0    0 -0.31049449325E+02  0.19729952667E+02  0.15613822560E+01  0.36820880628E+02  0.00000000000E+00 0. -1.
         11    1    4    4    0    0 -0.24965102894E+01 -0.90961764452E+00 -0.64460902122E+01  0.69722340157E+01  0.51100000000E-03 0. -1.
        -11    1    4    4    0    0  0.20432680021E+02 -0.19130842200E+02  0.14122280122E+02  0.31351592180E+02  0.51100000000E-03 0.  1.
        -12    1    4    4    0    0  0.13113279594E+02  0.31050717686E+00 -0.92375721663E+01  0.16043293176E+02  0.00000000000E+00 0.  1.
</event>
<event>
 8    1  0.2460897E-006  0.9118800E+02  0.7816164E-02  0.1184000E+00
        -11   -1    0    0    0    0  0.00000000000E+00  0.00000000000E+00  0.45593999997E+02  0.45594000000E+02  0.51100000000E-03 0. -1.
         11   -1    0    0    0    0 -0.00000000000E+00 -0.00000000000E+00 -0.45593999997E+02  0.45594000000E+02  0.51100000000E-03 0.  1.
         23    2    1    2    0    0  0.00000000000E+00  0.00000000000E+00  0.00000000000E+00  0.91188000000E+02  0.91188000000E+02 0.  0.
    9900012    2    3    3    0    0  0.15793463036E+02 -0.33004768841E+02  0.41268978347E+01  0.54367088460E+02  0.40000009762E+02 0.  0.
         12    1    3    3    0    0 -0.15793463036E+02  0.33004768841E+02 -0.41268978347E+01  0.36820911540E+02  0.00000000000E+00 0. -1.
         11    1    4    4    0    0  0.31730757297E+01  0.25609924867E+00  0.10229094915E+02  0.10713000488E+02  0.51100000000E-03 0. -1.
        -11    1    4    4    0    0 -0.26705395720E+01 -0.15576288458E+01 -0.78252366900E+01  0.84138171327E+01  0.51100000000E-03 0.  1.
        -12    1    4    4    0    0  0.15290926878E+02 -0.31703239244E+02  0.17230396100E+01  0.35240270839E+02  0.00000000000E+00 0.  1.
</event>
<event>
 8    1  0.2460897E-006  0.9118800E+02  0.7816164E-02  0.1184000E+00
        -11   -1    0    0    0    0  0.00000000000E+00  0.00000000000E+00  0.45593999997E+02  0.45594000000E+02  0.51100000000E-03 0. -1.
         11   -1    0    0    0    0 -0.00000000000E+00 -0.00000000000E+00 -0.45593999997E+02  0.45594000000E+02  0.51100000000E-03 0.  1.
         23    2    1    2    0    0  0.00000000000E+00  0.00000000000E+00  0.00000000000E+00  0.91188000000E+02  0.91188000000E+02 0.  0.
    9900012    2    3    3    0    0 -0.19579442243E+02  0.22404708238E+02  0.21689965645E+02  0.54367080410E+02  0.39999991411E+02 0.  0.
        -12    1    3    3    0    0  0.19579442243E+02 -0.22404708238E+02 -0.21689965645E+02  0.36820919590E+02  0.00000000000E+00 0.  1.
         11    1    4    4    0    0 -0.20853531017E+02  0.71605390468E+01  0.27974661228E+02  0.35619162629E+02  0.51100000000E-03 0. -1.
        -11    1    4    4    0    0  0.34969823387E+01  0.69457081586E+01  0.51234352813E+00  0.77932177856E+01  0.51100000000E-03 0.  1.
         12    1    4    4    0    0 -0.22228935640E+01  0.82984610326E+01 -0.67970391109E+01  0.10954699995E+02  0.00000000000E+00 0. -1.
</event>
<event>
 8    1  0.2460897E-006  0.9118800E+02  0.7816164E-02  0.1184000E+00
        -11   -1    0    0    0    0  0.00000000000E+00  0.00000000000E+00  0.45593999997E+02  0.45594000000E+02  0.51100000000E-03 0. -1.
         11   -1    0    0    0    0 -0.00000000000E+00 -0.00000000000E+00 -0.45593999997E+02  0.45594000000E+02  0.51100000000E-03 0.  1.
         23    2    1    2    0    0  0.00000000000E+00  0.00000000000E+00  0.00000000000E+00  0.91188000000E+02  0.91188000000E+02 0.  0.
    9900012    2    3    3    0    0  0.11267262415E+02 -0.22431184205E+02  0.26938273049E+02  0.54367084992E+02  0.40000001857E+02 0.  0.
        -12    1    3    3    0    0 -0.11267262415E+02  0.22431184205E+02 -0.26938273049E+02  0.36820915008E+02  0.00000000000E+00 0.  1.
         11    1    4    4    0    0 -0.60147411224E+01 -0.99036024403E+00  0.24128259743E+02  0.24886358566E+02  0.51100000000E-03 0. -1.
        -11    1    4    4    0    0  0.11318768801E+02 -0.17285270286E+02 -0.20106672959E+01  0.20759043313E+02  0.51100000000E-03 0.  1.
        -12    1    4    4    0    0  0.59632347362E+01 -0.41555536747E+01  0.48206806013E+01  0.87216831130E+01  0.00000000000E+00 0.  1.
</event>
<event>
 8    1  0.2460897E-006  0.9118800E+02  0.7816164E-02  0.1184000E+00
        -11   -1    0    0    0    0  0.00000000000E+00  0.00000000000E+00  0.45593999997E+02  0.45594000000E+02  0.51100000000E-03 0.  1.
         11   -1    0    0    0    0 -0.00000000000E+00 -0.00000000000E+00 -0.45593999997E+02  0.45594000000E+02  0.51100000000E-03 0. -1.
         23    2    1    2    0    0 -0.35527136788E-14  0.33306690739E-15  0.00000000000E+00  0.91188000000E+02  0.91188000000E+02 0.  0.
    9900012    2    3    3    0    0 -0.16554399483E+02 -0.33413116342E+00  0.32887957297E+02  0.54367115695E+02  0.40000071849E+02 0.  0.
         12    1    3    3    0    0  0.16554399483E+02  0.33413116342E+00 -0.32887957297E+02  0.36820884305E+02  0.00000000000E+00 0. -1.
         11    1    4    4    0    0 -0.87235285365E+01  0.11378049866E+02  0.15461779780E+02  0.21086170897E+02  0.51100000000E-03 0. -1.
        -11    1    4    4    0    0 -0.14075390188E+02  0.33343822081E+00  0.51749686502E+01  0.15000269691E+02  0.51100000000E-03 0.  1.
        -12    1    4    4    0    0  0.62445192421E+01 -0.12045619250E+02  0.12251208866E+02  0.18280675107E+02  0.00000000000E+00 0.  1.
</event>
<event>
 8    1  0.2460897E-006  0.9118800E+02  0.7816164E-02  0.1184000E+00
        -11   -1    0    0    0    0  0.00000000000E+00  0.00000000000E+00  0.45593999997E+02  0.45594000000E+02  0.51100000000E-03 0. -1.
         11   -1    0    0    0    0 -0.00000000000E+00 -0.00000000000E+00 -0.45593999997E+02  0.45594000000E+02  0.51100000000E-03 0.  1.
         23    2    1    2    0    0  0.17763568394E-14  0.00000000000E+00 -0.35527136788E-14  0.91188000000E+02  0.91188000000E+02 0.  0.
    9900012    2    3    3    0    0  0.80334235231E+01 -0.31399574598E+02 -0.17473136684E+02  0.54367086323E+02  0.40000004891E+02 0.  0.
         12    1    3    3    0    0 -0.80334235231E+01  0.31399574598E+02  0.17473136684E+02  0.36820913677E+02  0.00000000000E+00 0. -1.
         11    1    4    4    0    0 -0.94363075294E+01 -0.87189208551E+00 -0.28520370618E+01  0.98963736419E+01  0.51100000000E-03 0. -1.
        -11    1    4    4    0    0  0.95560555972E+00 -0.18331243203E+01  0.53987947502E+01  0.57810476365E+01  0.51100000000E-03 0.  1.
        -12    1    4    4    0    0  0.16514125493E+02 -0.28694558192E+02 -0.20019894372E+02  0.38689665045E+02  0.00000000000E+00 0.  1.
</event>
<event>
 8    1  0.2461758E-006  0.9118800E+02  0.7816164E-02  0.1184000E+00
        -11   -1    0    0    0    0  0.00000000000E+00  0.00000000000E+00  0.45593999997E+02  0.45594000000E+02  0.51100000000E-03 0.  1.
         11   -1    0    0    0    0 -0.00000000000E+00 -0.00000000000E+00 -0.45593999997E+02  0.45594000000E+02  0.51100000000E-03 0. -1.
         23    2    1    2    0    0  0.17763568394E-14  0.00000000000E+00 -0.71054273576E-14  0.91188000000E+02  0.91188000000E+02 0.  0.
    9900012    2    3    3    0    0  0.11808985873E+02 -0.34448988548E+01 -0.34705391205E+02  0.54367032411E+02  0.39999881988E+02 0.  0.
        -12    1    3    3    0    0 -0.11808985873E+02  0.34448988548E+01  0.34705391205E+02  0.36820967589E+02  0.00000000000E+00 0.  1.
         11    1    4    4    0    0  0.14478957653E+02  0.27815008464E+01 -0.21942719957E+02  0.26435958864E+02  0.51100000000E-03 0. -1.
        -11    1    4    4    0    0  0.86474899085E+01 -0.94650151121E+01 -0.46639106907E+01  0.13642494493E+02  0.51100000000E-03 0.  1.
        -12    1    4    4    0    0 -0.11317461688E+02  0.32386154108E+01 -0.80987605570E+01  0.14288579055E+02  0.00000000000E+00 0.  1.
</event>
<event>
 8    1  0.2460897E-006  0.9118800E+02  0.7816164E-02  0.1184000E+00
        -11   -1    0    0    0    0  0.00000000000E+00  0.00000000000E+00  0.45593999997E+02  0.45594000000E+02  0.51100000000E-03 0. -1.
         11   -1    0    0    0    0 -0.00000000000E+00 -0.00000000000E+00 -0.45593999997E+02  0.45594000000E+02  0.51100000000E-03 0.  1.
         23    2    1    2    0    0  0.00000000000E+00  0.88817841970E-15  0.35527136788E-14  0.91188000000E+02  0.91188000000E+02 0.  0.
    9900012    2    3    3    0    0 -0.18999552735E+02 -0.66853923143E+01  0.30823773679E+02  0.54367048107E+02  0.39999917768E+02 0.  0.
        -12    1    3    3    0    0  0.18999552735E+02  0.66853923143E+01 -0.30823773679E+02  0.36820951893E+02  0.00000000000E+00 0.  1.
         11    1    4    4    0    0  0.51321365673E+01 -0.67961524779E+00 -0.22899067274E+01  0.56607751864E+01  0.51100000000E-03 0.  1.
        -11    1    4    4    0    0 -0.38555469862E+01  0.93998051823E+01  0.11072677473E+02  0.15027500348E+02  0.51100000000E-03 0. -1.
         12    1    4    4    0    0 -0.20276142316E+02 -0.15405582249E+02  0.22041002933E+02  0.33678772572E+02  0.00000000000E+00 0. -1.
</event>
<event>
 8    1  0.2460897E-006  0.9118800E+02  0.7816164E-02  0.1184000E+00
        -11   -1    0    0    0    0  0.00000000000E+00  0.00000000000E+00  0.45593999997E+02  0.45594000000E+02  0.51100000000E-03 0.  1.
         11   -1    0    0    0    0 -0.00000000000E+00 -0.00000000000E+00 -0.45593999997E+02  0.45594000000E+02  0.51100000000E-03 0. -1.
         23    2    1    2    0    0 -0.35527136788E-14  0.00000000000E+00  0.35527136788E-14  0.91188000000E+02  0.91188000000E+02 0.  0.
    9900012    2    3    3    0    0 -0.28893068116E+02 -0.12412068546E+02  0.19154913292E+02  0.54367088360E+02  0.40000009535E+02 0.  0.
         12    1    3    3    0    0  0.28893068116E+02  0.12412068546E+02 -0.19154913292E+02  0.36820911640E+02  0.00000000000E+00 0. -1.
         11    1    4    4    0    0  0.21528340854E+01 -0.36451238558E+01  0.45832297064E+01  0.62392000550E+01  0.51100000000E-03 0. -1.
        -11    1    4    4    0    0 -0.27304803874E+01 -0.16131469149E+02  0.76589647126E+01  0.18064870904E+02  0.51100000000E-03 0.  1.
         12    1    4    4    0    0 -0.28315421814E+02  0.73645244588E+01  0.69127188726E+01  0.30063017401E+02  0.00000000000E+00 0. -1.
</event>
<event>
 8    1  0.2460897E-006  0.9118800E+02  0.7816164E-02  0.1184000E+00
        -11   -1    0    0    0    0  0.00000000000E+00  0.00000000000E+00  0.45593999997E+02  0.45594000000E+02  0.51100000000E-03 0. -1.
         11   -1    0    0    0    0 -0.00000000000E+00 -0.00000000000E+00 -0.45593999997E+02  0.45594000000E+02  0.51100000000E-03 0.  1.
         23    2    1    2    0    0  0.35527136788E-14  0.00000000000E+00  0.00000000000E+00  0.91188000000E+02  0.91188000000E+02 0.  0.
    9900012    2    3    3    0    0 -0.28601248072E+02  0.16229779741E+02 -0.16563397882E+02  0.54367037341E+02  0.39999893227E+02 0.  0.
         12    1    3    3    0    0  0.28601248072E+02 -0.16229779741E+02  0.16563397882E+02  0.36820962659E+02  0.00000000000E+00 0. -1.
         11    1    4    4    0    0 -0.58319207853E+01  0.20337099977E+01 -0.59071394473E-01  0.61766306423E+01  0.51100000000E-03 0. -1.
        -11    1    4    4    0    0 -0.24789349164E+02  0.44456858377E+01  0.39010014513E+01  0.25485167591E+02  0.51100000000E-03 0.  1.
        -12    1    4    4    0    0  0.20200218767E+01  0.97503839050E+01 -0.20405327939E+02  0.22705239108E+02  0.00000000000E+00 0.  1.
</event>
<event>
 8    1  0.2460897E-006  0.9118800E+02  0.7816164E-02  0.1184000E+00
        -11   -1    0    0    0    0  0.00000000000E+00  0.00000000000E+00  0.45593999997E+02  0.45594000000E+02  0.51100000000E-03 0.  1.
         11   -1    0    0    0    0 -0.00000000000E+00 -0.00000000000E+00 -0.45593999997E+02  0.45594000000E+02  0.51100000000E-03 0. -1.
         23    2    1    2    0    0  0.17763568394E-14  0.88817841970E-15  0.71054273576E-14  0.91188000000E+02  0.91188000000E+02 0.  0.
    9900012    2    3    3    0    0 -0.11427511130E+02 -0.64316773076E+01 -0.34406758907E+02  0.54367088250E+02  0.40000009283E+02 0.  0.
        -12    1    3    3    0    0  0.11427511130E+02  0.64316773076E+01  0.34406758907E+02  0.36820911750E+02  0.00000000000E+00 0.  1.
         11    1    4    4    0    0 -0.13886918592E+02  0.29774446313E+01 -0.16442576776E+02  0.21727172293E+02  0.51100000000E-03 0. -1.
        -11    1    4    4    0    0  0.16136145291E+01 -0.77991735650E+01 -0.24548986193E+02  0.25808595148E+02  0.51100000000E-03 0.  1.
         12    1    4    4    0    0  0.84579293272E+00 -0.16099483739E+01  0.65848040627E+01  0.68313208090E+01  0.00000000000E+00 0. -1.
</event>
<event>
 8    1  0.2460897E-006  0.9118800E+02  0.7816164E-02  0.1184000E+00
        -11   -1    0    0    0    0  0.00000000000E+00  0.00000000000E+00  0.45593999997E+02  0.45594000000E+02  0.51100000000E-03 0. -1.
         11   -1    0    0    0    0 -0.00000000000E+00 -0.00000000000E+00 -0.45593999997E+02  0.45594000000E+02  0.51100000000E-03 0.  1.
         23    2    1    2    0    0 -0.88817841970E-15  0.00000000000E+00  0.88817841970E-15  0.91188000000E+02  0.91188000000E+02 0.  0.
    9900012    2    3    3    0    0 -0.78590290570E+01 -0.35319481440E+02  0.68227412171E+01  0.54367083327E+02  0.39999998061E+02 0.  0.
         12    1    3    3    0    0  0.78590290570E+01  0.35319481440E+02 -0.68227412171E+01  0.36820916673E+02  0.00000000000E+00 0. -1.
         11    1    4    4    0    0  0.35915841650E+01  0.15282787173E+01  0.19681069690E+01  0.43713336586E+01  0.51100000000E-03 0. -1.
        -11    1    4    4    0    0 -0.19029674620E+02 -0.18491179346E+02  0.11686871208E+02  0.28993709466E+02  0.51100000000E-03 0.  1.
         12    1    4    4    0    0  0.75790613975E+01 -0.18356580812E+02 -0.68322369602E+01  0.21002040202E+02  0.00000000000E+00 0. -1.
</event>
<event>
 8    1  0.2460897E-006  0.9118800E+02  0.7816164E-02  0.1184000E+00
        -11   -1    0    0    0    0  0.00000000000E+00  0.00000000000E+00  0.45593999997E+02  0.45594000000E+02  0.51100000000E-03 0. -1.
         11   -1    0    0    0    0 -0.00000000000E+00 -0.00000000000E+00 -0.45593999997E+02  0.45594000000E+02  0.51100000000E-03 0.  1.
         23    2    1    2    0    0  0.17763568394E-14  0.00000000000E+00  0.00000000000E+00  0.91188000000E+02  0.91188000000E+02 0.  0.
    9900012    2    3    3    0    0 -0.96663504965E+01 -0.16785001597E+02  0.31314598093E+02  0.54367100171E+02  0.40000036459E+02 0.  0.
        -12    1    3    3    0    0  0.96663504965E+01  0.16785001597E+02 -0.31314598093E+02  0.36820899829E+02  0.00000000000E+00 0.  1.
         11    1    4    4    0    0  0.23547585113E+01  0.36830507298E+01  0.18719384158E+02  0.19223035500E+02  0.51100000000E-03 0. -1.
        -11    1    4    4    0    0 -0.10070864683E+02 -0.15013154029E+02 -0.31648542632E+01  0.18353021881E+02  0.51100000000E-03 0.  1.
         12    1    4    4    0    0 -0.19502443244E+01 -0.54548982979E+01  0.15760068198E+02  0.16791042790E+02  0.00000000000E+00 0. -1.
</event>
<event>
 8    1  0.2460897E-006  0.9118800E+02  0.7816164E-02  0.1184000E+00
        -11   -1    0    0    0    0  0.00000000000E+00  0.00000000000E+00  0.45593999997E+02  0.45594000000E+02  0.51100000000E-03 0.  1.
         11   -1    0    0    0    0 -0.00000000000E+00 -0.00000000000E+00 -0.45593999997E+02  0.45594000000E+02  0.51100000000E-03 0. -1.
         23    2    1    2    0    0  0.00000000000E+00 -0.71054273576E-14  0.00000000000E+00  0.91188000000E+02  0.91188000000E+02 0.  0.
    9900012    2    3    3    0    0  0.19933935554E+02 -0.23792734054E+02 -0.19807163823E+02  0.54367085846E+02  0.40000003804E+02 0.  0.
        -12    1    3    3    0    0 -0.19933935554E+02  0.23792734054E+02  0.19807163823E+02  0.36820914154E+02  0.00000000000E+00 0.  1.
         11    1    4    4    0    0  0.23883757138E+02 -0.87144153138E+01 -0.11656232290E+02  0.27968600979E+02  0.51100000000E-03 0. -1.
        -11    1    4    4    0    0  0.58004902979E+01  0.12672873113E+01 -0.31428452920E+01  0.67178256613E+01  0.51100000000E-03 0.  1.
        -12    1    4    4    0    0 -0.97503118817E+01 -0.16345606051E+02 -0.50080862403E+01  0.19680659206E+02  0.00000000000E+00 0.  1.
</event>
<event>
 8    1  0.2460897E-006  0.9118800E+02  0.7816164E-02  0.1184000E+00
        -11   -1    0    0    0    0  0.00000000000E+00  0.00000000000E+00  0.45593999997E+02  0.45594000000E+02  0.51100000000E-03 0.  1.
         11   -1    0    0    0    0 -0.00000000000E+00 -0.00000000000E+00 -0.45593999997E+02  0.45594000000E+02  0.51100000000E-03 0. -1.
         23    2    1    2    0    0  0.00000000000E+00  0.35527136788E-14  0.88817841970E-15  0.91188000000E+02  0.91188000000E+02 0.  0.
    9900012    2    3    3    0    0 -0.31339859509E+02  0.17752036617E+02  0.76457925294E+01  0.54367085542E+02  0.40000003110E+02 0.  0.
        -12    1    3    3    0    0  0.31339859509E+02 -0.17752036617E+02 -0.76457925294E+01  0.36820914458E+02  0.00000000000E+00 0.  1.
         11    1    4    4    0    0 -0.99138972504E+01 -0.94464527698E+01  0.68538566020E+01  0.15313268077E+02  0.51100000000E-03 0. -1.
        -11    1    4    4    0    0 -0.77513166123E+01  0.68866427656E+01  0.84740379997E+01  0.13390970020E+02  0.51100000000E-03 0.  1.
         12    1    4    4    0    0 -0.13674645647E+02  0.20311846621E+02 -0.76821020723E+01  0.25662847444E+02  0.00000000000E+00 0. -1.
</event>
<event>
 8    1  0.2460897E-006  0.9118800E+02  0.7816164E-02  0.1184000E+00
        -11   -1    0    0    0    0  0.00000000000E+00  0.00000000000E+00  0.45593999997E+02  0.45594000000E+02  0.51100000000E-03 0.  1.
         11   -1    0    0    0    0 -0.00000000000E+00 -0.00000000000E+00 -0.45593999997E+02  0.45594000000E+02  0.51100000000E-03 0. -1.
         23    2    1    2    0    0  0.17763568394E-14  0.00000000000E+00  0.00000000000E+00  0.91188000000E+02  0.91188000000E+02 0.  0.
    9900012    2    3    3    0    0 -0.15506846760E+02  0.29368159738E+02  0.15900676329E+02  0.54367046583E+02  0.39999914295E+02 0.  0.
         12    1    3    3    0    0  0.15506846760E+02 -0.29368159738E+02 -0.15900676329E+02  0.36820953417E+02  0.00000000000E+00 0. -1.
         11    1    4    4    0    0 -0.22813154759E+01  0.90388808374E+00 -0.88207702208E+01  0.91557305289E+01  0.51100000000E-03 0. -1.
        -11    1    4    4    0    0  0.26823689109E+01  0.22525323759E+01  0.11138135499E+02  0.11675918283E+02  0.51100000000E-03 0.  1.
        -12    1    4    4    0    0 -0.15907900195E+02  0.26211739279E+02  0.13583311050E+02  0.33535397771E+02  0.00000000000E+00 0.  1.
</event>
<event>
 8    1  0.2460897E-006  0.9118800E+02  0.7816164E-02  0.1184000E+00
        -11   -1    0    0    0    0  0.00000000000E+00  0.00000000000E+00  0.45593999997E+02  0.45594000000E+02  0.51100000000E-03 0.  1.
         11   -1    0    0    0    0 -0.00000000000E+00 -0.00000000000E+00 -0.45593999997E+02  0.45594000000E+02  0.51100000000E-03 0. -1.
         23    2    1    2    0    0  0.00000000000E+00 -0.35527136788E-14  0.44408920985E-15  0.91188000000E+02  0.91188000000E+02 0.  0.
    9900012    2    3    3    0    0  0.29231194009E+02 -0.22386041070E+02 -0.42187209965E+00  0.54367142947E+02  0.40000133977E+02 0.  0.
         12    1    3    3    0    0 -0.29231194009E+02  0.22386041070E+02  0.42187209965E+00  0.36820857053E+02  0.00000000000E+00 0. -1.
         11    1    4    4    0    0  0.11503906860E+02  0.42161928112E+01  0.53001196797E+00  0.12263648226E+02  0.51100000000E-03 0. -1.
        -11    1    4    4    0    0  0.13481640783E+02 -0.15099164199E+02 -0.13679120271E+02  0.24430671897E+02  0.51100000000E-03 0.  1.
        -12    1    4    4    0    0  0.42456463666E+01 -0.11503069682E+02  0.12727236203E+02  0.17672822824E+02  0.00000000000E+00 0.  1.
</event>
<event>
 8    1  0.2460897E-006  0.9118800E+02  0.7816164E-02  0.1184000E+00
        -11   -1    0    0    0    0  0.00000000000E+00  0.00000000000E+00  0.45593999997E+02  0.45594000000E+02  0.51100000000E-03 0.  1.
         11   -1    0    0    0    0 -0.00000000000E+00 -0.00000000000E+00 -0.45593999997E+02  0.45594000000E+02  0.51100000000E-03 0. -1.
         23    2    1    2    0    0  0.17763568394E-14 -0.35527136788E-14  0.71054273576E-14  0.91188000000E+02  0.91188000000E+02 0.  0.
    9900012    2    3    3    0    0 -0.97485906757E+01  0.18743058325E+02 -0.30156919173E+02  0.54367122368E+02  0.40000087063E+02 0.  0.
        -12    1    3    3    0    0  0.97485906757E+01 -0.18743058325E+02  0.30156919173E+02  0.36820877632E+02  0.00000000000E+00 0.  1.
         11    1    4    4    0    0 -0.63219157116E+01  0.10285770679E+02 -0.13162330753E+02  0.17860869179E+02  0.51100000000E-03 0. -1.
        -11    1    4    4    0    0  0.96810020162E+01  0.11490080200E+02 -0.17472092545E+02  0.23043822625E+02  0.51100000000E-03 0.  1.
         12    1    4    4    0    0 -0.13107676980E+02 -0.30327925541E+01  0.47750412439E+00  0.13462430564E+02  0.00000000000E+00 0. -1.
</event>
<event>
 8    1  0.2460897E-006  0.9118800E+02  0.7816164E-02  0.1184000E+00
        -11   -1    0    0    0    0  0.00000000000E+00  0.00000000000E+00  0.45593999997E+02  0.45594000000E+02  0.51100000000E-03 0. -1.
         11   -1    0    0    0    0 -0.00000000000E+00 -0.00000000000E+00 -0.45593999997E+02  0.45594000000E+02  0.51100000000E-03 0.  1.
         23    2    1    2    0    0  0.17763568394E-14  0.00000000000E+00  0.00000000000E+00  0.91188000000E+02  0.91188000000E+02 0.  0.
    9900012    2    3    3    0    0 -0.12122546344E+02 -0.29265687743E+02  0.18770815364E+02  0.54367080425E+02  0.39999991445E+02 0.  0.
        -12    1    3    3    0    0  0.12122546344E+02  0.29265687743E+02 -0.18770815364E+02  0.36820919575E+02  0.00000000000E+00 0.  1.
         11    1    4    4    0    0 -0.17153018942E+02 -0.25700459991E+02  0.78713443234E+01  0.31885698429E+02  0.51100000000E-03 0. -1.
        -11    1    4    4    0    0  0.11928075734E+01 -0.63923676744E+01 -0.34497992128E+01  0.73611323356E+01  0.51100000000E-03 0.  1.
        -12    1    4    4    0    0  0.38376650246E+01  0.28271399229E+01  0.14349270253E+02  0.15120249660E+02  0.00000000000E+00 0.  1.
</event>
<event>
 8    1  0.2460897E-006  0.9118800E+02  0.7816164E-02  0.1184000E+00
        -11   -1    0    0    0    0  0.00000000000E+00  0.00000000000E+00  0.45593999997E+02  0.45594000000E+02  0.51100000000E-03 0. -1.
         11   -1    0    0    0    0 -0.00000000000E+00 -0.00000000000E+00 -0.45593999997E+02  0.45594000000E+02  0.51100000000E-03 0.  1.
         23    2    1    2    0    0  0.13322676296E-14  0.71054273576E-14  0.17763568394E-14  0.91188000000E+02  0.91188000000E+02 0.  0.
    9900012    2    3    3    0    0 -0.32999650413E+01  0.35900419473E+02  0.74867812734E+01  0.54367057841E+02  0.39999939960E+02 0.  0.
        -12    1    3    3    0    0  0.32999650413E+01 -0.35900419473E+02 -0.74867812734E+01  0.36820942159E+02  0.00000000000E+00 0.  1.
         11    1    4    4    0    0  0.47533392644E+00 -0.91505961542E+00 -0.65372571941E+00  0.12209152381E+01  0.51100000000E-03 0. -1.
        -11    1    4    4    0    0  0.11101707610E+02  0.61836984381E+01 -0.84557429923E+01  0.15263866746E+02  0.51100000000E-03 0.  1.
         12    1    4    4    0    0 -0.14877006577E+02  0.30631780651E+02  0.16596249985E+02  0.37882275857E+02  0.00000000000E+00 0. -1.
</event>
<event>
 8    1  0.2460897E-006  0.9118800E+02  0.7816164E-02  0.1184000E+00
        -11   -1    0    0    0    0  0.00000000000E+00  0.00000000000E+00  0.45593999997E+02  0.45594000000E+02  0.51100000000E-03 0.  1.
         11   -1    0    0    0    0 -0.00000000000E+00 -0.00000000000E+00 -0.45593999997E+02  0.45594000000E+02  0.51100000000E-03 0. -1.
         23    2    1    2    0    0  0.00000000000E+00 -0.88817841970E-15 -0.17763568394E-14  0.91188000000E+02  0.91188000000E+02 0.  0.
    9900012    2    3    3    0    0  0.34409405198E+02 -0.37940654783E+01 -0.12544481486E+02  0.54367270584E+02  0.40000424949E+02 0.  0.
        -12    1    3    3    0    0 -0.34409405198E+02  0.37940654783E+01  0.12544481486E+02  0.36820729416E+02  0.00000000000E+00 0.  1.
         11    1    4    4    0    0  0.19013531043E+02 -0.78081029560E+01 -0.13178418290E+02  0.24416214764E+02  0.51100000000E-03 0. -1.
        -11    1    4    4    0    0  0.20491232061E+02 -0.40343163854E+00  0.59751361276E+01  0.21348433209E+02  0.51100000000E-03 0.  1.
         12    1    4    4    0    0 -0.50953579060E+01  0.44174691162E+01 -0.53411993239E+01  0.86026226118E+01  0.00000000000E+00 0. -1.
</event>
<event>
 8    1  0.2460897E-006  0.9118800E+02  0.7816164E-02  0.1184000E+00
        -11   -1    0    0    0    0  0.00000000000E+00  0.00000000000E+00  0.45593999997E+02  0.45594000000E+02  0.51100000000E-03 0.  1.
         11   -1    0    0    0    0 -0.00000000000E+00 -0.00000000000E+00 -0.45593999997E+02  0.45594000000E+02  0.51100000000E-03 0. -1.
         23    2    1    2    0    0  0.35527136788E-14  0.35527136788E-14  0.00000000000E+00  0.91188000000E+02  0.91188000000E+02 0.  0.
    9900012    2    3    3    0    0 -0.23157880007E+02 -0.23065485026E+02  0.16955070663E+02  0.54367103391E+02  0.40000043801E+02 0.  0.
        -12    1    3    3    0    0  0.23157880007E+02  0.23065485026E+02 -0.16955070663E+02  0.36820896609E+02  0.00000000000E+00 0.  1.
         11    1    4    4    0    0 -0.10306609743E+02 -0.74015004489E+01  0.13665483407E+02  0.18648159435E+02  0.51100000000E-03 0. -1.
        -11    1    4    4    0    0  0.15791457593E+01 -0.16147502273E+02  0.10754132538E+02  0.19465017285E+02  0.51100000000E-03 0.  1.
         12    1    4    4    0    0 -0.14430416024E+02  0.48351769601E+00 -0.74645452830E+01  0.16253926672E+02  0.00000000000E+00 0. -1.
</event>
<event>
 8    1  0.2460897E-006  0.9118800E+02  0.7816164E-02  0.1184000E+00
        -11   -1    0    0    0    0  0.00000000000E+00  0.00000000000E+00  0.45593999997E+02  0.45594000000E+02  0.51100000000E-03 0. -1.
         11   -1    0    0    0    0 -0.00000000000E+00 -0.00000000000E+00 -0.45593999997E+02  0.45594000000E+02  0.51100000000E-03 0.  1.
         23    2    1    2    0    0  0.00000000000E+00 -0.17763568394E-14  0.71054273576E-14  0.91188000000E+02  0.91188000000E+02 0.  0.
    9900012    2    3    3    0    0 -0.99258907588E+01 -0.10568378632E+02  0.33846217709E+02  0.54367076771E+02  0.39999983115E+02 0.  0.
        -12    1    3    3    0    0  0.99258907588E+01  0.10568378632E+02 -0.33846217709E+02  0.36820923229E+02  0.00000000000E+00 0.  1.
         11    1    4    4    0    0  0.35548105706E+01 -0.11835712687E+02  0.30429512853E+02  0.32843203646E+02  0.51100000000E-03 0. -1.
        -11    1    4    4    0    0  0.24996744005E+01  0.36991127887E+01 -0.13625495661E+01  0.46677991723E+01  0.51100000000E-03 0.  1.
        -12    1    4    4    0    0 -0.15980375730E+02 -0.24317787333E+01  0.47792544220E+01  0.16856073953E+02  0.00000000000E+00 0.  1.
</event>
<event>
 8    1  0.2460897E-006  0.9118800E+02  0.7816164E-02  0.1184000E+00
        -11   -1    0    0    0    0  0.00000000000E+00  0.00000000000E+00  0.45593999997E+02  0.45594000000E+02  0.51100000000E-03 0.  1.
         11   -1    0    0    0    0 -0.00000000000E+00 -0.00000000000E+00 -0.45593999997E+02  0.45594000000E+02  0.51100000000E-03 0. -1.
         23    2    1    2    0    0 -0.35527136788E-14  0.10658141036E-13 -0.88817841970E-15  0.91188000000E+02  0.91188000000E+02 0.  0.
    9900012    2    3    3    0    0 -0.18068994059E+02  0.31751749339E+02  0.45952607400E+01  0.54367101672E+02  0.40000039882E+02 0.  0.
         12    1    3    3    0    0  0.18068994059E+02 -0.31751749339E+02 -0.45952607400E+01  0.36820898328E+02  0.00000000000E+00 0. -1.
         11    1    4    4    0    0 -0.27201652703E+01  0.33655797290E+01 -0.88856808496E+01  0.98834078350E+01  0.51100000000E-03 0. -1.
        -11    1    4    4    0    0  0.37971484949E+01 -0.42271444165E+00  0.87796394757E+01  0.95749200402E+01  0.51100000000E-03 0.  1.
        -12    1    4    4    0    0 -0.19145977284E+02  0.28808884052E+02  0.47013021140E+01  0.34908773797E+02  0.00000000000E+00 0.  1.
</event>
<event>
 8    1  0.2460897E-006  0.9118800E+02  0.7816164E-02  0.1184000E+00
        -11   -1    0    0    0    0  0.00000000000E+00  0.00000000000E+00  0.45593999997E+02  0.45594000000E+02  0.51100000000E-03 0.  1.
         11   -1    0    0    0    0 -0.00000000000E+00 -0.00000000000E+00 -0.45593999997E+02  0.45594000000E+02  0.51100000000E-03 0. -1.
         23    2    1    2    0    0  0.00000000000E+00 -0.35527136788E-14  0.00000000000E+00  0.91188000000E+02  0.91188000000E+02 0.  0.
    9900012    2    3    3    0    0  0.17136987104E+02  0.22383920752E+02 -0.23686729595E+02  0.54367117417E+02  0.40000075776E+02 0.  0.
        -12    1    3    3    0    0 -0.17136987104E+02 -0.22383920752E+02  0.23686729595E+02  0.36820882583E+02  0.00000000000E+00 0.  1.
         11    1    4    4    0    0  0.27929099661E+01  0.29445582413E+02 -0.23354613455E+02  0.37686610880E+02  0.51100000000E-03 0. -1.
        -11    1    4    4    0    0  0.69141877554E+01 -0.58196087876E+01 -0.11196941258E+01  0.91064567178E+01  0.51100000000E-03 0.  1.
         12    1    4    4    0    0  0.74298893829E+01 -0.12420528737E+01  0.78757798540E+00  0.75740498194E+01  0.00000000000E+00 0. -1.
</event>
<event>
 8    1  0.2460897E-006  0.9118800E+02  0.7816164E-02  0.1184000E+00
        -11   -1    0    0    0    0  0.00000000000E+00  0.00000000000E+00  0.45593999997E+02  0.45594000000E+02  0.51100000000E-03 0.  1.
         11   -1    0    0    0    0 -0.00000000000E+00 -0.00000000000E+00 -0.45593999997E+02  0.45594000000E+02  0.51100000000E-03 0. -1.
         23    2    1    2    0    0  0.00000000000E+00  0.17763568394E-14  0.53290705182E-14  0.91188000000E+02  0.91188000000E+02 0.  0.
    9900012    2    3    3    0    0  0.33540381043E+02  0.10552080350E+02 -0.10930532938E+02  0.54367080531E+02  0.39999991686E+02 0.  0.
        -12    1    3    3    0    0 -0.33540381043E+02 -0.10552080350E+02  0.10930532938E+02  0.36820919469E+02  0.00000000000E+00 0.  1.
         11    1    4    4    0    0  0.63594924129E+01  0.84283044566E+01  0.84730681036E+01  0.13537811607E+02  0.51100000000E-03 0. -1.
        -11    1    4    4    0    0  0.14082335472E+02  0.38835186706E+01  0.29103477567E+01  0.14895100333E+02  0.51100000000E-03 0.  1.
         12    1    4    4    0    0  0.13098553159E+02 -0.17597427774E+01 -0.22313948798E+02  0.25934168591E+02  0.00000000000E+00 0. -1.
</event>
<event>
 8    1  0.2460897E-006  0.9118800E+02  0.7816164E-02  0.1184000E+00
        -11   -1    0    0    0    0  0.00000000000E+00  0.00000000000E+00  0.45593999997E+02  0.45594000000E+02  0.51100000000E-03 0.  1.
         11   -1    0    0    0    0 -0.00000000000E+00 -0.00000000000E+00 -0.45593999997E+02  0.45594000000E+02  0.51100000000E-03 0. -1.
         23    2    1    2    0    0  0.00000000000E+00  0.00000000000E+00  0.71054273576E-14  0.91188000000E+02  0.91188000000E+02 0.  0.
    9900012    2    3    3    0    0 -0.27773317160E+02 -0.14148450079E+02  0.19602129541E+02  0.54367091969E+02  0.40000017761E+02 0.  0.
         12    1    3    3    0    0  0.27773317160E+02  0.14148450079E+02 -0.19602129541E+02  0.36820908031E+02  0.00000000000E+00 0. -1.
         11    1    4    4    0    0  0.41063725254E+01  0.16495457098E+01  0.32280550837E+01  0.54775575077E+01  0.51100000000E-03 0. -1.
        -11    1    4    4    0    0 -0.15906595510E+02  0.50780167439E+01 -0.20023346346E+01  0.16817115657E+02  0.51100000000E-03 0.  1.
        -12    1    4    4    0    0 -0.15973094175E+02 -0.20876012533E+02  0.18376409092E+02  0.32072418804E+02  0.00000000000E+00 0.  1.
</event>
<event>
 8    1  0.2460897E-006  0.9118800E+02  0.7816164E-02  0.1184000E+00
        -11   -1    0    0    0    0  0.00000000000E+00  0.00000000000E+00  0.45593999997E+02  0.45594000000E+02  0.51100000000E-03 0.  1.
         11   -1    0    0    0    0 -0.00000000000E+00 -0.00000000000E+00 -0.45593999997E+02  0.45594000000E+02  0.51100000000E-03 0. -1.
         23    2    1    2    0    0  0.17763568394E-14  0.00000000000E+00  0.35527136788E-14  0.91188000000E+02  0.91188000000E+02 0.  0.
    9900012    2    3    3    0    0  0.81188014111E+01 -0.29202974219E+02 -0.20905760832E+02  0.54367089154E+02  0.40000011344E+02 0.  0.
        -12    1    3    3    0    0 -0.81188014111E+01  0.29202974219E+02  0.20905760832E+02  0.36820910846E+02  0.00000000000E+00 0.  1.
         11    1    4    4    0    0  0.28492744535E+01 -0.22640092378E+02 -0.11444651933E+02  0.25527871159E+02  0.51100000000E-03 0. -1.
        -11    1    4    4    0    0 -0.85144113652E+01  0.14408099891E+01 -0.95827460123E+01  0.12899618433E+02  0.51100000000E-03 0.  1.
         12    1    4    4    0    0  0.13783938323E+02 -0.80036918301E+01  0.12163711344E+00  0.15939599562E+02  0.00000000000E+00 0. -1.
</event>
<event>
 8    1  0.2460897E-006  0.9118800E+02  0.7816164E-02  0.1184000E+00
        -11   -1    0    0    0    0  0.00000000000E+00  0.00000000000E+00  0.45593999997E+02  0.45594000000E+02  0.51100000000E-03 0. -1.
         11   -1    0    0    0    0 -0.00000000000E+00 -0.00000000000E+00 -0.45593999997E+02  0.45594000000E+02  0.51100000000E-03 0.  1.
         23    2    1    2    0    0  0.00000000000E+00 -0.13322676296E-14  0.35527136788E-14  0.91188000000E+02  0.91188000000E+02 0.  0.
    9900012    2    3    3    0    0 -0.21875332851E+02 -0.22745837634E+01  0.29530922476E+02  0.54367091525E+02  0.40000016749E+02 0.  0.
        -12    1    3    3    0    0  0.21875332851E+02  0.22745837634E+01 -0.29530922476E+02  0.36820908475E+02  0.00000000000E+00 0.  1.
         11    1    4    4    0    0 -0.26659176355E+01 -0.39409325599E+01  0.23375150247E+01  0.53011360134E+01  0.51100000000E-03 0. -1.
        -11    1    4    4    0    0 -0.22792013263E+02  0.14048552728E+02  0.12586383385E+02  0.29584704652E+02  0.51100000000E-03 0.  1.
        -12    1    4    4    0    0  0.35825980484E+01 -0.12382203932E+02  0.14607024066E+02  0.19481250860E+02  0.00000000000E+00 0.  1.
</event>
<event>
 8    1  0.2460897E-006  0.9118800E+02  0.7816164E-02  0.1184000E+00
        -11   -1    0    0    0    0  0.00000000000E+00  0.00000000000E+00  0.45593999997E+02  0.45594000000E+02  0.51100000000E-03 0.  1.
         11   -1    0    0    0    0 -0.00000000000E+00 -0.00000000000E+00 -0.45593999997E+02  0.45594000000E+02  0.51100000000E-03 0. -1.
         23    2    1    2    0    0 -0.35527136788E-14  0.00000000000E+00 -0.35527136788E-14  0.91188000000E+02  0.91188000000E+02 0.  0.
    9900012    2    3    3    0    0  0.27544500231E+02  0.10565406841E+02  0.22033045709E+02  0.54367049198E+02  0.39999920258E+02 0.  0.
         12    1    3    3    0    0 -0.27544500231E+02 -0.10565406841E+02 -0.22033045709E+02  0.36820950802E+02  0.00000000000E+00 0. -1.
         11    1    4    4    0    0  0.21092967423E+02 -0.46318722443E+01  0.44629407372E+01  0.22051878729E+02  0.51100000000E-03 0.  1.
        -11    1    4    4    0    0 -0.15143393714E+01  0.55928153171E+01 -0.42454859666E+01  0.71831022725E+01  0.51100000000E-03 0. -1.
        -12    1    4    4    0    0  0.79658721797E+01  0.96044637683E+01  0.21815590939E+02  0.25132068197E+02  0.00000000000E+00 0.  1.
</event>
<event>
 8    1  0.2460897E-006  0.9118800E+02  0.7816164E-02  0.1184000E+00
        -11   -1    0    0    0    0  0.00000000000E+00  0.00000000000E+00  0.45593999997E+02  0.45594000000E+02  0.51100000000E-03 0.  1.
         11   -1    0    0    0    0 -0.00000000000E+00 -0.00000000000E+00 -0.45593999997E+02  0.45594000000E+02  0.51100000000E-03 0. -1.
         23    2    1    2    0    0  0.00000000000E+00 -0.71054273576E-14  0.17763568394E-14  0.91188000000E+02  0.91188000000E+02 0.  0.
    9900012    2    3    3    0    0 -0.49232790582E+01  0.34158204058E+02 -0.12835737232E+02  0.54367112837E+02  0.40000065335E+02 0.  0.
        -12    1    3    3    0    0  0.49232790582E+01 -0.34158204058E+02  0.12835737232E+02  0.36820887163E+02  0.00000000000E+00 0.  1.
         11    1    4    4    0    0 -0.62319994461E+01  0.26498384460E+00 -0.20254088154E+01  0.65582249629E+01  0.51100000000E-03 0. -1.
        -11    1    4    4    0    0  0.38698594447E+01 -0.13744207255E+01 -0.11738570778E+02  0.12436192690E+02  0.51100000000E-03 0.  1.
        -12    1    4    4    0    0 -0.25611390568E+01  0.35267640939E+02  0.92824236162E+00  0.35372695184E+02  0.00000000000E+00 0.  1.
</event>
<event>
 8    1  0.2460897E-006  0.9118800E+02  0.7816164E-02  0.1184000E+00
        -11   -1    0    0    0    0  0.00000000000E+00  0.00000000000E+00  0.45593999997E+02  0.45594000000E+02  0.51100000000E-03 0.  1.
         11   -1    0    0    0    0 -0.00000000000E+00 -0.00000000000E+00 -0.45593999997E+02  0.45594000000E+02  0.51100000000E-03 0. -1.
         23    2    1    2    0    0 -0.88817841970E-15  0.00000000000E+00 -0.35527136788E-14  0.91188000000E+02  0.91188000000E+02 0.  0.
    9900012    2    3    3    0    0  0.53800972651E+01 -0.28876911552E+02 -0.22202708433E+02  0.54367058552E+02  0.39999941580E+02 0.  0.
        -12    1    3    3    0    0 -0.53800972651E+01  0.28876911552E+02  0.22202708433E+02  0.36820941448E+02  0.00000000000E+00 0.  1.
         11    1    4    4    0    0 -0.10080158902E+01 -0.16204669657E+01  0.90920406193E-02  0.19084266159E+01  0.51100000000E-03 0. -1.
        -11    1    4    4    0    0  0.97569095038E+01  0.11962589777E+01  0.65887138083E+01  0.11833827298E+02  0.51100000000E-03 0.  1.
         12    1    4    4    0    0 -0.33687963484E+01 -0.28452703564E+02 -0.28800514282E+02  0.40624804638E+02  0.00000000000E+00 0. -1.
</event>
<event>
 8    1  0.2460897E-006  0.9118800E+02  0.7816164E-02  0.1184000E+00
        -11   -1    0    0    0    0  0.00000000000E+00  0.00000000000E+00  0.45593999997E+02  0.45594000000E+02  0.51100000000E-03 0.  1.
         11   -1    0    0    0    0 -0.00000000000E+00 -0.00000000000E+00 -0.45593999997E+02  0.45594000000E+02  0.51100000000E-03 0. -1.
         23    2    1    2    0    0  0.00000000000E+00  0.00000000000E+00  0.22204460493E-14  0.91188000000E+02  0.91188000000E+02 0.  0.
    9900012    2    3    3    0    0  0.28177328859E+02 -0.23521943508E+02  0.29216713096E+01  0.54367084052E+02  0.39999999714E+02 0.  0.
        -12    1    3    3    0    0 -0.28177328859E+02  0.23521943508E+02 -0.29216713096E+01  0.36820915948E+02  0.00000000000E+00 0.  1.
         11    1    4    4    0    0  0.95279293748E+01 -0.96953909458E+01  0.23751862289E+01  0.13799404105E+02  0.51100000000E-03 0. -1.
        -11    1    4    4    0    0  0.19071934227E+02 -0.16914122306E+01  0.13024452732E+02  0.23156768335E+02  0.51100000000E-03 0.  1.
        -12    1    4    4    0    0 -0.42253474346E+00 -0.12135140331E+02 -0.12477967651E+02  0.17410911612E+02  0.00000000000E+00 0.  1.
</event>
<event>
 8    1  0.2460897E-006  0.9118800E+02  0.7816164E-02  0.1184000E+00
        -11   -1    0    0    0    0  0.00000000000E+00  0.00000000000E+00  0.45593999997E+02  0.45594000000E+02  0.51100000000E-03 0. -1.
         11   -1    0    0    0    0 -0.00000000000E+00 -0.00000000000E+00 -0.45593999997E+02  0.45594000000E+02  0.51100000000E-03 0.  1.
         23    2    1    2    0    0  0.00000000000E+00  0.66613381478E-15  0.00000000000E+00  0.91188000000E+02  0.91188000000E+02 0.  0.
    9900012    2    3    3    0    0 -0.31074030783E+02 -0.71794958192E+00 -0.19740023367E+02  0.54367090679E+02  0.40000014821E+02 0.  0.
         12    1    3    3    0    0  0.31074030783E+02  0.71794958192E+00  0.19740023367E+02  0.36820909321E+02  0.00000000000E+00 0. -1.
         11    1    4    4    0    0  0.32063143626E+01 -0.62845300150E+01  0.15508928578E+00  0.70568989116E+01  0.51100000000E-03 0. -1.
        -11    1    4    4    0    0 -0.68521565238E+01  0.11227335363E+01 -0.18192148512E+02  0.19472207049E+02  0.51100000000E-03 0.  1.
        -12    1    4    4    0    0 -0.27428188622E+02  0.44438468968E+01 -0.17029641404E+01  0.27837984718E+02  0.00000000000E+00 0.  1.
</event>
<event>
 8    1  0.2460897E-006  0.9118800E+02  0.7816164E-02  0.1184000E+00
        -11   -1    0    0    0    0  0.00000000000E+00  0.00000000000E+00  0.45593999997E+02  0.45594000000E+02  0.51100000000E-03 0.  1.
         11   -1    0    0    0    0 -0.00000000000E+00 -0.00000000000E+00 -0.45593999997E+02  0.45594000000E+02  0.51100000000E-03 0. -1.
         23    2    1    2    0    0  0.00000000000E+00  0.35527136788E-14  0.00000000000E+00  0.91188000000E+02  0.91188000000E+02 0.  0.
    9900012    2    3    3    0    0 -0.12564580989E+02 -0.20298417111E+02 -0.28033588934E+02  0.54367129000E+02  0.40000102181E+02 0.  0.
        -12    1    3    3    0    0  0.12564580989E+02  0.20298417111E+02  0.28033588934E+02  0.36820871000E+02  0.00000000000E+00 0.  1.
         11    1    4    4    0    0 -0.74775409020E+01  0.39766747578E-01 -0.14639896006E+02  0.16439031440E+02  0.51100000000E-03 0. -1.
        -11    1    4    4    0    0 -0.16815560584E+02 -0.11355880450E+02 -0.48497977519E+01  0.20862397682E+02  0.51100000000E-03 0.  1.
         12    1    4    4    0    0  0.11728520497E+02 -0.89823034086E+01 -0.85438951761E+01  0.17065699878E+02  0.00000000000E+00 0. -1.
</event>
<event>
 8    1  0.2460897E-006  0.9118800E+02  0.7816164E-02  0.1184000E+00
        -11   -1    0    0    0    0  0.00000000000E+00  0.00000000000E+00  0.45593999997E+02  0.45594000000E+02  0.51100000000E-03 0.  1.
         11   -1    0    0    0    0 -0.00000000000E+00 -0.00000000000E+00 -0.45593999997E+02  0.45594000000E+02  0.51100000000E-03 0. -1.
         23    2    1    2    0    0  0.71054273576E-14  0.17763568394E-14  0.88817841970E-15  0.91188000000E+02  0.91188000000E+02 0.  0.
    9900012    2    3    3    0    0  0.36127580061E+02 -0.25514618825E+01 -0.66383311395E+01  0.54367089648E+02  0.40000012471E+02 0.  0.
        -12    1    3    3    0    0 -0.36127580061E+02  0.25514618825E+01  0.66383311395E+01  0.36820910352E+02  0.00000000000E+00 0.  1.
         11    1    4    4    0    0  0.20165296108E+02 -0.83104051934E+01 -0.80746499080E+01  0.23257299349E+02  0.51100000000E-03 0. -1.
        -11    1    4    4    0    0  0.18116282701E+02  0.13663697268E+02  0.25793882067E+01  0.22837459704E+02  0.51100000000E-03 0.  1.
        -12    1    4    4    0    0 -0.21539987480E+01 -0.79047539574E+01 -0.11430694381E+01  0.82723305951E+01  0.00000000000E+00 0.  1.
</event>
<event>
 8    1  0.2460897E-006  0.9118800E+02  0.7816164E-02  0.1184000E+00
        -11   -1    0    0    0    0  0.00000000000E+00  0.00000000000E+00  0.45593999997E+02  0.45594000000E+02  0.51100000000E-03 0.  1.
         11   -1    0    0    0    0 -0.00000000000E+00 -0.00000000000E+00 -0.45593999997E+02  0.45594000000E+02  0.51100000000E-03 0. -1.
         23    2    1    2    0    0  0.71054273576E-14  0.00000000000E+00 -0.35527136788E-14  0.91188000000E+02  0.91188000000E+02 0.  0.
    9900012    2    3    3    0    0  0.23619001778E+02  0.20910630869E+02 -0.18991285954E+02  0.54367072926E+02  0.39999974350E+02 0.  0.
        -12    1    3    3    0    0 -0.23619001778E+02 -0.20910630869E+02  0.18991285954E+02  0.36820927074E+02  0.00000000000E+00 0.  1.
         11    1    4    4    0    0  0.17918216575E+02  0.20665431379E+02 -0.15463874312E+02  0.31420597517E+02  0.51100000000E-03 0. -1.
        -11    1    4    4    0    0  0.84888465696E+01 -0.50564789231E+00  0.76277987581E+01  0.11423638213E+02  0.51100000000E-03 0.  1.
        -12    1    4    4    0    0 -0.27880613667E+01  0.75084738230E+00 -0.11155210400E+02  0.11522837196E+02  0.00000000000E+00 0.  1.
</event>
<event>
 8    1  0.2460897E-006  0.9118800E+02  0.7816164E-02  0.1184000E+00
        -11   -1    0    0    0    0  0.00000000000E+00  0.00000000000E+00  0.45593999997E+02  0.45594000000E+02  0.51100000000E-03 0.  1.
         11   -1    0    0    0    0 -0.00000000000E+00 -0.00000000000E+00 -0.45593999997E+02  0.45594000000E+02  0.51100000000E-03 0. -1.
         23    2    1    2    0    0  0.00000000000E+00 -0.88817841970E-15  0.00000000000E+00  0.91188000000E+02  0.91188000000E+02 0.  0.
    9900012    2    3    3    0    0 -0.19872452190E+02 -0.73247559694E+01  0.30120044977E+02  0.54367034295E+02  0.39999886281E+02 0.  0.
         12    1    3    3    0    0  0.19872452190E+02  0.73247559694E+01 -0.30120044977E+02  0.36820965705E+02  0.00000000000E+00 0. -1.
         11    1    4    4    0    0 -0.11353763927E+00  0.32150113161E+01 -0.75029218213E+01  0.81635179105E+01  0.51100000000E-03 0. -1.
        -11    1    4    4    0    0 -0.68544055317E+01  0.13231283096E-02  0.24425037585E+01  0.72765858625E+01  0.51100000000E-03 0.  1.
        -12    1    4    4    0    0 -0.12904509019E+02 -0.10541090414E+02  0.35180463040E+02  0.38926930522E+02  0.00000000000E+00 0.  1.
</event>
<event>
 8    1  0.2460897E-006  0.9118800E+02  0.7816164E-02  0.1184000E+00
        -11   -1    0    0    0    0  0.00000000000E+00  0.00000000000E+00  0.45593999997E+02  0.45594000000E+02  0.51100000000E-03 0. -1.
         11   -1    0    0    0    0 -0.00000000000E+00 -0.00000000000E+00 -0.45593999997E+02  0.45594000000E+02  0.51100000000E-03 0.  1.
         23    2    1    2    0    0  0.00000000000E+00 -0.53290705182E-14  0.17763568394E-14  0.91188000000E+02  0.91188000000E+02 0.  0.
    9900012    2    3    3    0    0  0.32233068516E+02 -0.15179766788E+02  0.92943146837E+01  0.54367077807E+02  0.39999985476E+02 0.  0.
        -12    1    3    3    0    0 -0.32233068516E+02  0.15179766788E+02 -0.92943146837E+01  0.36820922193E+02  0.00000000000E+00 0.  1.
         11    1    4    4    0    0  0.24193815658E+02 -0.18831499328E+02  0.76840242984E+01  0.31607124398E+02  0.51100000000E-03 0. -1.
        -11    1    4    4    0    0  0.43712996381E+01 -0.76010225691E+01 -0.40289485852E+01  0.96496752062E+01  0.51100000000E-03 0.  1.
        -12    1    4    4    0    0  0.36679532200E+01  0.11252755109E+02  0.56392389706E+01  0.13110278202E+02  0.00000000000E+00 0.  1.
</event>
<event>
 8    1  0.2460897E-006  0.9118800E+02  0.7816164E-02  0.1184000E+00
        -11   -1    0    0    0    0  0.00000000000E+00  0.00000000000E+00  0.45593999997E+02  0.45594000000E+02  0.51100000000E-03 0.  1.
         11   -1    0    0    0    0 -0.00000000000E+00 -0.00000000000E+00 -0.45593999997E+02  0.45594000000E+02  0.51100000000E-03 0. -1.
         23    2    1    2    0    0 -0.17763568394E-14  0.35527136788E-14 -0.35527136788E-14  0.91188000000E+02  0.91188000000E+02 0.  0.
    9900012    2    3    3    0    0  0.92243544383E+01 -0.31923408320E+02  0.15861479279E+02  0.54367092373E+02  0.40000018682E+02 0.  0.
         12    1    3    3    0    0 -0.92243544383E+01  0.31923408320E+02 -0.15861479279E+02  0.36820907627E+02  0.00000000000E+00 0. -1.
         11    1    4    4    0    0 -0.39440152036E+01 -0.19019249465E+01 -0.52287211687E+01  0.68199779874E+01  0.51100000000E-03 0. -1.
        -11    1    4    4    0    0  0.67139534533E+01 -0.19326958999E+02 -0.27389629446E+01  0.20642442525E+02  0.51100000000E-03 0.  1.
         12    1    4    4    0    0  0.64544161886E+01 -0.10694524374E+02  0.23829163392E+02  0.26904671860E+02  0.00000000000E+00 0. -1.
</event>
<event>
 8    1  0.2460897E-006  0.9118800E+02  0.7816164E-02  0.1184000E+00
        -11   -1    0    0    0    0  0.00000000000E+00  0.00000000000E+00  0.45593999997E+02  0.45594000000E+02  0.51100000000E-03 0.  1.
         11   -1    0    0    0    0 -0.00000000000E+00 -0.00000000000E+00 -0.45593999997E+02  0.45594000000E+02  0.51100000000E-03 0. -1.
         23    2    1    2    0    0 -0.17763568394E-14  0.00000000000E+00 -0.71054273576E-14  0.91188000000E+02  0.91188000000E+02 0.  0.
    9900012    2    3    3    0    0 -0.10644553396E+02 -0.66517367618E+01  0.34615435873E+02  0.54367074976E+02  0.39999979023E+02 0.  0.
         12    1    3    3    0    0  0.10644553396E+02  0.66517367618E+01 -0.34615435873E+02  0.36820925024E+02  0.00000000000E+00 0. -1.
         11    1    4    4    0    0 -0.11264116378E+02 -0.99011206070E+01 -0.30661692672E+01  0.15307315287E+02  0.51100000000E-03 0. -1.
        -11    1    4    4    0    0  0.16116142436E+01 -0.93208414035E-01  0.46466888873E+00  0.16798528852E+01  0.51100000000E-03 0.  1.
        -12    1    4    4    0    0 -0.99205126108E+00  0.33425922592E+01  0.37216936252E+02  0.37379906804E+02  0.00000000000E+00 0.  1.
</event>
<event>
 8    1  0.2460897E-006  0.9118800E+02  0.7816164E-02  0.1184000E+00
        -11   -1    0    0    0    0  0.00000000000E+00  0.00000000000E+00  0.45593999997E+02  0.45594000000E+02  0.51100000000E-03 0. -1.
         11   -1    0    0    0    0 -0.00000000000E+00 -0.00000000000E+00 -0.45593999997E+02  0.45594000000E+02  0.51100000000E-03 0.  1.
         23    2    1    2    0    0  0.44408920985E-15  0.00000000000E+00  0.35527136788E-14  0.91188000000E+02  0.91188000000E+02 0.  0.
    9900012    2    3    3    0    0 -0.36258095470E+01 -0.20806010035E+02  0.30161949757E+02  0.54367085269E+02  0.40000002488E+02 0.  0.
        -12    1    3    3    0    0  0.36258095470E+01  0.20806010035E+02 -0.30161949757E+02  0.36820914731E+02  0.00000000000E+00 0.  1.
         11    1    4    4    0    0  0.17839227380E+01 -0.15836362107E+02  0.22513982568E+02  0.27583548656E+02  0.51100000000E-03 0. -1.
        -11    1    4    4    0    0  0.12018205925E+01  0.74846925718E+01 -0.39300111527E+01  0.85387343062E+01  0.51100000000E-03 0.  1.
         12    1    4    4    0    0 -0.66115528775E+01 -0.12454340500E+02  0.11577978341E+02  0.18244802307E+02  0.00000000000E+00 0. -1.
</event>
<event>
 8    1  0.2460897E-006  0.9118800E+02  0.7816164E-02  0.1184000E+00
        -11   -1    0    0    0    0  0.00000000000E+00  0.00000000000E+00  0.45593999997E+02  0.45594000000E+02  0.51100000000E-03 0. -1.
         11   -1    0    0    0    0 -0.00000000000E+00 -0.00000000000E+00 -0.45593999997E+02  0.45594000000E+02  0.51100000000E-03 0.  1.
         23    2    1    2    0    0  0.35527136788E-14 -0.35527136788E-14  0.00000000000E+00  0.91188000000E+02  0.91188000000E+02 0.  0.
    9900012    2    3    3    0    0  0.24922055766E+02 -0.24183732972E+02  0.12240221030E+02  0.54367016650E+02  0.39999846056E+02 0.  0.
        -12    1    3    3    0    0 -0.24922055766E+02  0.24183732972E+02 -0.12240221030E+02  0.36820983350E+02  0.00000000000E+00 0.  1.
         11    1    4    4    0    0  0.16708822027E+02 -0.15440788453E+02  0.26041750449E+02  0.34579986239E+02  0.51100000000E-03 0. -1.
        -11    1    4    4    0    0  0.68095926986E+01 -0.86493157718E+01 -0.74756894820E+01  0.13306658090E+02  0.51100000000E-03 0.  1.
         12    1    4    4    0    0  0.14036410400E+01 -0.93628746869E-01 -0.63258399363E+01  0.64803723204E+01  0.00000000000E+00 0. -1.
</event>
<event>
 8    1  0.2460897E-006  0.9118800E+02  0.7816164E-02  0.1184000E+00
        -11   -1    0    0    0    0  0.00000000000E+00  0.00000000000E+00  0.45593999997E+02  0.45594000000E+02  0.51100000000E-03 0. -1.
         11   -1    0    0    0    0 -0.00000000000E+00 -0.00000000000E+00 -0.45593999997E+02  0.45594000000E+02  0.51100000000E-03 0.  1.
         23    2    1    2    0    0  0.00000000000E+00  0.00000000000E+00  0.00000000000E+00  0.91188000000E+02  0.91188000000E+02 0.  0.
    9900012    2    3    3    0    0 -0.19763724398E+02  0.16607301993E+02 -0.26255899677E+02  0.54367088151E+02  0.40000009057E+02 0.  0.
         12    1    3    3    0    0  0.19763724398E+02 -0.16607301993E+02  0.26255899677E+02  0.36820911849E+02  0.00000000000E+00 0. -1.
         11    1    4    4    0    0 -0.42676063690E+00  0.28068055159E+01 -0.32925377438E-01  0.28392545126E+01  0.51100000000E-03 0. -1.
        -11    1    4    4    0    0  0.99454028171E+01  0.16782984529E+01  0.46296673186E+00  0.10096636140E+02  0.51100000000E-03 0.  1.
        -12    1    4    4    0    0 -0.29282366578E+02  0.12122198024E+02 -0.26685941032E+02  0.41431197498E+02  0.00000000000E+00 0.  1.
</event>
<event>
 8    1  0.2460897E-006  0.9118800E+02  0.7816164E-02  0.1184000E+00
        -11   -1    0    0    0    0  0.00000000000E+00  0.00000000000E+00  0.45593999997E+02  0.45594000000E+02  0.51100000000E-03 0.  1.
         11   -1    0    0    0    0 -0.00000000000E+00 -0.00000000000E+00 -0.45593999997E+02  0.45594000000E+02  0.51100000000E-03 0. -1.
         23    2    1    2    0    0  0.00000000000E+00  0.00000000000E+00  0.00000000000E+00  0.91188000000E+02  0.91188000000E+02 0.  0.
    9900012    2    3    3    0    0 -0.73889219454E+01 -0.16306642936E+02  0.32175629734E+02  0.54367164592E+02  0.40000183321E+02 0.  0.
         12    1    3    3    0    0  0.73889219454E+01  0.16306642936E+02 -0.32175629734E+02  0.36820835408E+02  0.00000000000E+00 0. -1.
         11    1    4    4    0    0 -0.37371883345E+01 -0.34012834296E+01  0.64748442529E+01  0.82133375662E+01  0.51100000000E-03 0. -1.
        -11    1    4    4    0    0  0.41056730018E+01 -0.20529689479E+01 -0.83802389438E+01  0.95550843699E+01  0.51100000000E-03 0.  1.
        -12    1    4    4    0    0 -0.77574066127E+01 -0.10852390558E+02  0.34081024425E+02  0.36598742656E+02  0.00000000000E+00 0.  1.
</event>
<event>
 8    1  0.2460897E-006  0.9118800E+02  0.7816164E-02  0.1184000E+00
        -11   -1    0    0    0    0  0.00000000000E+00  0.00000000000E+00  0.45593999997E+02  0.45594000000E+02  0.51100000000E-03 0. -1.
         11   -1    0    0    0    0 -0.00000000000E+00 -0.00000000000E+00 -0.45593999997E+02  0.45594000000E+02  0.51100000000E-03 0.  1.
         23    2    1    2    0    0  0.00000000000E+00 -0.88817841970E-15 -0.71054273576E-14  0.91188000000E+02  0.91188000000E+02 0.  0.
    9900012    2    3    3    0    0  0.14797895680E+02  0.70125552462E+01  0.32979209420E+02  0.54367056210E+02  0.39999936242E+02 0.  0.
        -12    1    3    3    0    0 -0.14797895680E+02 -0.70125552462E+01 -0.32979209420E+02  0.36820943790E+02  0.00000000000E+00 0.  1.
         11    1    4    4    0    0  0.93114901298E+01 -0.75122314308E+01  0.59291213019E+01  0.13352600840E+02  0.51100000000E-03 0. -1.
        -11    1    4    4    0    0  0.36261379221E+01 -0.31657988329E+01  0.22004111284E+02  0.22524477178E+02  0.51100000000E-03 0.  1.
        -12    1    4    4    0    0  0.18602676284E+01  0.17690585510E+02  0.50459768334E+01  0.18489978192E+02  0.00000000000E+00 0.  1.
</event>
<event>
 8    1  0.2460897E-006  0.9118800E+02  0.7816164E-02  0.1184000E+00
        -11   -1    0    0    0    0  0.00000000000E+00  0.00000000000E+00  0.45593999997E+02  0.45594000000E+02  0.51100000000E-03 0.  1.
         11   -1    0    0    0    0 -0.00000000000E+00 -0.00000000000E+00 -0.45593999997E+02  0.45594000000E+02  0.51100000000E-03 0. -1.
         23    2    1    2    0    0  0.35527136788E-14  0.88817841970E-15  0.71054273576E-14  0.91188000000E+02  0.91188000000E+02 0.  0.
    9900012    2    3    3    0    0 -0.10663775387E+02 -0.63716885194E+01 -0.34662164409E+02  0.54367079838E+02  0.39999990106E+02 0.  0.
        -12    1    3    3    0    0  0.10663775387E+02  0.63716885194E+01  0.34662164409E+02  0.36820920162E+02  0.00000000000E+00 0.  1.
         11    1    4    4    0    0 -0.16530265999E+02 -0.62654130167E+01 -0.25128426240E+02  0.30723653751E+02  0.51100000000E-03 0. -1.
        -11    1    4    4    0    0 -0.75625924069E+01 -0.21755140313E+01 -0.49818715155E+01  0.93136839796E+01  0.51100000000E-03 0.  1.
        -12    1    4    4    0    0  0.13429083019E+02  0.20692385286E+01 -0.45518666534E+01  0.14329742107E+02  0.00000000000E+00 0.  1.
</event>
<event>
 8    1  0.2460897E-006  0.9118800E+02  0.7816164E-02  0.1184000E+00
        -11   -1    0    0    0    0  0.00000000000E+00  0.00000000000E+00  0.45593999997E+02  0.45594000000E+02  0.51100000000E-03 0.  1.
         11   -1    0    0    0    0 -0.00000000000E+00 -0.00000000000E+00 -0.45593999997E+02  0.45594000000E+02  0.51100000000E-03 0. -1.
         23    2    1    2    0    0  0.00000000000E+00  0.00000000000E+00  0.35527136788E-14  0.91188000000E+02  0.91188000000E+02 0.  0.
    9900012    2    3    3    0    0 -0.12447722804E+02  0.19815992351E+02 -0.28428153160E+02  0.54367092245E+02  0.40000018390E+02 0.  0.
        -12    1    3    3    0    0  0.12447722804E+02 -0.19815992351E+02  0.28428153160E+02  0.36820907755E+02  0.00000000000E+00 0.  1.
         11    1    4    4    0    0  0.73742649492E+01  0.21680062878E+01 -0.32734942552E+01  0.83543880509E+01  0.51100000000E-03 0. -1.
        -11    1    4    4    0    0  0.70680567723E+01  0.52278963994E+01 -0.42921469602E+01  0.97831923772E+01  0.51100000000E-03 0.  1.
         12    1    4    4    0    0 -0.26890044525E+02  0.12420089664E+02 -0.20862511945E+02  0.36229511816E+02  0.00000000000E+00 0. -1.
</event>
<event>
 8    1  0.2460897E-006  0.9118800E+02  0.7816164E-02  0.1184000E+00
        -11   -1    0    0    0    0  0.00000000000E+00  0.00000000000E+00  0.45593999997E+02  0.45594000000E+02  0.51100000000E-03 0.  1.
         11   -1    0    0    0    0 -0.00000000000E+00 -0.00000000000E+00 -0.45593999997E+02  0.45594000000E+02  0.51100000000E-03 0. -1.
         23    2    1    2    0    0  0.00000000000E+00  0.71054273576E-14  0.00000000000E+00  0.91188000000E+02  0.91188000000E+02 0.  0.
    9900012    2    3    3    0    0  0.94834002520E+01  0.35533579993E+02 -0.17870924662E+01  0.54367300836E+02  0.40000493913E+02 0.  0.
        -12    1    3    3    0    0 -0.94834002520E+01 -0.35533579993E+02  0.17870924662E+01  0.36820699164E+02  0.00000000000E+00 0.  1.
         11    1    4    4    0    0  0.11807582969E+02  0.36751345978E+02  0.43432571081E+01  0.38845132633E+02  0.51100000000E-03 0. -1.
        -11    1    4    4    0    0 -0.51080693244E+01  0.39524971988E+01 -0.70692958639E+01  0.95754660776E+01  0.51100000000E-03 0.  1.
         12    1    4    4    0    0  0.27838866071E+01 -0.51702631835E+01  0.93894628970E+00  0.59467021250E+01  0.00000000000E+00 0. -1.
</event>
<event>
 8    1  0.2460897E-006  0.9118800E+02  0.7816164E-02  0.1184000E+00
        -11   -1    0    0    0    0  0.00000000000E+00  0.00000000000E+00  0.45593999997E+02  0.45594000000E+02  0.51100000000E-03 0.  1.
         11   -1    0    0    0    0 -0.00000000000E+00 -0.00000000000E+00 -0.45593999997E+02  0.45594000000E+02  0.51100000000E-03 0. -1.
         23    2    1    2    0    0  0.00000000000E+00  0.00000000000E+00 -0.17763568394E-14  0.91188000000E+02  0.91188000000E+02 0.  0.
    9900012    2    3    3    0    0 -0.14009846938E+02  0.33055306239E+02 -0.81770544115E+01  0.54366901420E+02  0.39999583364E+02 0.  0.
        -12    1    3    3    0    0  0.14009846938E+02 -0.33055306239E+02  0.81770544115E+01  0.36821098580E+02  0.00000000000E+00 0.  1.
         11    1    4    4    0    0  0.18515397993E+01  0.23054026534E+02 -0.62916482460E+01  0.23968754181E+02  0.51100000000E-03 0. -1.
        -11    1    4    4    0    0 -0.15281432996E+01  0.12416475964E+02  0.59857990426E+01  0.13868449363E+02  0.51100000000E-03 0.  1.
         12    1    4    4    0    0 -0.14333243438E+02 -0.24151962587E+01 -0.78712052082E+01  0.16529697875E+02  0.00000000000E+00 0. -1.
</event>
<event>
 8    1  0.2460897E-006  0.9118800E+02  0.7816164E-02  0.1184000E+00
        -11   -1    0    0    0    0  0.00000000000E+00  0.00000000000E+00  0.45593999997E+02  0.45594000000E+02  0.51100000000E-03 0. -1.
         11   -1    0    0    0    0 -0.00000000000E+00 -0.00000000000E+00 -0.45593999997E+02  0.45594000000E+02  0.51100000000E-03 0.  1.
         23    2    1    2    0    0 -0.17763568394E-14 -0.71054273576E-14  0.00000000000E+00  0.91188000000E+02  0.91188000000E+02 0.  0.
    9900012    2    3    3    0    0 -0.15158503261E+02  0.33409138692E+02  0.31351384940E+01  0.54367083897E+02  0.39999999360E+02 0.  0.
        -12    1    3    3    0    0  0.15158503261E+02 -0.33409138692E+02 -0.31351384940E+01  0.36820916103E+02  0.00000000000E+00 0.  1.
         11    1    4    4    0    0  0.56862925526E+01  0.17558540318E+02  0.13813000489E+02  0.23052879296E+02  0.51100000000E-03 0. -1.
        -11    1    4    4    0    0 -0.83611074176E+01  0.65611597538E+01 -0.11591847622E+02  0.15726660997E+02  0.51100000000E-03 0.  1.
        -12    1    4    4    0    0 -0.12483688396E+02  0.92894386207E+01  0.91398562691E+00  0.15587543604E+02  0.00000000000E+00 0.  1.
</event>
<event>
 8    1  0.2460897E-006  0.9118800E+02  0.7816164E-02  0.1184000E+00
        -11   -1    0    0    0    0  0.00000000000E+00  0.00000000000E+00  0.45593999997E+02  0.45594000000E+02  0.51100000000E-03 0.  1.
         11   -1    0    0    0    0 -0.00000000000E+00 -0.00000000000E+00 -0.45593999997E+02  0.45594000000E+02  0.51100000000E-03 0. -1.
         23    2    1    2    0    0  0.88817841970E-15 -0.35527136788E-14 -0.71054273576E-14  0.91188000000E+02  0.91188000000E+02 0.  0.
    9900012    2    3    3    0    0 -0.38769744993E+01  0.17766805579E+02  0.32017020635E+02  0.54367083090E+02  0.39999997520E+02 0.  0.
         12    1    3    3    0    0  0.38769744993E+01 -0.17766805579E+02 -0.32017020635E+02  0.36820916910E+02  0.00000000000E+00 0. -1.
         11    1    4    4    0    0 -0.94616991808E+01  0.89629741228E+01  0.60856821074E+01  0.14383816722E+02  0.51100000000E-03 0. -1.
        -11    1    4    4    0    0  0.11742458422E+02  0.13217100878E+02  0.60155699954E+01  0.18675228728E+02  0.51100000000E-03 0.  1.
         12    1    4    4    0    0 -0.61577337405E+01 -0.44132694225E+01  0.19915768533E+02  0.21308037640E+02  0.00000000000E+00 0. -1.
</event>
<event>
 8    1  0.2460897E-006  0.9118800E+02  0.7816164E-02  0.1184000E+00
        -11   -1    0    0    0    0  0.00000000000E+00  0.00000000000E+00  0.45593999997E+02  0.45594000000E+02  0.51100000000E-03 0. -1.
         11   -1    0    0    0    0 -0.00000000000E+00 -0.00000000000E+00 -0.45593999997E+02  0.45594000000E+02  0.51100000000E-03 0.  1.
         23    2    1    2    0    0 -0.53290705182E-14  0.00000000000E+00 -0.17763568394E-14  0.91188000000E+02  0.91188000000E+02 0.  0.
    9900012    2    3    3    0    0 -0.11473384679E+02 -0.32617325561E+02 -0.12659046044E+02  0.54367082990E+02  0.39999997292E+02 0.  0.
        -12    1    3    3    0    0  0.11473384679E+02  0.32617325561E+02  0.12659046044E+02  0.36820917010E+02  0.00000000000E+00 0.  1.
         11    1    4    4    0    0 -0.20121015709E+01 -0.85994563258E+01 -0.10015790319E+02  0.13353473624E+02  0.51100000000E-03 0. -1.
        -11    1    4    4    0    0 -0.18518856968E+02 -0.15214891017E+02  0.71720736782E+01  0.25017586078E+02  0.51100000000E-03 0.  1.
         12    1    4    4    0    0  0.90575738603E+01 -0.88029782183E+01 -0.98153294031E+01  0.15996023288E+02  0.00000000000E+00 0. -1.
</event>
<event>
 8    1  0.2460897E-006  0.9118800E+02  0.7816164E-02  0.1184000E+00
        -11   -1    0    0    0    0  0.00000000000E+00  0.00000000000E+00  0.45593999997E+02  0.45594000000E+02  0.51100000000E-03 0.  1.
         11   -1    0    0    0    0 -0.00000000000E+00 -0.00000000000E+00 -0.45593999997E+02  0.45594000000E+02  0.51100000000E-03 0. -1.
         23    2    1    2    0    0 -0.35527136788E-14  0.35527136788E-14  0.00000000000E+00  0.91188000000E+02  0.91188000000E+02 0.  0.
    9900012    2    3    3    0    0  0.22705871014E+02 -0.19655536559E+02 -0.21304350063E+02  0.54367190293E+02  0.40000241909E+02 0.  0.
        -12    1    3    3    0    0 -0.22705871014E+02  0.19655536559E+02  0.21304350063E+02  0.36820809707E+02  0.00000000000E+00 0.  1.
         11    1    4    4    0    0  0.53351982510E+01 -0.22252472701E+02 -0.13057863746E+02  0.26346625733E+02  0.51100000000E-03 0. -1.
        -11    1    4    4    0    0  0.72512845855E+01 -0.90411478780E+00  0.65111553753E+01  0.97874254159E+01  0.51100000000E-03 0.  1.
        -12    1    4    4    0    0  0.10119388177E+02  0.35010509297E+01 -0.14757641692E+02  0.18233139143E+02  0.00000000000E+00 0.  1.
</event>
<event>
 8    1  0.2460897E-006  0.9118800E+02  0.7816164E-02  0.1184000E+00
        -11   -1    0    0    0    0  0.00000000000E+00  0.00000000000E+00  0.45593999997E+02  0.45594000000E+02  0.51100000000E-03 0. -1.
         11   -1    0    0    0    0 -0.00000000000E+00 -0.00000000000E+00 -0.45593999997E+02  0.45594000000E+02  0.51100000000E-03 0.  1.
         23    2    1    2    0    0 -0.35527136788E-14  0.00000000000E+00 -0.35527136788E-14  0.91188000000E+02  0.91188000000E+02 0.  0.
    9900012    2    3    3    0    0 -0.21841528687E+02  0.19350501207E+02 -0.22456302501E+02  0.54367084824E+02  0.40000001473E+02 0.  0.
         12    1    3    3    0    0  0.21841528687E+02 -0.19350501207E+02  0.22456302501E+02  0.36820915176E+02  0.00000000000E+00 0. -1.
         11    1    4    4    0    0 -0.57730763995E+01  0.18995873003E+01  0.19486777072E+01  0.63823340632E+01  0.51100000000E-03 0. -1.
        -11    1    4    4    0    0 -0.43871490879E+01 -0.40754358863E+01  0.63110532673E+01  0.86997499037E+01  0.51100000000E-03 0.  1.
        -12    1    4    4    0    0 -0.11681303200E+02  0.21526349793E+02 -0.30716033476E+02  0.39285000857E+02  0.00000000000E+00 0.  1.
</event>
<event>
 8    1  0.2460897E-006  0.9118800E+02  0.7816164E-02  0.1184000E+00
        -11   -1    0    0    0    0  0.00000000000E+00  0.00000000000E+00  0.45593999997E+02  0.45594000000E+02  0.51100000000E-03 0.  1.
         11   -1    0    0    0    0 -0.00000000000E+00 -0.00000000000E+00 -0.45593999997E+02  0.45594000000E+02  0.51100000000E-03 0. -1.
         23    2    1    2    0    0  0.35527136788E-14  0.00000000000E+00  0.61062266354E-15  0.91188000000E+02  0.91188000000E+02 0.  0.
    9900012    2    3    3    0    0  0.31405617348E+02  0.19220221562E+02  0.22411511400E+00  0.54367082773E+02  0.39999996798E+02 0.  0.
        -12    1    3    3    0    0 -0.31405617348E+02 -0.19220221562E+02 -0.22411511400E+00  0.36820917227E+02  0.00000000000E+00 0.  1.
         11    1    4    4    0    0  0.26826422973E+02  0.19959742323E+02 -0.53470500763E+01  0.33862061779E+02  0.51100000000E-03 0. -1.
        -11    1    4    4    0    0  0.12779544108E+01  0.33399315115E+01  0.11817534862E+02  0.12346758298E+02  0.51100000000E-03 0.  1.
         12    1    4    4    0    0  0.33012399634E+01 -0.40794522731E+01 -0.62463696720E+01  0.81582626964E+01  0.00000000000E+00 0. -1.
</event>
<event>
 8    1  0.2460897E-006  0.9118800E+02  0.7816164E-02  0.1184000E+00
        -11   -1    0    0    0    0  0.00000000000E+00  0.00000000000E+00  0.45593999997E+02  0.45594000000E+02  0.51100000000E-03 0.  1.
         11   -1    0    0    0    0 -0.00000000000E+00 -0.00000000000E+00 -0.45593999997E+02  0.45594000000E+02  0.51100000000E-03 0. -1.
         23    2    1    2    0    0  0.88817841970E-15 -0.35527136788E-14  0.35527136788E-14  0.91188000000E+02  0.91188000000E+02 0.  0.
    9900012    2    3    3    0    0 -0.45417278157E+01  0.27108381966E+02 -0.24500788741E+02  0.54367077778E+02  0.39999985410E+02 0.  0.
        -12    1    3    3    0    0  0.45417278157E+01 -0.27108381966E+02  0.24500788741E+02  0.36820922222E+02  0.00000000000E+00 0.  1.
         11    1    4    4    0    0 -0.90704547657E+01  0.16211165281E+01 -0.18201126231E+02  0.20400543248E+02  0.51100000000E-03 0. -1.
        -11    1    4    4    0    0  0.11339329398E+02  0.12601325021E+02 -0.89233297178E+01  0.19157233542E+02  0.51100000000E-03 0.  1.
        -12    1    4    4    0    0 -0.68106024479E+01  0.12885940417E+02  0.26236672083E+01  0.14809300988E+02  0.00000000000E+00 0.  1.
</event>
<event>
 8    1  0.2460897E-006  0.9118800E+02  0.7816164E-02  0.1184000E+00
        -11   -1    0    0    0    0  0.00000000000E+00  0.00000000000E+00  0.45593999997E+02  0.45594000000E+02  0.51100000000E-03 0.  1.
         11   -1    0    0    0    0 -0.00000000000E+00 -0.00000000000E+00 -0.45593999997E+02  0.45594000000E+02  0.51100000000E-03 0. -1.
         23    2    1    2    0    0  0.00000000000E+00  0.35527136788E-14  0.00000000000E+00  0.91188000000E+02  0.91188000000E+02 0.  0.
    9900012    2    3    3    0    0  0.30073811115E+02  0.16254839669E+02 -0.13679402826E+02  0.54367082177E+02  0.39999995439E+02 0.  0.
        -12    1    3    3    0    0 -0.30073811115E+02 -0.16254839669E+02  0.13679402826E+02  0.36820917823E+02  0.00000000000E+00 0.  1.
         11    1    4    4    0    0  0.30864538979E+02  0.35774681891E+01 -0.11346042259E+02  0.33077949154E+02  0.51100000000E-03 0. -1.
        -11    1    4    4    0    0  0.72744940347E+00  0.16755945811E+02 -0.13395861903E+01  0.16825141726E+02  0.51100000000E-03 0.  1.
         12    1    4    4    0    0 -0.15181772675E+01 -0.40785743313E+01 -0.99377437677E+00  0.44639912974E+01  0.00000000000E+00 0. -1.
</event>
<event>
 8    1  0.2460897E-006  0.9118800E+02  0.7816164E-02  0.1184000E+00
        -11   -1    0    0    0    0  0.00000000000E+00  0.00000000000E+00  0.45593999997E+02  0.45594000000E+02  0.51100000000E-03 0. -1.
         11   -1    0    0    0    0 -0.00000000000E+00 -0.00000000000E+00 -0.45593999997E+02  0.45594000000E+02  0.51100000000E-03 0.  1.
         23    2    1    2    0    0 -0.17763568394E-14 -0.88817841970E-15  0.00000000000E+00  0.91188000000E+02  0.91188000000E+02 0.  0.
    9900012    2    3    3    0    0  0.10767772156E+02  0.64736604070E+01 -0.34611081220E+02  0.54367080138E+02  0.39999990790E+02 0.  0.
         12    1    3    3    0    0 -0.10767772156E+02 -0.64736604070E+01  0.34611081220E+02  0.36820919862E+02  0.00000000000E+00 0. -1.
         11    1    4    4    0    0 -0.38577139402E+01 -0.90051164360E+01 -0.15915323595E+02  0.18688809600E+02  0.51100000000E-03 0. -1.
        -11    1    4    4    0    0  0.17168494800E+02  0.81593394140E+01 -0.20251429428E+02  0.27775032448E+02  0.51100000000E-03 0.  1.
         12    1    4    4    0    0 -0.25430087037E+01  0.73194374290E+01  0.15556718023E+01  0.79032380896E+01  0.00000000000E+00 0. -1.
</event>
<event>
 8    1  0.2460897E-006  0.9118800E+02  0.7816164E-02  0.1184000E+00
        -11   -1    0    0    0    0  0.00000000000E+00  0.00000000000E+00  0.45593999997E+02  0.45594000000E+02  0.51100000000E-03 0.  1.
         11   -1    0    0    0    0 -0.00000000000E+00 -0.00000000000E+00 -0.45593999997E+02  0.45594000000E+02  0.51100000000E-03 0. -1.
         23    2    1    2    0    0  0.00000000000E+00  0.35527136788E-14 -0.17763568394E-14  0.91188000000E+02  0.91188000000E+02 0.  0.
    9900012    2    3    3    0    0  0.25617641626E+02 -0.21436978029E+02 -0.15490991279E+02  0.54367103754E+02  0.40000044629E+02 0.  0.
        -12    1    3    3    0    0 -0.25617641626E+02  0.21436978029E+02  0.15490991279E+02  0.36820896246E+02  0.00000000000E+00 0.  1.
         11    1    4    4    0    0  0.11626289475E+02  0.20152003257E+01 -0.17444069726E+02  0.21060085664E+02  0.51100000000E-03 0. -1.
        -11    1    4    4    0    0 -0.42592763032E+01 -0.63840705833E+01  0.31370068209E+01  0.82908747364E+01  0.51100000000E-03 0.  1.
        -12    1    4    4    0    0  0.18250628455E+02 -0.17068107772E+02 -0.11839283736E+01  0.25016143354E+02  0.00000000000E+00 0.  1.
</event>
<event>
 8    1  0.2460897E-006  0.9118800E+02  0.7816164E-02  0.1184000E+00
        -11   -1    0    0    0    0  0.00000000000E+00  0.00000000000E+00  0.45593999997E+02  0.45594000000E+02  0.51100000000E-03 0. -1.
         11   -1    0    0    0    0 -0.00000000000E+00 -0.00000000000E+00 -0.45593999997E+02  0.45594000000E+02  0.51100000000E-03 0.  1.
         23    2    1    2    0    0  0.00000000000E+00  0.35527136788E-14  0.17763568394E-14  0.91188000000E+02  0.91188000000E+02 0.  0.
    9900012    2    3    3    0    0  0.27926470262E+02 -0.21482233186E+02 -0.10696018647E+02  0.54367096985E+02  0.40000029197E+02 0.  0.
         12    1    3    3    0    0 -0.27926470262E+02  0.21482233186E+02  0.10696018647E+02  0.36820903015E+02  0.00000000000E+00 0. -1.
         11    1    4    4    0    0  0.42929091586E+01 -0.12504438095E+02 -0.10475811606E+02  0.16868096223E+02  0.51100000000E-03 0. -1.
        -11    1    4    4    0    0  0.21079602973E+02 -0.15930735474E+01 -0.11277236317E+02  0.23959624455E+02  0.51100000000E-03 0.  1.
         12    1    4    4    0    0  0.25539581300E+01 -0.73847215437E+01  0.11057029275E+02  0.13539376308E+02  0.00000000000E+00 0. -1.
</event>
<event>
 8    1  0.2460897E-006  0.9118800E+02  0.7816164E-02  0.1184000E+00
        -11   -1    0    0    0    0  0.00000000000E+00  0.00000000000E+00  0.45593999997E+02  0.45594000000E+02  0.51100000000E-03 0.  1.
         11   -1    0    0    0    0 -0.00000000000E+00 -0.00000000000E+00 -0.45593999997E+02  0.45594000000E+02  0.51100000000E-03 0. -1.
         23    2    1    2    0    0 -0.17763568394E-14 -0.17763568394E-14 -0.71054273576E-14  0.91188000000E+02  0.91188000000E+02 0.  0.
    9900012    2    3    3    0    0 -0.93265609832E+01 -0.15627596442E+02 -0.32008957048E+02  0.54367084183E+02  0.40000000012E+02 0.  0.
        -12    1    3    3    0    0  0.93265609832E+01  0.15627596442E+02  0.32008957048E+02  0.36820915817E+02  0.00000000000E+00 0.  1.
         11    1    4    4    0    0 -0.81323656319E+01 -0.29715570404E+01 -0.70021289533E+01  0.11135319131E+02  0.51100000000E-03 0. -1.
        -11    1    4    4    0    0 -0.12267866911E+02 -0.12580315505E+01  0.14005466501E+01  0.12411475863E+02  0.51100000000E-03 0.  1.
         12    1    4    4    0    0  0.11073671559E+02 -0.11398007851E+02 -0.26407374745E+02  0.30820289189E+02  0.00000000000E+00 0. -1.
</event>
<event>
 8    1  0.2460897E-006  0.9118800E+02  0.7816164E-02  0.1184000E+00
        -11   -1    0    0    0    0  0.00000000000E+00  0.00000000000E+00  0.45593999997E+02  0.45594000000E+02  0.51100000000E-03 0.  1.
         11   -1    0    0    0    0 -0.00000000000E+00 -0.00000000000E+00 -0.45593999997E+02  0.45594000000E+02  0.51100000000E-03 0. -1.
         23    2    1    2    0    0 -0.17763568394E-14  0.17763568394E-14  0.00000000000E+00  0.91188000000E+02  0.91188000000E+02 0.  0.
    9900012    2    3    3    0    0 -0.11070861896E+02 -0.93997570165E+01 -0.33835800644E+02  0.54367070893E+02  0.39999969714E+02 0.  0.
        -12    1    3    3    0    0  0.11070861896E+02  0.93997570165E+01  0.33835800644E+02  0.36820929107E+02  0.00000000000E+00 0.  1.
         11    1    4    4    0    0 -0.15431879272E+02 -0.29116160977E+01 -0.17570021210E+02  0.23565357026E+02  0.51100000000E-03 0. -1.
        -11    1    4    4    0    0 -0.72845995656E+01 -0.66427714253E+01  0.10704893186E+01  0.99165392493E+01  0.51100000000E-03 0.  1.
         12    1    4    4    0    0  0.11645616941E+02  0.15463050653E+00 -0.17336268753E+02  0.20885174618E+02  0.00000000000E+00 0. -1.
</event>
<event>
 8    1  0.2460897E-006  0.9118800E+02  0.7816164E-02  0.1184000E+00
        -11   -1    0    0    0    0  0.00000000000E+00  0.00000000000E+00  0.45593999997E+02  0.45594000000E+02  0.51100000000E-03 0.  1.
         11   -1    0    0    0    0 -0.00000000000E+00 -0.00000000000E+00 -0.45593999997E+02  0.45594000000E+02  0.51100000000E-03 0. -1.
         23    2    1    2    0    0 -0.11102230246E-15 -0.14432899320E-14 -0.71054273576E-14  0.91188000000E+02  0.91188000000E+02 0.  0.
    9900012    2    3    3    0    0 -0.75621065505E+00 -0.27374634205E+00  0.36812133816E+02  0.54367082199E+02  0.39999995489E+02 0.  0.
         12    1    3    3    0    0  0.75621065505E+00  0.27374634205E+00 -0.36812133816E+02  0.36820917801E+02  0.00000000000E+00 0. -1.
         11    1    4    4    0    0 -0.17448762547E+01 -0.49251931478E+01 -0.31341028995E+01  0.60930059850E+01  0.51100000000E-03 0. -1.
        -11    1    4    4    0    0 -0.32043029396E+00  0.14183264701E+02  0.34300561008E+02  0.37118676686E+02  0.51100000000E-03 0.  1.
        -12    1    4    4    0    0  0.13090958936E+01 -0.95318178953E+01  0.56456757071E+01  0.11155399528E+02  0.00000000000E+00 0.  1.
</event>
<event>
 8    1  0.2460897E-006  0.9118800E+02  0.7816164E-02  0.1184000E+00
        -11   -1    0    0    0    0  0.00000000000E+00  0.00000000000E+00  0.45593999997E+02  0.45594000000E+02  0.51100000000E-03 0. -1.
         11   -1    0    0    0    0 -0.00000000000E+00 -0.00000000000E+00 -0.45593999997E+02  0.45594000000E+02  0.51100000000E-03 0.  1.
         23    2    1    2    0    0  0.00000000000E+00  0.00000000000E+00 -0.17763568394E-14  0.91188000000E+02  0.91188000000E+02 0.  0.
    9900012    2    3    3    0    0  0.25157271620E+02 -0.23907486668E+02  0.12301373194E+02  0.54367081807E+02  0.39999994595E+02 0.  0.
        -12    1    3    3    0    0 -0.25157271620E+02  0.23907486668E+02 -0.12301373194E+02  0.36820918193E+02  0.00000000000E+00 0.  1.
         11    1    4    4    0    0  0.81716954290E+01 -0.23851743921E+02 -0.13289358857E+01  0.25247739802E+02  0.51100000000E-03 0. -1.
        -11    1    4    4    0    0  0.20234415946E+02  0.45015878997E+00  0.64836090116E+01  0.21252562614E+02  0.51100000000E-03 0.  1.
        -12    1    4    4    0    0 -0.32488397546E+01 -0.50590153687E+00  0.71467000680E+01  0.78667793905E+01  0.00000000000E+00 0.  1.
</event>
<event>
 8    1  0.2460897E-006  0.9118800E+02  0.7816164E-02  0.1184000E+00
        -11   -1    0    0    0    0  0.00000000000E+00  0.00000000000E+00  0.45593999997E+02  0.45594000000E+02  0.51100000000E-03 0.  1.
         11   -1    0    0    0    0 -0.00000000000E+00 -0.00000000000E+00 -0.45593999997E+02  0.45594000000E+02  0.51100000000E-03 0. -1.
         23    2    1    2    0    0  0.00000000000E+00  0.88817841970E-15  0.35527136788E-14  0.91188000000E+02  0.91188000000E+02 0.  0.
    9900012    2    3    3    0    0 -0.21646050206E+02 -0.31309089139E+01  0.29621373098E+02  0.54367084417E+02  0.40000000545E+02 0.  0.
         12    1    3    3    0    0  0.21646050206E+02  0.31309089139E+01 -0.29621373098E+02  0.36820915583E+02  0.00000000000E+00 0. -1.
         11    1    4    4    0    0 -0.10708987870E+02 -0.74483769887E+01 -0.54631918844E+01  0.14142390420E+02  0.51100000000E-03 0. -1.
        -11    1    4    4    0    0 -0.76041200235E+01  0.20459475643E+01  0.39128559694E+01  0.87931214518E+01  0.51100000000E-03 0.  1.
        -12    1    4    4    0    0 -0.33329423133E+01  0.22715205105E+01  0.31171709013E+02  0.31431572545E+02  0.00000000000E+00 0.  1.
</event>
<event>
 8    1  0.2460897E-006  0.9118800E+02  0.7816164E-02  0.1184000E+00
        -11   -1    0    0    0    0  0.00000000000E+00  0.00000000000E+00  0.45593999997E+02  0.45594000000E+02  0.51100000000E-03 0.  1.
         11   -1    0    0    0    0 -0.00000000000E+00 -0.00000000000E+00 -0.45593999997E+02  0.45594000000E+02  0.51100000000E-03 0. -1.
         23    2    1    2    0    0  0.17763568394E-14  0.00000000000E+00  0.00000000000E+00  0.91188000000E+02  0.91188000000E+02 0.  0.
    9900012    2    3    3    0    0 -0.10075380889E+02 -0.12026775883E+02  0.33311004843E+02  0.54367086353E+02  0.40000004958E+02 0.  0.
         12    1    3    3    0    0  0.10075380889E+02  0.12026775883E+02 -0.33311004843E+02  0.36820913647E+02  0.00000000000E+00 0. -1.
         11    1    4    4    0    0  0.34043503596E+01 -0.74633134982E+01 -0.22633165103E+01  0.85095976186E+01  0.51100000000E-03 0. -1.
        -11    1    4    4    0    0 -0.15341289829E+02 -0.48863304252E+01  0.75734274781E+01  0.17792925635E+02  0.51100000000E-03 0.  1.
        -12    1    4    4    0    0  0.18615585804E+01  0.32286804042E+00  0.28000893875E+02  0.28064563099E+02  0.00000000000E+00 0.  1.
</event>
<event>
 8    1  0.2460897E-006  0.9118800E+02  0.7816164E-02  0.1184000E+00
        -11   -1    0    0    0    0  0.00000000000E+00  0.00000000000E+00  0.45593999997E+02  0.45594000000E+02  0.51100000000E-03 0. -1.
         11   -1    0    0    0    0 -0.00000000000E+00 -0.00000000000E+00 -0.45593999997E+02  0.45594000000E+02  0.51100000000E-03 0.  1.
         23    2    1    2    0    0  0.00000000000E+00  0.00000000000E+00  0.11102230246E-14  0.91188000000E+02  0.91188000000E+02 0.  0.
    9900012    2    3    3    0    0  0.26077202255E+02 -0.25988509427E+02  0.59751923287E+00  0.54367080281E+02  0.39999991118E+02 0.  0.
         12    1    3    3    0    0 -0.26077202255E+02  0.25988509427E+02 -0.59751923287E+00  0.36820919719E+02  0.00000000000E+00 0. -1.
         11    1    4    4    0    0  0.85572694872E+01 -0.32958211535E+01 -0.31424483120E+01  0.96935174115E+01  0.51100000000E-03 0. -1.
        -11    1    4    4    0    0  0.25688740367E+02 -0.14911602078E+02 -0.53557270564E+01  0.30181965986E+02  0.51100000000E-03 0.  1.
         12    1    4    4    0    0 -0.81688075995E+01 -0.77810861953E+01  0.90956946012E+01  0.14491596884E+02  0.00000000000E+00 0. -1.
</event>
<event>
 8    1  0.2460897E-006  0.9118800E+02  0.7816164E-02  0.1184000E+00
        -11   -1    0    0    0    0  0.00000000000E+00  0.00000000000E+00  0.45593999997E+02  0.45594000000E+02  0.51100000000E-03 0.  1.
         11   -1    0    0    0    0 -0.00000000000E+00 -0.00000000000E+00 -0.45593999997E+02  0.45594000000E+02  0.51100000000E-03 0. -1.
         23    2    1    2    0    0  0.35527136788E-14 -0.17763568394E-14  0.00000000000E+00  0.91188000000E+02  0.91188000000E+02 0.  0.
    9900012    2    3    3    0    0  0.26785994839E+02 -0.56767748838E+01  0.24618375830E+02  0.54367085819E+02  0.40000003742E+02 0.  0.
        -12    1    3    3    0    0 -0.26785994839E+02  0.56767748838E+01 -0.24618375830E+02  0.36820914181E+02  0.00000000000E+00 0.  1.
         11    1    4    4    0    0  0.52507225181E+01 -0.24027349548E+01  0.30361804189E+01  0.65239262735E+01  0.51100000000E-03 0. -1.
        -11    1    4    4    0    0  0.90433880778E+01 -0.18480447235E+02  0.18980757137E+02  0.27992480056E+02  0.51100000000E-03 0.  1.
         12    1    4    4    0    0  0.12491884244E+02  0.15206407306E+02  0.26014382736E+01  0.19850679490E+02  0.00000000000E+00 0. -1.
</event>
<event>
 8    1  0.2460897E-006  0.9118800E+02  0.7816164E-02  0.1184000E+00
        -11   -1    0    0    0    0  0.00000000000E+00  0.00000000000E+00  0.45593999997E+02  0.45594000000E+02  0.51100000000E-03 0. -1.
         11   -1    0    0    0    0 -0.00000000000E+00 -0.00000000000E+00 -0.45593999997E+02  0.45594000000E+02  0.51100000000E-03 0.  1.
         23    2    1    2    0    0 -0.16653345369E-15  0.00000000000E+00  0.71054273576E-14  0.91188000000E+02  0.91188000000E+02 0.  0.
    9900012    2    3    3    0    0 -0.43877320337E+00  0.28973857450E+02  0.22717910751E+02  0.54367076514E+02  0.39999982530E+02 0.  0.
        -12    1    3    3    0    0  0.43877320337E+00 -0.28973857450E+02 -0.22717910751E+02  0.36820923486E+02  0.00000000000E+00 0.  1.
         11    1    4    4    0    0 -0.10005522862E+01  0.13785816383E+02  0.11065510792E+02  0.17705800394E+02  0.51100000000E-03 0. -1.
        -11    1    4    4    0    0 -0.33896445241E+01 -0.66972853138E+01 -0.48775084836E+01  0.89517266403E+01  0.51100000000E-03 0.  1.
        -12    1    4    4    0    0  0.39514236069E+01  0.21885326380E+02  0.16529908442E+02  0.27709549480E+02  0.00000000000E+00 0.  1.
</event>
<event>
 8    1  0.2460897E-006  0.9118800E+02  0.7816164E-02  0.1184000E+00
        -11   -1    0    0    0    0  0.00000000000E+00  0.00000000000E+00  0.45593999997E+02  0.45594000000E+02  0.51100000000E-03 0. -1.
         11   -1    0    0    0    0 -0.00000000000E+00 -0.00000000000E+00 -0.45593999997E+02  0.45594000000E+02  0.51100000000E-03 0.  1.
         23    2    1    2    0    0 -0.35527136788E-14  0.00000000000E+00  0.00000000000E+00  0.91188000000E+02  0.91188000000E+02 0.  0.
    9900012    2    3    3    0    0 -0.26889583479E+02  0.97585076756E+01 -0.23184109677E+02  0.54367066915E+02  0.39999960645E+02 0.  0.
         12    1    3    3    0    0  0.26889583479E+02 -0.97585076756E+01  0.23184109677E+02  0.36820933085E+02  0.00000000000E+00 0. -1.
         11    1    4    4    0    0  0.86690446576E+01  0.10188871316E+01 -0.79202045374E+01  0.11786437394E+02  0.51100000000E-03 0. -1.
        -11    1    4    4    0    0  0.10853204830E+01  0.12540884917E+01  0.84137495368E+00  0.18597232508E+01  0.51100000000E-03 0.  1.
        -12    1    4    4    0    0 -0.36643948620E+02  0.74855320523E+01 -0.16105280094E+02  0.40720906270E+02  0.00000000000E+00 0.  1.
</event>
<event>
 8    1  0.2460897E-006  0.9118800E+02  0.7816164E-02  0.1184000E+00
        -11   -1    0    0    0    0  0.00000000000E+00  0.00000000000E+00  0.45593999997E+02  0.45594000000E+02  0.51100000000E-03 0. -1.
         11   -1    0    0    0    0 -0.00000000000E+00 -0.00000000000E+00 -0.45593999997E+02  0.45594000000E+02  0.51100000000E-03 0.  1.
         23    2    1    2    0    0  0.00000000000E+00  0.22204460493E-15  0.00000000000E+00  0.91188000000E+02  0.91188000000E+02 0.  0.
    9900012    2    3    3    0    0  0.29085770296E+02 -0.39685892210E+00  0.22575183607E+02  0.54367103139E+02  0.40000043226E+02 0.  0.
        -12    1    3    3    0    0 -0.29085770296E+02  0.39685892210E+00 -0.22575183607E+02  0.36820896861E+02  0.00000000000E+00 0.  1.
         11    1    4    4    0    0  0.29944059223E+02  0.86956425060E+00  0.14282042969E+02  0.33187039283E+02  0.51100000000E-03 0. -1.
        -11    1    4    4    0    0 -0.65108392034E+01  0.19508488444E+01 -0.35503249224E+01  0.76682231098E+01  0.51100000000E-03 0.  1.
         12    1    4    4    0    0  0.56525502772E+01 -0.32172720171E+01  0.11843465561E+02  0.13511840746E+02  0.00000000000E+00 0. -1.
</event>
<event>
 8    1  0.2460897E-006  0.9118800E+02  0.7816164E-02  0.1184000E+00
        -11   -1    0    0    0    0  0.00000000000E+00  0.00000000000E+00  0.45593999997E+02  0.45594000000E+02  0.51100000000E-03 0.  1.
         11   -1    0    0    0    0 -0.00000000000E+00 -0.00000000000E+00 -0.45593999997E+02  0.45594000000E+02  0.51100000000E-03 0. -1.
         23    2    1    2    0    0 -0.35527136788E-14  0.00000000000E+00  0.00000000000E+00  0.91188000000E+02  0.91188000000E+02 0.  0.
    9900012    2    3    3    0    0  0.21447279968E+02 -0.26754856765E+02 -0.13415602500E+02  0.54366992830E+02  0.39999791755E+02 0.  0.
        -12    1    3    3    0    0 -0.21447279968E+02  0.26754856765E+02  0.13415602500E+02  0.36821007170E+02  0.00000000000E+00 0.  1.
         11    1    4    4    0    0  0.25546076382E+02 -0.20609246649E+02 -0.82418845809E+01  0.33841863537E+02  0.51100000000E-03 0. -1.
        -11    1    4    4    0    0 -0.99228312362E+01 -0.37846943041E+01 -0.83257189914E+01  0.13494594759E+02  0.51100000000E-03 0.  1.
        -12    1    4    4    0    0  0.58240348216E+01 -0.23609158121E+01  0.31520010724E+01  0.70305345341E+01  0.00000000000E+00 0.  1.
</event>
<event>
 8    1  0.2460897E-006  0.9118800E+02  0.7816164E-02  0.1184000E+00
        -11   -1    0    0    0    0  0.00000000000E+00  0.00000000000E+00  0.45593999997E+02  0.45594000000E+02  0.51100000000E-03 0. -1.
         11   -1    0    0    0    0 -0.00000000000E+00 -0.00000000000E+00 -0.45593999997E+02  0.45594000000E+02  0.51100000000E-03 0.  1.
         23    2    1    2    0    0  0.00000000000E+00  0.35527136788E-14  0.00000000000E+00  0.91188000000E+02  0.91188000000E+02 0.  0.
    9900012    2    3    3    0    0 -0.15803468499E+02 -0.20301783235E+02 -0.26341400645E+02  0.54367062925E+02  0.39999951550E+02 0.  0.
        -12    1    3    3    0    0  0.15803468499E+02  0.20301783235E+02  0.26341400645E+02  0.36820937075E+02  0.00000000000E+00 0.  1.
         11    1    4    4    0    0 -0.81579085989E+01 -0.10911104420E+01  0.31620648719E+01  0.88170657943E+01  0.51100000000E-03 0. -1.
        -11    1    4    4    0    0 -0.14547848159E+02 -0.64187640689E+00 -0.94375636806E+01  0.17352795160E+02  0.51100000000E-03 0.  1.
         12    1    4    4    0    0  0.69022882589E+01 -0.18568796387E+02 -0.20065901836E+02  0.28197201970E+02  0.00000000000E+00 0. -1.
</event>
<event>
 8    1  0.2460897E-006  0.9118800E+02  0.7816164E-02  0.1184000E+00
        -11   -1    0    0    0    0  0.00000000000E+00  0.00000000000E+00  0.45593999997E+02  0.45594000000E+02  0.51100000000E-03 0.  1.
         11   -1    0    0    0    0 -0.00000000000E+00 -0.00000000000E+00 -0.45593999997E+02  0.45594000000E+02  0.51100000000E-03 0. -1.
         23    2    1    2    0    0 -0.22204460493E-15  0.00000000000E+00  0.00000000000E+00  0.91188000000E+02  0.91188000000E+02 0.  0.
    9900012    2    3    3    0    0  0.14550424569E+01 -0.91409606804E+01 -0.35638536148E+02  0.54367087878E+02  0.40000008435E+02 0.  0.
        -12    1    3    3    0    0 -0.14550424569E+01  0.91409606804E+01  0.35638536148E+02  0.36820912122E+02  0.00000000000E+00 0.  1.
         11    1    4    4    0    0 -0.52231108508E+01 -0.75046066905E+01 -0.21710057019E+02  0.23556879771E+02  0.51100000000E-03 0. -1.
        -11    1    4    4    0    0  0.11207604364E+02 -0.77291856844E+01 -0.17702218050E+02  0.22332022548E+02  0.51100000000E-03 0.  1.
        -12    1    4    4    0    0 -0.45294510565E+01  0.60928316944E+01  0.37737389204E+01  0.84781855588E+01  0.00000000000E+00 0.  1.
</event>
<event>
 8    1  0.2460897E-006  0.9118800E+02  0.7816164E-02  0.1184000E+00
        -11   -1    0    0    0    0  0.00000000000E+00  0.00000000000E+00  0.45593999997E+02  0.45594000000E+02  0.51100000000E-03 0. -1.
         11   -1    0    0    0    0 -0.00000000000E+00 -0.00000000000E+00 -0.45593999997E+02  0.45594000000E+02  0.51100000000E-03 0.  1.
         23    2    1    2    0    0  0.00000000000E+00  0.00000000000E+00  0.35527136788E-14  0.91188000000E+02  0.91188000000E+02 0.  0.
    9900012    2    3    3    0    0 -0.18974460116E+02  0.59506571718E+01  0.30989342092E+02  0.54367085009E+02  0.40000001895E+02 0.  0.
        -12    1    3    3    0    0  0.18974460116E+02 -0.59506571718E+01 -0.30989342092E+02  0.36820914991E+02  0.00000000000E+00 0.  1.
         11    1    4    4    0    0 -0.18137176366E+02 -0.90945385424E+01  0.91735538824E+01  0.22267058381E+02  0.51100000000E-03 0. -1.
        -11    1    4    4    0    0  0.99650319395E+00  0.88370170284E+00  0.16967491593E+02  0.17019686205E+02  0.51100000000E-03 0.  1.
        -12    1    4    4    0    0 -0.18337869442E+01  0.14161494011E+02  0.48482966167E+01  0.15080340423E+02  0.00000000000E+00 0.  1.
</event>
<event>
 8    1  0.2460897E-006  0.9118800E+02  0.7816164E-02  0.1184000E+00
        -11   -1    0    0    0    0  0.00000000000E+00  0.00000000000E+00  0.45593999997E+02  0.45594000000E+02  0.51100000000E-03 0.  1.
         11   -1    0    0    0    0 -0.00000000000E+00 -0.00000000000E+00 -0.45593999997E+02  0.45594000000E+02  0.51100000000E-03 0. -1.
         23    2    1    2    0    0  0.00000000000E+00 -0.17763568394E-14  0.17763568394E-14  0.91188000000E+02  0.91188000000E+02 0.  0.
    9900012    2    3    3    0    0  0.33708216364E+02  0.73016615468E+01 -0.12892644814E+02  0.54367103731E+02  0.40000044575E+02 0.  0.
        -12    1    3    3    0    0 -0.33708216364E+02 -0.73016615468E+01  0.12892644814E+02  0.36820896269E+02  0.00000000000E+00 0.  1.
         11    1    4    4    0    0  0.26483546159E+01  0.10655233457E+02 -0.15320209031E+02  0.18848251569E+02  0.51100000000E-03 0. -1.
        -11    1    4    4    0    0  0.13648353487E+01  0.39699841844E+00  0.52652084558E+01  0.54536963261E+01  0.51100000000E-03 0.  1.
        -12    1    4    4    0    0  0.29695026399E+02 -0.37505703284E+01 -0.28376442390E+01  0.30065155836E+02  0.00000000000E+00 0.  1.
</event>
<event>
 8    1  0.2460897E-006  0.9118800E+02  0.7816164E-02  0.1184000E+00
        -11   -1    0    0    0    0  0.00000000000E+00  0.00000000000E+00  0.45593999997E+02  0.45594000000E+02  0.51100000000E-03 0.  1.
         11   -1    0    0    0    0 -0.00000000000E+00 -0.00000000000E+00 -0.45593999997E+02  0.45594000000E+02  0.51100000000E-03 0. -1.
         23    2    1    2    0    0  0.00000000000E+00  0.13322676296E-14 -0.35527136788E-14  0.91188000000E+02  0.91188000000E+02 0.  0.
    9900012    2    3    3    0    0 -0.20127275927E+02  0.25243789428E+01 -0.30729460074E+02  0.54367089613E+02  0.40000012390E+02 0.  0.
        -12    1    3    3    0    0  0.20127275927E+02 -0.25243789428E+01  0.30729460074E+02  0.36820910387E+02  0.00000000000E+00 0.  1.
         11    1    4    4    0    0  0.51017420328E+01 -0.97456836550E+01 -0.59614128940E+01  0.12511777077E+02  0.51100000000E-03 0. -1.
        -11    1    4    4    0    0 -0.12530068918E+02  0.83208942946E+01 -0.15795917984E+01  0.15123988213E+02  0.51100000000E-03 0.  1.
         12    1    4    4    0    0 -0.12698949042E+02  0.39491683033E+01 -0.23188455382E+02  0.26731324323E+02  0.00000000000E+00 0. -1.
</event>
<event>
 8    1  0.2460897E-006  0.9118800E+02  0.7816164E-02  0.1184000E+00
        -11   -1    0    0    0    0  0.00000000000E+00  0.00000000000E+00  0.45593999997E+02  0.45594000000E+02  0.51100000000E-03 0. -1.
         11   -1    0    0    0    0 -0.00000000000E+00 -0.00000000000E+00 -0.45593999997E+02  0.45594000000E+02  0.51100000000E-03 0.  1.
         23    2    1    2    0    0 -0.31086244690E-14  0.00000000000E+00  0.00000000000E+00  0.91188000000E+02  0.91188000000E+02 0.  0.
    9900012    2    3    3    0    0  0.91670223980E+00  0.15006722378E+02  0.33611577169E+02  0.54367079597E+02  0.39999989558E+02 0.  0.
        -12    1    3    3    0    0 -0.91670223980E+00 -0.15006722378E+02 -0.33611577169E+02  0.36820920403E+02  0.00000000000E+00 0.  1.
         11    1    4    4    0    0  0.90014038695E+01 -0.16039627443E+01  0.59715276067E+01  0.10920490388E+02  0.51100000000E-03 0. -1.
        -11    1    4    4    0    0  0.91422541475E+01  0.12625061587E+02  0.10314475904E+02  0.18691211956E+02  0.51100000000E-03 0.  1.
        -12    1    4    4    0    0 -0.17226955777E+02  0.39856235354E+01  0.17325573658E+02  0.24755377252E+02  0.00000000000E+00 0.  1.
</event>
<event>
 8    1  0.2460897E-006  0.9118800E+02  0.7816164E-02  0.1184000E+00
        -11   -1    0    0    0    0  0.00000000000E+00  0.00000000000E+00  0.45593999997E+02  0.45594000000E+02  0.51100000000E-03 0. -1.
         11   -1    0    0    0    0 -0.00000000000E+00 -0.00000000000E+00 -0.45593999997E+02  0.45594000000E+02  0.51100000000E-03 0.  1.
         23    2    1    2    0    0  0.00000000000E+00  0.17763568394E-14  0.00000000000E+00  0.91188000000E+02  0.91188000000E+02 0.  0.
    9900012    2    3    3    0    0 -0.19164917576E+02  0.56373447385E+01 -0.30930665305E+02  0.54367085052E+02  0.40000001993E+02 0.  0.
         12    1    3    3    0    0  0.19164917576E+02 -0.56373447385E+01  0.30930665305E+02  0.36820914948E+02  0.00000000000E+00 0. -1.
         11    1    4    4    0    0 -0.53205035576E+01  0.17566070572E+02 -0.95464618190E+01  0.20688391116E+02  0.51100000000E-03 0. -1.
        -11    1    4    4    0    0 -0.30904119298E+01 -0.25073024699E+01 -0.18716213604E+02  0.19134624729E+02  0.51100000000E-03 0.  1.
         12    1    4    4    0    0 -0.10754002088E+02 -0.94214233634E+01 -0.26679898821E+01  0.14544069208E+02  0.00000000000E+00 0. -1.
</event>
<event>
 8    1  0.2460897E-006  0.9118800E+02  0.7816164E-02  0.1184000E+00
        -11   -1    0    0    0    0  0.00000000000E+00  0.00000000000E+00  0.45593999997E+02  0.45594000000E+02  0.51100000000E-03 0.  1.
         11   -1    0    0    0    0 -0.00000000000E+00 -0.00000000000E+00 -0.45593999997E+02  0.45594000000E+02  0.51100000000E-03 0. -1.
         23    2    1    2    0    0 -0.35527136788E-14  0.00000000000E+00  0.44408920985E-15  0.91188000000E+02  0.91188000000E+02 0.  0.
    9900012    2    3    3    0    0  0.28495840565E+02  0.23314038044E+02 -0.47133336089E+00  0.54367089439E+02  0.40000011993E+02 0.  0.
        -12    1    3    3    0    0 -0.28495840565E+02 -0.23314038044E+02  0.47133336089E+00  0.36820910561E+02  0.00000000000E+00 0.  1.
         11    1    4    4    0    0 -0.13943872695E+01 -0.63953147488E+00 -0.19361072150E+01  0.24701878013E+01  0.51100000000E-03 0. -1.
        -11    1    4    4    0    0  0.28486221101E+02  0.31932640057E+02  0.49500370343E+01  0.43077385721E+02  0.51100000000E-03 0.  1.
         12    1    4    4    0    0  0.14040067337E+01 -0.79790705383E+01 -0.34852631801E+01  0.88195159163E+01  0.00000000000E+00 0. -1.
</event>
<event>
 8    1  0.2460897E-006  0.9118800E+02  0.7816164E-02  0.1184000E+00
        -11   -1    0    0    0    0  0.00000000000E+00  0.00000000000E+00  0.45593999997E+02  0.45594000000E+02  0.51100000000E-03 0. -1.
         11   -1    0    0    0    0 -0.00000000000E+00 -0.00000000000E+00 -0.45593999997E+02  0.45594000000E+02  0.51100000000E-03 0.  1.
         23    2    1    2    0    0 -0.14210854715E-13  0.55511151231E-15 -0.17763568394E-14  0.91188000000E+02  0.91188000000E+02 0.  0.
    9900012    2    3    3    0    0  0.36498161691E+02 -0.84108185199E+00  0.47908961051E+01  0.54367137557E+02  0.40000121689E+02 0.  0.
        -12    1    3    3    0    0 -0.36498161691E+02  0.84108185199E+00 -0.47908961051E+01  0.36820862443E+02  0.00000000000E+00 0.  1.
         11    1    4    4    0    0  0.57491869131E+00  0.20823801981E+01 -0.18403136006E+01  0.28378853396E+01  0.51100000000E-03 0. -1.
        -11    1    4    4    0    0 -0.72460984524E+01  0.23139508032E+01  0.13187658444E+01  0.77200683103E+01  0.51100000000E-03 0.  1.
         12    1    4    4    0    0  0.43169341453E+02 -0.52374128533E+01  0.53124438613E+01  0.43809183907E+02  0.00000000000E+00 0. -1.
</event>
<event>
 8    1  0.2460897E-006  0.9118800E+02  0.7816164E-02  0.1184000E+00
        -11   -1    0    0    0    0  0.00000000000E+00  0.00000000000E+00  0.45593999997E+02  0.45594000000E+02  0.51100000000E-03 0.  1.
         11   -1    0    0    0    0 -0.00000000000E+00 -0.00000000000E+00 -0.45593999997E+02  0.45594000000E+02  0.51100000000E-03 0. -1.
         23    2    1    2    0    0  0.00000000000E+00 -0.44408920985E-15  0.00000000000E+00  0.91188000000E+02  0.91188000000E+02 0.  0.
    9900012    2    3    3    0    0 -0.12932346058E+02  0.23471576926E+01  0.34395129671E+02  0.54367086529E+02  0.40000005359E+02 0.  0.
         12    1    3    3    0    0  0.12932346058E+02 -0.23471576926E+01 -0.34395129671E+02  0.36820913471E+02  0.00000000000E+00 0. -1.
         11    1    4    4    0    0  0.48435040534E+01 -0.18999692621E+01  0.12757389328E+02  0.13777532342E+02  0.51100000000E-03 0. -1.
        -11    1    4    4    0    0 -0.30757841973E+01  0.52590447789E+01 -0.64493856039E+01  0.88720107836E+01  0.51100000000E-03 0.  1.
        -12    1    4    4    0    0 -0.14700065914E+02 -0.10119178242E+01  0.28087125947E+02  0.31717543403E+02  0.00000000000E+00 0.  1.
</event>
<event>
 8    1  0.2460897E-006  0.9118800E+02  0.7816164E-02  0.1184000E+00
        -11   -1    0    0    0    0  0.00000000000E+00  0.00000000000E+00  0.45593999997E+02  0.45594000000E+02  0.51100000000E-03 0. -1.
         11   -1    0    0    0    0 -0.00000000000E+00 -0.00000000000E+00 -0.45593999997E+02  0.45594000000E+02  0.51100000000E-03 0.  1.
         23    2    1    2    0    0  0.71054273576E-14  0.17763568394E-14  0.00000000000E+00  0.91188000000E+02  0.91188000000E+02 0.  0.
    9900012    2    3    3    0    0  0.33174661315E+02 -0.10636232964E+02  0.11920513836E+02  0.54366997092E+02  0.39999801470E+02 0.  0.
        -12    1    3    3    0    0 -0.33174661315E+02  0.10636232964E+02 -0.11920513836E+02  0.36821002908E+02  0.00000000000E+00 0.  1.
         11    1    4    4    0    0  0.29854655998E+02  0.40449067012E+01  0.11831597693E+02  0.32367398091E+02  0.51100000000E-03 0. -1.
        -11    1    4    4    0    0 -0.51217929702E+01 -0.37280745936E+01  0.41664457470E+01  0.75822538753E+01  0.51100000000E-03 0.  1.
        -12    1    4    4    0    0  0.84417982877E+01 -0.10953065071E+02 -0.40775296043E+01  0.14417345125E+02  0.00000000000E+00 0.  1.
</event>
<event>
 8    1  0.2460897E-006  0.9118800E+02  0.7816164E-02  0.1184000E+00
        -11   -1    0    0    0    0  0.00000000000E+00  0.00000000000E+00  0.45593999997E+02  0.45594000000E+02  0.51100000000E-03 0.  1.
         11   -1    0    0    0    0 -0.00000000000E+00 -0.00000000000E+00 -0.45593999997E+02  0.45594000000E+02  0.51100000000E-03 0. -1.
         23    2    1    2    0    0  0.35527136788E-14  0.00000000000E+00  0.00000000000E+00  0.91188000000E+02  0.91188000000E+02 0.  0.
    9900012    2    3    3    0    0 -0.14143768146E+02 -0.90544928354E+01  0.32768156283E+02  0.54367053732E+02  0.39999930592E+02 0.  0.
         12    1    3    3    0    0  0.14143768146E+02  0.90544928354E+01 -0.32768156283E+02  0.36820946268E+02  0.00000000000E+00 0. -1.
         11    1    4    4    0    0 -0.68037342387E+00  0.55410421083E+00  0.24930310479E+02  0.24945747540E+02  0.51100000000E-03 0.  1.
        -11    1    4    4    0    0  0.32265904142E+01 -0.22343809154E+01  0.10287859650E+02  0.11011058088E+02  0.51100000000E-03 0. -1.
        -12    1    4    4    0    0 -0.16689985137E+02 -0.73742161309E+01 -0.24500138457E+01  0.18410248104E+02  0.00000000000E+00 0.  1.
</event>
<event>
 8    1  0.2460897E-006  0.9118800E+02  0.7816164E-02  0.1184000E+00
        -11   -1    0    0    0    0  0.00000000000E+00  0.00000000000E+00  0.45593999997E+02  0.45594000000E+02  0.51100000000E-03 0.  1.
         11   -1    0    0    0    0 -0.00000000000E+00 -0.00000000000E+00 -0.45593999997E+02  0.45594000000E+02  0.51100000000E-03 0. -1.
         23    2    1    2    0    0  0.71054273576E-14  0.35527136788E-14  0.00000000000E+00  0.91188000000E+02  0.91188000000E+02 0.  0.
    9900012    2    3    3    0    0  0.29666796855E+02 -0.20943762634E+02 -0.60844167170E+01  0.54367079918E+02  0.39999990289E+02 0.  0.
        -12    1    3    3    0    0 -0.29666796855E+02  0.20943762634E+02  0.60844167170E+01  0.36820920082E+02  0.00000000000E+00 0.  1.
         11    1    4    4    0    0 -0.24535918080E+01 -0.25343438469E+01  0.18603991038E+01  0.39879940548E+01  0.51100000000E-03 0. -1.
        -11    1    4    4    0    0  0.32396348349E+02 -0.12808292399E+01 -0.30617005862E+01  0.32565901195E+02  0.51100000000E-03 0.  1.
         12    1    4    4    0    0 -0.27595968600E+00 -0.17128589547E+02 -0.48831152346E+01  0.17813184668E+02  0.00000000000E+00 0. -1.
</event>
<event>
 8    1  0.2460897E-006  0.9118800E+02  0.7816164E-02  0.1184000E+00
        -11   -1    0    0    0    0  0.00000000000E+00  0.00000000000E+00  0.45593999997E+02  0.45594000000E+02  0.51100000000E-03 0.  1.
         11   -1    0    0    0    0 -0.00000000000E+00 -0.00000000000E+00 -0.45593999997E+02  0.45594000000E+02  0.51100000000E-03 0. -1.
         23    2    1    2    0    0 -0.88817841970E-15 -0.71054273576E-14  0.00000000000E+00  0.91188000000E+02  0.91188000000E+02 0.  0.
    9900012    2    3    3    0    0  0.37259218201E+01 -0.24196511653E+02 -0.27503201106E+02  0.54367085554E+02  0.40000003138E+02 0.  0.
        -12    1    3    3    0    0 -0.37259218201E+01  0.24196511653E+02  0.27503201106E+02  0.36820914446E+02  0.00000000000E+00 0.  1.
         11    1    4    4    0    0 -0.66801740768E+01  0.49895871815E+01 -0.17954218999E+02  0.19795824966E+02  0.51100000000E-03 0. -1.
        -11    1    4    4    0    0  0.84095242071E+01 -0.72223308603E+01 -0.20239059063E+01  0.11268467324E+02  0.51100000000E-03 0.  1.
         12    1    4    4    0    0  0.19965716898E+01 -0.21963767974E+02 -0.75250762000E+01  0.23302793265E+02  0.00000000000E+00 0. -1.
</event>
<event>
 8    1  0.2460897E-006  0.9118800E+02  0.7816164E-02  0.1184000E+00
        -11   -1    0    0    0    0  0.00000000000E+00  0.00000000000E+00  0.45593999997E+02  0.45594000000E+02  0.51100000000E-03 0.  1.
         11   -1    0    0    0    0 -0.00000000000E+00 -0.00000000000E+00 -0.45593999997E+02  0.45594000000E+02  0.51100000000E-03 0. -1.
         23    2    1    2    0    0  0.00000000000E+00 -0.35527136788E-14  0.00000000000E+00  0.91188000000E+02  0.91188000000E+02 0.  0.
    9900012    2    3    3    0    0  0.21786465992E+02  0.22318828825E+02 -0.19570377620E+02  0.54367083380E+02  0.39999998181E+02 0.  0.
        -12    1    3    3    0    0 -0.21786465992E+02 -0.22318828825E+02  0.19570377620E+02  0.36820916620E+02  0.00000000000E+00 0.  1.
         11    1    4    4    0    0 -0.31129758428E+01  0.17703928077E+00 -0.54042711235E+01  0.62392393881E+01  0.51100000000E-03 0. -1.
        -11    1    4    4    0    0  0.11820509591E+02 -0.66746412852E+01 -0.30116349699E+00  0.13578143576E+02  0.51100000000E-03 0.  1.
        -12    1    4    4    0    0  0.13078932244E+02  0.28816430830E+02 -0.13864942999E+02  0.34549700415E+02  0.00000000000E+00 0.  1.
</event>
<event>
 8    1  0.2460897E-006  0.9118800E+02  0.7816164E-02  0.1184000E+00
        -11   -1    0    0    0    0  0.00000000000E+00  0.00000000000E+00  0.45593999997E+02  0.45594000000E+02  0.51100000000E-03 0. -1.
         11   -1    0    0    0    0 -0.00000000000E+00 -0.00000000000E+00 -0.45593999997E+02  0.45594000000E+02  0.51100000000E-03 0.  1.
         23    2    1    2    0    0 -0.17763568394E-14  0.71054273576E-14  0.00000000000E+00  0.91188000000E+02  0.91188000000E+02 0.  0.
    9900012    2    3    3    0    0  0.83171176047E+01 -0.26547423208E+02 -0.24121226561E+02  0.54367167648E+02  0.40000190288E+02 0.  0.
         12    1    3    3    0    0 -0.83171176047E+01  0.26547423208E+02  0.24121226561E+02  0.36820832352E+02  0.00000000000E+00 0. -1.
         11    1    4    4    0    0  0.43516486565E+01 -0.17059541997E+00 -0.34899092923E+01  0.55808078229E+01  0.51100000000E-03 0. -1.
        -11    1    4    4    0    0  0.15223331877E+02 -0.24981377997E+02 -0.53257846652E+01  0.29735215867E+02  0.51100000000E-03 0.  1.
         12    1    4    4    0    0 -0.11257862929E+02 -0.13954497913E+01 -0.15305532604E+02  0.19051143959E+02  0.00000000000E+00 0. -1.
</event>
<event>
 8    1  0.2460897E-006  0.9118800E+02  0.7816164E-02  0.1184000E+00
        -11   -1    0    0    0    0  0.00000000000E+00  0.00000000000E+00  0.45593999997E+02  0.45594000000E+02  0.51100000000E-03 0. -1.
         11   -1    0    0    0    0 -0.00000000000E+00 -0.00000000000E+00 -0.45593999997E+02  0.45594000000E+02  0.51100000000E-03 0.  1.
         23    2    1    2    0    0  0.00000000000E+00  0.88817841970E-15  0.00000000000E+00  0.91188000000E+02  0.91188000000E+02 0.  0.
    9900012    2    3    3    0    0  0.33358481649E+02  0.43653684495E+01  0.14964445964E+02  0.54367090416E+02  0.40000014221E+02 0.  0.
         12    1    3    3    0    0 -0.33358481649E+02 -0.43653684495E+01 -0.14964445964E+02  0.36820909584E+02  0.00000000000E+00 0. -1.
         11    1    4    4    0    0  0.23677343113E+02  0.15397920479E+02  0.72454793298E+01  0.29158352199E+02  0.51100000000E-03 0. -1.
        -11    1    4    4    0    0 -0.30832984667E+00  0.44262609073E+01  0.48629063431E+01  0.65829105475E+01  0.51100000000E-03 0.  1.
         12    1    4    4    0    0  0.99894683824E+01 -0.15458812937E+02  0.28560602911E+01  0.18625827669E+02  0.00000000000E+00 0. -1.
</event>
<event>
 8    1  0.2460897E-006  0.9118800E+02  0.7816164E-02  0.1184000E+00
        -11   -1    0    0    0    0  0.00000000000E+00  0.00000000000E+00  0.45593999997E+02  0.45594000000E+02  0.51100000000E-03 0. -1.
         11   -1    0    0    0    0 -0.00000000000E+00 -0.00000000000E+00 -0.45593999997E+02  0.45594000000E+02  0.51100000000E-03 0.  1.
         23    2    1    2    0    0  0.35527136788E-14 -0.17763568394E-14  0.71054273576E-14  0.91188000000E+02  0.91188000000E+02 0.  0.
    9900012    2    3    3    0    0  0.17860094010E+02 -0.41353789425E+01  0.31932675333E+02  0.54367081069E+02  0.39999992912E+02 0.  0.
        -12    1    3    3    0    0 -0.17860094010E+02  0.41353789425E+01 -0.31932675333E+02  0.36820918931E+02  0.00000000000E+00 0.  1.
         11    1    4    4    0    0  0.12565208030E+02 -0.43407393483E+01  0.32392886445E+02  0.35014647841E+02  0.51100000000E-03 0. -1.
        -11    1    4    4    0    0  0.55609413139E+01  0.66463461537E+01 -0.62524282924E+01  0.10686011665E+02  0.51100000000E-03 0.  1.
        -12    1    4    4    0    0 -0.26605533316E+00 -0.64409857479E+01  0.57922171803E+01  0.86664215631E+01  0.00000000000E+00 0.  1.
</event>
<event>
 8    1  0.2460897E-006  0.9118800E+02  0.7816164E-02  0.1184000E+00
        -11   -1    0    0    0    0  0.00000000000E+00  0.00000000000E+00  0.45593999997E+02  0.45594000000E+02  0.51100000000E-03 0. -1.
         11   -1    0    0    0    0 -0.00000000000E+00 -0.00000000000E+00 -0.45593999997E+02  0.45594000000E+02  0.51100000000E-03 0.  1.
         23    2    1    2    0    0  0.17763568394E-14  0.00000000000E+00 -0.35527136788E-14  0.91188000000E+02  0.91188000000E+02 0.  0.
    9900012    2    3    3    0    0  0.14319256759E+02  0.16110779376E+02 -0.29852670512E+02  0.54367078461E+02  0.39999986968E+02 0.  0.
         12    1    3    3    0    0 -0.14319256759E+02 -0.16110779376E+02  0.29852670512E+02  0.36820921539E+02  0.00000000000E+00 0. -1.
         11    1    4    4    0    0  0.57105476525E+01  0.12719665109E+02 -0.14738415573E+02  0.20288448162E+02  0.51100000000E-03 0. -1.
        -11    1    4    4    0    0  0.67869881497E+01  0.98920474283E+01 -0.21605675164E+02  0.24712770181E+02  0.51100000000E-03 0.  1.
        -12    1    4    4    0    0  0.18217209571E+01 -0.65009331616E+01  0.64914202243E+01  0.93658601178E+01  0.00000000000E+00 0.  1.
</event>
<event>
 8    1  0.2460897E-006  0.9118800E+02  0.7816164E-02  0.1184000E+00
        -11   -1    0    0    0    0  0.00000000000E+00  0.00000000000E+00  0.45593999997E+02  0.45594000000E+02  0.51100000000E-03 0.  1.
         11   -1    0    0    0    0 -0.00000000000E+00 -0.00000000000E+00 -0.45593999997E+02  0.45594000000E+02  0.51100000000E-03 0. -1.
         23    2    1    2    0    0  0.00000000000E+00  0.55511151231E-15 -0.71054273576E-14  0.91188000000E+02  0.91188000000E+02 0.  0.
    9900012    2    3    3    0    0  0.16296033849E+02 -0.96214326535E+00  0.33004444361E+02  0.54367084931E+02  0.40000001718E+02 0.  0.
         12    1    3    3    0    0 -0.16296033849E+02  0.96214326535E+00 -0.33004444361E+02  0.36820915069E+02  0.00000000000E+00 0. -1.
         11    1    4    4    0    0  0.16368932761E+02 -0.50516270442E+01  0.13601306129E+02  0.21873646798E+02  0.51100000000E-03 0. -1.
        -11    1    4    4    0    0  0.11718487866E+02  0.24431850551E+01  0.16239402507E+02  0.20174496403E+02  0.51100000000E-03 0.  1.
         12    1    4    4    0    0 -0.11791386778E+02  0.16462987237E+01  0.31637357253E+01  0.12318941731E+02  0.00000000000E+00 0. -1.
</event>
<event>
 8    1  0.2460897E-006  0.9118800E+02  0.7816164E-02  0.1184000E+00
        -11   -1    0    0    0    0  0.00000000000E+00  0.00000000000E+00  0.45593999997E+02  0.45594000000E+02  0.51100000000E-03 0.  1.
         11   -1    0    0    0    0 -0.00000000000E+00 -0.00000000000E+00 -0.45593999997E+02  0.45594000000E+02  0.51100000000E-03 0. -1.
         23    2    1    2    0    0  0.00000000000E+00  0.00000000000E+00  0.00000000000E+00  0.91188000000E+02  0.91188000000E+02 0.  0.
    9900012    2    3    3    0    0  0.23034695106E+02 -0.65402742083E+01 -0.27971584100E+02  0.54367056471E+02  0.39999936837E+02 0.  0.
        -12    1    3    3    0    0 -0.23034695106E+02  0.65402742083E+01  0.27971584100E+02  0.36820943529E+02  0.00000000000E+00 0.  1.
         11    1    4    4    0    0  0.12110447196E+02 -0.69191179223E+01 -0.11115764146E+02  0.17835283483E+02  0.51100000000E-03 0. -1.
        -11    1    4    4    0    0  0.46760808276E+01 -0.54372055765E+01  0.77073176672E+01  0.10527662716E+02  0.51100000000E-03 0.  1.
         12    1    4    4    0    0  0.62481670820E+01  0.58160492905E+01 -0.24563137621E+02  0.26004110271E+02  0.00000000000E+00 0. -1.
</event>
<event>
 8    1  0.2460897E-006  0.9118800E+02  0.7816164E-02  0.1184000E+00
        -11   -1    0    0    0    0  0.00000000000E+00  0.00000000000E+00  0.45593999997E+02  0.45594000000E+02  0.51100000000E-03 0. -1.
         11   -1    0    0    0    0 -0.00000000000E+00 -0.00000000000E+00 -0.45593999997E+02  0.45594000000E+02  0.51100000000E-03 0.  1.
         23    2    1    2    0    0  0.00000000000E+00  0.00000000000E+00  0.00000000000E+00  0.91188000000E+02  0.91188000000E+02 0.  0.
    9900012    2    3    3    0    0 -0.32664863085E+02 -0.82551973703E+01 -0.14853900501E+02  0.54367083064E+02  0.39999997460E+02 0.  0.
         12    1    3    3    0    0  0.32664863085E+02  0.82551973703E+01  0.14853900501E+02  0.36820916936E+02  0.00000000000E+00 0. -1.
         11    1    4    4    0    0 -0.66293432488E+01 -0.14104482547E+02  0.51908610354E+00  0.15593398298E+02  0.51100000000E-03 0.  1.
        -11    1    4    4    0    0 -0.52113492755E+01 -0.63788563320E+01  0.26365504558E+01  0.86486627835E+01  0.51100000000E-03 0. -1.
        -12    1    4    4    0    0 -0.20824170560E+02  0.12228141509E+02 -0.18009537060E+02  0.30125021982E+02  0.00000000000E+00 0.  1.
</event>
<event>
 8    1  0.2460897E-006  0.9118800E+02  0.7816164E-02  0.1184000E+00
        -11   -1    0    0    0    0  0.00000000000E+00  0.00000000000E+00  0.45593999997E+02  0.45594000000E+02  0.51100000000E-03 0. -1.
         11   -1    0    0    0    0 -0.00000000000E+00 -0.00000000000E+00 -0.45593999997E+02  0.45594000000E+02  0.51100000000E-03 0.  1.
         23    2    1    2    0    0  0.00000000000E+00  0.17763568394E-14  0.71054273576E-14  0.91188000000E+02  0.91188000000E+02 0.  0.
    9900012    2    3    3    0    0 -0.80320569403E+01  0.14399861078E+02 -0.32922838377E+02  0.54367038245E+02  0.39999895287E+02 0.  0.
         12    1    3    3    0    0  0.80320569403E+01 -0.14399861078E+02  0.32922838377E+02  0.36820961755E+02  0.00000000000E+00 0. -1.
         11    1    4    4    0    0  0.12406946212E+02  0.13765370743E+02 -0.69785091815E+01  0.19801952850E+02  0.51100000000E-03 0. -1.
        -11    1    4    4    0    0  0.14962640970E-01  0.16732886277E+00  0.84230947707E+00  0.85889949658E+00  0.51100000000E-03 0.  1.
        -12    1    4    4    0    0 -0.20453965793E+02  0.46716147206E+00 -0.26786638672E+02  0.33706185899E+02  0.00000000000E+00 0.  1.
</event>
<event>
 8    1  0.2460897E-006  0.9118800E+02  0.7816164E-02  0.1184000E+00
        -11   -1    0    0    0    0  0.00000000000E+00  0.00000000000E+00  0.45593999997E+02  0.45594000000E+02  0.51100000000E-03 0.  1.
         11   -1    0    0    0    0 -0.00000000000E+00 -0.00000000000E+00 -0.45593999997E+02  0.45594000000E+02  0.51100000000E-03 0. -1.
         23    2    1    2    0    0  0.00000000000E+00 -0.17763568394E-14  0.00000000000E+00  0.91188000000E+02  0.91188000000E+02 0.  0.
    9900012    2    3    3    0    0 -0.34363265794E+02  0.13070964199E+02 -0.20241181817E+01  0.54367065797E+02  0.39999958098E+02 0.  0.
         12    1    3    3    0    0  0.34363265794E+02 -0.13070964199E+02  0.20241181817E+01  0.36820934203E+02  0.00000000000E+00 0. -1.
         11    1    4    4    0    0 -0.26182589252E+02  0.26052381294E+02 -0.75918401628E+01  0.37707964521E+02  0.51100000000E-03 0. -1.
        -11    1    4    4    0    0 -0.49635143790E+01 -0.65576826239E+01  0.45615907611E+01  0.94046683577E+01  0.51100000000E-03 0.  1.
         12    1    4    4    0    0 -0.32171621636E+01 -0.64237344707E+01  0.10061312200E+01  0.72544329185E+01  0.00000000000E+00 0. -1.
</event>
<event>
 8    1  0.2460897E-006  0.9118800E+02  0.7816164E-02  0.1184000E+00
        -11   -1    0    0    0    0  0.00000000000E+00  0.00000000000E+00  0.45593999997E+02  0.45594000000E+02  0.51100000000E-03 0.  1.
         11   -1    0    0    0    0 -0.00000000000E+00 -0.00000000000E+00 -0.45593999997E+02  0.45594000000E+02  0.51100000000E-03 0. -1.
         23    2    1    2    0    0  0.00000000000E+00  0.00000000000E+00  0.00000000000E+00  0.91188000000E+02  0.91188000000E+02 0.  0.
    9900012    2    3    3    0    0  0.23868625793E+02  0.21043205095E+02 -0.18527042431E+02  0.54367094537E+02  0.40000023615E+02 0.  0.
        -12    1    3    3    0    0 -0.23868625793E+02 -0.21043205095E+02  0.18527042431E+02  0.36820905463E+02  0.00000000000E+00 0.  1.
         11    1    4    4    0    0 -0.76509484331E+01 -0.14246270890E+00 -0.17681257583E+01  0.78538892599E+01  0.51100000000E-03 0. -1.
        -11    1    4    4    0    0  0.16733751107E+02  0.27053361676E+01  0.91379265615E+00  0.16975638049E+02  0.51100000000E-03 0.  1.
         12    1    4    4    0    0  0.14785823119E+02  0.18480331636E+02 -0.17672709329E+02  0.29537567227E+02  0.00000000000E+00 0. -1.
</event>
<event>
 8    1  0.2460897E-006  0.9118800E+02  0.7816164E-02  0.1184000E+00
        -11   -1    0    0    0    0  0.00000000000E+00  0.00000000000E+00  0.45593999997E+02  0.45594000000E+02  0.51100000000E-03 0. -1.
         11   -1    0    0    0    0 -0.00000000000E+00 -0.00000000000E+00 -0.45593999997E+02  0.45594000000E+02  0.51100000000E-03 0.  1.
         23    2    1    2    0    0  0.00000000000E+00 -0.17763568394E-14 -0.35527136788E-14  0.91188000000E+02  0.91188000000E+02 0.  0.
    9900012    2    3    3    0    0 -0.31779992236E+02 -0.13194250317E+02 -0.13104367721E+02  0.54367073866E+02  0.39999976493E+02 0.  0.
         12    1    3    3    0    0  0.31779992236E+02  0.13194250317E+02  0.13104367721E+02  0.36820926134E+02  0.00000000000E+00 0. -1.
         11    1    4    4    0    0 -0.79623363280E+01 -0.60343878903E+01  0.65874117241E+01  0.11966897279E+02  0.51100000000E-03 0.  1.
        -11    1    4    4    0    0 -0.13874535881E+02  0.77224642056E+01 -0.12127332408E+00  0.15879354735E+02  0.51100000000E-03 0. -1.
         12    1    4    4    0    0 -0.99431200272E+01 -0.14882326632E+02 -0.19570506121E+02  0.26520821852E+02  0.00000000000E+00 0. -1.
</event>
<event>
 8    1  0.2460897E-006  0.9118800E+02  0.7816164E-02  0.1184000E+00
        -11   -1    0    0    0    0  0.00000000000E+00  0.00000000000E+00  0.45593999997E+02  0.45594000000E+02  0.51100000000E-03 0. -1.
         11   -1    0    0    0    0 -0.00000000000E+00 -0.00000000000E+00 -0.45593999997E+02  0.45594000000E+02  0.51100000000E-03 0.  1.
         23    2    1    2    0    0 -0.35527136788E-14 -0.35527136788E-14 -0.35527136788E-14  0.91188000000E+02  0.91188000000E+02 0.  0.
    9900012    2    3    3    0    0  0.12640215042E+02 -0.29535342219E+02 -0.17990733656E+02  0.54367109546E+02  0.40000057833E+02 0.  0.
         12    1    3    3    0    0 -0.12640215042E+02  0.29535342219E+02  0.17990733656E+02  0.36820890454E+02  0.00000000000E+00 0. -1.
         11    1    4    4    0    0  0.49304708122E+01 -0.21251764501E+02 -0.82006983331E+01  0.23306619023E+02  0.51100000000E-03 0. -1.
        -11    1    4    4    0    0 -0.93724618238E+01 -0.46761337970E+01  0.10233088201E+01  0.10524088043E+02  0.51100000000E-03 0.  1.
        -12    1    4    4    0    0  0.17082206054E+02 -0.36074439208E+01 -0.10813344143E+02  0.20536402481E+02  0.00000000000E+00 0.  1.
</event>
<event>
 8    1  0.2460897E-006  0.9118800E+02  0.7816164E-02  0.1184000E+00
        -11   -1    0    0    0    0  0.00000000000E+00  0.00000000000E+00  0.45593999997E+02  0.45594000000E+02  0.51100000000E-03 0.  1.
         11   -1    0    0    0    0 -0.00000000000E+00 -0.00000000000E+00 -0.45593999997E+02  0.45594000000E+02  0.51100000000E-03 0. -1.
         23    2    1    2    0    0  0.00000000000E+00 -0.88817841970E-15  0.00000000000E+00  0.91188000000E+02  0.91188000000E+02 0.  0.
    9900012    2    3    3    0    0  0.20662227358E+02  0.42015900465E+01 -0.30186199420E+02  0.54366978372E+02  0.39999758793E+02 0.  0.
        -12    1    3    3    0    0 -0.20662227358E+02 -0.42015900465E+01  0.30186199420E+02  0.36821021628E+02  0.00000000000E+00 0.  1.
         11    1    4    4    0    0  0.16097224945E+02  0.10537963661E+02 -0.70521907438E+01  0.20491528093E+02  0.51100000000E-03 0. -1.
        -11    1    4    4    0    0 -0.45060557720E+01  0.67191536402E+01 -0.11977730819E+02  0.14453982154E+02  0.51100000000E-03 0.  1.
         12    1    4    4    0    0  0.90710581849E+01 -0.13055527255E+02 -0.11156277857E+02  0.19421468125E+02  0.00000000000E+00 0. -1.
</event>
<event>
 8    1  0.2460897E-006  0.9118800E+02  0.7816164E-02  0.1184000E+00
        -11   -1    0    0    0    0  0.00000000000E+00  0.00000000000E+00  0.45593999997E+02  0.45594000000E+02  0.51100000000E-03 0. -1.
         11   -1    0    0    0    0 -0.00000000000E+00 -0.00000000000E+00 -0.45593999997E+02  0.45594000000E+02  0.51100000000E-03 0.  1.
         23    2    1    2    0    0 -0.88817841970E-15 -0.44408920985E-15  0.71054273576E-14  0.91188000000E+02  0.91188000000E+02 0.  0.
    9900012    2    3    3    0    0 -0.41743947881E+01  0.33367440818E+01  0.36431011332E+02  0.54367108924E+02  0.40000056414E+02 0.  0.
        -12    1    3    3    0    0  0.41743947881E+01 -0.33367440818E+01 -0.36431011332E+02  0.36820891076E+02  0.00000000000E+00 0.  1.
         11    1    4    4    0    0 -0.46166400327E+01  0.72109502638E+01  0.68089376363E+01  0.10939506428E+02  0.51100000000E-03 0. -1.
        -11    1    4    4    0    0 -0.11793255785E+02  0.77770754066E+01  0.89242939812E+01  0.16709482554E+02  0.51100000000E-03 0.  1.
         12    1    4    4    0    0  0.12235501030E+02 -0.11651281589E+02  0.20697779715E+02  0.26718119942E+02  0.00000000000E+00 0. -1.
</event>
<event>
 8    1  0.2460897E-006  0.9118800E+02  0.7816164E-02  0.1184000E+00
        -11   -1    0    0    0    0  0.00000000000E+00  0.00000000000E+00  0.45593999997E+02  0.45594000000E+02  0.51100000000E-03 0. -1.
         11   -1    0    0    0    0 -0.00000000000E+00 -0.00000000000E+00 -0.45593999997E+02  0.45594000000E+02  0.51100000000E-03 0.  1.
         23    2    1    2    0    0  0.00000000000E+00 -0.35527136788E-14  0.00000000000E+00  0.91188000000E+02  0.91188000000E+02 0.  0.
    9900012    2    3    3    0    0  0.11524669880E+02  0.27011573606E+02 -0.22211178958E+02  0.54367087529E+02  0.40000007640E+02 0.  0.
         12    1    3    3    0    0 -0.11524669880E+02 -0.27011573606E+02  0.22211178958E+02  0.36820912471E+02  0.00000000000E+00 0. -1.
         11    1    4    4    0    0  0.88081485881E+01  0.22286019171E+02 -0.19515250952E+01  0.24042848885E+02  0.51100000000E-03 0. -1.
        -11    1    4    4    0    0  0.25616300479E+01  0.10669154908E+02 -0.21602072065E+02  0.24228956492E+02  0.51100000000E-03 0.  1.
        -12    1    4    4    0    0  0.15489124404E+00 -0.59436004729E+01  0.13424182022E+01  0.60952821517E+01  0.00000000000E+00 0.  1.
</event>
<event>
 8    1  0.2460897E-006  0.9118800E+02  0.7816164E-02  0.1184000E+00
        -11   -1    0    0    0    0  0.00000000000E+00  0.00000000000E+00  0.45593999997E+02  0.45594000000E+02  0.51100000000E-03 0. -1.
         11   -1    0    0    0    0 -0.00000000000E+00 -0.00000000000E+00 -0.45593999997E+02  0.45594000000E+02  0.51100000000E-03 0.  1.
         23    2    1    2    0    0  0.00000000000E+00  0.00000000000E+00  0.00000000000E+00  0.91188000000E+02  0.91188000000E+02 0.  0.
    9900012    2    3    3    0    0  0.88568073808E+01  0.80096444844E+00 -0.35730884525E+02  0.54367072663E+02  0.39999973749E+02 0.  0.
         12    1    3    3    0    0 -0.88568073808E+01 -0.80096444844E+00  0.35730884525E+02  0.36820927337E+02  0.00000000000E+00 0. -1.
         11    1    4    4    0    0  0.13625241472E+02 -0.13682921661E+01 -0.23809922250E+02  0.27466922406E+02  0.51100000000E-03 0. -1.
        -11    1    4    4    0    0 -0.80578093757E+01  0.82364859441E+01 -0.15350149942E+02  0.19193621236E+02  0.51100000000E-03 0.  1.
         12    1    4    4    0    0  0.32893752846E+01 -0.60672293296E+01  0.34291876667E+01  0.77065290212E+01  0.00000000000E+00 0. -1.
</event>
<event>
 8    1  0.2460897E-006  0.9118800E+02  0.7816164E-02  0.1184000E+00
        -11   -1    0    0    0    0  0.00000000000E+00  0.00000000000E+00  0.45593999997E+02  0.45594000000E+02  0.51100000000E-03 0.  1.
         11   -1    0    0    0    0 -0.00000000000E+00 -0.00000000000E+00 -0.45593999997E+02  0.45594000000E+02  0.51100000000E-03 0. -1.
         23    2    1    2    0    0  0.00000000000E+00  0.17763568394E-14  0.00000000000E+00  0.91188000000E+02  0.91188000000E+02 0.  0.
    9900012    2    3    3    0    0 -0.11010378848E+02 -0.13184823815E+02  0.32568568588E+02  0.54367086360E+02  0.40000004974E+02 0.  0.
         12    1    3    3    0    0  0.11010378848E+02  0.13184823815E+02 -0.32568568588E+02  0.36820913640E+02  0.00000000000E+00 0. -1.
         11    1    4    4    0    0  0.31960681713E+01 -0.21707747526E+01 -0.66916359770E+01  0.77269079903E+01  0.51100000000E-03 0. -1.
        -11    1    4    4    0    0  0.21085666557E+01 -0.13846225740E+01  0.17950449394E+02  0.18126827266E+02  0.51100000000E-03 0.  1.
        -12    1    4    4    0    0 -0.16315013675E+02 -0.96294264882E+01  0.21309755171E+02  0.28513351104E+02  0.00000000000E+00 0.  1.
</event>
<event>
 8    1  0.2460897E-006  0.9118800E+02  0.7816164E-02  0.1184000E+00
        -11   -1    0    0    0    0  0.00000000000E+00  0.00000000000E+00  0.45593999997E+02  0.45594000000E+02  0.51100000000E-03 0.  1.
         11   -1    0    0    0    0 -0.00000000000E+00 -0.00000000000E+00 -0.45593999997E+02  0.45594000000E+02  0.51100000000E-03 0. -1.
         23    2    1    2    0    0  0.00000000000E+00  0.00000000000E+00 -0.35527136788E-14  0.91188000000E+02  0.91188000000E+02 0.  0.
    9900012    2    3    3    0    0  0.17773793565E+02  0.13835527278E+02 -0.29128130274E+02  0.54367115627E+02  0.40000071696E+02 0.  0.
        -12    1    3    3    0    0 -0.17773793565E+02 -0.13835527278E+02  0.29128130274E+02  0.36820884373E+02  0.00000000000E+00 0.  1.
         11    1    4    4    0    0  0.24863381802E+02  0.69789405959E+01 -0.17514343005E+02  0.31203294340E+02  0.51100000000E-03 0. -1.
        -11    1    4    4    0    0  0.43262197973E+01  0.32780689947E+01  0.12778824754E+01  0.55762799383E+01  0.51100000000E-03 0.  1.
        -12    1    4    4    0    0 -0.11415808035E+02  0.35785176872E+01 -0.12891669744E+02  0.17587541350E+02  0.00000000000E+00 0.  1.
</event>
<event>
 8    1  0.2460897E-006  0.9118800E+02  0.7816164E-02  0.1184000E+00
        -11   -1    0    0    0    0  0.00000000000E+00  0.00000000000E+00  0.45593999997E+02  0.45594000000E+02  0.51100000000E-03 0. -1.
         11   -1    0    0    0    0 -0.00000000000E+00 -0.00000000000E+00 -0.45593999997E+02  0.45594000000E+02  0.51100000000E-03 0.  1.
         23    2    1    2    0    0  0.00000000000E+00  0.17763568394E-14 -0.35527136788E-14  0.91188000000E+02  0.91188000000E+02 0.  0.
    9900012    2    3    3    0    0 -0.23473859607E+02  0.14346957787E+02  0.24472780389E+02  0.54367159942E+02  0.40000172720E+02 0.  0.
        -12    1    3    3    0    0  0.23473859607E+02 -0.14346957787E+02 -0.24472780389E+02  0.36820840058E+02  0.00000000000E+00 0.  1.
         11    1    4    4    0    0 -0.37644844820E+01 -0.36822088524E+01  0.17806347922E+02  0.18568684176E+02  0.51100000000E-03 0. -1.
        -11    1    4    4    0    0 -0.14592721876E+02  0.20691854581E+02 -0.19881613740E+01  0.25397896835E+02  0.51100000000E-03 0.  1.
        -12    1    4    4    0    0 -0.51166532490E+01 -0.26626879420E+01  0.86545938417E+01  0.10400578932E+02  0.00000000000E+00 0.  1.
</event>
<event>
 8    1  0.2460897E-006  0.9118800E+02  0.7816164E-02  0.1184000E+00
        -11   -1    0    0    0    0  0.00000000000E+00  0.00000000000E+00  0.45593999997E+02  0.45594000000E+02  0.51100000000E-03 0.  1.
         11   -1    0    0    0    0 -0.00000000000E+00 -0.00000000000E+00 -0.45593999997E+02  0.45594000000E+02  0.51100000000E-03 0. -1.
         23    2    1    2    0    0  0.00000000000E+00  0.00000000000E+00  0.16653345369E-15  0.91188000000E+02  0.91188000000E+02 0.  0.
    9900012    2    3    3    0    0  0.25493696470E+02 -0.26564771026E+02 -0.40580296980E+00  0.54367078020E+02  0.39999985963E+02 0.  0.
        -12    1    3    3    0    0 -0.25493696470E+02  0.26564771026E+02  0.40580296980E+00  0.36820921980E+02  0.00000000000E+00 0.  1.
         11    1    4    4    0    0 -0.36229986518E+01 -0.32356971325E+01 -0.20989882656E+01  0.52916544828E+01  0.51100000000E-03 0. -1.
        -11    1    4    4    0    0  0.40510386478E+01 -0.15756439102E+02  0.12732442251E+02  0.20658929625E+02  0.51100000000E-03 0.  1.
         12    1    4    4    0    0  0.25065656474E+02 -0.75726347909E+01 -0.11039256955E+02  0.28416493913E+02  0.00000000000E+00 0. -1.
</event>
<event>
 8    1  0.2460897E-006  0.9118800E+02  0.7816164E-02  0.1184000E+00
        -11   -1    0    0    0    0  0.00000000000E+00  0.00000000000E+00  0.45593999997E+02  0.45594000000E+02  0.51100000000E-03 0.  1.
         11   -1    0    0    0    0 -0.00000000000E+00 -0.00000000000E+00 -0.45593999997E+02  0.45594000000E+02  0.51100000000E-03 0. -1.
         23    2    1    2    0    0  0.00000000000E+00  0.00000000000E+00  0.88817841970E-15  0.91188000000E+02  0.91188000000E+02 0.  0.
    9900012    2    3    3    0    0  0.18907088271E+02 -0.31355690046E+02 -0.38888557226E+01  0.54367075460E+02  0.39999980126E+02 0.  0.
        -12    1    3    3    0    0 -0.18907088271E+02  0.31355690046E+02  0.38888557226E+01  0.36820924540E+02  0.00000000000E+00 0.  1.
         11    1    4    4    0    0  0.12696521371E+02 -0.20573869811E+02  0.58467258962E+01  0.24873077370E+02  0.51100000000E-03 0. -1.
        -11    1    4    4    0    0  0.22855043430E+01  0.45348145371E+01  0.55354650131E+01  0.75119535515E+01  0.51100000000E-03 0.  1.
         12    1    4    4    0    0  0.39250625571E+01 -0.15316634773E+02 -0.15271046632E+02  0.21982044538E+02  0.00000000000E+00 0. -1.
</event>
<event>
 8    1  0.2460897E-006  0.9118800E+02  0.7816164E-02  0.1184000E+00
        -11   -1    0    0    0    0  0.00000000000E+00  0.00000000000E+00  0.45593999997E+02  0.45594000000E+02  0.51100000000E-03 0.  1.
         11   -1    0    0    0    0 -0.00000000000E+00 -0.00000000000E+00 -0.45593999997E+02  0.45594000000E+02  0.51100000000E-03 0. -1.
         23    2    1    2    0    0  0.00000000000E+00  0.52735593670E-15  0.00000000000E+00  0.91188000000E+02  0.91188000000E+02 0.  0.
    9900012    2    3    3    0    0 -0.28240746995E+02  0.16409683591E+00 -0.23626552640E+02  0.54367072414E+02  0.39999973183E+02 0.  0.
        -12    1    3    3    0    0  0.28240746995E+02 -0.16409683591E+00  0.23626552640E+02  0.36820927586E+02  0.00000000000E+00 0.  1.
         11    1    4    4    0    0 -0.35752592663E+02 -0.22605562520E+01 -0.14562958655E+02  0.38670890366E+02  0.51100000000E-03 0. -1.
        -11    1    4    4    0    0  0.42262581326E+01  0.63035093016E+01 -0.65521092990E+01  0.10026246748E+02  0.51100000000E-03 0.  1.
         12    1    4    4    0    0  0.32855875351E+01 -0.38788562136E+01 -0.25114846864E+01  0.56699353001E+01  0.00000000000E+00 0. -1.
</event>
<event>
 8    1  0.2460897E-006  0.9118800E+02  0.7816164E-02  0.1184000E+00
        -11   -1    0    0    0    0  0.00000000000E+00  0.00000000000E+00  0.45593999997E+02  0.45594000000E+02  0.51100000000E-03 0.  1.
         11   -1    0    0    0    0 -0.00000000000E+00 -0.00000000000E+00 -0.45593999997E+02  0.45594000000E+02  0.51100000000E-03 0. -1.
         23    2    1    2    0    0  0.00000000000E+00  0.00000000000E+00  0.17763568394E-14  0.91188000000E+02  0.91188000000E+02 0.  0.
    9900012    2    3    3    0    0 -0.98577175414E+01 -0.34331170530E+02 -0.89429828169E+01  0.54367071077E+02  0.39999970135E+02 0.  0.
        -12    1    3    3    0    0  0.98577175414E+01  0.34331170530E+02  0.89429828169E+01  0.36820928923E+02  0.00000000000E+00 0.  1.
         11    1    4    4    0    0 -0.56920582254E+01 -0.13890547820E+02  0.15127070295E+01  0.15087581927E+02  0.51100000000E-03 0. -1.
        -11    1    4    4    0    0  0.54854998613E+01 -0.26100248354E+02 -0.76144575178E+01  0.27736143143E+02  0.51100000000E-03 0.  1.
         12    1    4    4    0    0 -0.96511591773E+01  0.56596256450E+01 -0.28412323286E+01  0.11543346008E+02  0.00000000000E+00 0. -1.
</event>
<event>
 8    1  0.2460897E-006  0.9118800E+02  0.7816164E-02  0.1184000E+00
        -11   -1    0    0    0    0  0.00000000000E+00  0.00000000000E+00  0.45593999997E+02  0.45594000000E+02  0.51100000000E-03 0. -1.
         11   -1    0    0    0    0 -0.00000000000E+00 -0.00000000000E+00 -0.45593999997E+02  0.45594000000E+02  0.51100000000E-03 0.  1.
         23    2    1    2    0    0 -0.88817841970E-15  0.35527136788E-14 -0.71054273576E-14  0.91188000000E+02  0.91188000000E+02 0.  0.
    9900012    2    3    3    0    0  0.72320188075E+01 -0.87003451221E+01 -0.35039729544E+02  0.54367071877E+02  0.39999971959E+02 0.  0.
         12    1    3    3    0    0 -0.72320188075E+01  0.87003451221E+01  0.35039729544E+02  0.36820928123E+02  0.00000000000E+00 0. -1.
         11    1    4    4    0    0  0.21626246013E+01  0.12525404876E+02 -0.14466547947E+01  0.12792791831E+02  0.51100000000E-03 0. -1.
        -11    1    4    4    0    0  0.55894061341E+01 -0.55955664731E+01 -0.62725914196E+01  0.10094415707E+02  0.51100000000E-03 0.  1.
         12    1    4    4    0    0 -0.52001192789E+00 -0.15630183525E+02 -0.27320483330E+02  0.31479864339E+02  0.00000000000E+00 0. -1.
</event>
<event>
 8    1  0.2460897E-006  0.9118800E+02  0.7816164E-02  0.1184000E+00
        -11   -1    0    0    0    0  0.00000000000E+00  0.00000000000E+00  0.45593999997E+02  0.45594000000E+02  0.51100000000E-03 0.  1.
         11   -1    0    0    0    0 -0.00000000000E+00 -0.00000000000E+00 -0.45593999997E+02  0.45594000000E+02  0.51100000000E-03 0. -1.
         23    2    1    2    0    0  0.35527136788E-14  0.00000000000E+00  0.44408920985E-15  0.91188000000E+02  0.91188000000E+02 0.  0.
    9900012    2    3    3    0    0  0.17766299438E+02 -0.32072458405E+02  0.33904424478E+01  0.54367094473E+02  0.40000023470E+02 0.  0.
         12    1    3    3    0    0 -0.17766299438E+02  0.32072458405E+02 -0.33904424478E+01  0.36820905527E+02  0.00000000000E+00 0. -1.
         11    1    4    4    0    0 -0.16031200922E+01 -0.38451133613E+01  0.54661881778E+01  0.68727071993E+01  0.51100000000E-03 0.  1.
        -11    1    4    4    0    0 -0.56931610905E+01 -0.72075451262E+00  0.71377808843E+01  0.91585744787E+01  0.51100000000E-03 0. -1.
        -12    1    4    4    0    0  0.25062580621E+02 -0.27506590531E+02 -0.92135266143E+01  0.38335812795E+02  0.00000000000E+00 0.  1.
</event>
<event>
 8    1  0.2460897E-006  0.9118800E+02  0.7816164E-02  0.1184000E+00
        -11   -1    0    0    0    0  0.00000000000E+00  0.00000000000E+00  0.45593999997E+02  0.45594000000E+02  0.51100000000E-03 0. -1.
         11   -1    0    0    0    0 -0.00000000000E+00 -0.00000000000E+00 -0.45593999997E+02  0.45594000000E+02  0.51100000000E-03 0.  1.
         23    2    1    2    0    0 -0.44408920985E-15  0.00000000000E+00 -0.71054273576E-14  0.91188000000E+02  0.91188000000E+02 0.  0.
    9900012    2    3    3    0    0  0.30128009099E+01 -0.12301004411E+02  0.34574385565E+02  0.54367084530E+02  0.40000000803E+02 0.  0.
        -12    1    3    3    0    0 -0.30128009099E+01  0.12301004411E+02 -0.34574385565E+02  0.36820915470E+02  0.00000000000E+00 0.  1.
         11    1    4    4    0    0 -0.10167406269E+02  0.13979394231E+01  0.10521914853E+02  0.14698335868E+02  0.51100000000E-03 0. -1.
        -11    1    4    4    0    0 -0.47877460346E+01 -0.25979547601E+01 -0.22864135838E+01  0.59075856629E+01  0.51100000000E-03 0.  1.
        -12    1    4    4    0    0  0.17967953213E+02 -0.11100989074E+02  0.26338884296E+02  0.33761162999E+02  0.00000000000E+00 0.  1.
</event>
<event>
 8    1  0.2460897E-006  0.9118800E+02  0.7816164E-02  0.1184000E+00
        -11   -1    0    0    0    0  0.00000000000E+00  0.00000000000E+00  0.45593999997E+02  0.45594000000E+02  0.51100000000E-03 0. -1.
         11   -1    0    0    0    0 -0.00000000000E+00 -0.00000000000E+00 -0.45593999997E+02  0.45594000000E+02  0.51100000000E-03 0.  1.
         23    2    1    2    0    0  0.17763568394E-14  0.00000000000E+00 -0.71054273576E-14  0.91188000000E+02  0.91188000000E+02 0.  0.
    9900012    2    3    3    0    0 -0.12136866494E+02 -0.35786903033E+01 -0.34578460032E+02  0.54367075911E+02  0.39999981155E+02 0.  0.
         12    1    3    3    0    0  0.12136866494E+02  0.35786903033E+01  0.34578460032E+02  0.36820924089E+02  0.00000000000E+00 0. -1.
         11    1    4    4    0    0  0.22840972851E+01  0.45291261309E+01 -0.32190594553E+01  0.60076973921E+01  0.51100000000E-03 0. -1.
        -11    1    4    4    0    0  0.53393084405E+01  0.84431666731E+01 -0.14320979389E+02  0.17460977321E+02  0.51100000000E-03 0.  1.
         12    1    4    4    0    0 -0.19760272220E+02 -0.16550983107E+02 -0.17038421187E+02  0.30898401198E+02  0.00000000000E+00 0. -1.
</event>
<event>
 8    1  0.2460897E-006  0.9118800E+02  0.7816164E-02  0.1184000E+00
        -11   -1    0    0    0    0  0.00000000000E+00  0.00000000000E+00  0.45593999997E+02  0.45594000000E+02  0.51100000000E-03 0. -1.
         11   -1    0    0    0    0 -0.00000000000E+00 -0.00000000000E+00 -0.45593999997E+02  0.45594000000E+02  0.51100000000E-03 0.  1.
         23    2    1    2    0    0  0.00000000000E+00  0.35527136788E-14  0.17763568394E-14  0.91188000000E+02  0.91188000000E+02 0.  0.
    9900012    2    3    3    0    0  0.23035324393E+02 -0.25136196318E+02  0.13904148371E+02  0.54367083701E+02  0.39999998912E+02 0.  0.
        -12    1    3    3    0    0 -0.23035324393E+02  0.25136196318E+02 -0.13904148371E+02  0.36820916299E+02  0.00000000000E+00 0.  1.
         11    1    4    4    0    0  0.24817693224E+02 -0.65398607443E+01  0.96295003116E+01  0.27411949074E+02  0.51100000000E-03 0. -1.
        -11    1    4    4    0    0 -0.14677334159E+01  0.37605985516E+01 -0.57066989404E+00  0.40770095948E+01  0.51100000000E-03 0.  1.
        -12    1    4    4    0    0 -0.31463541495E+00 -0.22356934125E+02  0.48453179530E+01  0.22878125032E+02  0.00000000000E+00 0.  1.
</event>
<event>
 8    1  0.2460897E-006  0.9118800E+02  0.7816164E-02  0.1184000E+00
        -11   -1    0    0    0    0  0.00000000000E+00  0.00000000000E+00  0.45593999997E+02  0.45594000000E+02  0.51100000000E-03 0. -1.
         11   -1    0    0    0    0 -0.00000000000E+00 -0.00000000000E+00 -0.45593999997E+02  0.45594000000E+02  0.51100000000E-03 0.  1.
         23    2    1    2    0    0 -0.35527136788E-14  0.35527136788E-14  0.00000000000E+00  0.91188000000E+02  0.91188000000E+02 0.  0.
    9900012    2    3    3    0    0 -0.19997879969E+02  0.26583759818E+02 -0.15785048236E+02  0.54367092392E+02  0.40000018725E+02 0.  0.
         12    1    3    3    0    0  0.19997879969E+02 -0.26583759818E+02  0.15785048236E+02  0.36820907608E+02  0.00000000000E+00 0. -1.
         11    1    4    4    0    0 -0.49551620645E+00  0.14343627679E+01  0.85527317481E+01  0.86863199041E+01  0.51100000000E-03 0. -1.
        -11    1    4    4    0    0 -0.23525790893E+02  0.15653886395E+02 -0.16449131013E+02  0.32696802715E+02  0.51100000000E-03 0.  1.
        -12    1    4    4    0    0  0.40234271308E+01  0.94955106548E+01 -0.78886489706E+01  0.12983969773E+02  0.00000000000E+00 0.  1.
</event>
<event>
 8    1  0.2460897E-006  0.9118800E+02  0.7816164E-02  0.1184000E+00
        -11   -1    0    0    0    0  0.00000000000E+00  0.00000000000E+00  0.45593999997E+02  0.45594000000E+02  0.51100000000E-03 0. -1.
         11   -1    0    0    0    0 -0.00000000000E+00 -0.00000000000E+00 -0.45593999997E+02  0.45594000000E+02  0.51100000000E-03 0.  1.
         23    2    1    2    0    0  0.00000000000E+00 -0.17763568394E-14 -0.35527136788E-14  0.91188000000E+02  0.91188000000E+02 0.  0.
    9900012    2    3    3    0    0 -0.17894115657E+02  0.13453253047E+02  0.29233383486E+02  0.54367080638E+02  0.39999991930E+02 0.  0.
        -12    1    3    3    0    0  0.17894115657E+02 -0.13453253047E+02 -0.29233383486E+02  0.36820919362E+02  0.00000000000E+00 0.  1.
         11    1    4    4    0    0 -0.30487269744E+01  0.68227980638E+01  0.22359655986E+02  0.23575400859E+02  0.51100000000E-03 0. -1.
        -11    1    4    4    0    0  0.19350077889E+01  0.12124451030E+02  0.39268602316E+01  0.12890570176E+02  0.51100000000E-03 0.  1.
        -12    1    4    4    0    0 -0.16780396471E+02 -0.54939960477E+01  0.29468672683E+01  0.17901109602E+02  0.00000000000E+00 0.  1.
</event>
<event>
 8    1  0.2460897E-006  0.9118800E+02  0.7816164E-02  0.1184000E+00
        -11   -1    0    0    0    0  0.00000000000E+00  0.00000000000E+00  0.45593999997E+02  0.45594000000E+02  0.51100000000E-03 0.  1.
         11   -1    0    0    0    0 -0.00000000000E+00 -0.00000000000E+00 -0.45593999997E+02  0.45594000000E+02  0.51100000000E-03 0. -1.
         23    2    1    2    0    0  0.35527136788E-14  0.35527136788E-14  0.12212453271E-14  0.91188000000E+02  0.91188000000E+02 0.  0.
    9900012    2    3    3    0    0  0.26572002031E+02 -0.25475561130E+02 -0.83949941316E+00  0.54367078419E+02  0.39999986872E+02 0.  0.
         12    1    3    3    0    0 -0.26572002031E+02  0.25475561130E+02  0.83949941316E+00  0.36820921581E+02  0.00000000000E+00 0. -1.
         11    1    4    4    0    0  0.16526075069E+02 -0.29849151915E+01  0.46842540733E+01  0.17434537917E+02  0.51100000000E-03 0. -1.
        -11    1    4    4    0    0  0.20551861645E+01 -0.26399991784E+02 -0.80651476611E+01  0.27680859153E+02  0.51100000000E-03 0.  1.
        -12    1    4    4    0    0  0.79907407974E+01  0.39093458462E+01  0.25413941747E+01  0.92516813492E+01  0.00000000000E+00 0.  1.
</event>
<event>
 8    1  0.2460897E-006  0.9118800E+02  0.7816164E-02  0.1184000E+00
        -11   -1    0    0    0    0  0.00000000000E+00  0.00000000000E+00  0.45593999997E+02  0.45594000000E+02  0.51100000000E-03 0.  1.
         11   -1    0    0    0    0 -0.00000000000E+00 -0.00000000000E+00 -0.45593999997E+02  0.45594000000E+02  0.51100000000E-03 0. -1.
         23    2    1    2    0    0  0.00000000000E+00  0.35527136788E-14  0.00000000000E+00  0.91188000000E+02  0.91188000000E+02 0.  0.
    9900012    2    3    3    0    0 -0.96841566374E+01  0.20135165122E+02  0.29267246143E+02  0.54367089351E+02  0.40000011792E+02 0.  0.
         12    1    3    3    0    0  0.96841566374E+01 -0.20135165122E+02 -0.29267246143E+02  0.36820910649E+02  0.00000000000E+00 0. -1.
         11    1    4    4    0    0 -0.75046999277E+01  0.10084370859E+02  0.18593607754E+01  0.12707174327E+02  0.51100000000E-03 0. -1.
        -11    1    4    4    0    0 -0.12404391063E+02 -0.35641933111E+01  0.18173404491E+02  0.22290020697E+02  0.51100000000E-03 0.  1.
        -12    1    4    4    0    0  0.10224934353E+02  0.13614987574E+02  0.92344808767E+01  0.19369894327E+02  0.00000000000E+00 0.  1.
</event>
<event>
 8    1  0.2460897E-006  0.9118800E+02  0.7816164E-02  0.1184000E+00
        -11   -1    0    0    0    0  0.00000000000E+00  0.00000000000E+00  0.45593999997E+02  0.45594000000E+02  0.51100000000E-03 0.  1.
         11   -1    0    0    0    0 -0.00000000000E+00 -0.00000000000E+00 -0.45593999997E+02  0.45594000000E+02  0.51100000000E-03 0. -1.
         23    2    1    2    0    0  0.71054273576E-14  0.00000000000E+00  0.20816681712E-15  0.91188000000E+02  0.91188000000E+02 0.  0.
    9900012    2    3    3    0    0 -0.30474749478E+02 -0.20665510339E+02 -0.76585150670E-01  0.54367088297E+02  0.40000009392E+02 0.  0.
         12    1    3    3    0    0  0.30474749478E+02  0.20665510339E+02  0.76585150670E-01  0.36820911703E+02  0.00000000000E+00 0. -1.
         11    1    4    4    0    0  0.37921385935E+01 -0.60296038542E+01 -0.47108058443E+01  0.85397968193E+01  0.51100000000E-03 0.  1.
        -11    1    4    4    0    0 -0.26936925160E+02  0.17528194115E+01  0.65351405401E+01  0.27773699341E+02  0.51100000000E-03 0. -1.
         12    1    4    4    0    0 -0.73299629118E+01 -0.16388725896E+02 -0.19009198465E+01  0.18053592137E+02  0.00000000000E+00 0. -1.
</event>
<event>
 8    1  0.2460897E-006  0.9118800E+02  0.7816164E-02  0.1184000E+00
        -11   -1    0    0    0    0  0.00000000000E+00  0.00000000000E+00  0.45593999997E+02  0.45594000000E+02  0.51100000000E-03 0. -1.
         11   -1    0    0    0    0 -0.00000000000E+00 -0.00000000000E+00 -0.45593999997E+02  0.45594000000E+02  0.51100000000E-03 0.  1.
         23    2    1    2    0    0  0.88817841970E-15  0.00000000000E+00  0.00000000000E+00  0.91188000000E+02  0.91188000000E+02 0.  0.
    9900012    2    3    3    0    0 -0.50490449964E+01  0.13005744883E+02 -0.34075469047E+02  0.54367084122E+02  0.39999999872E+02 0.  0.
         12    1    3    3    0    0  0.50490449964E+01 -0.13005744883E+02  0.34075469047E+02  0.36820915878E+02  0.00000000000E+00 0. -1.
         11    1    4    4    0    0 -0.87153049794E+01  0.13854730529E+02 -0.79194804681E+01  0.18183186466E+02  0.51100000000E-03 0. -1.
        -11    1    4    4    0    0  0.11691240811E+02  0.69833392673E+01 -0.12224181838E+02  0.18299802209E+02  0.51100000000E-03 0.  1.
         12    1    4    4    0    0 -0.80249808284E+01 -0.78323249136E+01 -0.13931806741E+02  0.17884095446E+02  0.00000000000E+00 0. -1.
</event>
<event>
 8    1  0.2460897E-006  0.9118800E+02  0.7816164E-02  0.1184000E+00
        -11   -1    0    0    0    0  0.00000000000E+00  0.00000000000E+00  0.45593999997E+02  0.45594000000E+02  0.51100000000E-03 0. -1.
         11   -1    0    0    0    0 -0.00000000000E+00 -0.00000000000E+00 -0.45593999997E+02  0.45594000000E+02  0.51100000000E-03 0.  1.
         23    2    1    2    0    0  0.88817841970E-15  0.00000000000E+00  0.00000000000E+00  0.91188000000E+02  0.91188000000E+02 0.  0.
    9900012    2    3    3    0    0  0.65897154371E+01  0.20532621956E+02 -0.29845721809E+02  0.54367081703E+02  0.39999994358E+02 0.  0.
         12    1    3    3    0    0 -0.65897154371E+01 -0.20532621956E+02  0.29845721809E+02  0.36820918297E+02  0.00000000000E+00 0. -1.
         11    1    4    4    0    0 -0.79135144227E+01 -0.54435279608E+01  0.70068321986E+00  0.96305069656E+01  0.51100000000E-03 0. -1.
        -11    1    4    4    0    0 -0.21683096185E+01  0.73300657167E+01 -0.63778690086E+01  0.99553324086E+01  0.51100000000E-03 0.  1.
        -12    1    4    4    0    0  0.16671539478E+02  0.18646084200E+02 -0.24168536020E+02  0.34781242329E+02  0.00000000000E+00 0.  1.
</event>
<event>
 8    1  0.2460897E-006  0.9118800E+02  0.7816164E-02  0.1184000E+00
        -11   -1    0    0    0    0  0.00000000000E+00  0.00000000000E+00  0.45593999997E+02  0.45594000000E+02  0.51100000000E-03 0.  1.
         11   -1    0    0    0    0 -0.00000000000E+00 -0.00000000000E+00 -0.45593999997E+02  0.45594000000E+02  0.51100000000E-03 0. -1.
         23    2    1    2    0    0  0.11102230246E-14  0.22204460493E-14  0.71054273576E-14  0.91188000000E+02  0.91188000000E+02 0.  0.
    9900012    2    3    3    0    0  0.19987739438E+00 -0.19895303618E+01  0.36766509548E+02  0.54367157989E+02  0.40000168268E+02 0.  0.
         12    1    3    3    0    0 -0.19987739438E+00  0.19895303618E+01 -0.36766509548E+02  0.36820842011E+02  0.00000000000E+00 0. -1.
         11    1    4    4    0    0  0.30899666428E+01 -0.69408182679E+01  0.49579258949E+01  0.90721486718E+01  0.51100000000E-03 0. -1.
        -11    1    4    4    0    0 -0.40751172820E+01 -0.93973654330E+01 -0.14898312492E+00  0.10243986244E+02  0.51100000000E-03 0.  1.
        -12    1    4    4    0    0  0.11850280335E+01  0.14348653339E+02  0.31957566778E+02  0.35051023073E+02  0.00000000000E+00 0.  1.
</event>
<event>
 8    1  0.2460897E-006  0.9118800E+02  0.7816164E-02  0.1184000E+00
        -11   -1    0    0    0    0  0.00000000000E+00  0.00000000000E+00  0.45593999997E+02  0.45594000000E+02  0.51100000000E-03 0. -1.
         11   -1    0    0    0    0 -0.00000000000E+00 -0.00000000000E+00 -0.45593999997E+02  0.45594000000E+02  0.51100000000E-03 0.  1.
         23    2    1    2    0    0  0.00000000000E+00  0.00000000000E+00  0.00000000000E+00  0.91188000000E+02  0.91188000000E+02 0.  0.
    9900012    2    3    3    0    0 -0.16893770260E+02 -0.21347225122E+02  0.24792668255E+02  0.54367083482E+02  0.39999998414E+02 0.  0.
        -12    1    3    3    0    0  0.16893770260E+02  0.21347225122E+02 -0.24792668255E+02  0.36820916518E+02  0.00000000000E+00 0.  1.
         11    1    4    4    0    0 -0.79550051942E+01 -0.11938043334E+02  0.88142877011E+01  0.16837180709E+02  0.51100000000E-03 0. -1.
        -11    1    4    4    0    0 -0.32039357988E+01  0.68297155773E+01  0.18635322387E+02  0.20104364208E+02  0.51100000000E-03 0.  1.
        -12    1    4    4    0    0 -0.57348292672E+01 -0.16238897365E+02 -0.26569418336E+01  0.17425538565E+02  0.00000000000E+00 0.  1.
</event>
<event>
 8    1  0.2460897E-006  0.9118800E+02  0.7816164E-02  0.1184000E+00
        -11   -1    0    0    0    0  0.00000000000E+00  0.00000000000E+00  0.45593999997E+02  0.45594000000E+02  0.51100000000E-03 0.  1.
         11   -1    0    0    0    0 -0.00000000000E+00 -0.00000000000E+00 -0.45593999997E+02  0.45594000000E+02  0.51100000000E-03 0. -1.
         23    2    1    2    0    0  0.22204460493E-15 -0.10658141036E-13 -0.35527136788E-14  0.91188000000E+02  0.91188000000E+02 0.  0.
    9900012    2    3    3    0    0  0.15116596830E+01 -0.31687990037E+02 -0.18691349311E+02  0.54367077054E+02  0.39999983759E+02 0.  0.
        -12    1    3    3    0    0 -0.15116596830E+01  0.31687990037E+02  0.18691349311E+02  0.36820922946E+02  0.00000000000E+00 0.  1.
         11    1    4    4    0    0  0.51622257715E+00  0.25824647611E+01 -0.11608653030E+00  0.26361119732E+01  0.51100000000E-03 0. -1.
        -11    1    4    4    0    0  0.40312743619E+00  0.47625807587E+01  0.43473269524E+01  0.64609549685E+01  0.51100000000E-03 0.  1.
         12    1    4    4    0    0  0.59230966964E+00 -0.39033035556E+02 -0.22922589733E+02  0.45270010112E+02  0.00000000000E+00 0. -1.
</event>
<event>
 8    1  0.2460897E-006  0.9118800E+02  0.7816164E-02  0.1184000E+00
        -11   -1    0    0    0    0  0.00000000000E+00  0.00000000000E+00  0.45593999997E+02  0.45594000000E+02  0.51100000000E-03 0. -1.
         11   -1    0    0    0    0 -0.00000000000E+00 -0.00000000000E+00 -0.45593999997E+02  0.45594000000E+02  0.51100000000E-03 0.  1.
         23    2    1    2    0    0  0.35527136788E-14  0.00000000000E+00  0.00000000000E+00  0.91188000000E+02  0.91188000000E+02 0.  0.
    9900012    2    3    3    0    0 -0.14574077760E+02 -0.86779498181E+01  0.32681322465E+02  0.54367090265E+02  0.40000013878E+02 0.  0.
        -12    1    3    3    0    0  0.14574077760E+02  0.86779498181E+01 -0.32681322465E+02  0.36820909735E+02  0.00000000000E+00 0.  1.
         11    1    4    4    0    0  0.10874742624E+01  0.82700619725E+01  0.14207019191E+02  0.16474705456E+02  0.51100000000E-03 0. -1.
        -11    1    4    4    0    0 -0.10907408434E+01 -0.26819480194E+01 -0.56231464200E+01  0.63247400490E+01  0.51100000000E-03 0.  1.
         12    1    4    4    0    0 -0.14570811179E+02 -0.14266063771E+02  0.24097449694E+02  0.31567644760E+02  0.00000000000E+00 0. -1.
</event>
<event>
 8    1  0.2460897E-006  0.9118800E+02  0.7816164E-02  0.1184000E+00
        -11   -1    0    0    0    0  0.00000000000E+00  0.00000000000E+00  0.45593999997E+02  0.45594000000E+02  0.51100000000E-03 0. -1.
         11   -1    0    0    0    0 -0.00000000000E+00 -0.00000000000E+00 -0.45593999997E+02  0.45594000000E+02  0.51100000000E-03 0.  1.
         23    2    1    2    0    0  0.53290705182E-14  0.88817841970E-15  0.00000000000E+00  0.91188000000E+02  0.91188000000E+02 0.  0.
    9900012    2    3    3    0    0  0.11197081562E+02  0.59836591056E+01 -0.34563003009E+02  0.54367082184E+02  0.39999995455E+02 0.  0.
         12    1    3    3    0    0 -0.11197081562E+02 -0.59836591056E+01  0.34563003009E+02  0.36820917816E+02  0.00000000000E+00 0. -1.
         11    1    4    4    0    0  0.21855031543E+02  0.79100318283E+01 -0.12732691433E+02  0.26501555400E+02  0.51100000000E-03 0. -1.
        -11    1    4    4    0    0 -0.17010325626E+01  0.54309076413E+01 -0.63591994837E+01  0.85339139861E+01  0.51100000000E-03 0.  1.
        -12    1    4    4    0    0 -0.89569174174E+01 -0.73572803640E+01 -0.15471112092E+02  0.19331612798E+02  0.00000000000E+00 0.  1.
</event>
<event>
 8    1  0.2460897E-006  0.9118800E+02  0.7816164E-02  0.1184000E+00
        -11   -1    0    0    0    0  0.00000000000E+00  0.00000000000E+00  0.45593999997E+02  0.45594000000E+02  0.51100000000E-03 0.  1.
         11   -1    0    0    0    0 -0.00000000000E+00 -0.00000000000E+00 -0.45593999997E+02  0.45594000000E+02  0.51100000000E-03 0. -1.
         23    2    1    2    0    0  0.00000000000E+00  0.00000000000E+00 -0.17763568394E-14  0.91188000000E+02  0.91188000000E+02 0.  0.
    9900012    2    3    3    0    0 -0.19042855951E+02 -0.30647219448E+02 -0.73414981774E+01  0.54367081785E+02  0.39999994546E+02 0.  0.
        -12    1    3    3    0    0  0.19042855951E+02  0.30647219448E+02  0.73414981774E+01  0.36820918215E+02  0.00000000000E+00 0.  1.
         11    1    4    4    0    0 -0.20648475257E+02 -0.21696697893E+02 -0.99019734841E+01  0.31546082309E+02  0.51100000000E-03 0. -1.
        -11    1    4    4    0    0  0.25613135932E+01  0.61186562403E+01  0.38450774527E+01  0.76670008731E+01  0.51100000000E-03 0.  1.
        -12    1    4    4    0    0 -0.95569428713E+00 -0.15069177795E+02 -0.12846021459E+01  0.15153998603E+02  0.00000000000E+00 0.  1.
</event>
<event>
 8    1  0.2460897E-006  0.9118800E+02  0.7816164E-02  0.1184000E+00
        -11   -1    0    0    0    0  0.00000000000E+00  0.00000000000E+00  0.45593999997E+02  0.45594000000E+02  0.51100000000E-03 0.  1.
         11   -1    0    0    0    0 -0.00000000000E+00 -0.00000000000E+00 -0.45593999997E+02  0.45594000000E+02  0.51100000000E-03 0. -1.
         23    2    1    2    0    0 -0.15543122345E-14  0.00000000000E+00 -0.35527136788E-14  0.91188000000E+02  0.91188000000E+02 0.  0.
    9900012    2    3    3    0    0 -0.12360526900E+01 -0.26098002193E+02 -0.25945058557E+02  0.54367087352E+02  0.40000007236E+02 0.  0.
        -12    1    3    3    0    0  0.12360526900E+01  0.26098002193E+02  0.25945058557E+02  0.36820912648E+02  0.00000000000E+00 0.  1.
         11    1    4    4    0    0  0.40860375375E+01 -0.59629364519E+01 -0.69815265055E+01  0.10049578424E+02  0.51100000000E-03 0. -1.
        -11    1    4    4    0    0  0.28166877150E+01 -0.21452313284E+02 -0.25754062448E+02  0.33636397068E+02  0.51100000000E-03 0.  1.
        -12    1    4    4    0    0 -0.81387779426E+01  0.13172475424E+01  0.67905303968E+01  0.10681111860E+02  0.00000000000E+00 0.  1.
</event>
<event>
 8    1  0.2460897E-006  0.9118800E+02  0.7816164E-02  0.1184000E+00
        -11   -1    0    0    0    0  0.00000000000E+00  0.00000000000E+00  0.45593999997E+02  0.45594000000E+02  0.51100000000E-03 0. -1.
         11   -1    0    0    0    0 -0.00000000000E+00 -0.00000000000E+00 -0.45593999997E+02  0.45594000000E+02  0.51100000000E-03 0.  1.
         23    2    1    2    0    0  0.71054273576E-14  0.00000000000E+00  0.00000000000E+00  0.91188000000E+02  0.91188000000E+02 0.  0.
    9900012    2    3    3    0    0  0.34605054301E+02 -0.11251515077E+02  0.56279168066E+01  0.54367084445E+02  0.40000000610E+02 0.  0.
         12    1    3    3    0    0 -0.34605054301E+02  0.11251515077E+02 -0.56279168066E+01  0.36820915555E+02  0.00000000000E+00 0. -1.
         11    1    4    4    0    0 -0.20624420290E+01 -0.51483837225E+01  0.24533359001E+01  0.60645180663E+01  0.51100000000E-03 0. -1.
        -11    1    4    4    0    0  0.76619031294E+01 -0.15740034636E+02  0.28497398651E+01  0.17736247277E+02  0.51100000000E-03 0.  1.
         12    1    4    4    0    0  0.29005593200E+02  0.96369032809E+01  0.32484104138E+00  0.30566319102E+02  0.00000000000E+00 0. -1.
</event>
<event>
 8    1  0.2460897E-006  0.9118800E+02  0.7816164E-02  0.1184000E+00
        -11   -1    0    0    0    0  0.00000000000E+00  0.00000000000E+00  0.45593999997E+02  0.45594000000E+02  0.51100000000E-03 0. -1.
         11   -1    0    0    0    0 -0.00000000000E+00 -0.00000000000E+00 -0.45593999997E+02  0.45594000000E+02  0.51100000000E-03 0.  1.
         23    2    1    2    0    0  0.00000000000E+00  0.00000000000E+00  0.00000000000E+00  0.91188000000E+02  0.91188000000E+02 0.  0.
    9900012    2    3    3    0    0  0.84801211037E+01  0.19012541690E+02 -0.30370904033E+02  0.54367068354E+02  0.39999963927E+02 0.  0.
         12    1    3    3    0    0 -0.84801211037E+01 -0.19012541690E+02  0.30370904033E+02  0.36820931646E+02  0.00000000000E+00 0. -1.
         11    1    4    4    0    0  0.44092762775E+01 -0.88988987552E+01 -0.49796167702E+00  0.99438464610E+01  0.51100000000E-03 0. -1.
        -11    1    4    4    0    0  0.65215945944E+01  0.28933531507E+02 -0.29330952637E+02  0.41713130120E+02  0.51100000000E-03 0.  1.
        -12    1    4    4    0    0 -0.24507497682E+01 -0.10220910616E+01 -0.54198971986E+00  0.27100917736E+01  0.00000000000E+00 0.  1.
</event>
<event>
 8    1  0.2460897E-006  0.9118800E+02  0.7816164E-02  0.1184000E+00
        -11   -1    0    0    0    0  0.00000000000E+00  0.00000000000E+00  0.45593999997E+02  0.45594000000E+02  0.51100000000E-03 0. -1.
         11   -1    0    0    0    0 -0.00000000000E+00 -0.00000000000E+00 -0.45593999997E+02  0.45594000000E+02  0.51100000000E-03 0.  1.
         23    2    1    2    0    0  0.00000000000E+00  0.00000000000E+00  0.00000000000E+00  0.91188000000E+02  0.91188000000E+02 0.  0.
    9900012    2    3    3    0    0 -0.13224290713E+02  0.15261658119E+02 -0.30789377811E+02  0.54367002466E+02  0.39999813722E+02 0.  0.
         12    1    3    3    0    0  0.13224290713E+02 -0.15261658119E+02  0.30789377811E+02  0.36820997534E+02  0.00000000000E+00 0. -1.
         11    1    4    4    0    0 -0.17201284043E+02  0.13863964235E+02 -0.10253019242E+01  0.22116620929E+02  0.51100000000E-03 0. -1.
        -11    1    4    4    0    0  0.75456089818E+01  0.24111389277E+00 -0.25386856236E+02  0.26485596475E+02  0.51100000000E-03 0.  1.
        -12    1    4    4    0    0 -0.35686156523E+01  0.11565799912E+01 -0.43772196504E+01  0.57647850625E+01  0.00000000000E+00 0.  1.
</event>
<event>
 8    1  0.2460897E-006  0.9118800E+02  0.7816164E-02  0.1184000E+00
        -11   -1    0    0    0    0  0.00000000000E+00  0.00000000000E+00  0.45593999997E+02  0.45594000000E+02  0.51100000000E-03 0. -1.
         11   -1    0    0    0    0 -0.00000000000E+00 -0.00000000000E+00 -0.45593999997E+02  0.45594000000E+02  0.51100000000E-03 0.  1.
         23    2    1    2    0    0  0.00000000000E+00  0.00000000000E+00  0.00000000000E+00  0.91188000000E+02  0.91188000000E+02 0.  0.
    9900012    2    3    3    0    0 -0.14059634365E+02  0.89651452579E+01 -0.32828832906E+02  0.54367089936E+02  0.40000013127E+02 0.  0.
         12    1    3    3    0    0  0.14059634365E+02 -0.89651452579E+01  0.32828832906E+02  0.36820910064E+02  0.00000000000E+00 0. -1.
         11    1    4    4    0    0 -0.50118523420E+01  0.33793882755E+01  0.78366566617E+01  0.98970761798E+01  0.51100000000E-03 0. -1.
        -11    1    4    4    0    0 -0.62175008828E+01  0.53302977257E+01 -0.72612012543E+01  0.10945064412E+02  0.51100000000E-03 0.  1.
        -12    1    4    4    0    0 -0.28302811401E+01  0.25545925670E+00 -0.33404288314E+02  0.33524949344E+02  0.00000000000E+00 0.  1.
</event>
<event>
 8    1  0.2460897E-006  0.9118800E+02  0.7816164E-02  0.1184000E+00
        -11   -1    0    0    0    0  0.00000000000E+00  0.00000000000E+00  0.45593999997E+02  0.45594000000E+02  0.51100000000E-03 0.  1.
         11   -1    0    0    0    0 -0.00000000000E+00 -0.00000000000E+00 -0.45593999997E+02  0.45594000000E+02  0.51100000000E-03 0. -1.
         23    2    1    2    0    0 -0.35527136788E-14 -0.17763568394E-14 -0.35527136788E-14  0.91188000000E+02  0.91188000000E+02 0.  0.
    9900012    2    3    3    0    0  0.23150372634E+02  0.40442684249E+01  0.28345812066E+02  0.54367069514E+02  0.39999966571E+02 0.  0.
         12    1    3    3    0    0 -0.23150372634E+02 -0.40442684249E+01 -0.28345812066E+02  0.36820930486E+02  0.00000000000E+00 0. -1.
         11    1    4    4    0    0 -0.57583552245E+01  0.47005552547E+01  0.41548420703E+01  0.85156671778E+01  0.51100000000E-03 0. -1.
        -11    1    4    4    0    0  0.85335264110E+01 -0.12614181374E+02  0.11066157711E+02  0.18825474536E+02  0.51100000000E-03 0.  1.
        -12    1    4    4    0    0  0.20375201447E+02  0.11957894545E+02  0.13124812285E+02  0.27025927801E+02  0.00000000000E+00 0.  1.
</event>
<event>
 8    1  0.2460897E-006  0.9118800E+02  0.7816164E-02  0.1184000E+00
        -11   -1    0    0    0    0  0.00000000000E+00  0.00000000000E+00  0.45593999997E+02  0.45594000000E+02  0.51100000000E-03 0.  1.
         11   -1    0    0    0    0 -0.00000000000E+00 -0.00000000000E+00 -0.45593999997E+02  0.45594000000E+02  0.51100000000E-03 0. -1.
         23    2    1    2    0    0  0.00000000000E+00  0.44408920985E-15  0.00000000000E+00  0.91188000000E+02  0.91188000000E+02 0.  0.
    9900012    2    3    3    0    0 -0.27045628787E+02 -0.38202000414E+01  0.24692496279E+02  0.54367091031E+02  0.40000015623E+02 0.  0.
         12    1    3    3    0    0  0.27045628787E+02  0.38202000414E+01 -0.24692496279E+02  0.36820908969E+02  0.00000000000E+00 0. -1.
         11    1    4    4    0    0  0.59025766210E+01  0.75142293083E+00 -0.18859486605E+01  0.62419427904E+01  0.51100000000E-03 0. -1.
        -11    1    4    4    0    0 -0.14881771768E+02  0.56528097514E+01  0.21503483853E+02  0.26754835210E+02  0.51100000000E-03 0.  1.
        -12    1    4    4    0    0 -0.18066433640E+02 -0.10224432724E+02  0.50749610871E+01  0.21370313031E+02  0.00000000000E+00 0.  1.
</event>
<event>
 8    1  0.2460897E-006  0.9118800E+02  0.7816164E-02  0.1184000E+00
        -11   -1    0    0    0    0  0.00000000000E+00  0.00000000000E+00  0.45593999997E+02  0.45594000000E+02  0.51100000000E-03 0. -1.
         11   -1    0    0    0    0 -0.00000000000E+00 -0.00000000000E+00 -0.45593999997E+02  0.45594000000E+02  0.51100000000E-03 0.  1.
         23    2    1    2    0    0  0.00000000000E+00  0.71054273576E-14  0.00000000000E+00  0.91188000000E+02  0.91188000000E+02 0.  0.
    9900012    2    3    3    0    0 -0.21141201535E+01 -0.36701488918E+02 -0.20786814882E+01  0.54366950184E+02  0.39999694533E+02 0.  0.
        -12    1    3    3    0    0  0.21141201535E+01  0.36701488918E+02  0.20786814882E+01  0.36821049816E+02  0.00000000000E+00 0.  1.
         11    1    4    4    0    0 -0.45497894986E+01 -0.25007688069E+02  0.10388663616E+02  0.27459231217E+02  0.51100000000E-03 0. -1.
        -11    1    4    4    0    0  0.73282300770E+01  0.30598891719E+01 -0.20688682675E+01  0.82064665950E+01  0.51100000000E-03 0.  1.
         12    1    4    4    0    0 -0.48925607318E+01 -0.14753690021E+02 -0.10398476837E+02  0.18701252372E+02  0.00000000000E+00 0. -1.
</event>
<event>
 8    1  0.2460897E-006  0.9118800E+02  0.7816164E-02  0.1184000E+00
        -11   -1    0    0    0    0  0.00000000000E+00  0.00000000000E+00  0.45593999997E+02  0.45594000000E+02  0.51100000000E-03 0. -1.
         11   -1    0    0    0    0 -0.00000000000E+00 -0.00000000000E+00 -0.45593999997E+02  0.45594000000E+02  0.51100000000E-03 0.  1.
         23    2    1    2    0    0  0.88817841970E-15  0.88817841970E-15  0.00000000000E+00  0.91188000000E+02  0.91188000000E+02 0.  0.
    9900012    2    3    3    0    0 -0.76778868683E+01 -0.59110350076E+01 -0.35523081346E+02  0.54367087600E+02  0.40000007802E+02 0.  0.
         12    1    3    3    0    0  0.76778868683E+01  0.59110350076E+01  0.35523081346E+02  0.36820912400E+02  0.00000000000E+00 0. -1.
         11    1    4    4    0    0 -0.81068476551E+01 -0.14123238156E+02 -0.31349371280E+02  0.35326617653E+02  0.51100000000E-03 0.  1.
        -11    1    4    4    0    0  0.63500873638E+01 -0.13019181199E+01 -0.43958137148E+01  0.78320992585E+01  0.51100000000E-03 0. -1.
         12    1    4    4    0    0 -0.59211265770E+01  0.95141212685E+01  0.22210364840E+00  0.11208370688E+02  0.00000000000E+00 0. -1.
</event>
<event>
 8    1  0.2460897E-006  0.9118800E+02  0.7816164E-02  0.1184000E+00
        -11   -1    0    0    0    0  0.00000000000E+00  0.00000000000E+00  0.45593999997E+02  0.45594000000E+02  0.51100000000E-03 0. -1.
         11   -1    0    0    0    0 -0.00000000000E+00 -0.00000000000E+00 -0.45593999997E+02  0.45594000000E+02  0.51100000000E-03 0.  1.
         23    2    1    2    0    0  0.00000000000E+00  0.17763568394E-14  0.35527136788E-14  0.91188000000E+02  0.91188000000E+02 0.  0.
    9900012    2    3    3    0    0 -0.32412659435E+02 -0.33353114539E+01 -0.17148513584E+02  0.54367132108E+02  0.40000109267E+02 0.  0.
         12    1    3    3    0    0  0.32412659435E+02  0.33353114539E+01  0.17148513584E+02  0.36820867892E+02  0.00000000000E+00 0. -1.
         11    1    4    4    0    0 -0.15125227355E+02 -0.13629443264E+02 -0.41790441457E+01  0.20784576889E+02  0.51100000000E-03 0. -1.
        -11    1    4    4    0    0 -0.69720415514E+01  0.10676198796E+02  0.43055994854E+01  0.13458408945E+02  0.51100000000E-03 0.  1.
        -12    1    4    4    0    0 -0.10315390529E+02 -0.38206698602E+00 -0.17275068924E+02  0.20124146274E+02  0.00000000000E+00 0.  1.
</event>
<event>
 8    1  0.2460897E-006  0.9118800E+02  0.7816164E-02  0.1184000E+00
        -11   -1    0    0    0    0  0.00000000000E+00  0.00000000000E+00  0.45593999997E+02  0.45594000000E+02  0.51100000000E-03 0.  1.
         11   -1    0    0    0    0 -0.00000000000E+00 -0.00000000000E+00 -0.45593999997E+02  0.45594000000E+02  0.51100000000E-03 0. -1.
         23    2    1    2    0    0 -0.35527136788E-14  0.00000000000E+00  0.35527136788E-14  0.91188000000E+02  0.91188000000E+02 0.  0.
    9900012    2    3    3    0    0 -0.28125679168E+02  0.14046141801E+02  0.19168588630E+02  0.54367045120E+02  0.39999910961E+02 0.  0.
         12    1    3    3    0    0  0.28125679168E+02 -0.14046141801E+02 -0.19168588630E+02  0.36820954880E+02  0.00000000000E+00 0. -1.
         11    1    4    4    0    0 -0.97215139632E+01 -0.33084822168E+01  0.11153439598E+02  0.15160907078E+02  0.51100000000E-03 0. -1.
        -11    1    4    4    0    0 -0.17729121153E+01  0.15884049616E+02 -0.63331500333E+01  0.17191714259E+02  0.51100000000E-03 0.  1.
        -12    1    4    4    0    0 -0.16631253090E+02  0.14705744017E+01  0.14348299066E+02  0.22014423783E+02  0.00000000000E+00 0.  1.
</event>
<event>
 8    1  0.2460897E-006  0.9118800E+02  0.7816164E-02  0.1184000E+00
        -11   -1    0    0    0    0  0.00000000000E+00  0.00000000000E+00  0.45593999997E+02  0.45594000000E+02  0.51100000000E-03 0.  1.
         11   -1    0    0    0    0 -0.00000000000E+00 -0.00000000000E+00 -0.45593999997E+02  0.45594000000E+02  0.51100000000E-03 0. -1.
         23    2    1    2    0    0  0.00000000000E+00  0.00000000000E+00  0.35527136788E-14  0.91188000000E+02  0.91188000000E+02 0.  0.
    9900012    2    3    3    0    0 -0.16061852793E+02  0.16120441318E+02 -0.28946998784E+02  0.54367075487E+02  0.39999980188E+02 0.  0.
        -12    1    3    3    0    0  0.16061852793E+02 -0.16120441318E+02  0.28946998784E+02  0.36820924513E+02  0.00000000000E+00 0.  1.
         11    1    4    4    0    0 -0.13781384872E+02  0.18418069488E+02 -0.12430409666E+02  0.26147025402E+02  0.51100000000E-03 0. -1.
        -11    1    4    4    0    0 -0.72057250464E+00  0.92408732711E+01 -0.13170867389E+02  0.16105424912E+02  0.51100000000E-03 0.  1.
         12    1    4    4    0    0 -0.15598954156E+01 -0.11538501441E+02 -0.33457217288E+01  0.12114625173E+02  0.00000000000E+00 0. -1.
</event>
<event>
 8    1  0.2460897E-006  0.9118800E+02  0.7816164E-02  0.1184000E+00
        -11   -1    0    0    0    0  0.00000000000E+00  0.00000000000E+00  0.45593999997E+02  0.45594000000E+02  0.51100000000E-03 0.  1.
         11   -1    0    0    0    0 -0.00000000000E+00 -0.00000000000E+00 -0.45593999997E+02  0.45594000000E+02  0.51100000000E-03 0. -1.
         23    2    1    2    0    0  0.71054273576E-14 -0.88817841970E-15 -0.17763568394E-14  0.91188000000E+02  0.91188000000E+02 0.  0.
    9900012    2    3    3    0    0 -0.34634841165E+02  0.70450359926E+01  0.10323494727E+02  0.54367091564E+02  0.40000016838E+02 0.  0.
         12    1    3    3    0    0  0.34634841165E+02 -0.70450359926E+01 -0.10323494727E+02  0.36820908436E+02  0.00000000000E+00 0. -1.
         11    1    4    4    0    0 -0.19547806072E+02 -0.30881446889E+01 -0.30694651185E+01  0.20026856374E+02  0.51100000000E-03 0. -1.
        -11    1    4    4    0    0 -0.20740451027E+02  0.59626061941E+01  0.15980872450E+02  0.26853440487E+02  0.51100000000E-03 0.  1.
         12    1    4    4    0    0  0.56534159342E+01  0.41705744874E+01 -0.25879126045E+01  0.74867947032E+01  0.00000000000E+00 0. -1.
</event>
<event>
 8    1  0.2460897E-006  0.9118800E+02  0.7816164E-02  0.1184000E+00
        -11   -1    0    0    0    0  0.00000000000E+00  0.00000000000E+00  0.45593999997E+02  0.45594000000E+02  0.51100000000E-03 0.  1.
         11   -1    0    0    0    0 -0.00000000000E+00 -0.00000000000E+00 -0.45593999997E+02  0.45594000000E+02  0.51100000000E-03 0. -1.
         23    2    1    2    0    0 -0.17763568394E-14  0.00000000000E+00  0.35527136788E-14  0.91188000000E+02  0.91188000000E+02 0.  0.
    9900012    2    3    3    0    0 -0.13825830599E+02  0.17667236330E+02  0.29197522044E+02  0.54367080338E+02  0.39999991246E+02 0.  0.
         12    1    3    3    0    0  0.13825830599E+02 -0.17667236330E+02 -0.29197522044E+02  0.36820919662E+02  0.00000000000E+00 0. -1.
         11    1    4    4    0    0 -0.10137731904E+02  0.60878469890E+01  0.31943864923E+01  0.12249065044E+02  0.51100000000E-03 0. -1.
        -11    1    4    4    0    0  0.70927368956E+01 -0.12765441225E+01 -0.36265709909E+01  0.80677443552E+01  0.51100000000E-03 0.  1.
        -12    1    4    4    0    0 -0.10780835590E+02  0.12855933464E+02  0.29629706542E+02  0.34050270939E+02  0.00000000000E+00 0.  1.
</event>
<event>
 8    1  0.2460897E-006  0.9118800E+02  0.7816164E-02  0.1184000E+00
        -11   -1    0    0    0    0  0.00000000000E+00  0.00000000000E+00  0.45593999997E+02  0.45594000000E+02  0.51100000000E-03 0.  1.
         11   -1    0    0    0    0 -0.00000000000E+00 -0.00000000000E+00 -0.45593999997E+02  0.45594000000E+02  0.51100000000E-03 0. -1.
         23    2    1    2    0    0 -0.35527136788E-14  0.35527136788E-14  0.17763568394E-14  0.91188000000E+02  0.91188000000E+02 0.  0.
    9900012    2    3    3    0    0  0.25256721616E+02 -0.22273461932E+02  0.14891906322E+02  0.54367109637E+02  0.40000058038E+02 0.  0.
         12    1    3    3    0    0 -0.25256721616E+02  0.22273461932E+02 -0.14891906322E+02  0.36820890363E+02  0.00000000000E+00 0. -1.
         11    1    4    4    0    0  0.26534581435E+02 -0.32574725586E+00  0.64006695321E+01  0.27297595021E+02  0.51100000000E-03 0. -1.
        -11    1    4    4    0    0  0.30287223737E+01 -0.12966909132E+02  0.10440048658E+02  0.16920653294E+02  0.51100000000E-03 0.  1.
         12    1    4    4    0    0 -0.43065821928E+01 -0.89808055447E+01 -0.19488118688E+01  0.10148861321E+02  0.00000000000E+00 0. -1.
</event>
<event>
 8    1  0.2460897E-006  0.9118800E+02  0.7816164E-02  0.1184000E+00
        -11   -1    0    0    0    0  0.00000000000E+00  0.00000000000E+00  0.45593999997E+02  0.45594000000E+02  0.51100000000E-03 0.  1.
         11   -1    0    0    0    0 -0.00000000000E+00 -0.00000000000E+00 -0.45593999997E+02  0.45594000000E+02  0.51100000000E-03 0. -1.
         23    2    1    2    0    0  0.00000000000E+00  0.17763568394E-14  0.00000000000E+00  0.91188000000E+02  0.91188000000E+02 0.  0.
    9900012    2    3    3    0    0 -0.11303543620E+02 -0.13102656175E+02 -0.32501235788E+02  0.54367081693E+02  0.39999994336E+02 0.  0.
        -12    1    3    3    0    0  0.11303543620E+02  0.13102656175E+02  0.32501235788E+02  0.36820918307E+02  0.00000000000E+00 0.  1.
         11    1    4    4    0    0  0.22201550152E+01  0.85143363358E+01 -0.48658406865E+01  0.10054820604E+02  0.51100000000E-03 0. -1.
        -11    1    4    4    0    0  0.47843497363E+01 -0.35440947382E+01 -0.13961914088E+02  0.15178460237E+02  0.51100000000E-03 0.  1.
         12    1    4    4    0    0 -0.18308048371E+02 -0.18072897772E+02 -0.13673481014E+02  0.29133800852E+02  0.00000000000E+00 0. -1.
</event>
<event>
 8    1  0.2460897E-006  0.9118800E+02  0.7816164E-02  0.1184000E+00
        -11   -1    0    0    0    0  0.00000000000E+00  0.00000000000E+00  0.45593999997E+02  0.45594000000E+02  0.51100000000E-03 0.  1.
         11   -1    0    0    0    0 -0.00000000000E+00 -0.00000000000E+00 -0.45593999997E+02  0.45594000000E+02  0.51100000000E-03 0. -1.
         23    2    1    2    0    0  0.00000000000E+00 -0.88817841970E-15  0.00000000000E+00  0.91188000000E+02  0.91188000000E+02 0.  0.
    9900012    2    3    3    0    0  0.16838135358E+02  0.40865208435E+01 -0.32489343688E+02  0.54367083278E+02  0.39999997950E+02 0.  0.
        -12    1    3    3    0    0 -0.16838135358E+02 -0.40865208435E+01  0.32489343688E+02  0.36820916722E+02  0.00000000000E+00 0.  1.
         11    1    4    4    0    0  0.12069193014E+02 -0.57401677676E+01 -0.27669581576E+01  0.13648113559E+02  0.51100000000E-03 0.  1.
        -11    1    4    4    0    0  0.11365309492E+02  0.16674280234E+01 -0.27762824185E+02  0.30045382058E+02  0.51100000000E-03 0. -1.
        -12    1    4    4    0    0 -0.65963671480E+01  0.81592605877E+01 -0.19595613456E+01  0.10673587661E+02  0.00000000000E+00 0.  1.
</event>
<event>
 8    1  0.2460897E-006  0.9118800E+02  0.7816164E-02  0.1184000E+00
        -11   -1    0    0    0    0  0.00000000000E+00  0.00000000000E+00  0.45593999997E+02  0.45594000000E+02  0.51100000000E-03 0.  1.
         11   -1    0    0    0    0 -0.00000000000E+00 -0.00000000000E+00 -0.45593999997E+02  0.45594000000E+02  0.51100000000E-03 0. -1.
         23    2    1    2    0    0 -0.17763568394E-14  0.00000000000E+00  0.35527136788E-14  0.91188000000E+02  0.91188000000E+02 0.  0.
    9900012    2    3    3    0    0 -0.79423649640E+01  0.17687769455E+02  0.31302467917E+02  0.54367043369E+02  0.39999906969E+02 0.  0.
         12    1    3    3    0    0  0.79423649640E+01 -0.17687769455E+02 -0.31302467917E+02  0.36820956631E+02  0.00000000000E+00 0. -1.
         11    1    4    4    0    0 -0.19402148989E+02  0.42100310663E+01  0.98604549545E+01  0.22167460819E+02  0.51100000000E-03 0.  1.
        -11    1    4    4    0    0  0.10356188354E+02  0.33886242061E+01  0.18771390966E+02  0.21704804314E+02  0.51100000000E-03 0. -1.
         12    1    4    4    0    0  0.11035956711E+01  0.10089114182E+02  0.26706219967E+01  0.10494778237E+02  0.00000000000E+00 0. -1.
</event>
<event>
 8    1  0.2460897E-006  0.9118800E+02  0.7816164E-02  0.1184000E+00
        -11   -1    0    0    0    0  0.00000000000E+00  0.00000000000E+00  0.45593999997E+02  0.45594000000E+02  0.51100000000E-03 0.  1.
         11   -1    0    0    0    0 -0.00000000000E+00 -0.00000000000E+00 -0.45593999997E+02  0.45594000000E+02  0.51100000000E-03 0. -1.
         23    2    1    2    0    0  0.00000000000E+00  0.00000000000E+00  0.00000000000E+00  0.91188000000E+02  0.91188000000E+02 0.  0.
    9900012    2    3    3    0    0 -0.62484040589E+01  0.16260855369E+02  0.32439503757E+02  0.54367090524E+02  0.40000014469E+02 0.  0.
         12    1    3    3    0    0  0.62484040589E+01 -0.16260855369E+02 -0.32439503757E+02  0.36820909476E+02  0.00000000000E+00 0. -1.
         11    1    4    4    0    0  0.10654795619E+01 -0.53972218852E+00 -0.19523390558E+00  0.12102327366E+01  0.51100000000E-03 0. -1.
        -11    1    4    4    0    0 -0.22206929676E+02  0.14212810885E+02  0.24495728078E+02  0.35988781769E+02  0.51100000000E-03 0.  1.
        -12    1    4    4    0    0  0.14893046056E+02  0.25877666722E+01  0.81390095843E+01  0.17168076018E+02  0.00000000000E+00 0.  1.
</event>
<event>
 8    1  0.2460897E-006  0.9118800E+02  0.7816164E-02  0.1184000E+00
        -11   -1    0    0    0    0  0.00000000000E+00  0.00000000000E+00  0.45593999997E+02  0.45594000000E+02  0.51100000000E-03 0.  1.
         11   -1    0    0    0    0 -0.00000000000E+00 -0.00000000000E+00 -0.45593999997E+02  0.45594000000E+02  0.51100000000E-03 0. -1.
         23    2    1    2    0    0  0.00000000000E+00  0.17763568394E-14  0.35527136788E-14  0.91188000000E+02  0.91188000000E+02 0.  0.
    9900012    2    3    3    0    0 -0.29981932322E+02  0.98987121643E+01  0.18944131531E+02  0.54367069977E+02  0.39999967627E+02 0.  0.
        -12    1    3    3    0    0  0.29981932322E+02 -0.98987121643E+01 -0.18944131531E+02  0.36820930023E+02  0.00000000000E+00 0.  1.
         11    1    4    4    0    0 -0.24186897171E+02  0.17566854714E+02  0.25077183835E+02  0.39018784305E+02  0.51100000000E-03 0.  1.
        -11    1    4    4    0    0  0.17604728070E+00 -0.61366000685E+01 -0.67842868476E+01  0.91496120868E+01  0.51100000000E-03 0. -1.
        -12    1    4    4    0    0 -0.59710824324E+01 -0.15315424807E+01  0.65123454309E+00  0.61986735851E+01  0.00000000000E+00 0.  1.
</event>
<event>
 8    1  0.2460897E-006  0.9118800E+02  0.7816164E-02  0.1184000E+00
        -11   -1    0    0    0    0  0.00000000000E+00  0.00000000000E+00  0.45593999997E+02  0.45594000000E+02  0.51100000000E-03 0.  1.
         11   -1    0    0    0    0 -0.00000000000E+00 -0.00000000000E+00 -0.45593999997E+02  0.45594000000E+02  0.51100000000E-03 0. -1.
         23    2    1    2    0    0  0.00000000000E+00  0.17763568394E-14  0.00000000000E+00  0.91188000000E+02  0.91188000000E+02 0.  0.
    9900012    2    3    3    0    0 -0.16700311539E+02 -0.15858001335E+02 -0.28729790774E+02  0.54367116119E+02  0.40000072816E+02 0.  0.
        -12    1    3    3    0    0  0.16700311539E+02  0.15858001335E+02  0.28729790774E+02  0.36820883881E+02  0.00000000000E+00 0.  1.
         11    1    4    4    0    0 -0.14880159923E+02 -0.19897017311E+02 -0.12770956606E+02  0.27935779748E+02  0.51100000000E-03 0. -1.
        -11    1    4    4    0    0  0.24895181724E+01 -0.76477561590E+01 -0.33656601349E+01  0.87185746200E+01  0.51100000000E-03 0.  1.
         12    1    4    4    0    0 -0.43096697883E+01  0.11686772135E+02 -0.12593174033E+02  0.17712761751E+02  0.00000000000E+00 0. -1.
</event>
<event>
 8    1  0.2460897E-006  0.9118800E+02  0.7816164E-02  0.1184000E+00
        -11   -1    0    0    0    0  0.00000000000E+00  0.00000000000E+00  0.45593999997E+02  0.45594000000E+02  0.51100000000E-03 0. -1.
         11   -1    0    0    0    0 -0.00000000000E+00 -0.00000000000E+00 -0.45593999997E+02  0.45594000000E+02  0.51100000000E-03 0.  1.
         23    2    1    2    0    0  0.88817841970E-15  0.00000000000E+00  0.00000000000E+00  0.91188000000E+02  0.91188000000E+02 0.  0.
    9900012    2    3    3    0    0  0.29097349670E+01 -0.15632942536E+02 -0.33210311814E+02  0.54367078492E+02  0.39999987038E+02 0.  0.
         12    1    3    3    0    0 -0.29097349670E+01  0.15632942536E+02  0.33210311814E+02  0.36820921508E+02  0.00000000000E+00 0. -1.
         11    1    4    4    0    0 -0.32843120626E+00 -0.11196945502E+02 -0.57191851822E+01  0.12577302375E+02  0.51100000000E-03 0. -1.
        -11    1    4    4    0    0 -0.15475998006E+01  0.70647577227E+01  0.37572645750E+01  0.81500247957E+01  0.51100000000E-03 0.  1.
        -12    1    4    4    0    0  0.47857659738E+01 -0.11500754757E+02 -0.31248391207E+02  0.33639751321E+02  0.00000000000E+00 0.  1.
</event>
<event>
 8    1  0.2460897E-006  0.9118800E+02  0.7816164E-02  0.1184000E+00
        -11   -1    0    0    0    0  0.00000000000E+00  0.00000000000E+00  0.45593999997E+02  0.45594000000E+02  0.51100000000E-03 0. -1.
         11   -1    0    0    0    0 -0.00000000000E+00 -0.00000000000E+00 -0.45593999997E+02  0.45594000000E+02  0.51100000000E-03 0.  1.
         23    2    1    2    0    0 -0.17763568394E-14  0.35527136788E-14  0.35527136788E-14  0.91188000000E+02  0.91188000000E+02 0.  0.
    9900012    2    3    3    0    0 -0.15246170432E+02  0.31800532714E+02  0.10585848275E+02  0.54367085054E+02  0.40000001998E+02 0.  0.
        -12    1    3    3    0    0  0.15246170432E+02 -0.31800532714E+02 -0.10585848275E+02  0.36820914946E+02  0.00000000000E+00 0.  1.
         11    1    4    4    0    0 -0.19900084069E+02  0.11408421472E+02  0.17514611140E+02  0.28860475223E+02  0.51100000000E-03 0. -1.
        -11    1    4    4    0    0 -0.41440754171E+01  0.44070195469E+01 -0.17955832398E+00  0.60520594678E+01  0.51100000000E-03 0.  1.
        -12    1    4    4    0    0  0.87979890542E+01  0.15985091695E+02 -0.67492045412E+01  0.19454550363E+02  0.00000000000E+00 0.  1.
</event>
<event>
 8    1  0.2460897E-006  0.9118800E+02  0.7816164E-02  0.1184000E+00
        -11   -1    0    0    0    0  0.00000000000E+00  0.00000000000E+00  0.45593999997E+02  0.45594000000E+02  0.51100000000E-03 0. -1.
         11   -1    0    0    0    0 -0.00000000000E+00 -0.00000000000E+00 -0.45593999997E+02  0.45594000000E+02  0.51100000000E-03 0.  1.
         23    2    1    2    0    0  0.00000000000E+00  0.22204460493E-15  0.00000000000E+00  0.91188000000E+02  0.91188000000E+02 0.  0.
    9900012    2    3    3    0    0 -0.14285732023E+02 -0.17834793885E+01 -0.33889780050E+02  0.54367080267E+02  0.39999991085E+02 0.  0.
         12    1    3    3    0    0  0.14285732023E+02  0.17834793885E+01  0.33889780050E+02  0.36820919733E+02  0.00000000000E+00 0. -1.
         11    1    4    4    0    0  0.14007066439E+01 -0.80248109132E+01 -0.14864605387E+02  0.16950400080E+02  0.51100000000E-03 0. -1.
        -11    1    4    4    0    0  0.33157135592E+01 -0.71679664321E+01 -0.93190323922E+01  0.12215484606E+02  0.51100000000E-03 0.  1.
         12    1    4    4    0    0 -0.19002152226E+02  0.13409297957E+02 -0.97061422703E+01  0.25201195581E+02  0.00000000000E+00 0. -1.
</event>
<event>
 8    1  0.2460897E-006  0.9118800E+02  0.7816164E-02  0.1184000E+00
        -11   -1    0    0    0    0  0.00000000000E+00  0.00000000000E+00  0.45593999997E+02  0.45594000000E+02  0.51100000000E-03 0. -1.
         11   -1    0    0    0    0 -0.00000000000E+00 -0.00000000000E+00 -0.45593999997E+02  0.45594000000E+02  0.51100000000E-03 0.  1.
         23    2    1    2    0    0  0.00000000000E+00  0.17763568394E-14  0.17763568394E-14  0.91188000000E+02  0.91188000000E+02 0.  0.
    9900012    2    3    3    0    0  0.32560930928E+02  0.13080013958E+02  0.11156997717E+02  0.54367087653E+02  0.40000007922E+02 0.  0.
        -12    1    3    3    0    0 -0.32560930928E+02 -0.13080013958E+02 -0.11156997717E+02  0.36820912347E+02  0.00000000000E+00 0.  1.
         11    1    4    4    0    0  0.49493973384E+01  0.25102127355E+01 -0.29359015886E+01  0.62783134988E+01  0.51100000000E-03 0. -1.
        -11    1    4    4    0    0 -0.29661193452E+01  0.97944571936E+01 -0.56434118823E+01  0.11686631406E+02  0.51100000000E-03 0.  1.
         12    1    4    4    0    0  0.30577652934E+02  0.77534402926E+00  0.19736311188E+02  0.36402142748E+02  0.00000000000E+00 0. -1.
</event>
<event>
 8    1  0.2460897E-006  0.9118800E+02  0.7816164E-02  0.1184000E+00
        -11   -1    0    0    0    0  0.00000000000E+00  0.00000000000E+00  0.45593999997E+02  0.45594000000E+02  0.51100000000E-03 0. -1.
         11   -1    0    0    0    0 -0.00000000000E+00 -0.00000000000E+00 -0.45593999997E+02  0.45594000000E+02  0.51100000000E-03 0.  1.
         23    2    1    2    0    0  0.00000000000E+00  0.00000000000E+00 -0.71054273576E-14  0.91188000000E+02  0.91188000000E+02 0.  0.
    9900012    2    3    3    0    0  0.12998926840E+02  0.46105728696E+01 -0.34140159453E+02  0.54367082458E+02  0.39999996080E+02 0.  0.
         12    1    3    3    0    0 -0.12998926840E+02 -0.46105728696E+01  0.34140159453E+02  0.36820917542E+02  0.00000000000E+00 0. -1.
         11    1    4    4    0    0 -0.68600891218E+01 -0.35554477385E+01 -0.15039094587E+02  0.16907879750E+02  0.51100000000E-03 0. -1.
        -11    1    4    4    0    0 -0.38100672709E+00  0.97237490326E+00 -0.15672089881E+02  0.15706848206E+02  0.51100000000E-03 0.  1.
         12    1    4    4    0    0  0.20240022688E+02  0.71936457048E+01 -0.34289749850E+01  0.21752354502E+02  0.00000000000E+00 0. -1.
</event>
<event>
 8    1  0.2460897E-006  0.9118800E+02  0.7816164E-02  0.1184000E+00
        -11   -1    0    0    0    0  0.00000000000E+00  0.00000000000E+00  0.45593999997E+02  0.45594000000E+02  0.51100000000E-03 0.  1.
         11   -1    0    0    0    0 -0.00000000000E+00 -0.00000000000E+00 -0.45593999997E+02  0.45594000000E+02  0.51100000000E-03 0. -1.
         23    2    1    2    0    0  0.17763568394E-14  0.71054273576E-14  0.22204460493E-15  0.91188000000E+02  0.91188000000E+02 0.  0.
    9900012    2    3    3    0    0  0.14979356228E+02  0.33617553552E+02  0.11221871096E+01  0.54367077636E+02  0.39999985087E+02 0.  0.
        -12    1    3    3    0    0 -0.14979356228E+02 -0.33617553552E+02 -0.11221871096E+01  0.36820922364E+02  0.00000000000E+00 0.  1.
         11    1    4    4    0    0  0.22930461412E+02  0.18678267683E+02 -0.73686774731E+01  0.30479192118E+02  0.51100000000E-03 0. -1.
        -11    1    4    4    0    0  0.12819224713E+00 -0.24914326504E+01  0.30096547210E+01  0.39091804390E+01  0.51100000000E-03 0.  1.
        -12    1    4    4    0    0 -0.80792974318E+01  0.17430718519E+02  0.54812098616E+01  0.19978705079E+02  0.00000000000E+00 0.  1.
</event>
<event>
 8    1  0.2460897E-006  0.9118800E+02  0.7816164E-02  0.1184000E+00
        -11   -1    0    0    0    0  0.00000000000E+00  0.00000000000E+00  0.45593999997E+02  0.45594000000E+02  0.51100000000E-03 0. -1.
         11   -1    0    0    0    0 -0.00000000000E+00 -0.00000000000E+00 -0.45593999997E+02  0.45594000000E+02  0.51100000000E-03 0.  1.
         23    2    1    2    0    0  0.00000000000E+00  0.35527136788E-14  0.77715611724E-15  0.91188000000E+02  0.91188000000E+02 0.  0.
    9900012    2    3    3    0    0 -0.35220466948E+02 -0.10700185439E+02  0.89814739584E+00  0.54367055835E+02  0.39999935386E+02 0.  0.
        -12    1    3    3    0    0  0.35220466948E+02  0.10700185439E+02 -0.89814739584E+00  0.36820944165E+02  0.00000000000E+00 0.  1.
         11    1    4    4    0    0 -0.16081084665E+02 -0.96857514002E+01  0.10598801125E+02  0.21558053014E+02  0.51100000000E-03 0. -1.
        -11    1    4    4    0    0 -0.83284724095E+01  0.11292758323E+02 -0.84511995536E+01  0.16380250834E+02  0.51100000000E-03 0.  1.
        -12    1    4    4    0    0 -0.10810909874E+02 -0.12307192362E+02 -0.12494541759E+01  0.16428751987E+02  0.00000000000E+00 0.  1.
</event>
<event>
 8    1  0.2460897E-006  0.9118800E+02  0.7816164E-02  0.1184000E+00
        -11   -1    0    0    0    0  0.00000000000E+00  0.00000000000E+00  0.45593999997E+02  0.45594000000E+02  0.51100000000E-03 0.  1.
         11   -1    0    0    0    0 -0.00000000000E+00 -0.00000000000E+00 -0.45593999997E+02  0.45594000000E+02  0.51100000000E-03 0. -1.
         23    2    1    2    0    0  0.00000000000E+00  0.35527136788E-14 -0.17763568394E-14  0.91188000000E+02  0.91188000000E+02 0.  0.
    9900012    2    3    3    0    0  0.14285396105E+02 -0.30198322913E+02 -0.15484598117E+02  0.54367027342E+02  0.39999870432E+02 0.  0.
         12    1    3    3    0    0 -0.14285396105E+02  0.30198322913E+02  0.15484598117E+02  0.36820972658E+02  0.00000000000E+00 0. -1.
         11    1    4    4    0    0  0.10644902262E+01 -0.19968507271E+01  0.95650576713E+01  0.98290834153E+01  0.51100000000E-03 0.  1.
        -11    1    4    4    0    0  0.15313094432E+02 -0.18580773627E+02 -0.89914763758E+01  0.25701802609E+02  0.51100000000E-03 0. -1.
        -12    1    4    4    0    0 -0.20921885538E+01 -0.96206985591E+01 -0.16058179413E+02  0.18836141318E+02  0.00000000000E+00 0.  1.
</event>
<event>
 8    1  0.2460897E-006  0.9118800E+02  0.7816164E-02  0.1184000E+00
        -11   -1    0    0    0    0  0.00000000000E+00  0.00000000000E+00  0.45593999997E+02  0.45594000000E+02  0.51100000000E-03 0.  1.
         11   -1    0    0    0    0 -0.00000000000E+00 -0.00000000000E+00 -0.45593999997E+02  0.45594000000E+02  0.51100000000E-03 0. -1.
         23    2    1    2    0    0  0.00000000000E+00 -0.17763568394E-14 -0.35527136788E-14  0.91188000000E+02  0.91188000000E+02 0.  0.
    9900012    2    3    3    0    0  0.27043357173E+02  0.14804302261E+02  0.20131291073E+02  0.54367090004E+02  0.40000013283E+02 0.  0.
         12    1    3    3    0    0 -0.27043357173E+02 -0.14804302261E+02 -0.20131291073E+02  0.36820909996E+02  0.00000000000E+00 0. -1.
         11    1    4    4    0    0  0.17454805848E+02  0.10647844824E+02  0.16645658704E+02  0.26365219524E+02  0.51100000000E-03 0. -1.
        -11    1    4    4    0    0 -0.83655893272E+01  0.47102323579E+01 -0.45790561525E+00  0.96114021594E+01  0.51100000000E-03 0.  1.
         12    1    4    4    0    0  0.17954140652E+02 -0.55377492087E+00  0.39435379836E+01  0.18390468321E+02  0.00000000000E+00 0. -1.
</event>
<event>
 8    1  0.2460897E-006  0.9118800E+02  0.7816164E-02  0.1184000E+00
        -11   -1    0    0    0    0  0.00000000000E+00  0.00000000000E+00  0.45593999997E+02  0.45594000000E+02  0.51100000000E-03 0.  1.
         11   -1    0    0    0    0 -0.00000000000E+00 -0.00000000000E+00 -0.45593999997E+02  0.45594000000E+02  0.51100000000E-03 0. -1.
         23    2    1    2    0    0  0.35527136788E-14  0.00000000000E+00  0.00000000000E+00  0.91188000000E+02  0.91188000000E+02 0.  0.
    9900012    2    3    3    0    0  0.21305673313E+02 -0.18243355151E+02 -0.23854309736E+02  0.54367084538E+02  0.40000000821E+02 0.  0.
        -12    1    3    3    0    0 -0.21305673313E+02  0.18243355151E+02  0.23854309736E+02  0.36820915462E+02  0.00000000000E+00 0.  1.
         11    1    4    4    0    0 -0.68197226877E+01 -0.30759093274E+00 -0.20276000305E+01  0.71214037846E+01  0.51100000000E-03 0.  1.
        -11    1    4    4    0    0  0.23863132991E+02 -0.23218242957E+02 -0.12184847132E+02  0.35454286370E+02  0.51100000000E-03 0. -1.
         12    1    4    4    0    0  0.42622630097E+01  0.52824787388E+01 -0.96418625742E+01  0.11791394383E+02  0.00000000000E+00 0. -1.
</event>
<event>
 8    1  0.2460897E-006  0.9118800E+02  0.7816164E-02  0.1184000E+00
        -11   -1    0    0    0    0  0.00000000000E+00  0.00000000000E+00  0.45593999997E+02  0.45594000000E+02  0.51100000000E-03 0. -1.
         11   -1    0    0    0    0 -0.00000000000E+00 -0.00000000000E+00 -0.45593999997E+02  0.45594000000E+02  0.51100000000E-03 0.  1.
         23    2    1    2    0    0 -0.35527136788E-14 -0.71054273576E-14 -0.71054273576E-14  0.91188000000E+02  0.91188000000E+02 0.  0.
    9900012    2    3    3    0    0  0.16755637504E+02  0.16396081605E+02  0.28393567422E+02  0.54367115286E+02  0.40000070918E+02 0.  0.
        -12    1    3    3    0    0 -0.16755637504E+02 -0.16396081605E+02 -0.28393567422E+02  0.36820884714E+02  0.00000000000E+00 0.  1.
         11    1    4    4    0    0  0.14338767333E+02  0.20316365001E+02  0.78918335403E+01  0.26089000985E+02  0.51100000000E-03 0. -1.
        -11    1    4    4    0    0  0.31726320036E+01 -0.35063308299E+01 -0.24394205581E+01  0.53207821454E+01  0.51100000000E-03 0.  1.
        -12    1    4    4    0    0 -0.75576183293E+00 -0.41395256653E+00  0.22941154440E+02  0.22957332156E+02  0.00000000000E+00 0.  1.
</event>
<event>
 8    1  0.2460897E-006  0.9118800E+02  0.7816164E-02  0.1184000E+00
        -11   -1    0    0    0    0  0.00000000000E+00  0.00000000000E+00  0.45593999997E+02  0.45594000000E+02  0.51100000000E-03 0.  1.
         11   -1    0    0    0    0 -0.00000000000E+00 -0.00000000000E+00 -0.45593999997E+02  0.45594000000E+02  0.51100000000E-03 0. -1.
         23    2    1    2    0    0  0.00000000000E+00  0.17763568394E-14 -0.71054273576E-14  0.91188000000E+02  0.91188000000E+02 0.  0.
    9900012    2    3    3    0    0 -0.99576919974E+01  0.13505182807E+02  0.32775528196E+02  0.54367070610E+02  0.39999969071E+02 0.  0.
         12    1    3    3    0    0  0.99576919974E+01 -0.13505182807E+02 -0.32775528196E+02  0.36820929390E+02  0.00000000000E+00 0. -1.
         11    1    4    4    0    0  0.88291206239E+01 -0.83809516942E+01  0.91379919330E+01  0.15221583989E+02  0.51100000000E-03 0. -1.
        -11    1    4    4    0    0  0.48785808609E+00  0.19036675427E+00  0.41631027819E+01  0.41959111105E+01  0.51100000000E-03 0.  1.
         12    1    4    4    0    0 -0.19274670707E+02  0.21695767747E+02  0.19474433482E+02  0.34949575511E+02  0.00000000000E+00 0. -1.
</event>
<event>
 8    1  0.2460897E-006  0.9118800E+02  0.7816164E-02  0.1184000E+00
        -11   -1    0    0    0    0  0.00000000000E+00  0.00000000000E+00  0.45593999997E+02  0.45594000000E+02  0.51100000000E-03 0.  1.
         11   -1    0    0    0    0 -0.00000000000E+00 -0.00000000000E+00 -0.45593999997E+02  0.45594000000E+02  0.51100000000E-03 0. -1.
         23    2    1    2    0    0  0.13600232052E-14  0.00000000000E+00  0.17763568394E-14  0.91188000000E+02  0.91188000000E+02 0.  0.
    9900012    2    3    3    0    0 -0.18940793982E+00  0.33800476252E+02 -0.14603923209E+02  0.54367046137E+02  0.39999913280E+02 0.  0.
         12    1    3    3    0    0  0.18940793982E+00 -0.33800476252E+02  0.14603923209E+02  0.36820953863E+02  0.00000000000E+00 0. -1.
         11    1    4    4    0    0 -0.85633705034E+00  0.64966262669E+01 -0.48610791420E+01  0.81590168943E+01  0.51100000000E-03 0. -1.
        -11    1    4    4    0    0 -0.83983765913E+01 -0.51514057892E+01  0.28149465973E+01  0.10246640209E+02  0.51100000000E-03 0.  1.
        -12    1    4    4    0    0  0.90653057019E+01  0.32455255775E+02 -0.12557790664E+02  0.35961389034E+02  0.00000000000E+00 0.  1.
</event>
<event>
 8    1  0.2460897E-006  0.9118800E+02  0.7816164E-02  0.1184000E+00
        -11   -1    0    0    0    0  0.00000000000E+00  0.00000000000E+00  0.45593999997E+02  0.45594000000E+02  0.51100000000E-03 0.  1.
         11   -1    0    0    0    0 -0.00000000000E+00 -0.00000000000E+00 -0.45593999997E+02  0.45594000000E+02  0.51100000000E-03 0. -1.
         23    2    1    2    0    0  0.00000000000E+00  0.13322676296E-14  0.71054273576E-14  0.91188000000E+02  0.91188000000E+02 0.  0.
    9900012    2    3    3    0    0 -0.93720654736E+01 -0.28648022745E+01 -0.35492778989E+02  0.54367081168E+02  0.39999993138E+02 0.  0.
        -12    1    3    3    0    0  0.93720654736E+01  0.28648022745E+01  0.35492778989E+02  0.36820918832E+02  0.00000000000E+00 0.  1.
         11    1    4    4    0    0 -0.34105929240E+01  0.13007780407E+02 -0.61751364632E+01  0.14797527017E+02  0.51100000000E-03 0. -1.
        -11    1    4    4    0    0 -0.55813020865E+01 -0.20588404857E+02 -0.26658050701E+02  0.34142129620E+02  0.51100000000E-03 0.  1.
        -12    1    4    4    0    0 -0.38017046310E+00  0.47158221748E+01 -0.26595918240E+01  0.54274245307E+01  0.00000000000E+00 0.  1.
</event>
<event>
 8    1  0.2460897E-006  0.9118800E+02  0.7816164E-02  0.1184000E+00
        -11   -1    0    0    0    0  0.00000000000E+00  0.00000000000E+00  0.45593999997E+02  0.45594000000E+02  0.51100000000E-03 0.  1.
         11   -1    0    0    0    0 -0.00000000000E+00 -0.00000000000E+00 -0.45593999997E+02  0.45594000000E+02  0.51100000000E-03 0. -1.
         23    2    1    2    0    0 -0.35527136788E-14  0.35527136788E-14  0.00000000000E+00  0.91188000000E+02  0.91188000000E+02 0.  0.
    9900012    2    3    3    0    0 -0.25839191877E+02  0.20482019791E+02 -0.16389229657E+02  0.54367030155E+02  0.39999876844E+02 0.  0.
        -12    1    3    3    0    0  0.25839191877E+02 -0.20482019791E+02  0.16389229657E+02  0.36820969845E+02  0.00000000000E+00 0.  1.
         11    1    4    4    0    0 -0.93953077760E+01  0.20641799360E+02 -0.19144019959E+02  0.29679103583E+02  0.51100000000E-03 0. -1.
        -11    1    4    4    0    0 -0.15961541307E+02  0.65404451470E+01 -0.42712902706E+00  0.17254873604E+02  0.51100000000E-03 0.  1.
         12    1    4    4    0    0 -0.48234279431E+00 -0.67002247160E+01  0.31819193291E+01  0.74330529685E+01  0.00000000000E+00 0. -1.
</event>
<event>
 8    1  0.2460897E-006  0.9118800E+02  0.7816164E-02  0.1184000E+00
        -11   -1    0    0    0    0  0.00000000000E+00  0.00000000000E+00  0.45593999997E+02  0.45594000000E+02  0.51100000000E-03 0.  1.
         11   -1    0    0    0    0 -0.00000000000E+00 -0.00000000000E+00 -0.45593999997E+02  0.45594000000E+02  0.51100000000E-03 0. -1.
         23    2    1    2    0    0  0.00000000000E+00  0.00000000000E+00  0.00000000000E+00  0.91188000000E+02  0.91188000000E+02 0.  0.
    9900012    2    3    3    0    0 -0.12678379924E+02  0.15316132666E+02  0.30991201928E+02  0.54367084283E+02  0.40000000239E+02 0.  0.
         12    1    3    3    0    0  0.12678379924E+02 -0.15316132666E+02 -0.30991201928E+02  0.36820915717E+02  0.00000000000E+00 0. -1.
         11    1    4    4    0    0 -0.10600750141E+02  0.70494142254E+01  0.33172670967E+02  0.35531623152E+02  0.51100000000E-03 0. -1.
        -11    1    4    4    0    0 -0.11611561271E+01  0.98963605859E+01  0.51870015542E+01  0.11233486626E+02  0.51100000000E-03 0.  1.
         12    1    4    4    0    0 -0.91647365556E+00 -0.16296421450E+01 -0.73684705934E+01  0.76019745045E+01  0.00000000000E+00 0. -1.
</event>
<event>
 8    1  0.2460897E-006  0.9118800E+02  0.7816164E-02  0.1184000E+00
        -11   -1    0    0    0    0  0.00000000000E+00  0.00000000000E+00  0.45593999997E+02  0.45594000000E+02  0.51100000000E-03 0.  1.
         11   -1    0    0    0    0 -0.00000000000E+00 -0.00000000000E+00 -0.45593999997E+02  0.45594000000E+02  0.51100000000E-03 0. -1.
         23    2    1    2    0    0  0.00000000000E+00  0.00000000000E+00  0.99920072216E-15  0.91188000000E+02  0.91188000000E+02 0.  0.
    9900012    2    3    3    0    0 -0.45096387155E+01  0.36539366882E+02 -0.56452318882E+00  0.54367070355E+02  0.39999968489E+02 0.  0.
        -12    1    3    3    0    0  0.45096387155E+01 -0.36539366882E+02  0.56452318882E+00  0.36820929645E+02  0.00000000000E+00 0.  1.
         11    1    4    4    0    0 -0.27274116694E+01 -0.15932849664E+01  0.40069342349E+01  0.51022400593E+01  0.51100000000E-03 0.  1.
        -11    1    4    4    0    0 -0.50362211292E+01 -0.12886282078E+00  0.74801105806E+01  0.90184357539E+01  0.51100000000E-03 0. -1.
         12    1    4    4    0    0  0.32539940831E+01  0.38261514669E+02 -0.12051568004E+02  0.40246394542E+02  0.00000000000E+00 0. -1.
</event>
<event>
 8    1  0.2460897E-006  0.9118800E+02  0.7816164E-02  0.1184000E+00
        -11   -1    0    0    0    0  0.00000000000E+00  0.00000000000E+00  0.45593999997E+02  0.45594000000E+02  0.51100000000E-03 0.  1.
         11   -1    0    0    0    0 -0.00000000000E+00 -0.00000000000E+00 -0.45593999997E+02  0.45594000000E+02  0.51100000000E-03 0. -1.
         23    2    1    2    0    0  0.00000000000E+00  0.66613381478E-15  0.00000000000E+00  0.91188000000E+02  0.91188000000E+02 0.  0.
    9900012    2    3    3    0    0 -0.36431784990E+02  0.19628737303E+01  0.49649978475E+01  0.54367095143E+02  0.40000024998E+02 0.  0.
         12    1    3    3    0    0  0.36431784990E+02 -0.19628737303E+01 -0.49649978475E+01  0.36820904857E+02  0.00000000000E+00 0. -1.
         11    1    4    4    0    0 -0.32765305764E+01  0.24600522990E+01 -0.98274294134E+01  0.10647341409E+02  0.51100000000E-03 0. -1.
        -11    1    4    4    0    0 -0.93225771365E+01  0.75970948883E+01  0.14111581410E+02  0.18540847482E+02  0.51100000000E-03 0.  1.
         12    1    4    4    0    0 -0.23832677277E+02 -0.80942734570E+01  0.68084585100E+00  0.25178906252E+02  0.00000000000E+00 0. -1.
</event>
<event>
 8    1  0.2460897E-006  0.9118800E+02  0.7816164E-02  0.1184000E+00
        -11   -1    0    0    0    0  0.00000000000E+00  0.00000000000E+00  0.45593999997E+02  0.45594000000E+02  0.51100000000E-03 0. -1.
         11   -1    0    0    0    0 -0.00000000000E+00 -0.00000000000E+00 -0.45593999997E+02  0.45594000000E+02  0.51100000000E-03 0.  1.
         23    2    1    2    0    0  0.35527136788E-14 -0.88817841970E-15  0.00000000000E+00  0.91188000000E+02  0.91188000000E+02 0.  0.
    9900012    2    3    3    0    0  0.30772716848E+02 -0.42422700356E+01 -0.19769247616E+02  0.54367080558E+02  0.39999991748E+02 0.  0.
         12    1    3    3    0    0 -0.30772716848E+02  0.42422700356E+01  0.19769247616E+02  0.36820919442E+02  0.00000000000E+00 0. -1.
         11    1    4    4    0    0  0.14133182658E+02  0.44560555485E+01 -0.40480865371E+01  0.15361975393E+02  0.51100000000E-03 0. -1.
        -11    1    4    4    0    0  0.18062438619E+02  0.14600753296E+01  0.23024254062E+01  0.18267037851E+02  0.51100000000E-03 0.  1.
         12    1    4    4    0    0 -0.14229044289E+01 -0.10158400914E+02 -0.18023586485E+02  0.20738067314E+02  0.00000000000E+00 0. -1.
</event>
<event>
 8    1  0.2460897E-006  0.9118800E+02  0.7816164E-02  0.1184000E+00
        -11   -1    0    0    0    0  0.00000000000E+00  0.00000000000E+00  0.45593999997E+02  0.45594000000E+02  0.51100000000E-03 0.  1.
         11   -1    0    0    0    0 -0.00000000000E+00 -0.00000000000E+00 -0.45593999997E+02  0.45594000000E+02  0.51100000000E-03 0. -1.
         23    2    1    2    0    0  0.17763568394E-14 -0.88817841970E-15  0.00000000000E+00  0.91188000000E+02  0.91188000000E+02 0.  0.
    9900012    2    3    3    0    0  0.14946474836E+02 -0.40409733367E+01 -0.33407344881E+02  0.54367119137E+02  0.40000079696E+02 0.  0.
        -12    1    3    3    0    0 -0.14946474836E+02  0.40409733367E+01  0.33407344881E+02  0.36820880863E+02  0.00000000000E+00 0.  1.
         11    1    4    4    0    0 -0.65316753949E+01  0.24297129261E+01 -0.14993708858E+02  0.16534134206E+02  0.51100000000E-03 0. -1.
        -11    1    4    4    0    0  0.76238610562E+01  0.79266035460E+01 -0.51832173749E+00  0.11010129830E+02  0.51100000000E-03 0.  1.
        -12    1    4    4    0    0  0.13854289175E+02 -0.14397289809E+02 -0.17895314286E+02  0.26822855101E+02  0.00000000000E+00 0.  1.
</event>
<event>
 8    1  0.2460897E-006  0.9118800E+02  0.7816164E-02  0.1184000E+00
        -11   -1    0    0    0    0  0.00000000000E+00  0.00000000000E+00  0.45593999997E+02  0.45594000000E+02  0.51100000000E-03 0. -1.
         11   -1    0    0    0    0 -0.00000000000E+00 -0.00000000000E+00 -0.45593999997E+02  0.45594000000E+02  0.51100000000E-03 0.  1.
         23    2    1    2    0    0  0.00000000000E+00 -0.88817841970E-15  0.00000000000E+00  0.91188000000E+02  0.91188000000E+02 0.  0.
    9900012    2    3    3    0    0  0.21837698847E+02  0.62958885611E+01  0.28969976640E+02  0.54367043328E+02  0.39999906875E+02 0.  0.
        -12    1    3    3    0    0 -0.21837698847E+02 -0.62958885611E+01 -0.28969976640E+02  0.36820956672E+02  0.00000000000E+00 0.  1.
         11    1    4    4    0    0  0.13317194947E+00 -0.38107668127E+00  0.69182417030E+01  0.69300088548E+01  0.51100000000E-03 0. -1.
        -11    1    4    4    0    0  0.29945374638E+02  0.81863953477E+00  0.97283654117E+01  0.31496614528E+02  0.51100000000E-03 0.  1.
        -12    1    4    4    0    0 -0.82408477404E+01  0.58583257076E+01  0.12323369525E+02  0.15940419945E+02  0.00000000000E+00 0.  1.
</event>
<event>
 8    1  0.2460897E-006  0.9118800E+02  0.7816164E-02  0.1184000E+00
        -11   -1    0    0    0    0  0.00000000000E+00  0.00000000000E+00  0.45593999997E+02  0.45594000000E+02  0.51100000000E-03 0.  1.
         11   -1    0    0    0    0 -0.00000000000E+00 -0.00000000000E+00 -0.45593999997E+02  0.45594000000E+02  0.51100000000E-03 0. -1.
         23    2    1    2    0    0  0.44408920985E-15  0.35527136788E-14 -0.35527136788E-14  0.91188000000E+02  0.91188000000E+02 0.  0.
    9900012    2    3    3    0    0  0.13409041281E+01 -0.27327369347E+02  0.24641387902E+02  0.54367066592E+02  0.39999959910E+02 0.  0.
         12    1    3    3    0    0 -0.13409041281E+01  0.27327369347E+02 -0.24641387902E+02  0.36820933408E+02  0.00000000000E+00 0. -1.
         11    1    4    4    0    0  0.16196622098E+02 -0.15622968795E+02  0.76105479668E+00  0.22516370179E+02  0.51100000000E-03 0. -1.
        -11    1    4    4    0    0 -0.10194442318E+01  0.19037534525E+00  0.67301754346E+01  0.68096087226E+01  0.51100000000E-03 0.  1.
         12    1    4    4    0    0 -0.13836273738E+02 -0.11894775897E+02  0.17150157671E+02  0.25041087690E+02  0.00000000000E+00 0. -1.
</event>
<event>
 8    1  0.2460897E-006  0.9118800E+02  0.7816164E-02  0.1184000E+00
        -11   -1    0    0    0    0  0.00000000000E+00  0.00000000000E+00  0.45593999997E+02  0.45594000000E+02  0.51100000000E-03 0.  1.
         11   -1    0    0    0    0 -0.00000000000E+00 -0.00000000000E+00 -0.45593999997E+02  0.45594000000E+02  0.51100000000E-03 0. -1.
         23    2    1    2    0    0  0.00000000000E+00  0.00000000000E+00  0.00000000000E+00  0.91188000000E+02  0.91188000000E+02 0.  0.
    9900012    2    3    3    0    0 -0.28961135968E+02 -0.21518580461E+02  0.73472618497E+01  0.54367096178E+02  0.40000027356E+02 0.  0.
         12    1    3    3    0    0  0.28961135968E+02  0.21518580461E+02 -0.73472618497E+01  0.36820903822E+02  0.00000000000E+00 0. -1.
         11    1    4    4    0    0  0.26860482089E+01  0.13144078296E+01 -0.74688249959E+01  0.80452389650E+01  0.51100000000E-03 0. -1.
        -11    1    4    4    0    0 -0.18486193272E+02 -0.94678138418E+01  0.17769040427E+02  0.27333452738E+02  0.51100000000E-03 0.  1.
        -12    1    4    4    0    0 -0.13160990905E+02 -0.13365174449E+02 -0.29529535812E+01  0.18988404475E+02  0.00000000000E+00 0.  1.
</event>
<event>
 8    1  0.2460897E-006  0.9118800E+02  0.7816164E-02  0.1184000E+00
        -11   -1    0    0    0    0  0.00000000000E+00  0.00000000000E+00  0.45593999997E+02  0.45594000000E+02  0.51100000000E-03 0. -1.
         11   -1    0    0    0    0 -0.00000000000E+00 -0.00000000000E+00 -0.45593999997E+02  0.45594000000E+02  0.51100000000E-03 0.  1.
         23    2    1    2    0    0  0.17763568394E-14  0.00000000000E+00 -0.17763568394E-14  0.91188000000E+02  0.91188000000E+02 0.  0.
    9900012    2    3    3    0    0 -0.11561812657E+02  0.32648310925E+02 -0.12497672396E+02  0.54367088367E+02  0.40000009551E+02 0.  0.
         12    1    3    3    0    0  0.11561812657E+02 -0.32648310925E+02  0.12497672396E+02  0.36820911633E+02  0.00000000000E+00 0. -1.
         11    1    4    4    0    0  0.30528217957E+00  0.18263974646E+02  0.94433923971E+01  0.20563161900E+02  0.51100000000E-03 0. -1.
        -11    1    4    4    0    0 -0.16550709452E+02  0.12011580317E+02 -0.17920726380E+02  0.27191110300E+02  0.51100000000E-03 0.  1.
        -12    1    4    4    0    0  0.46836146157E+01  0.23727559617E+01 -0.40203384123E+01  0.66128161679E+01  0.00000000000E+00 0.  1.
</event>
<event>
 8    1  0.2460897E-006  0.9118800E+02  0.7816164E-02  0.1184000E+00
        -11   -1    0    0    0    0  0.00000000000E+00  0.00000000000E+00  0.45593999997E+02  0.45594000000E+02  0.51100000000E-03 0.  1.
         11   -1    0    0    0    0 -0.00000000000E+00 -0.00000000000E+00 -0.45593999997E+02  0.45594000000E+02  0.51100000000E-03 0. -1.
         23    2    1    2    0    0  0.00000000000E+00 -0.17763568394E-14  0.00000000000E+00  0.91188000000E+02  0.91188000000E+02 0.  0.
    9900012    2    3    3    0    0 -0.13606066055E+02  0.78269102669E+01  0.33307582352E+02  0.54367073885E+02  0.39999976535E+02 0.  0.
         12    1    3    3    0    0  0.13606066055E+02 -0.78269102669E+01 -0.33307582352E+02  0.36820926115E+02  0.00000000000E+00 0. -1.
         11    1    4    4    0    0  0.28722549696E+01 -0.37775457698E+01  0.12579380947E+01  0.49093898974E+01  0.51100000000E-03 0. -1.
        -11    1    4    4    0    0 -0.12692222398E+02  0.14880974526E+02  0.37353240214E+02  0.42163971196E+02  0.51100000000E-03 0.  1.
        -12    1    4    4    0    0 -0.37860986265E+01 -0.32765184889E+01 -0.53035959565E+01  0.72937127917E+01  0.00000000000E+00 0.  1.
</event>
<event>
 8    1  0.2460897E-006  0.9118800E+02  0.7816164E-02  0.1184000E+00
        -11   -1    0    0    0    0  0.00000000000E+00  0.00000000000E+00  0.45593999997E+02  0.45594000000E+02  0.51100000000E-03 0. -1.
         11   -1    0    0    0    0 -0.00000000000E+00 -0.00000000000E+00 -0.45593999997E+02  0.45594000000E+02  0.51100000000E-03 0.  1.
         23    2    1    2    0    0  0.88817841970E-15  0.00000000000E+00 -0.17763568394E-14  0.91188000000E+02  0.91188000000E+02 0.  0.
    9900012    2    3    3    0    0  0.32967093197E+00  0.35015438564E+02 -0.11383850860E+02  0.54367059203E+02  0.39999943065E+02 0.  0.
        -12    1    3    3    0    0 -0.32967093197E+00 -0.35015438564E+02  0.11383850860E+02  0.36820940797E+02  0.00000000000E+00 0.  1.
         11    1    4    4    0    0 -0.67002848212E+01  0.30113912402E+01 -0.70289560783E+00  0.73794550194E+01  0.51100000000E-03 0. -1.
        -11    1    4    4    0    0  0.18617005930E+02  0.16070119259E+02 -0.11751721808E+02  0.27257010264E+02  0.51100000000E-03 0.  1.
        -12    1    4    4    0    0 -0.11587050177E+02  0.15933928065E+02  0.10707665558E+01  0.19730593919E+02  0.00000000000E+00 0.  1.
</event>
<event>
 8    1  0.2460897E-006  0.9118800E+02  0.7816164E-02  0.1184000E+00
        -11   -1    0    0    0    0  0.00000000000E+00  0.00000000000E+00  0.45593999997E+02  0.45594000000E+02  0.51100000000E-03 0.  1.
         11   -1    0    0    0    0 -0.00000000000E+00 -0.00000000000E+00 -0.45593999997E+02  0.45594000000E+02  0.51100000000E-03 0. -1.
         23    2    1    2    0    0 -0.88817841970E-15  0.00000000000E+00  0.00000000000E+00  0.91188000000E+02  0.91188000000E+02 0.  0.
    9900012    2    3    3    0    0 -0.23301997388E+01 -0.27075411203E+02 -0.24844995430E+02  0.54367061384E+02  0.39999948037E+02 0.  0.
        -12    1    3    3    0    0  0.23301997388E+01  0.27075411203E+02  0.24844995430E+02  0.36820938616E+02  0.00000000000E+00 0.  1.
         11    1    4    4    0    0 -0.14251507165E+02 -0.51287034957E+01 -0.21828623657E+02  0.26568738529E+02  0.51100000000E-03 0. -1.
        -11    1    4    4    0    0 -0.23399805356E+00 -0.11541309073E+02 -0.16100640852E+00  0.11544803746E+02  0.51100000000E-03 0.  1.
         12    1    4    4    0    0  0.12155305480E+02 -0.10405398635E+02 -0.28553653642E+01  0.16253519109E+02  0.00000000000E+00 0. -1.
</event>
<event>
 8    1  0.2460897E-006  0.9118800E+02  0.7816164E-02  0.1184000E+00
        -11   -1    0    0    0    0  0.00000000000E+00  0.00000000000E+00  0.45593999997E+02  0.45594000000E+02  0.51100000000E-03 0.  1.
         11   -1    0    0    0    0 -0.00000000000E+00 -0.00000000000E+00 -0.45593999997E+02  0.45594000000E+02  0.51100000000E-03 0. -1.
         23    2    1    2    0    0  0.00000000000E+00  0.00000000000E+00  0.35527136788E-14  0.91188000000E+02  0.91188000000E+02 0.  0.
    9900012    2    3    3    0    0  0.17350786860E+02  0.82915016074E+01  0.31400338694E+02  0.54367081032E+02  0.39999992828E+02 0.  0.
         12    1    3    3    0    0 -0.17350786860E+02 -0.82915016074E+01 -0.31400338694E+02  0.36820918968E+02  0.00000000000E+00 0. -1.
         11    1    4    4    0    0  0.58066117623E+01  0.43152856528E+01  0.26174649218E+02  0.27156043386E+02  0.51100000000E-03 0.  1.
        -11    1    4    4    0    0  0.22144799183E+00  0.60994193711E+01  0.12272624304E+02  0.13706540900E+02  0.51100000000E-03 0. -1.
         12    1    4    4    0    0  0.11322727106E+02 -0.21232034164E+01 -0.70469348283E+01  0.13504496745E+02  0.00000000000E+00 0. -1.
</event>
<event>
 8    1  0.2460897E-006  0.9118800E+02  0.7816164E-02  0.1184000E+00
        -11   -1    0    0    0    0  0.00000000000E+00  0.00000000000E+00  0.45593999997E+02  0.45594000000E+02  0.51100000000E-03 0.  1.
         11   -1    0    0    0    0 -0.00000000000E+00 -0.00000000000E+00 -0.45593999997E+02  0.45594000000E+02  0.51100000000E-03 0. -1.
         23    2    1    2    0    0  0.71054273576E-14 -0.17763568394E-14 -0.10658141036E-13  0.91188000000E+02  0.91188000000E+02 0.  0.
    9900012    2    3    3    0    0  0.19049491057E+02 -0.15953836423E+02 -0.27173041407E+02  0.54367052356E+02  0.39999927456E+02 0.  0.
        -12    1    3    3    0    0 -0.19049491057E+02  0.15953836423E+02  0.27173041407E+02  0.36820947644E+02  0.00000000000E+00 0.  1.
         11    1    4    4    0    0 -0.16883949232E+01 -0.14559576285E+01  0.67782459038E+01  0.71354823121E+01  0.51100000000E-03 0. -1.
        -11    1    4    4    0    0  0.15476815192E+01  0.20705417093E+01  0.19799916112E+01  0.32561984117E+01  0.51100000000E-03 0.  1.
         12    1    4    4    0    0  0.19190204461E+02 -0.16568420504E+02 -0.35931278922E+02  0.43975371632E+02  0.00000000000E+00 0. -1.
</event>
<event>
 8    1  0.2460897E-006  0.9118800E+02  0.7816164E-02  0.1184000E+00
        -11   -1    0    0    0    0  0.00000000000E+00  0.00000000000E+00  0.45593999997E+02  0.45594000000E+02  0.51100000000E-03 0. -1.
         11   -1    0    0    0    0 -0.00000000000E+00 -0.00000000000E+00 -0.45593999997E+02  0.45594000000E+02  0.51100000000E-03 0.  1.
         23    2    1    2    0    0  0.35527136788E-14  0.00000000000E+00  0.00000000000E+00  0.91188000000E+02  0.91188000000E+02 0.  0.
    9900012    2    3    3    0    0  0.18883198249E+02  0.19645955212E+02 -0.24763727238E+02  0.54367069553E+02  0.39999966659E+02 0.  0.
         12    1    3    3    0    0 -0.18883198249E+02 -0.19645955212E+02  0.24763727238E+02  0.36820930447E+02  0.00000000000E+00 0. -1.
         11    1    4    4    0    0  0.20499057446E+01  0.43923973594E+01  0.87556727270E+01  0.10007850583E+02  0.51100000000E-03 0. -1.
        -11    1    4    4    0    0 -0.11218439732E+01  0.80427696801E+01 -0.39714109042E+01  0.90397335612E+01  0.51100000000E-03 0.  1.
        -12    1    4    4    0    0  0.17955136478E+02  0.72107881724E+01 -0.29547989060E+02  0.35319485409E+02  0.00000000000E+00 0.  1.
</event>
<event>
 8    1  0.2460897E-006  0.9118800E+02  0.7816164E-02  0.1184000E+00
        -11   -1    0    0    0    0  0.00000000000E+00  0.00000000000E+00  0.45593999997E+02  0.45594000000E+02  0.51100000000E-03 0. -1.
         11   -1    0    0    0    0 -0.00000000000E+00 -0.00000000000E+00 -0.45593999997E+02  0.45594000000E+02  0.51100000000E-03 0.  1.
         23    2    1    2    0    0  0.00000000000E+00 -0.17763568394E-14  0.00000000000E+00  0.91188000000E+02  0.91188000000E+02 0.  0.
    9900012    2    3    3    0    0  0.30031345879E+02  0.38989690617E+01  0.20945067493E+02  0.54367088179E+02  0.40000009121E+02 0.  0.
        -12    1    3    3    0    0 -0.30031345879E+02 -0.38989690617E+01 -0.20945067493E+02  0.36820911821E+02  0.00000000000E+00 0.  1.
         11    1    4    4    0    0  0.12214200979E+02  0.10712336642E+02  0.90293428017E+01  0.18586820427E+02  0.51100000000E-03 0. -1.
        -11    1    4    4    0    0  0.13720516475E+02  0.81117524883E+01 -0.48738152953E+00  0.15946493087E+02  0.51100000000E-03 0.  1.
         12    1    4    4    0    0  0.40966284256E+01 -0.14925120068E+02  0.12403106221E+02  0.19833774664E+02  0.00000000000E+00 0. -1.
</event>
<event>
 8    1  0.2460897E-006  0.9118800E+02  0.7816164E-02  0.1184000E+00
        -11   -1    0    0    0    0  0.00000000000E+00  0.00000000000E+00  0.45593999997E+02  0.45594000000E+02  0.51100000000E-03 0.  1.
         11   -1    0    0    0    0 -0.00000000000E+00 -0.00000000000E+00 -0.45593999997E+02  0.45594000000E+02  0.51100000000E-03 0. -1.
         23    2    1    2    0    0  0.88817841970E-15  0.44408920985E-15  0.00000000000E+00  0.91188000000E+02  0.91188000000E+02 0.  0.
    9900012    2    3    3    0    0  0.50718281396E+00  0.39343217627E+01  0.36606594190E+02  0.54367097508E+02  0.40000030389E+02 0.  0.
         12    1    3    3    0    0 -0.50718281396E+00 -0.39343217627E+01 -0.36606594190E+02  0.36820902492E+02  0.00000000000E+00 0. -1.
         11    1    4    4    0    0 -0.12063808326E+02 -0.52550634738E+01  0.20078018363E+02  0.24005790657E+02  0.51100000000E-03 0. -1.
        -11    1    4    4    0    0  0.61015898065E+01  0.10680184303E+02  0.19525836212E+02  0.23077131862E+02  0.51100000000E-03 0.  1.
         12    1    4    4    0    0  0.64694013331E+01 -0.14907990669E+01 -0.29972603847E+01  0.72841749896E+01  0.00000000000E+00 0. -1.
</event>
<event>
 8    1  0.2460897E-006  0.9118800E+02  0.7816164E-02  0.1184000E+00
        -11   -1    0    0    0    0  0.00000000000E+00  0.00000000000E+00  0.45593999997E+02  0.45594000000E+02  0.51100000000E-03 0.  1.
         11   -1    0    0    0    0 -0.00000000000E+00 -0.00000000000E+00 -0.45593999997E+02  0.45594000000E+02  0.51100000000E-03 0. -1.
         23    2    1    2    0    0  0.00000000000E+00  0.35527136788E-14  0.00000000000E+00  0.91188000000E+02  0.91188000000E+02 0.  0.
    9900012    2    3    3    0    0 -0.12348069053E+02  0.30201010876E+02 -0.17064697958E+02  0.54367084970E+02  0.40000001806E+02 0.  0.
        -12    1    3    3    0    0  0.12348069053E+02 -0.30201010876E+02  0.17064697958E+02  0.36820915030E+02  0.00000000000E+00 0.  1.
         11    1    4    4    0    0 -0.81044800371E+01  0.11910893059E+02 -0.70754715753E+01  0.16050366613E+02  0.51100000000E-03 0. -1.
        -11    1    4    4    0    0 -0.31001292794E+01  0.23157038198E+02 -0.17572020194E+02  0.29234142943E+02  0.51100000000E-03 0.  1.
         12    1    4    4    0    0 -0.11434597362E+01 -0.48669203808E+01  0.75827938119E+01  0.90825754142E+01  0.00000000000E+00 0. -1.
</event>
<event>
 8    1  0.2460897E-006  0.9118800E+02  0.7816164E-02  0.1184000E+00
        -11   -1    0    0    0    0  0.00000000000E+00  0.00000000000E+00  0.45593999997E+02  0.45594000000E+02  0.51100000000E-03 0. -1.
         11   -1    0    0    0    0 -0.00000000000E+00 -0.00000000000E+00 -0.45593999997E+02  0.45594000000E+02  0.51100000000E-03 0.  1.
         23    2    1    2    0    0 -0.17763568394E-14  0.00000000000E+00  0.00000000000E+00  0.91188000000E+02  0.91188000000E+02 0.  0.
    9900012    2    3    3    0    0 -0.85490723257E+01 -0.32798046192E+02 -0.14386835371E+02  0.54367088773E+02  0.40000010475E+02 0.  0.
         12    1    3    3    0    0  0.85490723257E+01  0.32798046192E+02  0.14386835371E+02  0.36820911227E+02  0.00000000000E+00 0. -1.
         11    1    4    4    0    0 -0.14677562221E+02 -0.17190493903E+01 -0.33957467287E+01  0.15163016180E+02  0.51100000000E-03 0. -1.
        -11    1    4    4    0    0 -0.33792002719E+01 -0.24433568631E+02 -0.12241888608E+02  0.27536922622E+02  0.51100000000E-03 0.  1.
         12    1    4    4    0    0  0.95076901674E+01 -0.66454281706E+01  0.12507999659E+01  0.11667149971E+02  0.00000000000E+00 0. -1.
</event>
<event>
 8    1  0.2460897E-006  0.9118800E+02  0.7816164E-02  0.1184000E+00
        -11   -1    0    0    0    0  0.00000000000E+00  0.00000000000E+00  0.45593999997E+02  0.45594000000E+02  0.51100000000E-03 0. -1.
         11   -1    0    0    0    0 -0.00000000000E+00 -0.00000000000E+00 -0.45593999997E+02  0.45594000000E+02  0.51100000000E-03 0.  1.
         23    2    1    2    0    0  0.00000000000E+00  0.17763568394E-14  0.00000000000E+00  0.91188000000E+02  0.91188000000E+02 0.  0.
    9900012    2    3    3    0    0 -0.33123251939E+02  0.13633703714E+02 -0.85295065728E+01  0.54367079610E+02  0.39999989588E+02 0.  0.
         12    1    3    3    0    0  0.33123251939E+02 -0.13633703714E+02  0.85295065728E+01  0.36820920390E+02  0.00000000000E+00 0. -1.
         11    1    4    4    0    0  0.17778168460E+01  0.78320371966E+01  0.51923419619E+01  0.95635691401E+01  0.51100000000E-03 0. -1.
        -11    1    4    4    0    0 -0.32892602806E+02 -0.33205296688E+01 -0.12667130466E+02  0.35403466372E+02  0.51100000000E-03 0.  1.
        -12    1    4    4    0    0 -0.20084659790E+01  0.91221961865E+01 -0.10547180683E+01  0.94000440987E+01  0.00000000000E+00 0.  1.
</event>
<event>
 8    1  0.2460897E-006  0.9118800E+02  0.7816164E-02  0.1184000E+00
        -11   -1    0    0    0    0  0.00000000000E+00  0.00000000000E+00  0.45593999997E+02  0.45594000000E+02  0.51100000000E-03 0.  1.
         11   -1    0    0    0    0 -0.00000000000E+00 -0.00000000000E+00 -0.45593999997E+02  0.45594000000E+02  0.51100000000E-03 0. -1.
         23    2    1    2    0    0 -0.88817841970E-15  0.44408920985E-15  0.71054273576E-14  0.91188000000E+02  0.91188000000E+02 0.  0.
    9900012    2    3    3    0    0  0.48925668713E+01  0.29984200269E+01  0.36371028510E+02  0.54367089526E+02  0.40000012193E+02 0.  0.
         12    1    3    3    0    0 -0.48925668713E+01 -0.29984200269E+01 -0.36371028510E+02  0.36820910474E+02  0.00000000000E+00 0. -1.
         11    1    4    4    0    0  0.58804286580E+01 -0.90111539695E+01  0.12054053825E+02  0.16157987218E+02  0.51100000000E-03 0. -1.
        -11    1    4    4    0    0  0.96651067315E+01  0.14396895438E+02  0.19997206709E+02  0.26468342653E+02  0.51100000000E-03 0.  1.
         12    1    4    4    0    0 -0.10652968518E+02 -0.23873214413E+01  0.43197679764E+01  0.11740759655E+02  0.00000000000E+00 0. -1.
</event>
<event>
 8    1  0.2460897E-006  0.9118800E+02  0.7816164E-02  0.1184000E+00
        -11   -1    0    0    0    0  0.00000000000E+00  0.00000000000E+00  0.45593999997E+02  0.45594000000E+02  0.51100000000E-03 0.  1.
         11   -1    0    0    0    0 -0.00000000000E+00 -0.00000000000E+00 -0.45593999997E+02  0.45594000000E+02  0.51100000000E-03 0. -1.
         23    2    1    2    0    0  0.00000000000E+00  0.00000000000E+00  0.88817841970E-15  0.91188000000E+02  0.91188000000E+02 0.  0.
    9900012    2    3    3    0    0  0.86120044552E+01  0.35327274620E+02  0.57961872407E+01  0.54367099151E+02  0.40000034135E+02 0.  0.
        -12    1    3    3    0    0 -0.86120044552E+01 -0.35327274620E+02 -0.57961872407E+01  0.36820900849E+02  0.00000000000E+00 0.  1.
         11    1    4    4    0    0  0.19733190688E+02  0.14776957446E+02  0.17330105759E+01  0.24713571413E+02  0.51100000000E-03 0. -1.
        -11    1    4    4    0    0  0.14540086257E+01 -0.26704508975E+00 -0.38127583705E+01  0.40893252275E+01  0.51100000000E-03 0.  1.
         12    1    4    4    0    0 -0.12575194858E+02  0.20817362263E+02  0.78759350353E+01  0.25564202510E+02  0.00000000000E+00 0. -1.
</event>
<event>
 8    1  0.2460897E-006  0.9118800E+02  0.7816164E-02  0.1184000E+00
        -11   -1    0    0    0    0  0.00000000000E+00  0.00000000000E+00  0.45593999997E+02  0.45594000000E+02  0.51100000000E-03 0.  1.
         11   -1    0    0    0    0 -0.00000000000E+00 -0.00000000000E+00 -0.45593999997E+02  0.45594000000E+02  0.51100000000E-03 0. -1.
         23    2    1    2    0    0  0.71054273576E-14 -0.22204460493E-15  0.35527136788E-14  0.91188000000E+02  0.91188000000E+02 0.  0.
    9900012    2    3    3    0    0 -0.28232265720E+02  0.10658448716E+01 -0.23613180010E+02  0.54367093939E+02  0.40000022253E+02 0.  0.
        -12    1    3    3    0    0  0.28232265720E+02 -0.10658448716E+01  0.23613180010E+02  0.36820906061E+02  0.00000000000E+00 0.  1.
         11    1    4    4    0    0  0.92758487930E+00 -0.71267648376E+00 -0.80236450097E+01  0.81084647734E+01  0.51100000000E-03 0. -1.
        -11    1    4    4    0    0 -0.90623010936E+00  0.43600770945E+01 -0.17272597122E+02  0.17837436388E+02  0.51100000000E-03 0.  1.
        -12    1    4    4    0    0 -0.28253620490E+02 -0.25815557392E+01  0.16830621223E+01  0.28421192778E+02  0.00000000000E+00 0.  1.
</event>
<event>
 8    1  0.2460897E-006  0.9118800E+02  0.7816164E-02  0.1184000E+00
        -11   -1    0    0    0    0  0.00000000000E+00  0.00000000000E+00  0.45593999997E+02  0.45594000000E+02  0.51100000000E-03 0. -1.
         11   -1    0    0    0    0 -0.00000000000E+00 -0.00000000000E+00 -0.45593999997E+02  0.45594000000E+02  0.51100000000E-03 0.  1.
         23    2    1    2    0    0  0.44408920985E-15  0.00000000000E+00  0.00000000000E+00  0.91188000000E+02  0.91188000000E+02 0.  0.
    9900012    2    3    3    0    0 -0.21733228397E+01 -0.17223292352E+02  0.32471815870E+02  0.54367028292E+02  0.39999872598E+02 0.  0.
        -12    1    3    3    0    0  0.21733228397E+01  0.17223292352E+02 -0.32471815870E+02  0.36820971708E+02  0.00000000000E+00 0.  1.
         11    1    4    4    0    0 -0.13468930200E+02 -0.14079531368E+02  0.19954805627E+02  0.27889775047E+02  0.51100000000E-03 0. -1.
        -11    1    4    4    0    0  0.17091468550E+01 -0.12562509212E+01  0.15973227944E+02  0.16113452782E+02  0.51100000000E-03 0.  1.
        -12    1    4    4    0    0  0.95864605056E+01 -0.18875100623E+01 -0.34562177004E+01  0.10363800464E+02  0.00000000000E+00 0.  1.
</event>
<event>
 8    1  0.2460897E-006  0.9118800E+02  0.7816164E-02  0.1184000E+00
        -11   -1    0    0    0    0  0.00000000000E+00  0.00000000000E+00  0.45593999997E+02  0.45594000000E+02  0.51100000000E-03 0. -1.
         11   -1    0    0    0    0 -0.00000000000E+00 -0.00000000000E+00 -0.45593999997E+02  0.45594000000E+02  0.51100000000E-03 0.  1.
         23    2    1    2    0    0  0.00000000000E+00 -0.88817841970E-15 -0.35527136788E-14  0.91188000000E+02  0.91188000000E+02 0.  0.
    9900012    2    3    3    0    0  0.34618230247E+02  0.78302968767E+01 -0.98002255740E+01  0.54367084260E+02  0.40000000187E+02 0.  0.
         12    1    3    3    0    0 -0.34618230247E+02 -0.78302968767E+01  0.98002255740E+01  0.36820915740E+02  0.00000000000E+00 0. -1.
         11    1    4    4    0    0  0.54997570943E+01 -0.55188178939E+01  0.85361897204E+01  0.11557301339E+02  0.51100000000E-03 0. -1.
        -11    1    4    4    0    0  0.12134659165E+02  0.17075041292E+02 -0.71494302241E+01  0.22134166824E+02  0.51100000000E-03 0.  1.
         12    1    4    4    0    0  0.16983813988E+02 -0.37259265217E+01 -0.11186985070E+02  0.20675616097E+02  0.00000000000E+00 0. -1.
</event>
<event>
 8    1  0.2460897E-006  0.9118800E+02  0.7816164E-02  0.1184000E+00
        -11   -1    0    0    0    0  0.00000000000E+00  0.00000000000E+00  0.45593999997E+02  0.45594000000E+02  0.51100000000E-03 0.  1.
         11   -1    0    0    0    0 -0.00000000000E+00 -0.00000000000E+00 -0.45593999997E+02  0.45594000000E+02  0.51100000000E-03 0. -1.
         23    2    1    2    0    0  0.15543122345E-14  0.00000000000E+00  0.00000000000E+00  0.91188000000E+02  0.91188000000E+02 0.  0.
    9900012    2    3    3    0    0  0.11778730377E+01  0.77831146010E+01  0.35969752689E+02  0.54366982003E+02  0.39999767072E+02 0.  0.
         12    1    3    3    0    0 -0.11778730377E+01 -0.77831146010E+01 -0.35969752689E+02  0.36821017997E+02  0.00000000000E+00 0. -1.
         11    1    4    4    0    0 -0.71790949563E+01  0.68714156512E+01  0.17011484677E+01  0.10082145794E+02  0.51100000000E-03 0. -1.
        -11    1    4    4    0    0 -0.92890464107E+01  0.38537634150E+01  0.10539930288E+02  0.14568047447E+02  0.51100000000E-03 0.  1.
        -12    1    4    4    0    0  0.17646014405E+02 -0.29420644652E+01  0.23728673934E+02  0.29716788762E+02  0.00000000000E+00 0.  1.
</event>
<event>
 8    1  0.2460897E-006  0.9118800E+02  0.7816164E-02  0.1184000E+00
        -11   -1    0    0    0    0  0.00000000000E+00  0.00000000000E+00  0.45593999997E+02  0.45594000000E+02  0.51100000000E-03 0.  1.
         11   -1    0    0    0    0 -0.00000000000E+00 -0.00000000000E+00 -0.45593999997E+02  0.45594000000E+02  0.51100000000E-03 0. -1.
         23    2    1    2    0    0  0.00000000000E+00  0.17763568394E-14  0.00000000000E+00  0.91188000000E+02  0.91188000000E+02 0.  0.
    9900012    2    3    3    0    0 -0.28975007913E+02 -0.14294420868E+02  0.17660650352E+02  0.54367080370E+02  0.39999991320E+02 0.  0.
        -12    1    3    3    0    0  0.28975007913E+02  0.14294420868E+02 -0.17660650352E+02  0.36820919630E+02  0.00000000000E+00 0.  1.
         11    1    4    4    0    0 -0.19394393096E+01 -0.16436993752E+02 -0.21336026625E+01  0.16687973185E+02  0.51100000000E-03 0. -1.
        -11    1    4    4    0    0 -0.82207422909E+01  0.62709793959E+01  0.40405343611E+00  0.10347417351E+02  0.51100000000E-03 0.  1.
         12    1    4    4    0    0 -0.18814826313E+02 -0.41284065121E+01  0.19390199578E+02  0.27331689834E+02  0.00000000000E+00 0. -1.
</event>
<event>
 8    1  0.2460897E-006  0.9118800E+02  0.7816164E-02  0.1184000E+00
        -11   -1    0    0    0    0  0.00000000000E+00  0.00000000000E+00  0.45593999997E+02  0.45594000000E+02  0.51100000000E-03 0. -1.
         11   -1    0    0    0    0 -0.00000000000E+00 -0.00000000000E+00 -0.45593999997E+02  0.45594000000E+02  0.51100000000E-03 0.  1.
         23    2    1    2    0    0  0.00000000000E+00  0.00000000000E+00 -0.35527136788E-14  0.91188000000E+02  0.91188000000E+02 0.  0.
    9900012    2    3    3    0    0 -0.20689658321E+02  0.23545497749E+02 -0.19321790733E+02  0.54367027406E+02  0.39999870576E+02 0.  0.
         12    1    3    3    0    0  0.20689658321E+02 -0.23545497749E+02  0.19321790733E+02  0.36820972594E+02  0.00000000000E+00 0. -1.
         11    1    4    4    0    0 -0.71962819007E+01  0.26459235193E+01 -0.48926459921E+01  0.90953487855E+01  0.51100000000E-03 0.  1.
        -11    1    4    4    0    0 -0.93967091851E+01  0.24376830864E+02  0.36790724789E+01  0.26383017285E+02  0.51100000000E-03 0. -1.
        -12    1    4    4    0    0 -0.40966672348E+01 -0.34772566349E+01 -0.18108217220E+02  0.18888661335E+02  0.00000000000E+00 0.  1.
</event>
<event>
 8    1  0.2460897E-006  0.9118800E+02  0.7816164E-02  0.1184000E+00
        -11   -1    0    0    0    0  0.00000000000E+00  0.00000000000E+00  0.45593999997E+02  0.45594000000E+02  0.51100000000E-03 0. -1.
         11   -1    0    0    0    0 -0.00000000000E+00 -0.00000000000E+00 -0.45593999997E+02  0.45594000000E+02  0.51100000000E-03 0.  1.
         23    2    1    2    0    0  0.00000000000E+00 -0.88817841970E-15  0.00000000000E+00  0.91188000000E+02  0.91188000000E+02 0.  0.
    9900012    2    3    3    0    0 -0.25338776813E+02  0.71466552449E+01  0.25741995996E+02  0.54367100372E+02  0.40000036918E+02 0.  0.
        -12    1    3    3    0    0  0.25338776813E+02 -0.71466552449E+01 -0.25741995996E+02  0.36820899628E+02  0.00000000000E+00 0.  1.
         11    1    4    4    0    0  0.15443450408E+01  0.65548168539E+01  0.95903531604E+01  0.11718596315E+02  0.51100000000E-03 0. -1.
        -11    1    4    4    0    0 -0.21809336962E+02 -0.10236584946E+02  0.18606798491E+02  0.30440890270E+02  0.51100000000E-03 0.  1.
        -12    1    4    4    0    0 -0.50737848917E+01  0.10828423337E+02 -0.24551556552E+01  0.12207613787E+02  0.00000000000E+00 0.  1.
</event>
<event>
 8    1  0.2460897E-006  0.9118800E+02  0.7816164E-02  0.1184000E+00
        -11   -1    0    0    0    0  0.00000000000E+00  0.00000000000E+00  0.45593999997E+02  0.45594000000E+02  0.51100000000E-03 0. -1.
         11   -1    0    0    0    0 -0.00000000000E+00 -0.00000000000E+00 -0.45593999997E+02  0.45594000000E+02  0.51100000000E-03 0.  1.
         23    2    1    2    0    0  0.71054273576E-14 -0.88817841970E-15  0.17763568394E-14  0.91188000000E+02  0.91188000000E+02 0.  0.
    9900012    2    3    3    0    0  0.34794058724E+02  0.54993590331E+01  0.10719650338E+02  0.54367076931E+02  0.39999983480E+02 0.  0.
        -12    1    3    3    0    0 -0.34794058724E+02 -0.54993590331E+01 -0.10719650338E+02  0.36820923069E+02  0.00000000000E+00 0.  1.
         11    1    4    4    0    0  0.64577622068E+01 -0.10968571467E+02 -0.47527868930E+00  0.12737273760E+02  0.51100000000E-03 0. -1.
        -11    1    4    4    0    0  0.74515284476E+01 -0.44887824798E+01 -0.24658752544E+01  0.90418463484E+01  0.51100000000E-03 0.  1.
         12    1    4    4    0    0  0.20884768070E+02  0.20956712980E+02  0.13660804282E+02  0.32587956823E+02  0.00000000000E+00 0. -1.
</event>
<event>
 8    1  0.2460897E-006  0.9118800E+02  0.7816164E-02  0.1184000E+00
        -11   -1    0    0    0    0  0.00000000000E+00  0.00000000000E+00  0.45593999997E+02  0.45594000000E+02  0.51100000000E-03 0.  1.
         11   -1    0    0    0    0 -0.00000000000E+00 -0.00000000000E+00 -0.45593999997E+02  0.45594000000E+02  0.51100000000E-03 0. -1.
         23    2    1    2    0    0  0.00000000000E+00  0.00000000000E+00  0.00000000000E+00  0.91188000000E+02  0.91188000000E+02 0.  0.
    9900012    2    3    3    0    0 -0.48615816807E+01  0.35580091188E+02 -0.81366507199E+01  0.54367041969E+02  0.39999903777E+02 0.  0.
         12    1    3    3    0    0  0.48615816807E+01 -0.35580091188E+02  0.81366507199E+01  0.36820958031E+02  0.00000000000E+00 0. -1.
         11    1    4    4    0    0  0.13325860781E+01  0.21584030302E+02  0.11076682659E+02  0.24296893808E+02  0.51100000000E-03 0. -1.
        -11    1    4    4    0    0 -0.79822632724E+01  0.16449731708E+02 -0.11057877965E+02  0.21367893335E+02  0.51100000000E-03 0.  1.
         12    1    4    4    0    0  0.17880955136E+01 -0.24536708217E+01 -0.81554554137E+01  0.87022548268E+01  0.00000000000E+00 0. -1.
</event>
<event>
 8    1  0.2460897E-006  0.9118800E+02  0.7816164E-02  0.1184000E+00
        -11   -1    0    0    0    0  0.00000000000E+00  0.00000000000E+00  0.45593999997E+02  0.45594000000E+02  0.51100000000E-03 0.  1.
         11   -1    0    0    0    0 -0.00000000000E+00 -0.00000000000E+00 -0.45593999997E+02  0.45594000000E+02  0.51100000000E-03 0. -1.
         23    2    1    2    0    0  0.99920072216E-15 -0.71054273576E-14  0.00000000000E+00  0.91188000000E+02  0.91188000000E+02 0.  0.
    9900012    2    3    3    0    0  0.29253956657E+00  0.30287005685E+02  0.20937820768E+02  0.54367073460E+02  0.39999975568E+02 0.  0.
         12    1    3    3    0    0 -0.29253956657E+00 -0.30287005685E+02 -0.20937820768E+02  0.36820926540E+02  0.00000000000E+00 0. -1.
         11    1    4    4    0    0 -0.74776935318E+01  0.81117898010E+01  0.18233465421E+02  0.21311412339E+02  0.51100000000E-03 0. -1.
        -11    1    4    4    0    0 -0.27842425236E+01  0.16176418528E+02  0.96781728008E+01  0.19055066304E+02  0.51100000000E-03 0.  1.
         12    1    4    4    0    0  0.10554475622E+02  0.59987973554E+01 -0.69738174544E+01  0.14000594818E+02  0.00000000000E+00 0. -1.
</event>
<event>
 8    1  0.2460897E-006  0.9118800E+02  0.7816164E-02  0.1184000E+00
        -11   -1    0    0    0    0  0.00000000000E+00  0.00000000000E+00  0.45593999997E+02  0.45594000000E+02  0.51100000000E-03 0.  1.
         11   -1    0    0    0    0 -0.00000000000E+00 -0.00000000000E+00 -0.45593999997E+02  0.45594000000E+02  0.51100000000E-03 0. -1.
         23    2    1    2    0    0  0.17763568394E-14  0.35527136788E-14 -0.35527136788E-14  0.91188000000E+02  0.91188000000E+02 0.  0.
    9900012    2    3    3    0    0 -0.15888870678E+02 -0.28105063706E+02  0.17703914243E+02  0.54367090223E+02  0.40000013781E+02 0.  0.
         12    1    3    3    0    0  0.15888870678E+02  0.28105063706E+02 -0.17703914243E+02  0.36820909777E+02  0.00000000000E+00 0. -1.
         11    1    4    4    0    0 -0.49241470987E+01  0.29956550766E+01  0.53898590141E+00  0.57889273662E+01  0.51100000000E-03 0. -1.
        -11    1    4    4    0    0 -0.61571659818E+01 -0.12753793639E+02 -0.86122217067E+01  0.16575292097E+02  0.51100000000E-03 0.  1.
        -12    1    4    4    0    0 -0.48075575974E+01 -0.18346925143E+02  0.25777150048E+02  0.32002870760E+02  0.00000000000E+00 0.  1.
</event>
<event>
 8    1  0.2460897E-006  0.9118800E+02  0.7816164E-02  0.1184000E+00
        -11   -1    0    0    0    0  0.00000000000E+00  0.00000000000E+00  0.45593999997E+02  0.45594000000E+02  0.51100000000E-03 0. -1.
         11   -1    0    0    0    0 -0.00000000000E+00 -0.00000000000E+00 -0.45593999997E+02  0.45594000000E+02  0.51100000000E-03 0.  1.
         23    2    1    2    0    0  0.00000000000E+00  0.00000000000E+00  0.00000000000E+00  0.91188000000E+02  0.91188000000E+02 0.  0.
    9900012    2    3    3    0    0 -0.17642699879E+02  0.84459278352E+01 -0.31195879042E+02  0.54367062679E+02  0.39999950989E+02 0.  0.
         12    1    3    3    0    0  0.17642699879E+02 -0.84459278352E+01  0.31195879042E+02  0.36820937321E+02  0.00000000000E+00 0. -1.
         11    1    4    4    0    0  0.61133568841E+01  0.11371986079E+01 -0.13374923487E+02  0.14749743442E+02  0.51100000000E-03 0. -1.
        -11    1    4    4    0    0 -0.21419736234E+02 -0.56632520748E+01 -0.10186834715E+02  0.24385428563E+02  0.51100000000E-03 0.  1.
         12    1    4    4    0    0 -0.23363205290E+01  0.12971981302E+02 -0.76341208399E+01  0.15231890674E+02  0.00000000000E+00 0. -1.
</event>
<event>
 8    1  0.2460897E-006  0.9118800E+02  0.7816164E-02  0.1184000E+00
        -11   -1    0    0    0    0  0.00000000000E+00  0.00000000000E+00  0.45593999997E+02  0.45594000000E+02  0.51100000000E-03 0.  1.
         11   -1    0    0    0    0 -0.00000000000E+00 -0.00000000000E+00 -0.45593999997E+02  0.45594000000E+02  0.51100000000E-03 0. -1.
         23    2    1    2    0    0  0.00000000000E+00  0.00000000000E+00  0.35527136788E-14  0.91188000000E+02  0.91188000000E+02 0.  0.
    9900012    2    3    3    0    0  0.16029043002E+02 -0.20501891096E+02  0.26048455831E+02  0.54367084622E+02  0.40000001014E+02 0.  0.
         12    1    3    3    0    0 -0.16029043002E+02  0.20501891096E+02 -0.26048455831E+02  0.36820915378E+02  0.00000000000E+00 0. -1.
         11    1    4    4    0    0  0.17075130292E+01 -0.81275520015E+01  0.63094874630E+01  0.10429877017E+02  0.51100000000E-03 0. -1.
        -11    1    4    4    0    0 -0.25675395562E+01 -0.20346232768E+02  0.90181269770E+01  0.22402858337E+02  0.51100000000E-03 0.  1.
        -12    1    4    4    0    0  0.16889069529E+02  0.79718936733E+01  0.10720841391E+02  0.21534349269E+02  0.00000000000E+00 0.  1.
</event>
<event>
 8    1  0.2460897E-006  0.9118800E+02  0.7816164E-02  0.1184000E+00
        -11   -1    0    0    0    0  0.00000000000E+00  0.00000000000E+00  0.45593999997E+02  0.45594000000E+02  0.51100000000E-03 0.  1.
         11   -1    0    0    0    0 -0.00000000000E+00 -0.00000000000E+00 -0.45593999997E+02  0.45594000000E+02  0.51100000000E-03 0. -1.
         23    2    1    2    0    0  0.00000000000E+00  0.00000000000E+00  0.00000000000E+00  0.91188000000E+02  0.91188000000E+02 0.  0.
    9900012    2    3    3    0    0 -0.16444523308E+02 -0.32365169477E+02 -0.61524673629E+01  0.54367090224E+02  0.40000013783E+02 0.  0.
         12    1    3    3    0    0  0.16444523308E+02  0.32365169477E+02  0.61524673629E+01  0.36820909776E+02  0.00000000000E+00 0. -1.
         11    1    4    4    0    0  0.34371718504E+01  0.29271653460E+01  0.46370910028E+01  0.64718668498E+01  0.51100000000E-03 0. -1.
        -11    1    4    4    0    0 -0.94253912465E+01 -0.34744364451E+02 -0.65111869798E+01  0.36584209947E+02  0.51100000000E-03 0.  1.
         12    1    4    4    0    0 -0.10456303912E+02 -0.54797037129E+00 -0.42783713859E+01  0.11311013427E+02  0.00000000000E+00 0. -1.
</event>
<event>
 8    1  0.2460897E-006  0.9118800E+02  0.7816164E-02  0.1184000E+00
        -11   -1    0    0    0    0  0.00000000000E+00  0.00000000000E+00  0.45593999997E+02  0.45594000000E+02  0.51100000000E-03 0. -1.
         11   -1    0    0    0    0 -0.00000000000E+00 -0.00000000000E+00 -0.45593999997E+02  0.45594000000E+02  0.51100000000E-03 0.  1.
         23    2    1    2    0    0 -0.88817841970E-15  0.00000000000E+00  0.00000000000E+00  0.91188000000E+02  0.91188000000E+02 0.  0.
    9900012    2    3    3    0    0  0.23436917297E+01  0.73698066377E+01  0.35999616335E+02  0.54367091306E+02  0.40000016251E+02 0.  0.
        -12    1    3    3    0    0 -0.23436917297E+01 -0.73698066377E+01 -0.35999616335E+02  0.36820908694E+02  0.00000000000E+00 0.  1.
         11    1    4    4    0    0 -0.38664857344E+01  0.80867171258E+01  0.15735522387E+02  0.18109427679E+02  0.51100000000E-03 0. -1.
        -11    1    4    4    0    0  0.86959191878E+01 -0.54525775157E+01  0.26276885657E+02  0.28210358597E+02  0.51100000000E-03 0.  1.
        -12    1    4    4    0    0 -0.24857417237E+01  0.47356670276E+01 -0.60127917092E+01  0.80473050303E+01  0.00000000000E+00 0.  1.
</event>
<event>
 8    1  0.2460897E-006  0.9118800E+02  0.7816164E-02  0.1184000E+00
        -11   -1    0    0    0    0  0.00000000000E+00  0.00000000000E+00  0.45593999997E+02  0.45594000000E+02  0.51100000000E-03 0.  1.
         11   -1    0    0    0    0 -0.00000000000E+00 -0.00000000000E+00 -0.45593999997E+02  0.45594000000E+02  0.51100000000E-03 0. -1.
         23    2    1    2    0    0 -0.88817841970E-15  0.71054273576E-14  0.18821749714E-15  0.91188000000E+02  0.91188000000E+02 0.  0.
    9900012    2    3    3    0    0  0.47414289146E+01 -0.36514370248E+02 -0.14022416197E-02  0.54367076808E+02  0.39999983199E+02 0.  0.
         12    1    3    3    0    0 -0.47414289146E+01  0.36514370248E+02  0.14022416197E-02  0.36820923192E+02  0.00000000000E+00 0. -1.
         11    1    4    4    0    0 -0.13425391185E+01 -0.16901637832E+01  0.12314519082E+02  0.12502257612E+02  0.51100000000E-03 0. -1.
        -11    1    4    4    0    0  0.30661649252E+01 -0.35925161014E+02 -0.88235342347E+01  0.37119716026E+02  0.51100000000E-03 0.  1.
         12    1    4    4    0    0  0.30178031079E+01  0.11009545489E+01 -0.34923870891E+01  0.47451031703E+01  0.00000000000E+00 0. -1.
</event>
<event>
 8    1  0.2460897E-006  0.9118800E+02  0.7816164E-02  0.1184000E+00
        -11   -1    0    0    0    0  0.00000000000E+00  0.00000000000E+00  0.45593999997E+02  0.45594000000E+02  0.51100000000E-03 0. -1.
         11   -1    0    0    0    0 -0.00000000000E+00 -0.00000000000E+00 -0.45593999997E+02  0.45594000000E+02  0.51100000000E-03 0.  1.
         23    2    1    2    0    0  0.00000000000E+00 -0.88817841970E-15  0.00000000000E+00  0.91188000000E+02  0.91188000000E+02 0.  0.
    9900012    2    3    3    0    0  0.23212603726E+02  0.42581266859E+01  0.28263468671E+02  0.54367078285E+02  0.39999986567E+02 0.  0.
        -12    1    3    3    0    0 -0.23212603726E+02 -0.42581266859E+01 -0.28263468671E+02  0.36820921715E+02  0.00000000000E+00 0.  1.
         11    1    4    4    0    0 -0.79249138384E+01  0.22191975783E+01  0.35088953694E+01  0.89465884119E+01  0.51100000000E-03 0.  1.
        -11    1    4    4    0    0  0.20053690529E+02  0.10151837132E+02  0.21919024251E+02  0.31395125822E+02  0.51100000000E-03 0. -1.
        -12    1    4    4    0    0  0.11083827035E+02 -0.81129080246E+01  0.28355490505E+01  0.14025364052E+02  0.00000000000E+00 0.  1.
</event>
<event>
 8    1  0.2460897E-006  0.9118800E+02  0.7816164E-02  0.1184000E+00
        -11   -1    0    0    0    0  0.00000000000E+00  0.00000000000E+00  0.45593999997E+02  0.45594000000E+02  0.51100000000E-03 0.  1.
         11   -1    0    0    0    0 -0.00000000000E+00 -0.00000000000E+00 -0.45593999997E+02  0.45594000000E+02  0.51100000000E-03 0. -1.
         23    2    1    2    0    0  0.00000000000E+00 -0.17763568394E-14  0.35527136788E-14  0.91188000000E+02  0.91188000000E+02 0.  0.
    9900012    2    3    3    0    0 -0.21915171585E+02 -0.15021943142E+02  0.25492228304E+02  0.54366983919E+02  0.39999771439E+02 0.  0.
         12    1    3    3    0    0  0.21915171585E+02  0.15021943142E+02 -0.25492228304E+02  0.36821016081E+02  0.00000000000E+00 0. -1.
         11    1    4    4    0    0  0.91065715509E+01 -0.11131253461E+02  0.66644078734E+01  0.15850829050E+02  0.51100000000E-03 0. -1.
        -11    1    4    4    0    0 -0.15625579231E+02 -0.72618894081E+01  0.13465158505E+02  0.21867881880E+02  0.51100000000E-03 0.  1.
        -12    1    4    4    0    0 -0.15396163905E+02  0.33711997270E+01  0.53626619255E+01  0.16648272989E+02  0.00000000000E+00 0.  1.
</event>
<event>
 8    1  0.2460897E-006  0.9118800E+02  0.7816164E-02  0.1184000E+00
        -11   -1    0    0    0    0  0.00000000000E+00  0.00000000000E+00  0.45593999997E+02  0.45594000000E+02  0.51100000000E-03 0. -1.
         11   -1    0    0    0    0 -0.00000000000E+00 -0.00000000000E+00 -0.45593999997E+02  0.45594000000E+02  0.51100000000E-03 0.  1.
         23    2    1    2    0    0  0.00000000000E+00  0.00000000000E+00 -0.22204460493E-15  0.91188000000E+02  0.91188000000E+02 0.  0.
    9900012    2    3    3    0    0 -0.19721000410E+02  0.31032901413E+02  0.19540709766E+01  0.54367119773E+02  0.40000081146E+02 0.  0.
         12    1    3    3    0    0  0.19721000410E+02 -0.31032901413E+02 -0.19540709766E+01  0.36820880227E+02  0.00000000000E+00 0. -1.
         11    1    4    4    0    0 -0.17925516466E+02  0.12985739867E+02 -0.48693690627E+01  0.22664164132E+02  0.51100000000E-03 0. -1.
        -11    1    4    4    0    0 -0.12171938392E+01  0.56187094867E+01 -0.95449971472E+01  0.11142640079E+02  0.51100000000E-03 0.  1.
         12    1    4    4    0    0 -0.57829010470E+00  0.12428452059E+02  0.16368437186E+02  0.20560315561E+02  0.00000000000E+00 0. -1.
</event>
<event>
 8    1  0.2460897E-006  0.9118800E+02  0.7816164E-02  0.1184000E+00
        -11   -1    0    0    0    0  0.00000000000E+00  0.00000000000E+00  0.45593999997E+02  0.45594000000E+02  0.51100000000E-03 0.  1.
         11   -1    0    0    0    0 -0.00000000000E+00 -0.00000000000E+00 -0.45593999997E+02  0.45594000000E+02  0.51100000000E-03 0. -1.
         23    2    1    2    0    0  0.00000000000E+00  0.00000000000E+00  0.17763568394E-14  0.91188000000E+02  0.91188000000E+02 0.  0.
    9900012    2    3    3    0    0  0.95622735399E+01  0.33400942463E+02  0.12195121128E+02  0.54367068290E+02  0.39999963780E+02 0.  0.
         12    1    3    3    0    0 -0.95622735399E+01 -0.33400942463E+02 -0.12195121128E+02  0.36820931710E+02  0.00000000000E+00 0. -1.
         11    1    4    4    0    0  0.86945371644E+01  0.73904659707E+01  0.29327144055E+01  0.11781968334E+02  0.51100000000E-03 0. -1.
        -11    1    4    4    0    0 -0.22100189498E+01  0.18102677187E+02  0.21183502917E+02  0.27952314774E+02  0.51100000000E-03 0.  1.
         12    1    4    4    0    0  0.30777553254E+01  0.79077993055E+01 -0.11921096195E+02  0.14632785182E+02  0.00000000000E+00 0. -1.
</event>
<event>
 8    1  0.2460897E-006  0.9118800E+02  0.7816164E-02  0.1184000E+00
        -11   -1    0    0    0    0  0.00000000000E+00  0.00000000000E+00  0.45593999997E+02  0.45594000000E+02  0.51100000000E-03 0.  1.
         11   -1    0    0    0    0 -0.00000000000E+00 -0.00000000000E+00 -0.45593999997E+02  0.45594000000E+02  0.51100000000E-03 0. -1.
         23    2    1    2    0    0  0.17763568394E-14 -0.71054273576E-14  0.00000000000E+00  0.91188000000E+02  0.91188000000E+02 0.  0.
    9900012    2    3    3    0    0  0.10788521118E+02  0.27366682170E+02 -0.22146117294E+02  0.54367109298E+02  0.40000057266E+02 0.  0.
        -12    1    3    3    0    0 -0.10788521118E+02 -0.27366682170E+02  0.22146117294E+02  0.36820890702E+02  0.00000000000E+00 0.  1.
         11    1    4    4    0    0 -0.11693444680E+01  0.67826228640E+01  0.84832195296E+00  0.69347667442E+01  0.51100000000E-03 0.  1.
        -11    1    4    4    0    0  0.16941840273E+02  0.25640247753E+02 -0.94703464156E+01  0.32157980629E+02  0.51100000000E-03 0. -1.
         12    1    4    4    0    0 -0.49839746861E+01 -0.50561884474E+01 -0.13524092831E+02  0.15274361924E+02  0.00000000000E+00 0. -1.
</event>
<event>
 8    1  0.2460897E-006  0.9118800E+02  0.7816164E-02  0.1184000E+00
        -11   -1    0    0    0    0  0.00000000000E+00  0.00000000000E+00  0.45593999997E+02  0.45594000000E+02  0.51100000000E-03 0.  1.
         11   -1    0    0    0    0 -0.00000000000E+00 -0.00000000000E+00 -0.45593999997E+02  0.45594000000E+02  0.51100000000E-03 0. -1.
         23    2    1    2    0    0 -0.17763568394E-14  0.35527136788E-14 -0.35527136788E-14  0.91188000000E+02  0.91188000000E+02 0.  0.
    9900012    2    3    3    0    0 -0.10178598584E+02  0.25684650005E+02 -0.24340794539E+02  0.54367090263E+02  0.40000013873E+02 0.  0.
        -12    1    3    3    0    0  0.10178598584E+02 -0.25684650005E+02  0.24340794539E+02  0.36820909737E+02  0.00000000000E+00 0.  1.
         11    1    4    4    0    0 -0.53579551574E+01 -0.23948057842E+01  0.36443979237E+01  0.69082859451E+01  0.51100000000E-03 0. -1.
        -11    1    4    4    0    0 -0.13659267399E+02  0.67877712353E+01 -0.11960342026E+02  0.19382961741E+02  0.51100000000E-03 0.  1.
         12    1    4    4    0    0  0.88386239720E+01  0.21291684554E+02 -0.16024850437E+02  0.28075842577E+02  0.00000000000E+00 0. -1.
</event>
<event>
 8    1  0.2460897E-006  0.9118800E+02  0.7816164E-02  0.1184000E+00
        -11   -1    0    0    0    0  0.00000000000E+00  0.00000000000E+00  0.45593999997E+02  0.45594000000E+02  0.51100000000E-03 0.  1.
         11   -1    0    0    0    0 -0.00000000000E+00 -0.00000000000E+00 -0.45593999997E+02  0.45594000000E+02  0.51100000000E-03 0. -1.
         23    2    1    2    0    0  0.17763568394E-14  0.00000000000E+00  0.00000000000E+00  0.91188000000E+02  0.91188000000E+02 0.  0.
    9900012    2    3    3    0    0  0.87515261742E+01 -0.29280090920E+02 -0.20539430421E+02  0.54367066597E+02  0.39999959921E+02 0.  0.
        -12    1    3    3    0    0 -0.87515261742E+01  0.29280090920E+02  0.20539430421E+02  0.36820933403E+02  0.00000000000E+00 0.  1.
         11    1    4    4    0    0  0.10720213060E+02 -0.49964875463E+01 -0.25713578260E+01  0.12103707580E+02  0.51100000000E-03 0. -1.
        -11    1    4    4    0    0  0.62779824551E+01 -0.24502166928E+02 -0.33992948959E+01  0.25521059028E+02  0.51100000000E-03 0.  1.
        -12    1    4    4    0    0 -0.82466693415E+01  0.21856355404E+00 -0.14568777699E+02  0.16742299989E+02  0.00000000000E+00 0.  1.
</event>
<event>
 8    1  0.2460897E-006  0.9118800E+02  0.7816164E-02  0.1184000E+00
        -11   -1    0    0    0    0  0.00000000000E+00  0.00000000000E+00  0.45593999997E+02  0.45594000000E+02  0.51100000000E-03 0. -1.
         11   -1    0    0    0    0 -0.00000000000E+00 -0.00000000000E+00 -0.45593999997E+02  0.45594000000E+02  0.51100000000E-03 0.  1.
         23    2    1    2    0    0 -0.17763568394E-14  0.88817841970E-15  0.71054273576E-14  0.91188000000E+02  0.91188000000E+02 0.  0.
    9900012    2    3    3    0    0  0.30045561689E+01 -0.41854874755E+01 -0.36458649436E+02  0.54367098574E+02  0.40000032818E+02 0.  0.
         12    1    3    3    0    0 -0.30045561689E+01  0.41854874755E+01  0.36458649436E+02  0.36820901426E+02  0.00000000000E+00 0. -1.
         11    1    4    4    0    0  0.31902717375E+01  0.87540280981E+00 -0.57840254746E+01  0.66632660753E+01  0.51100000000E-03 0. -1.
        -11    1    4    4    0    0 -0.10915216048E+02  0.15766122082E+01  0.32595887002E+01  0.11500111573E+02  0.51100000000E-03 0.  1.
        -12    1    4    4    0    0  0.10729500480E+02 -0.66375024935E+01 -0.33934212661E+02  0.36203720925E+02  0.00000000000E+00 0.  1.
</event>
<event>
 8    1  0.2460897E-006  0.9118800E+02  0.7816164E-02  0.1184000E+00
        -11   -1    0    0    0    0  0.00000000000E+00  0.00000000000E+00  0.45593999997E+02  0.45594000000E+02  0.51100000000E-03 0. -1.
         11   -1    0    0    0    0 -0.00000000000E+00 -0.00000000000E+00 -0.45593999997E+02  0.45594000000E+02  0.51100000000E-03 0.  1.
         23    2    1    2    0    0  0.00000000000E+00  0.00000000000E+00  0.00000000000E+00  0.91188000000E+02  0.91188000000E+02 0.  0.
    9900012    2    3    3    0    0  0.31233659012E+02 -0.13349051173E+02  0.14214096163E+02  0.54367093544E+02  0.40000021353E+02 0.  0.
        -12    1    3    3    0    0 -0.31233659012E+02  0.13349051173E+02 -0.14214096163E+02  0.36820906456E+02  0.00000000000E+00 0.  1.
         11    1    4    4    0    0  0.18045139648E+02 -0.98186719183E-01  0.35574794385E+01  0.18392725893E+02  0.51100000000E-03 0. -1.
        -11    1    4    4    0    0 -0.79470642565E+01 -0.37999076004E+01  0.92589832391E+01  0.12779823901E+02  0.51100000000E-03 0.  1.
        -12    1    4    4    0    0  0.21135583620E+02 -0.94509568532E+01  0.13976334855E+01  0.23194543750E+02  0.00000000000E+00 0.  1.
</event>
<event>
 8    1  0.2460897E-006  0.9118800E+02  0.7816164E-02  0.1184000E+00
        -11   -1    0    0    0    0  0.00000000000E+00  0.00000000000E+00  0.45593999997E+02  0.45594000000E+02  0.51100000000E-03 0. -1.
         11   -1    0    0    0    0 -0.00000000000E+00 -0.00000000000E+00 -0.45593999997E+02  0.45594000000E+02  0.51100000000E-03 0.  1.
         23    2    1    2    0    0  0.00000000000E+00  0.35527136788E-14  0.35527136788E-14  0.91188000000E+02  0.91188000000E+02 0.  0.
    9900012    2    3    3    0    0  0.18787212670E+01  0.20696191975E+02  0.30396021594E+02  0.54367080883E+02  0.39999992489E+02 0.  0.
        -12    1    3    3    0    0 -0.18787212670E+01 -0.20696191975E+02 -0.30396021594E+02  0.36820919117E+02  0.00000000000E+00 0.  1.
         11    1    4    4    0    0 -0.10201644831E+02  0.61058427669E+01  0.63848547676E+01  0.13495230410E+02  0.51100000000E-03 0. -1.
        -11    1    4    4    0    0  0.75113672214E+01  0.20027194893E+02  0.25834277289E+02  0.33539813001E+02  0.51100000000E-03 0.  1.
        -12    1    4    4    0    0  0.45689988769E+01 -0.54368456848E+01 -0.18231104619E+01  0.73320374722E+01  0.00000000000E+00 0.  1.
</event>
<event>
 8    1  0.2460897E-006  0.9118800E+02  0.7816164E-02  0.1184000E+00
        -11   -1    0    0    0    0  0.00000000000E+00  0.00000000000E+00  0.45593999997E+02  0.45594000000E+02  0.51100000000E-03 0. -1.
         11   -1    0    0    0    0 -0.00000000000E+00 -0.00000000000E+00 -0.45593999997E+02  0.45594000000E+02  0.51100000000E-03 0.  1.
         23    2    1    2    0    0  0.00000000000E+00  0.17763568394E-14  0.00000000000E+00  0.91188000000E+02  0.91188000000E+02 0.  0.
    9900012    2    3    3    0    0 -0.52382734239E+01  0.15005252554E+02  0.33214188223E+02  0.54367090017E+02  0.40000013312E+02 0.  0.
        -12    1    3    3    0    0  0.52382734239E+01 -0.15005252554E+02 -0.33214188223E+02  0.36820909983E+02  0.00000000000E+00 0.  1.
         11    1    4    4    0    0 -0.63640354936E+01 -0.74760353540E+01  0.10566210259E+02  0.14423482654E+02  0.51100000000E-03 0. -1.
        -11    1    4    4    0    0 -0.24487654569E+01 -0.44041448648E+01  0.70196110590E+01  0.86410580333E+01  0.51100000000E-03 0.  1.
        -12    1    4    4    0    0  0.35745275266E+01  0.26885432773E+02  0.15628366905E+02  0.31302549329E+02  0.00000000000E+00 0.  1.
</event>
<event>
 8    1  0.2460897E-006  0.9118800E+02  0.7816164E-02  0.1184000E+00
        -11   -1    0    0    0    0  0.00000000000E+00  0.00000000000E+00  0.45593999997E+02  0.45594000000E+02  0.51100000000E-03 0.  1.
         11   -1    0    0    0    0 -0.00000000000E+00 -0.00000000000E+00 -0.45593999997E+02  0.45594000000E+02  0.51100000000E-03 0. -1.
         23    2    1    2    0    0  0.00000000000E+00  0.00000000000E+00  0.00000000000E+00  0.91188000000E+02  0.91188000000E+02 0.  0.
    9900012    2    3    3    0    0  0.14215497083E+02  0.33204548709E+02  0.71528623676E+01  0.54367002562E+02  0.39999813941E+02 0.  0.
         12    1    3    3    0    0 -0.14215497083E+02 -0.33204548709E+02 -0.71528623676E+01  0.36820997438E+02  0.00000000000E+00 0. -1.
         11    1    4    4    0    0 -0.10607447054E+02  0.11243562382E+02  0.13159660016E+01  0.15513458506E+02  0.51100000000E-03 0. -1.
        -11    1    4    4    0    0  0.11554958817E+02  0.17425395448E+02 -0.45572983534E+01  0.21399309530E+02  0.51100000000E-03 0.  1.
        -12    1    4    4    0    0  0.13267985319E+02  0.45355908778E+01  0.10394194719E+02  0.17454234527E+02  0.00000000000E+00 0.  1.
</event>
<event>
 8    1  0.2460897E-006  0.9118800E+02  0.7816164E-02  0.1184000E+00
        -11   -1    0    0    0    0  0.00000000000E+00  0.00000000000E+00  0.45593999997E+02  0.45594000000E+02  0.51100000000E-03 0.  1.
         11   -1    0    0    0    0 -0.00000000000E+00 -0.00000000000E+00 -0.45593999997E+02  0.45594000000E+02  0.51100000000E-03 0. -1.
         23    2    1    2    0    0  0.00000000000E+00  0.60368376964E-15  0.00000000000E+00  0.91188000000E+02  0.91188000000E+02 0.  0.
    9900012    2    3    3    0    0 -0.10763610087E+02  0.38806364994E-01 -0.35212527989E+02  0.54367096488E+02  0.40000028064E+02 0.  0.
        -12    1    3    3    0    0  0.10763610087E+02 -0.38806364994E-01  0.35212527989E+02  0.36820903512E+02  0.00000000000E+00 0.  1.
         11    1    4    4    0    0  0.15146442359E+01 -0.13996596466E+02 -0.24509531780E+02  0.28265102302E+02  0.51100000000E-03 0. -1.
        -11    1    4    4    0    0  0.27664591990E+01  0.32497976842E+01  0.75114255533E+00  0.43334393832E+01  0.51100000000E-03 0.  1.
        -12    1    4    4    0    0 -0.15044713522E+02  0.10785605147E+02 -0.11454138764E+02  0.21768554803E+02  0.00000000000E+00 0.  1.
</event>
<event>
 8    1  0.2460897E-006  0.9118800E+02  0.7816164E-02  0.1184000E+00
        -11   -1    0    0    0    0  0.00000000000E+00  0.00000000000E+00  0.45593999997E+02  0.45594000000E+02  0.51100000000E-03 0.  1.
         11   -1    0    0    0    0 -0.00000000000E+00 -0.00000000000E+00 -0.45593999997E+02  0.45594000000E+02  0.51100000000E-03 0. -1.
         23    2    1    2    0    0 -0.35527136788E-14 -0.17763568394E-14  0.00000000000E+00  0.91188000000E+02  0.91188000000E+02 0.  0.
    9900012    2    3    3    0    0 -0.29769645560E+02  0.10790638672E+02 -0.18791210600E+02  0.54367091869E+02  0.40000017535E+02 0.  0.
         12    1    3    3    0    0  0.29769645560E+02 -0.10790638672E+02  0.18791210600E+02  0.36820908131E+02  0.00000000000E+00 0. -1.
         11    1    4    4    0    0 -0.10531930410E+02  0.13378717232E+01 -0.67664022467E+01  0.12589505889E+02  0.51100000000E-03 0. -1.
        -11    1    4    4    0    0 -0.19185585856E+02  0.15308685380E+02 -0.20153871417E+02  0.31758795413E+02  0.51100000000E-03 0.  1.
         12    1    4    4    0    0 -0.52129293730E-01 -0.58559184307E+01  0.81290630640E+01  0.10018790567E+02  0.00000000000E+00 0. -1.
</event>
<event>
 8    1  0.2460897E-006  0.9118800E+02  0.7816164E-02  0.1184000E+00
        -11   -1    0    0    0    0  0.00000000000E+00  0.00000000000E+00  0.45593999997E+02  0.45594000000E+02  0.51100000000E-03 0.  1.
         11   -1    0    0    0    0 -0.00000000000E+00 -0.00000000000E+00 -0.45593999997E+02  0.45594000000E+02  0.51100000000E-03 0. -1.
         23    2    1    2    0    0  0.17763568394E-14  0.00000000000E+00  0.71054273576E-14  0.91188000000E+02  0.91188000000E+02 0.  0.
    9900012    2    3    3    0    0 -0.15783179600E+02  0.64560986079E+01 -0.32634212840E+02  0.54367057383E+02  0.39999938916E+02 0.  0.
        -12    1    3    3    0    0  0.15783179600E+02 -0.64560986079E+01  0.32634212840E+02  0.36820942617E+02  0.00000000000E+00 0.  1.
         11    1    4    4    0    0  0.34594095326E+01 -0.23134722615E+01 -0.27977107152E+02  0.28284946404E+02  0.51100000000E-03 0. -1.
        -11    1    4    4    0    0 -0.12569356714E+02  0.46023790222E+01 -0.98816926669E+01  0.16637862576E+02  0.51100000000E-03 0.  1.
        -12    1    4    4    0    0 -0.66732324186E+01  0.41671918472E+01  0.52245869791E+01  0.94442484035E+01  0.00000000000E+00 0.  1.
</event>
<event>
 8    1  0.2460897E-006  0.9118800E+02  0.7816164E-02  0.1184000E+00
        -11   -1    0    0    0    0  0.00000000000E+00  0.00000000000E+00  0.45593999997E+02  0.45594000000E+02  0.51100000000E-03 0.  1.
         11   -1    0    0    0    0 -0.00000000000E+00 -0.00000000000E+00 -0.45593999997E+02  0.45594000000E+02  0.51100000000E-03 0. -1.
         23    2    1    2    0    0 -0.22204460493E-15 -0.88817841970E-15 -0.71054273576E-14  0.91188000000E+02  0.91188000000E+02 0.  0.
    9900012    2    3    3    0    0 -0.11340654360E+01  0.56191395269E+01 -0.36371969045E+02  0.54367068919E+02  0.39999965215E+02 0.  0.
        -12    1    3    3    0    0  0.11340654360E+01 -0.56191395269E+01  0.36371969045E+02  0.36820931081E+02  0.00000000000E+00 0.  1.
         11    1    4    4    0    0  0.31129248312E+01  0.86218645049E+01  0.10285331840E+01  0.92241384051E+01  0.51100000000E-03 0. -1.
        -11    1    4    4    0    0 -0.67160497940E+01  0.22448926122E+01  0.21344271520E+00  0.70845201482E+01  0.51100000000E-03 0.  1.
         12    1    4    4    0    0  0.24690595268E+01 -0.52476175902E+01 -0.37613944944E+02  0.38058410366E+02  0.00000000000E+00 0. -1.
</event>
<event>
 8    1  0.2460897E-006  0.9118800E+02  0.7816164E-02  0.1184000E+00
        -11   -1    0    0    0    0  0.00000000000E+00  0.00000000000E+00  0.45593999997E+02  0.45594000000E+02  0.51100000000E-03 0.  1.
         11   -1    0    0    0    0 -0.00000000000E+00 -0.00000000000E+00 -0.45593999997E+02  0.45594000000E+02  0.51100000000E-03 0. -1.
         23    2    1    2    0    0  0.88817841970E-15  0.00000000000E+00  0.00000000000E+00  0.91188000000E+02  0.91188000000E+02 0.  0.
    9900012    2    3    3    0    0 -0.54337780094E+01  0.32836316819E+01  0.36269426167E+02  0.54367089433E+02  0.40000011981E+02 0.  0.
         12    1    3    3    0    0  0.54337780094E+01 -0.32836316819E+01 -0.36269426167E+02  0.36820910567E+02  0.00000000000E+00 0. -1.
         11    1    4    4    0    0 -0.52085301569E+01  0.21300515201E+01 -0.33009161674E+01  0.65239523051E+01  0.51100000000E-03 0. -1.
        -11    1    4    4    0    0  0.10979138358E+02 -0.48527001230E+01  0.28727105785E+02  0.31134173902E+02  0.51100000000E-03 0.  1.
         12    1    4    4    0    0 -0.11204386210E+02  0.60062802848E+01  0.10843236550E+02  0.16708963226E+02  0.00000000000E+00 0. -1.
</event>
<event>
 8    1  0.2460897E-006  0.9118800E+02  0.7816164E-02  0.1184000E+00
        -11   -1    0    0    0    0  0.00000000000E+00  0.00000000000E+00  0.45593999997E+02  0.45594000000E+02  0.51100000000E-03 0.  1.
         11   -1    0    0    0    0 -0.00000000000E+00 -0.00000000000E+00 -0.45593999997E+02  0.45594000000E+02  0.51100000000E-03 0. -1.
         23    2    1    2    0    0  0.00000000000E+00 -0.88817841970E-15  0.35527136788E-14  0.91188000000E+02  0.91188000000E+02 0.  0.
    9900012    2    3    3    0    0 -0.25707105526E+02 -0.10241718883E+01 -0.26341483825E+02  0.54367109561E+02  0.40000057866E+02 0.  0.
        -12    1    3    3    0    0  0.25707105526E+02  0.10241718883E+01  0.26341483825E+02  0.36820890439E+02  0.00000000000E+00 0.  1.
         11    1    4    4    0    0 -0.55560195245E+01 -0.14311623559E+02 -0.17016657269E+02  0.22918519733E+02  0.51100000000E-03 0. -1.
        -11    1    4    4    0    0 -0.48369175995E+01 -0.37172688550E+01 -0.55656370813E+01  0.82577343131E+01  0.51100000000E-03 0.  1.
        -12    1    4    4    0    0 -0.15314168402E+02  0.17004720526E+02 -0.37591894751E+01  0.23190855515E+02  0.00000000000E+00 0.  1.
</event>
<event>
 8    1  0.2460897E-006  0.9118800E+02  0.7816164E-02  0.1184000E+00
        -11   -1    0    0    0    0  0.00000000000E+00  0.00000000000E+00  0.45593999997E+02  0.45594000000E+02  0.51100000000E-03 0. -1.
         11   -1    0    0    0    0 -0.00000000000E+00 -0.00000000000E+00 -0.45593999997E+02  0.45594000000E+02  0.51100000000E-03 0.  1.
         23    2    1    2    0    0  0.00000000000E+00  0.00000000000E+00  0.00000000000E+00  0.91188000000E+02  0.91188000000E+02 0.  0.
    9900012    2    3    3    0    0 -0.21727211454E+02 -0.29299537339E+02 -0.50231498016E+01  0.54367263454E+02  0.40000408694E+02 0.  0.
         12    1    3    3    0    0  0.21727211454E+02  0.29299537339E+02  0.50231498016E+01  0.36820736546E+02  0.00000000000E+00 0. -1.
         11    1    4    4    0    0 -0.44548473336E+01 -0.21000736920E+02 -0.99623047413E+01  0.23666941754E+02  0.51100000000E-03 0. -1.
        -11    1    4    4    0    0 -0.11242833072E+02 -0.15431005524E+02 -0.18094019143E+01  0.19177882118E+02  0.51100000000E-03 0.  1.
         12    1    4    4    0    0 -0.60295310480E+01  0.71322051049E+01  0.67485568540E+01  0.11522439582E+02  0.00000000000E+00 0. -1.
</event>
<event>
 8    1  0.2460897E-006  0.9118800E+02  0.7816164E-02  0.1184000E+00
        -11   -1    0    0    0    0  0.00000000000E+00  0.00000000000E+00  0.45593999997E+02  0.45594000000E+02  0.51100000000E-03 0. -1.
         11   -1    0    0    0    0 -0.00000000000E+00 -0.00000000000E+00 -0.45593999997E+02  0.45594000000E+02  0.51100000000E-03 0.  1.
         23    2    1    2    0    0  0.00000000000E+00  0.00000000000E+00  0.35527136788E-14  0.91188000000E+02  0.91188000000E+02 0.  0.
    9900012    2    3    3    0    0 -0.21620779381E+02 -0.26222996535E+02 -0.14165786511E+02  0.54367174971E+02  0.40000206981E+02 0.  0.
         12    1    3    3    0    0  0.21620779381E+02  0.26222996535E+02  0.14165786511E+02  0.36820825029E+02  0.00000000000E+00 0. -1.
         11    1    4    4    0    0 -0.19099432105E+02 -0.17904479226E+02 -0.10407652337E+02  0.28172289764E+02  0.51100000000E-03 0. -1.
        -11    1    4    4    0    0 -0.65942721162E+01 -0.99764683306E+01  0.74947344381E+01  0.14113305412E+02  0.51100000000E-03 0.  1.
         12    1    4    4    0    0  0.40729248405E+01  0.16579510215E+01 -0.11252868612E+02  0.12081579795E+02  0.00000000000E+00 0. -1.
</event>
<event>
 8    1  0.2460897E-006  0.9118800E+02  0.7816164E-02  0.1184000E+00
        -11   -1    0    0    0    0  0.00000000000E+00  0.00000000000E+00  0.45593999997E+02  0.45594000000E+02  0.51100000000E-03 0.  1.
         11   -1    0    0    0    0 -0.00000000000E+00 -0.00000000000E+00 -0.45593999997E+02  0.45594000000E+02  0.51100000000E-03 0. -1.
         23    2    1    2    0    0  0.35527136788E-14 -0.17763568394E-14  0.00000000000E+00  0.91188000000E+02  0.91188000000E+02 0.  0.
    9900012    2    3    3    0    0  0.24740036436E+02  0.84973173461E+01  0.25913431630E+02  0.54367085511E+02  0.40000003040E+02 0.  0.
        -12    1    3    3    0    0 -0.24740036436E+02 -0.84973173461E+01 -0.25913431630E+02  0.36820914489E+02  0.00000000000E+00 0.  1.
         11    1    4    4    0    0  0.52507933226E+01  0.13493830932E+02  0.68725680026E+00  0.14495745097E+02  0.51100000000E-03 0. -1.
        -11    1    4    4    0    0  0.10440519163E+01 -0.96259326902E+01  0.20597989767E+01  0.98990603920E+01  0.51100000000E-03 0.  1.
         12    1    4    4    0    0  0.18445191197E+02  0.46294191039E+01  0.23166375853E+02  0.29972280022E+02  0.00000000000E+00 0. -1.
</event>
<event>
 8    1  0.2460897E-006  0.9118800E+02  0.7816164E-02  0.1184000E+00
        -11   -1    0    0    0    0  0.00000000000E+00  0.00000000000E+00  0.45593999997E+02  0.45594000000E+02  0.51100000000E-03 0.  1.
         11   -1    0    0    0    0 -0.00000000000E+00 -0.00000000000E+00 -0.45593999997E+02  0.45594000000E+02  0.51100000000E-03 0. -1.
         23    2    1    2    0    0  0.17763568394E-14  0.00000000000E+00  0.00000000000E+00  0.91188000000E+02  0.91188000000E+02 0.  0.
    9900012    2    3    3    0    0 -0.10112400812E+02  0.34639502344E+02 -0.73228339411E+01  0.54367086517E+02  0.40000005332E+02 0.  0.
        -12    1    3    3    0    0  0.10112400812E+02 -0.34639502344E+02  0.73228339411E+01  0.36820913483E+02  0.00000000000E+00 0.  1.
         11    1    4    4    0    0  0.84902040319E+01  0.94280586818E+00 -0.56210164324E+01  0.10225862966E+02  0.51100000000E-03 0. -1.
        -11    1    4    4    0    0 -0.98757231483E+01  0.12356724394E+02  0.95595052064E+01  0.18482496734E+02  0.51100000000E-03 0.  1.
         12    1    4    4    0    0 -0.87268816960E+01  0.21339972081E+02 -0.11261322715E+02  0.25658726817E+02  0.00000000000E+00 0. -1.
</event>
<event>
 8    1  0.2460897E-006  0.9118800E+02  0.7816164E-02  0.1184000E+00
        -11   -1    0    0    0    0  0.00000000000E+00  0.00000000000E+00  0.45593999997E+02  0.45594000000E+02  0.51100000000E-03 0.  1.
         11   -1    0    0    0    0 -0.00000000000E+00 -0.00000000000E+00 -0.45593999997E+02  0.45594000000E+02  0.51100000000E-03 0. -1.
         23    2    1    2    0    0 -0.26645352591E-14 -0.35527136788E-14 -0.35527136788E-14  0.91188000000E+02  0.91188000000E+02 0.  0.
    9900012    2    3    3    0    0 -0.66036266769E+01 -0.26432688419E+02  0.24768575198E+02  0.54367119787E+02  0.40000081178E+02 0.  0.
         12    1    3    3    0    0  0.66036266769E+01  0.26432688419E+02 -0.24768575198E+02  0.36820880213E+02  0.00000000000E+00 0. -1.
         11    1    4    4    0    0  0.70364179751E+01 -0.23305221269E+01  0.15505203071E+02  0.17185861452E+02  0.51100000000E-03 0. -1.
        -11    1    4    4    0    0 -0.10381746045E+02 -0.96072104219E+01  0.15575001859E+02  0.21039482555E+02  0.51100000000E-03 0.  1.
         12    1    4    4    0    0 -0.32582986075E+01 -0.14494955870E+02 -0.63116297311E+01  0.16141775780E+02  0.00000000000E+00 0. -1.
</event>
<event>
 8    1  0.2460897E-006  0.9118800E+02  0.7816164E-02  0.1184000E+00
        -11   -1    0    0    0    0  0.00000000000E+00  0.00000000000E+00  0.45593999997E+02  0.45594000000E+02  0.51100000000E-03 0.  1.
         11   -1    0    0    0    0 -0.00000000000E+00 -0.00000000000E+00 -0.45593999997E+02  0.45594000000E+02  0.51100000000E-03 0. -1.
         23    2    1    2    0    0  0.35527136788E-14  0.35527136788E-14  0.00000000000E+00  0.91188000000E+02  0.91188000000E+02 0.  0.
    9900012    2    3    3    0    0 -0.21221360309E+02 -0.28810063992E+02 -0.86845849068E+01  0.54366974273E+02  0.39999749448E+02 0.  0.
        -12    1    3    3    0    0  0.21221360309E+02  0.28810063992E+02  0.86845849068E+01  0.36821025727E+02  0.00000000000E+00 0.  1.
         11    1    4    4    0    0 -0.32806423172E+01  0.51247343192E+01  0.46674507195E+01  0.76688077519E+01  0.51100000000E-03 0. -1.
        -11    1    4    4    0    0 -0.80371589113E+01  0.13030623110E+01 -0.22068255492E+01  0.84358742296E+01  0.51100000000E-03 0.  1.
        -12    1    4    4    0    0 -0.99035590809E+01 -0.35237860622E+02 -0.11145210077E+02  0.38262292291E+02  0.00000000000E+00 0.  1.
</event>
<event>
 8    1  0.2460897E-006  0.9118800E+02  0.7816164E-02  0.1184000E+00
        -11   -1    0    0    0    0  0.00000000000E+00  0.00000000000E+00  0.45593999997E+02  0.45594000000E+02  0.51100000000E-03 0.  1.
         11   -1    0    0    0    0 -0.00000000000E+00 -0.00000000000E+00 -0.45593999997E+02  0.45594000000E+02  0.51100000000E-03 0. -1.
         23    2    1    2    0    0 -0.35527136788E-14  0.00000000000E+00  0.00000000000E+00  0.91188000000E+02  0.91188000000E+02 0.  0.
    9900012    2    3    3    0    0 -0.21750289089E+02 -0.21463889709E+02 -0.20542771642E+02  0.54367094204E+02  0.40000022857E+02 0.  0.
        -12    1    3    3    0    0  0.21750289089E+02  0.21463889709E+02  0.20542771642E+02  0.36820905796E+02  0.00000000000E+00 0.  1.
         11    1    4    4    0    0 -0.63048681762E+01 -0.60529000491E+01 -0.83993020056E+01  0.12121767040E+02  0.51100000000E-03 0. -1.
        -11    1    4    4    0    0 -0.25889133428E+02 -0.76167101050E+01 -0.52120719068E+01  0.27485035861E+02  0.51100000000E-03 0.  1.
        -12    1    4    4    0    0  0.10443712515E+02 -0.77942795548E+01 -0.69313977298E+01  0.14760291303E+02  0.00000000000E+00 0.  1.
</event>
<event>
 8    1  0.2460897E-006  0.9118800E+02  0.7816164E-02  0.1184000E+00
        -11   -1    0    0    0    0  0.00000000000E+00  0.00000000000E+00  0.45593999997E+02  0.45594000000E+02  0.51100000000E-03 0. -1.
         11   -1    0    0    0    0 -0.00000000000E+00 -0.00000000000E+00 -0.45593999997E+02  0.45594000000E+02  0.51100000000E-03 0.  1.
         23    2    1    2    0    0 -0.35527136788E-14  0.71054273576E-14  0.00000000000E+00  0.91188000000E+02  0.91188000000E+02 0.  0.
    9900012    2    3    3    0    0  0.12624752158E+02  0.32415365268E+02 -0.12068079562E+02  0.54367098098E+02  0.40000031735E+02 0.  0.
         12    1    3    3    0    0 -0.12624752158E+02 -0.32415365268E+02  0.12068079562E+02  0.36820901902E+02  0.00000000000E+00 0. -1.
         11    1    4    4    0    0  0.16589934624E+02  0.72906089026E+01  0.72371927990E+01  0.19512966685E+02  0.51100000000E-03 0. -1.
        -11    1    4    4    0    0  0.18250581930E+01  0.38880098726E+01  0.15160171993E+01  0.45547520884E+01  0.51100000000E-03 0.  1.
        -12    1    4    4    0    0 -0.57902406590E+01  0.21236746493E+02 -0.20821289560E+02  0.30299379325E+02  0.00000000000E+00 0.  1.
</event>
<event>
 8    1  0.2460897E-006  0.9118800E+02  0.7816164E-02  0.1184000E+00
        -11   -1    0    0    0    0  0.00000000000E+00  0.00000000000E+00  0.45593999997E+02  0.45594000000E+02  0.51100000000E-03 0.  1.
         11   -1    0    0    0    0 -0.00000000000E+00 -0.00000000000E+00 -0.45593999997E+02  0.45594000000E+02  0.51100000000E-03 0. -1.
         23    2    1    2    0    0  0.17763568394E-14  0.17763568394E-14  0.00000000000E+00  0.91188000000E+02  0.91188000000E+02 0.  0.
    9900012    2    3    3    0    0  0.15979745472E+02  0.53483711181E+01  0.32738703342E+02  0.54367081550E+02  0.39999994010E+02 0.  0.
         12    1    3    3    0    0 -0.15979745472E+02 -0.53483711181E+01 -0.32738703342E+02  0.36820918450E+02  0.00000000000E+00 0. -1.
         11    1    4    4    0    0 -0.54802543840E+00 -0.77855504494E+01  0.24124633574E+02  0.25355730575E+02  0.51100000000E-03 0. -1.
        -11    1    4    4    0    0  0.11137338481E+02  0.14094545048E+02  0.12851764207E+02  0.22087651574E+02  0.51100000000E-03 0.  1.
         12    1    4    4    0    0  0.53904324290E+01 -0.96062348037E+00 -0.42376944387E+01  0.69236994012E+01  0.00000000000E+00 0. -1.
</event>
<event>
 8    1  0.2460897E-006  0.9118800E+02  0.7816164E-02  0.1184000E+00
        -11   -1    0    0    0    0  0.00000000000E+00  0.00000000000E+00  0.45593999997E+02  0.45594000000E+02  0.51100000000E-03 0.  1.
         11   -1    0    0    0    0 -0.00000000000E+00 -0.00000000000E+00 -0.45593999997E+02  0.45594000000E+02  0.51100000000E-03 0. -1.
         23    2    1    2    0    0  0.00000000000E+00  0.00000000000E+00  0.00000000000E+00  0.91188000000E+02  0.91188000000E+02 0.  0.
    9900012    2    3    3    0    0 -0.15300350061E+02  0.31382436835E+02  0.11696886788E+02  0.54367147020E+02  0.40000143261E+02 0.  0.
         12    1    3    3    0    0  0.15300350061E+02 -0.31382436835E+02 -0.11696886788E+02  0.36820852980E+02  0.00000000000E+00 0. -1.
         11    1    4    4    0    0 -0.72179411004E+01  0.89683646791E-01 -0.11565673476E+01  0.73105653117E+01  0.51100000000E-03 0. -1.
        -11    1    4    4    0    0  0.31206597440E+01  0.33469320261E+02  0.11670978713E+02  0.35582940580E+02  0.51100000000E-03 0.  1.
        -12    1    4    4    0    0 -0.11203068704E+02 -0.21765670728E+01  0.11824754229E+01  0.11473641128E+02  0.00000000000E+00 0.  1.
</event>
<event>
 8    1  0.2460897E-006  0.9118800E+02  0.7816164E-02  0.1184000E+00
        -11   -1    0    0    0    0  0.00000000000E+00  0.00000000000E+00  0.45593999997E+02  0.45594000000E+02  0.51100000000E-03 0.  1.
         11   -1    0    0    0    0 -0.00000000000E+00 -0.00000000000E+00 -0.45593999997E+02  0.45594000000E+02  0.51100000000E-03 0. -1.
         23    2    1    2    0    0 -0.35527136788E-14 -0.35527136788E-14 -0.71054273576E-14  0.91188000000E+02  0.91188000000E+02 0.  0.
    9900012    2    3    3    0    0 -0.16956470095E+02 -0.25022846956E+02 -0.21026628810E+02  0.54367029522E+02  0.39999875401E+02 0.  0.
        -12    1    3    3    0    0  0.16956470095E+02  0.25022846956E+02  0.21026628810E+02  0.36820970478E+02  0.00000000000E+00 0.  1.
         11    1    4    4    0    0 -0.96759678023E+01 -0.20513664394E+02 -0.67346451592E+01  0.23659886421E+02  0.51100000000E-03 0. -1.
        -11    1    4    4    0    0 -0.49966566261E+01  0.44241877512E+01  0.56450682770E+01  0.87410989475E+01  0.51100000000E-03 0.  1.
         12    1    4    4    0    0 -0.22838456664E+01 -0.89333703132E+01 -0.19937051928E+02  0.21966044153E+02  0.00000000000E+00 0. -1.
</event>
<event>
 8    1  0.2460897E-006  0.9118800E+02  0.7816164E-02  0.1184000E+00
        -11   -1    0    0    0    0  0.00000000000E+00  0.00000000000E+00  0.45593999997E+02  0.45594000000E+02  0.51100000000E-03 0.  1.
         11   -1    0    0    0    0 -0.00000000000E+00 -0.00000000000E+00 -0.45593999997E+02  0.45594000000E+02  0.51100000000E-03 0. -1.
         23    2    1    2    0    0 -0.44408920985E-15 -0.88817841970E-15  0.00000000000E+00  0.91188000000E+02  0.91188000000E+02 0.  0.
    9900012    2    3    3    0    0  0.24815866278E+00 -0.42384976938E+01  0.36575334251E+02  0.54367061378E+02  0.39999948023E+02 0.  0.
         12    1    3    3    0    0 -0.24815866278E+00  0.42384976938E+01 -0.36575334251E+02  0.36820938622E+02  0.00000000000E+00 0. -1.
         11    1    4    4    0    0  0.12119727170E+02 -0.12391613090E+02  0.98710191332E+01  0.19946851397E+02  0.51100000000E-03 0.  1.
        -11    1    4    4    0    0 -0.54361500043E+01  0.52702032739E+01  0.84709082338E+00  0.76186831238E+01  0.51100000000E-03 0. -1.
        -12    1    4    4    0    0 -0.64354185033E+01  0.28829121228E+01  0.25857224295E+02  0.26801526857E+02  0.00000000000E+00 0.  1.
</event>
<event>
 8    1  0.2460897E-006  0.9118800E+02  0.7816164E-02  0.1184000E+00
        -11   -1    0    0    0    0  0.00000000000E+00  0.00000000000E+00  0.45593999997E+02  0.45594000000E+02  0.51100000000E-03 0. -1.
         11   -1    0    0    0    0 -0.00000000000E+00 -0.00000000000E+00 -0.45593999997E+02  0.45594000000E+02  0.51100000000E-03 0.  1.
         23    2    1    2    0    0 -0.66613381478E-15 -0.71054273576E-14  0.88817841970E-15  0.91188000000E+02  0.91188000000E+02 0.  0.
    9900012    2    3    3    0    0 -0.15689407994E+01 -0.36268587085E+02  0.61570274859E+01  0.54367068836E+02  0.39999965024E+02 0.  0.
         12    1    3    3    0    0  0.15689407994E+01  0.36268587085E+02 -0.61570274859E+01  0.36820931164E+02  0.00000000000E+00 0. -1.
         11    1    4    4    0    0  0.73730317688E+01 -0.18083636988E+02 -0.53896980046E+01  0.20259031788E+02  0.51100000000E-03 0. -1.
        -11    1    4    4    0    0  0.33918638343E+00 -0.11444543893E+02 -0.61669647384E+01  0.13004771688E+02  0.51100000000E-03 0.  1.
         12    1    4    4    0    0 -0.92811589516E+01 -0.67404062043E+01  0.17713690229E+02  0.21103265359E+02  0.00000000000E+00 0. -1.
</event>
<event>
 8    1  0.2460897E-006  0.9118800E+02  0.7816164E-02  0.1184000E+00
        -11   -1    0    0    0    0  0.00000000000E+00  0.00000000000E+00  0.45593999997E+02  0.45594000000E+02  0.51100000000E-03 0. -1.
         11   -1    0    0    0    0 -0.00000000000E+00 -0.00000000000E+00 -0.45593999997E+02  0.45594000000E+02  0.51100000000E-03 0.  1.
         23    2    1    2    0    0  0.35527136788E-14  0.88817841970E-15  0.35527136788E-14  0.91188000000E+02  0.91188000000E+02 0.  0.
    9900012    2    3    3    0    0 -0.18448120513E+02 -0.27253890707E+01 -0.31749316829E+02  0.54367081827E+02  0.39999994641E+02 0.  0.
         12    1    3    3    0    0  0.18448120513E+02  0.27253890707E+01  0.31749316829E+02  0.36820918173E+02  0.00000000000E+00 0. -1.
         11    1    4    4    0    0 -0.19680966923E+02  0.35077748260E+01 -0.12022529165E+02  0.23327797818E+02  0.51100000000E-03 0. -1.
        -11    1    4    4    0    0 -0.49827685116E+01 -0.44669855279E+01 -0.22887680471E+02  0.23845919134E+02  0.51100000000E-03 0.  1.
         12    1    4    4    0    0  0.62156149217E+01 -0.17661783688E+01  0.31608928074E+01  0.71933648750E+01  0.00000000000E+00 0. -1.
</event>
<event>
 8    1  0.2460897E-006  0.9118800E+02  0.7816164E-02  0.1184000E+00
        -11   -1    0    0    0    0  0.00000000000E+00  0.00000000000E+00  0.45593999997E+02  0.45594000000E+02  0.51100000000E-03 0. -1.
         11   -1    0    0    0    0 -0.00000000000E+00 -0.00000000000E+00 -0.45593999997E+02  0.45594000000E+02  0.51100000000E-03 0.  1.
         23    2    1    2    0    0  0.10658141036E-13  0.00000000000E+00  0.00000000000E+00  0.91188000000E+02  0.91188000000E+02 0.  0.
    9900012    2    3    3    0    0  0.30094182602E+02 -0.20258519151E+02 -0.63016599482E+01  0.54367104536E+02  0.40000046410E+02 0.  0.
         12    1    3    3    0    0 -0.30094182602E+02  0.20258519151E+02  0.63016599482E+01  0.36820895464E+02  0.00000000000E+00 0. -1.
         11    1    4    4    0    0 -0.19606273337E+01  0.18506311355E+01 -0.61234119173E+01  0.66906702886E+01  0.51100000000E-03 0.  1.
        -11    1    4    4    0    0  0.18149635151E+02  0.28634847796E+01 -0.40990309703E+01  0.18825802941E+02  0.51100000000E-03 0. -1.
         12    1    4    4    0    0  0.13905174785E+02 -0.24972635066E+02  0.39207829395E+01  0.28850631307E+02  0.00000000000E+00 0. -1.
</event>
<event>
 8    1  0.2460897E-006  0.9118800E+02  0.7816164E-02  0.1184000E+00
        -11   -1    0    0    0    0  0.00000000000E+00  0.00000000000E+00  0.45593999997E+02  0.45594000000E+02  0.51100000000E-03 0.  1.
         11   -1    0    0    0    0 -0.00000000000E+00 -0.00000000000E+00 -0.45593999997E+02  0.45594000000E+02  0.51100000000E-03 0. -1.
         23    2    1    2    0    0  0.17763568394E-14  0.00000000000E+00  0.00000000000E+00  0.91188000000E+02  0.91188000000E+02 0.  0.
    9900012    2    3    3    0    0 -0.13200347838E+02 -0.21082810697E+02 -0.27148573557E+02  0.54367093763E+02  0.40000021852E+02 0.  0.
        -12    1    3    3    0    0  0.13200347838E+02  0.21082810697E+02  0.27148573557E+02  0.36820906237E+02  0.00000000000E+00 0.  1.
         11    1    4    4    0    0 -0.56473281291E+01 -0.16452539572E+02 -0.27258727012E+02  0.32335994989E+02  0.51100000000E-03 0. -1.
        -11    1    4    4    0    0  0.59285311173E+01  0.17776657475E+01  0.29174681937E+01  0.68424555271E+01  0.51100000000E-03 0.  1.
         12    1    4    4    0    0 -0.13481550826E+02 -0.64079368723E+01 -0.28073147388E+01  0.15188643247E+02  0.00000000000E+00 0. -1.
</event>
<event>
 8    1  0.2460897E-006  0.9118800E+02  0.7816164E-02  0.1184000E+00
        -11   -1    0    0    0    0  0.00000000000E+00  0.00000000000E+00  0.45593999997E+02  0.45594000000E+02  0.51100000000E-03 0. -1.
         11   -1    0    0    0    0 -0.00000000000E+00 -0.00000000000E+00 -0.45593999997E+02  0.45594000000E+02  0.51100000000E-03 0.  1.
         23    2    1    2    0    0  0.00000000000E+00 -0.17763568394E-14  0.00000000000E+00  0.91188000000E+02  0.91188000000E+02 0.  0.
    9900012    2    3    3    0    0  0.17999453398E+02  0.10300045510E+02  0.30425466139E+02  0.54367078639E+02  0.39999987373E+02 0.  0.
        -12    1    3    3    0    0 -0.17999453398E+02 -0.10300045510E+02 -0.30425466139E+02  0.36820921361E+02  0.00000000000E+00 0.  1.
         11    1    4    4    0    0  0.93700847590E+01  0.47203723429E+01  0.14524567272E+02  0.17917685625E+02  0.51100000000E-03 0. -1.
        -11    1    4    4    0    0  0.20442342068E+02  0.35380388375E+01  0.89743411851E+01  0.22604111750E+02  0.51100000000E-03 0.  1.
        -12    1    4    4    0    0 -0.11812973429E+02  0.20416343295E+01  0.69265576817E+01  0.13845281264E+02  0.00000000000E+00 0.  1.
</event>
<event>
 8    1  0.2460897E-006  0.9118800E+02  0.7816164E-02  0.1184000E+00
        -11   -1    0    0    0    0  0.00000000000E+00  0.00000000000E+00  0.45593999997E+02  0.45594000000E+02  0.51100000000E-03 0.  1.
         11   -1    0    0    0    0 -0.00000000000E+00 -0.00000000000E+00 -0.45593999997E+02  0.45594000000E+02  0.51100000000E-03 0. -1.
         23    2    1    2    0    0  0.71054273576E-14  0.00000000000E+00 -0.44408920985E-15  0.91188000000E+02  0.91188000000E+02 0.  0.
    9900012    2    3    3    0    0 -0.36655232183E+02 -0.27606892827E+01  0.21336286951E+01  0.54367084434E+02  0.40000000584E+02 0.  0.
        -12    1    3    3    0    0  0.36655232183E+02  0.27606892827E+01 -0.21336286951E+01  0.36820915566E+02  0.00000000000E+00 0.  1.
         11    1    4    4    0    0 -0.35937609885E+02 -0.23529062699E+01  0.38356673364E+01  0.36218231823E+02  0.51100000000E-03 0. -1.
        -11    1    4    4    0    0  0.77511819658E+01 -0.35899720212E+01  0.12485161701E+01  0.86329319392E+01  0.51100000000E-03 0.  1.
        -12    1    4    4    0    0 -0.84688042636E+01  0.31821890083E+01 -0.29505548114E+01  0.95159206720E+01  0.00000000000E+00 0.  1.
</event>
<event>
 8    1  0.2460897E-006  0.9118800E+02  0.7816164E-02  0.1184000E+00
        -11   -1    0    0    0    0  0.00000000000E+00  0.00000000000E+00  0.45593999997E+02  0.45594000000E+02  0.51100000000E-03 0.  1.
         11   -1    0    0    0    0 -0.00000000000E+00 -0.00000000000E+00 -0.45593999997E+02  0.45594000000E+02  0.51100000000E-03 0. -1.
         23    2    1    2    0    0  0.00000000000E+00  0.44408920985E-15  0.00000000000E+00  0.91188000000E+02  0.91188000000E+02 0.  0.
    9900012    2    3    3    0    0 -0.52984264155E+01  0.25604088304E+01 -0.36347647966E+02  0.54367074855E+02  0.39999978747E+02 0.  0.
        -12    1    3    3    0    0  0.52984264155E+01 -0.25604088304E+01  0.36347647966E+02  0.36820925145E+02  0.00000000000E+00 0.  1.
         11    1    4    4    0    0 -0.46966516051E+01  0.93641464630E+01 -0.41139972598E+02  0.42452834074E+02  0.51100000000E-03 0. -1.
        -11    1    4    4    0    0 -0.42750610796E+01 -0.24988393058E+01  0.36228555699E+01  0.61355870014E+01  0.51100000000E-03 0.  1.
         12    1    4    4    0    0  0.36732862691E+01 -0.43048983268E+01  0.11694690617E+01  0.57786537797E+01  0.00000000000E+00 0. -1.
</event>
<event>
 8    1  0.2460897E-006  0.9118800E+02  0.7816164E-02  0.1184000E+00
        -11   -1    0    0    0    0  0.00000000000E+00  0.00000000000E+00  0.45593999997E+02  0.45594000000E+02  0.51100000000E-03 0.  1.
         11   -1    0    0    0    0 -0.00000000000E+00 -0.00000000000E+00 -0.45593999997E+02  0.45594000000E+02  0.51100000000E-03 0. -1.
         23    2    1    2    0    0  0.35527136788E-14 -0.35527136788E-14  0.17763568394E-14  0.91188000000E+02  0.91188000000E+02 0.  0.
    9900012    2    3    3    0    0  0.30793011115E+02 -0.16818316328E+02 -0.11167475407E+02  0.54367111844E+02  0.40000063070E+02 0.  0.
        -12    1    3    3    0    0 -0.30793011115E+02  0.16818316328E+02  0.11167475407E+02  0.36820888156E+02  0.00000000000E+00 0.  1.
         11    1    4    4    0    0  0.13559879717E+02 -0.91412460729E+01 -0.20251543769E+02  0.26029939358E+02  0.51100000000E-03 0. -1.
        -11    1    4    4    0    0  0.18716024503E+02  0.61475061337E-01  0.81106037594E+01  0.20397922590E+02  0.51100000000E-03 0.  1.
         12    1    4    4    0    0 -0.14828931053E+01 -0.77385453160E+01  0.97346460246E+00  0.79392498954E+01  0.00000000000E+00 0. -1.
</event>
<event>
 8    1  0.2460897E-006  0.9118800E+02  0.7816164E-02  0.1184000E+00
        -11   -1    0    0    0    0  0.00000000000E+00  0.00000000000E+00  0.45593999997E+02  0.45594000000E+02  0.51100000000E-03 0. -1.
         11   -1    0    0    0    0 -0.00000000000E+00 -0.00000000000E+00 -0.45593999997E+02  0.45594000000E+02  0.51100000000E-03 0.  1.
         23    2    1    2    0    0  0.88817841970E-15  0.17763568394E-14  0.71054273576E-14  0.91188000000E+02  0.91188000000E+02 0.  0.
    9900012    2    3    3    0    0 -0.22772330835E+01 -0.11625497242E+02 -0.34863191942E+02  0.54367080280E+02  0.39999991115E+02 0.  0.
         12    1    3    3    0    0  0.22772330835E+01  0.11625497242E+02  0.34863191942E+02  0.36820919720E+02  0.00000000000E+00 0. -1.
         11    1    4    4    0    0 -0.93298176535E+01 -0.63701029495E+01 -0.65584973669E+01  0.13062832656E+02  0.51100000000E-03 0. -1.
        -11    1    4    4    0    0  0.55540566089E+01 -0.10352717239E+02 -0.32484765029E+02  0.34543975716E+02  0.51100000000E-03 0.  1.
         12    1    4    4    0    0  0.14985279611E+01  0.50973229461E+01  0.41800704539E+01  0.67602719077E+01  0.00000000000E+00 0. -1.
</event>
<event>
 8    1  0.2460897E-006  0.9118800E+02  0.7816164E-02  0.1184000E+00
        -11   -1    0    0    0    0  0.00000000000E+00  0.00000000000E+00  0.45593999997E+02  0.45594000000E+02  0.51100000000E-03 0.  1.
         11   -1    0    0    0    0 -0.00000000000E+00 -0.00000000000E+00 -0.45593999997E+02  0.45594000000E+02  0.51100000000E-03 0. -1.
         23    2    1    2    0    0  0.00000000000E+00  0.00000000000E+00 -0.35527136788E-14  0.91188000000E+02  0.91188000000E+02 0.  0.
    9900012    2    3    3    0    0 -0.29485612459E+02 -0.28429577099E+01 -0.21869976841E+02  0.54367086952E+02  0.40000006325E+02 0.  0.
        -12    1    3    3    0    0  0.29485612459E+02  0.28429577099E+01  0.21869976841E+02  0.36820913048E+02  0.00000000000E+00 0.  1.
         11    1    4    4    0    0 -0.41522707584E+01 -0.13190146323E+01 -0.23038077458E+02  0.23446410499E+02  0.51100000000E-03 0. -1.
        -11    1    4    4    0    0 -0.10268720239E+02 -0.18915046457E+01 -0.81128614908E+01  0.13222818421E+02  0.51100000000E-03 0.  1.
        -12    1    4    4    0    0 -0.15064621462E+02  0.36756156804E+00  0.92809621078E+01  0.17697858032E+02  0.00000000000E+00 0.  1.
</event>
<event>
 8    1  0.2460897E-006  0.9118800E+02  0.7816164E-02  0.1184000E+00
        -11   -1    0    0    0    0  0.00000000000E+00  0.00000000000E+00  0.45593999997E+02  0.45594000000E+02  0.51100000000E-03 0.  1.
         11   -1    0    0    0    0 -0.00000000000E+00 -0.00000000000E+00 -0.45593999997E+02  0.45594000000E+02  0.51100000000E-03 0. -1.
         23    2    1    2    0    0 -0.35527136788E-14  0.71054273576E-14 -0.13322676296E-14  0.91188000000E+02  0.91188000000E+02 0.  0.
    9900012    2    3    3    0    0 -0.23841534859E+02  0.27806702139E+02 -0.37627963875E+01  0.54366944815E+02  0.39999682294E+02 0.  0.
         12    1    3    3    0    0  0.23841534859E+02 -0.27806702139E+02  0.37627963875E+01  0.36821055185E+02  0.00000000000E+00 0. -1.
         11    1    4    4    0    0 -0.74186156883E+01 -0.37947741687E+01 -0.43937833559E+00  0.83444126998E+01  0.51100000000E-03 0. -1.
        -11    1    4    4    0    0 -0.45953828818E+01 -0.31588740355E+01  0.59473801565E+01  0.81527516821E+01  0.51100000000E-03 0.  1.
        -12    1    4    4    0    0 -0.11827536288E+02  0.34760350343E+02 -0.92707982084E+01  0.37869780433E+02  0.00000000000E+00 0.  1.
</event>
<event>
 8    1  0.2460897E-006  0.9118800E+02  0.7816164E-02  0.1184000E+00
        -11   -1    0    0    0    0  0.00000000000E+00  0.00000000000E+00  0.45593999997E+02  0.45594000000E+02  0.51100000000E-03 0.  1.
         11   -1    0    0    0    0 -0.00000000000E+00 -0.00000000000E+00 -0.45593999997E+02  0.45594000000E+02  0.51100000000E-03 0. -1.
         23    2    1    2    0    0  0.00000000000E+00  0.00000000000E+00  0.00000000000E+00  0.91188000000E+02  0.91188000000E+02 0.  0.
    9900012    2    3    3    0    0 -0.36967792335E+01 -0.28072372931E+02 -0.23538626050E+02  0.54366929742E+02  0.39999647931E+02 0.  0.
        -12    1    3    3    0    0  0.36967792335E+01  0.28072372931E+02  0.23538626050E+02  0.36821070258E+02  0.00000000000E+00 0.  1.
         11    1    4    4    0    0  0.16337759694E+01 -0.22895003635E+02 -0.18426117581E+02  0.29434201616E+02  0.51100000000E-03 0. -1.
        -11    1    4    4    0    0 -0.91292547505E+01  0.11295157584E+01 -0.11816745945E+02  0.14975132158E+02  0.51100000000E-03 0.  1.
         12    1    4    4    0    0  0.37986995477E+01 -0.63068850536E+01  0.67042374761E+01  0.99575959684E+01  0.00000000000E+00 0. -1.
</event>
<event>
 8    1  0.2460897E-006  0.9118800E+02  0.7816164E-02  0.1184000E+00
        -11   -1    0    0    0    0  0.00000000000E+00  0.00000000000E+00  0.45593999997E+02  0.45594000000E+02  0.51100000000E-03 0. -1.
         11   -1    0    0    0    0 -0.00000000000E+00 -0.00000000000E+00 -0.45593999997E+02  0.45594000000E+02  0.51100000000E-03 0.  1.
         23    2    1    2    0    0  0.00000000000E+00  0.00000000000E+00  0.00000000000E+00  0.91188000000E+02  0.91188000000E+02 0.  0.
    9900012    2    3    3    0    0  0.16797960992E+02  0.25180628452E+02 -0.20965271825E+02  0.54367106945E+02  0.40000051902E+02 0.  0.
         12    1    3    3    0    0 -0.16797960992E+02 -0.25180628452E+02  0.20965271825E+02  0.36820893055E+02  0.00000000000E+00 0. -1.
         11    1    4    4    0    0 -0.19508289487E+01  0.77576780124E+01 -0.14452368243E+02  0.16518421529E+02  0.51100000000E-03 0. -1.
        -11    1    4    4    0    0  0.20988040345E+02  0.90713542576E+01 -0.13656872460E+02  0.26632639209E+02  0.51100000000E-03 0.  1.
        -12    1    4    4    0    0 -0.22392504052E+01  0.83515961820E+01  0.71439688781E+01  0.11216046206E+02  0.00000000000E+00 0.  1.
</event>
<event>
 8    1  0.2460897E-006  0.9118800E+02  0.7816164E-02  0.1184000E+00
        -11   -1    0    0    0    0  0.00000000000E+00  0.00000000000E+00  0.45593999997E+02  0.45594000000E+02  0.51100000000E-03 0.  1.
         11   -1    0    0    0    0 -0.00000000000E+00 -0.00000000000E+00 -0.45593999997E+02  0.45594000000E+02  0.51100000000E-03 0. -1.
         23    2    1    2    0    0 -0.16653345369E-15  0.00000000000E+00  0.88817841970E-15  0.91188000000E+02  0.91188000000E+02 0.  0.
    9900012    2    3    3    0    0 -0.32559595330E+00  0.36478080913E+02  0.50023660624E+01  0.54367081135E+02  0.39999993063E+02 0.  0.
        -12    1    3    3    0    0  0.32559595330E+00 -0.36478080913E+02 -0.50023660624E+01  0.36820918865E+02  0.00000000000E+00 0.  1.
         11    1    4    4    0    0  0.13764544946E+02  0.23448535813E+02  0.15920582830E+01  0.27236577964E+02  0.51100000000E-03 0. -1.
        -11    1    4    4    0    0 -0.14063438459E-01  0.12526864601E+02 -0.42006823933E+00  0.12533913678E+02  0.51100000000E-03 0.  1.
        -12    1    4    4    0    0 -0.14076077461E+02  0.50268049933E+00  0.38303760187E+01  0.14596589492E+02  0.00000000000E+00 0.  1.
</event>
<event>
 8    1  0.2460897E-006  0.9118800E+02  0.7816164E-02  0.1184000E+00
        -11   -1    0    0    0    0  0.00000000000E+00  0.00000000000E+00  0.45593999997E+02  0.45594000000E+02  0.51100000000E-03 0.  1.
         11   -1    0    0    0    0 -0.00000000000E+00 -0.00000000000E+00 -0.45593999997E+02  0.45594000000E+02  0.51100000000E-03 0. -1.
         23    2    1    2    0    0  0.17763568394E-14  0.00000000000E+00  0.35527136788E-14  0.91188000000E+02  0.91188000000E+02 0.  0.
    9900012    2    3    3    0    0  0.13420491177E+02 -0.30475382519E+02  0.15713714933E+02  0.54367090722E+02  0.40000014918E+02 0.  0.
         12    1    3    3    0    0 -0.13420491177E+02  0.30475382519E+02 -0.15713714933E+02  0.36820909278E+02  0.00000000000E+00 0. -1.
         11    1    4    4    0    0 -0.25386321256E+01 -0.84354117691E+01 -0.10224825146E+02  0.13496217037E+02  0.51100000000E-03 0. -1.
        -11    1    4    4    0    0  0.41102292494E+01  0.21077137549E+01  0.47902762976E+01  0.66545615200E+01  0.51100000000E-03 0.  1.
         12    1    4    4    0    0  0.11848894053E+02 -0.24147684504E+02  0.21148263781E+02  0.34216312165E+02  0.00000000000E+00 0. -1.
</event>
<event>
 8    1  0.2460897E-006  0.9118800E+02  0.7816164E-02  0.1184000E+00
        -11   -1    0    0    0    0  0.00000000000E+00  0.00000000000E+00  0.45593999997E+02  0.45594000000E+02  0.51100000000E-03 0.  1.
         11   -1    0    0    0    0 -0.00000000000E+00 -0.00000000000E+00 -0.45593999997E+02  0.45594000000E+02  0.51100000000E-03 0. -1.
         23    2    1    2    0    0  0.17763568394E-14 -0.35527136788E-14  0.71054273576E-14  0.91188000000E+02  0.91188000000E+02 0.  0.
    9900012    2    3    3    0    0 -0.66374921220E+01  0.23747478246E+02 -0.27345584471E+02  0.54367081831E+02  0.39999994651E+02 0.  0.
        -12    1    3    3    0    0  0.66374921220E+01 -0.23747478246E+02  0.27345584471E+02  0.36820918169E+02  0.00000000000E+00 0.  1.
         11    1    4    4    0    0 -0.11612156038E+02  0.21065020163E+02 -0.76379214729E+01  0.25237176684E+02  0.51100000000E-03 0. -1.
        -11    1    4    4    0    0 -0.26573925468E+01 -0.26346664241E+00  0.35689995859E+01  0.44574553418E+01  0.51100000000E-03 0.  1.
        -12    1    4    4    0    0  0.76320564625E+01  0.29459247258E+01 -0.23276662584E+02  0.24672449805E+02  0.00000000000E+00 0.  1.
</event>
<event>
 8    1  0.2460897E-006  0.9118800E+02  0.7816164E-02  0.1184000E+00
        -11   -1    0    0    0    0  0.00000000000E+00  0.00000000000E+00  0.45593999997E+02  0.45594000000E+02  0.51100000000E-03 0. -1.
         11   -1    0    0    0    0 -0.00000000000E+00 -0.00000000000E+00 -0.45593999997E+02  0.45594000000E+02  0.51100000000E-03 0.  1.
         23    2    1    2    0    0 -0.35527136788E-14  0.00000000000E+00  0.35527136788E-14  0.91188000000E+02  0.91188000000E+02 0.  0.
    9900012    2    3    3    0    0 -0.23640503434E+02  0.20263082053E+02  0.19654866339E+02  0.54367086545E+02  0.40000005396E+02 0.  0.
        -12    1    3    3    0    0  0.23640503434E+02 -0.20263082053E+02 -0.19654866339E+02  0.36820913455E+02  0.00000000000E+00 0.  1.
         11    1    4    4    0    0 -0.88703607117E+01  0.16734103233E+02  0.11392883031E+02  0.22102291605E+02  0.51100000000E-03 0. -1.
        -11    1    4    4    0    0 -0.17281361689E+02  0.12410946928E+02  0.87879680690E+01  0.23019675248E+02  0.51100000000E-03 0.  1.
        -12    1    4    4    0    0  0.25112189666E+01 -0.88819681073E+01 -0.52598476111E+00  0.92451196924E+01  0.00000000000E+00 0.  1.
</event>
<event>
 8    1  0.2460897E-006  0.9118800E+02  0.7816164E-02  0.1184000E+00
        -11   -1    0    0    0    0  0.00000000000E+00  0.00000000000E+00  0.45593999997E+02  0.45594000000E+02  0.51100000000E-03 0. -1.
         11   -1    0    0    0    0 -0.00000000000E+00 -0.00000000000E+00 -0.45593999997E+02  0.45594000000E+02  0.51100000000E-03 0.  1.
         23    2    1    2    0    0  0.00000000000E+00  0.00000000000E+00  0.35527136788E-14  0.91188000000E+02  0.91188000000E+02 0.  0.
    9900012    2    3    3    0    0  0.24464857846E+02 -0.94444480135E+01  0.25846710194E+02  0.54367091598E+02  0.40000016916E+02 0.  0.
        -12    1    3    3    0    0 -0.24464857846E+02  0.94444480135E+01 -0.25846710194E+02  0.36820908402E+02  0.00000000000E+00 0.  1.
         11    1    4    4    0    0  0.11516172326E+02 -0.54383678634E+01 -0.47664000043E+01  0.13598405764E+02  0.51100000000E-03 0. -1.
        -11    1    4    4    0    0  0.40025182237E+01 -0.13129101974E+02  0.19426837266E+02  0.23786455751E+02  0.51100000000E-03 0.  1.
        -12    1    4    4    0    0  0.89461672969E+01  0.91230218235E+01  0.11186272932E+02  0.16982230083E+02  0.00000000000E+00 0.  1.
</event>
<event>
 8    1  0.2460897E-006  0.9118800E+02  0.7816164E-02  0.1184000E+00
        -11   -1    0    0    0    0  0.00000000000E+00  0.00000000000E+00  0.45593999997E+02  0.45594000000E+02  0.51100000000E-03 0.  1.
         11   -1    0    0    0    0 -0.00000000000E+00 -0.00000000000E+00 -0.45593999997E+02  0.45594000000E+02  0.51100000000E-03 0. -1.
         23    2    1    2    0    0  0.00000000000E+00 -0.10658141036E-13 -0.35527136788E-14  0.91188000000E+02  0.91188000000E+02 0.  0.
    9900012    2    3    3    0    0  0.67435046279E+01 -0.24459662103E+02 -0.26683872641E+02  0.54367095829E+02  0.40000026560E+02 0.  0.
        -12    1    3    3    0    0 -0.67435046279E+01  0.24459662103E+02  0.26683872641E+02  0.36820904171E+02  0.00000000000E+00 0.  1.
         11    1    4    4    0    0  0.26549360109E+00 -0.42180796778E+01  0.42784826573E+01  0.60139917801E+01  0.51100000000E-03 0. -1.
        -11    1    4    4    0    0  0.70019533804E+01  0.42283454178E+01  0.84017024832E+00  0.82226603006E+01  0.51100000000E-03 0.  1.
         12    1    4    4    0    0 -0.52394235358E+00 -0.24469927843E+02 -0.31802525547E+02  0.40130443748E+02  0.00000000000E+00 0. -1.
</event>
<event>
 8    1  0.2460897E-006  0.9118800E+02  0.7816164E-02  0.1184000E+00
        -11   -1    0    0    0    0  0.00000000000E+00  0.00000000000E+00  0.45593999997E+02  0.45594000000E+02  0.51100000000E-03 0.  1.
         11   -1    0    0    0    0 -0.00000000000E+00 -0.00000000000E+00 -0.45593999997E+02  0.45594000000E+02  0.51100000000E-03 0. -1.
         23    2    1    2    0    0  0.35527136788E-14  0.00000000000E+00 -0.35527136788E-14  0.91188000000E+02  0.91188000000E+02 0.  0.
    9900012    2    3    3    0    0 -0.28802488305E+02 -0.73402446711E+01  0.21732870322E+02  0.54367079631E+02  0.39999989634E+02 0.  0.
         12    1    3    3    0    0  0.28802488305E+02  0.73402446711E+01 -0.21732870322E+02  0.36820920369E+02  0.00000000000E+00 0. -1.
         11    1    4    4    0    0 -0.26109787356E+02 -0.87927529326E+01  0.20544917625E+02  0.34367530322E+02  0.51100000000E-03 0. -1.
        -11    1    4    4    0    0 -0.60723428435E+01 -0.39486720271E+01  0.79184716702E+01  0.10731614615E+02  0.51100000000E-03 0.  1.
         12    1    4    4    0    0  0.33796418943E+01  0.54011802886E+01 -0.67305189737E+01  0.92679346944E+01  0.00000000000E+00 0. -1.
</event>
<event>
 8    1  0.2460897E-006  0.9118800E+02  0.7816164E-02  0.1184000E+00
        -11   -1    0    0    0    0  0.00000000000E+00  0.00000000000E+00  0.45593999997E+02  0.45594000000E+02  0.51100000000E-03 0.  1.
         11   -1    0    0    0    0 -0.00000000000E+00 -0.00000000000E+00 -0.45593999997E+02  0.45594000000E+02  0.51100000000E-03 0. -1.
         23    2    1    2    0    0  0.00000000000E+00  0.00000000000E+00  0.00000000000E+00  0.91188000000E+02  0.91188000000E+02 0.  0.
    9900012    2    3    3    0    0  0.17804842442E+02  0.72148209407E+01  0.31412004081E+02  0.54367081271E+02  0.39999993375E+02 0.  0.
         12    1    3    3    0    0 -0.17804842442E+02 -0.72148209407E+01 -0.31412004081E+02  0.36820918729E+02  0.00000000000E+00 0. -1.
         11    1    4    4    0    0 -0.40380373827E+01  0.69529139711E+00 -0.26366458564E+00  0.41059341575E+01  0.51100000000E-03 0. -1.
        -11    1    4    4    0    0  0.22663691409E+02  0.15809947827E+02  0.15753113185E+02  0.31808142572E+02  0.51100000000E-03 0.  1.
        -12    1    4    4    0    0 -0.82081158435E+00 -0.92904182838E+01  0.15922555482E+02  0.18453004542E+02  0.00000000000E+00 0.  1.
</event>
<event>
 8    1  0.2460897E-006  0.9118800E+02  0.7816164E-02  0.1184000E+00
        -11   -1    0    0    0    0  0.00000000000E+00  0.00000000000E+00  0.45593999997E+02  0.45594000000E+02  0.51100000000E-03 0.  1.
         11   -1    0    0    0    0 -0.00000000000E+00 -0.00000000000E+00 -0.45593999997E+02  0.45594000000E+02  0.51100000000E-03 0. -1.
         23    2    1    2    0    0  0.35527136788E-14  0.00000000000E+00  0.35527136788E-14  0.91188000000E+02  0.91188000000E+02 0.  0.
    9900012    2    3    3    0    0 -0.24790325084E+02  0.33310125823E+01 -0.27020804836E+02  0.54367085337E+02  0.40000002643E+02 0.  0.
        -12    1    3    3    0    0  0.24790325084E+02 -0.33310125823E+01  0.27020804836E+02  0.36820914663E+02  0.00000000000E+00 0.  1.
         11    1    4    4    0    0  0.38422752151E+01  0.27580369082E+01 -0.20152132907E+02  0.20699717567E+02  0.51100000000E-03 0. -1.
        -11    1    4    4    0    0 -0.13113535009E+02 -0.25941753489E+01  0.45728262263E+01  0.14128173489E+02  0.51100000000E-03 0.  1.
         12    1    4    4    0    0 -0.15519065291E+02  0.31671510229E+01 -0.11441498156E+02  0.19539194281E+02  0.00000000000E+00 0. -1.
</event>
<event>
 8    1  0.2460897E-006  0.9118800E+02  0.7816164E-02  0.1184000E+00
        -11   -1    0    0    0    0  0.00000000000E+00  0.00000000000E+00  0.45593999997E+02  0.45594000000E+02  0.51100000000E-03 0.  1.
         11   -1    0    0    0    0 -0.00000000000E+00 -0.00000000000E+00 -0.45593999997E+02  0.45594000000E+02  0.51100000000E-03 0. -1.
         23    2    1    2    0    0  0.00000000000E+00 -0.35527136788E-14  0.00000000000E+00  0.91188000000E+02  0.91188000000E+02 0.  0.
    9900012    2    3    3    0    0 -0.21786975836E+02  0.18956135096E+02  0.22842304263E+02  0.54367105960E+02  0.40000049656E+02 0.  0.
         12    1    3    3    0    0  0.21786975836E+02 -0.18956135096E+02 -0.22842304263E+02  0.36820894040E+02  0.00000000000E+00 0. -1.
         11    1    4    4    0    0  0.26140692827E+01  0.12332410158E+02  0.11998186777E+02  0.17403395781E+02  0.51100000000E-03 0. -1.
        -11    1    4    4    0    0 -0.20940594969E+02  0.42424467664E+01  0.18479654844E+02  0.28248973710E+02  0.51100000000E-03 0.  1.
        -12    1    4    4    0    0 -0.34604501497E+01  0.23812781717E+01 -0.76355373580E+01  0.87147364685E+01  0.00000000000E+00 0.  1.
</event>
<event>
 8    1  0.2460897E-006  0.9118800E+02  0.7816164E-02  0.1184000E+00
        -11   -1    0    0    0    0  0.00000000000E+00  0.00000000000E+00  0.45593999997E+02  0.45594000000E+02  0.51100000000E-03 0. -1.
         11   -1    0    0    0    0 -0.00000000000E+00 -0.00000000000E+00 -0.45593999997E+02  0.45594000000E+02  0.51100000000E-03 0.  1.
         23    2    1    2    0    0  0.35527136788E-14  0.00000000000E+00  0.00000000000E+00  0.91188000000E+02  0.91188000000E+02 0.  0.
    9900012    2    3    3    0    0 -0.18718030994E+02  0.25576187581E+02 -0.18742294603E+02  0.54367086616E+02  0.40000005557E+02 0.  0.
         12    1    3    3    0    0  0.18718030994E+02 -0.25576187581E+02  0.18742294603E+02  0.36820913384E+02  0.00000000000E+00 0. -1.
         11    1    4    4    0    0  0.78082484519E+01  0.11060652067E+02 -0.33009065822E+01  0.13935664769E+02  0.51100000000E-03 0. -1.
        -11    1    4    4    0    0 -0.19162994389E+02  0.12419561541E+02  0.39777307159E+00  0.22839091192E+02  0.51100000000E-03 0.  1.
         12    1    4    4    0    0 -0.73632850575E+01  0.20959739730E+01 -0.15839161092E+02  0.17592330654E+02  0.00000000000E+00 0. -1.
</event>
<event>
 8    1  0.2460897E-006  0.9118800E+02  0.7816164E-02  0.1184000E+00
        -11   -1    0    0    0    0  0.00000000000E+00  0.00000000000E+00  0.45593999997E+02  0.45594000000E+02  0.51100000000E-03 0.  1.
         11   -1    0    0    0    0 -0.00000000000E+00 -0.00000000000E+00 -0.45593999997E+02  0.45594000000E+02  0.51100000000E-03 0. -1.
         23    2    1    2    0    0 -0.17763568394E-14  0.17763568394E-14  0.00000000000E+00  0.91188000000E+02  0.91188000000E+02 0.  0.
    9900012    2    3    3    0    0  0.13796718441E+02 -0.61848625716E+01 -0.33573482633E+02  0.54367072514E+02  0.39999973411E+02 0.  0.
        -12    1    3    3    0    0 -0.13796718441E+02  0.61848625716E+01  0.33573482633E+02  0.36820927486E+02  0.00000000000E+00 0.  1.
         11    1    4    4    0    0 -0.54096919907E+01  0.62369260989E+01 -0.48310617189E+01  0.95657290464E+01  0.51100000000E-03 0. -1.
        -11    1    4    4    0    0  0.14266654293E+02  0.56262187844E+01 -0.99450960689E+01  0.18278312247E+02  0.51100000000E-03 0.  1.
         12    1    4    4    0    0  0.49397561393E+01 -0.18048007455E+02 -0.18797324845E+02  0.26523031221E+02  0.00000000000E+00 0. -1.
</event>
<event>
 8    1  0.2460897E-006  0.9118800E+02  0.7816164E-02  0.1184000E+00
        -11   -1    0    0    0    0  0.00000000000E+00  0.00000000000E+00  0.45593999997E+02  0.45594000000E+02  0.51100000000E-03 0.  1.
         11   -1    0    0    0    0 -0.00000000000E+00 -0.00000000000E+00 -0.45593999997E+02  0.45594000000E+02  0.51100000000E-03 0. -1.
         23    2    1    2    0    0  0.00000000000E+00  0.35527136788E-14  0.00000000000E+00  0.91188000000E+02  0.91188000000E+02 0.  0.
    9900012    2    3    3    0    0  0.11999094510E+02  0.20542557388E+02  0.28103471099E+02  0.54367081748E+02  0.39999994460E+02 0.  0.
        -12    1    3    3    0    0 -0.11999094510E+02 -0.20542557388E+02 -0.28103471099E+02  0.36820918252E+02  0.00000000000E+00 0.  1.
         11    1    4    4    0    0  0.30108524306E+01  0.15902103338E+02  0.11422290305E+02  0.19809362408E+02  0.51100000000E-03 0. -1.
        -11    1    4    4    0    0  0.13048066076E+02  0.14506375843E+02  0.12010304829E+02  0.22911446719E+02  0.51100000000E-03 0.  1.
        -12    1    4    4    0    0 -0.40598239961E+01 -0.98659217921E+01  0.46708759647E+01  0.11646272621E+02  0.00000000000E+00 0.  1.
</event>
<event>
 8    1  0.2460897E-006  0.9118800E+02  0.7816164E-02  0.1184000E+00
        -11   -1    0    0    0    0  0.00000000000E+00  0.00000000000E+00  0.45593999997E+02  0.45594000000E+02  0.51100000000E-03 0. -1.
         11   -1    0    0    0    0 -0.00000000000E+00 -0.00000000000E+00 -0.45593999997E+02  0.45594000000E+02  0.51100000000E-03 0.  1.
         23    2    1    2    0    0  0.00000000000E+00 -0.35527136788E-14  0.00000000000E+00  0.91188000000E+02  0.91188000000E+02 0.  0.
    9900012    2    3    3    0    0  0.19999692158E+02  0.24607555905E+02 -0.18715162050E+02  0.54367125694E+02  0.40000094645E+02 0.  0.
         12    1    3    3    0    0 -0.19999692158E+02 -0.24607555905E+02  0.18715162050E+02  0.36820874306E+02  0.00000000000E+00 0. -1.
         11    1    4    4    0    0  0.23040491695E+01 -0.97012814180E+01 -0.92469158544E+01  0.13598858658E+02  0.51100000000E-03 0. -1.
        -11    1    4    4    0    0  0.79092657626E+01  0.17452152287E+02 -0.14404920026E+00  0.19161285311E+02  0.51100000000E-03 0.  1.
         12    1    4    4    0    0  0.97863772262E+01  0.16856685036E+02 -0.93241969957E+01  0.21606981725E+02  0.00000000000E+00 0. -1.
</event>
<event>
 8    1  0.2460897E-006  0.9118800E+02  0.7816164E-02  0.1184000E+00
        -11   -1    0    0    0    0  0.00000000000E+00  0.00000000000E+00  0.45593999997E+02  0.45594000000E+02  0.51100000000E-03 0.  1.
         11   -1    0    0    0    0 -0.00000000000E+00 -0.00000000000E+00 -0.45593999997E+02  0.45594000000E+02  0.51100000000E-03 0. -1.
         23    2    1    2    0    0 -0.17763568394E-14  0.17763568394E-14  0.00000000000E+00  0.91188000000E+02  0.91188000000E+02 0.  0.
    9900012    2    3    3    0    0 -0.11392306488E+02  0.11437106534E+02  0.33093634684E+02  0.54367072397E+02  0.39999973143E+02 0.  0.
         12    1    3    3    0    0  0.11392306488E+02 -0.11437106534E+02 -0.33093634684E+02  0.36820927603E+02  0.00000000000E+00 0. -1.
         11    1    4    4    0    0  0.30209494418E+01  0.65872091335E+01 -0.20813310198E+01  0.75398540287E+01  0.51100000000E-03 0. -1.
        -11    1    4    4    0    0  0.56700314162E+01  0.84858754556E+01  0.14887071043E+02  0.18049493705E+02  0.51100000000E-03 0.  1.
        -12    1    4    4    0    0 -0.20083287346E+02 -0.36359780554E+01  0.20287894661E+02  0.28777724663E+02  0.00000000000E+00 0.  1.
</event>
<event>
 8    1  0.2460897E-006  0.9118800E+02  0.7816164E-02  0.1184000E+00
        -11   -1    0    0    0    0  0.00000000000E+00  0.00000000000E+00  0.45593999997E+02  0.45594000000E+02  0.51100000000E-03 0.  1.
         11   -1    0    0    0    0 -0.00000000000E+00 -0.00000000000E+00 -0.45593999997E+02  0.45594000000E+02  0.51100000000E-03 0. -1.
         23    2    1    2    0    0  0.35527136788E-14  0.35527136788E-14  0.00000000000E+00  0.91188000000E+02  0.91188000000E+02 0.  0.
    9900012    2    3    3    0    0  0.26475782009E+02 -0.25303802259E+02 -0.38116278966E+01  0.54367109883E+02  0.40000058601E+02 0.  0.
        -12    1    3    3    0    0 -0.26475782009E+02  0.25303802259E+02  0.38116278966E+01  0.36820890117E+02  0.00000000000E+00 0.  1.
         11    1    4    4    0    0  0.81575953697E+01 -0.19518334525E+01 -0.24053085538E+01  0.87259111583E+01  0.51100000000E-03 0. -1.
        -11    1    4    4    0    0 -0.18759547111E+01  0.74085626040E+01 -0.42320837122E+01  0.87359337648E+01  0.51100000000E-03 0.  1.
        -12    1    4    4    0    0  0.20194141351E+02 -0.30760531410E+02  0.28257643694E+01  0.36905264960E+02  0.00000000000E+00 0.  1.
</event>
<event>
 8    1  0.2460897E-006  0.9118800E+02  0.7816164E-02  0.1184000E+00
        -11   -1    0    0    0    0  0.00000000000E+00  0.00000000000E+00  0.45593999997E+02  0.45594000000E+02  0.51100000000E-03 0.  1.
         11   -1    0    0    0    0 -0.00000000000E+00 -0.00000000000E+00 -0.45593999997E+02  0.45594000000E+02  0.51100000000E-03 0. -1.
         23    2    1    2    0    0 -0.17763568394E-14 -0.17763568394E-14  0.00000000000E+00  0.91188000000E+02  0.91188000000E+02 0.  0.
    9900012    2    3    3    0    0  0.85421126813E+01  0.58187136748E+01 -0.35340560427E+02  0.54367077562E+02  0.39999984917E+02 0.  0.
        -12    1    3    3    0    0 -0.85421126813E+01 -0.58187136748E+01  0.35340560427E+02  0.36820922438E+02  0.00000000000E+00 0.  1.
         11    1    4    4    0    0  0.37528996589E+01  0.64198643146E+01 -0.40491332875E+02  0.41168518943E+02  0.51100000000E-03 0. -1.
        -11    1    4    4    0    0  0.38393517417E+01  0.49830498285E+01  0.38879035602E+01  0.73950795631E+01  0.51100000000E-03 0.  1.
        -12    1    4    4    0    0  0.94986128069E+00 -0.55842004684E+01  0.12628688877E+01  0.58034790558E+01  0.00000000000E+00 0.  1.
</event>
<event>
 8    1  0.2460897E-006  0.9118800E+02  0.7816164E-02  0.1184000E+00
        -11   -1    0    0    0    0  0.00000000000E+00  0.00000000000E+00  0.45593999997E+02  0.45594000000E+02  0.51100000000E-03 0.  1.
         11   -1    0    0    0    0 -0.00000000000E+00 -0.00000000000E+00 -0.45593999997E+02  0.45594000000E+02  0.51100000000E-03 0. -1.
         23    2    1    2    0    0  0.00000000000E+00  0.00000000000E+00  0.00000000000E+00  0.91188000000E+02  0.91188000000E+02 0.  0.
    9900012    2    3    3    0    0 -0.12771721691E+02  0.16472412299E+02 -0.30353313317E+02  0.54367070202E+02  0.39999968140E+02 0.  0.
        -12    1    3    3    0    0  0.12771721691E+02 -0.16472412299E+02  0.30353313317E+02  0.36820929798E+02  0.00000000000E+00 0.  1.
         11    1    4    4    0    0 -0.23995086931E+01  0.20506943732E+02 -0.19396375006E+02  0.28328638280E+02  0.51100000000E-03 0. -1.
        -11    1    4    4    0    0 -0.10361068207E+02 -0.11154235134E+02 -0.11223230954E+02  0.18913741278E+02  0.51100000000E-03 0.  1.
        -12    1    4    4    0    0 -0.11144790410E-01  0.71197037009E+01  0.26629264318E+00  0.71246906436E+01  0.00000000000E+00 0.  1.
</event>
<event>
 8    1  0.2460897E-006  0.9118800E+02  0.7816164E-02  0.1184000E+00
        -11   -1    0    0    0    0  0.00000000000E+00  0.00000000000E+00  0.45593999997E+02  0.45594000000E+02  0.51100000000E-03 0. -1.
         11   -1    0    0    0    0 -0.00000000000E+00 -0.00000000000E+00 -0.45593999997E+02  0.45594000000E+02  0.51100000000E-03 0.  1.
         23    2    1    2    0    0  0.00000000000E+00  0.00000000000E+00  0.35527136788E-14  0.91188000000E+02  0.91188000000E+02 0.  0.
    9900012    2    3    3    0    0  0.22506196750E+02 -0.48200860579E+01 -0.28740534210E+02  0.54367076214E+02  0.39999981846E+02 0.  0.
         12    1    3    3    0    0 -0.22506196750E+02  0.48200860579E+01  0.28740534210E+02  0.36820923786E+02  0.00000000000E+00 0. -1.
         11    1    4    4    0    0 -0.56690690315E+01 -0.54482517637E+01  0.29478124320E+01  0.83971060110E+01  0.51100000000E-03 0. -1.
        -11    1    4    4    0    0  0.12112356576E+02  0.89725166280E+01 -0.12401990833E+02  0.19519851776E+02  0.51100000000E-03 0.  1.
         12    1    4    4    0    0  0.16062909205E+02 -0.83443509222E+01 -0.19286355809E+02  0.26450118427E+02  0.00000000000E+00 0. -1.
</event>
<event>
 8    1  0.2460897E-006  0.9118800E+02  0.7816164E-02  0.1184000E+00
        -11   -1    0    0    0    0  0.00000000000E+00  0.00000000000E+00  0.45593999997E+02  0.45594000000E+02  0.51100000000E-03 0.  1.
         11   -1    0    0    0    0 -0.00000000000E+00 -0.00000000000E+00 -0.45593999997E+02  0.45594000000E+02  0.51100000000E-03 0. -1.
         23    2    1    2    0    0  0.00000000000E+00  0.88817841970E-15  0.00000000000E+00  0.91188000000E+02  0.91188000000E+02 0.  0.
    9900012    2    3    3    0    0  0.31936759520E+02 -0.77896775643E+01 -0.16587434984E+02  0.54367099895E+02  0.40000035830E+02 0.  0.
        -12    1    3    3    0    0 -0.31936759520E+02  0.77896775643E+01  0.16587434984E+02  0.36820900105E+02  0.00000000000E+00 0.  1.
         11    1    4    4    0    0  0.56484708480E+01 -0.26075010256E+00 -0.21767214185E+02  0.22489660450E+02  0.51100000000E-03 0. -1.
        -11    1    4    4    0    0  0.52129986848E+00 -0.51283063054E+01  0.28602786138E+01  0.58951228252E+01  0.51100000000E-03 0.  1.
         12    1    4    4    0    0  0.25766988804E+02 -0.24006211563E+01  0.23195005869E+01  0.25982316620E+02  0.00000000000E+00 0. -1.
</event>
<event>
 8    1  0.2460897E-006  0.9118800E+02  0.7816164E-02  0.1184000E+00
        -11   -1    0    0    0    0  0.00000000000E+00  0.00000000000E+00  0.45593999997E+02  0.45594000000E+02  0.51100000000E-03 0. -1.
         11   -1    0    0    0    0 -0.00000000000E+00 -0.00000000000E+00 -0.45593999997E+02  0.45594000000E+02  0.51100000000E-03 0.  1.
         23    2    1    2    0    0  0.17763568394E-14  0.00000000000E+00  0.00000000000E+00  0.91188000000E+02  0.91188000000E+02 0.  0.
    9900012    2    3    3    0    0 -0.14375878531E+02  0.10653518210E+02  0.32180997156E+02  0.54367083231E+02  0.39999997841E+02 0.  0.
        -12    1    3    3    0    0  0.14375878531E+02 -0.10653518210E+02 -0.32180997156E+02  0.36820916769E+02  0.00000000000E+00 0.  1.
         11    1    4    4    0    0 -0.15371140944E+02  0.13634083598E+02  0.10889049836E+02  0.23253636620E+02  0.51100000000E-03 0. -1.
        -11    1    4    4    0    0  0.90097288470E+01  0.58595409667E+01  0.10481173681E+02  0.15012142959E+02  0.51100000000E-03 0.  1.
        -12    1    4    4    0    0 -0.80144664339E+01 -0.88401063552E+01  0.10810773640E+02  0.16101303651E+02  0.00000000000E+00 0.  1.
</event>
<event>
 8    1  0.2460897E-006  0.9118800E+02  0.7816164E-02  0.1184000E+00
        -11   -1    0    0    0    0  0.00000000000E+00  0.00000000000E+00  0.45593999997E+02  0.45594000000E+02  0.51100000000E-03 0.  1.
         11   -1    0    0    0    0 -0.00000000000E+00 -0.00000000000E+00 -0.45593999997E+02  0.45594000000E+02  0.51100000000E-03 0. -1.
         23    2    1    2    0    0 -0.88817841970E-15  0.00000000000E+00 -0.35527136788E-14  0.91188000000E+02  0.91188000000E+02 0.  0.
    9900012    2    3    3    0    0  0.43301310511E+01  0.23326948005E+02 -0.28158080480E+02  0.54367163040E+02  0.40000179781E+02 0.  0.
        -12    1    3    3    0    0 -0.43301310511E+01 -0.23326948005E+02  0.28158080480E+02  0.36820836960E+02  0.00000000000E+00 0.  1.
         11    1    4    4    0    0  0.98729229800E+01  0.18152639329E+02  0.39555626266E+01  0.21038997094E+02  0.51100000000E-03 0. -1.
        -11    1    4    4    0    0 -0.27749583328E+00  0.31965417304E+01 -0.95733527504E+01  0.10096730467E+02  0.51100000000E-03 0.  1.
        -12    1    4    4    0    0 -0.52652960957E+01  0.19777669459E+01 -0.22540290356E+02  0.23231435479E+02  0.00000000000E+00 0.  1.
</event>
<event>
 8    1  0.2460897E-006  0.9118800E+02  0.7816164E-02  0.1184000E+00
        -11   -1    0    0    0    0  0.00000000000E+00  0.00000000000E+00  0.45593999997E+02  0.45594000000E+02  0.51100000000E-03 0.  1.
         11   -1    0    0    0    0 -0.00000000000E+00 -0.00000000000E+00 -0.45593999997E+02  0.45594000000E+02  0.51100000000E-03 0. -1.
         23    2    1    2    0    0  0.00000000000E+00  0.00000000000E+00  0.00000000000E+00  0.91188000000E+02  0.91188000000E+02 0.  0.
    9900012    2    3    3    0    0 -0.18899197494E+02  0.26834692463E+02 -0.16688323575E+02  0.54367074845E+02  0.39999978725E+02 0.  0.
         12    1    3    3    0    0  0.18899197494E+02 -0.26834692463E+02  0.16688323575E+02  0.36820925155E+02  0.00000000000E+00 0. -1.
         11    1    4    4    0    0 -0.15311837730E+02  0.27610726790E+02 -0.19426712572E+02  0.37070227544E+02  0.51100000000E-03 0. -1.
        -11    1    4    4    0    0 -0.93159546114E+01 -0.19818405170E+00  0.55957421337E+01  0.10869159007E+02  0.51100000000E-03 0.  1.
         12    1    4    4    0    0  0.57285948465E+01 -0.57785027599E+00 -0.28573531370E+01  0.64276882941E+01  0.00000000000E+00 0. -1.
</event>
<event>
 8    1  0.2460897E-006  0.9118800E+02  0.7816164E-02  0.1184000E+00
        -11   -1    0    0    0    0  0.00000000000E+00  0.00000000000E+00  0.45593999997E+02  0.45594000000E+02  0.51100000000E-03 0.  1.
         11   -1    0    0    0    0 -0.00000000000E+00 -0.00000000000E+00 -0.45593999997E+02  0.45594000000E+02  0.51100000000E-03 0. -1.
         23    2    1    2    0    0  0.00000000000E+00  0.00000000000E+00 -0.35527136788E-14  0.91188000000E+02  0.91188000000E+02 0.  0.
    9900012    2    3    3    0    0 -0.13235551539E+02 -0.24036557817E+02  0.24552883794E+02  0.54367081505E+02  0.39999993907E+02 0.  0.
         12    1    3    3    0    0  0.13235551539E+02  0.24036557817E+02 -0.24552883794E+02  0.36820918495E+02  0.00000000000E+00 0. -1.
         11    1    4    4    0    0 -0.29554525462E-01 -0.92617214245E+01  0.13344602289E+01  0.93574110511E+01  0.51100000000E-03 0. -1.
        -11    1    4    4    0    0 -0.96964917511E+01 -0.13045298563E+02 -0.46196340545E+01  0.16898011302E+02  0.51100000000E-03 0.  1.
        -12    1    4    4    0    0 -0.35095052626E+01 -0.17295378287E+01  0.27838057619E+02  0.28111659152E+02  0.00000000000E+00 0.  1.
</event>
<event>
 8    1  0.2460897E-006  0.9118800E+02  0.7816164E-02  0.1184000E+00
        -11   -1    0    0    0    0  0.00000000000E+00  0.00000000000E+00  0.45593999997E+02  0.45594000000E+02  0.51100000000E-03 0.  1.
         11   -1    0    0    0    0 -0.00000000000E+00 -0.00000000000E+00 -0.45593999997E+02  0.45594000000E+02  0.51100000000E-03 0. -1.
         23    2    1    2    0    0  0.00000000000E+00 -0.35527136788E-14 -0.17763568394E-14  0.91188000000E+02  0.91188000000E+02 0.  0.
    9900012    2    3    3    0    0  0.19290956787E+02 -0.30127453377E+02  0.87163860825E+01  0.54367084109E+02  0.39999999843E+02 0.  0.
        -12    1    3    3    0    0 -0.19290956787E+02  0.30127453377E+02 -0.87163860825E+01  0.36820915891E+02  0.00000000000E+00 0.  1.
         11    1    4    4    0    0  0.14485658643E+02 -0.20194390944E+02  0.21686855300E+02  0.32984351214E+02  0.51100000000E-03 0. -1.
        -11    1    4    4    0    0 -0.40723643158E+01 -0.54568527578E+01 -0.70972639726E+01  0.98352706774E+01  0.51100000000E-03 0.  1.
         12    1    4    4    0    0  0.88776624599E+01 -0.44762096751E+01 -0.58732052454E+01  0.11547462217E+02  0.00000000000E+00 0. -1.
</event>
<event>
 8    1  0.2460897E-006  0.9118800E+02  0.7816164E-02  0.1184000E+00
        -11   -1    0    0    0    0  0.00000000000E+00  0.00000000000E+00  0.45593999997E+02  0.45594000000E+02  0.51100000000E-03 0.  1.
         11   -1    0    0    0    0 -0.00000000000E+00 -0.00000000000E+00 -0.45593999997E+02  0.45594000000E+02  0.51100000000E-03 0. -1.
         23    2    1    2    0    0  0.00000000000E+00  0.00000000000E+00  0.00000000000E+00  0.91188000000E+02  0.91188000000E+02 0.  0.
    9900012    2    3    3    0    0 -0.27827605577E+02 -0.13080608307E+02 -0.20255956808E+02  0.54367058513E+02  0.39999941491E+02 0.  0.
        -12    1    3    3    0    0  0.27827605577E+02  0.13080608307E+02  0.20255956808E+02  0.36820941487E+02  0.00000000000E+00 0.  1.
         11    1    4    4    0    0 -0.51089354393E+01 -0.90716486409E+01 -0.13006972085E+02  0.16660652852E+02  0.51100000000E-03 0.  1.
        -11    1    4    4    0    0 -0.23775097334E+02 -0.85885680375E+01  0.39273483263E+01  0.25582080043E+02  0.51100000000E-03 0. -1.
         12    1    4    4    0    0  0.10564271964E+01  0.45796083717E+01 -0.11176333049E+02  0.12124325617E+02  0.00000000000E+00 0. -1.
</event>
<event>
 8    1  0.2460897E-006  0.9118800E+02  0.7816164E-02  0.1184000E+00
        -11   -1    0    0    0    0  0.00000000000E+00  0.00000000000E+00  0.45593999997E+02  0.45594000000E+02  0.51100000000E-03 0. -1.
         11   -1    0    0    0    0 -0.00000000000E+00 -0.00000000000E+00 -0.45593999997E+02  0.45594000000E+02  0.51100000000E-03 0.  1.
         23    2    1    2    0    0 -0.35527136788E-14  0.00000000000E+00  0.35527136788E-14  0.91188000000E+02  0.91188000000E+02 0.  0.
    9900012    2    3    3    0    0  0.16939036613E+02  0.12522840804E+02 -0.30199802771E+02  0.54367074013E+02  0.39999976826E+02 0.  0.
         12    1    3    3    0    0 -0.16939036613E+02 -0.12522840804E+02  0.30199802771E+02  0.36820925987E+02  0.00000000000E+00 0. -1.
         11    1    4    4    0    0 -0.31262668118E+01  0.16671521677E+02 -0.16481879277E+02  0.23650909580E+02  0.51100000000E-03 0. -1.
        -11    1    4    4    0    0  0.51835822361E+00  0.49978338525E+01 -0.59309080595E+01  0.77732045603E+01  0.51100000000E-03 0.  1.
         12    1    4    4    0    0  0.19546945201E+02 -0.91465147253E+01 -0.77870154342E+01  0.22942959872E+02  0.00000000000E+00 0. -1.
</event>
<event>
 8    1  0.2460897E-006  0.9118800E+02  0.7816164E-02  0.1184000E+00
        -11   -1    0    0    0    0  0.00000000000E+00  0.00000000000E+00  0.45593999997E+02  0.45594000000E+02  0.51100000000E-03 0.  1.
         11   -1    0    0    0    0 -0.00000000000E+00 -0.00000000000E+00 -0.45593999997E+02  0.45594000000E+02  0.51100000000E-03 0. -1.
         23    2    1    2    0    0  0.00000000000E+00  0.17763568394E-14  0.00000000000E+00  0.91188000000E+02  0.91188000000E+02 0.  0.
    9900012    2    3    3    0    0  0.31578876985E+02  0.13114008670E+02 -0.13659356355E+02  0.54367072377E+02  0.39999973097E+02 0.  0.
        -12    1    3    3    0    0 -0.31578876985E+02 -0.13114008670E+02  0.13659356355E+02  0.36820927623E+02  0.00000000000E+00 0.  1.
         11    1    4    4    0    0  0.17637379839E+02 -0.90228441600E+01 -0.10495140809E+02  0.22419564340E+02  0.51100000000E-03 0. -1.
        -11    1    4    4    0    0  0.51394495135E+00  0.14915750834E+02  0.34665595010E+01  0.15321905802E+02  0.51100000000E-03 0.  1.
        -12    1    4    4    0    0  0.13427552194E+02  0.72211019957E+01 -0.66307750476E+01  0.16625602235E+02  0.00000000000E+00 0.  1.
</event>
<event>
 8    1  0.2460897E-006  0.9118800E+02  0.7816164E-02  0.1184000E+00
        -11   -1    0    0    0    0  0.00000000000E+00  0.00000000000E+00  0.45593999997E+02  0.45594000000E+02  0.51100000000E-03 0.  1.
         11   -1    0    0    0    0 -0.00000000000E+00 -0.00000000000E+00 -0.45593999997E+02  0.45594000000E+02  0.51100000000E-03 0. -1.
         23    2    1    2    0    0  0.35527136788E-14  0.17763568394E-14  0.00000000000E+00  0.91188000000E+02  0.91188000000E+02 0.  0.
    9900012    2    3    3    0    0 -0.23173126777E+02  0.12659015478E+02 -0.25661945854E+02  0.54367082813E+02  0.39999996888E+02 0.  0.
        -12    1    3    3    0    0  0.23173126777E+02 -0.12659015478E+02  0.25661945854E+02  0.36820917187E+02  0.00000000000E+00 0.  1.
         11    1    4    4    0    0 -0.12265548887E+02 -0.52080782254E+01 -0.95605572300E+01  0.16400366554E+02  0.51100000000E-03 0. -1.
        -11    1    4    4    0    0 -0.89876694323E+01  0.34136499018E+01 -0.20579213839E+02  0.22714208108E+02  0.51100000000E-03 0.  1.
        -12    1    4    4    0    0 -0.19199084580E+01  0.14453443802E+02  0.44778252153E+01  0.15252508151E+02  0.00000000000E+00 0.  1.
</event>
<event>
 8    1  0.2460897E-006  0.9118800E+02  0.7816164E-02  0.1184000E+00
        -11   -1    0    0    0    0  0.00000000000E+00  0.00000000000E+00  0.45593999997E+02  0.45594000000E+02  0.51100000000E-03 0. -1.
         11   -1    0    0    0    0 -0.00000000000E+00 -0.00000000000E+00 -0.45593999997E+02  0.45594000000E+02  0.51100000000E-03 0.  1.
         23    2    1    2    0    0  0.00000000000E+00  0.00000000000E+00  0.44408920985E-15  0.91188000000E+02  0.91188000000E+02 0.  0.
    9900012    2    3    3    0    0 -0.36681516314E+02  0.23624039741E+01 -0.21594582991E+01  0.54367111203E+02  0.40000061609E+02 0.  0.
         12    1    3    3    0    0  0.36681516314E+02 -0.23624039741E+01  0.21594582991E+01  0.36820888797E+02  0.00000000000E+00 0. -1.
         11    1    4    4    0    0 -0.34854020522E+02  0.64623117426E+01 -0.67399138683E+01  0.36083107666E+02  0.51100000000E-03 0.  1.
        -11    1    4    4    0    0 -0.65690576335E+01 -0.83302155611E+01  0.53531885262E+01  0.11882829509E+02  0.51100000000E-03 0. -1.
         12    1    4    4    0    0  0.47415618412E+01  0.42303077926E+01 -0.77273295709E+00  0.64011740280E+01  0.00000000000E+00 0. -1.
</event>
<event>
 8    1  0.2460897E-006  0.9118800E+02  0.7816164E-02  0.1184000E+00
        -11   -1    0    0    0    0  0.00000000000E+00  0.00000000000E+00  0.45593999997E+02  0.45594000000E+02  0.51100000000E-03 0.  1.
         11   -1    0    0    0    0 -0.00000000000E+00 -0.00000000000E+00 -0.45593999997E+02  0.45594000000E+02  0.51100000000E-03 0. -1.
         23    2    1    2    0    0  0.00000000000E+00  0.35527136788E-14  0.35527136788E-14  0.91188000000E+02  0.91188000000E+02 0.  0.
    9900012    2    3    3    0    0  0.27191762404E+02  0.16569193959E+02  0.18489188117E+02  0.54367079203E+02  0.39999988660E+02 0.  0.
         12    1    3    3    0    0 -0.27191762404E+02 -0.16569193959E+02 -0.18489188117E+02  0.36820920797E+02  0.00000000000E+00 0. -1.
         11    1    4    4    0    0  0.17506163320E+02  0.10269492816E+02  0.99633090904E+00  0.20320455517E+02  0.51100000000E-03 0. -1.
        -11    1    4    4    0    0  0.14843874486E+02  0.12573069705E+02  0.17124331591E+02  0.25916508720E+02  0.51100000000E-03 0.  1.
         12    1    4    4    0    0 -0.51582754018E+01 -0.62733685617E+01  0.36852561755E+00  0.81301149662E+01  0.00000000000E+00 0. -1.
</event>
<event>
 8    1  0.2460897E-006  0.9118800E+02  0.7816164E-02  0.1184000E+00
        -11   -1    0    0    0    0  0.00000000000E+00  0.00000000000E+00  0.45593999997E+02  0.45594000000E+02  0.51100000000E-03 0. -1.
         11   -1    0    0    0    0 -0.00000000000E+00 -0.00000000000E+00 -0.45593999997E+02  0.45594000000E+02  0.51100000000E-03 0.  1.
         23    2    1    2    0    0  0.00000000000E+00  0.00000000000E+00  0.22204460493E-15  0.91188000000E+02  0.91188000000E+02 0.  0.
    9900012    2    3    3    0    0  0.82918289422E+01  0.35840847127E+02 -0.15680504104E+01  0.54367088386E+02  0.40000009593E+02 0.  0.
         12    1    3    3    0    0 -0.82918289422E+01 -0.35840847127E+02  0.15680504104E+01  0.36820911614E+02  0.00000000000E+00 0. -1.
         11    1    4    4    0    0  0.16924560443E+01  0.14836374455E+02 -0.15958354945E+02  0.21855239812E+02  0.51100000000E-03 0.  1.
        -11    1    4    4    0    0  0.86256334235E+01  0.12590759133E+01  0.15019240004E+01  0.88454847281E+01  0.51100000000E-03 0. -1.
        -12    1    4    4    0    0 -0.20262605255E+01  0.19745396759E+02  0.12888380534E+02  0.23666363846E+02  0.00000000000E+00 0.  1.
</event>
<event>
 8    1  0.2460897E-006  0.9118800E+02  0.7816164E-02  0.1184000E+00
        -11   -1    0    0    0    0  0.00000000000E+00  0.00000000000E+00  0.45593999997E+02  0.45594000000E+02  0.51100000000E-03 0.  1.
         11   -1    0    0    0    0 -0.00000000000E+00 -0.00000000000E+00 -0.45593999997E+02  0.45594000000E+02  0.51100000000E-03 0. -1.
         23    2    1    2    0    0  0.35527136788E-14  0.00000000000E+00  0.00000000000E+00  0.91188000000E+02  0.91188000000E+02 0.  0.
    9900012    2    3    3    0    0 -0.27075157700E+02 -0.24836319228E+02 -0.24234918638E+01  0.54367078907E+02  0.39999987985E+02 0.  0.
        -12    1    3    3    0    0  0.27075157700E+02  0.24836319228E+02  0.24234918638E+01  0.36820921093E+02  0.00000000000E+00 0.  1.
         11    1    4    4    0    0 -0.14810962178E+01 -0.26359928306E+01 -0.10391955581E+01  0.31971912484E+01  0.51100000000E-03 0. -1.
        -11    1    4    4    0    0 -0.28436263825E+02 -0.21415232283E+02  0.11921427336E+02  0.37541359912E+02  0.51100000000E-03 0.  1.
        -12    1    4    4    0    0  0.28422023433E+01 -0.78509411491E+00 -0.13305723641E+02  0.13628527747E+02  0.00000000000E+00 0.  1.
</event>
<event>
 8    1  0.2460897E-006  0.9118800E+02  0.7816164E-02  0.1184000E+00
        -11   -1    0    0    0    0  0.00000000000E+00  0.00000000000E+00  0.45593999997E+02  0.45594000000E+02  0.51100000000E-03 0.  1.
         11   -1    0    0    0    0 -0.00000000000E+00 -0.00000000000E+00 -0.45593999997E+02  0.45594000000E+02  0.51100000000E-03 0. -1.
         23    2    1    2    0    0 -0.35527136788E-14  0.00000000000E+00  0.35527136788E-14  0.91188000000E+02  0.91188000000E+02 0.  0.
    9900012    2    3    3    0    0  0.23618979281E+02  0.12943028220E+01 -0.28217883903E+02  0.54367076953E+02  0.39999983529E+02 0.  0.
        -12    1    3    3    0    0 -0.23618979281E+02 -0.12943028220E+01  0.28217883903E+02  0.36820923047E+02  0.00000000000E+00 0.  1.
         11    1    4    4    0    0 -0.10301301895E+02 -0.21902043919E+00 -0.52185556073E+01  0.11549810110E+02  0.51100000000E-03 0. -1.
        -11    1    4    4    0    0  0.19186954889E+02 -0.29733284355E+01 -0.70783040475E+01  0.20665969814E+02  0.51100000000E-03 0.  1.
         12    1    4    4    0    0  0.14733326287E+02  0.44866516967E+01 -0.15921024248E+02  0.22151297028E+02  0.00000000000E+00 0. -1.
</event>
<event>
 8    1  0.2460897E-006  0.9118800E+02  0.7816164E-02  0.1184000E+00
        -11   -1    0    0    0    0  0.00000000000E+00  0.00000000000E+00  0.45593999997E+02  0.45594000000E+02  0.51100000000E-03 0.  1.
         11   -1    0    0    0    0 -0.00000000000E+00 -0.00000000000E+00 -0.45593999997E+02  0.45594000000E+02  0.51100000000E-03 0. -1.
         23    2    1    2    0    0 -0.44408920985E-15  0.00000000000E+00  0.00000000000E+00  0.91188000000E+02  0.91188000000E+02 0.  0.
    9900012    2    3    3    0    0 -0.17157023649E+01 -0.36560636398E+02 -0.40193757067E+01  0.54367093582E+02  0.40000021438E+02 0.  0.
         12    1    3    3    0    0  0.17157023649E+01  0.36560636398E+02  0.40193757067E+01  0.36820906418E+02  0.00000000000E+00 0. -1.
         11    1    4    4    0    0 -0.48522619832E+01 -0.78831931059E+01 -0.11922586041E+02  0.15094278322E+02  0.51100000000E-03 0. -1.
        -11    1    4    4    0    0  0.38947402946E+01 -0.13733244123E+02 -0.88613516074E+01  0.16801623394E+02  0.51100000000E-03 0.  1.
        -12    1    4    4    0    0 -0.75818067625E+00 -0.14944199169E+02  0.16764561942E+02  0.22471191865E+02  0.00000000000E+00 0.  1.
</event>
<event>
 8    1  0.2460897E-006  0.9118800E+02  0.7816164E-02  0.1184000E+00
        -11   -1    0    0    0    0  0.00000000000E+00  0.00000000000E+00  0.45593999997E+02  0.45594000000E+02  0.51100000000E-03 0. -1.
         11   -1    0    0    0    0 -0.00000000000E+00 -0.00000000000E+00 -0.45593999997E+02  0.45594000000E+02  0.51100000000E-03 0.  1.
         23    2    1    2    0    0 -0.35527136788E-14  0.00000000000E+00  0.00000000000E+00  0.91188000000E+02  0.91188000000E+02 0.  0.
    9900012    2    3    3    0    0  0.31044753608E+02  0.90511347376E+01 -0.17609107593E+02  0.54367076100E+02  0.39999981585E+02 0.  0.
         12    1    3    3    0    0 -0.31044753608E+02 -0.90511347376E+01  0.17609107593E+02  0.36820923900E+02  0.00000000000E+00 0. -1.
         11    1    4    4    0    0  0.49351436193E+01  0.23260670535E+01  0.43148696526E+01  0.69558846210E+01  0.51100000000E-03 0. -1.
        -11    1    4    4    0    0  0.13401206694E+02 -0.12870054091E+02 -0.80811710666E+01  0.20261686979E+02  0.51100000000E-03 0.  1.
        -12    1    4    4    0    0  0.12708403295E+02  0.19595121775E+02 -0.13842806179E+02  0.27149504500E+02  0.00000000000E+00 0.  1.
</event>
<event>
 8    1  0.2460897E-006  0.9118800E+02  0.7816164E-02  0.1184000E+00
        -11   -1    0    0    0    0  0.00000000000E+00  0.00000000000E+00  0.45593999997E+02  0.45594000000E+02  0.51100000000E-03 0.  1.
         11   -1    0    0    0    0 -0.00000000000E+00 -0.00000000000E+00 -0.45593999997E+02  0.45594000000E+02  0.51100000000E-03 0. -1.
         23    2    1    2    0    0 -0.35527136788E-14 -0.19984014443E-14  0.00000000000E+00  0.91188000000E+02  0.91188000000E+02 0.  0.
    9900012    2    3    3    0    0  0.27827939355E+02 -0.12223195133E+01  0.24080955577E+02  0.54367072591E+02  0.39999973586E+02 0.  0.
         12    1    3    3    0    0 -0.27827939355E+02  0.12223195133E+01 -0.24080955577E+02  0.36820927409E+02  0.00000000000E+00 0. -1.
         11    1    4    4    0    0  0.57647039420E+00  0.24361040866E+01  0.38172187365E+01  0.45648746291E+01  0.51100000000E-03 0. -1.
        -11    1    4    4    0    0  0.43949546702E+01 -0.17986808672E+02  0.80860901674E+01  0.20204597675E+02  0.51100000000E-03 0.  1.
        -12    1    4    4    0    0  0.22856514290E+02  0.14328385072E+02  0.12177646673E+02  0.29597600287E+02  0.00000000000E+00 0.  1.
</event>
<event>
 8    1  0.2460897E-006  0.9118800E+02  0.7816164E-02  0.1184000E+00
        -11   -1    0    0    0    0  0.00000000000E+00  0.00000000000E+00  0.45593999997E+02  0.45594000000E+02  0.51100000000E-03 0.  1.
         11   -1    0    0    0    0 -0.00000000000E+00 -0.00000000000E+00 -0.45593999997E+02  0.45594000000E+02  0.51100000000E-03 0. -1.
         23    2    1    2    0    0 -0.35527136788E-14 -0.35527136788E-14  0.00000000000E+00  0.91188000000E+02  0.91188000000E+02 0.  0.
    9900012    2    3    3    0    0 -0.31321249531E+02 -0.16344936371E+02  0.10373147757E+02  0.54367084591E+02  0.40000000943E+02 0.  0.
         12    1    3    3    0    0  0.31321249531E+02  0.16344936371E+02 -0.10373147757E+02  0.36820915409E+02  0.00000000000E+00 0. -1.
         11    1    4    4    0    0 -0.20149734512E+02 -0.43186910776E+01  0.11455498682E+02  0.23577348109E+02  0.51100000000E-03 0. -1.
        -11    1    4    4    0    0 -0.17903212403E+02 -0.12848811876E+02  0.38939124181E+01  0.22378103923E+02  0.51100000000E-03 0.  1.
         12    1    4    4    0    0  0.67316973846E+01  0.82256658318E+00 -0.49762633433E+01  0.84116325599E+01  0.00000000000E+00 0. -1.
</event>
<event>
 8    1  0.2460897E-006  0.9118800E+02  0.7816164E-02  0.1184000E+00
        -11   -1    0    0    0    0  0.00000000000E+00  0.00000000000E+00  0.45593999997E+02  0.45594000000E+02  0.51100000000E-03 0.  1.
         11   -1    0    0    0    0 -0.00000000000E+00 -0.00000000000E+00 -0.45593999997E+02  0.45594000000E+02  0.51100000000E-03 0. -1.
         23    2    1    2    0    0  0.11102230246E-14  0.00000000000E+00  0.00000000000E+00  0.91188000000E+02  0.91188000000E+02 0.  0.
    9900012    2    3    3    0    0  0.46173591472E+00  0.21315570494E+02 -0.30020216889E+02  0.54367079757E+02  0.39999989921E+02 0.  0.
        -12    1    3    3    0    0 -0.46173591472E+00 -0.21315570494E+02  0.30020216889E+02  0.36820920243E+02  0.00000000000E+00 0.  1.
         11    1    4    4    0    0  0.15809496397E+01  0.22578216622E+02 -0.26786904717E+02  0.35068697326E+02  0.51100000000E-03 0. -1.
        -11    1    4    4    0    0 -0.84627012903E+01 -0.59116696436E+01 -0.20845518315E+01  0.10531405780E+02  0.51100000000E-03 0.  1.
         12    1    4    4    0    0  0.73434875654E+01  0.46490235150E+01 -0.11487603406E+01  0.87669766503E+01  0.00000000000E+00 0. -1.
</event>
<event>
 8    1  0.2460897E-006  0.9118800E+02  0.7816164E-02  0.1184000E+00
        -11   -1    0    0    0    0  0.00000000000E+00  0.00000000000E+00  0.45593999997E+02  0.45594000000E+02  0.51100000000E-03 0.  1.
         11   -1    0    0    0    0 -0.00000000000E+00 -0.00000000000E+00 -0.45593999997E+02  0.45594000000E+02  0.51100000000E-03 0. -1.
         23    2    1    2    0    0  0.00000000000E+00 -0.17763568394E-14  0.71054273576E-14  0.91188000000E+02  0.91188000000E+02 0.  0.
    9900012    2    3    3    0    0  0.11905294055E+02  0.71244512659E+01 -0.34106983279E+02  0.54367080120E+02  0.39999990750E+02 0.  0.
        -12    1    3    3    0    0 -0.11905294055E+02 -0.71244512659E+01  0.34106983279E+02  0.36820919880E+02  0.00000000000E+00 0.  1.
         11    1    4    4    0    0  0.32478218705E+01 -0.45444223827E+01  0.16421849166E+00  0.55881204057E+01  0.51100000000E-03 0. -1.
        -11    1    4    4    0    0  0.86907105735E+01  0.31585649518E+01  0.36301248707E+01  0.99339211626E+01  0.51100000000E-03 0.  1.
         12    1    4    4    0    0 -0.33238388874E-01  0.85103086967E+01 -0.37901326642E+02  0.38845038552E+02  0.00000000000E+00 0. -1.
</event>
<event>
 8    1  0.2460897E-006  0.9118800E+02  0.7816164E-02  0.1184000E+00
        -11   -1    0    0    0    0  0.00000000000E+00  0.00000000000E+00  0.45593999997E+02  0.45594000000E+02  0.51100000000E-03 0. -1.
         11   -1    0    0    0    0 -0.00000000000E+00 -0.00000000000E+00 -0.45593999997E+02  0.45594000000E+02  0.51100000000E-03 0.  1.
         23    2    1    2    0    0  0.35527136788E-14  0.35527136788E-14 -0.17763568394E-14  0.91188000000E+02  0.91188000000E+02 0.  0.
    9900012    2    3    3    0    0 -0.30429822730E+02 -0.18876505384E+02 -0.85719369640E+01  0.54367154407E+02  0.40000160100E+02 0.  0.
         12    1    3    3    0    0  0.30429822730E+02  0.18876505384E+02  0.85719369640E+01  0.36820845593E+02  0.00000000000E+00 0. -1.
         11    1    4    4    0    0 -0.49715109155E+01  0.58921821004E+01  0.76437690449E+01  0.10856377672E+02  0.51100000000E-03 0. -1.
        -11    1    4    4    0    0 -0.62911097448E+01  0.24143457088E+01 -0.59625779395E+00  0.67648097268E+01  0.51100000000E-03 0.  1.
         12    1    4    4    0    0 -0.19167202070E+02 -0.27183033194E+02 -0.15619448215E+02  0.36745967008E+02  0.00000000000E+00 0. -1.
</event>
<event>
 8    1  0.2460897E-006  0.9118800E+02  0.7816164E-02  0.1184000E+00
        -11   -1    0    0    0    0  0.00000000000E+00  0.00000000000E+00  0.45593999997E+02  0.45594000000E+02  0.51100000000E-03 0.  1.
         11   -1    0    0    0    0 -0.00000000000E+00 -0.00000000000E+00 -0.45593999997E+02  0.45594000000E+02  0.51100000000E-03 0. -1.
         23    2    1    2    0    0 -0.35527136788E-14 -0.88817841970E-15  0.35527136788E-14  0.91188000000E+02  0.91188000000E+02 0.  0.
    9900012    2    3    3    0    0  0.23286619952E+02 -0.12314743260E+01 -0.28495553628E+02  0.54367085096E+02  0.40000002092E+02 0.  0.
        -12    1    3    3    0    0 -0.23286619952E+02  0.12314743260E+01  0.28495553628E+02  0.36820914904E+02  0.00000000000E+00 0.  1.
         11    1    4    4    0    0  0.50319901522E+01  0.11345744869E+02 -0.21720799898E+02  0.25016794359E+02  0.51100000000E-03 0. -1.
        -11    1    4    4    0    0  0.69549283974E+01  0.32675304084E+01 -0.62116655670E+01  0.98809196617E+01  0.51100000000E-03 0.  1.
        -12    1    4    4    0    0  0.11299701403E+02 -0.15844749603E+02 -0.56308816351E+00  0.19469371075E+02  0.00000000000E+00 0.  1.
</event>
<event>
 8    1  0.2460897E-006  0.9118800E+02  0.7816164E-02  0.1184000E+00
        -11   -1    0    0    0    0  0.00000000000E+00  0.00000000000E+00  0.45593999997E+02  0.45594000000E+02  0.51100000000E-03 0.  1.
         11   -1    0    0    0    0 -0.00000000000E+00 -0.00000000000E+00 -0.45593999997E+02  0.45594000000E+02  0.51100000000E-03 0. -1.
         23    2    1    2    0    0  0.00000000000E+00 -0.11102230246E-15  0.71054273576E-14  0.91188000000E+02  0.91188000000E+02 0.  0.
    9900012    2    3    3    0    0  0.83120808674E+01 -0.26540777518E+00  0.35869508598E+02  0.54367044326E+02  0.39999909151E+02 0.  0.
         12    1    3    3    0    0 -0.83120808674E+01  0.26540777518E+00 -0.35869508598E+02  0.36820955674E+02  0.00000000000E+00 0. -1.
         11    1    4    4    0    0  0.93972384174E+01 -0.10076236232E+01 -0.74987189865E+00  0.94808071051E+01  0.51100000000E-03 0. -1.
        -11    1    4    4    0    0  0.67190121320E+01 -0.21407894957E+01 -0.28314961619E+00  0.70574979746E+01  0.51100000000E-03 0.  1.
        -12    1    4    4    0    0 -0.78041696820E+01  0.28830053438E+01  0.36902530113E+02  0.37828739247E+02  0.00000000000E+00 0.  1.
</event>
<event>
 8    1  0.2460897E-006  0.9118800E+02  0.7816164E-02  0.1184000E+00
        -11   -1    0    0    0    0  0.00000000000E+00  0.00000000000E+00  0.45593999997E+02  0.45594000000E+02  0.51100000000E-03 0. -1.
         11   -1    0    0    0    0 -0.00000000000E+00 -0.00000000000E+00 -0.45593999997E+02  0.45594000000E+02  0.51100000000E-03 0.  1.
         23    2    1    2    0    0  0.00000000000E+00  0.00000000000E+00 -0.22204460493E-15  0.91188000000E+02  0.91188000000E+02 0.  0.
    9900012    2    3    3    0    0 -0.18964419070E+02 -0.31561341192E+02 -0.11407457178E+00  0.54367075765E+02  0.39999980822E+02 0.  0.
         12    1    3    3    0    0  0.18964419070E+02  0.31561341192E+02  0.11407457178E+00  0.36820924235E+02  0.00000000000E+00 0. -1.
         11    1    4    4    0    0  0.36370644649E+01 -0.12529713087E+02 -0.56122028963E+00  0.13058978384E+02  0.51100000000E-03 0. -1.
        -11    1    4    4    0    0 -0.22798826417E+02 -0.19180888481E+02  0.10245545878E+02  0.31506573593E+02  0.51100000000E-03 0.  1.
        -12    1    4    4    0    0  0.19734288261E+00  0.14926037599E+00 -0.97984001606E+01  0.98015237887E+01  0.00000000000E+00 0.  1.
</event>
<event>
 8    1  0.2460897E-006  0.9118800E+02  0.7816164E-02  0.1184000E+00
        -11   -1    0    0    0    0  0.00000000000E+00  0.00000000000E+00  0.45593999997E+02  0.45594000000E+02  0.51100000000E-03 0.  1.
         11   -1    0    0    0    0 -0.00000000000E+00 -0.00000000000E+00 -0.45593999997E+02  0.45594000000E+02  0.51100000000E-03 0. -1.
         23    2    1    2    0    0  0.00000000000E+00  0.00000000000E+00  0.00000000000E+00  0.91188000000E+02  0.91188000000E+02 0.  0.
    9900012    2    3    3    0    0 -0.25736277640E+01  0.16836952199E+01 -0.36692248305E+02  0.54367089159E+02  0.40000011356E+02 0.  0.
        -12    1    3    3    0    0  0.25736277640E+01 -0.16836952199E+01  0.36692248305E+02  0.36820910841E+02  0.00000000000E+00 0.  1.
         11    1    4    4    0    0  0.24398744115E+00  0.29809983597E+00  0.15920326747E+01  0.16379748722E+01  0.51100000000E-03 0. -1.
        -11    1    4    4    0    0  0.64430889952E+01  0.14010953921E+02 -0.54561760398E+01  0.16358180914E+02  0.51100000000E-03 0.  1.
         12    1    4    4    0    0 -0.92607042003E+01 -0.12625358537E+02 -0.32828104940E+02  0.36370933373E+02  0.00000000000E+00 0. -1.
</event>
<event>
 8    1  0.2460897E-006  0.9118800E+02  0.7816164E-02  0.1184000E+00
        -11   -1    0    0    0    0  0.00000000000E+00  0.00000000000E+00  0.45593999997E+02  0.45594000000E+02  0.51100000000E-03 0. -1.
         11   -1    0    0    0    0 -0.00000000000E+00 -0.00000000000E+00 -0.45593999997E+02  0.45594000000E+02  0.51100000000E-03 0.  1.
         23    2    1    2    0    0 -0.17763568394E-14 -0.88817841970E-15  0.71054273576E-14  0.91188000000E+02  0.91188000000E+02 0.  0.
    9900012    2    3    3    0    0 -0.10042856231E+02 -0.74200457953E+01  0.34639059672E+02  0.54367075299E+02  0.39999979760E+02 0.  0.
        -12    1    3    3    0    0  0.10042856231E+02  0.74200457953E+01 -0.34639059672E+02  0.36820924701E+02  0.00000000000E+00 0.  1.
         11    1    4    4    0    0  0.77995780952E+01 -0.73789175028E+01  0.13837919105E+02  0.17514846485E+02  0.51100000000E-03 0. -1.
        -11    1    4    4    0    0 -0.13355462850E+02 -0.88347039677E+01  0.21667007233E+02  0.26942152565E+02  0.51100000000E-03 0.  1.
         12    1    4    4    0    0 -0.44869714758E+01  0.87935756753E+01 -0.86586666637E+00  0.99100762492E+01  0.00000000000E+00 0. -1.
</event>
<event>
 8    1  0.2460897E-006  0.9118800E+02  0.7816164E-02  0.1184000E+00
        -11   -1    0    0    0    0  0.00000000000E+00  0.00000000000E+00  0.45593999997E+02  0.45594000000E+02  0.51100000000E-03 0. -1.
         11   -1    0    0    0    0 -0.00000000000E+00 -0.00000000000E+00 -0.45593999997E+02  0.45594000000E+02  0.51100000000E-03 0.  1.
         23    2    1    2    0    0  0.71054273576E-14 -0.17763568394E-14  0.00000000000E+00  0.91188000000E+02  0.91188000000E+02 0.  0.
    9900012    2    3    3    0    0 -0.33951681037E+02  0.13665311579E+02 -0.40400855734E+01  0.54367086415E+02  0.40000005100E+02 0.  0.
         12    1    3    3    0    0  0.33951681037E+02 -0.13665311579E+02  0.40400855734E+01  0.36820913585E+02  0.00000000000E+00 0. -1.
         11    1    4    4    0    0 -0.26907439697E+02 -0.28707378483E+01 -0.87647311535E+01  0.28444190255E+02  0.51100000000E-03 0. -1.
        -11    1    4    4    0    0  0.15642148501E+01 -0.31615735629E+01 -0.10202020294E+01  0.36719378989E+01  0.51100000000E-03 0.  1.
        -12    1    4    4    0    0 -0.86084561902E+01  0.19697622991E+02  0.57448476095E+01  0.22250958261E+02  0.00000000000E+00 0.  1.
</event>
<event>
 8    1  0.2460897E-006  0.9118800E+02  0.7816164E-02  0.1184000E+00
        -11   -1    0    0    0    0  0.00000000000E+00  0.00000000000E+00  0.45593999997E+02  0.45594000000E+02  0.51100000000E-03 0.  1.
         11   -1    0    0    0    0 -0.00000000000E+00 -0.00000000000E+00 -0.45593999997E+02  0.45594000000E+02  0.51100000000E-03 0. -1.
         23    2    1    2    0    0 -0.53290705182E-14  0.00000000000E+00 -0.22204460493E-14  0.91188000000E+02  0.91188000000E+02 0.  0.
    9900012    2    3    3    0    0 -0.13805354139E+02  0.34094113297E+02 -0.16684002374E+01  0.54367083067E+02  0.39999997468E+02 0.  0.
        -12    1    3    3    0    0  0.13805354139E+02 -0.34094113297E+02  0.16684002374E+01  0.36820916933E+02  0.00000000000E+00 0.  1.
         11    1    4    4    0    0 -0.19262546282E+01  0.14858564485E+02 -0.29422608517E+01  0.15269063319E+02  0.51100000000E-03 0. -1.
        -11    1    4    4    0    0  0.52952696317E+01 -0.42033929896E+01  0.67223209895E+01  0.95340438872E+01  0.51100000000E-03 0.  1.
        -12    1    4    4    0    0 -0.17174369143E+02  0.23438941802E+02 -0.54484603752E+01  0.29563975861E+02  0.00000000000E+00 0.  1.
</event>
<event>
 8    1  0.2460897E-006  0.9118800E+02  0.7816164E-02  0.1184000E+00
        -11   -1    0    0    0    0  0.00000000000E+00  0.00000000000E+00  0.45593999997E+02  0.45594000000E+02  0.51100000000E-03 0. -1.
         11   -1    0    0    0    0 -0.00000000000E+00 -0.00000000000E+00 -0.45593999997E+02  0.45594000000E+02  0.51100000000E-03 0.  1.
         23    2    1    2    0    0 -0.35527136788E-14  0.26645352591E-14 -0.35527136788E-14  0.91188000000E+02  0.91188000000E+02 0.  0.
    9900012    2    3    3    0    0 -0.26845229191E+02 -0.48188929480E+01  0.24736447505E+02  0.54367083462E+02  0.39999998367E+02 0.  0.
        -12    1    3    3    0    0  0.26845229191E+02  0.48188929480E+01 -0.24736447505E+02  0.36820916538E+02  0.00000000000E+00 0.  1.
         11    1    4    4    0    0 -0.79351743568E+01 -0.13546100556E+02 -0.32372511987E+01  0.16029461249E+02  0.51100000000E-03 0. -1.
        -11    1    4    4    0    0 -0.15456671153E+01  0.28276920278E+01 -0.15544688802E+01  0.35778908306E+01  0.51100000000E-03 0.  1.
         12    1    4    4    0    0 -0.17364387719E+02  0.58995155798E+01  0.29528167583E+02  0.34759731382E+02  0.00000000000E+00 0. -1.
</event>
<event>
 8    1  0.2460897E-006  0.9118800E+02  0.7816164E-02  0.1184000E+00
        -11   -1    0    0    0    0  0.00000000000E+00  0.00000000000E+00  0.45593999997E+02  0.45594000000E+02  0.51100000000E-03 0.  1.
         11   -1    0    0    0    0 -0.00000000000E+00 -0.00000000000E+00 -0.45593999997E+02  0.45594000000E+02  0.51100000000E-03 0. -1.
         23    2    1    2    0    0 -0.44408920985E-15  0.00000000000E+00  0.00000000000E+00  0.91188000000E+02  0.91188000000E+02 0.  0.
    9900012    2    3    3    0    0  0.22840315956E+01 -0.35130656555E+02  0.10788850002E+02  0.54367094055E+02  0.40000022516E+02 0.  0.
         12    1    3    3    0    0 -0.22840315956E+01  0.35130656555E+02 -0.10788850002E+02  0.36820905945E+02  0.00000000000E+00 0. -1.
         11    1    4    4    0    0  0.35016371504E+01 -0.15666477961E+02  0.20261047903E+02  0.25849759319E+02  0.51100000000E-03 0.  1.
        -11    1    4    4    0    0 -0.70414301354E+01 -0.18029755383E+02 -0.11086324473E+02  0.22306062138E+02  0.51100000000E-03 0. -1.
         12    1    4    4    0    0  0.58238245807E+01 -0.14344232102E+01  0.16141265711E+01  0.62112725975E+01  0.00000000000E+00 0. -1.
</event>
<event>
 8    1  0.2460897E-006  0.9118800E+02  0.7816164E-02  0.1184000E+00
        -11   -1    0    0    0    0  0.00000000000E+00  0.00000000000E+00  0.45593999997E+02  0.45594000000E+02  0.51100000000E-03 0.  1.
         11   -1    0    0    0    0 -0.00000000000E+00 -0.00000000000E+00 -0.45593999997E+02  0.45594000000E+02  0.51100000000E-03 0. -1.
         23    2    1    2    0    0  0.00000000000E+00  0.00000000000E+00  0.00000000000E+00  0.91188000000E+02  0.91188000000E+02 0.  0.
    9900012    2    3    3    0    0 -0.21630894323E+02 -0.18256263544E+02 -0.23549858088E+02  0.54367047218E+02  0.39999915743E+02 0.  0.
        -12    1    3    3    0    0  0.21630894323E+02  0.18256263544E+02  0.23549858088E+02  0.36820952782E+02  0.00000000000E+00 0.  1.
         11    1    4    4    0    0  0.12567652953E+01 -0.90291538537E+01 -0.21336310290E+02  0.23202224362E+02  0.51100000000E-03 0. -1.
        -11    1    4    4    0    0 -0.14047398666E+02 -0.98780199664E+01 -0.95578332579E+01  0.19653418649E+02  0.51100000000E-03 0.  1.
        -12    1    4    4    0    0 -0.88402609526E+01  0.65091027623E+00  0.73442854596E+01  0.11511404207E+02  0.00000000000E+00 0.  1.
</event>
<event>
 8    1  0.2460897E-006  0.9118800E+02  0.7816164E-02  0.1184000E+00
        -11   -1    0    0    0    0  0.00000000000E+00  0.00000000000E+00  0.45593999997E+02  0.45594000000E+02  0.51100000000E-03 0. -1.
         11   -1    0    0    0    0 -0.00000000000E+00 -0.00000000000E+00 -0.45593999997E+02  0.45594000000E+02  0.51100000000E-03 0.  1.
         23    2    1    2    0    0  0.00000000000E+00  0.35527136788E-14  0.00000000000E+00  0.91188000000E+02  0.91188000000E+02 0.  0.
    9900012    2    3    3    0    0 -0.25792456102E+02 -0.25387614417E+02  0.67823712946E+01  0.54367050556E+02  0.39999923353E+02 0.  0.
         12    1    3    3    0    0  0.25792456102E+02  0.25387614417E+02 -0.67823712946E+01  0.36820949444E+02  0.00000000000E+00 0. -1.
         11    1    4    4    0    0  0.43608496203E+01 -0.67057696082E+01 -0.53457330431E+01  0.96208740496E+01  0.51100000000E-03 0. -1.
        -11    1    4    4    0    0 -0.14930630881E+02  0.23909971307E+01 -0.18445664023E+01  0.15232958717E+02  0.51100000000E-03 0.  1.
        -12    1    4    4    0    0 -0.15222674841E+02 -0.21072841940E+02  0.13972670740E+02  0.29513217790E+02  0.00000000000E+00 0.  1.
</event>
<event>
 8    1  0.2460897E-006  0.9118800E+02  0.7816164E-02  0.1184000E+00
        -11   -1    0    0    0    0  0.00000000000E+00  0.00000000000E+00  0.45593999997E+02  0.45594000000E+02  0.51100000000E-03 0.  1.
         11   -1    0    0    0    0 -0.00000000000E+00 -0.00000000000E+00 -0.45593999997E+02  0.45594000000E+02  0.51100000000E-03 0. -1.
         23    2    1    2    0    0 -0.22204460493E-15  0.00000000000E+00  0.00000000000E+00  0.91188000000E+02  0.91188000000E+02 0.  0.
    9900012    2    3    3    0    0 -0.16252426935E+01 -0.89460617884E+01 -0.35680603215E+02  0.54367097226E+02  0.40000029746E+02 0.  0.
        -12    1    3    3    0    0  0.16252426935E+01  0.89460617884E+01  0.35680603215E+02  0.36820902774E+02  0.00000000000E+00 0.  1.
         11    1    4    4    0    0 -0.60660910572E+01 -0.10226785599E+02 -0.29777213633E+02  0.32063484783E+02  0.51100000000E-03 0. -1.
        -11    1    4    4    0    0 -0.28956540802E+01  0.81517830260E+01  0.27110150711E+01  0.90656484617E+01  0.51100000000E-03 0.  1.
         12    1    4    4    0    0  0.73365024439E+01 -0.68710592154E+01 -0.86144046528E+01  0.13237963981E+02  0.00000000000E+00 0. -1.
</event>
<event>
 8    1  0.2460897E-006  0.9118800E+02  0.7816164E-02  0.1184000E+00
        -11   -1    0    0    0    0  0.00000000000E+00  0.00000000000E+00  0.45593999997E+02  0.45594000000E+02  0.51100000000E-03 0.  1.
         11   -1    0    0    0    0 -0.00000000000E+00 -0.00000000000E+00 -0.45593999997E+02  0.45594000000E+02  0.51100000000E-03 0. -1.
         23    2    1    2    0    0  0.17763568394E-14  0.00000000000E+00  0.00000000000E+00  0.91188000000E+02  0.91188000000E+02 0.  0.
    9900012    2    3    3    0    0  0.14532928091E+02 -0.33486900451E+02 -0.48167711378E+01  0.54367084953E+02  0.40000001767E+02 0.  0.
        -12    1    3    3    0    0 -0.14532928091E+02  0.33486900451E+02  0.48167711378E+01  0.36820915047E+02  0.00000000000E+00 0.  1.
         11    1    4    4    0    0  0.19386972031E+02 -0.35835584726E+02 -0.76654412284E+01  0.41458446747E+02  0.51100000000E-03 0. -1.
        -11    1    4    4    0    0 -0.15922880901E+01  0.61940385189E+01 -0.11187572012E+01  0.64925428356E+01  0.51100000000E-03 0.  1.
         12    1    4    4    0    0 -0.32617558499E+01 -0.38453542441E+01  0.39674272918E+01  0.64160953704E+01  0.00000000000E+00 0. -1.
</event>
<event>
 8    1  0.2460897E-006  0.9118800E+02  0.7816164E-02  0.1184000E+00
        -11   -1    0    0    0    0  0.00000000000E+00  0.00000000000E+00  0.45593999997E+02  0.45594000000E+02  0.51100000000E-03 0.  1.
         11   -1    0    0    0    0 -0.00000000000E+00 -0.00000000000E+00 -0.45593999997E+02  0.45594000000E+02  0.51100000000E-03 0. -1.
         23    2    1    2    0    0  0.00000000000E+00  0.00000000000E+00  0.35527136788E-14  0.91188000000E+02  0.91188000000E+02 0.  0.
    9900012    2    3    3    0    0  0.23441109538E+02 -0.23969179854E+01  0.28293903682E+02  0.54367138824E+02  0.40000124578E+02 0.  0.
         12    1    3    3    0    0 -0.23441109538E+02  0.23969179854E+01 -0.28293903682E+02  0.36820861176E+02  0.00000000000E+00 0. -1.
         11    1    4    4    0    0  0.68946655550E+00 -0.67878877522E+01  0.11983679510E+01  0.69272556092E+01  0.51100000000E-03 0. -1.
        -11    1    4    4    0    0 -0.34773377301E+01  0.37438900637E+01  0.19452435915E+02  0.20112330889E+02  0.51100000000E-03 0.  1.
        -12    1    4    4    0    0  0.26228980712E+02  0.64707970310E+00  0.76430998152E+01  0.27327552326E+02  0.00000000000E+00 0.  1.
</event>
<event>
 8    1  0.2460897E-006  0.9118800E+02  0.7816164E-02  0.1184000E+00
        -11   -1    0    0    0    0  0.00000000000E+00  0.00000000000E+00  0.45593999997E+02  0.45594000000E+02  0.51100000000E-03 0.  1.
         11   -1    0    0    0    0 -0.00000000000E+00 -0.00000000000E+00 -0.45593999997E+02  0.45594000000E+02  0.51100000000E-03 0. -1.
         23    2    1    2    0    0  0.00000000000E+00  0.00000000000E+00  0.00000000000E+00  0.91188000000E+02  0.91188000000E+02 0.  0.
    9900012    2    3    3    0    0  0.18515882018E+02  0.24194549286E+02 -0.20677658822E+02  0.54367086427E+02  0.40000005127E+02 0.  0.
        -12    1    3    3    0    0 -0.18515882018E+02 -0.24194549286E+02  0.20677658822E+02  0.36820913573E+02  0.00000000000E+00 0.  1.
         11    1    4    4    0    0  0.62989716262E+01  0.73001620221E+01 -0.21530627443E+02  0.23591043373E+02  0.51100000000E-03 0. -1.
        -11    1    4    4    0    0 -0.55180010505E+01  0.29361899615E+01  0.47789363127E+01  0.78681496951E+01  0.51100000000E-03 0.  1.
         12    1    4    4    0    0  0.17734911442E+02  0.13958197302E+02 -0.39259676913E+01  0.22907893358E+02  0.00000000000E+00 0. -1.
</event>
<event>
 8    1  0.2460897E-006  0.9118800E+02  0.7816164E-02  0.1184000E+00
        -11   -1    0    0    0    0  0.00000000000E+00  0.00000000000E+00  0.45593999997E+02  0.45594000000E+02  0.51100000000E-03 0.  1.
         11   -1    0    0    0    0 -0.00000000000E+00 -0.00000000000E+00 -0.45593999997E+02  0.45594000000E+02  0.51100000000E-03 0. -1.
         23    2    1    2    0    0  0.88817841970E-15  0.71054273576E-14  0.00000000000E+00  0.91188000000E+02  0.91188000000E+02 0.  0.
    9900012    2    3    3    0    0 -0.47652217300E+01 -0.35187830720E+02 -0.97410373608E+01  0.54367101344E+02  0.40000039135E+02 0.  0.
         12    1    3    3    0    0  0.47652217300E+01  0.35187830720E+02  0.97410373608E+01  0.36820898656E+02  0.00000000000E+00 0. -1.
         11    1    4    4    0    0 -0.18014361882E+01 -0.54310992354E+01 -0.41799155893E+01  0.70861629842E+01  0.51100000000E-03 0. -1.
        -11    1    4    4    0    0 -0.24157016320E+01 -0.35847220099E+02 -0.12491782729E+02  0.38038183963E+02  0.51100000000E-03 0.  1.
        -12    1    4    4    0    0 -0.54808390981E+00  0.60904886142E+01  0.69306609575E+01  0.92427543968E+01  0.00000000000E+00 0.  1.
</event>
<event>
 8    1  0.2460897E-006  0.9118800E+02  0.7816164E-02  0.1184000E+00
        -11   -1    0    0    0    0  0.00000000000E+00  0.00000000000E+00  0.45593999997E+02  0.45594000000E+02  0.51100000000E-03 0.  1.
         11   -1    0    0    0    0 -0.00000000000E+00 -0.00000000000E+00 -0.45593999997E+02  0.45594000000E+02  0.51100000000E-03 0. -1.
         23    2    1    2    0    0  0.71054273576E-14  0.88817841970E-15  0.17763568394E-14  0.91188000000E+02  0.91188000000E+02 0.  0.
    9900012    2    3    3    0    0  0.34818158681E+02  0.77214864523E+01 -0.91572312614E+01  0.54367076447E+02  0.39999982375E+02 0.  0.
        -12    1    3    3    0    0 -0.34818158681E+02 -0.77214864523E+01  0.91572312614E+01  0.36820923553E+02  0.00000000000E+00 0.  1.
         11    1    4    4    0    0  0.66611409954E+01  0.30246642257E+01  0.64629572263E+01  0.97616192002E+01  0.51100000000E-03 0. -1.
        -11    1    4    4    0    0 -0.42808332335E+01 -0.60837406463E+01 -0.13330034915E+01  0.75574024634E+01  0.51100000000E-03 0.  1.
         12    1    4    4    0    0  0.32437850919E+02  0.10780562873E+02 -0.14287184996E+02  0.37048054783E+02  0.00000000000E+00 0. -1.
</event>
<event>
 8    1  0.2460897E-006  0.9118800E+02  0.7816164E-02  0.1184000E+00
        -11   -1    0    0    0    0  0.00000000000E+00  0.00000000000E+00  0.45593999997E+02  0.45594000000E+02  0.51100000000E-03 0.  1.
         11   -1    0    0    0    0 -0.00000000000E+00 -0.00000000000E+00 -0.45593999997E+02  0.45594000000E+02  0.51100000000E-03 0. -1.
         23    2    1    2    0    0  0.00000000000E+00  0.44408920985E-15 -0.88817841970E-15  0.91188000000E+02  0.91188000000E+02 0.  0.
    9900012    2    3    3    0    0 -0.36202162514E+02 -0.34816869701E+01 -0.57497972123E+01  0.54367097202E+02  0.40000029692E+02 0.  0.
        -12    1    3    3    0    0  0.36202162514E+02  0.34816869701E+01  0.57497972123E+01  0.36820902798E+02  0.00000000000E+00 0.  1.
         11    1    4    4    0    0  0.58254856305E+01 -0.19066285752E+01 -0.80600720442E+01  0.10126019799E+02  0.51100000000E-03 0. -1.
        -11    1    4    4    0    0 -0.84659663794E+01  0.40733181784E+00 -0.49925844585E+01  0.98368900463E+01  0.51100000000E-03 0.  1.
        -12    1    4    4    0    0 -0.33561681765E+02 -0.19823902127E+01  0.73028592904E+01  0.34404187357E+02  0.00000000000E+00 0.  1.
</event>
<event>
 8    1  0.2460897E-006  0.9118800E+02  0.7816164E-02  0.1184000E+00
        -11   -1    0    0    0    0  0.00000000000E+00  0.00000000000E+00  0.45593999997E+02  0.45594000000E+02  0.51100000000E-03 0. -1.
         11   -1    0    0    0    0 -0.00000000000E+00 -0.00000000000E+00 -0.45593999997E+02  0.45594000000E+02  0.51100000000E-03 0.  1.
         23    2    1    2    0    0  0.00000000000E+00  0.00000000000E+00  0.35527136788E-14  0.91188000000E+02  0.91188000000E+02 0.  0.
    9900012    2    3    3    0    0  0.22454130787E+02 -0.20615971229E+02  0.20653667331E+02  0.54367078864E+02  0.39999987885E+02 0.  0.
        -12    1    3    3    0    0 -0.22454130787E+02  0.20615971229E+02 -0.20653667331E+02  0.36820921136E+02  0.00000000000E+00 0.  1.
         11    1    4    4    0    0  0.69341083883E+01  0.41056776856E+01  0.70013350017E+01  0.10675070982E+02  0.51100000000E-03 0. -1.
        -11    1    4    4    0    0 -0.55872166597E+01  0.25788444825E+01  0.54547643634E+01  0.82232526040E+01  0.51100000000E-03 0.  1.
        -12    1    4    4    0    0  0.21107239059E+02 -0.27300493397E+02  0.81975679656E+01  0.35468755278E+02  0.00000000000E+00 0.  1.
</event>
<event>
 8    1  0.2460897E-006  0.9118800E+02  0.7816164E-02  0.1184000E+00
        -11   -1    0    0    0    0  0.00000000000E+00  0.00000000000E+00  0.45593999997E+02  0.45594000000E+02  0.51100000000E-03 0.  1.
         11   -1    0    0    0    0 -0.00000000000E+00 -0.00000000000E+00 -0.45593999997E+02  0.45594000000E+02  0.51100000000E-03 0. -1.
         23    2    1    2    0    0  0.17763568394E-14  0.35527136788E-14  0.00000000000E+00  0.91188000000E+02  0.91188000000E+02 0.  0.
    9900012    2    3    3    0    0  0.11712777604E+02 -0.29683636240E+02 -0.18370366795E+02  0.54367111964E+02  0.40000063344E+02 0.  0.
         12    1    3    3    0    0 -0.11712777604E+02  0.29683636240E+02  0.18370366795E+02  0.36820888036E+02  0.00000000000E+00 0. -1.
         11    1    4    4    0    0  0.11397481661E+02 -0.15015779473E+02 -0.29617702686E+02  0.35108183292E+02  0.51100000000E-03 0. -1.
        -11    1    4    4    0    0  0.22045590825E+01 -0.51626033034E+01  0.60837442353E+01  0.82779525124E+01  0.51100000000E-03 0.  1.
         12    1    4    4    0    0 -0.18892631397E+01 -0.95052534633E+01  0.51635916564E+01  0.10980976159E+02  0.00000000000E+00 0. -1.
</event>
<event>
 8    1  0.2460897E-006  0.9118800E+02  0.7816164E-02  0.1184000E+00
        -11   -1    0    0    0    0  0.00000000000E+00  0.00000000000E+00  0.45593999997E+02  0.45594000000E+02  0.51100000000E-03 0.  1.
         11   -1    0    0    0    0 -0.00000000000E+00 -0.00000000000E+00 -0.45593999997E+02  0.45594000000E+02  0.51100000000E-03 0. -1.
         23    2    1    2    0    0  0.16653345369E-14  0.71054273576E-14  0.35527136788E-14  0.91188000000E+02  0.91188000000E+02 0.  0.
    9900012    2    3    3    0    0  0.85893642506E+00  0.24894762688E+02  0.27116253267E+02  0.54367106850E+02  0.40000051686E+02 0.  0.
         12    1    3    3    0    0 -0.85893642506E+00 -0.24894762688E+02 -0.27116253267E+02  0.36820893150E+02  0.00000000000E+00 0. -1.
         11    1    4    4    0    0  0.10090307196E+02  0.70485726755E+01 -0.23734622614E+01  0.12535150555E+02  0.51100000000E-03 0. -1.
        -11    1    4    4    0    0  0.63089947915E+01  0.12642653443E+01  0.10011747433E+02  0.11901128899E+02  0.51100000000E-03 0.  1.
         12    1    4    4    0    0 -0.15540365562E+02  0.16581924668E+02  0.19477968096E+02  0.29930827397E+02  0.00000000000E+00 0. -1.
</event>
<event>
 8    1  0.2460897E-006  0.9118800E+02  0.7816164E-02  0.1184000E+00
        -11   -1    0    0    0    0  0.00000000000E+00  0.00000000000E+00  0.45593999997E+02  0.45594000000E+02  0.51100000000E-03 0. -1.
         11   -1    0    0    0    0 -0.00000000000E+00 -0.00000000000E+00 -0.45593999997E+02  0.45594000000E+02  0.51100000000E-03 0.  1.
         23    2    1    2    0    0  0.00000000000E+00  0.35527136788E-14 -0.35527136788E-14  0.91188000000E+02  0.91188000000E+02 0.  0.
    9900012    2    3    3    0    0 -0.13798207451E+02  0.25465461801E+02 -0.22735410075E+02  0.54367093644E+02  0.40000021581E+02 0.  0.
         12    1    3    3    0    0  0.13798207451E+02 -0.25465461801E+02  0.22735410075E+02  0.36820906356E+02  0.00000000000E+00 0. -1.
         11    1    4    4    0    0 -0.32588200668E+01 -0.11940981464E+01  0.18351866139E-01  0.34707514551E+01  0.51100000000E-03 0. -1.
        -11    1    4    4    0    0 -0.12510904661E+02  0.28132856152E+02 -0.29389221302E+01  0.30929235268E+02  0.51100000000E-03 0.  1.
         12    1    4    4    0    0  0.19715172769E+01 -0.14732962052E+01 -0.19814839810E+02  0.19967106921E+02  0.00000000000E+00 0. -1.
</event>
<event>
 8    1  0.2460897E-006  0.9118800E+02  0.7816164E-02  0.1184000E+00
        -11   -1    0    0    0    0  0.00000000000E+00  0.00000000000E+00  0.45593999997E+02  0.45594000000E+02  0.51100000000E-03 0.  1.
         11   -1    0    0    0    0 -0.00000000000E+00 -0.00000000000E+00 -0.45593999997E+02  0.45594000000E+02  0.51100000000E-03 0. -1.
         23    2    1    2    0    0  0.00000000000E+00 -0.22204460493E-15  0.00000000000E+00  0.91188000000E+02  0.91188000000E+02 0.  0.
    9900012    2    3    3    0    0 -0.32953280445E+02 -0.12011907825E+01 -0.16383649772E+02  0.54367006923E+02  0.39999823881E+02 0.  0.
        -12    1    3    3    0    0  0.32953280445E+02  0.12011907825E+01  0.16383649772E+02  0.36820993077E+02  0.00000000000E+00 0.  1.
         11    1    4    4    0    0 -0.19461447744E+02  0.11471495011E+02 -0.27428064784E+00  0.22592440687E+02  0.51100000000E-03 0. -1.
        -11    1    4    4    0    0  0.18224396046E+01  0.41373368788E+01 -0.15790804916E+01  0.47887720786E+01  0.51100000000E-03 0.  1.
        -12    1    4    4    0    0 -0.15314272306E+02 -0.16810022673E+02 -0.14530288633E+02  0.26985794157E+02  0.00000000000E+00 0.  1.
</event>
<event>
 8    1  0.2460897E-006  0.9118800E+02  0.7816164E-02  0.1184000E+00
        -11   -1    0    0    0    0  0.00000000000E+00  0.00000000000E+00  0.45593999997E+02  0.45594000000E+02  0.51100000000E-03 0.  1.
         11   -1    0    0    0    0 -0.00000000000E+00 -0.00000000000E+00 -0.45593999997E+02  0.45594000000E+02  0.51100000000E-03 0. -1.
         23    2    1    2    0    0  0.00000000000E+00 -0.13322676296E-14  0.00000000000E+00  0.91188000000E+02  0.91188000000E+02 0.  0.
    9900012    2    3    3    0    0  0.35742203244E+02 -0.22659270802E+01  0.85521305334E+01  0.54367103013E+02  0.40000042938E+02 0.  0.
         12    1    3    3    0    0 -0.35742203244E+02  0.22659270802E+01 -0.85521305334E+01  0.36820896987E+02  0.00000000000E+00 0. -1.
         11    1    4    4    0    0  0.35993828395E+01 -0.14651865698E+02  0.71606974143E+01  0.16700548284E+02  0.51100000000E-03 0. -1.
        -11    1    4    4    0    0  0.19988559823E+02  0.36018465095E+01  0.72512956218E+01  0.21566110231E+02  0.51100000000E-03 0.  1.
         12    1    4    4    0    0  0.12154260582E+02  0.87840921084E+01 -0.58598625028E+01  0.16100444498E+02  0.00000000000E+00 0. -1.
</event>
<event>
 8    1  0.2460897E-006  0.9118800E+02  0.7816164E-02  0.1184000E+00
        -11   -1    0    0    0    0  0.00000000000E+00  0.00000000000E+00  0.45593999997E+02  0.45594000000E+02  0.51100000000E-03 0.  1.
         11   -1    0    0    0    0 -0.00000000000E+00 -0.00000000000E+00 -0.45593999997E+02  0.45594000000E+02  0.51100000000E-03 0. -1.
         23    2    1    2    0    0  0.00000000000E+00  0.00000000000E+00  0.35527136788E-14  0.91188000000E+02  0.91188000000E+02 0.  0.
    9900012    2    3    3    0    0 -0.14481658542E+02 -0.22824244725E+02  0.25002317157E+02  0.54367075995E+02  0.39999981345E+02 0.  0.
         12    1    3    3    0    0  0.14481658542E+02  0.22824244725E+02 -0.25002317157E+02  0.36820924005E+02  0.00000000000E+00 0. -1.
         11    1    4    4    0    0  0.10448506277E+02  0.21681651515E+01  0.10811381341E+02  0.15190727116E+02  0.51100000000E-03 0. -1.
        -11    1    4    4    0    0 -0.24361187770E+02 -0.20164408070E+02  0.11746922035E+02  0.33735159699E+02  0.51100000000E-03 0.  1.
        -12    1    4    4    0    0 -0.56897704902E+00 -0.48280018061E+01  0.24440137811E+01  0.54411891792E+01  0.00000000000E+00 0.  1.
</event>
<event>
 8    1  0.2460897E-006  0.9118800E+02  0.7816164E-02  0.1184000E+00
        -11   -1    0    0    0    0  0.00000000000E+00  0.00000000000E+00  0.45593999997E+02  0.45594000000E+02  0.51100000000E-03 0. -1.
         11   -1    0    0    0    0 -0.00000000000E+00 -0.00000000000E+00 -0.45593999997E+02  0.45594000000E+02  0.51100000000E-03 0.  1.
         23    2    1    2    0    0  0.00000000000E+00  0.00000000000E+00  0.00000000000E+00  0.91188000000E+02  0.91188000000E+02 0.  0.
    9900012    2    3    3    0    0 -0.43776352956E+01  0.10072184004E+02 -0.35144950404E+02  0.54367080398E+02  0.39999991384E+02 0.  0.
         12    1    3    3    0    0  0.43776352956E+01 -0.10072184004E+02  0.35144950404E+02  0.36820919602E+02  0.00000000000E+00 0. -1.
         11    1    4    4    0    0  0.29478863424E+01  0.30822888096E+01  0.57061625366E+01  0.71239616330E+01  0.51100000000E-03 0. -1.
        -11    1    4    4    0    0  0.52242359531E+01  0.87629879710E+01 -0.24617093040E+02  0.26647398926E+02  0.51100000000E-03 0.  1.
         12    1    4    4    0    0 -0.12549757591E+02 -0.17730927764E+01 -0.16234019900E+02  0.20595719840E+02  0.00000000000E+00 0. -1.
</event>
<event>
 8    1  0.2460897E-006  0.9118800E+02  0.7816164E-02  0.1184000E+00
        -11   -1    0    0    0    0  0.00000000000E+00  0.00000000000E+00  0.45593999997E+02  0.45594000000E+02  0.51100000000E-03 0. -1.
         11   -1    0    0    0    0 -0.00000000000E+00 -0.00000000000E+00 -0.45593999997E+02  0.45594000000E+02  0.51100000000E-03 0.  1.
         23    2    1    2    0    0  0.00000000000E+00  0.17763568394E-14  0.35527136788E-14  0.91188000000E+02  0.91188000000E+02 0.  0.
    9900012    2    3    3    0    0 -0.20641732052E+02 -0.14543282613E+02  0.26799111426E+02  0.54367074638E+02  0.39999978253E+02 0.  0.
        -12    1    3    3    0    0  0.20641732052E+02  0.14543282613E+02 -0.26799111426E+02  0.36820925362E+02  0.00000000000E+00 0.  1.
         11    1    4    4    0    0 -0.16315308867E+02  0.45980679419E+01  0.23433294723E+02  0.28921459750E+02  0.51100000000E-03 0. -1.
        -11    1    4    4    0    0 -0.83446188275E+01 -0.18870760330E+02  0.47752820022E+01  0.21178800185E+02  0.51100000000E-03 0.  1.
         12    1    4    4    0    0  0.40181956421E+01 -0.27059022510E+00 -0.14094652992E+01  0.42668147039E+01  0.00000000000E+00 0. -1.
</event>
<event>
 8    1  0.2460897E-006  0.9118800E+02  0.7816164E-02  0.1184000E+00
        -11   -1    0    0    0    0  0.00000000000E+00  0.00000000000E+00  0.45593999997E+02  0.45594000000E+02  0.51100000000E-03 0. -1.
         11   -1    0    0    0    0 -0.00000000000E+00 -0.00000000000E+00 -0.45593999997E+02  0.45594000000E+02  0.51100000000E-03 0.  1.
         23    2    1    2    0    0  0.00000000000E+00  0.35527136788E-14  0.00000000000E+00  0.91188000000E+02  0.91188000000E+02 0.  0.
    9900012    2    3    3    0    0  0.16665100299E+02 -0.22199114781E+02 -0.24191783166E+02  0.54367236323E+02  0.40000346843E+02 0.  0.
         12    1    3    3    0    0 -0.16665100299E+02  0.22199114781E+02  0.24191783166E+02  0.36820763677E+02  0.00000000000E+00 0. -1.
         11    1    4    4    0    0  0.10255113234E+01 -0.12359708826E+02  0.38037771483E+01  0.12972385925E+02  0.51100000000E-03 0. -1.
        -11    1    4    4    0    0  0.56411923623E+01 -0.15486880210E+02 -0.24240658683E+02  0.29313410643E+02  0.51100000000E-03 0.  1.
         12    1    4    4    0    0  0.99983966129E+01  0.56474742541E+01 -0.37549016313E+01  0.12081439754E+02  0.00000000000E+00 0. -1.
</event>
<event>
 8    1  0.2460897E-006  0.9118800E+02  0.7816164E-02  0.1184000E+00
        -11   -1    0    0    0    0  0.00000000000E+00  0.00000000000E+00  0.45593999997E+02  0.45594000000E+02  0.51100000000E-03 0. -1.
         11   -1    0    0    0    0 -0.00000000000E+00 -0.00000000000E+00 -0.45593999997E+02  0.45594000000E+02  0.51100000000E-03 0.  1.
         23    2    1    2    0    0  0.00000000000E+00  0.00000000000E+00  0.35527136788E-14  0.91188000000E+02  0.91188000000E+02 0.  0.
    9900012    2    3    3    0    0  0.63452299733E+01 -0.31336375570E+02 -0.18263337653E+02  0.54367083668E+02  0.39999998838E+02 0.  0.
         12    1    3    3    0    0 -0.63452299733E+01  0.31336375570E+02  0.18263337653E+02  0.36820916332E+02  0.00000000000E+00 0. -1.
         11    1    4    4    0    0 -0.37334266027E+01 -0.11760132631E+01  0.20895479673E+01  0.44370815140E+01  0.51100000000E-03 0. -1.
        -11    1    4    4    0    0  0.59352508766E+00 -0.34956679981E+02 -0.15845798195E+02  0.38385037033E+02  0.51100000000E-03 0.  1.
        -12    1    4    4    0    0  0.94851314883E+01  0.47963176740E+01 -0.45070874259E+01  0.11544965121E+02  0.00000000000E+00 0.  1.
</event>
<event>
 8    1  0.2460897E-006  0.9118800E+02  0.7816164E-02  0.1184000E+00
        -11   -1    0    0    0    0  0.00000000000E+00  0.00000000000E+00  0.45593999997E+02  0.45594000000E+02  0.51100000000E-03 0.  1.
         11   -1    0    0    0    0 -0.00000000000E+00 -0.00000000000E+00 -0.45593999997E+02  0.45594000000E+02  0.51100000000E-03 0. -1.
         23    2    1    2    0    0  0.00000000000E+00  0.00000000000E+00  0.00000000000E+00  0.91188000000E+02  0.91188000000E+02 0.  0.
    9900012    2    3    3    0    0  0.81149178519E+01  0.15340761599E+02  0.32474440576E+02  0.54367080010E+02  0.39999990499E+02 0.  0.
         12    1    3    3    0    0 -0.81149178519E+01 -0.15340761599E+02 -0.32474440576E+02  0.36820919990E+02  0.00000000000E+00 0. -1.
         11    1    4    4    0    0  0.66978297399E+00  0.16717071745E+02  0.15864305642E+02  0.23056133474E+02  0.51100000000E-03 0. -1.
        -11    1    4    4    0    0 -0.74917177484E+01  0.35657817177E+01  0.12580052237E+02  0.15069782634E+02  0.51100000000E-03 0.  1.
         12    1    4    4    0    0  0.14936852626E+02 -0.49420918636E+01  0.40300826960E+01  0.16241163902E+02  0.00000000000E+00 0. -1.
</event>
<event>
 8    1  0.2460897E-006  0.9118800E+02  0.7816164E-02  0.1184000E+00
        -11   -1    0    0    0    0  0.00000000000E+00  0.00000000000E+00  0.45593999997E+02  0.45594000000E+02  0.51100000000E-03 0.  1.
         11   -1    0    0    0    0 -0.00000000000E+00 -0.00000000000E+00 -0.45593999997E+02  0.45594000000E+02  0.51100000000E-03 0. -1.
         23    2    1    2    0    0  0.17763568394E-14  0.00000000000E+00  0.35527136788E-14  0.91188000000E+02  0.91188000000E+02 0.  0.
    9900012    2    3    3    0    0  0.11911427143E+02 -0.15225819598E+02 -0.31338035623E+02  0.54367079917E+02  0.39999990287E+02 0.  0.
        -12    1    3    3    0    0 -0.11911427143E+02  0.15225819598E+02  0.31338035623E+02  0.36820920083E+02  0.00000000000E+00 0.  1.
         11    1    4    4    0    0 -0.89247945706E-01  0.12462507560E+00 -0.18082110012E+02  0.18082759727E+02  0.51100000000E-03 0. -1.
        -11    1    4    4    0    0 -0.72426037901E+01 -0.11982421691E+02 -0.76757993741E+01  0.15967205000E+02  0.51100000000E-03 0.  1.
         12    1    4    4    0    0  0.19243278879E+02 -0.33680229827E+01 -0.55801262376E+01  0.20317115190E+02  0.00000000000E+00 0. -1.
</event>
<event>
 8    1  0.2460897E-006  0.9118800E+02  0.7816164E-02  0.1184000E+00
        -11   -1    0    0    0    0  0.00000000000E+00  0.00000000000E+00  0.45593999997E+02  0.45594000000E+02  0.51100000000E-03 0.  1.
         11   -1    0    0    0    0 -0.00000000000E+00 -0.00000000000E+00 -0.45593999997E+02  0.45594000000E+02  0.51100000000E-03 0. -1.
         23    2    1    2    0    0  0.00000000000E+00  0.00000000000E+00 -0.17763568394E-14  0.91188000000E+02  0.91188000000E+02 0.  0.
    9900012    2    3    3    0    0  0.33583381256E+02  0.42686875357E+01 -0.14481495628E+02  0.54367096895E+02  0.40000028991E+02 0.  0.
         12    1    3    3    0    0 -0.33583381256E+02 -0.42686875357E+01  0.14481495628E+02  0.36820903105E+02  0.00000000000E+00 0. -1.
         11    1    4    4    0    0 -0.41556873902E+01  0.63601011701E+01 -0.12103566785E+02  0.14290449740E+02  0.51100000000E-03 0. -1.
        -11    1    4    4    0    0  0.21872621255E+02 -0.72789358387E+01  0.87983564203E+00  0.23068779303E+02  0.51100000000E-03 0.  1.
         12    1    4    4    0    0  0.15866447391E+02  0.51875222043E+01 -0.32577644852E+01  0.17007867852E+02  0.00000000000E+00 0. -1.
</event>
<event>
 8    1  0.2460897E-006  0.9118800E+02  0.7816164E-02  0.1184000E+00
        -11   -1    0    0    0    0  0.00000000000E+00  0.00000000000E+00  0.45593999997E+02  0.45594000000E+02  0.51100000000E-03 0. -1.
         11   -1    0    0    0    0 -0.00000000000E+00 -0.00000000000E+00 -0.45593999997E+02  0.45594000000E+02  0.51100000000E-03 0.  1.
         23    2    1    2    0    0  0.00000000000E+00  0.00000000000E+00  0.35527136788E-14  0.91188000000E+02  0.91188000000E+02 0.  0.
    9900012    2    3    3    0    0 -0.21283347317E+02  0.10564500430E+02  0.28128104380E+02  0.54367084770E+02  0.40000001349E+02 0.  0.
        -12    1    3    3    0    0  0.21283347317E+02 -0.10564500430E+02 -0.28128104380E+02  0.36820915230E+02  0.00000000000E+00 0.  1.
         11    1    4    4    0    0  0.14315573260E+01  0.19613972409E+01  0.76611930855E+00  0.25462471542E+01  0.51100000000E-03 0. -1.
        -11    1    4    4    0    0  0.55867034154E+01 -0.90621979524E+01  0.66103341871E+01  0.12531209244E+02  0.51100000000E-03 0.  1.
         12    1    4    4    0    0 -0.28301608059E+02  0.17665301142E+02  0.20751650885E+02  0.39289628372E+02  0.00000000000E+00 0. -1.
</event>
<event>
 8    1  0.2460897E-006  0.9118800E+02  0.7816164E-02  0.1184000E+00
        -11   -1    0    0    0    0  0.00000000000E+00  0.00000000000E+00  0.45593999997E+02  0.45594000000E+02  0.51100000000E-03 0. -1.
         11   -1    0    0    0    0 -0.00000000000E+00 -0.00000000000E+00 -0.45593999997E+02  0.45594000000E+02  0.51100000000E-03 0.  1.
         23    2    1    2    0    0 -0.35527136788E-14  0.00000000000E+00  0.00000000000E+00  0.91188000000E+02  0.91188000000E+02 0.  0.
    9900012    2    3    3    0    0 -0.21092599607E+02 -0.99410524870E+01 -0.28496629901E+02  0.54367079338E+02  0.39999988966E+02 0.  0.
         12    1    3    3    0    0  0.21092599607E+02  0.99410524870E+01  0.28496629901E+02  0.36820920662E+02  0.00000000000E+00 0. -1.
         11    1    4    4    0    0 -0.14682175999E+02  0.47889955096E+01  0.34523936981E+01  0.15824657740E+02  0.51100000000E-03 0. -1.
        -11    1    4    4    0    0 -0.73775958523E+00  0.24548538578E+01 -0.87616546855E+01  0.91289205144E+01  0.51100000000E-03 0.  1.
        -12    1    4    4    0    0 -0.56726640222E+01 -0.17184901854E+02 -0.23187368914E+02  0.29413501084E+02  0.00000000000E+00 0.  1.
</event>
<event>
 8    1  0.2460897E-006  0.9118800E+02  0.7816164E-02  0.1184000E+00
        -11   -1    0    0    0    0  0.00000000000E+00  0.00000000000E+00  0.45593999997E+02  0.45594000000E+02  0.51100000000E-03 0. -1.
         11   -1    0    0    0    0 -0.00000000000E+00 -0.00000000000E+00 -0.45593999997E+02  0.45594000000E+02  0.51100000000E-03 0.  1.
         23    2    1    2    0    0  0.35527136788E-14  0.00000000000E+00  0.00000000000E+00  0.91188000000E+02  0.91188000000E+02 0.  0.
    9900012    2    3    3    0    0  0.31657195314E+02  0.10669937576E+02  0.15483978011E+02  0.54367093465E+02  0.40000021172E+02 0.  0.
        -12    1    3    3    0    0 -0.31657195314E+02 -0.10669937576E+02 -0.15483978011E+02  0.36820906535E+02  0.00000000000E+00 0.  1.
         11    1    4    4    0    0 -0.56724390966E+00  0.85772066939E+00  0.39935348516E+00  0.11031472554E+01  0.51100000000E-03 0. -1.
        -11    1    4    4    0    0 -0.91487562311E+00  0.27628286788E+01 -0.10444068372E+02  0.10841991705E+02  0.51100000000E-03 0.  1.
         12    1    4    4    0    0  0.33139314847E+02  0.70493882280E+01  0.25528692898E+02  0.42421954504E+02  0.00000000000E+00 0. -1.
</event>
<event>
 8    1  0.2460897E-006  0.9118800E+02  0.7816164E-02  0.1184000E+00
        -11   -1    0    0    0    0  0.00000000000E+00  0.00000000000E+00  0.45593999997E+02  0.45594000000E+02  0.51100000000E-03 0.  1.
         11   -1    0    0    0    0 -0.00000000000E+00 -0.00000000000E+00 -0.45593999997E+02  0.45594000000E+02  0.51100000000E-03 0. -1.
         23    2    1    2    0    0 -0.71054273576E-14  0.00000000000E+00  0.35527136788E-14  0.91188000000E+02  0.91188000000E+02 0.  0.
    9900012    2    3    3    0    0 -0.25810365510E+02  0.19020720632E+02  0.18105782315E+02  0.54367053049E+02  0.39999929037E+02 0.  0.
         12    1    3    3    0    0  0.25810365510E+02 -0.19020720632E+02 -0.18105782315E+02  0.36820946951E+02  0.00000000000E+00 0. -1.
         11    1    4    4    0    0 -0.11776889181E+02 -0.40358815767E+01  0.75618685361E+01  0.14565895609E+02  0.51100000000E-03 0. -1.
        -11    1    4    4    0    0 -0.21418971816E+02  0.10607049064E+02  0.67752215492E+01  0.24843217803E+02  0.51100000000E-03 0.  1.
        -12    1    4    4    0    0  0.73854954868E+01  0.12449553144E+02  0.37686922297E+01  0.14957939637E+02  0.00000000000E+00 0.  1.
</event>
<event>
 8    1  0.2460897E-006  0.9118800E+02  0.7816164E-02  0.1184000E+00
        -11   -1    0    0    0    0  0.00000000000E+00  0.00000000000E+00  0.45593999997E+02  0.45594000000E+02  0.51100000000E-03 0. -1.
         11   -1    0    0    0    0 -0.00000000000E+00 -0.00000000000E+00 -0.45593999997E+02  0.45594000000E+02  0.51100000000E-03 0.  1.
         23    2    1    2    0    0  0.00000000000E+00  0.00000000000E+00  0.00000000000E+00  0.91188000000E+02  0.91188000000E+02 0.  0.
    9900012    2    3    3    0    0  0.65497447219E+00  0.33954394503E+02 -0.14228538500E+02  0.54367065662E+02  0.39999957791E+02 0.  0.
         12    1    3    3    0    0 -0.65497447219E+00 -0.33954394503E+02  0.14228538500E+02  0.36820934338E+02  0.00000000000E+00 0. -1.
         11    1    4    4    0    0  0.74112355869E+00  0.12049469370E+02  0.11739626512E+02  0.16839174776E+02  0.51100000000E-03 0. -1.
        -11    1    4    4    0    0 -0.17493576916E+01  0.29956700835E+00 -0.11117166560E+02  0.11257947651E+02  0.51100000000E-03 0.  1.
         12    1    4    4    0    0  0.16632086051E+01  0.21605358125E+02 -0.14850998452E+02  0.26269943235E+02  0.00000000000E+00 0. -1.
</event>
<event>
 8    1  0.2460897E-006  0.9118800E+02  0.7816164E-02  0.1184000E+00
        -11   -1    0    0    0    0  0.00000000000E+00  0.00000000000E+00  0.45593999997E+02  0.45594000000E+02  0.51100000000E-03 0. -1.
         11   -1    0    0    0    0 -0.00000000000E+00 -0.00000000000E+00 -0.45593999997E+02  0.45594000000E+02  0.51100000000E-03 0.  1.
         23    2    1    2    0    0 -0.71054273576E-14 -0.26645352591E-14 -0.17763568394E-14  0.91188000000E+02  0.91188000000E+02 0.  0.
    9900012    2    3    3    0    0  0.36389923746E+02  0.55514645962E+01 -0.85734353015E+00  0.54367077316E+02  0.39999984357E+02 0.  0.
        -12    1    3    3    0    0 -0.36389923746E+02 -0.55514645962E+01  0.85734353015E+00  0.36820922684E+02  0.00000000000E+00 0.  1.
         11    1    4    4    0    0  0.18643648547E+02  0.16752861998E+02 -0.64098874652E-01  0.25064878320E+02  0.51100000000E-03 0. -1.
        -11    1    4    4    0    0  0.68326647739E+01 -0.12526683004E+02 -0.78036395719E+01  0.16263452457E+02  0.51100000000E-03 0.  1.
        -12    1    4    4    0    0  0.10913610425E+02  0.13252856016E+01  0.70103949164E+01  0.13038746539E+02  0.00000000000E+00 0.  1.
</event>
<event>
 8    1  0.2460897E-006  0.9118800E+02  0.7816164E-02  0.1184000E+00
        -11   -1    0    0    0    0  0.00000000000E+00  0.00000000000E+00  0.45593999997E+02  0.45594000000E+02  0.51100000000E-03 0.  1.
         11   -1    0    0    0    0 -0.00000000000E+00 -0.00000000000E+00 -0.45593999997E+02  0.45594000000E+02  0.51100000000E-03 0. -1.
         23    2    1    2    0    0  0.88817841970E-15  0.00000000000E+00  0.00000000000E+00  0.91188000000E+02  0.91188000000E+02 0.  0.
    9900012    2    3    3    0    0 -0.64705659990E+01  0.18050536399E+02  0.31433888430E+02  0.54367089766E+02  0.40000012739E+02 0.  0.
         12    1    3    3    0    0  0.64705659990E+01 -0.18050536399E+02 -0.31433888430E+02  0.36820910234E+02  0.00000000000E+00 0. -1.
         11    1    4    4    0    0  0.13576747073E+02  0.46202804545E+01  0.15803001661E+02  0.21340335385E+02  0.51100000000E-03 0. -1.
        -11    1    4    4    0    0  0.14697541131E+01 -0.31481749781E+00 -0.16221805335E+01  0.22115056306E+01  0.51100000000E-03 0.  1.
        -12    1    4    4    0    0 -0.21517067186E+02  0.13745073442E+02  0.17253067302E+02  0.30815248750E+02  0.00000000000E+00 0.  1.
</event>
<event>
 8    1  0.2460897E-006  0.9118800E+02  0.7816164E-02  0.1184000E+00
        -11   -1    0    0    0    0  0.00000000000E+00  0.00000000000E+00  0.45593999997E+02  0.45594000000E+02  0.51100000000E-03 0.  1.
         11   -1    0    0    0    0 -0.00000000000E+00 -0.00000000000E+00 -0.45593999997E+02  0.45594000000E+02  0.51100000000E-03 0. -1.
         23    2    1    2    0    0  0.71054273576E-14 -0.88817841970E-15  0.00000000000E+00  0.91188000000E+02  0.91188000000E+02 0.  0.
    9900012    2    3    3    0    0  0.35379710492E+02 -0.49124838173E+01 -0.89399929902E+01  0.54367083574E+02  0.39999998624E+02 0.  0.
         12    1    3    3    0    0 -0.35379710492E+02  0.49124838173E+01  0.89399929902E+01  0.36820916426E+02  0.00000000000E+00 0. -1.
         11    1    4    4    0    0  0.26913809280E+01 -0.53268756995E+01 -0.28039001480E+01  0.65940118530E+01  0.51100000000E-03 0. -1.
        -11    1    4    4    0    0  0.38477326663E+01 -0.24568439480E+01 -0.16402024427E+02  0.17025496599E+02  0.51100000000E-03 0.  1.
        -12    1    4    4    0    0  0.28840596898E+02  0.28712358302E+01  0.10265931585E+02  0.30747575123E+02  0.00000000000E+00 0.  1.
</event>
<event>
 8    1  0.2460897E-006  0.9118800E+02  0.7816164E-02  0.1184000E+00
        -11   -1    0    0    0    0  0.00000000000E+00  0.00000000000E+00  0.45593999997E+02  0.45594000000E+02  0.51100000000E-03 0. -1.
         11   -1    0    0    0    0 -0.00000000000E+00 -0.00000000000E+00 -0.45593999997E+02  0.45594000000E+02  0.51100000000E-03 0.  1.
         23    2    1    2    0    0 -0.35527136788E-14  0.00000000000E+00 -0.88817841970E-15  0.91188000000E+02  0.91188000000E+02 0.  0.
    9900012    2    3    3    0    0  0.21867676130E+02  0.28929458523E+02  0.63775195165E+01  0.54367060510E+02  0.39999946044E+02 0.  0.
        -12    1    3    3    0    0 -0.21867676130E+02 -0.28929458523E+02 -0.63775195165E+01  0.36820939490E+02  0.00000000000E+00 0.  1.
         11    1    4    4    0    0 -0.54469395370E+01 -0.26727977322E+01  0.45638398747E-01  0.60675432558E+01  0.51100000000E-03 0.  1.
        -11    1    4    4    0    0  0.31635613701E+01  0.21398720151E+02  0.19660895049E+01  0.21720470825E+02  0.51100000000E-03 0. -1.
         12    1    4    4    0    0  0.24151054297E+02  0.10203536104E+02  0.43657916129E+01  0.26579046429E+02  0.00000000000E+00 0. -1.
</event>
<event>
 8    1  0.2460897E-006  0.9118800E+02  0.7816164E-02  0.1184000E+00
        -11   -1    0    0    0    0  0.00000000000E+00  0.00000000000E+00  0.45593999997E+02  0.45594000000E+02  0.51100000000E-03 0. -1.
         11   -1    0    0    0    0 -0.00000000000E+00 -0.00000000000E+00 -0.45593999997E+02  0.45594000000E+02  0.51100000000E-03 0.  1.
         23    2    1    2    0    0  0.00000000000E+00  0.00000000000E+00  0.88817841970E-15  0.91188000000E+02  0.91188000000E+02 0.  0.
    9900012    2    3    3    0    0  0.27303733718E+02  0.23852592193E+02  0.64295497040E+01  0.54367093728E+02  0.40000021772E+02 0.  0.
        -12    1    3    3    0    0 -0.27303733718E+02 -0.23852592193E+02 -0.64295497040E+01  0.36820906272E+02  0.00000000000E+00 0.  1.
         11    1    4    4    0    0  0.23371022818E+02  0.30635489794E+02  0.80949558907E+01  0.39373420649E+02  0.51100000000E-03 0. -1.
        -11    1    4    4    0    0 -0.56024386160E+00 -0.81802103993E+01  0.26420619502E+01  0.86145346346E+01  0.51100000000E-03 0.  1.
        -12    1    4    4    0    0  0.44929547611E+01  0.13973127991E+01 -0.43074681369E+01  0.63791384445E+01  0.00000000000E+00 0.  1.
</event>
<event>
 8    1  0.2460897E-006  0.9118800E+02  0.7816164E-02  0.1184000E+00
        -11   -1    0    0    0    0  0.00000000000E+00  0.00000000000E+00  0.45593999997E+02  0.45594000000E+02  0.51100000000E-03 0.  1.
         11   -1    0    0    0    0 -0.00000000000E+00 -0.00000000000E+00 -0.45593999997E+02  0.45594000000E+02  0.51100000000E-03 0. -1.
         23    2    1    2    0    0  0.00000000000E+00 -0.71054273576E-14 -0.22204460493E-15  0.91188000000E+02  0.91188000000E+02 0.  0.
    9900012    2    3    3    0    0  0.16946848680E+02 -0.32670114249E+02 -0.11170703544E+01  0.54367083507E+02  0.39999998470E+02 0.  0.
         12    1    3    3    0    0 -0.16946848680E+02  0.32670114249E+02  0.11170703544E+01  0.36820916493E+02  0.00000000000E+00 0. -1.
         11    1    4    4    0    0  0.91463732928E+01 -0.11434167787E+02  0.15650093058E+02  0.21431792982E+02  0.51100000000E-03 0.  1.
        -11    1    4    4    0    0 -0.39505446661E+01 -0.13913527101E+02 -0.94240460339E+01  0.17262841118E+02  0.51100000000E-03 0. -1.
        -12    1    4    4    0    0  0.11751020054E+02 -0.73224193605E+01 -0.73431173790E+01  0.15672449408E+02  0.00000000000E+00 0.  1.
</event>
<event>
 8    1  0.2460897E-006  0.9118800E+02  0.7816164E-02  0.1184000E+00
        -11   -1    0    0    0    0  0.00000000000E+00  0.00000000000E+00  0.45593999997E+02  0.45594000000E+02  0.51100000000E-03 0. -1.
         11   -1    0    0    0    0 -0.00000000000E+00 -0.00000000000E+00 -0.45593999997E+02  0.45594000000E+02  0.51100000000E-03 0.  1.
         23    2    1    2    0    0  0.00000000000E+00  0.00000000000E+00  0.62172489379E-14  0.91188000000E+02  0.91188000000E+02 0.  0.
    9900012    2    3    3    0    0  0.20754870003E+02  0.29596771307E+02 -0.70033574730E+01  0.54367075018E+02  0.39999979119E+02 0.  0.
         12    1    3    3    0    0 -0.20754870003E+02 -0.29596771307E+02  0.70033574730E+01  0.36820924982E+02  0.00000000000E+00 0. -1.
         11    1    4    4    0    0  0.21035223468E+02  0.15597146683E+02  0.95549487325E+01  0.27875592488E+02  0.51100000000E-03 0. -1.
        -11    1    4    4    0    0  0.44314392898E+01  0.15163756636E+02 -0.13234731290E+02  0.20609106775E+02  0.51100000000E-03 0.  1.
         12    1    4    4    0    0 -0.47117927550E+01 -0.11641320124E+01 -0.33235749158E+01  0.58823757556E+01  0.00000000000E+00 0. -1.
</event>
<event>
 8    1  0.2460897E-006  0.9118800E+02  0.7816164E-02  0.1184000E+00
        -11   -1    0    0    0    0  0.00000000000E+00  0.00000000000E+00  0.45593999997E+02  0.45594000000E+02  0.51100000000E-03 0.  1.
         11   -1    0    0    0    0 -0.00000000000E+00 -0.00000000000E+00 -0.45593999997E+02  0.45594000000E+02  0.51100000000E-03 0. -1.
         23    2    1    2    0    0  0.00000000000E+00  0.00000000000E+00  0.00000000000E+00  0.91188000000E+02  0.91188000000E+02 0.  0.
    9900012    2    3    3    0    0  0.17010089247E+02 -0.52111568560E+01 -0.32237868446E+02  0.54367089448E+02  0.40000012014E+02 0.  0.
        -12    1    3    3    0    0 -0.17010089247E+02  0.52111568560E+01  0.32237868446E+02  0.36820910552E+02  0.00000000000E+00 0.  1.
         11    1    4    4    0    0  0.66084652945E+01 -0.57755281574E+01 -0.24182510798E+02  0.25725908493E+02  0.51100000000E-03 0. -1.
        -11    1    4    4    0    0  0.36462679524E+01 -0.39155318956E+01  0.85940346393E+01  0.10123442678E+02  0.51100000000E-03 0.  1.
        -12    1    4    4    0    0  0.67553560004E+01  0.44799031971E+01 -0.16649392287E+02  0.18517738276E+02  0.00000000000E+00 0.  1.
</event>
<event>
 8    1  0.2460897E-006  0.9118800E+02  0.7816164E-02  0.1184000E+00
        -11   -1    0    0    0    0  0.00000000000E+00  0.00000000000E+00  0.45593999997E+02  0.45594000000E+02  0.51100000000E-03 0. -1.
         11   -1    0    0    0    0 -0.00000000000E+00 -0.00000000000E+00 -0.45593999997E+02  0.45594000000E+02  0.51100000000E-03 0.  1.
         23    2    1    2    0    0  0.00000000000E+00  0.00000000000E+00  0.88817841970E-15  0.91188000000E+02  0.91188000000E+02 0.  0.
    9900012    2    3    3    0    0  0.11437244046E+02 -0.34903970856E+02 -0.25850146956E+01  0.54367081572E+02  0.39999994059E+02 0.  0.
        -12    1    3    3    0    0 -0.11437244046E+02  0.34903970856E+02  0.25850146956E+01  0.36820918428E+02  0.00000000000E+00 0.  1.
         11    1    4    4    0    0 -0.12582084366E+01 -0.40777313907E+01  0.28272018615E+01  0.51189893916E+01  0.51100000000E-03 0. -1.
        -11    1    4    4    0    0  0.14527417496E+02 -0.17662106000E+02  0.13178870390E+02  0.26394667501E+02  0.51100000000E-03 0.  1.
         12    1    4    4    0    0 -0.18319650136E+01 -0.13164133466E+02 -0.18591086947E+02  0.22853424680E+02  0.00000000000E+00 0. -1.
</event>
<event>
 8    1  0.2460897E-006  0.9118800E+02  0.7816164E-02  0.1184000E+00
        -11   -1    0    0    0    0  0.00000000000E+00  0.00000000000E+00  0.45593999997E+02  0.45594000000E+02  0.51100000000E-03 0.  1.
         11   -1    0    0    0    0 -0.00000000000E+00 -0.00000000000E+00 -0.45593999997E+02  0.45594000000E+02  0.51100000000E-03 0. -1.
         23    2    1    2    0    0  0.00000000000E+00  0.35527136788E-14  0.00000000000E+00  0.91188000000E+02  0.91188000000E+02 0.  0.
    9900012    2    3    3    0    0 -0.30045239167E+02  0.18603233022E+02  0.10343230513E+02  0.54367094349E+02  0.40000023188E+02 0.  0.
         12    1    3    3    0    0  0.30045239167E+02 -0.18603233022E+02 -0.10343230513E+02  0.36820905651E+02  0.00000000000E+00 0. -1.
         11    1    4    4    0    0  0.49260322571E+01  0.49559694185E+01 -0.30373802976E+01  0.76192588884E+01  0.51100000000E-03 0. -1.
        -11    1    4    4    0    0 -0.23767040182E+02  0.66801225759E+00  0.16993605623E+02  0.29225007642E+02  0.51100000000E-03 0.  1.
        -12    1    4    4    0    0 -0.11204231242E+02  0.12979251346E+02 -0.36129948122E+01  0.17522827818E+02  0.00000000000E+00 0.  1.
</event>
<event>
 8    1  0.2460897E-006  0.9118800E+02  0.7816164E-02  0.1184000E+00
        -11   -1    0    0    0    0  0.00000000000E+00  0.00000000000E+00  0.45593999997E+02  0.45594000000E+02  0.51100000000E-03 0.  1.
         11   -1    0    0    0    0 -0.00000000000E+00 -0.00000000000E+00 -0.45593999997E+02  0.45594000000E+02  0.51100000000E-03 0. -1.
         23    2    1    2    0    0  0.00000000000E+00  0.35527136788E-14  0.35527136788E-14  0.91188000000E+02  0.91188000000E+02 0.  0.
    9900012    2    3    3    0    0 -0.13617469963E+02  0.27217679667E+02  0.20725383154E+02  0.54367094504E+02  0.40000023542E+02 0.  0.
         12    1    3    3    0    0  0.13617469963E+02 -0.27217679667E+02 -0.20725383154E+02  0.36820905496E+02  0.00000000000E+00 0. -1.
         11    1    4    4    0    0 -0.27148729255E+01 -0.80658745185E-01 -0.60584324895E+01  0.66394009764E+01  0.51100000000E-03 0. -1.
        -11    1    4    4    0    0  0.53009095081E+01  0.10771240029E+02  0.20480385209E+02  0.23739533103E+02  0.51100000000E-03 0.  1.
        -12    1    4    4    0    0 -0.16203506545E+02  0.16527098383E+02  0.63034304341E+01  0.23988160425E+02  0.00000000000E+00 0.  1.
</event>
<event>
 8    1  0.2460897E-006  0.9118800E+02  0.7816164E-02  0.1184000E+00
        -11   -1    0    0    0    0  0.00000000000E+00  0.00000000000E+00  0.45593999997E+02  0.45594000000E+02  0.51100000000E-03 0.  1.
         11   -1    0    0    0    0 -0.00000000000E+00 -0.00000000000E+00 -0.45593999997E+02  0.45594000000E+02  0.51100000000E-03 0. -1.
         23    2    1    2    0    0  0.00000000000E+00 -0.17763568394E-14 -0.71054273576E-14  0.91188000000E+02  0.91188000000E+02 0.  0.
    9900012    2    3    3    0    0 -0.16730346166E+02  0.53248324356E+01  0.32365438080E+02  0.54367083317E+02  0.39999998037E+02 0.  0.
         12    1    3    3    0    0  0.16730346166E+02 -0.53248324356E+01 -0.32365438080E+02  0.36820916683E+02  0.00000000000E+00 0. -1.
         11    1    4    4    0    0 -0.13687503848E+02  0.21790063531E+01  0.50439343754E+01  0.14749139111E+02  0.51100000000E-03 0. -1.
        -11    1    4    4    0    0  0.99731929663E+01  0.74686768750E+01  0.50124631711E+01  0.13430208469E+02  0.51100000000E-03 0.  1.
        -12    1    4    4    0    0 -0.13016035284E+02 -0.43228507925E+01  0.22309040533E+02  0.26187735737E+02  0.00000000000E+00 0.  1.
</event>
<event>
 8    1  0.2460897E-006  0.9118800E+02  0.7816164E-02  0.1184000E+00
        -11   -1    0    0    0    0  0.00000000000E+00  0.00000000000E+00  0.45593999997E+02  0.45594000000E+02  0.51100000000E-03 0.  1.
         11   -1    0    0    0    0 -0.00000000000E+00 -0.00000000000E+00 -0.45593999997E+02  0.45594000000E+02  0.51100000000E-03 0. -1.
         23    2    1    2    0    0  0.71054273576E-14  0.88817841970E-15 -0.35527136788E-14  0.91188000000E+02  0.91188000000E+02 0.  0.
    9900012    2    3    3    0    0 -0.32083374102E+02  0.31430723160E+01  0.17792080998E+02  0.54367082798E+02  0.39999996856E+02 0.  0.
         12    1    3    3    0    0  0.32083374102E+02 -0.31430723160E+01 -0.17792080998E+02  0.36820917202E+02  0.00000000000E+00 0. -1.
         11    1    4    4    0    0 -0.62076505109E+01  0.41516058620E+01 -0.11642330664E+02  0.13831652817E+02  0.51100000000E-03 0. -1.
        -11    1    4    4    0    0 -0.34503837078E+01 -0.35928728149E+01  0.78884893172E+01  0.93296380832E+01  0.51100000000E-03 0.  1.
        -12    1    4    4    0    0 -0.22425339883E+02  0.25843392689E+01  0.21545922344E+02  0.31205791898E+02  0.00000000000E+00 0.  1.
</event>
<event>
 8    1  0.2460897E-006  0.9118800E+02  0.7816164E-02  0.1184000E+00
        -11   -1    0    0    0    0  0.00000000000E+00  0.00000000000E+00  0.45593999997E+02  0.45594000000E+02  0.51100000000E-03 0.  1.
         11   -1    0    0    0    0 -0.00000000000E+00 -0.00000000000E+00 -0.45593999997E+02  0.45594000000E+02  0.51100000000E-03 0. -1.
         23    2    1    2    0    0  0.00000000000E+00  0.53290705182E-14  0.88817841970E-15  0.91188000000E+02  0.91188000000E+02 0.  0.
    9900012    2    3    3    0    0  0.32808023970E+02  0.15687717456E+02  0.57713333213E+01  0.54367092840E+02  0.40000019747E+02 0.  0.
        -12    1    3    3    0    0 -0.32808023970E+02 -0.15687717456E+02 -0.57713333213E+01  0.36820907160E+02  0.00000000000E+00 0.  1.
         11    1    4    4    0    0  0.34098725806E+00 -0.69657823309E+01 -0.71885040837E+01  0.10015637125E+02  0.51100000000E-03 0. -1.
        -11    1    4    4    0    0  0.12019944478E+02  0.20136432002E+01  0.87309705576E+01  0.14992120308E+02  0.51100000000E-03 0.  1.
         12    1    4    4    0    0  0.20447092234E+02  0.20639856587E+02  0.42288668473E+01  0.29359335407E+02  0.00000000000E+00 0. -1.
</event>
<event>
 8    1  0.2460897E-006  0.9118800E+02  0.7816164E-02  0.1184000E+00
        -11   -1    0    0    0    0  0.00000000000E+00  0.00000000000E+00  0.45593999997E+02  0.45594000000E+02  0.51100000000E-03 0.  1.
         11   -1    0    0    0    0 -0.00000000000E+00 -0.00000000000E+00 -0.45593999997E+02  0.45594000000E+02  0.51100000000E-03 0. -1.
         23    2    1    2    0    0  0.17763568394E-14  0.35527136788E-14  0.00000000000E+00  0.91188000000E+02  0.91188000000E+02 0.  0.
    9900012    2    3    3    0    0 -0.15984352977E+02  0.26048299162E+02  0.20536959474E+02  0.54367080216E+02  0.39999990967E+02 0.  0.
         12    1    3    3    0    0  0.15984352977E+02 -0.26048299162E+02 -0.20536959474E+02  0.36820919784E+02  0.00000000000E+00 0. -1.
         11    1    4    4    0    0 -0.12694862932E+02  0.14337259094E+02  0.21398884925E+02  0.28716351082E+02  0.51100000000E-03 0. -1.
        -11    1    4    4    0    0 -0.20935378465E+01  0.12743245718E+02  0.89501020871E+01  0.15712337183E+02  0.51100000000E-03 0.  1.
         12    1    4    4    0    0 -0.11959521985E+01 -0.10322056492E+01 -0.98120275374E+01  0.99383919503E+01  0.00000000000E+00 0. -1.
</event>
<event>
 8    1  0.2460897E-006  0.9118800E+02  0.7816164E-02  0.1184000E+00
        -11   -1    0    0    0    0  0.00000000000E+00  0.00000000000E+00  0.45593999997E+02  0.45594000000E+02  0.51100000000E-03 0.  1.
         11   -1    0    0    0    0 -0.00000000000E+00 -0.00000000000E+00 -0.45593999997E+02  0.45594000000E+02  0.51100000000E-03 0. -1.
         23    2    1    2    0    0  0.00000000000E+00  0.17763568394E-14 -0.35527136788E-14  0.91188000000E+02  0.91188000000E+02 0.  0.
    9900012    2    3    3    0    0 -0.18283468948E+02 -0.11620431566E+02  0.29773489048E+02  0.54367077733E+02  0.39999985307E+02 0.  0.
         12    1    3    3    0    0  0.18283468948E+02  0.11620431566E+02 -0.29773489048E+02  0.36820922267E+02  0.00000000000E+00 0. -1.
         11    1    4    4    0    0 -0.11057317949E+02  0.57213942829E+01 -0.14950751566E+01  0.12539293550E+02  0.51100000000E-03 0. -1.
        -11    1    4    4    0    0 -0.10659555691E+02 -0.58346105058E+00  0.11979997712E+02  0.16046398343E+02  0.51100000000E-03 0.  1.
         12    1    4    4    0    0  0.34334046921E+01 -0.16758364798E+02  0.19288566492E+02  0.25781385840E+02  0.00000000000E+00 0. -1.
</event>
<event>
 8    1  0.2460897E-006  0.9118800E+02  0.7816164E-02  0.1184000E+00
        -11   -1    0    0    0    0  0.00000000000E+00  0.00000000000E+00  0.45593999997E+02  0.45594000000E+02  0.51100000000E-03 0. -1.
         11   -1    0    0    0    0 -0.00000000000E+00 -0.00000000000E+00 -0.45593999997E+02  0.45594000000E+02  0.51100000000E-03 0.  1.
         23    2    1    2    0    0  0.00000000000E+00  0.17763568394E-14  0.00000000000E+00  0.91188000000E+02  0.91188000000E+02 0.  0.
    9900012    2    3    3    0    0 -0.81731735978E+01  0.13601382303E+02  0.33226223064E+02  0.54367078416E+02  0.39999986864E+02 0.  0.
        -12    1    3    3    0    0  0.81731735978E+01 -0.13601382303E+02 -0.33226223064E+02  0.36820921584E+02  0.00000000000E+00 0.  1.
         11    1    4    4    0    0 -0.85254704504E+01  0.11630431310E+02  0.57714850252E+01  0.15532566385E+02  0.51100000000E-03 0. -1.
        -11    1    4    4    0    0 -0.13955291156E+01 -0.66537976767E+01 -0.27801094320E+01  0.73450346323E+01  0.51100000000E-03 0.  1.
         12    1    4    4    0    0  0.17478259683E+01  0.86247486704E+01  0.30234847471E+02  0.31489477398E+02  0.00000000000E+00 0. -1.
</event>
<event>
 8    1  0.2460897E-006  0.9118800E+02  0.7816164E-02  0.1184000E+00
        -11   -1    0    0    0    0  0.00000000000E+00  0.00000000000E+00  0.45593999997E+02  0.45594000000E+02  0.51100000000E-03 0. -1.
         11   -1    0    0    0    0 -0.00000000000E+00 -0.00000000000E+00 -0.45593999997E+02  0.45594000000E+02  0.51100000000E-03 0.  1.
         23    2    1    2    0    0  0.00000000000E+00 -0.17763568394E-14 -0.35527136788E-14  0.91188000000E+02  0.91188000000E+02 0.  0.
    9900012    2    3    3    0    0  0.23713876224E+02  0.78568220182E+01 -0.27050015453E+02  0.54367069623E+02  0.39999966819E+02 0.  0.
         12    1    3    3    0    0 -0.23713876224E+02 -0.78568220182E+01  0.27050015453E+02  0.36820930377E+02  0.00000000000E+00 0. -1.
         11    1    4    4    0    0  0.99702681737E+01 -0.37430446336E+01  0.77475847426E+01  0.13169726656E+02  0.51100000000E-03 0. -1.
        -11    1    4    4    0    0  0.61184911174E+01 -0.19467283363E+01 -0.11896528303E+02  0.13518619408E+02  0.51100000000E-03 0.  1.
         12    1    4    4    0    0  0.76251169332E+01  0.13546594988E+02 -0.22901071892E+02  0.27678723559E+02  0.00000000000E+00 0. -1.
</event>
<event>
 8    1  0.2460897E-006  0.9118800E+02  0.7816164E-02  0.1184000E+00
        -11   -1    0    0    0    0  0.00000000000E+00  0.00000000000E+00  0.45593999997E+02  0.45594000000E+02  0.51100000000E-03 0.  1.
         11   -1    0    0    0    0 -0.00000000000E+00 -0.00000000000E+00 -0.45593999997E+02  0.45594000000E+02  0.51100000000E-03 0. -1.
         23    2    1    2    0    0  0.35527136788E-14 -0.35527136788E-14  0.00000000000E+00  0.91188000000E+02  0.91188000000E+02 0.  0.
    9900012    2    3    3    0    0 -0.27623669433E+02 -0.12961315374E+02  0.20608651563E+02  0.54367091151E+02  0.40000015898E+02 0.  0.
         12    1    3    3    0    0  0.27623669433E+02  0.12961315374E+02 -0.20608651563E+02  0.36820908849E+02  0.00000000000E+00 0. -1.
         11    1    4    4    0    0 -0.11903905450E+02  0.39479961626E+01 -0.43769589908E+01  0.13283350817E+02  0.51100000000E-03 0. -1.
        -11    1    4    4    0    0  0.44243876207E+01  0.13531025452E+01  0.73173894021E+01  0.86573829902E+01  0.51100000000E-03 0.  1.
        -12    1    4    4    0    0 -0.20144151604E+02 -0.18262414082E+02  0.17668221152E+02  0.32426357344E+02  0.00000000000E+00 0.  1.
</event>
<event>
 8    1  0.2460897E-006  0.9118800E+02  0.7816164E-02  0.1184000E+00
        -11   -1    0    0    0    0  0.00000000000E+00  0.00000000000E+00  0.45593999997E+02  0.45594000000E+02  0.51100000000E-03 0. -1.
         11   -1    0    0    0    0 -0.00000000000E+00 -0.00000000000E+00 -0.45593999997E+02  0.45594000000E+02  0.51100000000E-03 0.  1.
         23    2    1    2    0    0  0.35527136788E-14 -0.35527136788E-14 -0.35527136788E-14  0.91188000000E+02  0.91188000000E+02 0.  0.
    9900012    2    3    3    0    0  0.23318947580E+02 -0.21390624663E+02 -0.18826782574E+02  0.54367083637E+02  0.39999998767E+02 0.  0.
         12    1    3    3    0    0 -0.23318947580E+02  0.21390624663E+02  0.18826782574E+02  0.36820916363E+02  0.00000000000E+00 0. -1.
         11    1    4    4    0    0  0.65148938101E+01 -0.54754569475E+01 -0.13176157869E+01  0.86116538344E+01  0.51100000000E-03 0.  1.
        -11    1    4    4    0    0  0.28637169484E+01 -0.56140196347E+01 -0.25787648704E+02  0.26546580140E+02  0.51100000000E-03 0. -1.
         12    1    4    4    0    0  0.13940336822E+02 -0.10301148081E+02  0.82784819164E+01  0.19208849662E+02  0.00000000000E+00 0. -1.
</event>
<event>
 8    1  0.2460897E-006  0.9118800E+02  0.7816164E-02  0.1184000E+00
        -11   -1    0    0    0    0  0.00000000000E+00  0.00000000000E+00  0.45593999997E+02  0.45594000000E+02  0.51100000000E-03 0. -1.
         11   -1    0    0    0    0 -0.00000000000E+00 -0.00000000000E+00 -0.45593999997E+02  0.45594000000E+02  0.51100000000E-03 0.  1.
         23    2    1    2    0    0 -0.17763568394E-14  0.35527136788E-14  0.35527136788E-14  0.91188000000E+02  0.91188000000E+02 0.  0.
    9900012    2    3    3    0    0  0.13132351488E+02 -0.16704422729E+02 -0.30071301656E+02  0.54367087767E+02  0.40000008184E+02 0.  0.
         12    1    3    3    0    0 -0.13132351488E+02  0.16704422729E+02  0.30071301656E+02  0.36820912233E+02  0.00000000000E+00 0. -1.
         11    1    4    4    0    0 -0.36318717206E+01  0.45102415055E+01 -0.80767606656E+00  0.58468035303E+01  0.51100000000E-03 0. -1.
        -11    1    4    4    0    0  0.52598140235E+01 -0.12925652979E+02  0.20889599227E+01  0.14110347350E+02  0.51100000000E-03 0.  1.
        -12    1    4    4    0    0  0.11504409185E+02 -0.82890112555E+01 -0.31352585512E+02  0.34409936888E+02  0.00000000000E+00 0.  1.
</event>
<event>
 8    1  0.2460897E-006  0.9118800E+02  0.7816164E-02  0.1184000E+00
        -11   -1    0    0    0    0  0.00000000000E+00  0.00000000000E+00  0.45593999997E+02  0.45594000000E+02  0.51100000000E-03 0. -1.
         11   -1    0    0    0    0 -0.00000000000E+00 -0.00000000000E+00 -0.45593999997E+02  0.45594000000E+02  0.51100000000E-03 0.  1.
         23    2    1    2    0    0  0.00000000000E+00  0.35527136788E-14 -0.44408920985E-15  0.91188000000E+02  0.91188000000E+02 0.  0.
    9900012    2    3    3    0    0 -0.20791853727E+02  0.30280989777E+02 -0.25573062091E+01  0.54367091017E+02  0.40000015592E+02 0.  0.
         12    1    3    3    0    0  0.20791853727E+02 -0.30280989777E+02  0.25573062091E+01  0.36820908983E+02  0.00000000000E+00 0. -1.
         11    1    4    4    0    0  0.63692298388E+01  0.32647987333E+01  0.38585144293E+01  0.81310597938E+01  0.51100000000E-03 0. -1.
        -11    1    4    4    0    0 -0.21696442793E+02  0.11386517374E+02 -0.13783241762E+02  0.28113451611E+02  0.51100000000E-03 0.  1.
        -12    1    4    4    0    0 -0.54646407727E+01  0.15629673669E+02  0.73674211237E+01  0.18122579612E+02  0.00000000000E+00 0.  1.
</event>
<event>
 8    1  0.2460897E-006  0.9118800E+02  0.7816164E-02  0.1184000E+00
        -11   -1    0    0    0    0  0.00000000000E+00  0.00000000000E+00  0.45593999997E+02  0.45594000000E+02  0.51100000000E-03 0.  1.
         11   -1    0    0    0    0 -0.00000000000E+00 -0.00000000000E+00 -0.45593999997E+02  0.45594000000E+02  0.51100000000E-03 0. -1.
         23    2    1    2    0    0 -0.35527136788E-14  0.35527136788E-14  0.17763568394E-14  0.91188000000E+02  0.91188000000E+02 0.  0.
    9900012    2    3    3    0    0  0.13512755425E+02 -0.30561506632E+02 -0.15465459908E+02  0.54367072568E+02  0.39999973534E+02 0.  0.
        -12    1    3    3    0    0 -0.13512755425E+02  0.30561506632E+02  0.15465459908E+02  0.36820927432E+02  0.00000000000E+00 0.  1.
         11    1    4    4    0    0 -0.74063891265E+01 -0.18244930337E+02 -0.11698627525E+02  0.22903929119E+02  0.51100000000E-03 0. -1.
        -11    1    4    4    0    0 -0.37111201887E+01 -0.30900681141E-01 -0.53991275616E+00  0.37503165136E+01  0.51100000000E-03 0.  1.
        -12    1    4    4    0    0  0.24630264740E+02 -0.12285675614E+02 -0.32269196271E+01  0.27712826935E+02  0.00000000000E+00 0.  1.
</event>
<event>
 8    1  0.2460897E-006  0.9118800E+02  0.7816164E-02  0.1184000E+00
        -11   -1    0    0    0    0  0.00000000000E+00  0.00000000000E+00  0.45593999997E+02  0.45594000000E+02  0.51100000000E-03 0. -1.
         11   -1    0    0    0    0 -0.00000000000E+00 -0.00000000000E+00 -0.45593999997E+02  0.45594000000E+02  0.51100000000E-03 0.  1.
         23    2    1    2    0    0  0.88817841970E-15 -0.35527136788E-14  0.00000000000E+00  0.91188000000E+02  0.91188000000E+02 0.  0.
    9900012    2    3    3    0    0  0.71366186244E+01 -0.22738830247E+02 -0.28067676784E+02  0.54367079229E+02  0.39999988718E+02 0.  0.
         12    1    3    3    0    0 -0.71366186244E+01  0.22738830247E+02  0.28067676784E+02  0.36820920771E+02  0.00000000000E+00 0. -1.
         11    1    4    4    0    0 -0.65098943638E+01 -0.95844337564E+01 -0.10235043882E+02  0.15459502534E+02  0.51100000000E-03 0. -1.
        -11    1    4    4    0    0  0.97764889976E+01 -0.19679646435E+02 -0.21266621934E+02  0.30580016836E+02  0.51100000000E-03 0.  1.
        -12    1    4    4    0    0  0.38700239907E+01  0.65252499451E+01  0.34339890323E+01  0.83275598592E+01  0.00000000000E+00 0.  1.
</event>
<event>
 8    1  0.2460897E-006  0.9118800E+02  0.7816164E-02  0.1184000E+00
        -11   -1    0    0    0    0  0.00000000000E+00  0.00000000000E+00  0.45593999997E+02  0.45594000000E+02  0.51100000000E-03 0.  1.
         11   -1    0    0    0    0 -0.00000000000E+00 -0.00000000000E+00 -0.45593999997E+02  0.45594000000E+02  0.51100000000E-03 0. -1.
         23    2    1    2    0    0 -0.88817841970E-15  0.27755575616E-15  0.00000000000E+00  0.91188000000E+02  0.91188000000E+02 0.  0.
    9900012    2    3    3    0    0  0.69218551310E+01 -0.47943787936E+00 -0.36161287572E+02  0.54367073097E+02  0.39999974738E+02 0.  0.
        -12    1    3    3    0    0 -0.69218551310E+01  0.47943787936E+00  0.36161287572E+02  0.36820926903E+02  0.00000000000E+00 0.  1.
         11    1    4    4    0    0 -0.18512358107E+01  0.13528252869E+02 -0.22227216089E+01  0.13834059106E+02  0.51100000000E-03 0. -1.
        -11    1    4    4    0    0  0.79153882590E+01 -0.13717951612E+01 -0.65764650151E+01  0.10381959623E+02  0.51100000000E-03 0.  1.
        -12    1    4    4    0    0  0.85770268269E+00 -0.12635895588E+02 -0.27362100948E+02  0.30151054368E+02  0.00000000000E+00 0.  1.
</event>
<event>
 8    1  0.2460897E-006  0.9118800E+02  0.7816164E-02  0.1184000E+00
        -11   -1    0    0    0    0  0.00000000000E+00  0.00000000000E+00  0.45593999997E+02  0.45594000000E+02  0.51100000000E-03 0.  1.
         11   -1    0    0    0    0 -0.00000000000E+00 -0.00000000000E+00 -0.45593999997E+02  0.45594000000E+02  0.51100000000E-03 0. -1.
         23    2    1    2    0    0  0.00000000000E+00  0.00000000000E+00 -0.35527136788E-14  0.91188000000E+02  0.91188000000E+02 0.  0.
    9900012    2    3    3    0    0 -0.24371298946E+02 -0.38026775497E+01 -0.27337874420E+02  0.54367082756E+02  0.39999996759E+02 0.  0.
        -12    1    3    3    0    0  0.24371298946E+02  0.38026775497E+01  0.27337874420E+02  0.36820917244E+02  0.00000000000E+00 0.  1.
         11    1    4    4    0    0 -0.30054558541E+02  0.88551740877E+01 -0.18995073887E+02  0.36640188720E+02  0.51100000000E-03 0. -1.
        -11    1    4    4    0    0  0.54650754343E+01 -0.98227946638E+01 -0.29357704549E+01  0.11617792085E+02  0.51100000000E-03 0.  1.
         12    1    4    4    0    0  0.21818416072E+00 -0.28350569736E+01 -0.54070300785E+01  0.61091019504E+01  0.00000000000E+00 0. -1.
</event>
<event>
 8    1  0.2460897E-006  0.9118800E+02  0.7816164E-02  0.1184000E+00
        -11   -1    0    0    0    0  0.00000000000E+00  0.00000000000E+00  0.45593999997E+02  0.45594000000E+02  0.51100000000E-03 0.  1.
         11   -1    0    0    0    0 -0.00000000000E+00 -0.00000000000E+00 -0.45593999997E+02  0.45594000000E+02  0.51100000000E-03 0. -1.
         23    2    1    2    0    0 -0.17763568394E-14  0.00000000000E+00 -0.44408920985E-15  0.91188000000E+02  0.91188000000E+02 0.  0.
    9900012    2    3    3    0    0  0.28809607931E+01  0.36514370594E+02 -0.37654399129E+01  0.54367112820E+02  0.40000065296E+02 0.  0.
         12    1    3    3    0    0 -0.28809607931E+01 -0.36514370594E+02  0.37654399129E+01  0.36820887180E+02  0.00000000000E+00 0. -1.
         11    1    4    4    0    0  0.16482931279E+02  0.83901815580E+01 -0.36574712071E+01  0.18853627397E+02  0.51100000000E-03 0. -1.
        -11    1    4    4    0    0 -0.14613611829E+02  0.15607461911E+02 -0.51317721189E+01  0.21988306059E+02  0.51100000000E-03 0.  1.
         12    1    4    4    0    0  0.10116413429E+01  0.12516727125E+02  0.50238034131E+01  0.13525179365E+02  0.00000000000E+00 0. -1.
</event>
<event>
 8    1  0.2460897E-006  0.9118800E+02  0.7816164E-02  0.1184000E+00
        -11   -1    0    0    0    0  0.00000000000E+00  0.00000000000E+00  0.45593999997E+02  0.45594000000E+02  0.51100000000E-03 0.  1.
         11   -1    0    0    0    0 -0.00000000000E+00 -0.00000000000E+00 -0.45593999997E+02  0.45594000000E+02  0.51100000000E-03 0. -1.
         23    2    1    2    0    0  0.35527136788E-14 -0.35527136788E-14  0.00000000000E+00  0.91188000000E+02  0.91188000000E+02 0.  0.
    9900012    2    3    3    0    0 -0.17306039162E+02 -0.29335255023E+02 -0.13990142330E+02  0.54367078486E+02  0.39999987024E+02 0.  0.
         12    1    3    3    0    0  0.17306039162E+02  0.29335255023E+02  0.13990142330E+02  0.36820921514E+02  0.00000000000E+00 0. -1.
         11    1    4    4    0    0  0.69692452070E+01 -0.35190494739E+01 -0.64898452868E+01  0.10152446999E+02  0.51100000000E-03 0. -1.
        -11    1    4    4    0    0 -0.88478532726E+01 -0.33408022298E+01 -0.13323409416E+02  0.16338871007E+02  0.51100000000E-03 0.  1.
        -12    1    4    4    0    0 -0.15427431097E+02 -0.22475403319E+02  0.58231123729E+01  0.27875760480E+02  0.00000000000E+00 0.  1.
</event>
<event>
 8    1  0.2460897E-006  0.9118800E+02  0.7816164E-02  0.1184000E+00
        -11   -1    0    0    0    0  0.00000000000E+00  0.00000000000E+00  0.45593999997E+02  0.45594000000E+02  0.51100000000E-03 0. -1.
         11   -1    0    0    0    0 -0.00000000000E+00 -0.00000000000E+00 -0.45593999997E+02  0.45594000000E+02  0.51100000000E-03 0.  1.
         23    2    1    2    0    0  0.00000000000E+00  0.77715611724E-15 -0.35527136788E-14  0.91188000000E+02  0.91188000000E+02 0.  0.
    9900012    2    3    3    0    0  0.23323722155E+02  0.64991110719E+00  0.28484394642E+02  0.54367093741E+02  0.40000021801E+02 0.  0.
        -12    1    3    3    0    0 -0.23323722155E+02 -0.64991110719E+00 -0.28484394642E+02  0.36820906259E+02  0.00000000000E+00 0.  1.
         11    1    4    4    0    0  0.15451210814E+02 -0.94449595728E+01  0.16678887160E+02  0.24619757393E+02  0.51100000000E-03 0. -1.
        -11    1    4    4    0    0  0.12433267565E+02 -0.33092142177E+00  0.13369895987E+02  0.18260607063E+02  0.51100000000E-03 0.  1.
        -12    1    4    4    0    0 -0.45607562235E+01  0.10425792102E+02 -0.15643885051E+01  0.11486729285E+02  0.00000000000E+00 0.  1.
</event>
<event>
 8    1  0.2460897E-006  0.9118800E+02  0.7816164E-02  0.1184000E+00
        -11   -1    0    0    0    0  0.00000000000E+00  0.00000000000E+00  0.45593999997E+02  0.45594000000E+02  0.51100000000E-03 0. -1.
         11   -1    0    0    0    0 -0.00000000000E+00 -0.00000000000E+00 -0.45593999997E+02  0.45594000000E+02  0.51100000000E-03 0.  1.
         23    2    1    2    0    0  0.00000000000E+00 -0.15820678101E-14  0.00000000000E+00  0.91188000000E+02  0.91188000000E+02 0.  0.
    9900012    2    3    3    0    0  0.75936601611E+01 -0.19247521483E+00  0.36028865650E+02  0.54367083643E+02  0.39999998780E+02 0.  0.
        -12    1    3    3    0    0 -0.75936601611E+01  0.19247521483E+00 -0.36028865650E+02  0.36820916357E+02  0.00000000000E+00 0.  1.
         11    1    4    4    0    0  0.72743645811E+01 -0.62797754097E+01  0.17098607778E+02  0.19614136419E+02  0.51100000000E-03 0. -1.
        -11    1    4    4    0    0 -0.42629785324E+01 -0.97330137915E+01  0.13969769302E+02  0.17551609557E+02  0.51100000000E-03 0.  1.
        -12    1    4    4    0    0  0.45822741123E+01  0.15820313986E+02  0.49604885706E+01  0.17201337667E+02  0.00000000000E+00 0.  1.
</event>
<event>
 8    1  0.2460897E-006  0.9118800E+02  0.7816164E-02  0.1184000E+00
        -11   -1    0    0    0    0  0.00000000000E+00  0.00000000000E+00  0.45593999997E+02  0.45594000000E+02  0.51100000000E-03 0. -1.
         11   -1    0    0    0    0 -0.00000000000E+00 -0.00000000000E+00 -0.45593999997E+02  0.45594000000E+02  0.51100000000E-03 0.  1.
         23    2    1    2    0    0  0.00000000000E+00  0.35527136788E-14  0.00000000000E+00  0.91188000000E+02  0.91188000000E+02 0.  0.
    9900012    2    3    3    0    0 -0.11849442332E+02 -0.25656810252E+02  0.23602925758E+02  0.54367091534E+02  0.40000016771E+02 0.  0.
        -12    1    3    3    0    0  0.11849442332E+02  0.25656810252E+02 -0.23602925758E+02  0.36820908466E+02  0.00000000000E+00 0.  1.
         11    1    4    4    0    0 -0.62304333789E+01  0.16724522300E+01  0.24927946237E+01  0.69158818561E+01  0.51100000000E-03 0. -1.
        -11    1    4    4    0    0  0.40666293078E+01  0.52750796743E+01  0.93153103343E+01  0.11451591434E+02  0.51100000000E-03 0.  1.
         12    1    4    4    0    0 -0.96856382609E+01 -0.32604342157E+02  0.11794820800E+02  0.35999618244E+02  0.00000000000E+00 0. -1.
</event>
<event>
 8    1  0.2460897E-006  0.9118800E+02  0.7816164E-02  0.1184000E+00
        -11   -1    0    0    0    0  0.00000000000E+00  0.00000000000E+00  0.45593999997E+02  0.45594000000E+02  0.51100000000E-03 0. -1.
         11   -1    0    0    0    0 -0.00000000000E+00 -0.00000000000E+00 -0.45593999997E+02  0.45594000000E+02  0.51100000000E-03 0.  1.
         23    2    1    2    0    0  0.71054273576E-14 -0.35527136788E-14 -0.10547118734E-14  0.91188000000E+02  0.91188000000E+02 0.  0.
    9900012    2    3    3    0    0 -0.35038053132E+02 -0.11314426909E+02 -0.31462869673E+00  0.54367076400E+02  0.39999982270E+02 0.  0.
         12    1    3    3    0    0  0.35038053132E+02  0.11314426909E+02  0.31462869673E+00  0.36820923600E+02  0.00000000000E+00 0. -1.
         11    1    4    4    0    0 -0.14365005825E+02 -0.18997941475E+02 -0.79053241938E+01  0.25095205189E+02  0.51100000000E-03 0. -1.
        -11    1    4    4    0    0 -0.13897811924E+02  0.53014837228E+01 -0.42087985610E+01  0.15458618681E+02  0.51100000000E-03 0.  1.
         12    1    4    4    0    0 -0.67752353828E+01  0.23820308431E+01  0.11799494058E+02  0.13813252530E+02  0.00000000000E+00 0. -1.
</event>
<event>
 8    1  0.2460897E-006  0.9118800E+02  0.7816164E-02  0.1184000E+00
        -11   -1    0    0    0    0  0.00000000000E+00  0.00000000000E+00  0.45593999997E+02  0.45594000000E+02  0.51100000000E-03 0.  1.
         11   -1    0    0    0    0 -0.00000000000E+00 -0.00000000000E+00 -0.45593999997E+02  0.45594000000E+02  0.51100000000E-03 0. -1.
         23    2    1    2    0    0 -0.71054273576E-14  0.17763568394E-14  0.00000000000E+00  0.91188000000E+02  0.91188000000E+02 0.  0.
    9900012    2    3    3    0    0 -0.34097788792E+02  0.85526980393E+01 -0.10953271737E+02  0.54367054792E+02  0.39999933009E+02 0.  0.
         12    1    3    3    0    0  0.34097788792E+02 -0.85526980393E+01  0.10953271737E+02  0.36820945208E+02  0.00000000000E+00 0. -1.
         11    1    4    4    0    0 -0.13035099925E+02 -0.80476156916E+01 -0.59779400571E+01  0.16444260882E+02  0.51100000000E-03 0. -1.
        -11    1    4    4    0    0 -0.21727077841E+01 -0.70112407601E+01 -0.52330217828E+00  0.73588043555E+01  0.51100000000E-03 0.  1.
         12    1    4    4    0    0 -0.18889981084E+02  0.23611554491E+02 -0.44520295012E+01  0.30563989555E+02  0.00000000000E+00 0. -1.
</event>
<event>
 8    1  0.2460897E-006  0.9118800E+02  0.7816164E-02  0.1184000E+00
        -11   -1    0    0    0    0  0.00000000000E+00  0.00000000000E+00  0.45593999997E+02  0.45594000000E+02  0.51100000000E-03 0.  1.
         11   -1    0    0    0    0 -0.00000000000E+00 -0.00000000000E+00 -0.45593999997E+02  0.45594000000E+02  0.51100000000E-03 0. -1.
         23    2    1    2    0    0  0.00000000000E+00  0.00000000000E+00 -0.35527136788E-14  0.91188000000E+02  0.91188000000E+02 0.  0.
    9900012    2    3    3    0    0 -0.21623989230E+02  0.72353925163E+01  0.28910758328E+02  0.54367085262E+02  0.40000002471E+02 0.  0.
         12    1    3    3    0    0  0.21623989230E+02 -0.72353925163E+01 -0.28910758328E+02  0.36820914738E+02  0.00000000000E+00 0. -1.
         11    1    4    4    0    0 -0.14646674922E+02 -0.94471072235E+01  0.43759509369E+01  0.17970026935E+02  0.51100000000E-03 0. -1.
        -11    1    4    4    0    0 -0.12143026409E+02  0.43663855996E+01  0.81656775261E+01  0.15270779394E+02  0.51100000000E-03 0.  1.
         12    1    4    4    0    0  0.51657121010E+01  0.12316114140E+02  0.16369129865E+02  0.21126278933E+02  0.00000000000E+00 0. -1.
</event>
<event>
 8    1  0.2460897E-006  0.9118800E+02  0.7816164E-02  0.1184000E+00
        -11   -1    0    0    0    0  0.00000000000E+00  0.00000000000E+00  0.45593999997E+02  0.45594000000E+02  0.51100000000E-03 0.  1.
         11   -1    0    0    0    0 -0.00000000000E+00 -0.00000000000E+00 -0.45593999997E+02  0.45594000000E+02  0.51100000000E-03 0. -1.
         23    2    1    2    0    0  0.00000000000E+00  0.00000000000E+00  0.00000000000E+00  0.91188000000E+02  0.91188000000E+02 0.  0.
    9900012    2    3    3    0    0 -0.73212474820E+01  0.16267795576E+02 -0.32210849426E+02  0.54367073092E+02  0.39999974728E+02 0.  0.
        -12    1    3    3    0    0  0.73212474820E+01 -0.16267795576E+02  0.32210849426E+02  0.36820926908E+02  0.00000000000E+00 0.  1.
         11    1    4    4    0    0 -0.13377863820E+02  0.24950701932E+02 -0.19019642044E+02  0.34106473741E+02  0.51100000000E-03 0. -1.
        -11    1    4    4    0    0  0.67534751993E+01 -0.83885266996E+00 -0.31482103964E+01  0.74982884734E+01  0.51100000000E-03 0.  1.
         12    1    4    4    0    0 -0.69685886169E+00 -0.78440536859E+01 -0.10042996985E+02  0.12762310878E+02  0.00000000000E+00 0. -1.
</event>
<event>
 8    1  0.2460897E-006  0.9118800E+02  0.7816164E-02  0.1184000E+00
        -11   -1    0    0    0    0  0.00000000000E+00  0.00000000000E+00  0.45593999997E+02  0.45594000000E+02  0.51100000000E-03 0.  1.
         11   -1    0    0    0    0 -0.00000000000E+00 -0.00000000000E+00 -0.45593999997E+02  0.45594000000E+02  0.51100000000E-03 0. -1.
         23    2    1    2    0    0  0.17763568394E-14  0.00000000000E+00  0.00000000000E+00  0.91188000000E+02  0.91188000000E+02 0.  0.
    9900012    2    3    3    0    0 -0.12784805587E+02 -0.14768630122E+02  0.31212458987E+02  0.54367064574E+02  0.39999955310E+02 0.  0.
         12    1    3    3    0    0  0.12784805587E+02  0.14768630122E+02 -0.31212458987E+02  0.36820935426E+02  0.00000000000E+00 0. -1.
         11    1    4    4    0    0  0.98001542103E+01 -0.12142158363E+02  0.15609727516E+02  0.22071217131E+02  0.51100000000E-03 0. -1.
        -11    1    4    4    0    0 -0.60069935108E+01  0.30690258838E+01  0.12903310898E+02  0.14560162200E+02  0.51100000000E-03 0.  1.
         12    1    4    4    0    0 -0.16577966287E+02 -0.56954976434E+01  0.26994205731E+01  0.17735685243E+02  0.00000000000E+00 0. -1.
</event>
<event>
 8    1  0.2460897E-006  0.9118800E+02  0.7816164E-02  0.1184000E+00
        -11   -1    0    0    0    0  0.00000000000E+00  0.00000000000E+00  0.45593999997E+02  0.45594000000E+02  0.51100000000E-03 0.  1.
         11   -1    0    0    0    0 -0.00000000000E+00 -0.00000000000E+00 -0.45593999997E+02  0.45594000000E+02  0.51100000000E-03 0. -1.
         23    2    1    2    0    0  0.00000000000E+00 -0.17763568394E-14  0.00000000000E+00  0.91188000000E+02  0.91188000000E+02 0.  0.
    9900012    2    3    3    0    0 -0.15155895561E+02 -0.15687908232E+02 -0.29664257642E+02  0.54367084525E+02  0.40000000792E+02 0.  0.
        -12    1    3    3    0    0  0.15155895561E+02  0.15687908232E+02  0.29664257642E+02  0.36820915475E+02  0.00000000000E+00 0.  1.
         11    1    4    4    0    0  0.97487208571E+01 -0.16739330877E+02 -0.17501074390E+02  0.26106136474E+02  0.51100000000E-03 0. -1.
        -11    1    4    4    0    0 -0.99766517082E+01  0.67121225583E+00 -0.19986520519E+01  0.10196995415E+02  0.51100000000E-03 0.  1.
         12    1    4    4    0    0 -0.14927964710E+02  0.38021038948E+00 -0.10164531200E+02  0.18063952636E+02  0.00000000000E+00 0. -1.
</event>
<event>
 8    1  0.2460897E-006  0.9118800E+02  0.7816164E-02  0.1184000E+00
        -11   -1    0    0    0    0  0.00000000000E+00  0.00000000000E+00  0.45593999997E+02  0.45594000000E+02  0.51100000000E-03 0. -1.
         11   -1    0    0    0    0 -0.00000000000E+00 -0.00000000000E+00 -0.45593999997E+02  0.45594000000E+02  0.51100000000E-03 0.  1.
         23    2    1    2    0    0 -0.35527136788E-14  0.00000000000E+00 -0.71054273576E-14  0.91188000000E+02  0.91188000000E+02 0.  0.
    9900012    2    3    3    0    0 -0.26222568469E+02  0.12297820888E+02 -0.22735873072E+02  0.54367089907E+02  0.40000013061E+02 0.  0.
        -12    1    3    3    0    0  0.26222568469E+02 -0.12297820888E+02  0.22735873072E+02  0.36820910093E+02  0.00000000000E+00 0.  1.
         11    1    4    4    0    0 -0.17165829834E+02  0.15331646040E+02  0.78937047241E+00  0.23029289832E+02  0.51100000000E-03 0. -1.
        -11    1    4    4    0    0  0.40016668143E+01  0.63939735772E+00 -0.14472898818E+02  0.15029536478E+02  0.51100000000E-03 0.  1.
         12    1    4    4    0    0 -0.13058405450E+02 -0.36732225098E+01 -0.90523447264E+01  0.16308263597E+02  0.00000000000E+00 0. -1.
</event>
<event>
 8    1  0.2460897E-006  0.9118800E+02  0.7816164E-02  0.1184000E+00
        -11   -1    0    0    0    0  0.00000000000E+00  0.00000000000E+00  0.45593999997E+02  0.45594000000E+02  0.51100000000E-03 0.  1.
         11   -1    0    0    0    0 -0.00000000000E+00 -0.00000000000E+00 -0.45593999997E+02  0.45594000000E+02  0.51100000000E-03 0. -1.
         23    2    1    2    0    0 -0.17763568394E-14  0.35527136788E-14  0.35527136788E-14  0.91188000000E+02  0.91188000000E+02 0.  0.
    9900012    2    3    3    0    0 -0.13924452604E+02 -0.17608002146E+02 -0.29186422203E+02  0.54367090711E+02  0.40000014893E+02 0.  0.
        -12    1    3    3    0    0  0.13924452604E+02  0.17608002146E+02  0.29186422203E+02  0.36820909289E+02  0.00000000000E+00 0.  1.
         11    1    4    4    0    0  0.23189660380E+01 -0.15924558421E+02 -0.93248015367E+01  0.18598953959E+02  0.51100000000E-03 0. -1.
        -11    1    4    4    0    0  0.28978983404E+01 -0.14676094681E+01  0.40155644401E+01  0.51649250117E+01  0.51100000000E-03 0.  1.
         12    1    4    4    0    0 -0.19141316982E+02 -0.21583425684E+00 -0.23877185106E+02  0.30603211741E+02  0.00000000000E+00 0. -1.
</event>
<event>
 8    1  0.2460897E-006  0.9118800E+02  0.7816164E-02  0.1184000E+00
        -11   -1    0    0    0    0  0.00000000000E+00  0.00000000000E+00  0.45593999997E+02  0.45594000000E+02  0.51100000000E-03 0. -1.
         11   -1    0    0    0    0 -0.00000000000E+00 -0.00000000000E+00 -0.45593999997E+02  0.45594000000E+02  0.51100000000E-03 0.  1.
         23    2    1    2    0    0  0.00000000000E+00  0.00000000000E+00  0.00000000000E+00  0.91188000000E+02  0.91188000000E+02 0.  0.
    9900012    2    3    3    0    0 -0.16191012033E+01 -0.19300421534E+02  0.31315346282E+02  0.54367100054E+02  0.40000036192E+02 0.  0.
        -12    1    3    3    0    0  0.16191012033E+01  0.19300421534E+02 -0.31315346282E+02  0.36820899946E+02  0.00000000000E+00 0.  1.
         11    1    4    4    0    0 -0.59149259782E+01  0.61637410320E+00  0.26538096783E+02  0.27196265323E+02  0.51100000000E-03 0.  1.
        -11    1    4    4    0    0  0.75312748413E+01 -0.61510899907E+01  0.80875651459E+01  0.12647715962E+02  0.51100000000E-03 0. -1.
        -12    1    4    4    0    0 -0.32354500664E+01 -0.13765705647E+02 -0.33103156473E+01  0.14523118769E+02  0.00000000000E+00 0.  1.
</event>
<event>
 8    1  0.2460897E-006  0.9118800E+02  0.7816164E-02  0.1184000E+00
        -11   -1    0    0    0    0  0.00000000000E+00  0.00000000000E+00  0.45593999997E+02  0.45594000000E+02  0.51100000000E-03 0. -1.
         11   -1    0    0    0    0 -0.00000000000E+00 -0.00000000000E+00 -0.45593999997E+02  0.45594000000E+02  0.51100000000E-03 0.  1.
         23    2    1    2    0    0  0.00000000000E+00  0.44408920985E-15  0.00000000000E+00  0.91188000000E+02  0.91188000000E+02 0.  0.
    9900012    2    3    3    0    0  0.34563474743E+02  0.24541263815E+01  0.12454835421E+02  0.54367089528E+02  0.40000012197E+02 0.  0.
         12    1    3    3    0    0 -0.34563474743E+02 -0.24541263815E+01 -0.12454835421E+02  0.36820910472E+02  0.00000000000E+00 0. -1.
         11    1    4    4    0    0 -0.48713768800E+01 -0.13349039715E+01 -0.58424368228E+01  0.77231049203E+01  0.51100000000E-03 0. -1.
        -11    1    4    4    0    0  0.16218849187E+02 -0.65086329335E+00 -0.80716998802E+00  0.16251960363E+02  0.51100000000E-03 0.  1.
         12    1    4    4    0    0  0.23216002436E+02  0.44398936463E+01  0.19104442232E+02  0.30392024245E+02  0.00000000000E+00 0. -1.
</event>
<event>
 8    1  0.2460897E-006  0.9118800E+02  0.7816164E-02  0.1184000E+00
        -11   -1    0    0    0    0  0.00000000000E+00  0.00000000000E+00  0.45593999997E+02  0.45594000000E+02  0.51100000000E-03 0.  1.
         11   -1    0    0    0    0 -0.00000000000E+00 -0.00000000000E+00 -0.45593999997E+02  0.45594000000E+02  0.51100000000E-03 0. -1.
         23    2    1    2    0    0  0.35527136788E-14  0.44408920985E-15 -0.35527136788E-14  0.91188000000E+02  0.91188000000E+02 0.  0.
    9900012    2    3    3    0    0  0.30626013571E+02  0.27297536884E+01 -0.20257796920E+02  0.54367046746E+02  0.39999914668E+02 0.  0.
        -12    1    3    3    0    0 -0.30626013571E+02 -0.27297536884E+01  0.20257796920E+02  0.36820953254E+02  0.00000000000E+00 0.  1.
         11    1    4    4    0    0  0.26846405807E+02  0.15680741281E+02 -0.10207277574E+02  0.32723136580E+02  0.51100000000E-03 0. -1.
        -11    1    4    4    0    0  0.24273991376E+01 -0.78897360434E+01  0.20089891997E+01  0.84956600258E+01  0.51100000000E-03 0.  1.
         12    1    4    4    0    0  0.13522086265E+01 -0.50612515493E+01 -0.12059508545E+02  0.13148250141E+02  0.00000000000E+00 0. -1.
</event>
<event>
 8    1  0.2460897E-006  0.9118800E+02  0.7816164E-02  0.1184000E+00
        -11   -1    0    0    0    0  0.00000000000E+00  0.00000000000E+00  0.45593999997E+02  0.45594000000E+02  0.51100000000E-03 0.  1.
         11   -1    0    0    0    0 -0.00000000000E+00 -0.00000000000E+00 -0.45593999997E+02  0.45594000000E+02  0.51100000000E-03 0. -1.
         23    2    1    2    0    0  0.17763568394E-14  0.00000000000E+00  0.14210854715E-13  0.91188000000E+02  0.91188000000E+02 0.  0.
    9900012    2    3    3    0    0  0.10204718248E+02 -0.61775626477E+01  0.34835013224E+02  0.54367126828E+02  0.40000097231E+02 0.  0.
         12    1    3    3    0    0 -0.10204718248E+02  0.61775626477E+01 -0.34835013224E+02  0.36820873172E+02  0.00000000000E+00 0. -1.
         11    1    4    4    0    0  0.13585351989E+02 -0.10251457205E+01  0.27351401636E+02  0.30556699496E+02  0.51100000000E-03 0.  1.
        -11    1    4    4    0    0  0.88023788829E+01 -0.18876806191E+01 -0.26705334491E+00  0.90064715548E+01  0.51100000000E-03 0. -1.
        -12    1    4    4    0    0 -0.12183012624E+02 -0.32647363081E+01  0.77506649333E+01  0.14803955777E+02  0.00000000000E+00 0.  1.
</event>
<event>
 8    1  0.2460897E-006  0.9118800E+02  0.7816164E-02  0.1184000E+00
        -11   -1    0    0    0    0  0.00000000000E+00  0.00000000000E+00  0.45593999997E+02  0.45594000000E+02  0.51100000000E-03 0. -1.
         11   -1    0    0    0    0 -0.00000000000E+00 -0.00000000000E+00 -0.45593999997E+02  0.45594000000E+02  0.51100000000E-03 0.  1.
         23    2    1    2    0    0 -0.35527136788E-14  0.00000000000E+00  0.00000000000E+00  0.91188000000E+02  0.91188000000E+02 0.  0.
    9900012    2    3    3    0    0  0.16272291579E+02  0.30811242054E+02 -0.11902067683E+02  0.54367091194E+02  0.40000015995E+02 0.  0.
         12    1    3    3    0    0 -0.16272291579E+02 -0.30811242054E+02  0.11902067683E+02  0.36820908806E+02  0.00000000000E+00 0. -1.
         11    1    4    4    0    0  0.64427071911E+01  0.22393442200E+02  0.10308291623E+02  0.25480102157E+02  0.51100000000E-03 0. -1.
        -11    1    4    4    0    0 -0.17683005813E+01  0.16393715083E+01  0.53588813827E+00  0.24701421509E+01  0.51100000000E-03 0.  1.
        -12    1    4    4    0    0  0.11597884970E+02  0.67784283464E+01 -0.22746247444E+02  0.26416846886E+02  0.00000000000E+00 0.  1.
</event>
<event>
 8    1  0.2460897E-006  0.9118800E+02  0.7816164E-02  0.1184000E+00
        -11   -1    0    0    0    0  0.00000000000E+00  0.00000000000E+00  0.45593999997E+02  0.45594000000E+02  0.51100000000E-03 0.  1.
         11   -1    0    0    0    0 -0.00000000000E+00 -0.00000000000E+00 -0.45593999997E+02  0.45594000000E+02  0.51100000000E-03 0. -1.
         23    2    1    2    0    0  0.00000000000E+00  0.00000000000E+00 -0.17763568394E-14  0.91188000000E+02  0.91188000000E+02 0.  0.
    9900012    2    3    3    0    0  0.26641137524E+02 -0.22185979836E+02 -0.12402086184E+02  0.54367086764E+02  0.40000005895E+02 0.  0.
        -12    1    3    3    0    0 -0.26641137524E+02  0.22185979836E+02  0.12402086184E+02  0.36820913236E+02  0.00000000000E+00 0.  1.
         11    1    4    4    0    0  0.14926774246E+02 -0.12001244324E+01  0.46468182352E+01  0.15679343355E+02  0.51100000000E-03 0. -1.
        -11    1    4    4    0    0  0.80873790326E+01  0.14757162352E+01  0.26030706481E+01  0.86231905397E+01  0.51100000000E-03 0.  1.
         12    1    4    4    0    0  0.36269842451E+01 -0.22461571639E+02 -0.19651975067E+02  0.30064552869E+02  0.00000000000E+00 0. -1.
</event>
<event>
 8    1  0.2460897E-006  0.9118800E+02  0.7816164E-02  0.1184000E+00
        -11   -1    0    0    0    0  0.00000000000E+00  0.00000000000E+00  0.45593999997E+02  0.45594000000E+02  0.51100000000E-03 0.  1.
         11   -1    0    0    0    0 -0.00000000000E+00 -0.00000000000E+00 -0.45593999997E+02  0.45594000000E+02  0.51100000000E-03 0. -1.
         23    2    1    2    0    0  0.00000000000E+00 -0.35527136788E-14 -0.66613381478E-15  0.91188000000E+02  0.91188000000E+02 0.  0.
    9900012    2    3    3    0    0 -0.26481435372E+02  0.25519643208E+02  0.18058062244E+01  0.54367088211E+02  0.40000009196E+02 0.  0.
         12    1    3    3    0    0  0.26481435372E+02 -0.25519643208E+02 -0.18058062244E+01  0.36820911789E+02  0.00000000000E+00 0. -1.
         11    1    4    4    0    0  0.11569890014E+00  0.13593998048E+02 -0.86252694324E+01  0.16099858453E+02  0.51100000000E-03 0. -1.
        -11    1    4    4    0    0 -0.50882614787E+01  0.40891449746E+01  0.13668704678E+02  0.15147442007E+02  0.51100000000E-03 0.  1.
        -12    1    4    4    0    0 -0.21508872793E+02  0.78365001847E+01 -0.32376290215E+01  0.23119787751E+02  0.00000000000E+00 0.  1.
</event>
<event>
 8    1  0.2460897E-006  0.9118800E+02  0.7816164E-02  0.1184000E+00
        -11   -1    0    0    0    0  0.00000000000E+00  0.00000000000E+00  0.45593999997E+02  0.45594000000E+02  0.51100000000E-03 0.  1.
         11   -1    0    0    0    0 -0.00000000000E+00 -0.00000000000E+00 -0.45593999997E+02  0.45594000000E+02  0.51100000000E-03 0. -1.
         23    2    1    2    0    0  0.35527136788E-14  0.00000000000E+00  0.00000000000E+00  0.91188000000E+02  0.91188000000E+02 0.  0.
    9900012    2    3    3    0    0 -0.30151343102E+02  0.86518534566E+01  0.19282647844E+02  0.54367101492E+02  0.40000039471E+02 0.  0.
         12    1    3    3    0    0  0.30151343102E+02 -0.86518534566E+01 -0.19282647844E+02  0.36820898508E+02  0.00000000000E+00 0. -1.
         11    1    4    4    0    0  0.18329983727E+01  0.79249599038E+01 -0.23920626038E+01  0.84786105154E+01  0.51100000000E-03 0. -1.
        -11    1    4    4    0    0 -0.21267466583E+02  0.32842880544E+01  0.26263039727E+02  0.33953481984E+02  0.51100000000E-03 0.  1.
        -12    1    4    4    0    0 -0.10716874892E+02 -0.25573945016E+01 -0.45883292788E+01  0.11935008992E+02  0.00000000000E+00 0.  1.
</event>
<event>
 8    1  0.2460897E-006  0.9118800E+02  0.7816164E-02  0.1184000E+00
        -11   -1    0    0    0    0  0.00000000000E+00  0.00000000000E+00  0.45593999997E+02  0.45594000000E+02  0.51100000000E-03 0.  1.
         11   -1    0    0    0    0 -0.00000000000E+00 -0.00000000000E+00 -0.45593999997E+02  0.45594000000E+02  0.51100000000E-03 0. -1.
         23    2    1    2    0    0 -0.17763568394E-14  0.00000000000E+00  0.00000000000E+00  0.91188000000E+02  0.91188000000E+02 0.  0.
    9900012    2    3    3    0    0 -0.13882704894E+02 -0.25497093983E+02  0.22648366473E+02  0.54367084739E+02  0.40000001281E+02 0.  0.
         12    1    3    3    0    0  0.13882704894E+02  0.25497093983E+02 -0.22648366473E+02  0.36820915261E+02  0.00000000000E+00 0. -1.
         11    1    4    4    0    0  0.26677157905E+01 -0.74528390338E+01  0.46398702429E+01  0.91755061624E+01  0.51100000000E-03 0. -1.
        -11    1    4    4    0    0 -0.14861331737E+02 -0.26082094716E+02  0.59520394717E+01  0.30603294266E+02  0.51100000000E-03 0.  1.
        -12    1    4    4    0    0 -0.16890889473E+01  0.80378397671E+01  0.12056456758E+02  0.14588284311E+02  0.00000000000E+00 0.  1.
</event>
<event>
 8    1  0.2460897E-006  0.9118800E+02  0.7816164E-02  0.1184000E+00
        -11   -1    0    0    0    0  0.00000000000E+00  0.00000000000E+00  0.45593999997E+02  0.45594000000E+02  0.51100000000E-03 0.  1.
         11   -1    0    0    0    0 -0.00000000000E+00 -0.00000000000E+00 -0.45593999997E+02  0.45594000000E+02  0.51100000000E-03 0. -1.
         23    2    1    2    0    0 -0.17763568394E-14 -0.35527136788E-14 -0.35527136788E-14  0.91188000000E+02  0.91188000000E+02 0.  0.
    9900012    2    3    3    0    0  0.13107171846E+02  0.23975433812E+02  0.24681172986E+02  0.54367086374E+02  0.40000005007E+02 0.  0.
         12    1    3    3    0    0 -0.13107171846E+02 -0.23975433812E+02 -0.24681172986E+02  0.36820913626E+02  0.00000000000E+00 0. -1.
         11    1    4    4    0    0 -0.67372572499E+01  0.87315205731E+01 -0.59501013854E+01  0.12531312522E+02  0.51100000000E-03 0. -1.
        -11    1    4    4    0    0  0.15892358784E+02  0.16705303729E+02  0.20459213928E+02  0.30825536089E+02  0.51100000000E-03 0.  1.
         12    1    4    4    0    0  0.39520703121E+01 -0.14613904898E+01  0.10172060444E+02  0.11010237763E+02  0.00000000000E+00 0. -1.
</event>
<event>
 8    1  0.2460897E-006  0.9118800E+02  0.7816164E-02  0.1184000E+00
        -11   -1    0    0    0    0  0.00000000000E+00  0.00000000000E+00  0.45593999997E+02  0.45594000000E+02  0.51100000000E-03 0.  1.
         11   -1    0    0    0    0 -0.00000000000E+00 -0.00000000000E+00 -0.45593999997E+02  0.45594000000E+02  0.51100000000E-03 0. -1.
         23    2    1    2    0    0  0.00000000000E+00  0.88817841970E-15  0.00000000000E+00  0.91188000000E+02  0.91188000000E+02 0.  0.
    9900012    2    3    3    0    0 -0.16294974244E+02  0.46972615360E+01 -0.32683164549E+02  0.54367086154E+02  0.40000004505E+02 0.  0.
        -12    1    3    3    0    0  0.16294974244E+02 -0.46972615360E+01  0.32683164549E+02  0.36820913846E+02  0.00000000000E+00 0.  1.
         11    1    4    4    0    0  0.19348315911E+00 -0.27253960172E+01  0.28397897903E+01  0.39407645829E+01  0.51100000000E-03 0.  1.
        -11    1    4    4    0    0  0.35847039050E+01  0.19083990337E+01  0.40353911162E+01  0.57250738581E+01  0.51100000000E-03 0. -1.
         12    1    4    4    0    0 -0.20073161308E+02  0.55142585194E+01 -0.39558345455E+02  0.44701247713E+02  0.00000000000E+00 0. -1.
</event>
<event>
 8    1  0.2460897E-006  0.9118800E+02  0.7816164E-02  0.1184000E+00
        -11   -1    0    0    0    0  0.00000000000E+00  0.00000000000E+00  0.45593999997E+02  0.45594000000E+02  0.51100000000E-03 0.  1.
         11   -1    0    0    0    0 -0.00000000000E+00 -0.00000000000E+00 -0.45593999997E+02  0.45594000000E+02  0.51100000000E-03 0. -1.
         23    2    1    2    0    0  0.00000000000E+00  0.00000000000E+00 -0.35527136788E-14  0.91188000000E+02  0.91188000000E+02 0.  0.
    9900012    2    3    3    0    0 -0.23210135464E+02 -0.44854336636E+01  0.28230312649E+02  0.54367081276E+02  0.39999993385E+02 0.  0.
         12    1    3    3    0    0  0.23210135464E+02  0.44854336636E+01 -0.28230312649E+02  0.36820918724E+02  0.00000000000E+00 0. -1.
         11    1    4    4    0    0  0.64267701017E+00 -0.33343924997E+01 -0.60877326587E+01  0.69707744380E+01  0.51100000000E-03 0. -1.
        -11    1    4    4    0    0 -0.19809723461E+02  0.64514785647E+01  0.32486395539E+02  0.38592908865E+02  0.51100000000E-03 0.  1.
        -12    1    4    4    0    0 -0.40430890130E+01 -0.76025197286E+01  0.18316497688E+01  0.88033979727E+01  0.00000000000E+00 0.  1.
</event>
<event>
 8    1  0.2460897E-006  0.9118800E+02  0.7816164E-02  0.1184000E+00
        -11   -1    0    0    0    0  0.00000000000E+00  0.00000000000E+00  0.45593999997E+02  0.45594000000E+02  0.51100000000E-03 0. -1.
         11   -1    0    0    0    0 -0.00000000000E+00 -0.00000000000E+00 -0.45593999997E+02  0.45594000000E+02  0.51100000000E-03 0.  1.
         23    2    1    2    0    0  0.00000000000E+00  0.00000000000E+00  0.00000000000E+00  0.91188000000E+02  0.91188000000E+02 0.  0.
    9900012    2    3    3    0    0 -0.22653284077E+01 -0.14094685315E+02  0.33940950193E+02  0.54367082481E+02  0.39999996133E+02 0.  0.
        -12    1    3    3    0    0  0.22653284077E+01  0.14094685315E+02 -0.33940950193E+02  0.36820917519E+02  0.00000000000E+00 0.  1.
         11    1    4    4    0    0 -0.87097327361E+00 -0.37924584681E+01  0.11760604381E+02  0.12387620891E+02  0.51100000000E-03 0. -1.
        -11    1    4    4    0    0  0.12320953497E+02 -0.12769137633E+02  0.21706232294E+02  0.28035999922E+02  0.51100000000E-03 0.  1.
        -12    1    4    4    0    0 -0.13715308631E+02  0.24669107870E+01  0.47411351791E+00  0.13943461668E+02  0.00000000000E+00 0.  1.
</event>
<event>
 8    1  0.2460897E-006  0.9118800E+02  0.7816164E-02  0.1184000E+00
        -11   -1    0    0    0    0  0.00000000000E+00  0.00000000000E+00  0.45593999997E+02  0.45594000000E+02  0.51100000000E-03 0. -1.
         11   -1    0    0    0    0 -0.00000000000E+00 -0.00000000000E+00 -0.45593999997E+02  0.45594000000E+02  0.51100000000E-03 0.  1.
         23    2    1    2    0    0 -0.35527136788E-14  0.44408920985E-15  0.71054273576E-14  0.91188000000E+02  0.91188000000E+02 0.  0.
    9900012    2    3    3    0    0  0.15571783139E+02 -0.30866939104E+01 -0.33223061237E+02  0.54367083290E+02  0.39999997976E+02 0.  0.
         12    1    3    3    0    0 -0.15571783139E+02  0.30866939104E+01  0.33223061237E+02  0.36820916710E+02  0.00000000000E+00 0. -1.
         11    1    4    4    0    0 -0.66739275921E+01  0.73673484226E+01 -0.39614419421E+01  0.10701035221E+02  0.51100000000E-03 0. -1.
        -11    1    4    4    0    0  0.12009327112E+02 -0.31593743281E+00 -0.26361629367E+02  0.28969971649E+02  0.51100000000E-03 0.  1.
        -12    1    4    4    0    0  0.10236383619E+02 -0.10138104900E+02 -0.28999899272E+01  0.14696076420E+02  0.00000000000E+00 0.  1.
</event>
<event>
 8    1  0.2460897E-006  0.9118800E+02  0.7816164E-02  0.1184000E+00
        -11   -1    0    0    0    0  0.00000000000E+00  0.00000000000E+00  0.45593999997E+02  0.45594000000E+02  0.51100000000E-03 0.  1.
         11   -1    0    0    0    0 -0.00000000000E+00 -0.00000000000E+00 -0.45593999997E+02  0.45594000000E+02  0.51100000000E-03 0. -1.
         23    2    1    2    0    0  0.26645352591E-14  0.00000000000E+00  0.88817841970E-15  0.91188000000E+02  0.91188000000E+02 0.  0.
    9900012    2    3    3    0    0 -0.66595811230E+01  0.35526667754E+02 -0.70204236583E+01  0.54367075367E+02  0.39999979915E+02 0.  0.
        -12    1    3    3    0    0  0.66595811230E+01 -0.35526667754E+02  0.70204236583E+01  0.36820924633E+02  0.00000000000E+00 0.  1.
         11    1    4    4    0    0  0.13050224903E+02  0.52357506936E+01 -0.90557380429E+01  0.16725066431E+02  0.51100000000E-03 0. -1.
        -11    1    4    4    0    0 -0.28337220470E+00  0.71905943311E+01  0.19624245033E+01  0.74589581600E+01  0.51100000000E-03 0.  1.
         12    1    4    4    0    0 -0.19426433822E+02  0.23100322730E+02  0.72889881256E-01  0.30183050776E+02  0.00000000000E+00 0. -1.
</event>
<event>
 8    1  0.2460897E-006  0.9118800E+02  0.7816164E-02  0.1184000E+00
        -11   -1    0    0    0    0  0.00000000000E+00  0.00000000000E+00  0.45593999997E+02  0.45594000000E+02  0.51100000000E-03 0.  1.
         11   -1    0    0    0    0 -0.00000000000E+00 -0.00000000000E+00 -0.45593999997E+02  0.45594000000E+02  0.51100000000E-03 0. -1.
         23    2    1    2    0    0  0.00000000000E+00  0.00000000000E+00  0.00000000000E+00  0.91188000000E+02  0.91188000000E+02 0.  0.
    9900012    2    3    3    0    0 -0.10621918538E+02 -0.17747378395E+02  0.30462827677E+02  0.54367102898E+02  0.40000042676E+02 0.  0.
         12    1    3    3    0    0  0.10621918538E+02  0.17747378395E+02 -0.30462827677E+02  0.36820897102E+02  0.00000000000E+00 0. -1.
         11    1    4    4    0    0  0.39963568816E+01 -0.46940635259E+01 -0.38542954775E+01  0.72705360600E+01  0.51100000000E-03 0. -1.
        -11    1    4    4    0    0  0.24440291304E+01 -0.99392272530E+00 -0.32038407226E+01  0.41503923201E+01  0.51100000000E-03 0.  1.
        -12    1    4    4    0    0 -0.17062304550E+02 -0.12059392144E+02  0.37520963877E+02  0.42946174518E+02  0.00000000000E+00 0.  1.
</event>
<event>
 8    1  0.2460897E-006  0.9118800E+02  0.7816164E-02  0.1184000E+00
        -11   -1    0    0    0    0  0.00000000000E+00  0.00000000000E+00  0.45593999997E+02  0.45594000000E+02  0.51100000000E-03 0.  1.
         11   -1    0    0    0    0 -0.00000000000E+00 -0.00000000000E+00 -0.45593999997E+02  0.45594000000E+02  0.51100000000E-03 0. -1.
         23    2    1    2    0    0 -0.71054273576E-14 -0.35527136788E-14 -0.35527136788E-14  0.91188000000E+02  0.91188000000E+02 0.  0.
    9900012    2    3    3    0    0 -0.25576224045E+02 -0.22578080073E+02 -0.13851585919E+02  0.54367090606E+02  0.40000014654E+02 0.  0.
         12    1    3    3    0    0  0.25576224045E+02  0.22578080073E+02  0.13851585919E+02  0.36820909394E+02  0.00000000000E+00 0. -1.
         11    1    4    4    0    0 -0.23485743801E+02 -0.96983676423E+01 -0.23784655490E+02  0.34804429802E+02  0.51100000000E-03 0.  1.
        -11    1    4    4    0    0  0.23968941652E+01 -0.85892755734E+01  0.14255044863E+01  0.90306599878E+01  0.51100000000E-03 0. -1.
        -12    1    4    4    0    0 -0.44873744088E+01 -0.42904368571E+01  0.85075650847E+01  0.10532000816E+02  0.00000000000E+00 0.  1.
</event>
<event>
 8    1  0.2460897E-006  0.9118800E+02  0.7816164E-02  0.1184000E+00
        -11   -1    0    0    0    0  0.00000000000E+00  0.00000000000E+00  0.45593999997E+02  0.45594000000E+02  0.51100000000E-03 0. -1.
         11   -1    0    0    0    0 -0.00000000000E+00 -0.00000000000E+00 -0.45593999997E+02  0.45594000000E+02  0.51100000000E-03 0.  1.
         23    2    1    2    0    0  0.00000000000E+00  0.17763568394E-14 -0.35527136788E-14  0.91188000000E+02  0.91188000000E+02 0.  0.
    9900012    2    3    3    0    0 -0.18589162795E+02  0.14511515467E+02 -0.28277833902E+02  0.54367123520E+02  0.40000089688E+02 0.  0.
         12    1    3    3    0    0  0.18589162795E+02 -0.14511515467E+02  0.28277833902E+02  0.36820876480E+02  0.00000000000E+00 0. -1.
         11    1    4    4    0    0  0.72947684275E+01  0.31738663670E+01  0.26790567122E+01  0.83943087419E+01  0.51100000000E-03 0. -1.
        -11    1    4    4    0    0 -0.18461504144E+02  0.26234015427E+01 -0.79408114086E+01  0.20267359399E+02  0.51100000000E-03 0.  1.
        -12    1    4    4    0    0 -0.74224270786E+01  0.87142475575E+01 -0.23016079206E+02  0.25705455379E+02  0.00000000000E+00 0.  1.
</event>
<event>
 8    1  0.2460897E-006  0.9118800E+02  0.7816164E-02  0.1184000E+00
        -11   -1    0    0    0    0  0.00000000000E+00  0.00000000000E+00  0.45593999997E+02  0.45594000000E+02  0.51100000000E-03 0.  1.
         11   -1    0    0    0    0 -0.00000000000E+00 -0.00000000000E+00 -0.45593999997E+02  0.45594000000E+02  0.51100000000E-03 0. -1.
         23    2    1    2    0    0  0.71054273576E-14  0.00000000000E+00 -0.44408920985E-15  0.91188000000E+02  0.91188000000E+02 0.  0.
    9900012    2    3    3    0    0 -0.35578773584E+02 -0.89096509389E+01  0.32478573877E+01  0.54367087637E+02  0.40000007886E+02 0.  0.
        -12    1    3    3    0    0  0.35578773584E+02  0.89096509389E+01 -0.32478573877E+01  0.36820912363E+02  0.00000000000E+00 0.  1.
         11    1    4    4    0    0 -0.16407362466E+02 -0.17266630318E+01 -0.53455856580E+01  0.17342381458E+02  0.51100000000E-03 0. -1.
        -11    1    4    4    0    0 -0.26948775895E+02 -0.64315870621E+01  0.91857922707E+01  0.29188706964E+02  0.51100000000E-03 0.  1.
        -12    1    4    4    0    0  0.77773647765E+01 -0.75140084500E+00 -0.59234922502E+00  0.78359992153E+01  0.00000000000E+00 0.  1.
</event>
<event>
 8    1  0.2460897E-006  0.9118800E+02  0.7816164E-02  0.1184000E+00
        -11   -1    0    0    0    0  0.00000000000E+00  0.00000000000E+00  0.45593999997E+02  0.45594000000E+02  0.51100000000E-03 0. -1.
         11   -1    0    0    0    0 -0.00000000000E+00 -0.00000000000E+00 -0.45593999997E+02  0.45594000000E+02  0.51100000000E-03 0.  1.
         23    2    1    2    0    0  0.00000000000E+00  0.88817841970E-15 -0.35527136788E-14  0.91188000000E+02  0.91188000000E+02 0.  0.
    9900012    2    3    3    0    0 -0.17752254407E+02 -0.52629153828E+01  0.31826709863E+02  0.54367078291E+02  0.39999986579E+02 0.  0.
        -12    1    3    3    0    0  0.17752254407E+02  0.52629153828E+01 -0.31826709863E+02  0.36820921709E+02  0.00000000000E+00 0.  1.
         11    1    4    4    0    0 -0.11957922633E+02  0.35632530350E-01  0.34735081845E+02  0.36735801262E+02  0.51100000000E-03 0. -1.
        -11    1    4    4    0    0 -0.87362728440E+01  0.11310381740E+00 -0.61368018508E+01  0.10676871868E+02  0.51100000000E-03 0.  1.
        -12    1    4    4    0    0  0.29419410700E+01 -0.54116517305E+01  0.32284298689E+01  0.69544051601E+01  0.00000000000E+00 0.  1.
</event>
<event>
 8    1  0.2460897E-006  0.9118800E+02  0.7816164E-02  0.1184000E+00
        -11   -1    0    0    0    0  0.00000000000E+00  0.00000000000E+00  0.45593999997E+02  0.45594000000E+02  0.51100000000E-03 0.  1.
         11   -1    0    0    0    0 -0.00000000000E+00 -0.00000000000E+00 -0.45593999997E+02  0.45594000000E+02  0.51100000000E-03 0. -1.
         23    2    1    2    0    0  0.00000000000E+00 -0.44408920985E-15  0.71054273576E-14  0.91188000000E+02  0.91188000000E+02 0.  0.
    9900012    2    3    3    0    0  0.57186241566E+01 -0.10827255779E+01 -0.36358018753E+02  0.54367075452E+02  0.39999980109E+02 0.  0.
        -12    1    3    3    0    0 -0.57186241566E+01  0.10827255779E+01  0.36358018753E+02  0.36820924548E+02  0.00000000000E+00 0.  1.
         11    1    4    4    0    0  0.15278954555E+02  0.31843471370E+01 -0.55640203755E+01  0.16569394738E+02  0.51100000000E-03 0.  1.
        -11    1    4    4    0    0 -0.66885034305E+01  0.64887778693E+01 -0.20981397815E+02  0.22957773649E+02  0.51100000000E-03 0. -1.
         12    1    4    4    0    0 -0.28718269680E+01 -0.10755850584E+02 -0.98126005623E+01  0.14839907066E+02  0.00000000000E+00 0. -1.
</event>
<event>
 8    1  0.2460897E-006  0.9118800E+02  0.7816164E-02  0.1184000E+00
        -11   -1    0    0    0    0  0.00000000000E+00  0.00000000000E+00  0.45593999997E+02  0.45594000000E+02  0.51100000000E-03 0. -1.
         11   -1    0    0    0    0 -0.00000000000E+00 -0.00000000000E+00 -0.45593999997E+02  0.45594000000E+02  0.51100000000E-03 0.  1.
         23    2    1    2    0    0  0.00000000000E+00  0.00000000000E+00  0.71054273576E-14  0.91188000000E+02  0.91188000000E+02 0.  0.
    9900012    2    3    3    0    0  0.59609346278E+01  0.11826382825E+02  0.34356711801E+02  0.54367085860E+02  0.40000003835E+02 0.  0.
        -12    1    3    3    0    0 -0.59609346278E+01 -0.11826382825E+02 -0.34356711801E+02  0.36820914140E+02  0.00000000000E+00 0.  1.
         11    1    4    4    0    0  0.10006072782E+02  0.12950864495E+02  0.18167771209E+02  0.24452286082E+02  0.51100000000E-03 0. -1.
        -11    1    4    4    0    0  0.86690837068E+01  0.17256267246E+01 -0.36664995399E+00  0.88467639484E+01  0.51100000000E-03 0.  1.
         12    1    4    4    0    0 -0.12714221861E+02 -0.28501083944E+01  0.16555590546E+02  0.21068035829E+02  0.00000000000E+00 0. -1.
</event>
<event>
 8    1  0.2460897E-006  0.9118800E+02  0.7816164E-02  0.1184000E+00
        -11   -1    0    0    0    0  0.00000000000E+00  0.00000000000E+00  0.45593999997E+02  0.45594000000E+02  0.51100000000E-03 0. -1.
         11   -1    0    0    0    0 -0.00000000000E+00 -0.00000000000E+00 -0.45593999997E+02  0.45594000000E+02  0.51100000000E-03 0.  1.
         23    2    1    2    0    0 -0.17763568394E-14  0.00000000000E+00  0.00000000000E+00  0.91188000000E+02  0.91188000000E+02 0.  0.
    9900012    2    3    3    0    0 -0.14578697219E+02 -0.26652448803E+02 -0.20805985773E+02  0.54367075463E+02  0.39999980132E+02 0.  0.
         12    1    3    3    0    0  0.14578697219E+02  0.26652448803E+02  0.20805985773E+02  0.36820924537E+02  0.00000000000E+00 0. -1.
         11    1    4    4    0    0  0.74862699070E+01 -0.18275017231E+02 -0.13825891618E+02  0.24107587420E+02  0.51100000000E-03 0. -1.
        -11    1    4    4    0    0  0.25160155055E+01  0.15202504702E+01 -0.86402263953E+00  0.30639893764E+01  0.51100000000E-03 0.  1.
         12    1    4    4    0    0 -0.24580982631E+02 -0.98976820424E+01 -0.61160715151E+01  0.27195498666E+02  0.00000000000E+00 0. -1.
</event>
<event>
 8    1  0.2460897E-006  0.9118800E+02  0.7816164E-02  0.1184000E+00
        -11   -1    0    0    0    0  0.00000000000E+00  0.00000000000E+00  0.45593999997E+02  0.45594000000E+02  0.51100000000E-03 0. -1.
         11   -1    0    0    0    0 -0.00000000000E+00 -0.00000000000E+00 -0.45593999997E+02  0.45594000000E+02  0.51100000000E-03 0.  1.
         23    2    1    2    0    0  0.35527136788E-14  0.00000000000E+00  0.00000000000E+00  0.91188000000E+02  0.91188000000E+02 0.  0.
    9900012    2    3    3    0    0 -0.22898882864E+02 -0.28102057199E+02  0.64571978914E+01  0.54367083935E+02  0.39999999446E+02 0.  0.
        -12    1    3    3    0    0  0.22898882864E+02  0.28102057199E+02 -0.64571978914E+01  0.36820916065E+02  0.00000000000E+00 0.  1.
         11    1    4    4    0    0  0.25404761961E+00 -0.12351336367E+02  0.41921162524E+01  0.13045838003E+02  0.51100000000E-03 0. -1.
        -11    1    4    4    0    0 -0.75840185928E+01 -0.18832015945E+02 -0.86411544255E+01  0.22064263247E+02  0.51100000000E-03 0.  1.
         12    1    4    4    0    0 -0.15568911891E+02  0.30812951131E+01  0.10906236065E+02  0.19256982685E+02  0.00000000000E+00 0. -1.
</event>
<event>
 8    1  0.2460897E-006  0.9118800E+02  0.7816164E-02  0.1184000E+00
        -11   -1    0    0    0    0  0.00000000000E+00  0.00000000000E+00  0.45593999997E+02  0.45594000000E+02  0.51100000000E-03 0.  1.
         11   -1    0    0    0    0 -0.00000000000E+00 -0.00000000000E+00 -0.45593999997E+02  0.45594000000E+02  0.51100000000E-03 0. -1.
         23    2    1    2    0    0 -0.71054273576E-14  0.00000000000E+00  0.88817841970E-15  0.91188000000E+02  0.91188000000E+02 0.  0.
    9900012    2    3    3    0    0 -0.35143007434E+02 -0.10624012439E+02 -0.28069320161E+01  0.54367089105E+02  0.40000011232E+02 0.  0.
         12    1    3    3    0    0  0.35143007434E+02  0.10624012439E+02  0.28069320161E+01  0.36820910895E+02  0.00000000000E+00 0. -1.
         11    1    4    4    0    0 -0.90099578217E+01 -0.14302981458E+02  0.41757674715E+01  0.17412399397E+02  0.51100000000E-03 0. -1.
        -11    1    4    4    0    0 -0.79349631822E+01 -0.10488907911E+02 -0.14064627214E+01  0.13227205582E+02  0.51100000000E-03 0.  1.
        -12    1    4    4    0    0 -0.18198086430E+02  0.14167876930E+02 -0.55762367662E+01  0.23727484125E+02  0.00000000000E+00 0.  1.
</event>
<event>
 8    1  0.2460897E-006  0.9118800E+02  0.7816164E-02  0.1184000E+00
        -11   -1    0    0    0    0  0.00000000000E+00  0.00000000000E+00  0.45593999997E+02  0.45594000000E+02  0.51100000000E-03 0. -1.
         11   -1    0    0    0    0 -0.00000000000E+00 -0.00000000000E+00 -0.45593999997E+02  0.45594000000E+02  0.51100000000E-03 0.  1.
         23    2    1    2    0    0 -0.71054273576E-14 -0.44408920985E-15  0.00000000000E+00  0.91188000000E+02  0.91188000000E+02 0.  0.
    9900012    2    3    3    0    0 -0.34471534515E+02 -0.22482667505E+01 -0.12745094590E+02  0.54367097902E+02  0.40000031287E+02 0.  0.
         12    1    3    3    0    0  0.34471534515E+02  0.22482667505E+01  0.12745094590E+02  0.36820902098E+02  0.00000000000E+00 0. -1.
         11    1    4    4    0    0 -0.42558563831E+01  0.24921750662E+01  0.12350706111E+02  0.13298992135E+02  0.51100000000E-03 0. -1.
        -11    1    4    4    0    0 -0.69051907012E+01 -0.30289753238E+01 -0.12284524392E+02  0.14414086511E+02  0.51100000000E-03 0.  1.
        -12    1    4    4    0    0 -0.23310487431E+02 -0.17114664930E+01 -0.12811276309E+02  0.26654019256E+02  0.00000000000E+00 0.  1.
</event>
<event>
 8    1  0.2460897E-006  0.9118800E+02  0.7816164E-02  0.1184000E+00
        -11   -1    0    0    0    0  0.00000000000E+00  0.00000000000E+00  0.45593999997E+02  0.45594000000E+02  0.51100000000E-03 0. -1.
         11   -1    0    0    0    0 -0.00000000000E+00 -0.00000000000E+00 -0.45593999997E+02  0.45594000000E+02  0.51100000000E-03 0.  1.
         23    2    1    2    0    0  0.88817841970E-15  0.00000000000E+00  0.00000000000E+00  0.91188000000E+02  0.91188000000E+02 0.  0.
    9900012    2    3    3    0    0  0.45703960433E+01  0.33889627526E+02 -0.13652275336E+02  0.54367082091E+02  0.39999995242E+02 0.  0.
         12    1    3    3    0    0 -0.45703960433E+01 -0.33889627526E+02  0.13652275336E+02  0.36820917909E+02  0.00000000000E+00 0. -1.
         11    1    4    4    0    0  0.11507528413E+02  0.13476433211E+02 -0.45975271458E+00  0.17727065044E+02  0.51100000000E-03 0. -1.
        -11    1    4    4    0    0  0.96124772814E+01  0.31009856921E+01 -0.24618885219E+01  0.10395995725E+02  0.51100000000E-03 0.  1.
        -12    1    4    4    0    0 -0.16549609651E+02  0.17312208622E+02 -0.10730634100E+02  0.26244021322E+02  0.00000000000E+00 0.  1.
</event>
<event>
 8    1  0.2460897E-006  0.9118800E+02  0.7816164E-02  0.1184000E+00
        -11   -1    0    0    0    0  0.00000000000E+00  0.00000000000E+00  0.45593999997E+02  0.45594000000E+02  0.51100000000E-03 0.  1.
         11   -1    0    0    0    0 -0.00000000000E+00 -0.00000000000E+00 -0.45593999997E+02  0.45594000000E+02  0.51100000000E-03 0. -1.
         23    2    1    2    0    0 -0.26645352591E-14  0.00000000000E+00  0.00000000000E+00  0.91188000000E+02  0.91188000000E+02 0.  0.
    9900012    2    3    3    0    0 -0.47078184996E+01 -0.52095033448E+01  0.36145288795E+02  0.54367022525E+02  0.39999859450E+02 0.  0.
         12    1    3    3    0    0  0.47078184996E+01  0.52095033448E+01 -0.36145288795E+02  0.36820977475E+02  0.00000000000E+00 0. -1.
         11    1    4    4    0    0 -0.21663875238E+01  0.96239260612E+01  0.96989752391E+01  0.13834135632E+02  0.51100000000E-03 0. -1.
        -11    1    4    4    0    0 -0.13075171085E+02 -0.85510509218E+01  0.60917762746E+01  0.16768730101E+02  0.51100000000E-03 0.  1.
        -12    1    4    4    0    0  0.10533740109E+02 -0.62823784841E+01  0.20354537281E+02  0.23764156792E+02  0.00000000000E+00 0.  1.
</event>
<event>
 8    1  0.2460897E-006  0.9118800E+02  0.7816164E-02  0.1184000E+00
        -11   -1    0    0    0    0  0.00000000000E+00  0.00000000000E+00  0.45593999997E+02  0.45594000000E+02  0.51100000000E-03 0. -1.
         11   -1    0    0    0    0 -0.00000000000E+00 -0.00000000000E+00 -0.45593999997E+02  0.45594000000E+02  0.51100000000E-03 0.  1.
         23    2    1    2    0    0  0.00000000000E+00 -0.11102230246E-14  0.00000000000E+00  0.91188000000E+02  0.91188000000E+02 0.  0.
    9900012    2    3    3    0    0  0.31750260514E+02  0.10987612627E+01  0.18614199719E+02  0.54367153320E+02  0.40000157624E+02 0.  0.
         12    1    3    3    0    0 -0.31750260514E+02 -0.10987612627E+01 -0.18614199719E+02  0.36820846680E+02  0.00000000000E+00 0. -1.
         11    1    4    4    0    0 -0.18400131223E+01  0.52218307906E+01  0.27206836146E+01  0.61688965535E+01  0.51100000000E-03 0. -1.
        -11    1    4    4    0    0  0.18278887480E+02  0.74776815312E+01  0.20477320671E+02  0.28449149560E+02  0.51100000000E-03 0.  1.
         12    1    4    4    0    0  0.15311386156E+02 -0.11600751059E+02 -0.45838045659E+01  0.19749107207E+02  0.00000000000E+00 0. -1.
</event>
<event>
 8    1  0.2460897E-006  0.9118800E+02  0.7816164E-02  0.1184000E+00
        -11   -1    0    0    0    0  0.00000000000E+00  0.00000000000E+00  0.45593999997E+02  0.45594000000E+02  0.51100000000E-03 0. -1.
         11   -1    0    0    0    0 -0.00000000000E+00 -0.00000000000E+00 -0.45593999997E+02  0.45594000000E+02  0.51100000000E-03 0.  1.
         23    2    1    2    0    0  0.35527136788E-14  0.00000000000E+00 -0.17763568394E-14  0.91188000000E+02  0.91188000000E+02 0.  0.
    9900012    2    3    3    0    0 -0.18508499651E+02  0.28055774994E+02  0.15036275620E+02  0.54367073146E+02  0.39999974850E+02 0.  0.
        -12    1    3    3    0    0  0.18508499651E+02 -0.28055774994E+02 -0.15036275620E+02  0.36820926854E+02  0.00000000000E+00 0.  1.
         11    1    4    4    0    0  0.41013826323E+00 -0.28578643655E+01 -0.10651209944E+01  0.30773503409E+01  0.51100000000E-03 0. -1.
        -11    1    4    4    0    0  0.87698910123E+01  0.27550990787E+01  0.35088195954E+01  0.98393787667E+01  0.51100000000E-03 0.  1.
         12    1    4    4    0    0 -0.27688528927E+02  0.28158540281E+02  0.12592577019E+02  0.41450344038E+02  0.00000000000E+00 0. -1.
</event>
<event>
 8    1  0.2460897E-006  0.9118800E+02  0.7816164E-02  0.1184000E+00
        -11   -1    0    0    0    0  0.00000000000E+00  0.00000000000E+00  0.45593999997E+02  0.45594000000E+02  0.51100000000E-03 0.  1.
         11   -1    0    0    0    0 -0.00000000000E+00 -0.00000000000E+00 -0.45593999997E+02  0.45594000000E+02  0.51100000000E-03 0. -1.
         23    2    1    2    0    0  0.00000000000E+00  0.00000000000E+00  0.17763568394E-14  0.91188000000E+02  0.91188000000E+02 0.  0.
    9900012    2    3    3    0    0 -0.10678023099E+02 -0.33856716621E+02 -0.97715148938E+01  0.54367082833E+02  0.39999996935E+02 0.  0.
        -12    1    3    3    0    0  0.10678023099E+02  0.33856716621E+02  0.97715148938E+01  0.36820917167E+02  0.00000000000E+00 0.  1.
         11    1    4    4    0    0 -0.14876442896E+01 -0.13215249872E+02 -0.18882695801E+02  0.23095716393E+02  0.51100000000E-03 0. -1.
        -11    1    4    4    0    0 -0.12599064393E+02 -0.46869434293E+01  0.25259956183E+01  0.13677884208E+02  0.51100000000E-03 0.  1.
        -12    1    4    4    0    0  0.34086855837E+01 -0.15954523320E+02  0.65851852887E+01  0.17593482232E+02  0.00000000000E+00 0.  1.
</event>
<event>
 8    1  0.2460897E-006  0.9118800E+02  0.7816164E-02  0.1184000E+00
        -11   -1    0    0    0    0  0.00000000000E+00  0.00000000000E+00  0.45593999997E+02  0.45594000000E+02  0.51100000000E-03 0.  1.
         11   -1    0    0    0    0 -0.00000000000E+00 -0.00000000000E+00 -0.45593999997E+02  0.45594000000E+02  0.51100000000E-03 0. -1.
         23    2    1    2    0    0  0.35527136788E-14  0.00000000000E+00  0.35527136788E-14  0.91188000000E+02  0.91188000000E+02 0.  0.
    9900012    2    3    3    0    0 -0.17773294197E+02 -0.98659595537E+01 -0.30701038646E+02  0.54367069560E+02  0.39999966676E+02 0.  0.
        -12    1    3    3    0    0  0.17773294197E+02  0.98659595537E+01  0.30701038646E+02  0.36820930440E+02  0.00000000000E+00 0.  1.
         11    1    4    4    0    0 -0.19857851409E+02 -0.80004174640E+01 -0.11516582807E+02  0.24309928465E+02  0.51100000000E-03 0. -1.
        -11    1    4    4    0    0  0.72058054992E+00  0.49396646071E+01  0.36546378832E+01  0.61867520621E+01  0.51100000000E-03 0.  1.
         12    1    4    4    0    0  0.13639766621E+01 -0.68052066967E+01 -0.22839093722E+02  0.23870389032E+02  0.00000000000E+00 0. -1.
</event>
<event>
 8    1  0.2460897E-006  0.9118800E+02  0.7816164E-02  0.1184000E+00
        -11   -1    0    0    0    0  0.00000000000E+00  0.00000000000E+00  0.45593999997E+02  0.45594000000E+02  0.51100000000E-03 0. -1.
         11   -1    0    0    0    0 -0.00000000000E+00 -0.00000000000E+00 -0.45593999997E+02  0.45594000000E+02  0.51100000000E-03 0.  1.
         23    2    1    2    0    0  0.35527136788E-14 -0.35527136788E-14  0.00000000000E+00  0.91188000000E+02  0.91188000000E+02 0.  0.
    9900012    2    3    3    0    0  0.27297479486E+02 -0.12862836709E+02  0.21099165995E+02  0.54367085289E+02  0.40000002533E+02 0.  0.
         12    1    3    3    0    0 -0.27297479486E+02  0.12862836709E+02 -0.21099165995E+02  0.36820914711E+02  0.00000000000E+00 0. -1.
         11    1    4    4    0    0  0.51792660801E+01  0.33372474875E+01  0.45869558342E+01  0.76812877831E+01  0.51100000000E-03 0. -1.
        -11    1    4    4    0    0  0.29380401487E+02 -0.42537257252E+01  0.11368178498E+02  0.31788954948E+02  0.51100000000E-03 0.  1.
         12    1    4    4    0    0 -0.72621880806E+01 -0.11946358471E+02  0.51440316621E+01  0.14896842557E+02  0.00000000000E+00 0. -1.
</event>
<event>
 8    1  0.2460897E-006  0.9118800E+02  0.7816164E-02  0.1184000E+00
        -11   -1    0    0    0    0  0.00000000000E+00  0.00000000000E+00  0.45593999997E+02  0.45594000000E+02  0.51100000000E-03 0.  1.
         11   -1    0    0    0    0 -0.00000000000E+00 -0.00000000000E+00 -0.45593999997E+02  0.45594000000E+02  0.51100000000E-03 0. -1.
         23    2    1    2    0    0 -0.35527136788E-14  0.00000000000E+00  0.88817841970E-15  0.91188000000E+02  0.91188000000E+02 0.  0.
    9900012    2    3    3    0    0 -0.26467984282E+02 -0.25471221368E+02 -0.25382806307E+01  0.54367079608E+02  0.39999989582E+02 0.  0.
        -12    1    3    3    0    0  0.26467984282E+02  0.25471221368E+02  0.25382806307E+01  0.36820920392E+02  0.00000000000E+00 0.  1.
         11    1    4    4    0    0 -0.31381241879E+02 -0.15195724691E+02 -0.96402894424E+01  0.36174957796E+02  0.51100000000E-03 0. -1.
        -11    1    4    4    0    0  0.33149092665E+01 -0.12949707560E+02  0.44135534831E+01  0.14077038181E+02  0.51100000000E-03 0.  1.
        -12    1    4    4    0    0  0.15983483306E+01  0.26742108832E+01  0.26884553285E+01  0.41150836307E+01  0.00000000000E+00 0.  1.
</event>
<event>
 8    1  0.2460897E-006  0.9118800E+02  0.7816164E-02  0.1184000E+00
        -11   -1    0    0    0    0  0.00000000000E+00  0.00000000000E+00  0.45593999997E+02  0.45594000000E+02  0.51100000000E-03 0.  1.
         11   -1    0    0    0    0 -0.00000000000E+00 -0.00000000000E+00 -0.45593999997E+02  0.45594000000E+02  0.51100000000E-03 0. -1.
         23    2    1    2    0    0  0.00000000000E+00 -0.88817841970E-15 -0.35527136788E-14  0.91188000000E+02  0.91188000000E+02 0.  0.
    9900012    2    3    3    0    0 -0.32965940118E+02  0.54647333484E+01 -0.15465044710E+02  0.54367026000E+02  0.39999867371E+02 0.  0.
        -12    1    3    3    0    0  0.32965940118E+02 -0.54647333484E+01  0.15465044710E+02  0.36820974000E+02  0.00000000000E+00 0.  1.
         11    1    4    4    0    0 -0.91064817518E+01 -0.75478867766E+00 -0.21010099347E+02  0.22911176109E+02  0.51100000000E-03 0. -1.
        -11    1    4    4    0    0 -0.13533096839E+02 -0.56412822066E+01 -0.33688984159E+00  0.14665683415E+02  0.51100000000E-03 0.  1.
        -12    1    4    4    0    0 -0.10326361527E+02  0.11860804233E+02  0.58819444788E+01  0.16790166476E+02  0.00000000000E+00 0.  1.
</event>
<event>
 8    1  0.2460897E-006  0.9118800E+02  0.7816164E-02  0.1184000E+00
        -11   -1    0    0    0    0  0.00000000000E+00  0.00000000000E+00  0.45593999997E+02  0.45594000000E+02  0.51100000000E-03 0.  1.
         11   -1    0    0    0    0 -0.00000000000E+00 -0.00000000000E+00 -0.45593999997E+02  0.45594000000E+02  0.51100000000E-03 0. -1.
         23    2    1    2    0    0  0.00000000000E+00  0.11102230246E-15  0.00000000000E+00  0.91188000000E+02  0.91188000000E+02 0.  0.
    9900012    2    3    3    0    0  0.34476563315E+02  0.97003753900E+00 -0.12892077012E+02  0.54367081481E+02  0.39999993853E+02 0.  0.
        -12    1    3    3    0    0 -0.34476563315E+02 -0.97003753900E+00  0.12892077012E+02  0.36820918519E+02  0.00000000000E+00 0.  1.
         11    1    4    4    0    0  0.51411671172E+01  0.52708436819E+01 -0.12116248664E+02  0.14178041980E+02  0.51100000000E-03 0. -1.
        -11    1    4    4    0    0  0.10948821976E+01 -0.10804162722E+02  0.21219376930E+01  0.11064868683E+02  0.51100000000E-03 0.  1.
         12    1    4    4    0    0  0.28240514001E+02  0.65033565788E+01 -0.28977660414E+01  0.29124170818E+02  0.00000000000E+00 0. -1.
</event>
<event>
 8    1  0.2460897E-006  0.9118800E+02  0.7816164E-02  0.1184000E+00
        -11   -1    0    0    0    0  0.00000000000E+00  0.00000000000E+00  0.45593999997E+02  0.45594000000E+02  0.51100000000E-03 0. -1.
         11   -1    0    0    0    0 -0.00000000000E+00 -0.00000000000E+00 -0.45593999997E+02  0.45594000000E+02  0.51100000000E-03 0.  1.
         23    2    1    2    0    0  0.00000000000E+00  0.00000000000E+00 -0.35527136788E-14  0.91188000000E+02  0.91188000000E+02 0.  0.
    9900012    2    3    3    0    0 -0.12923919501E+02 -0.18725058299E+02  0.28950356549E+02  0.54367100393E+02  0.40000036966E+02 0.  0.
        -12    1    3    3    0    0  0.12923919501E+02  0.18725058299E+02 -0.28950356549E+02  0.36820899607E+02  0.00000000000E+00 0.  1.
         11    1    4    4    0    0  0.98363510637E+01 -0.11555056265E+02  0.23087054689E+02  0.27627617016E+02  0.51100000000E-03 0. -1.
        -11    1    4    4    0    0 -0.67866879566E+01  0.24987474737E+01  0.30826888155E+01  0.78616692218E+01  0.51100000000E-03 0.  1.
         12    1    4    4    0    0 -0.15973582608E+02 -0.96687495072E+01  0.27806130448E+01  0.18877814155E+02  0.00000000000E+00 0. -1.
</event>
<event>
 8    1  0.2460897E-006  0.9118800E+02  0.7816164E-02  0.1184000E+00
        -11   -1    0    0    0    0  0.00000000000E+00  0.00000000000E+00  0.45593999997E+02  0.45594000000E+02  0.51100000000E-03 0.  1.
         11   -1    0    0    0    0 -0.00000000000E+00 -0.00000000000E+00 -0.45593999997E+02  0.45594000000E+02  0.51100000000E-03 0. -1.
         23    2    1    2    0    0  0.00000000000E+00 -0.88817841970E-15 -0.35527136788E-14  0.91188000000E+02  0.91188000000E+02 0.  0.
    9900012    2    3    3    0    0 -0.29299795891E+02  0.55152699288E+01  0.21607476612E+02  0.54367091712E+02  0.40000017175E+02 0.  0.
         12    1    3    3    0    0  0.29299795891E+02 -0.55152699288E+01 -0.21607476612E+02  0.36820908288E+02  0.00000000000E+00 0. -1.
         11    1    4    4    0    0  0.12529266102E+01  0.23466450471E+01  0.16957311821E+02  0.17164701935E+02  0.51100000000E-03 0. -1.
        -11    1    4    4    0    0 -0.29579590266E+02  0.37733192372E+01  0.10215327269E+02  0.31520517284E+02  0.51100000000E-03 0.  1.
        -12    1    4    4    0    0 -0.97313223542E+00 -0.60469435551E+00 -0.55651624784E+01  0.56818724926E+01  0.00000000000E+00 0.  1.
</event>
<event>
 8    1  0.2460897E-006  0.9118800E+02  0.7816164E-02  0.1184000E+00
        -11   -1    0    0    0    0  0.00000000000E+00  0.00000000000E+00  0.45593999997E+02  0.45594000000E+02  0.51100000000E-03 0.  1.
         11   -1    0    0    0    0 -0.00000000000E+00 -0.00000000000E+00 -0.45593999997E+02  0.45594000000E+02  0.51100000000E-03 0. -1.
         23    2    1    2    0    0  0.17763568394E-14  0.35527136788E-14 -0.71054273576E-14  0.91188000000E+02  0.91188000000E+02 0.  0.
    9900012    2    3    3    0    0  0.14064838712E+02  0.12890160555E+02 -0.31492910822E+02  0.54367090734E+02  0.40000014946E+02 0.  0.
        -12    1    3    3    0    0 -0.14064838712E+02 -0.12890160555E+02  0.31492910822E+02  0.36820909266E+02  0.00000000000E+00 0.  1.
         11    1    4    4    0    0  0.20195357142E+01 -0.23242928549E+01 -0.24920653788E+02  0.25110154266E+02  0.51100000000E-03 0. -1.
        -11    1    4    4    0    0  0.90677804075E+01  0.63820496283E+01 -0.13626205727E+02  0.17567830878E+02  0.51100000000E-03 0.  1.
        -12    1    4    4    0    0  0.29775225905E+01  0.88324037816E+01  0.70539486930E+01  0.11689105590E+02  0.00000000000E+00 0.  1.
</event>
<event>
 8    1  0.2460897E-006  0.9118800E+02  0.7816164E-02  0.1184000E+00
        -11   -1    0    0    0    0  0.00000000000E+00  0.00000000000E+00  0.45593999997E+02  0.45594000000E+02  0.51100000000E-03 0.  1.
         11   -1    0    0    0    0 -0.00000000000E+00 -0.00000000000E+00 -0.45593999997E+02  0.45594000000E+02  0.51100000000E-03 0. -1.
         23    2    1    2    0    0 -0.17763568394E-14  0.71054273576E-14  0.00000000000E+00  0.91188000000E+02  0.91188000000E+02 0.  0.
    9900012    2    3    3    0    0 -0.13278966902E+02  0.23492976815E+02  0.25050538221E+02  0.54367076780E+02  0.39999983135E+02 0.  0.
         12    1    3    3    0    0  0.13278966902E+02 -0.23492976815E+02 -0.25050538221E+02  0.36820923220E+02  0.00000000000E+00 0. -1.
         11    1    4    4    0    0 -0.12502549868E+02  0.49684431668E+00  0.11310361642E+02  0.16866679822E+02  0.51100000000E-03 0. -1.
        -11    1    4    4    0    0 -0.11697487475E+02  0.17556889759E+02  0.31224879508E+01  0.21326638799E+02  0.51100000000E-03 0.  1.
         12    1    4    4    0    0  0.10921070441E+02  0.54392427398E+01  0.10617688628E+02  0.16173758158E+02  0.00000000000E+00 0. -1.
</event>
<event>
 8    1  0.2460897E-006  0.9118800E+02  0.7816164E-02  0.1184000E+00
        -11   -1    0    0    0    0  0.00000000000E+00  0.00000000000E+00  0.45593999997E+02  0.45594000000E+02  0.51100000000E-03 0.  1.
         11   -1    0    0    0    0 -0.00000000000E+00 -0.00000000000E+00 -0.45593999997E+02  0.45594000000E+02  0.51100000000E-03 0. -1.
         23    2    1    2    0    0  0.15959455979E-15  0.00000000000E+00  0.00000000000E+00  0.91188000000E+02  0.91188000000E+02 0.  0.
    9900012    2    3    3    0    0  0.33429458905E-01 -0.31243413224E+02 -0.19484034212E+02  0.54367087782E+02  0.40000008216E+02 0.  0.
        -12    1    3    3    0    0 -0.33429458905E-01  0.31243413224E+02  0.19484034212E+02  0.36820912218E+02  0.00000000000E+00 0.  1.
         11    1    4    4    0    0  0.24454648234E+01 -0.97627862953E+01 -0.21404946919E+02  0.23652992354E+02  0.51100000000E-03 0. -1.
        -11    1    4    4    0    0 -0.12428795123E+01 -0.25033409522E+02  0.53624190475E+01  0.25631462699E+02  0.51100000000E-03 0.  1.
        -12    1    4    4    0    0 -0.11691558522E+01  0.35527825936E+01 -0.34415063405E+01  0.50826327288E+01  0.00000000000E+00 0.  1.
</event>
<event>
 8    1  0.2460897E-006  0.9118800E+02  0.7816164E-02  0.1184000E+00
        -11   -1    0    0    0    0  0.00000000000E+00  0.00000000000E+00  0.45593999997E+02  0.45594000000E+02  0.51100000000E-03 0.  1.
         11   -1    0    0    0    0 -0.00000000000E+00 -0.00000000000E+00 -0.45593999997E+02  0.45594000000E+02  0.51100000000E-03 0. -1.
         23    2    1    2    0    0  0.17763568394E-14  0.00000000000E+00  0.00000000000E+00  0.91188000000E+02  0.91188000000E+02 0.  0.
    9900012    2    3    3    0    0  0.12874030651E+02 -0.29926025119E+02 -0.17160180913E+02  0.54367089452E+02  0.40000012024E+02 0.  0.
         12    1    3    3    0    0 -0.12874030651E+02  0.29926025119E+02  0.17160180913E+02  0.36820910548E+02  0.00000000000E+00 0. -1.
         11    1    4    4    0    0 -0.10517794739E+00 -0.89206067416E+00 -0.44715022457E+01  0.45608296659E+01  0.51100000000E-03 0. -1.
        -11    1    4    4    0    0  0.24750827194E+02 -0.20439845964E+02 -0.28598439639E+01  0.32226843742E+02  0.51100000000E-03 0.  1.
        -12    1    4    4    0    0 -0.11771618595E+02 -0.85941184809E+01 -0.98288347039E+01  0.17579416044E+02  0.00000000000E+00 0.  1.
</event>
<event>
 8    1  0.2460897E-006  0.9118800E+02  0.7816164E-02  0.1184000E+00
        -11   -1    0    0    0    0  0.00000000000E+00  0.00000000000E+00  0.45593999997E+02  0.45594000000E+02  0.51100000000E-03 0.  1.
         11   -1    0    0    0    0 -0.00000000000E+00 -0.00000000000E+00 -0.45593999997E+02  0.45594000000E+02  0.51100000000E-03 0. -1.
         23    2    1    2    0    0  0.00000000000E+00 -0.17763568394E-14  0.00000000000E+00  0.91188000000E+02  0.91188000000E+02 0.  0.
    9900012    2    3    3    0    0 -0.84549692238E+01  0.85674179720E+01  0.34797869357E+02  0.54367097416E+02  0.40000030180E+02 0.  0.
         12    1    3    3    0    0  0.84549692238E+01 -0.85674179720E+01 -0.34797869357E+02  0.36820902584E+02  0.00000000000E+00 0. -1.
         11    1    4    4    0    0  0.39948031557E+01  0.13878358851E+02  0.19602711422E+02  0.24348174305E+02  0.51100000000E-03 0. -1.
        -11    1    4    4    0    0 -0.14354313560E+02  0.30398908376E+01  0.27766763878E+01  0.14933090307E+02  0.51100000000E-03 0.  1.
        -12    1    4    4    0    0  0.19045411805E+01 -0.83508317162E+01  0.12418481547E+02  0.15085832804E+02  0.00000000000E+00 0.  1.
</event>
<event>
 8    1  0.2460897E-006  0.9118800E+02  0.7816164E-02  0.1184000E+00
        -11   -1    0    0    0    0  0.00000000000E+00  0.00000000000E+00  0.45593999997E+02  0.45594000000E+02  0.51100000000E-03 0.  1.
         11   -1    0    0    0    0 -0.00000000000E+00 -0.00000000000E+00 -0.45593999997E+02  0.45594000000E+02  0.51100000000E-03 0. -1.
         23    2    1    2    0    0 -0.35527136788E-14  0.00000000000E+00  0.00000000000E+00  0.91188000000E+02  0.91188000000E+02 0.  0.
    9900012    2    3    3    0    0 -0.18909935691E+02  0.25407285023E+02 -0.18779327653E+02  0.54367096328E+02  0.40000027699E+02 0.  0.
        -12    1    3    3    0    0  0.18909935691E+02 -0.25407285023E+02  0.18779327653E+02  0.36820903672E+02  0.00000000000E+00 0.  1.
         11    1    4    4    0    0 -0.16973393272E+01  0.16435482432E+02 -0.25517558682E+02  0.30399865870E+02  0.51100000000E-03 0. -1.
        -11    1    4    4    0    0 -0.12702777115E+02  0.12042012232E+02  0.57427859443E+01  0.18421460195E+02  0.51100000000E-03 0.  1.
        -12    1    4    4    0    0 -0.45098192489E+01 -0.30702096413E+01  0.99544508424E+00  0.55457702634E+01  0.00000000000E+00 0.  1.
</event>
<event>
 8    1  0.2460897E-006  0.9118800E+02  0.7816164E-02  0.1184000E+00
        -11   -1    0    0    0    0  0.00000000000E+00  0.00000000000E+00  0.45593999997E+02  0.45594000000E+02  0.51100000000E-03 0.  1.
         11   -1    0    0    0    0 -0.00000000000E+00 -0.00000000000E+00 -0.45593999997E+02  0.45594000000E+02  0.51100000000E-03 0. -1.
         23    2    1    2    0    0  0.35527136788E-14  0.00000000000E+00 -0.35527136788E-14  0.91188000000E+02  0.91188000000E+02 0.  0.
    9900012    2    3    3    0    0  0.23791189396E+02  0.23078827245E+02  0.16035157952E+02  0.54367092211E+02  0.40000018313E+02 0.  0.
         12    1    3    3    0    0 -0.23791189396E+02 -0.23078827245E+02 -0.16035157952E+02  0.36820907789E+02  0.00000000000E+00 0. -1.
         11    1    4    4    0    0  0.85396179284E+01  0.73960210621E+01 -0.99296829051E+01  0.15040771415E+02  0.51100000000E-03 0. -1.
        -11    1    4    4    0    0  0.18827943927E+02  0.76823561429E+01  0.21096614382E+02  0.29301488138E+02  0.51100000000E-03 0.  1.
         12    1    4    4    0    0 -0.35763724592E+01  0.80004500398E+01  0.48682264749E+01  0.10024832658E+02  0.00000000000E+00 0. -1.
</event>
<event>
 8    1  0.2460897E-006  0.9118800E+02  0.7816164E-02  0.1184000E+00
        -11   -1    0    0    0    0  0.00000000000E+00  0.00000000000E+00  0.45593999997E+02  0.45594000000E+02  0.51100000000E-03 0. -1.
         11   -1    0    0    0    0 -0.00000000000E+00 -0.00000000000E+00 -0.45593999997E+02  0.45594000000E+02  0.51100000000E-03 0.  1.
         23    2    1    2    0    0  0.00000000000E+00  0.00000000000E+00  0.88817841970E-15  0.91188000000E+02  0.91188000000E+02 0.  0.
    9900012    2    3    3    0    0 -0.35168425189E+02 -0.10578181581E+02 -0.26578789215E+01  0.54367076924E+02  0.39999983464E+02 0.  0.
        -12    1    3    3    0    0  0.35168425189E+02  0.10578181581E+02  0.26578789215E+01  0.36820923076E+02  0.00000000000E+00 0.  1.
         11    1    4    4    0    0 -0.36836901496E+02 -0.41957056191E+01  0.27746058416E+01  0.37178753278E+02  0.51100000000E-03 0. -1.
        -11    1    4    4    0    0  0.11910539270E+01 -0.86961190346E+01 -0.92165572262E+01  0.12727372984E+02  0.51100000000E-03 0.  1.
        -12    1    4    4    0    0  0.47742238046E+00  0.23136430729E+01  0.37840724631E+01  0.44609506615E+01  0.00000000000E+00 0.  1.
</event>
<event>
 8    1  0.2460897E-006  0.9118800E+02  0.7816164E-02  0.1184000E+00
        -11   -1    0    0    0    0  0.00000000000E+00  0.00000000000E+00  0.45593999997E+02  0.45594000000E+02  0.51100000000E-03 0. -1.
         11   -1    0    0    0    0 -0.00000000000E+00 -0.00000000000E+00 -0.45593999997E+02  0.45594000000E+02  0.51100000000E-03 0.  1.
         23    2    1    2    0    0  0.00000000000E+00  0.00000000000E+00  0.17763568394E-14  0.91188000000E+02  0.91188000000E+02 0.  0.
    9900012    2    3    3    0    0  0.35512977150E+02 -0.47290192221E+01  0.84996973169E+01  0.54367081716E+02  0.39999994387E+02 0.  0.
        -12    1    3    3    0    0 -0.35512977150E+02  0.47290192221E+01 -0.84996973169E+01  0.36820918284E+02  0.00000000000E+00 0.  1.
         11    1    4    4    0    0  0.26326002633E+02  0.58475214171E+01 -0.62768089411E+01  0.27688449796E+02  0.51100000000E-03 0.  1.
        -11    1    4    4    0    0  0.11550146890E+02 -0.33361750122E+01  0.25747196637E+01  0.12294923282E+02  0.51100000000E-03 0. -1.
         12    1    4    4    0    0 -0.23631723739E+01 -0.72403656270E+01  0.12201786594E+02  0.14383708638E+02  0.00000000000E+00 0. -1.
</event>
<event>
 8    1  0.2460897E-006  0.9118800E+02  0.7816164E-02  0.1184000E+00
        -11   -1    0    0    0    0  0.00000000000E+00  0.00000000000E+00  0.45593999997E+02  0.45594000000E+02  0.51100000000E-03 0. -1.
         11   -1    0    0    0    0 -0.00000000000E+00 -0.00000000000E+00 -0.45593999997E+02  0.45594000000E+02  0.51100000000E-03 0.  1.
         23    2    1    2    0    0  0.00000000000E+00  0.00000000000E+00 -0.17763568394E-14  0.91188000000E+02  0.91188000000E+02 0.  0.
    9900012    2    3    3    0    0 -0.24472488051E+02 -0.25819498823E+02  0.94989819384E+01  0.54367084086E+02  0.39999999791E+02 0.  0.
        -12    1    3    3    0    0  0.24472488051E+02  0.25819498823E+02 -0.94989819384E+01  0.36820915914E+02  0.00000000000E+00 0.  1.
         11    1    4    4    0    0 -0.12542771812E+02 -0.11646702926E+02 -0.89493929918E+01  0.19314721043E+02  0.51100000000E-03 0. -1.
        -11    1    4    4    0    0 -0.13953483168E+02 -0.91069223133E+01  0.22683901384E+02  0.28145960790E+02  0.51100000000E-03 0.  1.
        -12    1    4    4    0    0  0.20237669286E+01 -0.50658735834E+01 -0.42355264537E+01  0.69064022533E+01  0.00000000000E+00 0.  1.
</event>
<event>
 8    1  0.2460897E-006  0.9118800E+02  0.7816164E-02  0.1184000E+00
        -11   -1    0    0    0    0  0.00000000000E+00  0.00000000000E+00  0.45593999997E+02  0.45594000000E+02  0.51100000000E-03 0.  1.
         11   -1    0    0    0    0 -0.00000000000E+00 -0.00000000000E+00 -0.45593999997E+02  0.45594000000E+02  0.51100000000E-03 0. -1.
         23    2    1    2    0    0 -0.44408920985E-15  0.00000000000E+00  0.17763568394E-14  0.91188000000E+02  0.91188000000E+02 0.  0.
    9900012    2    3    3    0    0  0.29114561796E+01 -0.34613204902E+02  0.12215893629E+02  0.54367101209E+02  0.40000038826E+02 0.  0.
        -12    1    3    3    0    0 -0.29114561796E+01  0.34613204902E+02 -0.12215893629E+02  0.36820898791E+02  0.00000000000E+00 0.  1.
         11    1    4    4    0    0  0.52619266386E+01 -0.39494711575E+01  0.92521479317E+01  0.11352904297E+02  0.51100000000E-03 0. -1.
        -11    1    4    4    0    0  0.55729677704E+01  0.36792063090E+01  0.39436783558E+01  0.77554579536E+01  0.51100000000E-03 0.  1.
        -12    1    4    4    0    0 -0.79234382294E+01 -0.34342940053E+02 -0.97993265904E+00  0.35258738958E+02  0.00000000000E+00 0.  1.
</event>
<event>
 8    1  0.2460897E-006  0.9118800E+02  0.7816164E-02  0.1184000E+00
        -11   -1    0    0    0    0  0.00000000000E+00  0.00000000000E+00  0.45593999997E+02  0.45594000000E+02  0.51100000000E-03 0.  1.
         11   -1    0    0    0    0 -0.00000000000E+00 -0.00000000000E+00 -0.45593999997E+02  0.45594000000E+02  0.51100000000E-03 0. -1.
         23    2    1    2    0    0 -0.17763568394E-14  0.00000000000E+00 -0.35527136788E-14  0.91188000000E+02  0.91188000000E+02 0.  0.
    9900012    2    3    3    0    0  0.93543109768E+01  0.28493780240E+02  0.21363093986E+02  0.54367076181E+02  0.39999981770E+02 0.  0.
         12    1    3    3    0    0 -0.93543109768E+01 -0.28493780240E+02 -0.21363093986E+02  0.36820923819E+02  0.00000000000E+00 0. -1.
         11    1    4    4    0    0 -0.69159581740E+00  0.15962152631E+02  0.13504876316E+01  0.16034102361E+02  0.51100000000E-03 0. -1.
        -11    1    4    4    0    0 -0.78827807540E+01  0.41096404056E+01 -0.15820858749E+01  0.90294170718E+01  0.51100000000E-03 0.  1.
        -12    1    4    4    0    0  0.17928687548E+02  0.84219872031E+01  0.21594692229E+02  0.29303556749E+02  0.00000000000E+00 0.  1.
</event>
<event>
 8    1  0.2460897E-006  0.9118800E+02  0.7816164E-02  0.1184000E+00
        -11   -1    0    0    0    0  0.00000000000E+00  0.00000000000E+00  0.45593999997E+02  0.45594000000E+02  0.51100000000E-03 0. -1.
         11   -1    0    0    0    0 -0.00000000000E+00 -0.00000000000E+00 -0.45593999997E+02  0.45594000000E+02  0.51100000000E-03 0.  1.
         23    2    1    2    0    0  0.00000000000E+00 -0.35527136788E-14  0.88817841970E-15  0.91188000000E+02  0.91188000000E+02 0.  0.
    9900012    2    3    3    0    0 -0.20738540641E+02  0.29999862572E+02 -0.50703859029E+01  0.54366978349E+02  0.39999758742E+02 0.  0.
         12    1    3    3    0    0  0.20738540641E+02 -0.29999862572E+02  0.50703859029E+01  0.36821021651E+02  0.00000000000E+00 0. -1.
         11    1    4    4    0    0  0.66208395619E+01  0.91412742243E+00  0.22544318395E+01  0.70536237941E+01  0.51100000000E-03 0. -1.
        -11    1    4    4    0    0 -0.29903557170E+02  0.30705766396E+02 -0.90960167061E+01  0.43815571907E+02  0.51100000000E-03 0.  1.
        -12    1    4    4    0    0  0.25441769676E+01 -0.16200312466E+01  0.17711989638E+01  0.34977826478E+01  0.00000000000E+00 0.  1.
</event>
<event>
 8    1  0.2460897E-006  0.9118800E+02  0.7816164E-02  0.1184000E+00
        -11   -1    0    0    0    0  0.00000000000E+00  0.00000000000E+00  0.45593999997E+02  0.45594000000E+02  0.51100000000E-03 0. -1.
         11   -1    0    0    0    0 -0.00000000000E+00 -0.00000000000E+00 -0.45593999997E+02  0.45594000000E+02  0.51100000000E-03 0.  1.
         23    2    1    2    0    0  0.00000000000E+00  0.00000000000E+00  0.00000000000E+00  0.91188000000E+02  0.91188000000E+02 0.  0.
    9900012    2    3    3    0    0  0.10552409942E+02 -0.22550220960E+02 -0.27127741318E+02  0.54367079725E+02  0.39999989848E+02 0.  0.
         12    1    3    3    0    0 -0.10552409942E+02  0.22550220960E+02  0.27127741318E+02  0.36820920275E+02  0.00000000000E+00 0. -1.
         11    1    4    4    0    0  0.47963997588E+00 -0.22150531319E+02 -0.25211910161E+02  0.33563618792E+02  0.51100000000E-03 0.  1.
        -11    1    4    4    0    0  0.25317468740E+01  0.84973154588E+01 -0.22066070044E+01  0.91369156160E+01  0.51100000000E-03 0. -1.
         12    1    4    4    0    0  0.75410230922E+01 -0.88970050998E+01  0.29077584786E+00  0.11666545316E+02  0.00000000000E+00 0. -1.
</event>
<event>
 8    1  0.2460897E-006  0.9118800E+02  0.7816164E-02  0.1184000E+00
        -11   -1    0    0    0    0  0.00000000000E+00  0.00000000000E+00  0.45593999997E+02  0.45594000000E+02  0.51100000000E-03 0.  1.
         11   -1    0    0    0    0 -0.00000000000E+00 -0.00000000000E+00 -0.45593999997E+02  0.45594000000E+02  0.51100000000E-03 0. -1.
         23    2    1    2    0    0  0.00000000000E+00  0.00000000000E+00  0.00000000000E+00  0.91188000000E+02  0.91188000000E+02 0.  0.
    9900012    2    3    3    0    0  0.10499604610E+02 -0.19415591619E+02 -0.29471559769E+02  0.54367085697E+02  0.40000003464E+02 0.  0.
        -12    1    3    3    0    0 -0.10499604610E+02  0.19415591619E+02  0.29471559769E+02  0.36820914303E+02  0.00000000000E+00 0.  1.
         11    1    4    4    0    0 -0.28656506993E+00 -0.17744124269E+02 -0.12247996109E+02  0.21562687091E+02  0.51100000000E-03 0. -1.
        -11    1    4    4    0    0  0.31437045381E+01  0.18878605228E+01  0.65905399102E+01  0.75420230804E+01  0.51100000000E-03 0.  1.
         12    1    4    4    0    0  0.76424651414E+01 -0.35593278722E+01 -0.23814103571E+02  0.25262375526E+02  0.00000000000E+00 0. -1.
</event>
<event>
 8    1  0.2460897E-006  0.9118800E+02  0.7816164E-02  0.1184000E+00
        -11   -1    0    0    0    0  0.00000000000E+00  0.00000000000E+00  0.45593999997E+02  0.45594000000E+02  0.51100000000E-03 0. -1.
         11   -1    0    0    0    0 -0.00000000000E+00 -0.00000000000E+00 -0.45593999997E+02  0.45594000000E+02  0.51100000000E-03 0.  1.
         23    2    1    2    0    0 -0.35527136788E-14 -0.35527136788E-14  0.00000000000E+00  0.91188000000E+02  0.91188000000E+02 0.  0.
    9900012    2    3    3    0    0 -0.28892493908E+02 -0.22304942674E+02 -0.48469627958E+01  0.54367085831E+02  0.40000003769E+02 0.  0.
         12    1    3    3    0    0  0.28892493908E+02  0.22304942674E+02  0.48469627958E+01  0.36820914169E+02  0.00000000000E+00 0. -1.
         11    1    4    4    0    0 -0.11834165453E+02 -0.75643517346E+01  0.13546973250E+02  0.19513773946E+02  0.51100000000E-03 0. -1.
        -11    1    4    4    0    0  0.35358249157E+01 -0.63702687606E+01 -0.34066532912E+01  0.80428644664E+01  0.51100000000E-03 0.  1.
        -12    1    4    4    0    0 -0.20594153370E+02 -0.83703221788E+01 -0.14987282754E+02  0.26810447418E+02  0.00000000000E+00 0.  1.
</event>
<event>
 8    1  0.2460897E-006  0.9118800E+02  0.7816164E-02  0.1184000E+00
        -11   -1    0    0    0    0  0.00000000000E+00  0.00000000000E+00  0.45593999997E+02  0.45594000000E+02  0.51100000000E-03 0. -1.
         11   -1    0    0    0    0 -0.00000000000E+00 -0.00000000000E+00 -0.45593999997E+02  0.45594000000E+02  0.51100000000E-03 0.  1.
         23    2    1    2    0    0  0.11102230246E-15  0.00000000000E+00  0.35527136788E-14  0.91188000000E+02  0.91188000000E+02 0.  0.
    9900012    2    3    3    0    0 -0.68689567293E+00 -0.20101749513E+02 -0.30842022741E+02  0.54367047732E+02  0.39999916914E+02 0.  0.
         12    1    3    3    0    0  0.68689567293E+00  0.20101749513E+02  0.30842022741E+02  0.36820952268E+02  0.00000000000E+00 0. -1.
         11    1    4    4    0    0 -0.21559787970E+01  0.71929776585E+01 -0.63380596192E+01  0.98264017914E+01  0.51100000000E-03 0. -1.
        -11    1    4    4    0    0 -0.21591696403E+01 -0.36921040260E+01 -0.19729976093E+02  0.20188254074E+02  0.51100000000E-03 0.  1.
        -12    1    4    4    0    0  0.36282527643E+01 -0.23602623145E+02 -0.47739870294E+01  0.24352391867E+02  0.00000000000E+00 0.  1.
</event>
<event>
 8    1  0.2460897E-006  0.9118800E+02  0.7816164E-02  0.1184000E+00
        -11   -1    0    0    0    0  0.00000000000E+00  0.00000000000E+00  0.45593999997E+02  0.45594000000E+02  0.51100000000E-03 0.  1.
         11   -1    0    0    0    0 -0.00000000000E+00 -0.00000000000E+00 -0.45593999997E+02  0.45594000000E+02  0.51100000000E-03 0. -1.
         23    2    1    2    0    0  0.44408920985E-15  0.00000000000E+00  0.35527136788E-14  0.91188000000E+02  0.91188000000E+02 0.  0.
    9900012    2    3    3    0    0 -0.33693832975E+01  0.30685508326E+02  0.20070498324E+02  0.54367108267E+02  0.40000054917E+02 0.  0.
         12    1    3    3    0    0  0.33693832975E+01 -0.30685508326E+02 -0.20070498324E+02  0.36820891733E+02  0.00000000000E+00 0. -1.
         11    1    4    4    0    0 -0.12646055689E+02  0.51795250410E+01  0.14485938304E+02  0.19914633136E+02  0.51100000000E-03 0. -1.
        -11    1    4    4    0    0  0.41611321615E+01  0.22626780015E+02 -0.38644442383E+01  0.23328525977E+02  0.51100000000E-03 0.  1.
        -12    1    4    4    0    0  0.51155402301E+01  0.28792032700E+01  0.94490042581E+01  0.11123949154E+02  0.00000000000E+00 0.  1.
</event>
<event>
 8    1  0.2460897E-006  0.9118800E+02  0.7816164E-02  0.1184000E+00
        -11   -1    0    0    0    0  0.00000000000E+00  0.00000000000E+00  0.45593999997E+02  0.45594000000E+02  0.51100000000E-03 0. -1.
         11   -1    0    0    0    0 -0.00000000000E+00 -0.00000000000E+00 -0.45593999997E+02  0.45594000000E+02  0.51100000000E-03 0.  1.
         23    2    1    2    0    0 -0.17763568394E-14  0.00000000000E+00  0.00000000000E+00  0.91188000000E+02  0.91188000000E+02 0.  0.
    9900012    2    3    3    0    0 -0.13748724474E+02  0.10245586435E+02 -0.32585024849E+02  0.54367037078E+02  0.39999892627E+02 0.  0.
         12    1    3    3    0    0  0.13748724474E+02 -0.10245586435E+02  0.32585024849E+02  0.36820962922E+02  0.00000000000E+00 0. -1.
         11    1    4    4    0    0  0.88962921255E+01 -0.19209767180E+01 -0.89192046769E+01  0.12743091362E+02  0.51100000000E-03 0. -1.
        -11    1    4    4    0    0 -0.22726301765E+02  0.12900981947E+02 -0.10066466445E+02  0.28004533098E+02  0.51100000000E-03 0.  1.
        -12    1    4    4    0    0  0.81285165533E-01 -0.73441879344E+00 -0.13599353727E+02  0.13619412618E+02  0.00000000000E+00 0.  1.
</event>
<event>
 8    1  0.2460897E-006  0.9118800E+02  0.7816164E-02  0.1184000E+00
        -11   -1    0    0    0    0  0.00000000000E+00  0.00000000000E+00  0.45593999997E+02  0.45594000000E+02  0.51100000000E-03 0. -1.
         11   -1    0    0    0    0 -0.00000000000E+00 -0.00000000000E+00 -0.45593999997E+02  0.45594000000E+02  0.51100000000E-03 0.  1.
         23    2    1    2    0    0  0.00000000000E+00  0.17763568394E-14  0.00000000000E+00  0.91188000000E+02  0.91188000000E+02 0.  0.
    9900012    2    3    3    0    0  0.32592728915E+02  0.94218360554E+01  0.14308112336E+02  0.54367094913E+02  0.40000024473E+02 0.  0.
        -12    1    3    3    0    0 -0.32592728915E+02 -0.94218360554E+01 -0.14308112336E+02  0.36820905087E+02  0.00000000000E+00 0.  1.
         11    1    4    4    0    0  0.14724912786E+02 -0.10407997077E+02  0.38477765396E+01  0.18437864417E+02  0.51100000000E-03 0. -1.
        -11    1    4    4    0    0  0.15931118430E+02  0.24411654492E+02  0.10414600279E+02  0.30954697684E+02  0.51100000000E-03 0.  1.
        -12    1    4    4    0    0  0.19366976999E+01 -0.45818213603E+01  0.45735517547E-01  0.49745328118E+01  0.00000000000E+00 0.  1.
</event>
<event>
 8    1  0.2460897E-006  0.9118800E+02  0.7816164E-02  0.1184000E+00
        -11   -1    0    0    0    0  0.00000000000E+00  0.00000000000E+00  0.45593999997E+02  0.45594000000E+02  0.51100000000E-03 0.  1.
         11   -1    0    0    0    0 -0.00000000000E+00 -0.00000000000E+00 -0.45593999997E+02  0.45594000000E+02  0.51100000000E-03 0. -1.
         23    2    1    2    0    0  0.00000000000E+00  0.00000000000E+00  0.35527136788E-14  0.91188000000E+02  0.91188000000E+02 0.  0.
    9900012    2    3    3    0    0 -0.24074884971E+02  0.53797739987E+01 -0.27335660975E+02  0.54367076388E+02  0.39999982243E+02 0.  0.
        -12    1    3    3    0    0  0.24074884971E+02 -0.53797739987E+01  0.27335660975E+02  0.36820923612E+02  0.00000000000E+00 0.  1.
         11    1    4    4    0    0 -0.79033924609E+01  0.89330146275E+00 -0.11327690444E+02  0.13841176646E+02  0.51100000000E-03 0. -1.
        -11    1    4    4    0    0 -0.24224023896E+02  0.72272089576E+01 -0.36763003992E+01  0.25545079133E+02  0.51100000000E-03 0.  1.
         12    1    4    4    0    0  0.80525313864E+01 -0.27407364216E+01 -0.12331670133E+02  0.14980820609E+02  0.00000000000E+00 0. -1.
</event>
<event>
 8    1  0.2460897E-006  0.9118800E+02  0.7816164E-02  0.1184000E+00
        -11   -1    0    0    0    0  0.00000000000E+00  0.00000000000E+00  0.45593999997E+02  0.45594000000E+02  0.51100000000E-03 0.  1.
         11   -1    0    0    0    0 -0.00000000000E+00 -0.00000000000E+00 -0.45593999997E+02  0.45594000000E+02  0.51100000000E-03 0. -1.
         23    2    1    2    0    0  0.00000000000E+00 -0.53290705182E-14 -0.88817841970E-15  0.91188000000E+02  0.91188000000E+02 0.  0.
    9900012    2    3    3    0    0  0.35018358635E+02 -0.10618370410E+02  0.40914019423E+01  0.54367152623E+02  0.40000156035E+02 0.  0.
         12    1    3    3    0    0 -0.35018358635E+02  0.10618370410E+02 -0.40914019423E+01  0.36820847377E+02  0.00000000000E+00 0. -1.
         11    1    4    4    0    0 -0.42879038180E+01 -0.46765746749E+00 -0.37918184546E+01  0.57430575579E+01  0.51100000000E-03 0. -1.
        -11    1    4    4    0    0  0.86838539868E+01  0.66192537512E+01  0.82878164851E+01  0.13708090408E+02  0.51100000000E-03 0.  1.
        -12    1    4    4    0    0  0.30622408467E+02 -0.16769966694E+02 -0.40459608812E+00  0.34916004657E+02  0.00000000000E+00 0.  1.
</event>
<event>
 8    1  0.2460897E-006  0.9118800E+02  0.7816164E-02  0.1184000E+00
        -11   -1    0    0    0    0  0.00000000000E+00  0.00000000000E+00  0.45593999997E+02  0.45594000000E+02  0.51100000000E-03 0.  1.
         11   -1    0    0    0    0 -0.00000000000E+00 -0.00000000000E+00 -0.45593999997E+02  0.45594000000E+02  0.51100000000E-03 0. -1.
         23    2    1    2    0    0  0.35527136788E-14  0.00000000000E+00  0.00000000000E+00  0.91188000000E+02  0.91188000000E+02 0.  0.
    9900012    2    3    3    0    0 -0.25884061451E+02 -0.18368791034E+02 -0.18664966534E+02  0.54367107874E+02  0.40000054020E+02 0.  0.
        -12    1    3    3    0    0  0.25884061451E+02  0.18368791034E+02  0.18664966534E+02  0.36820892126E+02  0.00000000000E+00 0.  1.
         11    1    4    4    0    0 -0.56023114980E+01 -0.47582589424E+00  0.30136506353E+01  0.63792158464E+01  0.51100000000E-03 0. -1.
        -11    1    4    4    0    0 -0.29526193595E+02 -0.14633581806E+02 -0.15658283288E+02  0.36484512611E+02  0.51100000000E-03 0.  1.
        -12    1    4    4    0    0  0.92444436415E+01 -0.32593833334E+01 -0.60203338817E+01  0.11503379417E+02  0.00000000000E+00 0.  1.
</event>
<event>
 8    1  0.2460897E-006  0.9118800E+02  0.7816164E-02  0.1184000E+00
        -11   -1    0    0    0    0  0.00000000000E+00  0.00000000000E+00  0.45593999997E+02  0.45594000000E+02  0.51100000000E-03 0.  1.
         11   -1    0    0    0    0 -0.00000000000E+00 -0.00000000000E+00 -0.45593999997E+02  0.45594000000E+02  0.51100000000E-03 0. -1.
         23    2    1    2    0    0  0.17763568394E-14  0.35527136788E-14 -0.35527136788E-14  0.91188000000E+02  0.91188000000E+02 0.  0.
    9900012    2    3    3    0    0  0.13468860547E+02  0.26638687852E+02  0.21558029820E+02  0.54367101794E+02  0.40000040161E+02 0.  0.
         12    1    3    3    0    0 -0.13468860547E+02 -0.26638687852E+02 -0.21558029820E+02  0.36820898206E+02  0.00000000000E+00 0. -1.
         11    1    4    4    0    0 -0.75195243372E+01  0.61656843704E+01  0.57207027591E+01  0.11282080940E+02  0.51100000000E-03 0. -1.
        -11    1    4    4    0    0  0.14258847925E+02 -0.66951651264E+00 -0.22605188122E+01  0.14452437236E+02  0.51100000000E-03 0.  1.
        -12    1    4    4    0    0  0.67295369593E+01  0.21142519995E+02  0.18097845874E+02  0.28632583618E+02  0.00000000000E+00 0.  1.
</event>
<event>
 8    1  0.2460897E-006  0.9118800E+02  0.7816164E-02  0.1184000E+00
        -11   -1    0    0    0    0  0.00000000000E+00  0.00000000000E+00  0.45593999997E+02  0.45594000000E+02  0.51100000000E-03 0. -1.
         11   -1    0    0    0    0 -0.00000000000E+00 -0.00000000000E+00 -0.45593999997E+02  0.45594000000E+02  0.51100000000E-03 0.  1.
         23    2    1    2    0    0 -0.88817841970E-15  0.00000000000E+00  0.00000000000E+00  0.91188000000E+02  0.91188000000E+02 0.  0.
    9900012    2    3    3    0    0  0.26554039611E+01 -0.27605630818E+02 -0.24220998616E+02  0.54367098368E+02  0.40000032350E+02 0.  0.
         12    1    3    3    0    0 -0.26554039611E+01  0.27605630818E+02  0.24220998616E+02  0.36820901632E+02  0.00000000000E+00 0. -1.
         11    1    4    4    0    0  0.82519501670E+01 -0.54335753001E-01 -0.10513623759E+02  0.13365400059E+02  0.51100000000E-03 0. -1.
        -11    1    4    4    0    0  0.38215400314E+01  0.47027778832E+00  0.47777320442E+01  0.61361268857E+01  0.51100000000E-03 0.  1.
        -12    1    4    4    0    0 -0.94180862372E+01 -0.28021572853E+02 -0.18485106901E+02  0.34865571423E+02  0.00000000000E+00 0.  1.
</event>
<event>
 8    1  0.2460897E-006  0.9118800E+02  0.7816164E-02  0.1184000E+00
        -11   -1    0    0    0    0  0.00000000000E+00  0.00000000000E+00  0.45593999997E+02  0.45594000000E+02  0.51100000000E-03 0. -1.
         11   -1    0    0    0    0 -0.00000000000E+00 -0.00000000000E+00 -0.45593999997E+02  0.45594000000E+02  0.51100000000E-03 0.  1.
         23    2    1    2    0    0  0.00000000000E+00  0.58286708793E-15  0.00000000000E+00  0.91188000000E+02  0.91188000000E+02 0.  0.
    9900012    2    3    3    0    0 -0.27496276633E+02  0.18909856083E+00  0.24488759802E+02  0.54367077367E+02  0.39999984473E+02 0.  0.
        -12    1    3    3    0    0  0.27496276633E+02 -0.18909856083E+00 -0.24488759802E+02  0.36820922633E+02  0.00000000000E+00 0.  1.
         11    1    4    4    0    0 -0.15655612647E+02  0.67910157011E+01  0.75686850078E+01  0.18668184021E+02  0.51100000000E-03 0. -1.
        -11    1    4    4    0    0 -0.15978087879E+02 -0.10564977170E+02  0.21181753082E+02  0.28558443563E+02  0.51100000000E-03 0.  1.
        -12    1    4    4    0    0  0.41374238933E+01  0.39630600294E+01 -0.42616782882E+01  0.71404497829E+01  0.00000000000E+00 0.  1.
</event>
<event>
 8    1  0.2460897E-006  0.9118800E+02  0.7816164E-02  0.1184000E+00
        -11   -1    0    0    0    0  0.00000000000E+00  0.00000000000E+00  0.45593999997E+02  0.45594000000E+02  0.51100000000E-03 0. -1.
         11   -1    0    0    0    0 -0.00000000000E+00 -0.00000000000E+00 -0.45593999997E+02  0.45594000000E+02  0.51100000000E-03 0.  1.
         23    2    1    2    0    0 -0.88817841970E-15  0.00000000000E+00 -0.17763568394E-14  0.91188000000E+02  0.91188000000E+02 0.  0.
    9900012    2    3    3    0    0  0.53055209596E+01 -0.32932317738E+02 -0.15591180370E+02  0.54367204115E+02  0.40000273421E+02 0.  0.
         12    1    3    3    0    0 -0.53055209596E+01  0.32932317738E+02  0.15591180370E+02  0.36820795885E+02  0.00000000000E+00 0. -1.
         11    1    4    4    0    0 -0.17810260937E+01 -0.19355653530E+02  0.30768134468E+01  0.19679434920E+02  0.51100000000E-03 0. -1.
        -11    1    4    4    0    0  0.90762039564E+01 -0.49720342711E+01 -0.22723770166E+02  0.24969347886E+02  0.51100000000E-03 0.  1.
        -12    1    4    4    0    0 -0.19896569032E+01 -0.86046299370E+01  0.40557763496E+01  0.97184213092E+01  0.00000000000E+00 0.  1.
</event>
<event>
 8    1  0.2460897E-006  0.9118800E+02  0.7816164E-02  0.1184000E+00
        -11   -1    0    0    0    0  0.00000000000E+00  0.00000000000E+00  0.45593999997E+02  0.45594000000E+02  0.51100000000E-03 0. -1.
         11   -1    0    0    0    0 -0.00000000000E+00 -0.00000000000E+00 -0.45593999997E+02  0.45594000000E+02  0.51100000000E-03 0.  1.
         23    2    1    2    0    0  0.00000000000E+00  0.17763568394E-14  0.00000000000E+00  0.91188000000E+02  0.91188000000E+02 0.  0.
    9900012    2    3    3    0    0 -0.34275572439E+02 -0.84868813277E+01 -0.10437333598E+02  0.54367082666E+02  0.39999996553E+02 0.  0.
        -12    1    3    3    0    0  0.34275572439E+02  0.84868813277E+01  0.10437333598E+02  0.36820917334E+02  0.00000000000E+00 0.  1.
         11    1    4    4    0    0  0.58304236767E+01  0.72097805465E+00 -0.11279770787E+02  0.12717974637E+02  0.51100000000E-03 0. -1.
        -11    1    4    4    0    0 -0.24898685449E+02 -0.88179729408E+01  0.98991323588E-02  0.26414035703E+02  0.51100000000E-03 0.  1.
         12    1    4    4    0    0 -0.15207310667E+02 -0.38988644151E+00  0.83253805625E+00  0.15235072326E+02  0.00000000000E+00 0. -1.
</event>
<event>
 8    1  0.2460897E-006  0.9118800E+02  0.7816164E-02  0.1184000E+00
        -11   -1    0    0    0    0  0.00000000000E+00  0.00000000000E+00  0.45593999997E+02  0.45594000000E+02  0.51100000000E-03 0.  1.
         11   -1    0    0    0    0 -0.00000000000E+00 -0.00000000000E+00 -0.45593999997E+02  0.45594000000E+02  0.51100000000E-03 0. -1.
         23    2    1    2    0    0  0.17763568394E-14  0.13322676296E-14 -0.71054273576E-14  0.91188000000E+02  0.91188000000E+02 0.  0.
    9900012    2    3    3    0    0  0.64326827094E+01  0.23647885440E+01  0.36177448095E+02  0.54367090419E+02  0.40000014228E+02 0.  0.
         12    1    3    3    0    0 -0.64326827094E+01 -0.23647885440E+01 -0.36177448095E+02  0.36820909581E+02  0.00000000000E+00 0. -1.
         11    1    4    4    0    0  0.50923456348E+01 -0.39520600855E+00 -0.66548109162E+01  0.83889618216E+01  0.51100000000E-03 0. -1.
        -11    1    4    4    0    0 -0.42901500865E+01 -0.53400867736E+01  0.17636357714E+02  0.18919910893E+02  0.51100000000E-03 0.  1.
        -12    1    4    4    0    0  0.56304871610E+01  0.81000813262E+01  0.25195901297E+02  0.27058217705E+02  0.00000000000E+00 0.  1.
</event>
<event>
 8    1  0.2460897E-006  0.9118800E+02  0.7816164E-02  0.1184000E+00
        -11   -1    0    0    0    0  0.00000000000E+00  0.00000000000E+00  0.45593999997E+02  0.45594000000E+02  0.51100000000E-03 0.  1.
         11   -1    0    0    0    0 -0.00000000000E+00 -0.00000000000E+00 -0.45593999997E+02  0.45594000000E+02  0.51100000000E-03 0. -1.
         23    2    1    2    0    0  0.00000000000E+00 -0.17763568394E-14  0.35527136788E-14  0.91188000000E+02  0.91188000000E+02 0.  0.
    9900012    2    3    3    0    0  0.20611058652E+02  0.74975895224E+01  0.29576145374E+02  0.54367109698E+02  0.40000058179E+02 0.  0.
         12    1    3    3    0    0 -0.20611058652E+02 -0.74975895224E+01 -0.29576145374E+02  0.36820890302E+02  0.00000000000E+00 0. -1.
         11    1    4    4    0    0  0.24871291064E+01  0.20417083844E+01 -0.39466688994E+01  0.50922077708E+01  0.51100000000E-03 0. -1.
        -11    1    4    4    0    0  0.17134717677E+02  0.13308143827E+02  0.35043387784E+02  0.41215825476E+02  0.51100000000E-03 0.  1.
         12    1    4    4    0    0  0.98921186834E+00 -0.78522626890E+01 -0.15205735103E+01  0.80590764519E+01  0.00000000000E+00 0. -1.
</event>
<event>
 8    1  0.2460897E-006  0.9118800E+02  0.7816164E-02  0.1184000E+00
        -11   -1    0    0    0    0  0.00000000000E+00  0.00000000000E+00  0.45593999997E+02  0.45594000000E+02  0.51100000000E-03 0.  1.
         11   -1    0    0    0    0 -0.00000000000E+00 -0.00000000000E+00 -0.45593999997E+02  0.45594000000E+02  0.51100000000E-03 0. -1.
         23    2    1    2    0    0  0.35527136788E-14  0.00000000000E+00 -0.35527136788E-14  0.91188000000E+02  0.91188000000E+02 0.  0.
    9900012    2    3    3    0    0  0.10674715096E+02 -0.27521003300E+02 -0.22009664942E+02  0.54367075027E+02  0.39999979139E+02 0.  0.
        -12    1    3    3    0    0 -0.10674715096E+02  0.27521003300E+02  0.22009664942E+02  0.36820924973E+02  0.00000000000E+00 0.  1.
         11    1    4    4    0    0  0.99528831290E+01 -0.80247917665E+01 -0.15812695605E+02  0.20334662722E+02  0.51100000000E-03 0. -1.
        -11    1    4    4    0    0 -0.65216830234E+01 -0.10822207179E+02  0.86950364179E+01  0.15338062989E+02  0.51100000000E-03 0.  1.
        -12    1    4    4    0    0  0.72435149904E+01 -0.86740043548E+01 -0.14892005755E+02  0.18694349316E+02  0.00000000000E+00 0.  1.
</event>
<event>
 8    1  0.2460897E-006  0.9118800E+02  0.7816164E-02  0.1184000E+00
        -11   -1    0    0    0    0  0.00000000000E+00  0.00000000000E+00  0.45593999997E+02  0.45594000000E+02  0.51100000000E-03 0.  1.
         11   -1    0    0    0    0 -0.00000000000E+00 -0.00000000000E+00 -0.45593999997E+02  0.45594000000E+02  0.51100000000E-03 0. -1.
         23    2    1    2    0    0  0.00000000000E+00 -0.88817841970E-15  0.00000000000E+00  0.91188000000E+02  0.91188000000E+02 0.  0.
    9900012    2    3    3    0    0 -0.16958545761E+02 -0.65463871898E+01 -0.32020803183E+02  0.54367091592E+02  0.40000016901E+02 0.  0.
        -12    1    3    3    0    0  0.16958545761E+02  0.65463871898E+01  0.32020803183E+02  0.36820908408E+02  0.00000000000E+00 0.  1.
         11    1    4    4    0    0 -0.93569800180E+01 -0.40896223331E+01 -0.36378344173E+02  0.37784414921E+02  0.51100000000E-03 0. -1.
        -11    1    4    4    0    0 -0.27661085479E+01 -0.64429757307E+01 -0.23578390864E+01  0.73974791776E+01  0.51100000000E-03 0.  1.
         12    1    4    4    0    0 -0.48354571953E+01  0.39862108739E+01  0.67153800765E+01  0.91851974933E+01  0.00000000000E+00 0. -1.
</event>
<event>
 8    1  0.2460897E-006  0.9118800E+02  0.7816164E-02  0.1184000E+00
        -11   -1    0    0    0    0  0.00000000000E+00  0.00000000000E+00  0.45593999997E+02  0.45594000000E+02  0.51100000000E-03 0.  1.
         11   -1    0    0    0    0 -0.00000000000E+00 -0.00000000000E+00 -0.45593999997E+02  0.45594000000E+02  0.51100000000E-03 0. -1.
         23    2    1    2    0    0 -0.88817841970E-15  0.00000000000E+00  0.00000000000E+00  0.91188000000E+02  0.91188000000E+02 0.  0.
    9900012    2    3    3    0    0 -0.51042898553E+01 -0.36366644897E+02  0.26815812757E+01  0.54367115789E+02  0.40000072063E+02 0.  0.
         12    1    3    3    0    0  0.51042898553E+01  0.36366644897E+02 -0.26815812757E+01  0.36820884211E+02  0.00000000000E+00 0. -1.
         11    1    4    4    0    0  0.20755355027E+01 -0.11332014645E+02  0.18178918855E+01  0.11663067123E+02  0.51100000000E-03 0. -1.
        -11    1    4    4    0    0  0.67400070690E+01 -0.27261532225E+02 -0.25557470125E+01  0.28198416225E+02  0.51100000000E-03 0.  1.
        -12    1    4    4    0    0 -0.13919832427E+02  0.22269019737E+01  0.34194364026E+01  0.14505632441E+02  0.00000000000E+00 0.  1.
</event>
<event>
 8    1  0.2460897E-006  0.9118800E+02  0.7816164E-02  0.1184000E+00
        -11   -1    0    0    0    0  0.00000000000E+00  0.00000000000E+00  0.45593999997E+02  0.45594000000E+02  0.51100000000E-03 0.  1.
         11   -1    0    0    0    0 -0.00000000000E+00 -0.00000000000E+00 -0.45593999997E+02  0.45594000000E+02  0.51100000000E-03 0. -1.
         23    2    1    2    0    0  0.00000000000E+00 -0.71054273576E-14 -0.31086244690E-14  0.91188000000E+02  0.91188000000E+02 0.  0.
    9900012    2    3    3    0    0  0.11590122543E+02 -0.34866451821E+02 -0.24040902443E+01  0.54367081312E+02  0.39999993466E+02 0.  0.
        -12    1    3    3    0    0 -0.11590122543E+02  0.34866451821E+02  0.24040902443E+01  0.36820918688E+02  0.00000000000E+00 0.  1.
         11    1    4    4    0    0 -0.25481933436E+01 -0.14296258195E+02  0.58585885099E+01  0.15658842463E+02  0.51100000000E-03 0. -1.
        -11    1    4    4    0    0 -0.19604267183E+01 -0.11829748239E+02  0.78332496553E+01  0.14322919282E+02  0.51100000000E-03 0.  1.
         12    1    4    4    0    0  0.16098742605E+02 -0.87404453866E+01 -0.16095928410E+02  0.24385319567E+02  0.00000000000E+00 0. -1.
</event>
<event>
 8    1  0.2460897E-006  0.9118800E+02  0.7816164E-02  0.1184000E+00
        -11   -1    0    0    0    0  0.00000000000E+00  0.00000000000E+00  0.45593999997E+02  0.45594000000E+02  0.51100000000E-03 0. -1.
         11   -1    0    0    0    0 -0.00000000000E+00 -0.00000000000E+00 -0.45593999997E+02  0.45594000000E+02  0.51100000000E-03 0.  1.
         23    2    1    2    0    0  0.00000000000E+00 -0.35527136788E-14  0.00000000000E+00  0.91188000000E+02  0.91188000000E+02 0.  0.
    9900012    2    3    3    0    0 -0.89862998285E+01  0.18026068497E+02 -0.30823504023E+02  0.54367066683E+02  0.39999960117E+02 0.  0.
         12    1    3    3    0    0  0.89862998285E+01 -0.18026068497E+02  0.30823504023E+02  0.36820933317E+02  0.00000000000E+00 0. -1.
         11    1    4    4    0    0 -0.80904325657E+01  0.28701777112E+02 -0.25623800216E+02  0.39316996913E+02  0.51100000000E-03 0. -1.
        -11    1    4    4    0    0 -0.47326019295E+01 -0.35830556710E+01 -0.31929681510E+01  0.67402414525E+01  0.51100000000E-03 0.  1.
         12    1    4    4    0    0  0.38367346666E+01 -0.70926529433E+01 -0.20067356562E+01  0.83098283177E+01  0.00000000000E+00 0. -1.
</event>
<event>
 8    1  0.2460897E-006  0.9118800E+02  0.7816164E-02  0.1184000E+00
        -11   -1    0    0    0    0  0.00000000000E+00  0.00000000000E+00  0.45593999997E+02  0.45594000000E+02  0.51100000000E-03 0.  1.
         11   -1    0    0    0    0 -0.00000000000E+00 -0.00000000000E+00 -0.45593999997E+02  0.45594000000E+02  0.51100000000E-03 0. -1.
         23    2    1    2    0    0  0.00000000000E+00  0.17763568394E-14 -0.35527136788E-14  0.91188000000E+02  0.91188000000E+02 0.  0.
    9900012    2    3    3    0    0 -0.20880792252E+02 -0.11520856471E+02  0.28054276362E+02  0.54367081474E+02  0.39999993837E+02 0.  0.
         12    1    3    3    0    0  0.20880792252E+02  0.11520856471E+02 -0.28054276362E+02  0.36820918526E+02  0.00000000000E+00 0. -1.
         11    1    4    4    0    0 -0.68915769475E+01 -0.74640171673E+00 -0.34556515910E+00  0.69404872945E+01  0.51100000000E-03 0. -1.
        -11    1    4    4    0    0 -0.18206351471E+02 -0.17972900648E+02  0.10454565341E+02  0.27636829201E+02  0.51100000000E-03 0.  1.
         12    1    4    4    0    0  0.42171361663E+01  0.71984458936E+01  0.17945276180E+02  0.19789764979E+02  0.00000000000E+00 0. -1.
</event>
<event>
 8    1  0.2460897E-006  0.9118800E+02  0.7816164E-02  0.1184000E+00
        -11   -1    0    0    0    0  0.00000000000E+00  0.00000000000E+00  0.45593999997E+02  0.45594000000E+02  0.51100000000E-03 0.  1.
         11   -1    0    0    0    0 -0.00000000000E+00 -0.00000000000E+00 -0.45593999997E+02  0.45594000000E+02  0.51100000000E-03 0. -1.
         23    2    1    2    0    0  0.35527136788E-14  0.88817841970E-15  0.00000000000E+00  0.91188000000E+02  0.91188000000E+02 0.  0.
    9900012    2    3    3    0    0 -0.11391306812E+02 -0.51943647088E+01 -0.34627106846E+02  0.54367084420E+02  0.40000000553E+02 0.  0.
        -12    1    3    3    0    0  0.11391306812E+02  0.51943647088E+01  0.34627106846E+02  0.36820915580E+02  0.00000000000E+00 0.  1.
         11    1    4    4    0    0 -0.61432700939E+01 -0.70494644967E+01 -0.25321304057E+01  0.96874352534E+01  0.51100000000E-03 0. -1.
        -11    1    4    4    0    0 -0.89406855878E+01  0.52684454156E+01  0.16972084028E+01  0.10515364592E+02  0.51100000000E-03 0.  1.
         12    1    4    4    0    0  0.36926488693E+01 -0.34133456277E+01 -0.33792184843E+02  0.34164284575E+02  0.00000000000E+00 0. -1.
</event>
<event>
 8    1  0.2460897E-006  0.9118800E+02  0.7816164E-02  0.1184000E+00
        -11   -1    0    0    0    0  0.00000000000E+00  0.00000000000E+00  0.45593999997E+02  0.45594000000E+02  0.51100000000E-03 0.  1.
         11   -1    0    0    0    0 -0.00000000000E+00 -0.00000000000E+00 -0.45593999997E+02  0.45594000000E+02  0.51100000000E-03 0. -1.
         23    2    1    2    0    0  0.00000000000E+00  0.00000000000E+00  0.00000000000E+00  0.91188000000E+02  0.91188000000E+02 0.  0.
    9900012    2    3    3    0    0 -0.16307868707E+02 -0.30299742615E+01 -0.32873285601E+02  0.54367078882E+02  0.39999987927E+02 0.  0.
        -12    1    3    3    0    0  0.16307868707E+02  0.30299742615E+01  0.32873285601E+02  0.36820921118E+02  0.00000000000E+00 0.  1.
         11    1    4    4    0    0 -0.13633907012E+02 -0.13420178625E+02 -0.23360508239E+02  0.30194336558E+02  0.51100000000E-03 0. -1.
        -11    1    4    4    0    0 -0.37028465283E+01 -0.53014616628E+01 -0.33511161724E+01  0.72833061199E+01  0.51100000000E-03 0.  1.
         12    1    4    4    0    0  0.10288848340E+01  0.15691666026E+02 -0.61616611897E+01  0.16889436204E+02  0.00000000000E+00 0. -1.
</event>
<event>
 8    1  0.2460897E-006  0.9118800E+02  0.7816164E-02  0.1184000E+00
        -11   -1    0    0    0    0  0.00000000000E+00  0.00000000000E+00  0.45593999997E+02  0.45594000000E+02  0.51100000000E-03 0. -1.
         11   -1    0    0    0    0 -0.00000000000E+00 -0.00000000000E+00 -0.45593999997E+02  0.45594000000E+02  0.51100000000E-03 0.  1.
         23    2    1    2    0    0  0.00000000000E+00 -0.17763568394E-14 -0.88817841970E-15  0.91188000000E+02  0.91188000000E+02 0.  0.
    9900012    2    3    3    0    0 -0.32829357149E+02 -0.15103106412E+02 -0.70649045888E+01  0.54367035985E+02  0.39999890135E+02 0.  0.
         12    1    3    3    0    0  0.32829357149E+02  0.15103106412E+02  0.70649045888E+01  0.36820964015E+02  0.00000000000E+00 0. -1.
         11    1    4    4    0    0 -0.28498243011E+02 -0.64890520260E+01  0.62194064740E+01  0.29882079380E+02  0.51100000000E-03 0. -1.
        -11    1    4    4    0    0 -0.90192676462E+01 -0.80116767553E+01 -0.15182103759E+02  0.19391504019E+02  0.51100000000E-03 0.  1.
         12    1    4    4    0    0  0.46881535083E+01 -0.60237763111E+00  0.18977926966E+01  0.50934525861E+01  0.00000000000E+00 0. -1.
</event>
<event>
 8    1  0.2460897E-006  0.9118800E+02  0.7816164E-02  0.1184000E+00
        -11   -1    0    0    0    0  0.00000000000E+00  0.00000000000E+00  0.45593999997E+02  0.45594000000E+02  0.51100000000E-03 0. -1.
         11   -1    0    0    0    0 -0.00000000000E+00 -0.00000000000E+00 -0.45593999997E+02  0.45594000000E+02  0.51100000000E-03 0.  1.
         23    2    1    2    0    0 -0.88817841970E-15  0.00000000000E+00  0.17763568394E-14  0.91188000000E+02  0.91188000000E+02 0.  0.
    9900012    2    3    3    0    0 -0.68579106062E+01  0.33629168338E+02  0.13335141577E+02  0.54367110524E+02  0.40000060061E+02 0.  0.
        -12    1    3    3    0    0  0.68579106062E+01 -0.33629168338E+02 -0.13335141577E+02  0.36820889476E+02  0.00000000000E+00 0.  1.
         11    1    4    4    0    0  0.43764300012E+01  0.85144656200E+01 -0.62512540766E+01  0.11433610197E+02  0.51100000000E-03 0. -1.
        -11    1    4    4    0    0  0.60309791882E+01  0.22769621829E+01  0.11500369702E+02  0.13183920900E+02  0.51100000000E-03 0.  1.
         12    1    4    4    0    0 -0.17265319796E+02  0.22837740535E+02  0.80860259511E+01  0.29749579427E+02  0.00000000000E+00 0. -1.
</event>
<event>
 8    1  0.2460897E-006  0.9118800E+02  0.7816164E-02  0.1184000E+00
        -11   -1    0    0    0    0  0.00000000000E+00  0.00000000000E+00  0.45593999997E+02  0.45594000000E+02  0.51100000000E-03 0. -1.
         11   -1    0    0    0    0 -0.00000000000E+00 -0.00000000000E+00 -0.45593999997E+02  0.45594000000E+02  0.51100000000E-03 0.  1.
         23    2    1    2    0    0  0.00000000000E+00  0.00000000000E+00  0.00000000000E+00  0.91188000000E+02  0.91188000000E+02 0.  0.
    9900012    2    3    3    0    0 -0.33204090388E+02 -0.96033305175E+01  0.12690321666E+02  0.54367084211E+02  0.40000000076E+02 0.  0.
         12    1    3    3    0    0  0.33204090388E+02  0.96033305175E+01 -0.12690321666E+02  0.36820915789E+02  0.00000000000E+00 0. -1.
         11    1    4    4    0    0  0.31732531786E+01  0.84269822044E+01  0.10820370638E+01  0.90694194564E+01  0.51100000000E-03 0. -1.
        -11    1    4    4    0    0 -0.22938191081E+02 -0.18818025012E+02  0.42995374323E+01  0.29979404560E+02  0.51100000000E-03 0.  1.
         12    1    4    4    0    0 -0.13439152486E+02  0.78771228978E+00  0.73087471703E+01  0.15318260195E+02  0.00000000000E+00 0. -1.
</event>
<event>
 8    1  0.2460897E-006  0.9118800E+02  0.7816164E-02  0.1184000E+00
        -11   -1    0    0    0    0  0.00000000000E+00  0.00000000000E+00  0.45593999997E+02  0.45594000000E+02  0.51100000000E-03 0.  1.
         11   -1    0    0    0    0 -0.00000000000E+00 -0.00000000000E+00 -0.45593999997E+02  0.45594000000E+02  0.51100000000E-03 0. -1.
         23    2    1    2    0    0 -0.35527136788E-14 -0.44408920985E-15  0.00000000000E+00  0.91188000000E+02  0.91188000000E+02 0.  0.
    9900012    2    3    3    0    0 -0.28259320518E+02  0.22285884933E+01 -0.23499458220E+02  0.54367077423E+02  0.39999984601E+02 0.  0.
        -12    1    3    3    0    0  0.28259320518E+02 -0.22285884933E+01  0.23499458220E+02  0.36820922577E+02  0.00000000000E+00 0.  1.
         11    1    4    4    0    0 -0.20590332485E+02  0.51274903873E+01 -0.92998290821E+01  0.23167644911E+02  0.51100000000E-03 0. -1.
        -11    1    4    4    0    0 -0.13694407027E+02  0.65110876233E+01 -0.12978211903E+02  0.19959083904E+02  0.51100000000E-03 0.  1.
        -12    1    4    4    0    0  0.60254189932E+01 -0.94099895173E+01 -0.12214172350E+01  0.11240348608E+02  0.00000000000E+00 0.  1.
</event>
<event>
 8    1  0.2460897E-006  0.9118800E+02  0.7816164E-02  0.1184000E+00
        -11   -1    0    0    0    0  0.00000000000E+00  0.00000000000E+00  0.45593999997E+02  0.45594000000E+02  0.51100000000E-03 0. -1.
         11   -1    0    0    0    0 -0.00000000000E+00 -0.00000000000E+00 -0.45593999997E+02  0.45594000000E+02  0.51100000000E-03 0.  1.
         23    2    1    2    0    0  0.35527136788E-14  0.00000000000E+00 -0.29976021665E-14  0.91188000000E+02  0.91188000000E+02 0.  0.
    9900012    2    3    3    0    0 -0.29420087516E+02  0.22130919983E+02  0.68068444696E+00  0.54367048083E+02  0.39999917715E+02 0.  0.
        -12    1    3    3    0    0  0.29420087516E+02 -0.22130919983E+02 -0.68068444696E+00  0.36820951917E+02  0.00000000000E+00 0.  1.
         11    1    4    4    0    0 -0.15068121317E+02  0.46679345110E+01 -0.11322736472E+02  0.19417575906E+02  0.51100000000E-03 0. -1.
        -11    1    4    4    0    0  0.35672267447E+01 -0.25002424265E+01 -0.18792307431E+01  0.47442414869E+01  0.51100000000E-03 0.  1.
         12    1    4    4    0    0 -0.17919192944E+02  0.19963227898E+02  0.13882651662E+02  0.30205230690E+02  0.00000000000E+00 0. -1.
</event>
<event>
 8    1  0.2460897E-006  0.9118800E+02  0.7816164E-02  0.1184000E+00
        -11   -1    0    0    0    0  0.00000000000E+00  0.00000000000E+00  0.45593999997E+02  0.45594000000E+02  0.51100000000E-03 0.  1.
         11   -1    0    0    0    0 -0.00000000000E+00 -0.00000000000E+00 -0.45593999997E+02  0.45594000000E+02  0.51100000000E-03 0. -1.
         23    2    1    2    0    0 -0.35527136788E-14  0.35527136788E-14 -0.35527136788E-14  0.91188000000E+02  0.91188000000E+02 0.  0.
    9900012    2    3    3    0    0  0.11605446962E+02 -0.17686902136E+02  0.30137440127E+02  0.54367106424E+02  0.40000050715E+02 0.  0.
         12    1    3    3    0    0 -0.11605446962E+02  0.17686902136E+02 -0.30137440127E+02  0.36820893576E+02  0.00000000000E+00 0. -1.
         11    1    4    4    0    0  0.60960984928E+01  0.46551617077E+01 -0.45765267687E+01  0.89318276340E+01  0.51100000000E-03 0. -1.
        -11    1    4    4    0    0 -0.65713683080E+01 -0.99525565514E+01  0.12500399989E+02  0.17277044409E+02  0.51100000000E-03 0.  1.
        -12    1    4    4    0    0  0.12080716777E+02 -0.12389507292E+02  0.22213566906E+02  0.28158234381E+02  0.00000000000E+00 0.  1.
</event>
<event>
 8    1  0.2460897E-006  0.9118800E+02  0.7816164E-02  0.1184000E+00
        -11   -1    0    0    0    0  0.00000000000E+00  0.00000000000E+00  0.45593999997E+02  0.45594000000E+02  0.51100000000E-03 0. -1.
         11   -1    0    0    0    0 -0.00000000000E+00 -0.00000000000E+00 -0.45593999997E+02  0.45594000000E+02  0.51100000000E-03 0.  1.
         23    2    1    2    0    0  0.88817841970E-15 -0.35527136788E-14  0.00000000000E+00  0.91188000000E+02  0.91188000000E+02 0.  0.
    9900012    2    3    3    0    0  0.44333085435E+01  0.26820945559E+02 -0.24834700073E+02  0.54367086472E+02  0.40000005231E+02 0.  0.
        -12    1    3    3    0    0 -0.44333085435E+01 -0.26820945559E+02  0.24834700073E+02  0.36820913528E+02  0.00000000000E+00 0.  1.
         11    1    4    4    0    0 -0.47391681974E+01  0.22574512118E+02 -0.21103037624E+02  0.31263501240E+02  0.51100000000E-03 0.  1.
        -11    1    4    4    0    0  0.78214835153E+01 -0.74520573802E+01 -0.18466334785E+00  0.10804761191E+02  0.51100000000E-03 0. -1.
         12    1    4    4    0    0  0.13509932256E+01  0.11698490821E+02 -0.35469991015E+01  0.12298824042E+02  0.00000000000E+00 0. -1.
</event>
<event>
 8    1  0.2460897E-006  0.9118800E+02  0.7816164E-02  0.1184000E+00
        -11   -1    0    0    0    0  0.00000000000E+00  0.00000000000E+00  0.45593999997E+02  0.45594000000E+02  0.51100000000E-03 0.  1.
         11   -1    0    0    0    0 -0.00000000000E+00 -0.00000000000E+00 -0.45593999997E+02  0.45594000000E+02  0.51100000000E-03 0. -1.
         23    2    1    2    0    0 -0.35527136788E-14  0.17763568394E-14  0.00000000000E+00  0.91188000000E+02  0.91188000000E+02 0.  0.
    9900012    2    3    3    0    0 -0.26547707390E+02  0.13403694386E+02 -0.21710319044E+02  0.54367112669E+02  0.40000064951E+02 0.  0.
        -12    1    3    3    0    0  0.26547707390E+02 -0.13403694386E+02  0.21710319044E+02  0.36820887331E+02  0.00000000000E+00 0.  1.
         11    1    4    4    0    0 -0.15170084046E+02 -0.35467057892E+01 -0.65106865832E+01  0.16884893010E+02  0.51100000000E-03 0.  1.
        -11    1    4    4    0    0 -0.10514621174E+02  0.11759815379E+02 -0.23110538911E+02  0.27981199495E+02  0.51100000000E-03 0. -1.
        -12    1    4    4    0    0 -0.86300216984E+00  0.51905847970E+01  0.79109064505E+01  0.95010201635E+01  0.00000000000E+00 0.  1.
</event>
<event>
 8    1  0.2460897E-006  0.9118800E+02  0.7816164E-02  0.1184000E+00
        -11   -1    0    0    0    0  0.00000000000E+00  0.00000000000E+00  0.45593999997E+02  0.45594000000E+02  0.51100000000E-03 0.  1.
         11   -1    0    0    0    0 -0.00000000000E+00 -0.00000000000E+00 -0.45593999997E+02  0.45594000000E+02  0.51100000000E-03 0. -1.
         23    2    1    2    0    0 -0.11102230246E-15  0.00000000000E+00 -0.71054273576E-14  0.91188000000E+02  0.91188000000E+02 0.  0.
    9900012    2    3    3    0    0  0.88458382147E+00  0.68717124518E+01  0.36163175268E+02  0.54367106936E+02  0.40000051881E+02 0.  0.
         12    1    3    3    0    0 -0.88458382147E+00 -0.68717124518E+01 -0.36163175268E+02  0.36820893064E+02  0.00000000000E+00 0. -1.
         11    1    4    4    0    0  0.16838182722E+01 -0.32199636569E+01 -0.75826834356E+01  0.84083588335E+01  0.51100000000E-03 0. -1.
        -11    1    4    4    0    0 -0.13301768676E+01  0.46881558960E+01  0.55791419181E+01  0.74077662631E+01  0.51100000000E-03 0.  1.
        -12    1    4    4    0    0  0.53094241692E+00  0.54035202128E+01  0.38166716786E+02  0.38550981839E+02  0.00000000000E+00 0.  1.
</event>
<event>
 8    1  0.2460897E-006  0.9118800E+02  0.7816164E-02  0.1184000E+00
        -11   -1    0    0    0    0  0.00000000000E+00  0.00000000000E+00  0.45593999997E+02  0.45594000000E+02  0.51100000000E-03 0. -1.
         11   -1    0    0    0    0 -0.00000000000E+00 -0.00000000000E+00 -0.45593999997E+02  0.45594000000E+02  0.51100000000E-03 0.  1.
         23    2    1    2    0    0  0.35527136788E-14 -0.13322676296E-14  0.00000000000E+00  0.91188000000E+02  0.91188000000E+02 0.  0.
    9900012    2    3    3    0    0  0.29066479845E+02 -0.12583290332E+01  0.22568453197E+02  0.54367099383E+02  0.40000034664E+02 0.  0.
        -12    1    3    3    0    0 -0.29066479845E+02  0.12583290332E+01 -0.22568453197E+02  0.36820900617E+02  0.00000000000E+00 0.  1.
         11    1    4    4    0    0  0.55446419144E+00 -0.14333472279E+01  0.80095744757E+01  0.81556850330E+01  0.51100000000E-03 0. -1.
        -11    1    4    4    0    0 -0.10895135117E+01 -0.11854835078E+02  0.40703360691E+01  0.12581406535E+02  0.51100000000E-03 0.  1.
         12    1    4    4    0    0  0.29601529165E+02  0.12029853273E+02  0.10488542652E+02  0.33630007815E+02  0.00000000000E+00 0. -1.
</event>
<event>
 8    1  0.2460897E-006  0.9118800E+02  0.7816164E-02  0.1184000E+00
        -11   -1    0    0    0    0  0.00000000000E+00  0.00000000000E+00  0.45593999997E+02  0.45594000000E+02  0.51100000000E-03 0. -1.
         11   -1    0    0    0    0 -0.00000000000E+00 -0.00000000000E+00 -0.45593999997E+02  0.45594000000E+02  0.51100000000E-03 0.  1.
         23    2    1    2    0    0  0.35527136788E-14 -0.88817841970E-15 -0.35527136788E-14  0.91188000000E+02  0.91188000000E+02 0.  0.
    9900012    2    3    3    0    0  0.27377362176E+02  0.41490472589E+01  0.24270253324E+02  0.54367085437E+02  0.40000002871E+02 0.  0.
         12    1    3    3    0    0 -0.27377362176E+02 -0.41490472589E+01 -0.24270253324E+02  0.36820914563E+02  0.00000000000E+00 0. -1.
         11    1    4    4    0    0  0.16704441296E+02  0.63709662662E+01  0.14124894820E+02  0.22784648870E+02  0.51100000000E-03 0. -1.
        -11    1    4    4    0    0  0.99159048770E+01 -0.65851867137E+01  0.18574196827E+02  0.22061066194E+02  0.51100000000E-03 0.  1.
        -12    1    4    4    0    0  0.75701600228E+00  0.43632677064E+01 -0.84288383230E+01  0.95213703730E+01  0.00000000000E+00 0.  1.
</event>
<event>
 8    1  0.2460897E-006  0.9118800E+02  0.7816164E-02  0.1184000E+00
        -11   -1    0    0    0    0  0.00000000000E+00  0.00000000000E+00  0.45593999997E+02  0.45594000000E+02  0.51100000000E-03 0. -1.
         11   -1    0    0    0    0 -0.00000000000E+00 -0.00000000000E+00 -0.45593999997E+02  0.45594000000E+02  0.51100000000E-03 0.  1.
         23    2    1    2    0    0  0.00000000000E+00 -0.17763568394E-14 -0.71054273576E-14  0.91188000000E+02  0.91188000000E+02 0.  0.
    9900012    2    3    3    0    0 -0.21864646922E+02 -0.13780782364E+02  0.26226089575E+02  0.54367074944E+02  0.39999978949E+02 0.  0.
        -12    1    3    3    0    0  0.21864646922E+02  0.13780782364E+02 -0.26226089575E+02  0.36820925056E+02  0.00000000000E+00 0.  1.
         11    1    4    4    0    0  0.38749276104E+01 -0.94400764106E+01 -0.59893413447E+01  0.11832257461E+02  0.51100000000E-03 0. -1.
        -11    1    4    4    0    0 -0.12010011679E+02  0.95561265592E-01  0.82836000437E+01  0.14589980892E+02  0.51100000000E-03 0.  1.
         12    1    4    4    0    0 -0.13729562853E+02 -0.44362672188E+01  0.23931830876E+02  0.27944836590E+02  0.00000000000E+00 0. -1.
</event>
<event>
 8    1  0.2460897E-006  0.9118800E+02  0.7816164E-02  0.1184000E+00
        -11   -1    0    0    0    0  0.00000000000E+00  0.00000000000E+00  0.45593999997E+02  0.45594000000E+02  0.51100000000E-03 0. -1.
         11   -1    0    0    0    0 -0.00000000000E+00 -0.00000000000E+00 -0.45593999997E+02  0.45594000000E+02  0.51100000000E-03 0.  1.
         23    2    1    2    0    0  0.00000000000E+00  0.00000000000E+00 -0.35527136788E-14  0.91188000000E+02  0.91188000000E+02 0.  0.
    9900012    2    3    3    0    0 -0.12090658333E+02  0.18890483008E+02  0.29201815856E+02  0.54367076376E+02  0.39999982215E+02 0.  0.
        -12    1    3    3    0    0  0.12090658333E+02 -0.18890483008E+02 -0.29201815856E+02  0.36820923624E+02  0.00000000000E+00 0.  1.
         11    1    4    4    0    0 -0.84194613215E+01  0.16140908180E+02  0.18530656279E+00  0.18205784372E+02  0.51100000000E-03 0. -1.
        -11    1    4    4    0    0 -0.29826180581E+01 -0.50938738892E+00 -0.28288492761E+01  0.41422064749E+01  0.51100000000E-03 0.  1.
        -12    1    4    4    0    0 -0.68857895325E+00  0.32589622172E+01  0.31845358570E+02  0.32019085530E+02  0.00000000000E+00 0.  1.
</event>
<event>
 8    1  0.2460897E-006  0.9118800E+02  0.7816164E-02  0.1184000E+00
        -11   -1    0    0    0    0  0.00000000000E+00  0.00000000000E+00  0.45593999997E+02  0.45594000000E+02  0.51100000000E-03 0. -1.
         11   -1    0    0    0    0 -0.00000000000E+00 -0.00000000000E+00 -0.45593999997E+02  0.45594000000E+02  0.51100000000E-03 0.  1.
         23    2    1    2    0    0  0.00000000000E+00 -0.35527136788E-14  0.35527136788E-14  0.91188000000E+02  0.91188000000E+02 0.  0.
    9900012    2    3    3    0    0 -0.20566402220E+02  0.12251360069E+02  0.27976907120E+02  0.54367081274E+02  0.39999993381E+02 0.  0.
        -12    1    3    3    0    0  0.20566402220E+02 -0.12251360069E+02 -0.27976907120E+02  0.36820918726E+02  0.00000000000E+00 0.  1.
         11    1    4    4    0    0 -0.21346855579E+02  0.18247956970E+02  0.86418745218E+01  0.29382957172E+02  0.51100000000E-03 0. -1.
        -11    1    4    4    0    0  0.33576924843E+00  0.20473402338E+01 -0.15561270654E+01  0.25934291442E+01  0.51100000000E-03 0.  1.
         12    1    4    4    0    0  0.44468411011E+00 -0.80439371351E+01  0.20891159664E+02  0.22390694958E+02  0.00000000000E+00 0. -1.
</event>
<event>
 8    1  0.2460897E-006  0.9118800E+02  0.7816164E-02  0.1184000E+00
        -11   -1    0    0    0    0  0.00000000000E+00  0.00000000000E+00  0.45593999997E+02  0.45594000000E+02  0.51100000000E-03 0.  1.
         11   -1    0    0    0    0 -0.00000000000E+00 -0.00000000000E+00 -0.45593999997E+02  0.45594000000E+02  0.51100000000E-03 0. -1.
         23    2    1    2    0    0  0.00000000000E+00 -0.19984014443E-14  0.00000000000E+00  0.91188000000E+02  0.91188000000E+02 0.  0.
    9900012    2    3    3    0    0  0.22456429046E+02 -0.18776816520E+01 -0.29119809447E+02  0.54367079368E+02  0.39999989036E+02 0.  0.
        -12    1    3    3    0    0 -0.22456429046E+02  0.18776816520E+01  0.29119809447E+02  0.36820920632E+02  0.00000000000E+00 0.  1.
         11    1    4    4    0    0  0.10736703709E+02  0.14135584300E+02 -0.17770551004E+02  0.25117404987E+02  0.51100000000E-03 0. -1.
        -11    1    4    4    0    0  0.51413041806E+01 -0.71167541190E+01 -0.15183954552E+02  0.17539488988E+02  0.51100000000E-03 0.  1.
         12    1    4    4    0    0  0.65784211566E+01 -0.88965118327E+01  0.38346961085E+01  0.11710185393E+02  0.00000000000E+00 0. -1.
</event>
<event>
 8    1  0.2460897E-006  0.9118800E+02  0.7816164E-02  0.1184000E+00
        -11   -1    0    0    0    0  0.00000000000E+00  0.00000000000E+00  0.45593999997E+02  0.45594000000E+02  0.51100000000E-03 0.  1.
         11   -1    0    0    0    0 -0.00000000000E+00 -0.00000000000E+00 -0.45593999997E+02  0.45594000000E+02  0.51100000000E-03 0. -1.
         23    2    1    2    0    0  0.00000000000E+00  0.88817841970E-15  0.00000000000E+00  0.91188000000E+02  0.91188000000E+02 0.  0.
    9900012    2    3    3    0    0 -0.54377718046E+01 -0.71270574905E+01  0.35712998792E+02  0.54367046815E+02  0.39999914825E+02 0.  0.
         12    1    3    3    0    0  0.54377718046E+01  0.71270574905E+01 -0.35712998792E+02  0.36820953185E+02  0.00000000000E+00 0. -1.
         11    1    4    4    0    0 -0.10629934201E+01  0.87369908709E+01 -0.45566943770E+01  0.99110255976E+01  0.51100000000E-03 0. -1.
        -11    1    4    4    0    0  0.20595575861E+01 -0.51202683616E+01  0.18878502166E+02  0.19668674837E+02  0.51100000000E-03 0.  1.
         12    1    4    4    0    0 -0.64343359705E+01 -0.10743780000E+02  0.21391191003E+02  0.24787346381E+02  0.00000000000E+00 0. -1.
</event>
<event>
 8    1  0.2460897E-006  0.9118800E+02  0.7816164E-02  0.1184000E+00
        -11   -1    0    0    0    0  0.00000000000E+00  0.00000000000E+00  0.45593999997E+02  0.45594000000E+02  0.51100000000E-03 0. -1.
         11   -1    0    0    0    0 -0.00000000000E+00 -0.00000000000E+00 -0.45593999997E+02  0.45594000000E+02  0.51100000000E-03 0.  1.
         23    2    1    2    0    0 -0.88817841970E-15  0.22204460493E-15  0.71054273576E-14  0.91188000000E+02  0.91188000000E+02 0.  0.
    9900012    2    3    3    0    0  0.40967432372E+01 -0.18394581526E+01 -0.36546035979E+02  0.54367086687E+02  0.40000005720E+02 0.  0.
         12    1    3    3    0    0 -0.40967432372E+01  0.18394581526E+01  0.36546035979E+02  0.36820913313E+02  0.00000000000E+00 0. -1.
         11    1    4    4    0    0  0.45440565282E+00 -0.43828849281E+01 -0.23304102152E+02  0.23717026419E+02  0.51100000000E-03 0.  1.
        -11    1    4    4    0    0  0.92826747374E+01  0.49873766045E+01 -0.19319076196E+02  0.22006105539E+02  0.51100000000E-03 0. -1.
         12    1    4    4    0    0 -0.56403371530E+01 -0.24439498290E+01  0.60771423693E+01  0.86439547281E+01  0.00000000000E+00 0. -1.
</event>
<event>
 8    1  0.2460897E-006  0.9118800E+02  0.7816164E-02  0.1184000E+00
        -11   -1    0    0    0    0  0.00000000000E+00  0.00000000000E+00  0.45593999997E+02  0.45594000000E+02  0.51100000000E-03 0.  1.
         11   -1    0    0    0    0 -0.00000000000E+00 -0.00000000000E+00 -0.45593999997E+02  0.45594000000E+02  0.51100000000E-03 0. -1.
         23    2    1    2    0    0  0.71054273576E-14 -0.11102230246E-15  0.88817841970E-15  0.91188000000E+02  0.91188000000E+02 0.  0.
    9900012    2    3    3    0    0  0.36677261049E+02 -0.76339637296E+00 -0.31583513424E+01  0.54367089701E+02  0.40000012591E+02 0.  0.
         12    1    3    3    0    0 -0.36677261049E+02  0.76339637296E+00  0.31583513424E+01  0.36820910299E+02  0.00000000000E+00 0. -1.
         11    1    4    4    0    0 -0.23389160506E-01  0.37332771768E+01 -0.31528605660E+01  0.48865566139E+01  0.51100000000E-03 0. -1.
        -11    1    4    4    0    0  0.30838079605E+02 -0.10053157976E+02  0.12360073479E+02  0.34710582762E+02  0.51100000000E-03 0.  1.
        -12    1    4    4    0    0  0.58625706036E+01  0.55564844260E+01 -0.12365564255E+02  0.14769950325E+02  0.00000000000E+00 0.  1.
</event>
<event>
 8    1  0.2460897E-006  0.9118800E+02  0.7816164E-02  0.1184000E+00
        -11   -1    0    0    0    0  0.00000000000E+00  0.00000000000E+00  0.45593999997E+02  0.45594000000E+02  0.51100000000E-03 0.  1.
         11   -1    0    0    0    0 -0.00000000000E+00 -0.00000000000E+00 -0.45593999997E+02  0.45594000000E+02  0.51100000000E-03 0. -1.
         23    2    1    2    0    0 -0.35527136788E-14  0.00000000000E+00 -0.35527136788E-14  0.91188000000E+02  0.91188000000E+02 0.  0.
    9900012    2    3    3    0    0  0.27803416920E+02 -0.65406188672E+01 -0.23237269765E+02  0.54367076686E+02  0.39999982921E+02 0.  0.
        -12    1    3    3    0    0 -0.27803416920E+02  0.65406188672E+01  0.23237269765E+02  0.36820923314E+02  0.00000000000E+00 0.  1.
         11    1    4    4    0    0  0.14125090157E+02 -0.71324208698E+01 -0.22008839678E+02  0.27106800321E+02  0.51100000000E-03 0. -1.
        -11    1    4    4    0    0 -0.38154561957E+01 -0.71221197878E+01  0.25520052388E+00  0.80837753446E+01  0.51100000000E-03 0.  1.
         12    1    4    4    0    0  0.17493782959E+02  0.77139217903E+01 -0.14836306102E+01  0.19176501021E+02  0.00000000000E+00 0. -1.
</event>
<event>
 8    1  0.2460897E-006  0.9118800E+02  0.7816164E-02  0.1184000E+00
        -11   -1    0    0    0    0  0.00000000000E+00  0.00000000000E+00  0.45593999997E+02  0.45594000000E+02  0.51100000000E-03 0.  1.
         11   -1    0    0    0    0 -0.00000000000E+00 -0.00000000000E+00 -0.45593999997E+02  0.45594000000E+02  0.51100000000E-03 0. -1.
         23    2    1    2    0    0  0.00000000000E+00  0.00000000000E+00  0.00000000000E+00  0.91188000000E+02  0.91188000000E+02 0.  0.
    9900012    2    3    3    0    0  0.34462274785E+01 -0.34599220194E+02  0.12116017520E+02  0.54367076568E+02  0.39999982652E+02 0.  0.
         12    1    3    3    0    0 -0.34462274785E+01  0.34599220194E+02 -0.12116017520E+02  0.36820923432E+02  0.00000000000E+00 0. -1.
         11    1    4    4    0    0  0.74186668813E+01 -0.76652612145E+01 -0.88645081226E+01  0.13869836059E+02  0.51100000000E-03 0. -1.
        -11    1    4    4    0    0  0.31214358685E+01 -0.15816395916E+02  0.48922894345E+00  0.16128889822E+02  0.51100000000E-03 0.  1.
         12    1    4    4    0    0 -0.70938752713E+01 -0.11117563063E+02  0.20491296699E+02  0.24368350688E+02  0.00000000000E+00 0. -1.
</event>
<event>
 8    1  0.2460897E-006  0.9118800E+02  0.7816164E-02  0.1184000E+00
        -11   -1    0    0    0    0  0.00000000000E+00  0.00000000000E+00  0.45593999997E+02  0.45594000000E+02  0.51100000000E-03 0. -1.
         11   -1    0    0    0    0 -0.00000000000E+00 -0.00000000000E+00 -0.45593999997E+02  0.45594000000E+02  0.51100000000E-03 0.  1.
         23    2    1    2    0    0  0.19428902931E-15  0.00000000000E+00  0.00000000000E+00  0.91188000000E+02  0.91188000000E+02 0.  0.
    9900012    2    3    3    0    0 -0.21161210871E+00 -0.25390618061E+02 -0.26665509821E+02  0.54367113547E+02  0.40000066952E+02 0.  0.
         12    1    3    3    0    0  0.21161210871E+00  0.25390618061E+02  0.26665509821E+02  0.36820886453E+02  0.00000000000E+00 0. -1.
         11    1    4    4    0    0 -0.10471576934E+01 -0.33012503454E+02 -0.11932317468E+02  0.35118401500E+02  0.51100000000E-03 0. -1.
        -11    1    4    4    0    0  0.43853773222E+01  0.69675493533E+01 -0.73757489002E+01  0.11053503985E+02  0.51100000000E-03 0.  1.
         12    1    4    4    0    0 -0.35498317375E+01  0.65433603919E+00 -0.73574434521E+01  0.81952080613E+01  0.00000000000E+00 0. -1.
</event>
<event>
 8    1  0.2460897E-006  0.9118800E+02  0.7816164E-02  0.1184000E+00
        -11   -1    0    0    0    0  0.00000000000E+00  0.00000000000E+00  0.45593999997E+02  0.45594000000E+02  0.51100000000E-03 0. -1.
         11   -1    0    0    0    0 -0.00000000000E+00 -0.00000000000E+00 -0.45593999997E+02  0.45594000000E+02  0.51100000000E-03 0.  1.
         23    2    1    2    0    0  0.35527136788E-14  0.88817841970E-15  0.00000000000E+00  0.91188000000E+02  0.91188000000E+02 0.  0.
    9900012    2    3    3    0    0  0.30620355900E+02 -0.71503317990E+01  0.19158452657E+02  0.54367085448E+02  0.40000002895E+02 0.  0.
        -12    1    3    3    0    0 -0.30620355900E+02  0.71503317990E+01 -0.19158452657E+02  0.36820914552E+02  0.00000000000E+00 0.  1.
         11    1    4    4    0    0  0.11887640219E+01 -0.26243229762E+01 -0.16887198863E+01  0.33394619474E+01  0.51100000000E-03 0. -1.
        -11    1    4    4    0    0 -0.66433088401E+01 -0.78114265502E+01  0.32624914463E+01  0.10760845124E+02  0.51100000000E-03 0.  1.
         12    1    4    4    0    0  0.36074900718E+02  0.32854177273E+01  0.17584681097E+02  0.40266778376E+02  0.00000000000E+00 0. -1.
</event>
<event>
 8    1  0.2460897E-006  0.9118800E+02  0.7816164E-02  0.1184000E+00
        -11   -1    0    0    0    0  0.00000000000E+00  0.00000000000E+00  0.45593999997E+02  0.45594000000E+02  0.51100000000E-03 0. -1.
         11   -1    0    0    0    0 -0.00000000000E+00 -0.00000000000E+00 -0.45593999997E+02  0.45594000000E+02  0.51100000000E-03 0.  1.
         23    2    1    2    0    0  0.35527136788E-14  0.00000000000E+00  0.00000000000E+00  0.91188000000E+02  0.91188000000E+02 0.  0.
    9900012    2    3    3    0    0 -0.25471368141E+02 -0.23410606884E+02  0.12606798451E+02  0.54367102715E+02  0.40000042260E+02 0.  0.
        -12    1    3    3    0    0  0.25471368141E+02  0.23410606884E+02 -0.12606798451E+02  0.36820897285E+02  0.00000000000E+00 0.  1.
         11    1    4    4    0    0 -0.24734649069E+02 -0.26391985661E+02  0.79161238181E+01  0.37027081823E+02  0.51100000000E-03 0. -1.
        -11    1    4    4    0    0 -0.65923753001E+01  0.24834431726E+01 -0.30035359045E+01  0.76582067274E+01  0.51100000000E-03 0.  1.
         12    1    4    4    0    0  0.58556562282E+01  0.49793560461E+00  0.76942105377E+01  0.96818141651E+01  0.00000000000E+00 0. -1.
</event>
<event>
 8    1  0.2460897E-006  0.9118800E+02  0.7816164E-02  0.1184000E+00
        -11   -1    0    0    0    0  0.00000000000E+00  0.00000000000E+00  0.45593999997E+02  0.45594000000E+02  0.51100000000E-03 0.  1.
         11   -1    0    0    0    0 -0.00000000000E+00 -0.00000000000E+00 -0.45593999997E+02  0.45594000000E+02  0.51100000000E-03 0. -1.
         23    2    1    2    0    0  0.00000000000E+00 -0.17763568394E-14  0.13322676296E-14  0.91188000000E+02  0.91188000000E+02 0.  0.
    9900012    2    3    3    0    0  0.33236444715E+02 -0.15777496248E+02  0.14795676457E+01  0.54367085215E+02  0.40000002365E+02 0.  0.
         12    1    3    3    0    0 -0.33236444715E+02  0.15777496248E+02 -0.14795676457E+01  0.36820914785E+02  0.00000000000E+00 0. -1.
         11    1    4    4    0    0  0.18158929999E+02  0.62099093745E+01 -0.83427908046E+01  0.20926343967E+02  0.51100000000E-03 0. -1.
        -11    1    4    4    0    0 -0.33813862224E+01 -0.32972837893E+01  0.47273917004E+01  0.66823712650E+01  0.51100000000E-03 0.  1.
        -12    1    4    4    0    0  0.18458900939E+02 -0.18690121833E+02  0.50949667499E+01  0.26758369983E+02  0.00000000000E+00 0.  1.
</event>
<event>
 8    1  0.2460897E-006  0.9118800E+02  0.7816164E-02  0.1184000E+00
        -11   -1    0    0    0    0  0.00000000000E+00  0.00000000000E+00  0.45593999997E+02  0.45594000000E+02  0.51100000000E-03 0.  1.
         11   -1    0    0    0    0 -0.00000000000E+00 -0.00000000000E+00 -0.45593999997E+02  0.45594000000E+02  0.51100000000E-03 0. -1.
         23    2    1    2    0    0  0.00000000000E+00  0.00000000000E+00  0.35527136788E-14  0.91188000000E+02  0.91188000000E+02 0.  0.
    9900012    2    3    3    0    0 -0.26834209726E+02  0.52026042293E+01  0.24670596159E+02  0.54367079082E+02  0.39999988384E+02 0.  0.
         12    1    3    3    0    0  0.26834209726E+02 -0.52026042293E+01 -0.24670596159E+02  0.36820920918E+02  0.00000000000E+00 0. -1.
         11    1    4    4    0    0 -0.15412307235E+01 -0.60308626678E+01 -0.37051928063E+01  0.72439734023E+01  0.51100000000E-03 0. -1.
        -11    1    4    4    0    0 -0.19287129391E+02 -0.38563970801E+00  0.28045309333E+02  0.34039410305E+02  0.51100000000E-03 0.  1.
        -12    1    4    4    0    0 -0.60058496118E+01  0.11619106605E+02  0.33047963292E+00  0.13083695374E+02  0.00000000000E+00 0.  1.
</event>
<event>
 8    1  0.2460897E-006  0.9118800E+02  0.7816164E-02  0.1184000E+00
        -11   -1    0    0    0    0  0.00000000000E+00  0.00000000000E+00  0.45593999997E+02  0.45594000000E+02  0.51100000000E-03 0. -1.
         11   -1    0    0    0    0 -0.00000000000E+00 -0.00000000000E+00 -0.45593999997E+02  0.45594000000E+02  0.51100000000E-03 0.  1.
         23    2    1    2    0    0  0.00000000000E+00 -0.17763568394E-14 -0.35527136788E-14  0.91188000000E+02  0.91188000000E+02 0.  0.
    9900012    2    3    3    0    0  0.12320017768E+02 -0.14406055662E+02 -0.31566785679E+02  0.54367092411E+02  0.40000018770E+02 0.  0.
         12    1    3    3    0    0 -0.12320017768E+02  0.14406055662E+02  0.31566785679E+02  0.36820907589E+02  0.00000000000E+00 0. -1.
         11    1    4    4    0    0 -0.49985771705E+01 -0.99826697297E+01 -0.11783773204E+02  0.16232583893E+02  0.51100000000E-03 0. -1.
        -11    1    4    4    0    0  0.16296039063E+02  0.68865380096E+01 -0.20096482107E+02  0.26774127217E+02  0.51100000000E-03 0.  1.
         12    1    4    4    0    0  0.10225558758E+01 -0.11309923942E+02  0.31346963232E+00  0.11360381301E+02  0.00000000000E+00 0. -1.
</event>
<event>
 8    1  0.2460897E-006  0.9118800E+02  0.7816164E-02  0.1184000E+00
        -11   -1    0    0    0    0  0.00000000000E+00  0.00000000000E+00  0.45593999997E+02  0.45594000000E+02  0.51100000000E-03 0. -1.
         11   -1    0    0    0    0 -0.00000000000E+00 -0.00000000000E+00 -0.45593999997E+02  0.45594000000E+02  0.51100000000E-03 0.  1.
         23    2    1    2    0    0  0.35527136788E-14  0.00000000000E+00 -0.35527136788E-14  0.91188000000E+02  0.91188000000E+02 0.  0.
    9900012    2    3    3    0    0 -0.25763244249E+02  0.78705483619E+01  0.25101589673E+02  0.54367080812E+02  0.39999992327E+02 0.  0.
        -12    1    3    3    0    0  0.25763244249E+02 -0.78705483619E+01 -0.25101589673E+02  0.36820919188E+02  0.00000000000E+00 0.  1.
         11    1    4    4    0    0 -0.35668767683E+01 -0.51948602618E+01  0.93389612672E+01  0.11266116493E+02  0.51100000000E-03 0. -1.
        -11    1    4    4    0    0 -0.10590325379E+02  0.13411469879E+02  0.23567067948E+02  0.29110637367E+02  0.51100000000E-03 0.  1.
        -12    1    4    4    0    0 -0.11606042102E+02 -0.34606125524E+00 -0.78044395430E+01  0.13990326953E+02  0.00000000000E+00 0.  1.
</event>
<event>
 8    1  0.2460897E-006  0.9118800E+02  0.7816164E-02  0.1184000E+00
        -11   -1    0    0    0    0  0.00000000000E+00  0.00000000000E+00  0.45593999997E+02  0.45594000000E+02  0.51100000000E-03 0.  1.
         11   -1    0    0    0    0 -0.00000000000E+00 -0.00000000000E+00 -0.45593999997E+02  0.45594000000E+02  0.51100000000E-03 0. -1.
         23    2    1    2    0    0  0.00000000000E+00  0.00000000000E+00  0.00000000000E+00  0.91188000000E+02  0.91188000000E+02 0.  0.
    9900012    2    3    3    0    0 -0.33626907126E+02  0.14531944310E+02 -0.37193587014E+01  0.54367083154E+02  0.39999997666E+02 0.  0.
         12    1    3    3    0    0  0.33626907126E+02 -0.14531944310E+02  0.37193587014E+01  0.36820916846E+02  0.00000000000E+00 0. -1.
         11    1    4    4    0    0 -0.11228090821E+01 -0.80828131487E+01 -0.70706242922E+00  0.81910015366E+01  0.51100000000E-03 0. -1.
        -11    1    4    4    0    0 -0.32357372211E+01  0.14515221415E+02  0.31186620025E+01  0.15194989339E+02  0.51100000000E-03 0.  1.
         12    1    4    4    0    0 -0.29268360822E+02  0.80995360439E+01 -0.61309582747E+01  0.30981092278E+02  0.00000000000E+00 0. -1.
</event>
<event>
 8    1  0.2460897E-006  0.9118800E+02  0.7816164E-02  0.1184000E+00
        -11   -1    0    0    0    0  0.00000000000E+00  0.00000000000E+00  0.45593999997E+02  0.45594000000E+02  0.51100000000E-03 0.  1.
         11   -1    0    0    0    0 -0.00000000000E+00 -0.00000000000E+00 -0.45593999997E+02  0.45594000000E+02  0.51100000000E-03 0. -1.
         23    2    1    2    0    0 -0.35527136788E-14  0.00000000000E+00  0.00000000000E+00  0.91188000000E+02  0.91188000000E+02 0.  0.
    9900012    2    3    3    0    0 -0.26915503874E+02  0.57882064401E+01 -0.24450591352E+02  0.54367094253E+02  0.40000022968E+02 0.  0.
        -12    1    3    3    0    0  0.26915503874E+02 -0.57882064401E+01  0.24450591352E+02  0.36820905747E+02  0.00000000000E+00 0.  1.
         11    1    4    4    0    0 -0.14254431729E+02 -0.49589144589E+01 -0.23812279694E+02  0.28192274137E+02  0.51100000000E-03 0. -1.
        -11    1    4    4    0    0 -0.15691517042E+02  0.97543895639E+01  0.54830221136E+01  0.19272658213E+02  0.51100000000E-03 0.  1.
        -12    1    4    4    0    0  0.30304448974E+01  0.99273133508E+00 -0.61213337721E+01  0.69021619025E+01  0.00000000000E+00 0.  1.
</event>
<event>
 8    1  0.2460897E-006  0.9118800E+02  0.7816164E-02  0.1184000E+00
        -11   -1    0    0    0    0  0.00000000000E+00  0.00000000000E+00  0.45593999997E+02  0.45594000000E+02  0.51100000000E-03 0.  1.
         11   -1    0    0    0    0 -0.00000000000E+00 -0.00000000000E+00 -0.45593999997E+02  0.45594000000E+02  0.51100000000E-03 0. -1.
         23    2    1    2    0    0  0.00000000000E+00  0.00000000000E+00  0.88817841970E-15  0.91188000000E+02  0.91188000000E+02 0.  0.
    9900012    2    3    3    0    0  0.88253174091E+01 -0.35391330022E+02 -0.50345408160E+01  0.54367094670E+02  0.40000023920E+02 0.  0.
        -12    1    3    3    0    0 -0.88253174091E+01  0.35391330022E+02  0.50345408160E+01  0.36820905330E+02  0.00000000000E+00 0.  1.
         11    1    4    4    0    0  0.93257527067E+01  0.49660196162E+01 -0.53924452506E+01  0.11862102698E+02  0.51100000000E-03 0. -1.
        -11    1    4    4    0    0 -0.21765573145E+01 -0.93442464072E+01  0.54465033438E+01  0.11032531060E+02  0.51100000000E-03 0.  1.
         12    1    4    4    0    0  0.16761220169E+01 -0.31013103231E+02 -0.50885989091E+01  0.31472460912E+02  0.00000000000E+00 0. -1.
</event>
<event>
 8    1  0.2460897E-006  0.9118800E+02  0.7816164E-02  0.1184000E+00
        -11   -1    0    0    0    0  0.00000000000E+00  0.00000000000E+00  0.45593999997E+02  0.45594000000E+02  0.51100000000E-03 0.  1.
         11   -1    0    0    0    0 -0.00000000000E+00 -0.00000000000E+00 -0.45593999997E+02  0.45594000000E+02  0.51100000000E-03 0. -1.
         23    2    1    2    0    0  0.00000000000E+00  0.00000000000E+00 -0.17763568394E-14  0.91188000000E+02  0.91188000000E+02 0.  0.
    9900012    2    3    3    0    0  0.31285576315E+02 -0.12850018766E+02  0.14555762220E+02  0.54367075494E+02  0.39999980203E+02 0.  0.
        -12    1    3    3    0    0 -0.31285576315E+02  0.12850018766E+02 -0.14555762220E+02  0.36820924506E+02  0.00000000000E+00 0.  1.
         11    1    4    4    0    0  0.12426582333E+02  0.88726573389E+01  0.13984156824E+02  0.20705087276E+02  0.51100000000E-03 0.  1.
        -11    1    4    4    0    0  0.21563847790E+02 -0.22065361874E+02  0.11535220457E+01  0.30874104676E+02  0.51100000000E-03 0. -1.
        -12    1    4    4    0    0 -0.27048538085E+01  0.34268576858E+00 -0.58191664987E+00  0.27878835429E+01  0.00000000000E+00 0.  1.
</event>
<event>
 8    1  0.2460897E-006  0.9118800E+02  0.7816164E-02  0.1184000E+00
        -11   -1    0    0    0    0  0.00000000000E+00  0.00000000000E+00  0.45593999997E+02  0.45594000000E+02  0.51100000000E-03 0. -1.
         11   -1    0    0    0    0 -0.00000000000E+00 -0.00000000000E+00 -0.45593999997E+02  0.45594000000E+02  0.51100000000E-03 0.  1.
         23    2    1    2    0    0 -0.17763568394E-14  0.00000000000E+00  0.71054273576E-14  0.91188000000E+02  0.91188000000E+02 0.  0.
    9900012    2    3    3    0    0 -0.10223369841E+02 -0.11608367579E+02  0.33414188896E+02  0.54367088708E+02  0.40000010328E+02 0.  0.
        -12    1    3    3    0    0  0.10223369841E+02  0.11608367579E+02 -0.33414188896E+02  0.36820911292E+02  0.00000000000E+00 0.  1.
         11    1    4    4    0    0 -0.89614351678E+01 -0.94269467682E+01  0.19624462318E+02  0.23543452745E+02  0.51100000000E-03 0. -1.
        -11    1    4    4    0    0 -0.85708577493E+01  0.21316862853E+01  0.18938913568E+02  0.20897036545E+02  0.51100000000E-03 0.  1.
        -12    1    4    4    0    0  0.73089230760E+01 -0.43131070959E+01 -0.51491869895E+01  0.99265994180E+01  0.00000000000E+00 0.  1.
</event>
<event>
 8    1  0.2460897E-006  0.9118800E+02  0.7816164E-02  0.1184000E+00
        -11   -1    0    0    0    0  0.00000000000E+00  0.00000000000E+00  0.45593999997E+02  0.45594000000E+02  0.51100000000E-03 0.  1.
         11   -1    0    0    0    0 -0.00000000000E+00 -0.00000000000E+00 -0.45593999997E+02  0.45594000000E+02  0.51100000000E-03 0. -1.
         23    2    1    2    0    0  0.00000000000E+00 -0.35527136788E-14  0.35527136788E-14  0.91188000000E+02  0.91188000000E+02 0.  0.
    9900012    2    3    3    0    0  0.22881756781E+02  0.15580581549E+02 -0.24278593318E+02  0.54367090067E+02  0.40000013425E+02 0.  0.
        -12    1    3    3    0    0 -0.22881756781E+02 -0.15580581549E+02  0.24278593318E+02  0.36820909933E+02  0.00000000000E+00 0.  1.
         11    1    4    4    0    0  0.17778358773E+02 -0.87461406288E+01 -0.16384554691E+02  0.25710282947E+02  0.51100000000E-03 0. -1.
        -11    1    4    4    0    0  0.33097481069E+01  0.15533868604E+02 -0.10820009260E+02  0.19217911099E+02  0.51100000000E-03 0.  1.
         12    1    4    4    0    0  0.17936499019E+01  0.87928535739E+01  0.29259706337E+01  0.94388960208E+01  0.00000000000E+00 0. -1.
</event>
<event>
 8    1  0.2460897E-006  0.9118800E+02  0.7816164E-02  0.1184000E+00
        -11   -1    0    0    0    0  0.00000000000E+00  0.00000000000E+00  0.45593999997E+02  0.45594000000E+02  0.51100000000E-03 0.  1.
         11   -1    0    0    0    0 -0.00000000000E+00 -0.00000000000E+00 -0.45593999997E+02  0.45594000000E+02  0.51100000000E-03 0. -1.
         23    2    1    2    0    0  0.00000000000E+00  0.17763568394E-14 -0.17763568394E-14  0.91188000000E+02  0.91188000000E+02 0.  0.
    9900012    2    3    3    0    0  0.32325000212E+02  0.15037120801E+02 -0.92064969276E+01  0.54367078958E+02  0.39999988101E+02 0.  0.
        -12    1    3    3    0    0 -0.32325000212E+02 -0.15037120801E+02  0.92064969276E+01  0.36820921042E+02  0.00000000000E+00 0.  1.
         11    1    4    4    0    0  0.85388908259E+01 -0.67278330562E+01 -0.16408132043E+02  0.19682560595E+02  0.51100000000E-03 0. -1.
        -11    1    4    4    0    0  0.72452675366E+00 -0.56987615832E-01  0.24818536485E+01  0.25860750954E+01  0.51100000000E-03 0.  1.
         12    1    4    4    0    0  0.23061582632E+02  0.21821941473E+02  0.47197814667E+01  0.32098443268E+02  0.00000000000E+00 0. -1.
</event>
<event>
 8    1  0.2460897E-006  0.9118800E+02  0.7816164E-02  0.1184000E+00
        -11   -1    0    0    0    0  0.00000000000E+00  0.00000000000E+00  0.45593999997E+02  0.45594000000E+02  0.51100000000E-03 0.  1.
         11   -1    0    0    0    0 -0.00000000000E+00 -0.00000000000E+00 -0.45593999997E+02  0.45594000000E+02  0.51100000000E-03 0. -1.
         23    2    1    2    0    0  0.00000000000E+00  0.00000000000E+00 -0.35527136788E-14  0.91188000000E+02  0.91188000000E+02 0.  0.
    9900012    2    3    3    0    0  0.19947963477E+02 -0.14566470321E+02  0.27307076352E+02  0.54367085788E+02  0.40000003672E+02 0.  0.
         12    1    3    3    0    0 -0.19947963477E+02  0.14566470321E+02 -0.27307076352E+02  0.36820914212E+02  0.00000000000E+00 0. -1.
         11    1    4    4    0    0 -0.43995407121E+00  0.75637843968E+01  0.63417015417E+01  0.98803629838E+01  0.51100000000E-03 0. -1.
        -11    1    4    4    0    0  0.30315657304E+01 -0.10236934042E+02  0.20874398948E+02  0.23446230850E+02  0.51100000000E-03 0.  1.
         12    1    4    4    0    0  0.17356351818E+02 -0.11893320676E+02  0.90975862418E-01  0.21040491955E+02  0.00000000000E+00 0. -1.
</event>
<event>
 8    1  0.2460897E-006  0.9118800E+02  0.7816164E-02  0.1184000E+00
        -11   -1    0    0    0    0  0.00000000000E+00  0.00000000000E+00  0.45593999997E+02  0.45594000000E+02  0.51100000000E-03 0.  1.
         11   -1    0    0    0    0 -0.00000000000E+00 -0.00000000000E+00 -0.45593999997E+02  0.45594000000E+02  0.51100000000E-03 0. -1.
         23    2    1    2    0    0 -0.26645352591E-14  0.71054273576E-14 -0.17763568394E-14  0.91188000000E+02  0.91188000000E+02 0.  0.
    9900012    2    3    3    0    0 -0.76266285677E+01 -0.32556065203E+02  0.15418097656E+02  0.54367074155E+02  0.39999977150E+02 0.  0.
         12    1    3    3    0    0  0.76266285677E+01  0.32556065203E+02 -0.15418097656E+02  0.36820925845E+02  0.00000000000E+00 0. -1.
         11    1    4    4    0    0 -0.19924336179E+02 -0.46875513623E+01  0.77912322432E+01  0.21901041301E+02  0.51100000000E-03 0. -1.
        -11    1    4    4    0    0  0.44348138521E+01 -0.87518313291E+01  0.64912501928E+01  0.11764287265E+02  0.51100000000E-03 0.  1.
         12    1    4    4    0    0  0.78628937590E+01 -0.19116682511E+02  0.11356152197E+01  0.20701745589E+02  0.00000000000E+00 0. -1.
</event>
<event>
 8    1  0.2460897E-006  0.9118800E+02  0.7816164E-02  0.1184000E+00
        -11   -1    0    0    0    0  0.00000000000E+00  0.00000000000E+00  0.45593999997E+02  0.45594000000E+02  0.51100000000E-03 0.  1.
         11   -1    0    0    0    0 -0.00000000000E+00 -0.00000000000E+00 -0.45593999997E+02  0.45594000000E+02  0.51100000000E-03 0. -1.
         23    2    1    2    0    0  0.00000000000E+00 -0.35527136788E-14  0.00000000000E+00  0.91188000000E+02  0.91188000000E+02 0.  0.
    9900012    2    3    3    0    0 -0.20166168247E+02  0.22982327696E+02 -0.20516288746E+02  0.54367084313E+02  0.40000000309E+02 0.  0.
        -12    1    3    3    0    0  0.20166168247E+02 -0.22982327696E+02  0.20516288746E+02  0.36820915687E+02  0.00000000000E+00 0.  1.
         11    1    4    4    0    0 -0.81057357702E+01  0.10636220554E+02 -0.17099021991E+02  0.21707341923E+02  0.51100000000E-03 0. -1.
        -11    1    4    4    0    0 -0.15982131032E+02  0.17687119952E+02 -0.73608468986E+01  0.24948843497E+02  0.51100000000E-03 0.  1.
        -12    1    4    4    0    0  0.39216985554E+01 -0.53410128099E+01  0.39435801437E+01  0.77108988934E+01  0.00000000000E+00 0.  1.
</event>
<event>
 8    1  0.2460897E-006  0.9118800E+02  0.7816164E-02  0.1184000E+00
        -11   -1    0    0    0    0  0.00000000000E+00  0.00000000000E+00  0.45593999997E+02  0.45594000000E+02  0.51100000000E-03 0.  1.
         11   -1    0    0    0    0 -0.00000000000E+00 -0.00000000000E+00 -0.45593999997E+02  0.45594000000E+02  0.51100000000E-03 0. -1.
         23    2    1    2    0    0  0.00000000000E+00 -0.11102230246E-14  0.00000000000E+00  0.91188000000E+02  0.91188000000E+02 0.  0.
    9900012    2    3    3    0    0 -0.12096544103E+02  0.38195596613E+00  0.34774992284E+02  0.54367185805E+02  0.40000231679E+02 0.  0.
         12    1    3    3    0    0  0.12096544103E+02 -0.38195596613E+00 -0.34774992284E+02  0.36820814195E+02  0.00000000000E+00 0. -1.
         11    1    4    4    0    0  0.87209124027E+01  0.33841341216E+01  0.91949421095E+01  0.13116921801E+02  0.51100000000E-03 0. -1.
        -11    1    4    4    0    0 -0.12098480305E+02  0.70102321515E+01  0.24138047928E+02  0.27895554100E+02  0.51100000000E-03 0.  1.
        -12    1    4    4    0    0 -0.87189762006E+01 -0.10012410307E+02  0.14420022472E+01  0.13354709904E+02  0.00000000000E+00 0.  1.
</event>
<event>
 8    1  0.2460897E-006  0.9118800E+02  0.7816164E-02  0.1184000E+00
        -11   -1    0    0    0    0  0.00000000000E+00  0.00000000000E+00  0.45593999997E+02  0.45594000000E+02  0.51100000000E-03 0.  1.
         11   -1    0    0    0    0 -0.00000000000E+00 -0.00000000000E+00 -0.45593999997E+02  0.45594000000E+02  0.51100000000E-03 0. -1.
         23    2    1    2    0    0 -0.35527136788E-14 -0.35527136788E-14  0.88817841970E-15  0.91188000000E+02  0.91188000000E+02 0.  0.
    9900012    2    3    3    0    0  0.27302411999E+02  0.24114510460E+02 -0.53709908147E+01  0.54367097539E+02  0.40000030461E+02 0.  0.
         12    1    3    3    0    0 -0.27302411999E+02 -0.24114510460E+02  0.53709908147E+01  0.36820902461E+02  0.00000000000E+00 0. -1.
         11    1    4    4    0    0  0.39675163451E+01 -0.38731418273E+01 -0.13407324682E+01  0.57043822957E+01  0.51100000000E-03 0. -1.
        -11    1    4    4    0    0  0.25840905741E+02  0.30416112832E+02  0.37985206594E+01  0.40091409165E+02  0.51100000000E-03 0.  1.
         12    1    4    4    0    0 -0.25060100879E+01 -0.24284605445E+01 -0.78287790059E+01  0.85713060790E+01  0.00000000000E+00 0. -1.
</event>
<event>
 8    1  0.2460897E-006  0.9118800E+02  0.7816164E-02  0.1184000E+00
        -11   -1    0    0    0    0  0.00000000000E+00  0.00000000000E+00  0.45593999997E+02  0.45594000000E+02  0.51100000000E-03 0.  1.
         11   -1    0    0    0    0 -0.00000000000E+00 -0.00000000000E+00 -0.45593999997E+02  0.45594000000E+02  0.51100000000E-03 0. -1.
         23    2    1    2    0    0 -0.35527136788E-14  0.00000000000E+00 -0.22204460493E-14  0.91188000000E+02  0.91188000000E+02 0.  0.
    9900012    2    3    3    0    0 -0.29922842299E+02 -0.21314916855E+02  0.24652495880E+01  0.54367087093E+02  0.40000006646E+02 0.  0.
        -12    1    3    3    0    0  0.29922842299E+02  0.21314916855E+02 -0.24652495880E+01  0.36820912907E+02  0.00000000000E+00 0.  1.
         11    1    4    4    0    0 -0.39213604055E+00 -0.63727032606E+01 -0.54926618410E+01  0.84222593099E+01  0.51100000000E-03 0. -1.
        -11    1    4    4    0    0 -0.10337495324E+02 -0.13372910669E+02 -0.99785680588E+01  0.19628305330E+02  0.51100000000E-03 0.  1.
        -12    1    4    4    0    0 -0.19193210934E+02 -0.15693029251E+01  0.17936479488E+02  0.26316522453E+02  0.00000000000E+00 0.  1.
</event>
<event>
 8    1  0.2460897E-006  0.9118800E+02  0.7816164E-02  0.1184000E+00
        -11   -1    0    0    0    0  0.00000000000E+00  0.00000000000E+00  0.45593999997E+02  0.45594000000E+02  0.51100000000E-03 0.  1.
         11   -1    0    0    0    0 -0.00000000000E+00 -0.00000000000E+00 -0.45593999997E+02  0.45594000000E+02  0.51100000000E-03 0. -1.
         23    2    1    2    0    0  0.14210854715E-13  0.00000000000E+00 -0.13322676296E-14  0.91188000000E+02  0.91188000000E+02 0.  0.
    9900012    2    3    3    0    0  0.36459281717E+02  0.34369442173E+01 -0.38324425247E+01  0.54367089846E+02  0.40000012922E+02 0.  0.
        -12    1    3    3    0    0 -0.36459281717E+02 -0.34369442173E+01  0.38324425247E+01  0.36820910154E+02  0.00000000000E+00 0.  1.
         11    1    4    4    0    0 -0.99768245109E+00  0.23464884269E+01 -0.30558200850E+01  0.39798762373E+01  0.51100000000E-03 0. -1.
        -11    1    4    4    0    0  0.10806985932E+02 -0.47690164284E+01 -0.15416263631E+02  0.19421525358E+02  0.51100000000E-03 0.  1.
         12    1    4    4    0    0  0.26649978236E+02  0.58594722189E+01  0.14639641191E+02  0.30965688251E+02  0.00000000000E+00 0. -1.
</event>
<event>
 8    1  0.2460897E-006  0.9118800E+02  0.7816164E-02  0.1184000E+00
        -11   -1    0    0    0    0  0.00000000000E+00  0.00000000000E+00  0.45593999997E+02  0.45594000000E+02  0.51100000000E-03 0. -1.
         11   -1    0    0    0    0 -0.00000000000E+00 -0.00000000000E+00 -0.45593999997E+02  0.45594000000E+02  0.51100000000E-03 0.  1.
         23    2    1    2    0    0  0.00000000000E+00  0.35527136788E-14  0.00000000000E+00  0.91188000000E+02  0.91188000000E+02 0.  0.
    9900012    2    3    3    0    0  0.12384925560E+02 -0.29209945142E+02 -0.18686135894E+02  0.54367096277E+02  0.40000027582E+02 0.  0.
         12    1    3    3    0    0 -0.12384925560E+02  0.29209945142E+02  0.18686135894E+02  0.36820903723E+02  0.00000000000E+00 0. -1.
         11    1    4    4    0    0  0.92310427693E+01 -0.32253339120E+02 -0.15512177987E+02  0.36961029493E+02  0.51100000000E-03 0. -1.
        -11    1    4    4    0    0 -0.47159801691E+01 -0.69002714437E+00 -0.65188475987E+01  0.80753935317E+01  0.51100000000E-03 0.  1.
         12    1    4    4    0    0  0.78698629601E+01  0.37334211225E+01  0.33448896919E+01  0.93306732522E+01  0.00000000000E+00 0. -1.
</event>
<event>
 8    1  0.2460897E-006  0.9118800E+02  0.7816164E-02  0.1184000E+00
        -11   -1    0    0    0    0  0.00000000000E+00  0.00000000000E+00  0.45593999997E+02  0.45594000000E+02  0.51100000000E-03 0. -1.
         11   -1    0    0    0    0 -0.00000000000E+00 -0.00000000000E+00 -0.45593999997E+02  0.45594000000E+02  0.51100000000E-03 0.  1.
         23    2    1    2    0    0  0.14210854715E-13  0.00000000000E+00  0.17763568394E-14  0.91188000000E+02  0.91188000000E+02 0.  0.
    9900012    2    3    3    0    0 -0.32202335043E+02 -0.15522324503E+02  0.88231145490E+01  0.54367078087E+02  0.39999986114E+02 0.  0.
         12    1    3    3    0    0  0.32202335043E+02  0.15522324503E+02 -0.88231145490E+01  0.36820921913E+02  0.00000000000E+00 0. -1.
         11    1    4    4    0    0  0.37094768630E+01 -0.60236115251E+00  0.13279165124E+02  0.13800698685E+02  0.51100000000E-03 0. -1.
        -11    1    4    4    0    0 -0.35927429569E+02 -0.13171164608E+02 -0.31722958325E+01  0.38396916981E+02  0.51100000000E-03 0.  1.
         12    1    4    4    0    0  0.15617662526E-01 -0.17487987424E+01 -0.12837547424E+01  0.21694624199E+01  0.00000000000E+00 0. -1.
</event>
<event>
 8    1  0.2460897E-006  0.9118800E+02  0.7816164E-02  0.1184000E+00
        -11   -1    0    0    0    0  0.00000000000E+00  0.00000000000E+00  0.45593999997E+02  0.45594000000E+02  0.51100000000E-03 0. -1.
         11   -1    0    0    0    0 -0.00000000000E+00 -0.00000000000E+00 -0.45593999997E+02  0.45594000000E+02  0.51100000000E-03 0.  1.
         23    2    1    2    0    0  0.00000000000E+00 -0.35527136788E-14  0.00000000000E+00  0.91188000000E+02  0.91188000000E+02 0.  0.
    9900012    2    3    3    0    0 -0.28359941971E+02 -0.19209752284E+02  0.13508464559E+02  0.54367088738E+02  0.40000010397E+02 0.  0.
        -12    1    3    3    0    0  0.28359941971E+02  0.19209752284E+02 -0.13508464559E+02  0.36820911262E+02  0.00000000000E+00 0.  1.
         11    1    4    4    0    0 -0.19194682187E+02 -0.10649314635E+02  0.19837333603E+01  0.22040393027E+02  0.51100000000E-03 0. -1.
        -11    1    4    4    0    0 -0.78875065007E+01 -0.18535960358E+02  0.78234114741E+01  0.21610190942E+02  0.51100000000E-03 0.  1.
        -12    1    4    4    0    0 -0.12777532829E+01  0.99755227091E+01  0.37013197249E+01  0.10716504770E+02  0.00000000000E+00 0.  1.
</event>
<event>
 8    1  0.2460897E-006  0.9118800E+02  0.7816164E-02  0.1184000E+00
        -11   -1    0    0    0    0  0.00000000000E+00  0.00000000000E+00  0.45593999997E+02  0.45594000000E+02  0.51100000000E-03 0.  1.
         11   -1    0    0    0    0 -0.00000000000E+00 -0.00000000000E+00 -0.45593999997E+02  0.45594000000E+02  0.51100000000E-03 0. -1.
         23    2    1    2    0    0  0.35527136788E-14  0.00000000000E+00 -0.44408920985E-15  0.91188000000E+02  0.91188000000E+02 0.  0.
    9900012    2    3    3    0    0 -0.25101438773E+02 -0.26691821272E+02  0.36381057740E+01  0.54367199290E+02  0.40000262421E+02 0.  0.
         12    1    3    3    0    0  0.25101438773E+02  0.26691821272E+02 -0.36381057740E+01  0.36820800710E+02  0.00000000000E+00 0. -1.
         11    1    4    4    0    0 -0.32310455460E+02 -0.85535086840E+01 -0.83442051684E-01  0.33423569613E+02  0.51100000000E-03 0. -1.
        -11    1    4    4    0    0  0.24025965636E+01 -0.13873674835E+02  0.35262830965E+01  0.14515026573E+02  0.51100000000E-03 0.  1.
         12    1    4    4    0    0  0.48064201232E+01 -0.42646377533E+01  0.19526472919E+00  0.64286031051E+01  0.00000000000E+00 0. -1.
</event>
<event>
 8    1  0.2460897E-006  0.9118800E+02  0.7816164E-02  0.1184000E+00
        -11   -1    0    0    0    0  0.00000000000E+00  0.00000000000E+00  0.45593999997E+02  0.45594000000E+02  0.51100000000E-03 0.  1.
         11   -1    0    0    0    0 -0.00000000000E+00 -0.00000000000E+00 -0.45593999997E+02  0.45594000000E+02  0.51100000000E-03 0. -1.
         23    2    1    2    0    0 -0.35527136788E-14  0.71054273576E-14  0.00000000000E+00  0.91188000000E+02  0.91188000000E+02 0.  0.
    9900012    2    3    3    0    0  0.18057104571E+02 -0.24123756843E+02  0.21160435660E+02  0.54367099590E+02  0.40000035134E+02 0.  0.
        -12    1    3    3    0    0 -0.18057104571E+02  0.24123756843E+02 -0.21160435660E+02  0.36820900410E+02  0.00000000000E+00 0.  1.
         11    1    4    4    0    0 -0.16365051468E+01  0.50303128701E+01 -0.97450119135E+00  0.53788334702E+01  0.51100000000E-03 0. -1.
        -11    1    4    4    0    0  0.38484254569E+01 -0.80518422570E+01  0.20721503526E+02  0.22561543628E+02  0.51100000000E-03 0.  1.
         12    1    4    4    0    0  0.15845184261E+02 -0.21102227457E+02  0.14134333251E+01  0.26426722492E+02  0.00000000000E+00 0. -1.
</event>
<event>
 8    1  0.2460897E-006  0.9118800E+02  0.7816164E-02  0.1184000E+00
        -11   -1    0    0    0    0  0.00000000000E+00  0.00000000000E+00  0.45593999997E+02  0.45594000000E+02  0.51100000000E-03 0.  1.
         11   -1    0    0    0    0 -0.00000000000E+00 -0.00000000000E+00 -0.45593999997E+02  0.45594000000E+02  0.51100000000E-03 0. -1.
         23    2    1    2    0    0  0.35527136788E-14  0.00000000000E+00 -0.14571677198E-14  0.91188000000E+02  0.91188000000E+02 0.  0.
    9900012    2    3    3    0    0 -0.30062400139E+02  0.21260850980E+02 -0.93152324361E-01  0.54367077091E+02  0.39999983845E+02 0.  0.
        -12    1    3    3    0    0  0.30062400139E+02 -0.21260850980E+02  0.93152324361E-01  0.36820922909E+02  0.00000000000E+00 0.  1.
         11    1    4    4    0    0 -0.15210145397E+01  0.56599081210E+01  0.68355068093E+01  0.90040101494E+01  0.51100000000E-03 0. -1.
        -11    1    4    4    0    0 -0.61604406507E+01  0.18758977653E+02 -0.10685044753E+02  0.22450399846E+02  0.51100000000E-03 0.  1.
        -12    1    4    4    0    0 -0.22380944948E+02 -0.31580347939E+01  0.37563856197E+01  0.22912667096E+02  0.00000000000E+00 0.  1.
</event>
<event>
 8    1  0.2460897E-006  0.9118800E+02  0.7816164E-02  0.1184000E+00
        -11   -1    0    0    0    0  0.00000000000E+00  0.00000000000E+00  0.45593999997E+02  0.45594000000E+02  0.51100000000E-03 0. -1.
         11   -1    0    0    0    0 -0.00000000000E+00 -0.00000000000E+00 -0.45593999997E+02  0.45594000000E+02  0.51100000000E-03 0.  1.
         23    2    1    2    0    0  0.00000000000E+00 -0.35527136788E-14  0.17763568394E-14  0.91188000000E+02  0.91188000000E+02 0.  0.
    9900012    2    3    3    0    0  0.25600671541E+02 -0.26364546446E+02 -0.23013804563E+01  0.54367081425E+02  0.39999993725E+02 0.  0.
         12    1    3    3    0    0 -0.25600671541E+02  0.26364546446E+02  0.23013804563E+01  0.36820918575E+02  0.00000000000E+00 0. -1.
         11    1    4    4    0    0 -0.22801539602E+01 -0.11739333009E+02  0.83136749821E+01  0.14564622671E+02  0.51100000000E-03 0. -1.
        -11    1    4    4    0    0  0.31588424744E+02 -0.13109999168E+02 -0.83671936954E+01  0.35209524089E+02  0.51100000000E-03 0.  1.
         12    1    4    4    0    0 -0.37075992424E+01 -0.15152142695E+01 -0.22478617430E+01  0.45929346654E+01  0.00000000000E+00 0. -1.
</event>
<event>
 8    1  0.2460897E-006  0.9118800E+02  0.7816164E-02  0.1184000E+00
        -11   -1    0    0    0    0  0.00000000000E+00  0.00000000000E+00  0.45593999997E+02  0.45594000000E+02  0.51100000000E-03 0.  1.
         11   -1    0    0    0    0 -0.00000000000E+00 -0.00000000000E+00 -0.45593999997E+02  0.45594000000E+02  0.51100000000E-03 0. -1.
         23    2    1    2    0    0  0.17763568394E-14 -0.35527136788E-14  0.00000000000E+00  0.91188000000E+02  0.91188000000E+02 0.  0.
    9900012    2    3    3    0    0  0.11801691208E+02 -0.28944489563E+02 -0.19460642095E+02  0.54367082274E+02  0.39999995660E+02 0.  0.
         12    1    3    3    0    0 -0.11801691208E+02  0.28944489563E+02  0.19460642095E+02  0.36820917726E+02  0.00000000000E+00 0. -1.
         11    1    4    4    0    0  0.10638250499E+02 -0.40701703891E+01 -0.15856685177E+02  0.19523655542E+02  0.51100000000E-03 0. -1.
        -11    1    4    4    0    0  0.11979146634E+02 -0.15634574013E+02 -0.56053147963E+01  0.20478266842E+02  0.51100000000E-03 0.  1.
        -12    1    4    4    0    0 -0.10815705925E+02 -0.92397451614E+01  0.20013578781E+01  0.14365159889E+02  0.00000000000E+00 0.  1.
</event>
<event>
 8    1  0.2460897E-006  0.9118800E+02  0.7816164E-02  0.1184000E+00
        -11   -1    0    0    0    0  0.00000000000E+00  0.00000000000E+00  0.45593999997E+02  0.45594000000E+02  0.51100000000E-03 0. -1.
         11   -1    0    0    0    0 -0.00000000000E+00 -0.00000000000E+00 -0.45593999997E+02  0.45594000000E+02  0.51100000000E-03 0.  1.
         23    2    1    2    0    0  0.17763568394E-14 -0.17763568394E-14  0.00000000000E+00  0.91188000000E+02  0.91188000000E+02 0.  0.
    9900012    2    3    3    0    0  0.60200068246E+01 -0.10835129854E+02 -0.34671883584E+02  0.54367081592E+02  0.39999994106E+02 0.  0.
         12    1    3    3    0    0 -0.60200068246E+01  0.10835129854E+02  0.34671883584E+02  0.36820918408E+02  0.00000000000E+00 0. -1.
         11    1    4    4    0    0  0.15377123983E+02  0.46962566178E+01 -0.11259976485E+02  0.19629005041E+02  0.51100000000E-03 0. -1.
        -11    1    4    4    0    0 -0.52453076934E+01 -0.16377247476E+02 -0.83778371649E+01  0.19128921650E+02  0.51100000000E-03 0.  1.
        -12    1    4    4    0    0 -0.41118094652E+01  0.84586100397E+00 -0.15034069934E+02  0.15609154900E+02  0.00000000000E+00 0.  1.
</event>
<event>
 8    1  0.2460897E-006  0.9118800E+02  0.7816164E-02  0.1184000E+00
        -11   -1    0    0    0    0  0.00000000000E+00  0.00000000000E+00  0.45593999997E+02  0.45594000000E+02  0.51100000000E-03 0. -1.
         11   -1    0    0    0    0 -0.00000000000E+00 -0.00000000000E+00 -0.45593999997E+02  0.45594000000E+02  0.51100000000E-03 0.  1.
         23    2    1    2    0    0  0.00000000000E+00 -0.17763568394E-14  0.00000000000E+00  0.91188000000E+02  0.91188000000E+02 0.  0.
    9900012    2    3    3    0    0 -0.33483651959E+02 -0.13123531028E+02  0.78992733925E+01  0.54367074764E+02  0.39999978539E+02 0.  0.
         12    1    3    3    0    0  0.33483651959E+02  0.13123531028E+02 -0.78992733925E+01  0.36820925236E+02  0.00000000000E+00 0. -1.
         11    1    4    4    0    0  0.71843207611E+01  0.24060647910E+01  0.61864237008E+01  0.97813828799E+01  0.51100000000E-03 0. -1.
        -11    1    4    4    0    0 -0.84074837739E+01 -0.28126956390E+01 -0.34770738702E+01  0.95229765896E+01  0.51100000000E-03 0.  1.
         12    1    4    4    0    0 -0.32260488946E+02 -0.12716900180E+02  0.51899235619E+01  0.35062715294E+02  0.00000000000E+00 0. -1.
</event>
<event>
 8    1  0.2460897E-006  0.9118800E+02  0.7816164E-02  0.1184000E+00
        -11   -1    0    0    0    0  0.00000000000E+00  0.00000000000E+00  0.45593999997E+02  0.45594000000E+02  0.51100000000E-03 0.  1.
         11   -1    0    0    0    0 -0.00000000000E+00 -0.00000000000E+00 -0.45593999997E+02  0.45594000000E+02  0.51100000000E-03 0. -1.
         23    2    1    2    0    0 -0.35527136788E-14  0.00000000000E+00 -0.35527136788E-14  0.91188000000E+02  0.91188000000E+02 0.  0.
    9900012    2    3    3    0    0  0.24846723129E+02 -0.86159685329E+01  0.25771787998E+02  0.54367087184E+02  0.40000006853E+02 0.  0.
         12    1    3    3    0    0 -0.24846723129E+02  0.86159685329E+01 -0.25771787998E+02  0.36820912816E+02  0.00000000000E+00 0. -1.
         11    1    4    4    0    0 -0.10080052601E+00 -0.52243367830E+01  0.40748860250E+01  0.66263528389E+01  0.51100000000E-03 0. -1.
        -11    1    4    4    0    0  0.21393813156E+02 -0.33245237815E+01  0.30982759808E+02  0.37797871703E+02  0.51100000000E-03 0.  1.
         12    1    4    4    0    0  0.35537104988E+01 -0.67107968383E-01 -0.92858578344E+01  0.99428626416E+01  0.00000000000E+00 0. -1.
</event>
<event>
 8    1  0.2460897E-006  0.9118800E+02  0.7816164E-02  0.1184000E+00
        -11   -1    0    0    0    0  0.00000000000E+00  0.00000000000E+00  0.45593999997E+02  0.45594000000E+02  0.51100000000E-03 0.  1.
         11   -1    0    0    0    0 -0.00000000000E+00 -0.00000000000E+00 -0.45593999997E+02  0.45594000000E+02  0.51100000000E-03 0. -1.
         23    2    1    2    0    0  0.35527136788E-14  0.00000000000E+00  0.00000000000E+00  0.91188000000E+02  0.91188000000E+02 0.  0.
    9900012    2    3    3    0    0  0.18846418797E+02 -0.17757884505E+02  0.26177233460E+02  0.54367115774E+02  0.40000072031E+02 0.  0.
         12    1    3    3    0    0 -0.18846418797E+02  0.17757884505E+02 -0.26177233460E+02  0.36820884226E+02  0.00000000000E+00 0. -1.
         11    1    4    4    0    0 -0.32349166381E+01 -0.16935821461E+02  0.24370578937E+02  0.29853171560E+02  0.51100000000E-03 0. -1.
        -11    1    4    4    0    0  0.12267669106E+02  0.21089776855E+01  0.55238390059E+01  0.13618233725E+02  0.51100000000E-03 0.  1.
         12    1    4    4    0    0  0.98136663288E+01 -0.29310407298E+01 -0.37171844834E+01  0.10895710489E+02  0.00000000000E+00 0. -1.
</event>
<event>
 8    1  0.2460897E-006  0.9118800E+02  0.7816164E-02  0.1184000E+00
        -11   -1    0    0    0    0  0.00000000000E+00  0.00000000000E+00  0.45593999997E+02  0.45594000000E+02  0.51100000000E-03 0. -1.
         11   -1    0    0    0    0 -0.00000000000E+00 -0.00000000000E+00 -0.45593999997E+02  0.45594000000E+02  0.51100000000E-03 0.  1.
         23    2    1    2    0    0  0.00000000000E+00 -0.88817841970E-15  0.00000000000E+00  0.91188000000E+02  0.91188000000E+02 0.  0.
    9900012    2    3    3    0    0 -0.85763192548E+01  0.73689251161E+01  0.35041759051E+02  0.54367093076E+02  0.40000020284E+02 0.  0.
        -12    1    3    3    0    0  0.85763192548E+01 -0.73689251161E+01 -0.35041759051E+02  0.36820906924E+02  0.00000000000E+00 0.  1.
         11    1    4    4    0    0  0.12094009630E+00  0.30458559329E+00  0.10948123174E+02  0.10953026987E+02  0.51100000000E-03 0. -1.
        -11    1    4    4    0    0  0.97749664086E+01  0.12095118089E+02  0.49010908653E+01  0.16305291835E+02  0.51100000000E-03 0.  1.
        -12    1    4    4    0    0 -0.18472225760E+02 -0.50307785663E+01  0.19192545012E+02  0.27108774254E+02  0.00000000000E+00 0.  1.
</event>
<event>
 8    1  0.2460897E-006  0.9118800E+02  0.7816164E-02  0.1184000E+00
        -11   -1    0    0    0    0  0.00000000000E+00  0.00000000000E+00  0.45593999997E+02  0.45594000000E+02  0.51100000000E-03 0. -1.
         11   -1    0    0    0    0 -0.00000000000E+00 -0.00000000000E+00 -0.45593999997E+02  0.45594000000E+02  0.51100000000E-03 0.  1.
         23    2    1    2    0    0 -0.88817841970E-15  0.12212453271E-14  0.00000000000E+00  0.91188000000E+02  0.91188000000E+02 0.  0.
    9900012    2    3    3    0    0  0.47988238886E+01 -0.99471604002E+00 -0.36493303049E+02  0.54367091019E+02  0.40000015597E+02 0.  0.
         12    1    3    3    0    0 -0.47988238886E+01  0.99471604002E+00  0.36493303049E+02  0.36820908981E+02  0.00000000000E+00 0. -1.
         11    1    4    4    0    0  0.63985154354E+00 -0.10563268416E+02 -0.11559245253E+02  0.15671892059E+02  0.51100000000E-03 0. -1.
        -11    1    4    4    0    0 -0.44655698219E+01 -0.92961140876E-01 -0.25347119011E+02  0.25737645542E+02  0.51100000000E-03 0.  1.
         12    1    4    4    0    0  0.86245421669E+01  0.96615135168E+01  0.41306121508E+00  0.12957553418E+02  0.00000000000E+00 0. -1.
</event>
<event>
 8    1  0.2460897E-006  0.9118800E+02  0.7816164E-02  0.1184000E+00
        -11   -1    0    0    0    0  0.00000000000E+00  0.00000000000E+00  0.45593999997E+02  0.45594000000E+02  0.51100000000E-03 0.  1.
         11   -1    0    0    0    0 -0.00000000000E+00 -0.00000000000E+00 -0.45593999997E+02  0.45594000000E+02  0.51100000000E-03 0. -1.
         23    2    1    2    0    0  0.00000000000E+00  0.88817841970E-15  0.00000000000E+00  0.91188000000E+02  0.91188000000E+02 0.  0.
    9900012    2    3    3    0    0 -0.28185952432E+02 -0.53235823804E+01  0.23086605077E+02  0.54367085048E+02  0.40000001985E+02 0.  0.
         12    1    3    3    0    0  0.28185952432E+02  0.53235823804E+01 -0.23086605077E+02  0.36820914952E+02  0.00000000000E+00 0. -1.
         11    1    4    4    0    0 -0.17339441417E+02  0.46592283508E+01 -0.16403894138E+01  0.18029296025E+02  0.51100000000E-03 0. -1.
        -11    1    4    4    0    0 -0.15815637126E+02 -0.13052900836E+02  0.21294045882E+02  0.29562628235E+02  0.51100000000E-03 0.  1.
        -12    1    4    4    0    0  0.49691261101E+01  0.30700901044E+01  0.34329486092E+01  0.67751607878E+01  0.00000000000E+00 0.  1.
</event>
<event>
 8    1  0.2460897E-006  0.9118800E+02  0.7816164E-02  0.1184000E+00
        -11   -1    0    0    0    0  0.00000000000E+00  0.00000000000E+00  0.45593999997E+02  0.45594000000E+02  0.51100000000E-03 0. -1.
         11   -1    0    0    0    0 -0.00000000000E+00 -0.00000000000E+00 -0.45593999997E+02  0.45594000000E+02  0.51100000000E-03 0.  1.
         23    2    1    2    0    0 -0.35527136788E-14  0.00000000000E+00  0.17763568394E-14  0.91188000000E+02  0.91188000000E+02 0.  0.
    9900012    2    3    3    0    0  0.31498872032E+02  0.11178159001E+02  0.15448296459E+02  0.54367081470E+02  0.39999993827E+02 0.  0.
        -12    1    3    3    0    0 -0.31498872032E+02 -0.11178159001E+02 -0.15448296459E+02  0.36820918530E+02  0.00000000000E+00 0.  1.
         11    1    4    4    0    0  0.60474823524E+01  0.87138415672E+01  0.12279780570E+02  0.16226400980E+02  0.51100000000E-03 0. -1.
        -11    1    4    4    0    0 -0.55663918800E+01  0.13481590756E+01  0.41733794510E+01  0.70865610671E+01  0.51100000000E-03 0.  1.
         12    1    4    4    0    0  0.31017781560E+02  0.11161583577E+01 -0.10048635619E+01  0.31054119423E+02  0.00000000000E+00 0. -1.
</event>
<event>
 8    1  0.2460897E-006  0.9118800E+02  0.7816164E-02  0.1184000E+00
        -11   -1    0    0    0    0  0.00000000000E+00  0.00000000000E+00  0.45593999997E+02  0.45594000000E+02  0.51100000000E-03 0. -1.
         11   -1    0    0    0    0 -0.00000000000E+00 -0.00000000000E+00 -0.45593999997E+02  0.45594000000E+02  0.51100000000E-03 0.  1.
         23    2    1    2    0    0  0.00000000000E+00  0.00000000000E+00 -0.71054273576E-14  0.91188000000E+02  0.91188000000E+02 0.  0.
    9900012    2    3    3    0    0  0.55929958263E+01  0.69357936721E+01 -0.35726805368E+02  0.54366926442E+02  0.39999640408E+02 0.  0.
         12    1    3    3    0    0 -0.55929958263E+01 -0.69357936721E+01  0.35726805368E+02  0.36821073558E+02  0.00000000000E+00 0. -1.
         11    1    4    4    0    0 -0.71968200363E+01  0.25421028112E+01 -0.10167468792E+02  0.12713533232E+02  0.51100000000E-03 0. -1.
        -11    1    4    4    0    0 -0.28134427645E+01  0.12978768170E+02 -0.43850515752E+01  0.13985441036E+02  0.51100000000E-03 0.  1.
        -12    1    4    4    0    0  0.15603258627E+02 -0.85850773093E+01 -0.21174285001E+02  0.27667952174E+02  0.00000000000E+00 0.  1.
</event>
<event>
 8    1  0.2460897E-006  0.9118800E+02  0.7816164E-02  0.1184000E+00
        -11   -1    0    0    0    0  0.00000000000E+00  0.00000000000E+00  0.45593999997E+02  0.45594000000E+02  0.51100000000E-03 0. -1.
         11   -1    0    0    0    0 -0.00000000000E+00 -0.00000000000E+00 -0.45593999997E+02  0.45594000000E+02  0.51100000000E-03 0.  1.
         23    2    1    2    0    0  0.71054273576E-14  0.17763568394E-14  0.00000000000E+00  0.91188000000E+02  0.91188000000E+02 0.  0.
    9900012    2    3    3    0    0 -0.34680546456E+02 -0.95035680235E+01 -0.79196888706E+01  0.54367087742E+02  0.40000008126E+02 0.  0.
        -12    1    3    3    0    0  0.34680546456E+02  0.95035680235E+01  0.79196888706E+01  0.36820912258E+02  0.00000000000E+00 0.  1.
         11    1    4    4    0    0 -0.37661392858E+01 -0.43156388635E+01  0.12086274697E+01  0.58540007295E+01  0.51100000000E-03 0. -1.
        -11    1    4    4    0    0 -0.92865189606E+01 -0.27132283052E+01  0.13827944073E+02  0.16876406009E+02  0.51100000000E-03 0.  1.
         12    1    4    4    0    0 -0.21627888210E+02 -0.24747008549E+01 -0.22956260413E+02  0.31636681003E+02  0.00000000000E+00 0. -1.
</event>
<event>
 8    1  0.2460897E-006  0.9118800E+02  0.7816164E-02  0.1184000E+00
        -11   -1    0    0    0    0  0.00000000000E+00  0.00000000000E+00  0.45593999997E+02  0.45594000000E+02  0.51100000000E-03 0.  1.
         11   -1    0    0    0    0 -0.00000000000E+00 -0.00000000000E+00 -0.45593999997E+02  0.45594000000E+02  0.51100000000E-03 0. -1.
         23    2    1    2    0    0 -0.71054273576E-14 -0.35527136788E-14  0.00000000000E+00  0.91188000000E+02  0.91188000000E+02 0.  0.
    9900012    2    3    3    0    0  0.31420525997E+02  0.16429521292E+02 -0.99297989058E+01  0.54367088413E+02  0.40000009654E+02 0.  0.
        -12    1    3    3    0    0 -0.31420525997E+02 -0.16429521292E+02  0.99297989058E+01  0.36820911587E+02  0.00000000000E+00 0.  1.
         11    1    4    4    0    0  0.19490969026E+02 -0.10227198003E+01 -0.62310996291E+01  0.20488299885E+02  0.51100000000E-03 0. -1.
        -11    1    4    4    0    0  0.11016788843E+02  0.48685973832E+01  0.97073180268E+01  0.15469482875E+02  0.51100000000E-03 0.  1.
         12    1    4    4    0    0  0.91276812857E+00  0.12583643709E+02 -0.13406017303E+02  0.18409305652E+02  0.00000000000E+00 0. -1.
</event>
<event>
 8    1  0.2460897E-006  0.9118800E+02  0.7816164E-02  0.1184000E+00
        -11   -1    0    0    0    0  0.00000000000E+00  0.00000000000E+00  0.45593999997E+02  0.45594000000E+02  0.51100000000E-03 0.  1.
         11   -1    0    0    0    0 -0.00000000000E+00 -0.00000000000E+00 -0.45593999997E+02  0.45594000000E+02  0.51100000000E-03 0. -1.
         23    2    1    2    0    0 -0.17763568394E-14  0.00000000000E+00  0.00000000000E+00  0.91188000000E+02  0.91188000000E+02 0.  0.
    9900012    2    3    3    0    0  0.94499866002E+01 -0.16521544384E+02  0.31520095556E+02  0.54367080682E+02  0.39999992030E+02 0.  0.
         12    1    3    3    0    0 -0.94499866002E+01  0.16521544384E+02 -0.31520095556E+02  0.36820919318E+02  0.00000000000E+00 0. -1.
         11    1    4    4    0    0  0.66755519995E+01 -0.17043085117E+02  0.54499976834E+01  0.19097963761E+02  0.51100000000E-03 0. -1.
        -11    1    4    4    0    0 -0.25571033027E+01 -0.91097064096E+01  0.21231139956E+02  0.23244070906E+02  0.51100000000E-03 0.  1.
         12    1    4    4    0    0  0.53315379033E+01  0.96312471429E+01  0.48389579167E+01  0.12025046015E+02  0.00000000000E+00 0. -1.
</event>
<event>
 8    1  0.2460897E-006  0.9118800E+02  0.7816164E-02  0.1184000E+00
        -11   -1    0    0    0    0  0.00000000000E+00  0.00000000000E+00  0.45593999997E+02  0.45594000000E+02  0.51100000000E-03 0. -1.
         11   -1    0    0    0    0 -0.00000000000E+00 -0.00000000000E+00 -0.45593999997E+02  0.45594000000E+02  0.51100000000E-03 0.  1.
         23    2    1    2    0    0  0.00000000000E+00  0.35527136788E-14  0.00000000000E+00  0.91188000000E+02  0.91188000000E+02 0.  0.
    9900012    2    3    3    0    0 -0.18655531620E+02 -0.27273627790E+02 -0.16244755464E+02  0.54367194564E+02  0.40000251647E+02 0.  0.
         12    1    3    3    0    0  0.18655531620E+02  0.27273627790E+02  0.16244755464E+02  0.36820805436E+02  0.00000000000E+00 0. -1.
         11    1    4    4    0    0 -0.18538494745E+02 -0.27459961104E+01 -0.72179070105E+01  0.20082690654E+02  0.51100000000E-03 0. -1.
        -11    1    4    4    0    0 -0.45484218482E+01 -0.26802758279E+02 -0.45045575487E+01  0.27556615025E+02  0.51100000000E-03 0.  1.
         12    1    4    4    0    0  0.44313849731E+01  0.22751265990E+01 -0.45222909047E+01  0.67278888849E+01  0.00000000000E+00 0. -1.
</event>
<event>
 8    1  0.2460897E-006  0.9118800E+02  0.7816164E-02  0.1184000E+00
        -11   -1    0    0    0    0  0.00000000000E+00  0.00000000000E+00  0.45593999997E+02  0.45594000000E+02  0.51100000000E-03 0.  1.
         11   -1    0    0    0    0 -0.00000000000E+00 -0.00000000000E+00 -0.45593999997E+02  0.45594000000E+02  0.51100000000E-03 0. -1.
         23    2    1    2    0    0  0.00000000000E+00  0.00000000000E+00  0.88817841970E-15  0.91188000000E+02  0.91188000000E+02 0.  0.
    9900012    2    3    3    0    0  0.62320591840E+01  0.35898272784E+02  0.53155660855E+01  0.54367084838E+02  0.40000001505E+02 0.  0.
         12    1    3    3    0    0 -0.62320591840E+01 -0.35898272784E+02 -0.53155660855E+01  0.36820915162E+02  0.00000000000E+00 0. -1.
         11    1    4    4    0    0  0.43490847799E+01 -0.27776101929E+01 -0.96233770953E+01  0.10919663172E+02  0.51100000000E-03 0. -1.
        -11    1    4    4    0    0 -0.51291894631E+01  0.12456199610E+02  0.69318868161E+01  0.15149803575E+02  0.51100000000E-03 0.  1.
         12    1    4    4    0    0  0.70121638671E+01  0.26219683367E+02  0.80070563647E+01  0.28297618091E+02  0.00000000000E+00 0. -1.
</event>
<event>
 8    1  0.2460897E-006  0.9118800E+02  0.7816164E-02  0.1184000E+00
        -11   -1    0    0    0    0  0.00000000000E+00  0.00000000000E+00  0.45593999997E+02  0.45594000000E+02  0.51100000000E-03 0.  1.
         11   -1    0    0    0    0 -0.00000000000E+00 -0.00000000000E+00 -0.45593999997E+02  0.45594000000E+02  0.51100000000E-03 0. -1.
         23    2    1    2    0    0  0.17763568394E-14  0.35527136788E-14 -0.35527136788E-14  0.91188000000E+02  0.91188000000E+02 0.  0.
    9900012    2    3    3    0    0  0.15559745068E+02  0.14314377525E+02 -0.30145873953E+02  0.54367071347E+02  0.39999970749E+02 0.  0.
        -12    1    3    3    0    0 -0.15559745068E+02 -0.14314377525E+02  0.30145873953E+02  0.36820928653E+02  0.00000000000E+00 0.  1.
         11    1    4    4    0    0  0.75133488402E+00 -0.21074486039E+01  0.48958342684E+01  0.53828465676E+01  0.51100000000E-03 0. -1.
        -11    1    4    4    0    0  0.46301468692E+01 -0.71644970453E+01 -0.82679845077E+01  0.11879724156E+02  0.51100000000E-03 0.  1.
         12    1    4    4    0    0  0.10178263314E+02  0.23586323175E+02 -0.26773723714E+02  0.37104500623E+02  0.00000000000E+00 0. -1.
</event>
<event>
 8    1  0.2460897E-006  0.9118800E+02  0.7816164E-02  0.1184000E+00
        -11   -1    0    0    0    0  0.00000000000E+00  0.00000000000E+00  0.45593999997E+02  0.45594000000E+02  0.51100000000E-03 0. -1.
         11   -1    0    0    0    0 -0.00000000000E+00 -0.00000000000E+00 -0.45593999997E+02  0.45594000000E+02  0.51100000000E-03 0.  1.
         23    2    1    2    0    0 -0.17763568394E-14 -0.35527136788E-14  0.00000000000E+00  0.91188000000E+02  0.91188000000E+02 0.  0.
    9900012    2    3    3    0    0  0.80712925075E+01  0.26748943503E+02 -0.23981818719E+02  0.54367090582E+02  0.40000014599E+02 0.  0.
         12    1    3    3    0    0 -0.80712925075E+01 -0.26748943503E+02  0.23981818719E+02  0.36820909418E+02  0.00000000000E+00 0. -1.
         11    1    4    4    0    0  0.59639629728E+01  0.28414064475E+01 -0.17430206483E+01  0.68323177753E+01  0.51100000000E-03 0. -1.
        -11    1    4    4    0    0  0.75055392197E+01  0.82058894736E+01 -0.27866298865E+02  0.30003339043E+02  0.51100000000E-03 0.  1.
         12    1    4    4    0    0 -0.53982096850E+01  0.15701647582E+02  0.56275007944E+01  0.17531433763E+02  0.00000000000E+00 0. -1.
</event>
<event>
 8    1  0.2460897E-006  0.9118800E+02  0.7816164E-02  0.1184000E+00
        -11   -1    0    0    0    0  0.00000000000E+00  0.00000000000E+00  0.45593999997E+02  0.45594000000E+02  0.51100000000E-03 0.  1.
         11   -1    0    0    0    0 -0.00000000000E+00 -0.00000000000E+00 -0.45593999997E+02  0.45594000000E+02  0.51100000000E-03 0. -1.
         23    2    1    2    0    0 -0.71054273576E-14 -0.17763568394E-14  0.88817841970E-15  0.91188000000E+02  0.91188000000E+02 0.  0.
    9900012    2    3    3    0    0 -0.34505007027E+02 -0.10097978610E+02  0.79508080054E+01  0.54367081626E+02  0.39999994184E+02 0.  0.
         12    1    3    3    0    0  0.34505007027E+02  0.10097978610E+02 -0.79508080054E+01  0.36820918374E+02  0.00000000000E+00 0. -1.
         11    1    4    4    0    0 -0.13471388822E+01  0.10014494236E+02  0.94226404779E+00  0.10148533873E+02  0.51100000000E-03 0. -1.
        -11    1    4    4    0    0 -0.25996440522E+02 -0.74848915465E+01 -0.20120504257E+01  0.27127234811E+02  0.51100000000E-03 0.  1.
         12    1    4    4    0    0 -0.71614276224E+01 -0.12627581300E+02  0.90205943833E+01  0.17091312943E+02  0.00000000000E+00 0. -1.
</event>
<event>
 8    1  0.2460897E-006  0.9118800E+02  0.7816164E-02  0.1184000E+00
        -11   -1    0    0    0    0  0.00000000000E+00  0.00000000000E+00  0.45593999997E+02  0.45594000000E+02  0.51100000000E-03 0.  1.
         11   -1    0    0    0    0 -0.00000000000E+00 -0.00000000000E+00 -0.45593999997E+02  0.45594000000E+02  0.51100000000E-03 0. -1.
         23    2    1    2    0    0  0.00000000000E+00  0.88817841970E-15 -0.88817841970E-15  0.91188000000E+02  0.91188000000E+02 0.  0.
    9900012    2    3    3    0    0 -0.35645183461E+02 -0.55659816164E+01 -0.73635206378E+01  0.54367072642E+02  0.39999973702E+02 0.  0.
        -12    1    3    3    0    0  0.35645183461E+02  0.55659816164E+01  0.73635206378E+01  0.36820927358E+02  0.00000000000E+00 0.  1.
         11    1    4    4    0    0 -0.18713423257E+02 -0.83779037118E+01  0.10189175767E+01  0.20528508809E+02  0.51100000000E-03 0. -1.
        -11    1    4    4    0    0  0.71699796071E+01  0.47530978540E+01 -0.20463459249E+01  0.88424023139E+01  0.51100000000E-03 0.  1.
         12    1    4    4    0    0 -0.24101739810E+02 -0.19411757586E+01 -0.63360922896E+01  0.24996161520E+02  0.00000000000E+00 0. -1.
</event>
<event>
 8    1  0.2460897E-006  0.9118800E+02  0.7816164E-02  0.1184000E+00
        -11   -1    0    0    0    0  0.00000000000E+00  0.00000000000E+00  0.45593999997E+02  0.45594000000E+02  0.51100000000E-03 0. -1.
         11   -1    0    0    0    0 -0.00000000000E+00 -0.00000000000E+00 -0.45593999997E+02  0.45594000000E+02  0.51100000000E-03 0.  1.
         23    2    1    2    0    0  0.00000000000E+00  0.00000000000E+00  0.00000000000E+00  0.91188000000E+02  0.91188000000E+02 0.  0.
    9900012    2    3    3    0    0  0.16770429214E+02  0.10393083517E+02  0.31088845831E+02  0.54367084529E+02  0.40000000801E+02 0.  0.
        -12    1    3    3    0    0 -0.16770429214E+02 -0.10393083517E+02 -0.31088845831E+02  0.36820915471E+02  0.00000000000E+00 0.  1.
         11    1    4    4    0    0 -0.39577422549E+00 -0.11560689636E+02  0.15571312483E+02  0.19397730661E+02  0.51100000000E-03 0. -1.
        -11    1    4    4    0    0  0.18994432168E+02  0.15713613806E+02  0.10684753381E+02  0.26867639779E+02  0.51100000000E-03 0.  1.
         12    1    4    4    0    0 -0.18282287282E+01  0.62401593475E+01  0.48327799676E+01  0.81017140890E+01  0.00000000000E+00 0. -1.
</event>
<event>
 8    1  0.2460897E-006  0.9118800E+02  0.7816164E-02  0.1184000E+00
        -11   -1    0    0    0    0  0.00000000000E+00  0.00000000000E+00  0.45593999997E+02  0.45594000000E+02  0.51100000000E-03 0.  1.
         11   -1    0    0    0    0 -0.00000000000E+00 -0.00000000000E+00 -0.45593999997E+02  0.45594000000E+02  0.51100000000E-03 0. -1.
         23    2    1    2    0    0  0.00000000000E+00  0.35527136788E-14  0.00000000000E+00  0.91188000000E+02  0.91188000000E+02 0.  0.
    9900012    2    3    3    0    0  0.18987151557E+02  0.24759568675E+02  0.19550759664E+02  0.54367077026E+02  0.39999983696E+02 0.  0.
         12    1    3    3    0    0 -0.18987151557E+02 -0.24759568675E+02 -0.19550759664E+02  0.36820922974E+02  0.00000000000E+00 0. -1.
         11    1    4    4    0    0 -0.43970755171E+01 -0.38751087547E+01 -0.21446994158E+01  0.62410317103E+01  0.51100000000E-03 0. -1.
        -11    1    4    4    0    0  0.27315607146E+02  0.26428255924E+02  0.17063695762E+02  0.41662510945E+02  0.51100000000E-03 0.  1.
        -12    1    4    4    0    0 -0.39313800712E+01  0.22064215059E+01  0.46317633179E+01  0.64635343705E+01  0.00000000000E+00 0.  1.
</event>
<event>
 8    1  0.2460897E-006  0.9118800E+02  0.7816164E-02  0.1184000E+00
        -11   -1    0    0    0    0  0.00000000000E+00  0.00000000000E+00  0.45593999997E+02  0.45594000000E+02  0.51100000000E-03 0.  1.
         11   -1    0    0    0    0 -0.00000000000E+00 -0.00000000000E+00 -0.45593999997E+02  0.45594000000E+02  0.51100000000E-03 0. -1.
         23    2    1    2    0    0  0.00000000000E+00 -0.71054273576E-14 -0.17763568394E-14  0.91188000000E+02  0.91188000000E+02 0.  0.
    9900012    2    3    3    0    0  0.10368110919E+02 -0.34898544007E+02  0.55110511297E+01  0.54367112145E+02  0.40000063757E+02 0.  0.
        -12    1    3    3    0    0 -0.10368110919E+02  0.34898544007E+02 -0.55110511297E+01  0.36820887855E+02  0.00000000000E+00 0.  1.
         11    1    4    4    0    0  0.30351261498E+01 -0.67810590124E+00 -0.94785026909E+01  0.99756619771E+01  0.51100000000E-03 0. -1.
        -11    1    4    4    0    0  0.26440826354E+01  0.44281855818E+00  0.83736346328E+01  0.87923272506E+01  0.51100000000E-03 0.  1.
        -12    1    4    4    0    0  0.46889021334E+01 -0.34663256664E+02  0.66159191879E+01  0.35599122918E+02  0.00000000000E+00 0.  1.
</event>
<event>
 8    1  0.2460897E-006  0.9118800E+02  0.7816164E-02  0.1184000E+00
        -11   -1    0    0    0    0  0.00000000000E+00  0.00000000000E+00  0.45593999997E+02  0.45594000000E+02  0.51100000000E-03 0. -1.
         11   -1    0    0    0    0 -0.00000000000E+00 -0.00000000000E+00 -0.45593999997E+02  0.45594000000E+02  0.51100000000E-03 0.  1.
         23    2    1    2    0    0 -0.35527136788E-14  0.35527136788E-14  0.00000000000E+00  0.91188000000E+02  0.91188000000E+02 0.  0.
    9900012    2    3    3    0    0  0.95661069740E+01  0.29041013534E+02  0.20515532925E+02  0.54367109721E+02  0.40000058230E+02 0.  0.
         12    1    3    3    0    0 -0.95661069740E+01 -0.29041013534E+02 -0.20515532925E+02  0.36820890279E+02  0.00000000000E+00 0. -1.
         11    1    4    4    0    0  0.20155378781E+02  0.16997577738E+02  0.16417651025E+02  0.31059559047E+02  0.51100000000E-03 0. -1.
        -11    1    4    4    0    0  0.25749730595E+01  0.66396205657E+00  0.52328115780E+01  0.58697230890E+01  0.51100000000E-03 0.  1.
        -12    1    4    4    0    0 -0.13164244866E+02  0.11379473740E+02 -0.11349296783E+01  0.17437827585E+02  0.00000000000E+00 0.  1.
</event>
<event>
 8    1  0.2460897E-006  0.9118800E+02  0.7816164E-02  0.1184000E+00
        -11   -1    0    0    0    0  0.00000000000E+00  0.00000000000E+00  0.45593999997E+02  0.45594000000E+02  0.51100000000E-03 0.  1.
         11   -1    0    0    0    0 -0.00000000000E+00 -0.00000000000E+00 -0.45593999997E+02  0.45594000000E+02  0.51100000000E-03 0. -1.
         23    2    1    2    0    0  0.35527136788E-14  0.13322676296E-14  0.00000000000E+00  0.91188000000E+02  0.91188000000E+02 0.  0.
    9900012    2    3    3    0    0 -0.27100731980E+02 -0.39419743785E+01  0.24612798459E+02  0.54367099905E+02  0.40000035853E+02 0.  0.
         12    1    3    3    0    0  0.27100731980E+02  0.39419743785E+01 -0.24612798459E+02  0.36820900095E+02  0.00000000000E+00 0. -1.
         11    1    4    4    0    0 -0.76435262267E+00  0.79826482652E+01  0.23821360792E+02  0.25134918708E+02  0.51100000000E-03 0. -1.
        -11    1    4    4    0    0 -0.19692666428E+02 -0.91447514721E+01 -0.12447074391E+01  0.21748031806E+02  0.51100000000E-03 0.  1.
         12    1    4    4    0    0 -0.66437129286E+01 -0.27798711716E+01  0.20361451066E+01  0.74841493907E+01  0.00000000000E+00 0. -1.
</event>
<event>
 8    1  0.2460897E-006  0.9118800E+02  0.7816164E-02  0.1184000E+00
        -11   -1    0    0    0    0  0.00000000000E+00  0.00000000000E+00  0.45593999997E+02  0.45594000000E+02  0.51100000000E-03 0.  1.
         11   -1    0    0    0    0 -0.00000000000E+00 -0.00000000000E+00 -0.45593999997E+02  0.45594000000E+02  0.51100000000E-03 0. -1.
         23    2    1    2    0    0  0.00000000000E+00 -0.35527136788E-14  0.00000000000E+00  0.91188000000E+02  0.91188000000E+02 0.  0.
    9900012    2    3    3    0    0 -0.16118783919E+02  0.14004082827E+02  0.29997504883E+02  0.54367084340E+02  0.40000000370E+02 0.  0.
         12    1    3    3    0    0  0.16118783919E+02 -0.14004082827E+02 -0.29997504883E+02  0.36820915660E+02  0.00000000000E+00 0. -1.
         11    1    4    4    0    0  0.61846081077E+01  0.89639604396E+01  0.24383873714E+02  0.26705341447E+02  0.51100000000E-03 0. -1.
        -11    1    4    4    0    0 -0.96131903057E+01  0.19326796636E+00  0.95161016205E+01  0.13528006899E+02  0.51100000000E-03 0.  1.
        -12    1    4    4    0    0 -0.12690201721E+02  0.48468544210E+01 -0.39024704523E+01  0.14133735994E+02  0.00000000000E+00 0.  1.
</event>
<event>
 8    1  0.2460897E-006  0.9118800E+02  0.7816164E-02  0.1184000E+00
        -11   -1    0    0    0    0  0.00000000000E+00  0.00000000000E+00  0.45593999997E+02  0.45594000000E+02  0.51100000000E-03 0. -1.
         11   -1    0    0    0    0 -0.00000000000E+00 -0.00000000000E+00 -0.45593999997E+02  0.45594000000E+02  0.51100000000E-03 0.  1.
         23    2    1    2    0    0  0.00000000000E+00  0.00000000000E+00  0.00000000000E+00  0.91188000000E+02  0.91188000000E+02 0.  0.
    9900012    2    3    3    0    0 -0.25659874898E+02 -0.19772199880E+02  0.17504625167E+02  0.54367068859E+02  0.39999965078E+02 0.  0.
         12    1    3    3    0    0  0.25659874898E+02  0.19772199880E+02 -0.17504625167E+02  0.36820931141E+02  0.00000000000E+00 0. -1.
         11    1    4    4    0    0 -0.23368097427E+02 -0.18429296668E+02  0.45267854864E+01  0.30103135055E+02  0.51100000000E-03 0. -1.
        -11    1    4    4    0    0 -0.39073399141E+01 -0.55240523025E+01 -0.31940941715E+01  0.74822922211E+01  0.51100000000E-03 0.  1.
         12    1    4    4    0    0  0.16155624431E+01  0.41811490903E+01  0.16171933852E+02  0.16781641583E+02  0.00000000000E+00 0. -1.
</event>
<event>
 8    1  0.2460897E-006  0.9118800E+02  0.7816164E-02  0.1184000E+00
        -11   -1    0    0    0    0  0.00000000000E+00  0.00000000000E+00  0.45593999997E+02  0.45594000000E+02  0.51100000000E-03 0.  1.
         11   -1    0    0    0    0 -0.00000000000E+00 -0.00000000000E+00 -0.45593999997E+02  0.45594000000E+02  0.51100000000E-03 0. -1.
         23    2    1    2    0    0  0.71054273576E-14 -0.88817841970E-15 -0.41633363423E-16  0.91188000000E+02  0.91188000000E+02 0.  0.
    9900012    2    3    3    0    0  0.36764411575E+02 -0.20363379557E+01  0.11694435182E+00  0.54367050708E+02  0.39999923700E+02 0.  0.
        -12    1    3    3    0    0 -0.36764411575E+02  0.20363379557E+01 -0.11694435182E+00  0.36820949292E+02  0.00000000000E+00 0.  1.
         11    1    4    4    0    0  0.24769558328E+02  0.58269352898E+01 -0.18259353420E+00  0.25446365856E+02  0.51100000000E-03 0. -1.
        -11    1    4    4    0    0 -0.12866880701E+01  0.79255427824E+01  0.18185787005E+01  0.82326802038E+01  0.51100000000E-03 0.  1.
         12    1    4    4    0    0  0.13281541318E+02 -0.15788816028E+02 -0.15190408145E+01  0.20688004648E+02  0.00000000000E+00 0. -1.
</event>
<event>
 8    1  0.2460897E-006  0.9118800E+02  0.7816164E-02  0.1184000E+00
        -11   -1    0    0    0    0  0.00000000000E+00  0.00000000000E+00  0.45593999997E+02  0.45594000000E+02  0.51100000000E-03 0. -1.
         11   -1    0    0    0    0 -0.00000000000E+00 -0.00000000000E+00 -0.45593999997E+02  0.45594000000E+02  0.51100000000E-03 0.  1.
         23    2    1    2    0    0 -0.88817841970E-15  0.35527136788E-14 -0.71054273576E-14  0.91188000000E+02  0.91188000000E+02 0.  0.
    9900012    2    3    3    0    0  0.77550346574E+01 -0.26406635692E+02  0.24460703612E+02  0.54367122874E+02  0.40000088216E+02 0.  0.
        -12    1    3    3    0    0 -0.77550346574E+01  0.26406635692E+02 -0.24460703612E+02  0.36820877126E+02  0.00000000000E+00 0.  1.
         11    1    4    4    0    0 -0.16203548548E+01  0.52761654032E+01  0.44531737138E+01  0.70918423279E+01  0.51100000000E-03 0. -1.
        -11    1    4    4    0    0 -0.93863515130E+00 -0.80604483822E+01 -0.64287219111E+01  0.10352793330E+02  0.51100000000E-03 0.  1.
         12    1    4    4    0    0  0.10314024663E+02 -0.23622352713E+02  0.26436251810E+02  0.36922487216E+02  0.00000000000E+00 0. -1.
</event>
<event>
 8    1  0.2460897E-006  0.9118800E+02  0.7816164E-02  0.1184000E+00
        -11   -1    0    0    0    0  0.00000000000E+00  0.00000000000E+00  0.45593999997E+02  0.45594000000E+02  0.51100000000E-03 0. -1.
         11   -1    0    0    0    0 -0.00000000000E+00 -0.00000000000E+00 -0.45593999997E+02  0.45594000000E+02  0.51100000000E-03 0.  1.
         23    2    1    2    0    0  0.35527136788E-14  0.35527136788E-14  0.44408920985E-15  0.91188000000E+02  0.91188000000E+02 0.  0.
    9900012    2    3    3    0    0 -0.23797475852E+02 -0.27882021455E+02  0.34725267940E+01  0.54367008437E+02  0.39999827333E+02 0.  0.
        -12    1    3    3    0    0  0.23797475852E+02  0.27882021455E+02 -0.34725267940E+01  0.36820991563E+02  0.00000000000E+00 0.  1.
         11    1    4    4    0    0  0.84762745850E+01 -0.67224998095E+01  0.11690072699E+01  0.10881443507E+02  0.51100000000E-03 0. -1.
        -11    1    4    4    0    0 -0.19950490556E+02 -0.21036899370E+02 -0.46070286081E+01  0.29356394898E+02  0.51100000000E-03 0.  1.
        -12    1    4    4    0    0 -0.12323259881E+02 -0.12262227510E+00  0.69105481322E+01  0.14129170033E+02  0.00000000000E+00 0.  1.
</event>
<event>
 8    1  0.2460897E-006  0.9118800E+02  0.7816164E-02  0.1184000E+00
        -11   -1    0    0    0    0  0.00000000000E+00  0.00000000000E+00  0.45593999997E+02  0.45594000000E+02  0.51100000000E-03 0. -1.
         11   -1    0    0    0    0 -0.00000000000E+00 -0.00000000000E+00 -0.45593999997E+02  0.45594000000E+02  0.51100000000E-03 0.  1.
         23    2    1    2    0    0  0.35527136788E-14  0.35527136788E-14  0.17763568394E-14  0.91188000000E+02  0.91188000000E+02 0.  0.
    9900012    2    3    3    0    0  0.16689060074E+02  0.29928284915E+02  0.13474154967E+02  0.54367084528E+02  0.40000000799E+02 0.  0.
        -12    1    3    3    0    0 -0.16689060074E+02 -0.29928284915E+02 -0.13474154967E+02  0.36820915472E+02  0.00000000000E+00 0.  1.
         11    1    4    4    0    0 -0.28685531372E+01  0.86595589257E+01  0.12211796209E+02  0.15242851597E+02  0.51100000000E-03 0. -1.
        -11    1    4    4    0    0  0.16434820649E+02  0.57654353208E+01  0.10955009666E+02  0.20575612051E+02  0.51100000000E-03 0.  1.
         12    1    4    4    0    0  0.31227925618E+01  0.15503290669E+02 -0.96926509086E+01  0.18548620881E+02  0.00000000000E+00 0. -1.
</event>
<event>
 8    1  0.2460897E-006  0.9118800E+02  0.7816164E-02  0.1184000E+00
        -11   -1    0    0    0    0  0.00000000000E+00  0.00000000000E+00  0.45593999997E+02  0.45594000000E+02  0.51100000000E-03 0. -1.
         11   -1    0    0    0    0 -0.00000000000E+00 -0.00000000000E+00 -0.45593999997E+02  0.45594000000E+02  0.51100000000E-03 0.  1.
         23    2    1    2    0    0  0.17763568394E-14 -0.71054273576E-14  0.00000000000E+00  0.91188000000E+02  0.91188000000E+02 0.  0.
    9900012    2    3    3    0    0  0.75441065063E+01 -0.19393518849E+02 -0.30376923576E+02  0.54367087433E+02  0.40000007420E+02 0.  0.
         12    1    3    3    0    0 -0.75441065063E+01  0.19393518849E+02  0.30376923576E+02  0.36820912567E+02  0.00000000000E+00 0. -1.
         11    1    4    4    0    0 -0.30683532196E+01  0.36823916689E+01 -0.18132510096E+01  0.51247126133E+01  0.51100000000E-03 0. -1.
        -11    1    4    4    0    0  0.50501440732E+01 -0.21854866901E+02 -0.34413541479E+02  0.41078351961E+02  0.51100000000E-03 0.  1.
         12    1    4    4    0    0  0.55623156527E+01 -0.12210436175E+01  0.58498689127E+01  0.81640228584E+01  0.00000000000E+00 0. -1.
</event>
<event>
 8    1  0.2460897E-006  0.9118800E+02  0.7816164E-02  0.1184000E+00
        -11   -1    0    0    0    0  0.00000000000E+00  0.00000000000E+00  0.45593999997E+02  0.45594000000E+02  0.51100000000E-03 0.  1.
         11   -1    0    0    0    0 -0.00000000000E+00 -0.00000000000E+00 -0.45593999997E+02  0.45594000000E+02  0.51100000000E-03 0. -1.
         23    2    1    2    0    0  0.00000000000E+00  0.26645352591E-14 -0.35527136788E-14  0.91188000000E+02  0.91188000000E+02 0.  0.
    9900012    2    3    3    0    0  0.17990011060E+02  0.65901987948E+01 -0.31443731006E+02  0.54367089668E+02  0.40000012517E+02 0.  0.
        -12    1    3    3    0    0 -0.17990011060E+02 -0.65901987948E+01  0.31443731006E+02  0.36820910332E+02  0.00000000000E+00 0.  1.
         11    1    4    4    0    0 -0.67350763842E+00  0.49020210096E+01 -0.79979587857E+01  0.94048268201E+01  0.51100000000E-03 0. -1.
        -11    1    4    4    0    0 -0.53652051432E+01 -0.38867699049E+01 -0.18705302639E+02  0.19843909736E+02  0.51100000000E-03 0.  1.
        -12    1    4    4    0    0  0.24028723842E+02  0.55749476900E+01 -0.47404695806E+01  0.25118353112E+02  0.00000000000E+00 0.  1.
</event>
<event>
 8    1  0.2460897E-006  0.9118800E+02  0.7816164E-02  0.1184000E+00
        -11   -1    0    0    0    0  0.00000000000E+00  0.00000000000E+00  0.45593999997E+02  0.45594000000E+02  0.51100000000E-03 0. -1.
         11   -1    0    0    0    0 -0.00000000000E+00 -0.00000000000E+00 -0.45593999997E+02  0.45594000000E+02  0.51100000000E-03 0.  1.
         23    2    1    2    0    0  0.17763568394E-14 -0.44408920985E-15  0.00000000000E+00  0.91188000000E+02  0.91188000000E+02 0.  0.
    9900012    2    3    3    0    0 -0.13467716716E+02  0.49562089062E+00  0.34265916050E+02  0.54367108697E+02  0.40000055897E+02 0.  0.
        -12    1    3    3    0    0  0.13467716716E+02 -0.49562089062E+00 -0.34265916050E+02  0.36820891303E+02  0.00000000000E+00 0.  1.
         11    1    4    4    0    0  0.99884946939E+00  0.79293331396E+01 -0.34170538058E+01  0.86918514296E+01  0.51100000000E-03 0. -1.
        -11    1    4    4    0    0 -0.51913847257E+01 -0.85431107144E+01  0.40787076878E+01  0.10796808450E+02  0.51100000000E-03 0.  1.
         12    1    4    4    0    0 -0.92751814599E+01  0.11093984654E+01  0.33604262168E+02  0.34878448817E+02  0.00000000000E+00 0. -1.
</event>
<event>
 8    1  0.2460897E-006  0.9118800E+02  0.7816164E-02  0.1184000E+00
        -11   -1    0    0    0    0  0.00000000000E+00  0.00000000000E+00  0.45593999997E+02  0.45594000000E+02  0.51100000000E-03 0.  1.
         11   -1    0    0    0    0 -0.00000000000E+00 -0.00000000000E+00 -0.45593999997E+02  0.45594000000E+02  0.51100000000E-03 0. -1.
         23    2    1    2    0    0 -0.44408920985E-15  0.00000000000E+00  0.17763568394E-14  0.91188000000E+02  0.91188000000E+02 0.  0.
    9900012    2    3    3    0    0 -0.32075930932E+01 -0.33504875218E+02 -0.14930375213E+02  0.54367062739E+02  0.39999951125E+02 0.  0.
        -12    1    3    3    0    0  0.32075930932E+01  0.33504875218E+02  0.14930375213E+02  0.36820937261E+02  0.00000000000E+00 0.  1.
         11    1    4    4    0    0 -0.54443203161E+01 -0.12803592394E+02 -0.89172070852E+01  0.16525410263E+02  0.51100000000E-03 0. -1.
        -11    1    4    4    0    0 -0.15952045071E+01 -0.15647911837E+02 -0.18229462637E+02  0.24077274152E+02  0.51100000000E-03 0.  1.
        -12    1    4    4    0    0  0.38319317300E+01 -0.50533709867E+01  0.12216294509E+02  0.13764378324E+02  0.00000000000E+00 0.  1.
</event>
<event>
 8    1  0.2460897E-006  0.9118800E+02  0.7816164E-02  0.1184000E+00
        -11   -1    0    0    0    0  0.00000000000E+00  0.00000000000E+00  0.45593999997E+02  0.45594000000E+02  0.51100000000E-03 0.  1.
         11   -1    0    0    0    0 -0.00000000000E+00 -0.00000000000E+00 -0.45593999997E+02  0.45594000000E+02  0.51100000000E-03 0. -1.
         23    2    1    2    0    0  0.00000000000E+00  0.00000000000E+00  0.11102230246E-15  0.91188000000E+02  0.91188000000E+02 0.  0.
    9900012    2    3    3    0    0  0.31070866708E+02 -0.19754925062E+02  0.35011861137E+00  0.54367103688E+02  0.40000044477E+02 0.  0.
        -12    1    3    3    0    0 -0.31070866708E+02  0.19754925062E+02 -0.35011861137E+00  0.36820896312E+02  0.00000000000E+00 0.  1.
         11    1    4    4    0    0  0.68867863098E+01 -0.66881787415E+01  0.10063316585E+02  0.13907907877E+02  0.51100000000E-03 0. -1.
        -11    1    4    4    0    0  0.79324522436E+01 -0.12645959482E+02  0.75648269020E+01  0.16735312849E+02  0.51100000000E-03 0.  1.
         12    1    4    4    0    0  0.16251628154E+02 -0.42078683850E+00 -0.17278024875E+02  0.23723882963E+02  0.00000000000E+00 0. -1.
</event>
<event>
 8    1  0.2460897E-006  0.9118800E+02  0.7816164E-02  0.1184000E+00
        -11   -1    0    0    0    0  0.00000000000E+00  0.00000000000E+00  0.45593999997E+02  0.45594000000E+02  0.51100000000E-03 0.  1.
         11   -1    0    0    0    0 -0.00000000000E+00 -0.00000000000E+00 -0.45593999997E+02  0.45594000000E+02  0.51100000000E-03 0. -1.
         23    2    1    2    0    0  0.00000000000E+00  0.17763568394E-14  0.00000000000E+00  0.91188000000E+02  0.91188000000E+02 0.  0.
    9900012    2    3    3    0    0 -0.31297309106E+01  0.97450977613E+01 -0.35369876376E+02  0.54366942156E+02  0.39999676231E+02 0.  0.
        -12    1    3    3    0    0  0.31297309106E+01 -0.97450977613E+01  0.35369876376E+02  0.36821057844E+02  0.00000000000E+00 0.  1.
         11    1    4    4    0    0  0.22671488228E+00 -0.64612861533E+01 -0.86637094317E+01  0.10810156325E+02  0.51100000000E-03 0. -1.
        -11    1    4    4    0    0 -0.12028153769E+02 -0.28812110511E+01 -0.48903162505E+01  0.13300114793E+02  0.51100000000E-03 0.  1.
        -12    1    4    4    0    0  0.86717079763E+01  0.19087594966E+02 -0.21815850693E+02  0.30256671038E+02  0.00000000000E+00 0.  1.
</event>
<event>
 8    1  0.2460897E-006  0.9118800E+02  0.7816164E-02  0.1184000E+00
        -11   -1    0    0    0    0  0.00000000000E+00  0.00000000000E+00  0.45593999997E+02  0.45594000000E+02  0.51100000000E-03 0. -1.
         11   -1    0    0    0    0 -0.00000000000E+00 -0.00000000000E+00 -0.45593999997E+02  0.45594000000E+02  0.51100000000E-03 0.  1.
         23    2    1    2    0    0  0.35527136788E-14  0.00000000000E+00  0.00000000000E+00  0.91188000000E+02  0.91188000000E+02 0.  0.
    9900012    2    3    3    0    0  0.20877743006E+02  0.18779101866E+02 -0.23816903273E+02  0.54367086086E+02  0.40000004351E+02 0.  0.
         12    1    3    3    0    0 -0.20877743006E+02 -0.18779101866E+02  0.23816903273E+02  0.36820913914E+02  0.00000000000E+00 0. -1.
         11    1    4    4    0    0  0.11632326388E+02  0.71322771333E+00  0.48741812795E+01  0.12632393059E+02  0.51100000000E-03 0. -1.
        -11    1    4    4    0    0 -0.42998321354E+01  0.11641152292E+02 -0.22125902742E+02  0.25368495333E+02  0.51100000000E-03 0.  1.
        -12    1    4    4    0    0  0.13545248753E+02  0.64247218615E+01 -0.65651818112E+01  0.16366197695E+02  0.00000000000E+00 0.  1.
</event>
<event>
 8    1  0.2460897E-006  0.9118800E+02  0.7816164E-02  0.1184000E+00
        -11   -1    0    0    0    0  0.00000000000E+00  0.00000000000E+00  0.45593999997E+02  0.45594000000E+02  0.51100000000E-03 0.  1.
         11   -1    0    0    0    0 -0.00000000000E+00 -0.00000000000E+00 -0.45593999997E+02  0.45594000000E+02  0.51100000000E-03 0. -1.
         23    2    1    2    0    0  0.00000000000E+00  0.00000000000E+00  0.00000000000E+00  0.91188000000E+02  0.91188000000E+02 0.  0.
    9900012    2    3    3    0    0  0.67929100437E+01 -0.37445464453E+01 -0.35994667066E+02  0.54367064214E+02  0.39999954488E+02 0.  0.
        -12    1    3    3    0    0 -0.67929100437E+01  0.37445464453E+01  0.35994667066E+02  0.36820935786E+02  0.00000000000E+00 0.  1.
         11    1    4    4    0    0  0.12585111784E+02 -0.34677747764E+01 -0.35021858706E+01  0.13515761416E+02  0.51100000000E-03 0.  1.
        -11    1    4    4    0    0 -0.12531315965E+02 -0.29027083595E+01 -0.76247690521E+01  0.14953150136E+02  0.51100000000E-03 0. -1.
         12    1    4    4    0    0  0.67391142249E+01  0.26259366906E+01 -0.24867712144E+02  0.25898152662E+02  0.00000000000E+00 0. -1.
</event>
<event>
 8    1  0.2460897E-006  0.9118800E+02  0.7816164E-02  0.1184000E+00
        -11   -1    0    0    0    0  0.00000000000E+00  0.00000000000E+00  0.45593999997E+02  0.45594000000E+02  0.51100000000E-03 0. -1.
         11   -1    0    0    0    0 -0.00000000000E+00 -0.00000000000E+00 -0.45593999997E+02  0.45594000000E+02  0.51100000000E-03 0.  1.
         23    2    1    2    0    0  0.35527136788E-14  0.00000000000E+00  0.17763568394E-14  0.91188000000E+02  0.91188000000E+02 0.  0.
    9900012    2    3    3    0    0 -0.30375554402E+02  0.14508366300E+02  0.14920266792E+02  0.54367063577E+02  0.39999953036E+02 0.  0.
        -12    1    3    3    0    0  0.30375554402E+02 -0.14508366300E+02 -0.14920266792E+02  0.36820936423E+02  0.00000000000E+00 0.  1.
         11    1    4    4    0    0 -0.81885403488E+01 -0.66824371060E+01  0.18465932921E+02  0.21276697056E+02  0.51100000000E-03 0. -1.
        -11    1    4    4    0    0 -0.46977798796E+01  0.12325777557E+02 -0.27016758961E+01  0.13464508201E+02  0.51100000000E-03 0.  1.
        -12    1    4    4    0    0 -0.17489234173E+02  0.88650258494E+01 -0.84399023256E+00  0.19625858320E+02  0.00000000000E+00 0.  1.
</event>
<event>
 8    1  0.2460897E-006  0.9118800E+02  0.7816164E-02  0.1184000E+00
        -11   -1    0    0    0    0  0.00000000000E+00  0.00000000000E+00  0.45593999997E+02  0.45594000000E+02  0.51100000000E-03 0. -1.
         11   -1    0    0    0    0 -0.00000000000E+00 -0.00000000000E+00 -0.45593999997E+02  0.45594000000E+02  0.51100000000E-03 0.  1.
         23    2    1    2    0    0 -0.71054273576E-14  0.00000000000E+00  0.00000000000E+00  0.91188000000E+02  0.91188000000E+02 0.  0.
    9900012    2    3    3    0    0  0.35058826881E+02  0.10816484126E+02 -0.31083634609E+01  0.54367087538E+02  0.40000007660E+02 0.  0.
         12    1    3    3    0    0 -0.35058826881E+02 -0.10816484126E+02  0.31083634609E+01  0.36820912462E+02  0.00000000000E+00 0. -1.
         11    1    4    4    0    0  0.38931197687E+01 -0.16083364453E+01  0.16408542950E+01  0.45205675234E+01  0.51100000000E-03 0. -1.
        -11    1    4    4    0    0  0.32136594225E+02 -0.46773282063E+01 -0.25283209898E+01  0.32573463046E+02  0.51100000000E-03 0.  1.
        -12    1    4    4    0    0 -0.97088711243E+00  0.17102148778E+02 -0.22208967660E+01  0.17273056969E+02  0.00000000000E+00 0.  1.
</event>
<event>
 8    1  0.2460897E-006  0.9118800E+02  0.7816164E-02  0.1184000E+00
        -11   -1    0    0    0    0  0.00000000000E+00  0.00000000000E+00  0.45593999997E+02  0.45594000000E+02  0.51100000000E-03 0.  1.
         11   -1    0    0    0    0 -0.00000000000E+00 -0.00000000000E+00 -0.45593999997E+02  0.45594000000E+02  0.51100000000E-03 0. -1.
         23    2    1    2    0    0  0.00000000000E+00  0.00000000000E+00  0.00000000000E+00  0.91188000000E+02  0.91188000000E+02 0.  0.
    9900012    2    3    3    0    0  0.25151138074E+02  0.30769905810E+01 -0.26715768224E+02  0.54367083536E+02  0.39999998536E+02 0.  0.
        -12    1    3    3    0    0 -0.25151138074E+02 -0.30769905810E+01  0.26715768224E+02  0.36820916464E+02  0.00000000000E+00 0.  1.
         11    1    4    4    0    0  0.26181613524E+02  0.28091517411E+00 -0.29510894518E+01  0.26348903758E+02  0.51100000000E-03 0. -1.
        -11    1    4    4    0    0 -0.65359723732E+01  0.46481095032E+01 -0.85039284168E+01  0.11689339399E+02  0.51100000000E-03 0.  1.
         12    1    4    4    0    0  0.55054969239E+01 -0.18520340963E+01 -0.15260750356E+02  0.16328840378E+02  0.00000000000E+00 0. -1.
</event>
<event>
 8    1  0.2460897E-006  0.9118800E+02  0.7816164E-02  0.1184000E+00
        -11   -1    0    0    0    0  0.00000000000E+00  0.00000000000E+00  0.45593999997E+02  0.45594000000E+02  0.51100000000E-03 0.  1.
         11   -1    0    0    0    0 -0.00000000000E+00 -0.00000000000E+00 -0.45593999997E+02  0.45594000000E+02  0.51100000000E-03 0. -1.
         23    2    1    2    0    0  0.00000000000E+00  0.00000000000E+00  0.00000000000E+00  0.91188000000E+02  0.91188000000E+02 0.  0.
    9900012    2    3    3    0    0 -0.15800663168E+02  0.32087393294E+02 -0.87474720818E+01  0.54367081588E+02  0.39999994095E+02 0.  0.
        -12    1    3    3    0    0  0.15800663168E+02 -0.32087393294E+02  0.87474720818E+01  0.36820918412E+02  0.00000000000E+00 0.  1.
         11    1    4    4    0    0 -0.98831411767E+01  0.19137332320E+02 -0.91121400173E+01  0.23386856646E+02  0.51100000000E-03 0. -1.
        -11    1    4    4    0    0 -0.15297020676E+02  0.20719663857E+01 -0.40399932921E+01  0.15956610929E+02  0.51100000000E-03 0.  1.
         12    1    4    4    0    0  0.93794986856E+01  0.10878094588E+02  0.44046612276E+01  0.15023614012E+02  0.00000000000E+00 0. -1.
</event>
<event>
 8    1  0.2460897E-006  0.9118800E+02  0.7816164E-02  0.1184000E+00
        -11   -1    0    0    0    0  0.00000000000E+00  0.00000000000E+00  0.45593999997E+02  0.45594000000E+02  0.51100000000E-03 0.  1.
         11   -1    0    0    0    0 -0.00000000000E+00 -0.00000000000E+00 -0.45593999997E+02  0.45594000000E+02  0.51100000000E-03 0. -1.
         23    2    1    2    0    0 -0.71054273576E-14  0.00000000000E+00 -0.11934897515E-14  0.91188000000E+02  0.91188000000E+02 0.  0.
    9900012    2    3    3    0    0 -0.32964928808E+02  0.16403628576E+02  0.12325707672E+00  0.54367071793E+02  0.39999971766E+02 0.  0.
        -12    1    3    3    0    0  0.32964928808E+02 -0.16403628576E+02 -0.12325707672E+00  0.36820928207E+02  0.00000000000E+00 0.  1.
         11    1    4    4    0    0 -0.88805948340E+01 -0.18965062454E+01  0.32630994305E+01  0.96493273703E+01  0.51100000000E-03 0. -1.
        -11    1    4    4    0    0  0.37030754829E+01  0.27067915090E+01  0.94126068514E+01  0.10470752423E+02  0.51100000000E-03 0.  1.
        -12    1    4    4    0    0 -0.27787409456E+02  0.15593343312E+02 -0.12552449205E+02  0.34246991999E+02  0.00000000000E+00 0.  1.
</event>
<event>
 8    1  0.2460897E-006  0.9118800E+02  0.7816164E-02  0.1184000E+00
        -11   -1    0    0    0    0  0.00000000000E+00  0.00000000000E+00  0.45593999997E+02  0.45594000000E+02  0.51100000000E-03 0.  1.
         11   -1    0    0    0    0 -0.00000000000E+00 -0.00000000000E+00 -0.45593999997E+02  0.45594000000E+02  0.51100000000E-03 0. -1.
         23    2    1    2    0    0  0.00000000000E+00  0.00000000000E+00 -0.88817841970E-15  0.91188000000E+02  0.91188000000E+02 0.  0.
    9900012    2    3    3    0    0 -0.34059518059E+02 -0.12548304862E+02  0.61861900678E+01  0.54367086474E+02  0.40000005235E+02 0.  0.
         12    1    3    3    0    0  0.34059518059E+02  0.12548304862E+02 -0.61861900678E+01  0.36820913526E+02  0.00000000000E+00 0. -1.
         11    1    4    4    0    0  0.31956095047E+01 -0.95474880323E+00  0.32301306948E+01  0.46429742569E+01  0.51100000000E-03 0. -1.
        -11    1    4    4    0    0 -0.30457193412E+02 -0.21139596060E+01  0.14066031688E+02  0.33614917871E+02  0.51100000000E-03 0.  1.
         12    1    4    4    0    0 -0.67979341514E+01 -0.94795964528E+01 -0.11109972315E+02  0.16109194346E+02  0.00000000000E+00 0. -1.
</event>
<event>
 8    1  0.2460897E-006  0.9118800E+02  0.7816164E-02  0.1184000E+00
        -11   -1    0    0    0    0  0.00000000000E+00  0.00000000000E+00  0.45593999997E+02  0.45594000000E+02  0.51100000000E-03 0. -1.
         11   -1    0    0    0    0 -0.00000000000E+00 -0.00000000000E+00 -0.45593999997E+02  0.45594000000E+02  0.51100000000E-03 0.  1.
         23    2    1    2    0    0  0.00000000000E+00  0.00000000000E+00  0.00000000000E+00  0.91188000000E+02  0.91188000000E+02 0.  0.
    9900012    2    3    3    0    0 -0.22956794844E+02  0.26664132299E+02  0.10853071881E+02  0.54367088143E+02  0.40000009039E+02 0.  0.
        -12    1    3    3    0    0  0.22956794844E+02 -0.26664132299E+02 -0.10853071881E+02  0.36820911857E+02  0.00000000000E+00 0.  1.
         11    1    4    4    0    0 -0.44528551042E+01  0.19099479142E+02  0.23772969834E+01  0.19755241413E+02  0.51100000000E-03 0. -1.
        -11    1    4    4    0    0 -0.18126317150E+02  0.13370840157E+02  0.14055827372E+02  0.26550122849E+02  0.51100000000E-03 0.  1.
        -12    1    4    4    0    0 -0.37762258965E+00 -0.58061870004E+01 -0.55800524743E+01  0.80617238802E+01  0.00000000000E+00 0.  1.
</event>
<event>
 8    1  0.2460897E-006  0.9118800E+02  0.7816164E-02  0.1184000E+00
        -11   -1    0    0    0    0  0.00000000000E+00  0.00000000000E+00  0.45593999997E+02  0.45594000000E+02  0.51100000000E-03 0.  1.
         11   -1    0    0    0    0 -0.00000000000E+00 -0.00000000000E+00 -0.45593999997E+02  0.45594000000E+02  0.51100000000E-03 0. -1.
         23    2    1    2    0    0  0.00000000000E+00  0.00000000000E+00  0.00000000000E+00  0.91188000000E+02  0.91188000000E+02 0.  0.
    9900012    2    3    3    0    0 -0.26109324483E+02 -0.23041027237E+02  0.11966736102E+02  0.54366966146E+02  0.39999730923E+02 0.  0.
         12    1    3    3    0    0  0.26109324483E+02  0.23041027237E+02 -0.11966736102E+02  0.36821033854E+02  0.00000000000E+00 0. -1.
         11    1    4    4    0    0  0.21356051584E+01  0.55855507720E+00  0.10490468747E+02  0.10720201862E+02  0.51100000000E-03 0. -1.
        -11    1    4    4    0    0 -0.19667590624E+02 -0.13253847664E+01  0.16093132351E+01  0.19777781854E+02  0.51100000000E-03 0.  1.
         12    1    4    4    0    0 -0.85773390178E+01 -0.22274197548E+02 -0.13304588061E+00  0.23868982430E+02  0.00000000000E+00 0. -1.
</event>
<event>
 8    1  0.2460897E-006  0.9118800E+02  0.7816164E-02  0.1184000E+00
        -11   -1    0    0    0    0  0.00000000000E+00  0.00000000000E+00  0.45593999997E+02  0.45594000000E+02  0.51100000000E-03 0. -1.
         11   -1    0    0    0    0 -0.00000000000E+00 -0.00000000000E+00 -0.45593999997E+02  0.45594000000E+02  0.51100000000E-03 0.  1.
         23    2    1    2    0    0  0.00000000000E+00  0.00000000000E+00  0.00000000000E+00  0.91188000000E+02  0.91188000000E+02 0.  0.
    9900012    2    3    3    0    0  0.10182440646E+02 -0.50570333058E+01 -0.35021765903E+02  0.54367085151E+02  0.40000002218E+02 0.  0.
         12    1    3    3    0    0 -0.10182440646E+02  0.50570333058E+01  0.35021765903E+02  0.36820914849E+02  0.00000000000E+00 0. -1.
         11    1    4    4    0    0  0.27668027208E+01  0.20707469745E+01 -0.22034625945E+01  0.40985897568E+01  0.51100000000E-03 0. -1.
        -11    1    4    4    0    0  0.18618936986E+02  0.38911497959E+01 -0.27967350585E+02  0.33822752109E+02  0.51100000000E-03 0.  1.
         12    1    4    4    0    0 -0.11203299061E+02 -0.11018930076E+02 -0.48509527239E+01  0.16445743285E+02  0.00000000000E+00 0. -1.
</event>
<event>
 8    1  0.2460897E-006  0.9118800E+02  0.7816164E-02  0.1184000E+00
        -11   -1    0    0    0    0  0.00000000000E+00  0.00000000000E+00  0.45593999997E+02  0.45594000000E+02  0.51100000000E-03 0. -1.
         11   -1    0    0    0    0 -0.00000000000E+00 -0.00000000000E+00 -0.45593999997E+02  0.45594000000E+02  0.51100000000E-03 0.  1.
         23    2    1    2    0    0  0.44408920985E-15 -0.35527136788E-14 -0.35527136788E-14  0.91188000000E+02  0.91188000000E+02 0.  0.
    9900012    2    3    3    0    0 -0.28104252689E+01  0.18649059823E+02 -0.31624258275E+02  0.54367087003E+02  0.40000006441E+02 0.  0.
         12    1    3    3    0    0  0.28104252689E+01 -0.18649059823E+02  0.31624258275E+02  0.36820912997E+02  0.00000000000E+00 0. -1.
         11    1    4    4    0    0 -0.73285579417E+01  0.65889786219E+01  0.11698846575E+01  0.99242647666E+01  0.51100000000E-03 0. -1.
        -11    1    4    4    0    0 -0.51438449992E+01  0.12696187672E+02 -0.31902229196E+02  0.34718936486E+02  0.51100000000E-03 0.  1.
         12    1    4    4    0    0  0.96619776720E+01 -0.63610647107E+00 -0.89191373687E+00  0.97238857506E+01  0.00000000000E+00 0. -1.
</event>
<event>
 8    1  0.2460897E-006  0.9118800E+02  0.7816164E-02  0.1184000E+00
        -11   -1    0    0    0    0  0.00000000000E+00  0.00000000000E+00  0.45593999997E+02  0.45594000000E+02  0.51100000000E-03 0. -1.
         11   -1    0    0    0    0 -0.00000000000E+00 -0.00000000000E+00 -0.45593999997E+02  0.45594000000E+02  0.51100000000E-03 0.  1.
         23    2    1    2    0    0  0.00000000000E+00  0.00000000000E+00 -0.26645352591E-14  0.91188000000E+02  0.91188000000E+02 0.  0.
    9900012    2    3    3    0    0 -0.11845488884E+02 -0.34492892774E+02  0.50696360967E+01  0.54367129980E+02  0.40000104416E+02 0.  0.
        -12    1    3    3    0    0  0.11845488884E+02  0.34492892774E+02 -0.50696360967E+01  0.36820870020E+02  0.00000000000E+00 0.  1.
         11    1    4    4    0    0 -0.26458027219E+01 -0.18329826091E+02 -0.65632820356E+01  0.19648396065E+02  0.51100000000E-03 0. -1.
        -11    1    4    4    0    0  0.15904128933E+01 -0.32451150608E+01 -0.80479346815E+01  0.88220994003E+01  0.51100000000E-03 0.  1.
         12    1    4    4    0    0 -0.10790099056E+02 -0.12917951622E+02  0.19680852814E+02  0.25896634515E+02  0.00000000000E+00 0. -1.
</event>
<event>
 8    1  0.2460897E-006  0.9118800E+02  0.7816164E-02  0.1184000E+00
        -11   -1    0    0    0    0  0.00000000000E+00  0.00000000000E+00  0.45593999997E+02  0.45594000000E+02  0.51100000000E-03 0.  1.
         11   -1    0    0    0    0 -0.00000000000E+00 -0.00000000000E+00 -0.45593999997E+02  0.45594000000E+02  0.51100000000E-03 0. -1.
         23    2    1    2    0    0 -0.13322676296E-14  0.71054273576E-14  0.00000000000E+00  0.91188000000E+02  0.91188000000E+02 0.  0.
    9900012    2    3    3    0    0 -0.38642872903E+01  0.33698968514E+02  0.14325733974E+02  0.54367084082E+02  0.39999999782E+02 0.  0.
         12    1    3    3    0    0  0.38642872903E+01 -0.33698968514E+02 -0.14325733974E+02  0.36820915918E+02  0.00000000000E+00 0. -1.
         11    1    4    4    0    0  0.12339961199E+02  0.22411081347E+02 -0.42947645081E+00  0.25587412136E+02  0.51100000000E-03 0. -1.
        -11    1    4    4    0    0 -0.38673878171E+01  0.65323642926E+01 -0.15903132535E+01  0.77561310126E+01  0.51100000000E-03 0.  1.
        -12    1    4    4    0    0 -0.12336860672E+02  0.47555228741E+01  0.16345523679E+02  0.21023540933E+02  0.00000000000E+00 0.  1.
</event>
<event>
 8    1  0.2460897E-006  0.9118800E+02  0.7816164E-02  0.1184000E+00
        -11   -1    0    0    0    0  0.00000000000E+00  0.00000000000E+00  0.45593999997E+02  0.45594000000E+02  0.51100000000E-03 0.  1.
         11   -1    0    0    0    0 -0.00000000000E+00 -0.00000000000E+00 -0.45593999997E+02  0.45594000000E+02  0.51100000000E-03 0. -1.
         23    2    1    2    0    0  0.00000000000E+00  0.00000000000E+00 -0.73552275381E-15  0.91188000000E+02  0.91188000000E+02 0.  0.
    9900012    2    3    3    0    0 -0.34046651483E+02  0.14021027581E+02 -0.44837769740E-01  0.54367276188E+02  0.40000437723E+02 0.  0.
         12    1    3    3    0    0  0.34046651483E+02 -0.14021027581E+02  0.44837769740E-01  0.36820723812E+02  0.00000000000E+00 0. -1.
         11    1    4    4    0    0 -0.15385045139E+00  0.44496142842E+01  0.13280478481E+02  0.14006921367E+02  0.51100000000E-03 0. -1.
        -11    1    4    4    0    0 -0.22473977673E+02  0.62225295849E+01 -0.15849447730E+02  0.28195824877E+02  0.51100000000E-03 0.  1.
        -12    1    4    4    0    0 -0.11418823359E+02  0.33488837114E+01  0.25241314796E+01  0.12164529943E+02  0.00000000000E+00 0.  1.
</event>
<event>
 8    1  0.2460897E-006  0.9118800E+02  0.7816164E-02  0.1184000E+00
        -11   -1    0    0    0    0  0.00000000000E+00  0.00000000000E+00  0.45593999997E+02  0.45594000000E+02  0.51100000000E-03 0. -1.
         11   -1    0    0    0    0 -0.00000000000E+00 -0.00000000000E+00 -0.45593999997E+02  0.45594000000E+02  0.51100000000E-03 0.  1.
         23    2    1    2    0    0 -0.17763568394E-14 -0.44408920985E-15  0.71054273576E-14  0.91188000000E+02  0.91188000000E+02 0.  0.
    9900012    2    3    3    0    0  0.11438478516E+02  0.18447501307E+01 -0.34950537668E+02  0.54367055185E+02  0.39999933905E+02 0.  0.
         12    1    3    3    0    0 -0.11438478516E+02 -0.18447501307E+01  0.34950537668E+02  0.36820944815E+02  0.00000000000E+00 0. -1.
         11    1    4    4    0    0  0.24656201698E+01  0.23254405142E+00  0.73832727329E+01  0.77875590571E+01  0.51100000000E-03 0. -1.
        -11    1    4    4    0    0  0.51324028664E+01 -0.11298445572E+00 -0.12541044785E+01  0.52846100116E+01  0.51100000000E-03 0.  1.
        -12    1    4    4    0    0  0.38404554802E+01  0.17251905350E+01 -0.41079705922E+02  0.41294886116E+02  0.00000000000E+00 0.  1.
</event>
<event>
 8    1  0.2460897E-006  0.9118800E+02  0.7816164E-02  0.1184000E+00
        -11   -1    0    0    0    0  0.00000000000E+00  0.00000000000E+00  0.45593999997E+02  0.45594000000E+02  0.51100000000E-03 0. -1.
         11   -1    0    0    0    0 -0.00000000000E+00 -0.00000000000E+00 -0.45593999997E+02  0.45594000000E+02  0.51100000000E-03 0.  1.
         23    2    1    2    0    0  0.00000000000E+00  0.35527136788E-14  0.11878519002E-14  0.91188000000E+02  0.91188000000E+02 0.  0.
    9900012    2    3    3    0    0 -0.26237921128E+02 -0.25833166113E+02  0.36176319645E-02  0.54367068593E+02  0.39999964472E+02 0.  0.
        -12    1    3    3    0    0  0.26237921128E+02  0.25833166113E+02 -0.36176319645E-02  0.36820931407E+02  0.00000000000E+00 0.  1.
         11    1    4    4    0    0 -0.76212132229E+01 -0.21422553211E+02  0.16097802785E+02  0.27859431649E+02  0.51100000000E-03 0. -1.
        -11    1    4    4    0    0 -0.11614133153E+02  0.16986008939E+01 -0.82548378772E+01  0.14349762455E+02  0.51100000000E-03 0.  1.
        -12    1    4    4    0    0 -0.70025747528E+01 -0.61092137963E+01 -0.78393472758E+01  0.12157874489E+02  0.00000000000E+00 0.  1.
</event>
<event>
 8    1  0.2460897E-006  0.9118800E+02  0.7816164E-02  0.1184000E+00
        -11   -1    0    0    0    0  0.00000000000E+00  0.00000000000E+00  0.45593999997E+02  0.45594000000E+02  0.51100000000E-03 0. -1.
         11   -1    0    0    0    0 -0.00000000000E+00 -0.00000000000E+00 -0.45593999997E+02  0.45594000000E+02  0.51100000000E-03 0.  1.
         23    2    1    2    0    0  0.00000000000E+00  0.00000000000E+00 -0.33306690739E-15  0.91188000000E+02  0.91188000000E+02 0.  0.
    9900012    2    3    3    0    0  0.29887614269E+02 -0.21483750330E+02  0.97901139945E+00  0.54367089117E+02  0.40000011260E+02 0.  0.
        -12    1    3    3    0    0 -0.29887614269E+02  0.21483750330E+02 -0.97901139945E+00  0.36820910883E+02  0.00000000000E+00 0.  1.
         11    1    4    4    0    0  0.19354977507E+02 -0.18382262264E+01  0.33818704310E+01  0.19734013221E+02  0.51100000000E-03 0. -1.
        -11    1    4    4    0    0 -0.42160289224E+01  0.27815135937E+01  0.46655290082E+01  0.68759638549E+01  0.51100000000E-03 0.  1.
         12    1    4    4    0    0  0.14748665685E+02 -0.22427037697E+02 -0.70683880398E+01  0.27757112041E+02  0.00000000000E+00 0. -1.
</event>
<event>
 8    1  0.2460897E-006  0.9118800E+02  0.7816164E-02  0.1184000E+00
        -11   -1    0    0    0    0  0.00000000000E+00  0.00000000000E+00  0.45593999997E+02  0.45594000000E+02  0.51100000000E-03 0.  1.
         11   -1    0    0    0    0 -0.00000000000E+00 -0.00000000000E+00 -0.45593999997E+02  0.45594000000E+02  0.51100000000E-03 0. -1.
         23    2    1    2    0    0 -0.17763568394E-14 -0.35527136788E-14  0.71054273576E-14  0.91188000000E+02  0.91188000000E+02 0.  0.
    9900012    2    3    3    0    0  0.83050797222E+01  0.21672289374E+02 -0.28585287896E+02  0.54367066280E+02  0.39999959198E+02 0.  0.
        -12    1    3    3    0    0 -0.83050797222E+01 -0.21672289374E+02  0.28585287896E+02  0.36820933720E+02  0.00000000000E+00 0.  1.
         11    1    4    4    0    0  0.76315941628E+01 -0.28819124439E+01 -0.18653419239E+02  0.20359191987E+02  0.51100000000E-03 0. -1.
        -11    1    4    4    0    0 -0.23983774660E+00  0.27743871900E+02 -0.51988796998E+01  0.28227793051E+02  0.51100000000E-03 0.  1.
         12    1    4    4    0    0  0.91332330601E+00 -0.31896700819E+01 -0.47329889575E+01  0.57800812420E+01  0.00000000000E+00 0. -1.
</event>
<event>
 8    1  0.2460897E-006  0.9118800E+02  0.7816164E-02  0.1184000E+00
        -11   -1    0    0    0    0  0.00000000000E+00  0.00000000000E+00  0.45593999997E+02  0.45594000000E+02  0.51100000000E-03 0.  1.
         11   -1    0    0    0    0 -0.00000000000E+00 -0.00000000000E+00 -0.45593999997E+02  0.45594000000E+02  0.51100000000E-03 0. -1.
         23    2    1    2    0    0  0.00000000000E+00 -0.71054273576E-14  0.00000000000E+00  0.91188000000E+02  0.91188000000E+02 0.  0.
    9900012    2    3    3    0    0  0.19362683416E+02  0.29607371983E+02  0.10211193255E+02  0.54367103046E+02  0.40000043014E+02 0.  0.
         12    1    3    3    0    0 -0.19362683416E+02 -0.29607371983E+02 -0.10211193255E+02  0.36820896954E+02  0.00000000000E+00 0. -1.
         11    1    4    4    0    0 -0.75520632100E+00  0.49405652313E+01  0.64170223460E+01  0.81337382207E+01  0.51100000000E-03 0. -1.
        -11    1    4    4    0    0  0.10159688270E+02 -0.41982177799E+01  0.10242870064E+02  0.15025334794E+02  0.51100000000E-03 0.  1.
         12    1    4    4    0    0  0.99582014669E+01  0.28865024531E+02 -0.64486991545E+01  0.31208030031E+02  0.00000000000E+00 0. -1.
</event>
<event>
 8    1  0.2460897E-006  0.9118800E+02  0.7816164E-02  0.1184000E+00
        -11   -1    0    0    0    0  0.00000000000E+00  0.00000000000E+00  0.45593999997E+02  0.45594000000E+02  0.51100000000E-03 0.  1.
         11   -1    0    0    0    0 -0.00000000000E+00 -0.00000000000E+00 -0.45593999997E+02  0.45594000000E+02  0.51100000000E-03 0. -1.
         23    2    1    2    0    0  0.71054273576E-14 -0.17763568394E-14  0.88817841970E-15  0.91188000000E+02  0.91188000000E+02 0.  0.
    9900012    2    3    3    0    0  0.35271633251E+02 -0.98946672846E+01 -0.37132401791E+01  0.54367072452E+02  0.39999973270E+02 0.  0.
        -12    1    3    3    0    0 -0.35271633251E+02  0.98946672846E+01  0.37132401791E+01  0.36820927548E+02  0.00000000000E+00 0.  1.
         11    1    4    4    0    0  0.20393314677E+02 -0.10057015812E+01 -0.13671024676E+02  0.24572253359E+02  0.51100000000E-03 0. -1.
        -11    1    4    4    0    0 -0.18607047802E+01 -0.51551766555E+01  0.11333705391E+02  0.12589318758E+02  0.51100000000E-03 0.  1.
         12    1    4    4    0    0  0.16739023354E+02 -0.37337890479E+01 -0.13759208944E+01  0.17205500335E+02  0.00000000000E+00 0. -1.
</event>
<event>
 8    1  0.2460897E-006  0.9118800E+02  0.7816164E-02  0.1184000E+00
        -11   -1    0    0    0    0  0.00000000000E+00  0.00000000000E+00  0.45593999997E+02  0.45594000000E+02  0.51100000000E-03 0.  1.
         11   -1    0    0    0    0 -0.00000000000E+00 -0.00000000000E+00 -0.45593999997E+02  0.45594000000E+02  0.51100000000E-03 0. -1.
         23    2    1    2    0    0  0.88817841970E-15  0.00000000000E+00 -0.88817841970E-15  0.91188000000E+02  0.91188000000E+02 0.  0.
    9900012    2    3    3    0    0 -0.70193189831E+01  0.35904476036E+02  0.41686300888E+01  0.54367085899E+02  0.40000003924E+02 0.  0.
        -12    1    3    3    0    0  0.70193189831E+01 -0.35904476036E+02 -0.41686300888E+01  0.36820914101E+02  0.00000000000E+00 0.  1.
         11    1    4    4    0    0  0.19180025893E+01  0.70648189536E+01 -0.13045335380E+02  0.14958983128E+02  0.51100000000E-03 0. -1.
        -11    1    4    4    0    0 -0.10304887256E+02  0.83532442350E+01  0.12744273558E+02  0.18395214035E+02  0.51100000000E-03 0.  1.
        -12    1    4    4    0    0  0.13675656837E+01  0.20486412848E+02  0.44696919109E+01  0.21012888736E+02  0.00000000000E+00 0.  1.
</event>
<event>
 8    1  0.2460897E-006  0.9118800E+02  0.7816164E-02  0.1184000E+00
        -11   -1    0    0    0    0  0.00000000000E+00  0.00000000000E+00  0.45593999997E+02  0.45594000000E+02  0.51100000000E-03 0. -1.
         11   -1    0    0    0    0 -0.00000000000E+00 -0.00000000000E+00 -0.45593999997E+02  0.45594000000E+02  0.51100000000E-03 0.  1.
         23    2    1    2    0    0  0.00000000000E+00  0.00000000000E+00 -0.35527136788E-14  0.91188000000E+02  0.91188000000E+02 0.  0.
    9900012    2    3    3    0    0  0.23828789699E+02 -0.19661278755E+02  0.20035018600E+02  0.54367094646E+02  0.40000023865E+02 0.  0.
        -12    1    3    3    0    0 -0.23828789699E+02  0.19661278755E+02 -0.20035018600E+02  0.36820905354E+02  0.00000000000E+00 0.  1.
         11    1    4    4    0    0  0.92738244454E+01 -0.49738744458E+01 -0.63312846994E+01  0.12281221969E+02  0.51100000000E-03 0. -1.
        -11    1    4    4    0    0 -0.21110171678E+01 -0.11311938427E+02  0.10042959473E+01  0.11550972040E+02  0.51100000000E-03 0.  1.
         12    1    4    4    0    0  0.16665982421E+02 -0.33754658817E+01  0.25362007352E+02  0.30534900637E+02  0.00000000000E+00 0. -1.
</event>
<event>
 8    1  0.2460897E-006  0.9118800E+02  0.7816164E-02  0.1184000E+00
        -11   -1    0    0    0    0  0.00000000000E+00  0.00000000000E+00  0.45593999997E+02  0.45594000000E+02  0.51100000000E-03 0.  1.
         11   -1    0    0    0    0 -0.00000000000E+00 -0.00000000000E+00 -0.45593999997E+02  0.45594000000E+02  0.51100000000E-03 0. -1.
         23    2    1    2    0    0 -0.71054273576E-14  0.88817841970E-15  0.00000000000E+00  0.91188000000E+02  0.91188000000E+02 0.  0.
    9900012    2    3    3    0    0  0.29313192456E+02 -0.41039481889E+01 -0.21901544990E+02  0.54367037008E+02  0.39999892467E+02 0.  0.
        -12    1    3    3    0    0 -0.29313192456E+02  0.41039481889E+01  0.21901544990E+02  0.36820962992E+02  0.00000000000E+00 0.  1.
         11    1    4    4    0    0  0.12995443958E+02  0.60695958497E+01 -0.21368123839E+02  0.25735544955E+02  0.51100000000E-03 0. -1.
        -11    1    4    4    0    0  0.20140276945E+02 -0.86718940559E+01 -0.50758870989E+01  0.22507712723E+02  0.51100000000E-03 0.  1.
         12    1    4    4    0    0 -0.38225284464E+01 -0.15016499827E+01  0.45424659479E+01  0.61237793300E+01  0.00000000000E+00 0. -1.
</event>
<event>
 8    1  0.2460897E-006  0.9118800E+02  0.7816164E-02  0.1184000E+00
        -11   -1    0    0    0    0  0.00000000000E+00  0.00000000000E+00  0.45593999997E+02  0.45594000000E+02  0.51100000000E-03 0. -1.
         11   -1    0    0    0    0 -0.00000000000E+00 -0.00000000000E+00 -0.45593999997E+02  0.45594000000E+02  0.51100000000E-03 0.  1.
         23    2    1    2    0    0  0.00000000000E+00  0.00000000000E+00  0.17763568394E-14  0.91188000000E+02  0.91188000000E+02 0.  0.
    9900012    2    3    3    0    0  0.28149820529E+02 -0.17959758877E+02 -0.15518196623E+02  0.54367085276E+02  0.40000002504E+02 0.  0.
         12    1    3    3    0    0 -0.28149820529E+02  0.17959758877E+02  0.15518196623E+02  0.36820914724E+02  0.00000000000E+00 0. -1.
         11    1    4    4    0    0 -0.14851742704E+01  0.75820583340E+01  0.59318879939E+00  0.77488853654E+01  0.51100000000E-03 0. -1.
        -11    1    4    4    0    0  0.24585953224E+02 -0.15804852118E+02 -0.27872984608E+01  0.29360372603E+02  0.51100000000E-03 0.  1.
        -12    1    4    4    0    0  0.50490415750E+01 -0.97369650927E+01 -0.13324086961E+02  0.17257827308E+02  0.00000000000E+00 0.  1.
</event>
<event>
 8    1  0.2460897E-006  0.9118800E+02  0.7816164E-02  0.1184000E+00
        -11   -1    0    0    0    0  0.00000000000E+00  0.00000000000E+00  0.45593999997E+02  0.45594000000E+02  0.51100000000E-03 0.  1.
         11   -1    0    0    0    0 -0.00000000000E+00 -0.00000000000E+00 -0.45593999997E+02  0.45594000000E+02  0.51100000000E-03 0. -1.
         23    2    1    2    0    0  0.00000000000E+00  0.17763568394E-14  0.00000000000E+00  0.91188000000E+02  0.91188000000E+02 0.  0.
    9900012    2    3    3    0    0 -0.17748440230E+02 -0.54471231062E+01 -0.31797825116E+02  0.54367082537E+02  0.39999996258E+02 0.  0.
        -12    1    3    3    0    0  0.17748440230E+02  0.54471231062E+01  0.31797825116E+02  0.36820917463E+02  0.00000000000E+00 0.  1.
         11    1    4    4    0    0 -0.28091466886E+01 -0.13194647115E+02 -0.68155075836E+01  0.15114270127E+02  0.51100000000E-03 0. -1.
        -11    1    4    4    0    0 -0.48840981374E+01 -0.36997196939E+01  0.34234852156E+01  0.70187314888E+01  0.51100000000E-03 0.  1.
         12    1    4    4    0    0 -0.10055195404E+02  0.11447243703E+02 -0.28405802748E+02  0.32234080920E+02  0.00000000000E+00 0. -1.
</event>
<event>
 8    1  0.2460897E-006  0.9118800E+02  0.7816164E-02  0.1184000E+00
        -11   -1    0    0    0    0  0.00000000000E+00  0.00000000000E+00  0.45593999997E+02  0.45594000000E+02  0.51100000000E-03 0.  1.
         11   -1    0    0    0    0 -0.00000000000E+00 -0.00000000000E+00 -0.45593999997E+02  0.45594000000E+02  0.51100000000E-03 0. -1.
         23    2    1    2    0    0  0.00000000000E+00  0.44408920985E-15 -0.71054273576E-14  0.91188000000E+02  0.91188000000E+02 0.  0.
    9900012    2    3    3    0    0  0.78540854199E+01 -0.21777056208E+01 -0.35907468135E+02  0.54367145483E+02  0.40000139757E+02 0.  0.
        -12    1    3    3    0    0 -0.78540854199E+01  0.21777056208E+01  0.35907468135E+02  0.36820854517E+02  0.00000000000E+00 0.  1.
         11    1    4    4    0    0  0.14785155202E+02  0.57472234750E+01 -0.17655896104E+02  0.23735249304E+02  0.51100000000E-03 0. -1.
        -11    1    4    4    0    0 -0.30656924903E+01  0.28199667696E+01  0.39026078729E+01  0.57079796335E+01  0.51100000000E-03 0.  1.
         12    1    4    4    0    0 -0.38653772919E+01 -0.10744895865E+02 -0.22154179903E+02  0.24923916545E+02  0.00000000000E+00 0. -1.
</event>
<event>
 8    1  0.2460897E-006  0.9118800E+02  0.7816164E-02  0.1184000E+00
        -11   -1    0    0    0    0  0.00000000000E+00  0.00000000000E+00  0.45593999997E+02  0.45594000000E+02  0.51100000000E-03 0.  1.
         11   -1    0    0    0    0 -0.00000000000E+00 -0.00000000000E+00 -0.45593999997E+02  0.45594000000E+02  0.51100000000E-03 0. -1.
         23    2    1    2    0    0  0.00000000000E+00  0.17763568394E-14  0.00000000000E+00  0.91188000000E+02  0.91188000000E+02 0.  0.
    9900012    2    3    3    0    0 -0.22237298012E+02  0.13214017446E+02 -0.26204432926E+02  0.54367082237E+02  0.39999995575E+02 0.  0.
        -12    1    3    3    0    0  0.22237298012E+02 -0.13214017446E+02  0.26204432926E+02  0.36820917763E+02  0.00000000000E+00 0.  1.
         11    1    4    4    0    0  0.45491835764E+01  0.57960456708E+01 -0.57473523094E+01  0.93445853551E+01  0.51100000000E-03 0.  1.
        -11    1    4    4    0    0 -0.19914823281E+02  0.11087603252E+02 -0.26652029990E+02  0.35069443039E+02  0.51100000000E-03 0. -1.
        -12    1    4    4    0    0 -0.68716583068E+01 -0.36696314762E+01  0.61949493733E+01  0.99530538426E+01  0.00000000000E+00 0.  1.
</event>
<event>
 8    1  0.2460897E-006  0.9118800E+02  0.7816164E-02  0.1184000E+00
        -11   -1    0    0    0    0  0.00000000000E+00  0.00000000000E+00  0.45593999997E+02  0.45594000000E+02  0.51100000000E-03 0. -1.
         11   -1    0    0    0    0 -0.00000000000E+00 -0.00000000000E+00 -0.45593999997E+02  0.45594000000E+02  0.51100000000E-03 0.  1.
         23    2    1    2    0    0  0.00000000000E+00  0.00000000000E+00  0.88817841970E-15  0.91188000000E+02  0.91188000000E+02 0.  0.
    9900012    2    3    3    0    0  0.31408469054E+02 -0.19034595558E+02  0.26405620021E+01  0.54367077632E+02  0.39999985078E+02 0.  0.
         12    1    3    3    0    0 -0.31408469054E+02  0.19034595558E+02 -0.26405620021E+01  0.36820922368E+02  0.00000000000E+00 0. -1.
         11    1    4    4    0    0 -0.31482153459E+01  0.83574809539E+00  0.43930330895E+00  0.32867495191E+01  0.51100000000E-03 0. -1.
        -11    1    4    4    0    0  0.82815691357E+01  0.56726906322E+01  0.93806818583E+01  0.13739031944E+02  0.51100000000E-03 0.  1.
        -12    1    4    4    0    0  0.26275115264E+02 -0.25543034285E+02 -0.71794231652E+01  0.37341296169E+02  0.00000000000E+00 0.  1.
</event>
<event>
 8    1  0.2460897E-006  0.9118800E+02  0.7816164E-02  0.1184000E+00
        -11   -1    0    0    0    0  0.00000000000E+00  0.00000000000E+00  0.45593999997E+02  0.45594000000E+02  0.51100000000E-03 0. -1.
         11   -1    0    0    0    0 -0.00000000000E+00 -0.00000000000E+00 -0.45593999997E+02  0.45594000000E+02  0.51100000000E-03 0.  1.
         23    2    1    2    0    0 -0.35527136788E-14 -0.17763568394E-14  0.00000000000E+00  0.91188000000E+02  0.91188000000E+02 0.  0.
    9900012    2    3    3    0    0 -0.11065835862E+02 -0.15319906607E+02 -0.31601146709E+02  0.54367017733E+02  0.39999848527E+02 0.  0.
         12    1    3    3    0    0  0.11065835862E+02  0.15319906607E+02  0.31601146709E+02  0.36820982267E+02  0.00000000000E+00 0. -1.
         11    1    4    4    0    0  0.56015451972E+01 -0.10689680901E+02 -0.15462967857E+02  0.19615044266E+02  0.51100000000E-03 0. -1.
        -11    1    4    4    0    0  0.18727445504E+01 -0.89549169559E+01 -0.12302939852E+02  0.15331667851E+02  0.51100000000E-03 0.  1.
         12    1    4    4    0    0 -0.18540125610E+02  0.43246912501E+01 -0.38352389998E+01  0.19420305616E+02  0.00000000000E+00 0. -1.
</event>
<event>
 8    1  0.2460897E-006  0.9118800E+02  0.7816164E-02  0.1184000E+00
        -11   -1    0    0    0    0  0.00000000000E+00  0.00000000000E+00  0.45593999997E+02  0.45594000000E+02  0.51100000000E-03 0. -1.
         11   -1    0    0    0    0 -0.00000000000E+00 -0.00000000000E+00 -0.45593999997E+02  0.45594000000E+02  0.51100000000E-03 0.  1.
         23    2    1    2    0    0 -0.35527136788E-14  0.00000000000E+00  0.00000000000E+00  0.91188000000E+02  0.91188000000E+02 0.  0.
    9900012    2    3    3    0    0  0.23027831573E+02  0.13312621629E+02 -0.25461214673E+02  0.54367076951E+02  0.39999983525E+02 0.  0.
         12    1    3    3    0    0 -0.23027831573E+02 -0.13312621629E+02  0.25461214673E+02  0.36820923049E+02  0.00000000000E+00 0. -1.
         11    1    4    4    0    0 -0.46626566382E+01 -0.62766571999E+01 -0.36927068066E+01  0.86471311053E+01  0.51100000000E-03 0. -1.
        -11    1    4    4    0    0 -0.26689468383E+01  0.63388269341E+01 -0.20798947158E+01  0.71853995307E+01  0.51100000000E-03 0.  1.
        -12    1    4    4    0    0  0.30359435049E+02  0.13250451895E+02 -0.19688613150E+02  0.38534546315E+02  0.00000000000E+00 0.  1.
</event>
<event>
 8    1  0.2460897E-006  0.9118800E+02  0.7816164E-02  0.1184000E+00
        -11   -1    0    0    0    0  0.00000000000E+00  0.00000000000E+00  0.45593999997E+02  0.45594000000E+02  0.51100000000E-03 0.  1.
         11   -1    0    0    0    0 -0.00000000000E+00 -0.00000000000E+00 -0.45593999997E+02  0.45594000000E+02  0.51100000000E-03 0. -1.
         23    2    1    2    0    0 -0.35527136788E-14 -0.88817841970E-15  0.00000000000E+00  0.91188000000E+02  0.91188000000E+02 0.  0.
    9900012    2    3    3    0    0 -0.25364416248E+02  0.42147671919E+01 -0.26356435905E+02  0.54367087631E+02  0.40000007872E+02 0.  0.
        -12    1    3    3    0    0  0.25364416248E+02 -0.42147671919E+01  0.26356435905E+02  0.36820912369E+02  0.00000000000E+00 0.  1.
         11    1    4    4    0    0 -0.10237661871E+02  0.95129982366E+01 -0.17297367488E+02  0.22237485881E+02  0.51100000000E-03 0. -1.
        -11    1    4    4    0    0 -0.99975226939E+01  0.84507073706E+01  0.26499007669E+01  0.13356155488E+02  0.51100000000E-03 0.  1.
        -12    1    4    4    0    0 -0.51292316832E+01 -0.13748938415E+02 -0.11708969183E+02  0.18773446262E+02  0.00000000000E+00 0.  1.
</event>
<event>
 8    1  0.2460897E-006  0.9118800E+02  0.7816164E-02  0.1184000E+00
        -11   -1    0    0    0    0  0.00000000000E+00  0.00000000000E+00  0.45593999997E+02  0.45594000000E+02  0.51100000000E-03 0. -1.
         11   -1    0    0    0    0 -0.00000000000E+00 -0.00000000000E+00 -0.45593999997E+02  0.45594000000E+02  0.51100000000E-03 0.  1.
         23    2    1    2    0    0  0.00000000000E+00  0.00000000000E+00  0.00000000000E+00  0.91188000000E+02  0.91188000000E+02 0.  0.
    9900012    2    3    3    0    0  0.95429087948E+01 -0.12038214766E+02  0.33463330741E+02  0.54367078945E+02  0.39999988072E+02 0.  0.
        -12    1    3    3    0    0 -0.95429087948E+01  0.12038214766E+02 -0.33463330741E+02  0.36820921055E+02  0.00000000000E+00 0.  1.
         11    1    4    4    0    0  0.14142595584E+02 -0.86525907163E+01  0.10029062979E+02  0.19376853213E+02  0.51100000000E-03 0. -1.
        -11    1    4    4    0    0 -0.86056381055E+01 -0.12947723805E+02  0.15300667935E+02  0.21813092363E+02  0.51100000000E-03 0.  1.
         12    1    4    4    0    0  0.40059513166E+01  0.95620997549E+01  0.81335998275E+01  0.13177133369E+02  0.00000000000E+00 0. -1.
</event>
<event>
 8    1  0.2460897E-006  0.9118800E+02  0.7816164E-02  0.1184000E+00
        -11   -1    0    0    0    0  0.00000000000E+00  0.00000000000E+00  0.45593999997E+02  0.45594000000E+02  0.51100000000E-03 0. -1.
         11   -1    0    0    0    0 -0.00000000000E+00 -0.00000000000E+00 -0.45593999997E+02  0.45594000000E+02  0.51100000000E-03 0.  1.
         23    2    1    2    0    0  0.13322676296E-14  0.17763568394E-14  0.00000000000E+00  0.91188000000E+02  0.91188000000E+02 0.  0.
    9900012    2    3    3    0    0 -0.21703985356E+01 -0.31881277669E+01  0.36618410775E+02  0.54367044062E+02  0.39999908549E+02 0.  0.
        -12    1    3    3    0    0  0.21703985356E+01  0.31881277669E+01 -0.36618410775E+02  0.36820955938E+02  0.00000000000E+00 0.  1.
         11    1    4    4    0    0  0.11217914831E+02 -0.87693291743E+01  0.26223850707E+01  0.14478247513E+02  0.51100000000E-03 0. -1.
        -11    1    4    4    0    0 -0.96556457854E+01 -0.39928598921E+01  0.14820752521E+02  0.18133646384E+02  0.51100000000E-03 0.  1.
         12    1    4    4    0    0 -0.37326675812E+01  0.95740612995E+01  0.19175273184E+02  0.21755150165E+02  0.00000000000E+00 0. -1.
</event>
<event>
 8    1  0.2460897E-006  0.9118800E+02  0.7816164E-02  0.1184000E+00
        -11   -1    0    0    0    0  0.00000000000E+00  0.00000000000E+00  0.45593999997E+02  0.45594000000E+02  0.51100000000E-03 0. -1.
         11   -1    0    0    0    0 -0.00000000000E+00 -0.00000000000E+00 -0.45593999997E+02  0.45594000000E+02  0.51100000000E-03 0.  1.
         23    2    1    2    0    0  0.00000000000E+00  0.35527136788E-14  0.35527136788E-14  0.91188000000E+02  0.91188000000E+02 0.  0.
    9900012    2    3    3    0    0 -0.14321687951E+02 -0.24615393582E+02 -0.23339892170E+02  0.54367096786E+02  0.40000028743E+02 0.  0.
         12    1    3    3    0    0  0.14321687951E+02  0.24615393582E+02  0.23339892170E+02  0.36820903214E+02  0.00000000000E+00 0. -1.
         11    1    4    4    0    0  0.86395505840E+01  0.19159523499E+01 -0.12301558617E+02  0.15153912115E+02  0.51100000000E-03 0. -1.
        -11    1    4    4    0    0 -0.22565026185E+02 -0.23853679400E+02 -0.58380152584E+01  0.33350574959E+02  0.51100000000E-03 0.  1.
        -12    1    4    4    0    0 -0.39621235020E+00 -0.26776665322E+01 -0.52003182942E+01  0.58626097128E+01  0.00000000000E+00 0.  1.
</event>
<event>
 8    1  0.2460897E-006  0.9118800E+02  0.7816164E-02  0.1184000E+00
        -11   -1    0    0    0    0  0.00000000000E+00  0.00000000000E+00  0.45593999997E+02  0.45594000000E+02  0.51100000000E-03 0.  1.
         11   -1    0    0    0    0 -0.00000000000E+00 -0.00000000000E+00 -0.45593999997E+02  0.45594000000E+02  0.51100000000E-03 0. -1.
         23    2    1    2    0    0 -0.71054273576E-14  0.44408920985E-15 -0.66613381478E-15  0.91188000000E+02  0.91188000000E+02 0.  0.
    9900012    2    3    3    0    0 -0.36639581146E+02  0.32007519674E+01  0.17550599717E+01  0.54367028323E+02  0.39999872669E+02 0.  0.
        -12    1    3    3    0    0  0.36639581146E+02 -0.32007519674E+01 -0.17550599717E+01  0.36820971677E+02  0.00000000000E+00 0.  1.
         11    1    4    4    0    0 -0.35358771600E+02  0.29337993321E+00 -0.16321305148E+01  0.35397636236E+02  0.51100000000E-03 0. -1.
        -11    1    4    4    0    0  0.74974701711E+01  0.25841070683E+01 -0.25921956560E+01  0.83432096274E+01  0.51100000000E-03 0.  1.
        -12    1    4    4    0    0 -0.87782797172E+01  0.32326496594E+00  0.59793861424E+01  0.10626182460E+02  0.00000000000E+00 0.  1.
</event>
<event>
 8    1  0.2460897E-006  0.9118800E+02  0.7816164E-02  0.1184000E+00
        -11   -1    0    0    0    0  0.00000000000E+00  0.00000000000E+00  0.45593999997E+02  0.45594000000E+02  0.51100000000E-03 0.  1.
         11   -1    0    0    0    0 -0.00000000000E+00 -0.00000000000E+00 -0.45593999997E+02  0.45594000000E+02  0.51100000000E-03 0. -1.
         23    2    1    2    0    0 -0.17763568394E-14  0.00000000000E+00  0.71054273576E-14  0.91188000000E+02  0.91188000000E+02 0.  0.
    9900012    2    3    3    0    0  0.10654540135E+02  0.41729584617E+01 -0.34997816046E+02  0.54367082903E+02  0.39999997095E+02 0.  0.
        -12    1    3    3    0    0 -0.10654540135E+02 -0.41729584617E+01  0.34997816046E+02  0.36820917097E+02  0.00000000000E+00 0.  1.
         11    1    4    4    0    0  0.96643958162E+01  0.64703914166E+01  0.35455846719E+01  0.12158852022E+02  0.51100000000E-03 0. -1.
        -11    1    4    4    0    0 -0.11948678948E+01  0.82146378733E+00  0.14401988196E+01  0.20436939451E+01  0.51100000000E-03 0.  1.
         12    1    4    4    0    0  0.21850122135E+01 -0.31188967422E+01 -0.39983599538E+02  0.40164536936E+02  0.00000000000E+00 0. -1.
</event>
<event>
 8    1  0.2460897E-006  0.9118800E+02  0.7816164E-02  0.1184000E+00
        -11   -1    0    0    0    0  0.00000000000E+00  0.00000000000E+00  0.45593999997E+02  0.45594000000E+02  0.51100000000E-03 0.  1.
         11   -1    0    0    0    0 -0.00000000000E+00 -0.00000000000E+00 -0.45593999997E+02  0.45594000000E+02  0.51100000000E-03 0. -1.
         23    2    1    2    0    0  0.00000000000E+00  0.00000000000E+00 -0.35527136788E-14  0.91188000000E+02  0.91188000000E+02 0.  0.
    9900012    2    3    3    0    0  0.94532781365E+01  0.26167461303E+02 -0.24118021892E+02  0.54367089113E+02  0.40000011252E+02 0.  0.
        -12    1    3    3    0    0 -0.94532781365E+01 -0.26167461303E+02  0.24118021892E+02  0.36820910887E+02  0.00000000000E+00 0.  1.
         11    1    4    4    0    0  0.11492897099E+02  0.20169129990E+02 -0.86714350106E+01  0.24780522062E+02  0.51100000000E-03 0. -1.
        -11    1    4    4    0    0  0.99204950821E+01  0.63376173911E+01 -0.26480278853E+01  0.12066220154E+02  0.51100000000E-03 0.  1.
         12    1    4    4    0    0 -0.11960114045E+02 -0.33928607807E+00 -0.12798558996E+02  0.17520346897E+02  0.00000000000E+00 0. -1.
</event>
<event>
 8    1  0.2460897E-006  0.9118800E+02  0.7816164E-02  0.1184000E+00
        -11   -1    0    0    0    0  0.00000000000E+00  0.00000000000E+00  0.45593999997E+02  0.45594000000E+02  0.51100000000E-03 0. -1.
         11   -1    0    0    0    0 -0.00000000000E+00 -0.00000000000E+00 -0.45593999997E+02  0.45594000000E+02  0.51100000000E-03 0.  1.
         23    2    1    2    0    0  0.00000000000E+00 -0.88817841970E-15 -0.35527136788E-14  0.91188000000E+02  0.91188000000E+02 0.  0.
    9900012    2    3    3    0    0  0.21287263915E+02 -0.43862956284E+01 -0.29721880817E+02  0.54367117425E+02  0.40000075793E+02 0.  0.
         12    1    3    3    0    0 -0.21287263915E+02  0.43862956284E+01  0.29721880817E+02  0.36820882575E+02  0.00000000000E+00 0. -1.
         11    1    4    4    0    0  0.13421300137E+02  0.12557157860E+02 -0.87336605094E+01  0.20349209740E+02  0.51100000000E-03 0. -1.
        -11    1    4    4    0    0 -0.78090193179E+00 -0.89879935605E+01 -0.20339060625E+02  0.22250196031E+02  0.51100000000E-03 0.  1.
        -12    1    4    4    0    0  0.86468657100E+01 -0.79554599275E+01 -0.64915968270E+00  0.11767711653E+02  0.00000000000E+00 0.  1.
</event>
<event>
 8    1  0.2460897E-006  0.9118800E+02  0.7816164E-02  0.1184000E+00
        -11   -1    0    0    0    0  0.00000000000E+00  0.00000000000E+00  0.45593999997E+02  0.45594000000E+02  0.51100000000E-03 0.  1.
         11   -1    0    0    0    0 -0.00000000000E+00 -0.00000000000E+00 -0.45593999997E+02  0.45594000000E+02  0.51100000000E-03 0. -1.
         23    2    1    2    0    0  0.00000000000E+00 -0.35527136788E-14  0.88817841970E-15  0.91188000000E+02  0.91188000000E+02 0.  0.
    9900012    2    3    3    0    0 -0.30564578393E+02  0.20335297233E+02  0.28393423094E+01  0.54367087047E+02  0.40000006542E+02 0.  0.
        -12    1    3    3    0    0  0.30564578393E+02 -0.20335297233E+02 -0.28393423094E+01  0.36820912953E+02  0.00000000000E+00 0.  1.
         11    1    4    4    0    0 -0.21539319904E+02  0.19904835936E+02  0.49379868764E+01  0.29741024027E+02  0.51100000000E-03 0. -1.
        -11    1    4    4    0    0  0.25106733940E+01 -0.56485455176E+01  0.65287022366E+01  0.89907452701E+01  0.51100000000E-03 0.  1.
        -12    1    4    4    0    0 -0.11535931884E+02  0.60790068147E+01 -0.86273468035E+01  0.15635317750E+02  0.00000000000E+00 0.  1.
</event>
<event>
 8    1  0.2460897E-006  0.9118800E+02  0.7816164E-02  0.1184000E+00
        -11   -1    0    0    0    0  0.00000000000E+00  0.00000000000E+00  0.45593999997E+02  0.45594000000E+02  0.51100000000E-03 0.  1.
         11   -1    0    0    0    0 -0.00000000000E+00 -0.00000000000E+00 -0.45593999997E+02  0.45594000000E+02  0.51100000000E-03 0. -1.
         23    2    1    2    0    0  0.00000000000E+00  0.35527136788E-14 -0.17763568394E-14  0.91188000000E+02  0.91188000000E+02 0.  0.
    9900012    2    3    3    0    0 -0.22778370963E+02 -0.27445816774E+02  0.91462038669E+01  0.54367080847E+02  0.39999992406E+02 0.  0.
        -12    1    3    3    0    0  0.22778370963E+02  0.27445816774E+02 -0.91462038669E+01  0.36820919153E+02  0.00000000000E+00 0.  1.
         11    1    4    4    0    0 -0.16407709190E+02 -0.17930766788E+02 -0.15947888053E+01  0.24357107178E+02  0.51100000000E-03 0. -1.
        -11    1    4    4    0    0 -0.75695190122E+01 -0.16619719640E+02  0.13047852153E+02  0.22444579414E+02  0.51100000000E-03 0.  1.
        -12    1    4    4    0    0  0.11988572395E+01  0.71046696540E+01 -0.23068594804E+01  0.75653942551E+01  0.00000000000E+00 0.  1.
</event>
<event>
 8    1  0.2460897E-006  0.9118800E+02  0.7816164E-02  0.1184000E+00
        -11   -1    0    0    0    0  0.00000000000E+00  0.00000000000E+00  0.45593999997E+02  0.45594000000E+02  0.51100000000E-03 0. -1.
         11   -1    0    0    0    0 -0.00000000000E+00 -0.00000000000E+00 -0.45593999997E+02  0.45594000000E+02  0.51100000000E-03 0.  1.
         23    2    1    2    0    0  0.00000000000E+00  0.00000000000E+00 -0.35527136788E-14  0.91188000000E+02  0.91188000000E+02 0.  0.
    9900012    2    3    3    0    0 -0.16395954737E+02 -0.10737724410E+02 -0.31171371754E+02  0.54367075592E+02  0.39999980426E+02 0.  0.
         12    1    3    3    0    0  0.16395954737E+02  0.10737724410E+02  0.31171371754E+02  0.36820924408E+02  0.00000000000E+00 0. -1.
         11    1    4    4    0    0 -0.21316248953E+01  0.76674198390E+01 -0.20034079675E+02  0.21556843470E+02  0.51100000000E-03 0.  1.
        -11    1    4    4    0    0 -0.12884532979E+02 -0.89476942220E+01  0.27760244637E+01  0.15930434208E+02  0.51100000000E-03 0. -1.
        -12    1    4    4    0    0 -0.13797968633E+01 -0.94574500271E+01 -0.13913316542E+02  0.16879797914E+02  0.00000000000E+00 0.  1.
</event>
<event>
 8    1  0.2460897E-006  0.9118800E+02  0.7816164E-02  0.1184000E+00
        -11   -1    0    0    0    0  0.00000000000E+00  0.00000000000E+00  0.45593999997E+02  0.45594000000E+02  0.51100000000E-03 0. -1.
         11   -1    0    0    0    0 -0.00000000000E+00 -0.00000000000E+00 -0.45593999997E+02  0.45594000000E+02  0.51100000000E-03 0.  1.
         23    2    1    2    0    0 -0.17763568394E-14  0.00000000000E+00 -0.17763568394E-14  0.91188000000E+02  0.91188000000E+02 0.  0.
    9900012    2    3    3    0    0 -0.41834260174E+01  0.34369022734E+02 -0.12531924515E+02  0.54367083268E+02  0.39999997926E+02 0.  0.
        -12    1    3    3    0    0  0.41834260174E+01 -0.34369022734E+02  0.12531924515E+02  0.36820916732E+02  0.00000000000E+00 0.  1.
         11    1    4    4    0    0 -0.13842687035E+01  0.28384596146E+02  0.50365040617E+01  0.28861182783E+02  0.51100000000E-03 0. -1.
        -11    1    4    4    0    0  0.53667496901E+01  0.82671290428E+01 -0.77884018020E+01  0.12562110799E+02  0.51100000000E-03 0.  1.
        -12    1    4    4    0    0 -0.81659070040E+01 -0.22827024554E+01 -0.97800267751E+01  0.12943789685E+02  0.00000000000E+00 0.  1.
</event>
<event>
 8    1  0.2460897E-006  0.9118800E+02  0.7816164E-02  0.1184000E+00
        -11   -1    0    0    0    0  0.00000000000E+00  0.00000000000E+00  0.45593999997E+02  0.45594000000E+02  0.51100000000E-03 0.  1.
         11   -1    0    0    0    0 -0.00000000000E+00 -0.00000000000E+00 -0.45593999997E+02  0.45594000000E+02  0.51100000000E-03 0. -1.
         23    2    1    2    0    0  0.00000000000E+00  0.00000000000E+00  0.17763568394E-14  0.91188000000E+02  0.91188000000E+02 0.  0.
    9900012    2    3    3    0    0 -0.32253084170E+02  0.15595517722E+02  0.85028496402E+01  0.54367081170E+02  0.39999993143E+02 0.  0.
         12    1    3    3    0    0  0.32253084170E+02 -0.15595517722E+02 -0.85028496402E+01  0.36820918830E+02  0.00000000000E+00 0. -1.
         11    1    4    4    0    0  0.37861618704E+01  0.58572881994E+01  0.72177707107E+01  0.10036885027E+02  0.51100000000E-03 0. -1.
        -11    1    4    4    0    0 -0.24070900890E+02  0.29071230320E+01  0.11830016237E+02  0.26977933917E+02  0.51100000000E-03 0.  1.
        -12    1    4    4    0    0 -0.11968345150E+02  0.68311064906E+01 -0.10544937308E+02  0.17352262226E+02  0.00000000000E+00 0.  1.
</event>
<event>
 8    1  0.2460897E-006  0.9118800E+02  0.7816164E-02  0.1184000E+00
        -11   -1    0    0    0    0  0.00000000000E+00  0.00000000000E+00  0.45593999997E+02  0.45594000000E+02  0.51100000000E-03 0.  1.
         11   -1    0    0    0    0 -0.00000000000E+00 -0.00000000000E+00 -0.45593999997E+02  0.45594000000E+02  0.51100000000E-03 0. -1.
         23    2    1    2    0    0 -0.17763568394E-14  0.00000000000E+00  0.00000000000E+00  0.91188000000E+02  0.91188000000E+02 0.  0.
    9900012    2    3    3    0    0  0.15425182104E+02  0.78672336627E+01  0.32495409336E+02  0.54367065243E+02  0.39999956835E+02 0.  0.
         12    1    3    3    0    0 -0.15425182104E+02 -0.78672336627E+01 -0.32495409336E+02  0.36820934757E+02  0.00000000000E+00 0. -1.
         11    1    4    4    0    0 -0.81521122458E+01  0.51240367130E+01  0.64293090345E+01  0.11577940284E+02  0.51100000000E-03 0. -1.
        -11    1    4    4    0    0  0.30825504313E+01  0.91157583621E+01  0.16907432682E+02  0.19454059932E+02  0.51100000000E-03 0.  1.
         12    1    4    4    0    0  0.20494743919E+02 -0.63725614124E+01  0.91586676192E+01  0.23335065027E+02  0.00000000000E+00 0. -1.
</event>
<event>
 8    1  0.2460897E-006  0.9118800E+02  0.7816164E-02  0.1184000E+00
        -11   -1    0    0    0    0  0.00000000000E+00  0.00000000000E+00  0.45593999997E+02  0.45594000000E+02  0.51100000000E-03 0. -1.
         11   -1    0    0    0    0 -0.00000000000E+00 -0.00000000000E+00 -0.45593999997E+02  0.45594000000E+02  0.51100000000E-03 0.  1.
         23    2    1    2    0    0 -0.35527136788E-14  0.00000000000E+00 -0.35527136788E-14  0.91188000000E+02  0.91188000000E+02 0.  0.
    9900012    2    3    3    0    0  0.18354249241E+02  0.10205770996E+02 -0.30244714721E+02  0.54367095675E+02  0.40000026209E+02 0.  0.
         12    1    3    3    0    0 -0.18354249241E+02 -0.10205770996E+02  0.30244714721E+02  0.36820904325E+02  0.00000000000E+00 0. -1.
         11    1    4    4    0    0  0.20351060129E+02  0.71957840275E+00 -0.11984581563E+02  0.23628661344E+02  0.51100000000E-03 0. -1.
        -11    1    4    4    0    0 -0.89900277145E+01 -0.29168716273E+01 -0.11756971329E+02  0.15084930013E+02  0.51100000000E-03 0.  1.
        -12    1    4    4    0    0  0.69932168265E+01  0.12403064221E+02 -0.65031618289E+01  0.15653504317E+02  0.00000000000E+00 0.  1.
</event>
<event>
 8    1  0.2460897E-006  0.9118800E+02  0.7816164E-02  0.1184000E+00
        -11   -1    0    0    0    0  0.00000000000E+00  0.00000000000E+00  0.45593999997E+02  0.45594000000E+02  0.51100000000E-03 0.  1.
         11   -1    0    0    0    0 -0.00000000000E+00 -0.00000000000E+00 -0.45593999997E+02  0.45594000000E+02  0.51100000000E-03 0. -1.
         23    2    1    2    0    0  0.00000000000E+00  0.00000000000E+00  0.00000000000E+00  0.91188000000E+02  0.91188000000E+02 0.  0.
    9900012    2    3    3    0    0 -0.17227332298E+02  0.24609231736E+02 -0.21292805771E+02  0.54367097752E+02  0.40000030945E+02 0.  0.
        -12    1    3    3    0    0  0.17227332298E+02 -0.24609231736E+02  0.21292805771E+02  0.36820902248E+02  0.00000000000E+00 0.  1.
         11    1    4    4    0    0 -0.16434729631E+02  0.15415676681E+00  0.26079540540E+01  0.16641079501E+02  0.51100000000E-03 0. -1.
        -11    1    4    4    0    0  0.12805272619E+01  0.17414390049E+02 -0.61416610237E+01  0.18510017052E+02  0.51100000000E-03 0.  1.
         12    1    4    4    0    0 -0.20731299291E+01  0.70406849199E+01 -0.17759098801E+02  0.19216001199E+02  0.00000000000E+00 0. -1.
</event>
<event>
 8    1  0.2460897E-006  0.9118800E+02  0.7816164E-02  0.1184000E+00
        -11   -1    0    0    0    0  0.00000000000E+00  0.00000000000E+00  0.45593999997E+02  0.45594000000E+02  0.51100000000E-03 0. -1.
         11   -1    0    0    0    0 -0.00000000000E+00 -0.00000000000E+00 -0.45593999997E+02  0.45594000000E+02  0.51100000000E-03 0.  1.
         23    2    1    2    0    0 -0.35527136788E-14 -0.41633363423E-16  0.00000000000E+00  0.91188000000E+02  0.91188000000E+02 0.  0.
    9900012    2    3    3    0    0 -0.11475270452E+02  0.12229750844E+00  0.34986790940E+02  0.54367186200E+02  0.40000232579E+02 0.  0.
        -12    1    3    3    0    0  0.11475270452E+02 -0.12229750844E+00 -0.34986790940E+02  0.36820813800E+02  0.00000000000E+00 0.  1.
         11    1    4    4    0    0  0.95281303122E+01 -0.22096036735E+01  0.18342224076E+02  0.20787130633E+02  0.51100000000E-03 0. -1.
        -11    1    4    4    0    0 -0.68996768597E+00 -0.62381051623E+01  0.73195388369E+01  0.96418701749E+01  0.51100000000E-03 0.  1.
        -12    1    4    4    0    0 -0.20313433078E+02  0.85700063443E+01  0.93250280277E+01  0.23938185392E+02  0.00000000000E+00 0.  1.
</event>
<event>
 8    1  0.2460897E-006  0.9118800E+02  0.7816164E-02  0.1184000E+00
        -11   -1    0    0    0    0  0.00000000000E+00  0.00000000000E+00  0.45593999997E+02  0.45594000000E+02  0.51100000000E-03 0. -1.
         11   -1    0    0    0    0 -0.00000000000E+00 -0.00000000000E+00 -0.45593999997E+02  0.45594000000E+02  0.51100000000E-03 0.  1.
         23    2    1    2    0    0  0.00000000000E+00  0.00000000000E+00  0.00000000000E+00  0.91188000000E+02  0.91188000000E+02 0.  0.
    9900012    2    3    3    0    0  0.25899051512E+02  0.18664170703E+02 -0.18348278695E+02  0.54367197886E+02  0.40000259219E+02 0.  0.
         12    1    3    3    0    0 -0.25899051512E+02 -0.18664170703E+02  0.18348278695E+02  0.36820802114E+02  0.00000000000E+00 0. -1.
         11    1    4    4    0    0  0.46252162233E+01  0.21472660297E+02 -0.15573220434E+02  0.26925693311E+02  0.51100000000E-03 0. -1.
        -11    1    4    4    0    0  0.15597923473E+02 -0.46509113938E+01 -0.91804715540E+01  0.18687087833E+02  0.51100000000E-03 0.  1.
         12    1    4    4    0    0  0.56759118161E+01  0.18424218002E+01  0.64054132928E+01  0.87544167416E+01  0.00000000000E+00 0. -1.
</event>
<event>
 8    1  0.2460897E-006  0.9118800E+02  0.7816164E-02  0.1184000E+00
        -11   -1    0    0    0    0  0.00000000000E+00  0.00000000000E+00  0.45593999997E+02  0.45594000000E+02  0.51100000000E-03 0. -1.
         11   -1    0    0    0    0 -0.00000000000E+00 -0.00000000000E+00 -0.45593999997E+02  0.45594000000E+02  0.51100000000E-03 0.  1.
         23    2    1    2    0    0 -0.35527136788E-14  0.35527136788E-14 -0.17763568394E-14  0.91188000000E+02  0.91188000000E+02 0.  0.
    9900012    2    3    3    0    0  0.25625033434E+02  0.21474551960E+02  0.15426644554E+02  0.54367080911E+02  0.39999992552E+02 0.  0.
         12    1    3    3    0    0 -0.25625033434E+02 -0.21474551960E+02 -0.15426644554E+02  0.36820919089E+02  0.00000000000E+00 0. -1.
         11    1    4    4    0    0  0.95480361691E+01  0.11291437603E+02 -0.43353098969E+01  0.15409622643E+02  0.51100000000E-03 0. -1.
        -11    1    4    4    0    0  0.25868588580E+00  0.15587830936E+02  0.14859533263E+02  0.21537249610E+02  0.51100000000E-03 0.  1.
         12    1    4    4    0    0  0.15818311379E+02 -0.54047165794E+01  0.49024211878E+01  0.17420208658E+02  0.00000000000E+00 0. -1.
</event>
<event>
 8    1  0.2460897E-006  0.9118800E+02  0.7816164E-02  0.1184000E+00
        -11   -1    0    0    0    0  0.00000000000E+00  0.00000000000E+00  0.45593999997E+02  0.45594000000E+02  0.51100000000E-03 0.  1.
         11   -1    0    0    0    0 -0.00000000000E+00 -0.00000000000E+00 -0.45593999997E+02  0.45594000000E+02  0.51100000000E-03 0. -1.
         23    2    1    2    0    0  0.00000000000E+00  0.44408920985E-15  0.00000000000E+00  0.91188000000E+02  0.91188000000E+02 0.  0.
    9900012    2    3    3    0    0  0.98936544129E+01 -0.21764175824E+01 -0.35399976278E+02  0.54367088664E+02  0.40000010227E+02 0.  0.
        -12    1    3    3    0    0 -0.98936544129E+01  0.21764175824E+01  0.35399976278E+02  0.36820911336E+02  0.00000000000E+00 0.  1.
         11    1    4    4    0    0  0.10299964977E+02 -0.17267706538E+02 -0.20220083104E+02  0.28515166642E+02  0.51100000000E-03 0. -1.
        -11    1    4    4    0    0 -0.73981290156E+01  0.68306025222E+01 -0.80559575506E+01  0.12895266421E+02  0.51100000000E-03 0.  1.
        -12    1    4    4    0    0  0.69918184514E+01  0.82606864332E+01 -0.71239356234E+01  0.12956655601E+02  0.00000000000E+00 0.  1.
</event>
<event>
 8    1  0.2460897E-006  0.9118800E+02  0.7816164E-02  0.1184000E+00
        -11   -1    0    0    0    0  0.00000000000E+00  0.00000000000E+00  0.45593999997E+02  0.45594000000E+02  0.51100000000E-03 0. -1.
         11   -1    0    0    0    0 -0.00000000000E+00 -0.00000000000E+00 -0.45593999997E+02  0.45594000000E+02  0.51100000000E-03 0.  1.
         23    2    1    2    0    0 -0.35527136788E-14  0.00000000000E+00 -0.17763568394E-14  0.91188000000E+02  0.91188000000E+02 0.  0.
    9900012    2    3    3    0    0  0.31707330250E+02 -0.18343102720E+02  0.37357023591E+01  0.54367086363E+02  0.40000004981E+02 0.  0.
         12    1    3    3    0    0 -0.31707330250E+02  0.18343102720E+02 -0.37357023591E+01  0.36820913637E+02  0.00000000000E+00 0. -1.
         11    1    4    4    0    0  0.33920597595E+01  0.16161834175E+01  0.11636918668E+02  0.12228491101E+02  0.51100000000E-03 0. -1.
        -11    1    4    4    0    0  0.80761790124E+01 -0.80511087919E+01 -0.13824127858E+02  0.17920701200E+02  0.51100000000E-03 0.  1.
        -12    1    4    4    0    0  0.20239091478E+02 -0.11908177346E+02  0.59229115485E+01  0.24217894061E+02  0.00000000000E+00 0.  1.
</event>
<event>
 8    1  0.2460897E-006  0.9118800E+02  0.7816164E-02  0.1184000E+00
        -11   -1    0    0    0    0  0.00000000000E+00  0.00000000000E+00  0.45593999997E+02  0.45594000000E+02  0.51100000000E-03 0. -1.
         11   -1    0    0    0    0 -0.00000000000E+00 -0.00000000000E+00 -0.45593999997E+02  0.45594000000E+02  0.51100000000E-03 0.  1.
         23    2    1    2    0    0 -0.35527136788E-14  0.17763568394E-14 -0.71054273576E-14  0.91188000000E+02  0.91188000000E+02 0.  0.
    9900012    2    3    3    0    0 -0.28765531370E+02  0.93901842919E+01 -0.20979709446E+02  0.54367087947E+02  0.40000008592E+02 0.  0.
         12    1    3    3    0    0  0.28765531370E+02 -0.93901842919E+01  0.20979709446E+02  0.36820912053E+02  0.00000000000E+00 0. -1.
         11    1    4    4    0    0 -0.12700531982E+02 -0.95377168253E+01 -0.77781448446E+01  0.17685335517E+02  0.51100000000E-03 0. -1.
        -11    1    4    4    0    0  0.26018905154E+01  0.17472462087E+01  0.46877570598E+01  0.56389511507E+01  0.51100000000E-03 0.  1.
        -12    1    4    4    0    0 -0.18666889903E+02  0.17180654909E+02 -0.17889321661E+02  0.31042801279E+02  0.00000000000E+00 0.  1.
</event>
<event>
 8    1  0.2460897E-006  0.9118800E+02  0.7816164E-02  0.1184000E+00
        -11   -1    0    0    0    0  0.00000000000E+00  0.00000000000E+00  0.45593999997E+02  0.45594000000E+02  0.51100000000E-03 0.  1.
         11   -1    0    0    0    0 -0.00000000000E+00 -0.00000000000E+00 -0.45593999997E+02  0.45594000000E+02  0.51100000000E-03 0. -1.
         23    2    1    2    0    0  0.00000000000E+00  0.00000000000E+00  0.71054273576E-14  0.91188000000E+02  0.91188000000E+02 0.  0.
    9900012    2    3    3    0    0  0.17408012098E+02  0.16343985256E+02 -0.28028823384E+02  0.54367086384E+02  0.40000005029E+02 0.  0.
        -12    1    3    3    0    0 -0.17408012098E+02 -0.16343985256E+02  0.28028823384E+02  0.36820913616E+02  0.00000000000E+00 0.  1.
         11    1    4    4    0    0  0.78715254242E-01 -0.10869532869E+02 -0.72554193496E+01  0.13068819804E+02  0.51100000000E-03 0. -1.
        -11    1    4    4    0    0 -0.10718587981E+00  0.64513762708E+01  0.99450773234E+00  0.65284600398E+01  0.51100000000E-03 0.  1.
         12    1    4    4    0    0  0.17436482723E+02  0.20762141854E+02 -0.21767911767E+02  0.34769806540E+02  0.00000000000E+00 0. -1.
</event>
<event>
 8    1  0.2460897E-006  0.9118800E+02  0.7816164E-02  0.1184000E+00
        -11   -1    0    0    0    0  0.00000000000E+00  0.00000000000E+00  0.45593999997E+02  0.45594000000E+02  0.51100000000E-03 0. -1.
         11   -1    0    0    0    0 -0.00000000000E+00 -0.00000000000E+00 -0.45593999997E+02  0.45594000000E+02  0.51100000000E-03 0.  1.
         23    2    1    2    0    0  0.00000000000E+00  0.00000000000E+00 -0.35527136788E-14  0.91188000000E+02  0.91188000000E+02 0.  0.
    9900012    2    3    3    0    0 -0.24077032394E+02 -0.85380911198E+01 -0.26517458236E+02  0.54367108102E+02  0.40000054539E+02 0.  0.
         12    1    3    3    0    0  0.24077032394E+02  0.85380911198E+01  0.26517458236E+02  0.36820891898E+02  0.00000000000E+00 0. -1.
         11    1    4    4    0    0  0.93134508157E+01 -0.11919291419E-01 -0.29245907860E+01  0.97618512431E+01  0.51100000000E-03 0. -1.
        -11    1    4    4    0    0 -0.31069409243E+01  0.31136142211E+01 -0.67332302506E+01  0.80426404429E+01  0.51100000000E-03 0.  1.
        -12    1    4    4    0    0 -0.30283542286E+02 -0.11639786049E+02 -0.16859637200E+02  0.36562616415E+02  0.00000000000E+00 0.  1.
</event>
<event>
 8    1  0.2460897E-006  0.9118800E+02  0.7816164E-02  0.1184000E+00
        -11   -1    0    0    0    0  0.00000000000E+00  0.00000000000E+00  0.45593999997E+02  0.45594000000E+02  0.51100000000E-03 0. -1.
         11   -1    0    0    0    0 -0.00000000000E+00 -0.00000000000E+00 -0.45593999997E+02  0.45594000000E+02  0.51100000000E-03 0.  1.
         23    2    1    2    0    0 -0.35527136788E-14  0.35527136788E-14  0.00000000000E+00  0.91188000000E+02  0.91188000000E+02 0.  0.
    9900012    2    3    3    0    0  0.17412186617E+02 -0.27118393444E+02 -0.17809745788E+02  0.54367101711E+02  0.40000039971E+02 0.  0.
         12    1    3    3    0    0 -0.17412186617E+02  0.27118393444E+02  0.17809745788E+02  0.36820898289E+02  0.00000000000E+00 0. -1.
         11    1    4    4    0    0  0.18414565158E+02 -0.24315093143E+02 -0.25080223806E+02  0.39488448829E+02  0.51100000000E-03 0. -1.
        -11    1    4    4    0    0  0.40088373133E+01 -0.24329079570E+01 -0.13681913674E+01  0.48848506231E+01  0.51100000000E-03 0.  1.
         12    1    4    4    0    0 -0.50112158548E+01 -0.37039234439E+00  0.86386693858E+01  0.99938022589E+01  0.00000000000E+00 0. -1.
</event>
<event>
 8    1  0.2460897E-006  0.9118800E+02  0.7816164E-02  0.1184000E+00
        -11   -1    0    0    0    0  0.00000000000E+00  0.00000000000E+00  0.45593999997E+02  0.45594000000E+02  0.51100000000E-03 0.  1.
         11   -1    0    0    0    0 -0.00000000000E+00 -0.00000000000E+00 -0.45593999997E+02  0.45594000000E+02  0.51100000000E-03 0. -1.
         23    2    1    2    0    0  0.00000000000E+00  0.00000000000E+00  0.35527136788E-14  0.91188000000E+02  0.91188000000E+02 0.  0.
    9900012    2    3    3    0    0 -0.21433293767E+02  0.19394696004E+02 -0.22808638429E+02  0.54367159410E+02  0.40000171506E+02 0.  0.
         12    1    3    3    0    0  0.21433293767E+02 -0.19394696004E+02  0.22808638429E+02  0.36820840590E+02  0.00000000000E+00 0. -1.
         11    1    4    4    0    0 -0.28289346256E+02  0.12170239607E+02 -0.18963613778E+02  0.36166565934E+02  0.51100000000E-03 0. -1.
        -11    1    4    4    0    0  0.49178302272E+01  0.95868448566E+01 -0.77279418449E+01  0.13259477134E+02  0.51100000000E-03 0.  1.
         12    1    4    4    0    0  0.19382222616E+01 -0.23623884597E+01  0.38829171935E+01  0.49411163416E+01  0.00000000000E+00 0. -1.
</event>
<event>
 8    1  0.2460897E-006  0.9118800E+02  0.7816164E-02  0.1184000E+00
        -11   -1    0    0    0    0  0.00000000000E+00  0.00000000000E+00  0.45593999997E+02  0.45594000000E+02  0.51100000000E-03 0. -1.
         11   -1    0    0    0    0 -0.00000000000E+00 -0.00000000000E+00 -0.45593999997E+02  0.45594000000E+02  0.51100000000E-03 0.  1.
         23    2    1    2    0    0  0.00000000000E+00 -0.17763568394E-14  0.17763568394E-14  0.91188000000E+02  0.91188000000E+02 0.  0.
    9900012    2    3    3    0    0 -0.32864575945E+02 -0.77718119753E+01  0.14672914264E+02  0.54367138706E+02  0.40000124309E+02 0.  0.
        -12    1    3    3    0    0  0.32864575945E+02  0.77718119753E+01 -0.14672914264E+02  0.36820861294E+02  0.00000000000E+00 0.  1.
         11    1    4    4    0    0 -0.30724731499E+02 -0.11650587369E+01  0.17239508617E+02  0.35250065889E+02  0.51100000000E-03 0. -1.
        -11    1    4    4    0    0 -0.29234562503E+01  0.50849988960E+01  0.24676972333E+01  0.63634377592E+01  0.51100000000E-03 0.  1.
         12    1    4    4    0    0  0.78361180441E+00 -0.11691752134E+02 -0.50342915860E+01  0.12753635058E+02  0.00000000000E+00 0. -1.
</event>
<event>
 8    1  0.2460897E-006  0.9118800E+02  0.7816164E-02  0.1184000E+00
        -11   -1    0    0    0    0  0.00000000000E+00  0.00000000000E+00  0.45593999997E+02  0.45594000000E+02  0.51100000000E-03 0.  1.
         11   -1    0    0    0    0 -0.00000000000E+00 -0.00000000000E+00 -0.45593999997E+02  0.45594000000E+02  0.51100000000E-03 0. -1.
         23    2    1    2    0    0  0.00000000000E+00  0.00000000000E+00  0.00000000000E+00  0.91188000000E+02  0.91188000000E+02 0.  0.
    9900012    2    3    3    0    0 -0.63055039939E+01  0.32484695509E+02  0.16148188219E+02  0.54367098250E+02  0.40000032081E+02 0.  0.
         12    1    3    3    0    0  0.63055039939E+01 -0.32484695509E+02 -0.16148188219E+02  0.36820901750E+02  0.00000000000E+00 0. -1.
         11    1    4    4    0    0 -0.81670787617E+01  0.76755030336E+01 -0.46658361156E+01  0.12140203838E+02  0.51100000000E-03 0. -1.
        -11    1    4    4    0    0  0.44026767495E+01  0.15208504572E+02 -0.32775316923E+01  0.16168623570E+02  0.51100000000E-03 0.  1.
         12    1    4    4    0    0 -0.25411019818E+01  0.96006879028E+01  0.24091556027E+02  0.26058270842E+02  0.00000000000E+00 0. -1.
</event>
<event>
 8    1  0.2460897E-006  0.9118800E+02  0.7816164E-02  0.1184000E+00
        -11   -1    0    0    0    0  0.00000000000E+00  0.00000000000E+00  0.45593999997E+02  0.45594000000E+02  0.51100000000E-03 0.  1.
         11   -1    0    0    0    0 -0.00000000000E+00 -0.00000000000E+00 -0.45593999997E+02  0.45594000000E+02  0.51100000000E-03 0. -1.
         23    2    1    2    0    0 -0.35527136788E-14  0.00000000000E+00  0.00000000000E+00  0.91188000000E+02  0.91188000000E+02 0.  0.
    9900012    2    3    3    0    0 -0.18574142162E+02  0.25396034252E+02  0.19126473148E+02  0.54367091702E+02  0.40000017154E+02 0.  0.
         12    1    3    3    0    0  0.18574142162E+02 -0.25396034252E+02 -0.19126473148E+02  0.36820908298E+02  0.00000000000E+00 0. -1.
         11    1    4    4    0    0 -0.81564053388E+01  0.68303674750E+01 -0.38759581967E+01  0.11322716993E+02  0.51100000000E-03 0. -1.
        -11    1    4    4    0    0  0.38673882138E+01 -0.39520588720E+01  0.13746589053E+02  0.14817023040E+02  0.51100000000E-03 0.  1.
        -12    1    4    4    0    0 -0.14285125037E+02  0.22517725649E+02  0.92558422920E+01  0.28227351669E+02  0.00000000000E+00 0.  1.
</event>
<event>
 8    1  0.2460897E-006  0.9118800E+02  0.7816164E-02  0.1184000E+00
        -11   -1    0    0    0    0  0.00000000000E+00  0.00000000000E+00  0.45593999997E+02  0.45594000000E+02  0.51100000000E-03 0.  1.
         11   -1    0    0    0    0 -0.00000000000E+00 -0.00000000000E+00 -0.45593999997E+02  0.45594000000E+02  0.51100000000E-03 0. -1.
         23    2    1    2    0    0  0.00000000000E+00  0.35527136788E-14  0.35527136788E-14  0.91188000000E+02  0.91188000000E+02 0.  0.
    9900012    2    3    3    0    0 -0.14352742051E+02  0.16011582854E+02  0.29889928128E+02  0.54367084838E+02  0.40000001505E+02 0.  0.
         12    1    3    3    0    0  0.14352742051E+02 -0.16011582854E+02 -0.29889928128E+02  0.36820915162E+02  0.00000000000E+00 0. -1.
         11    1    4    4    0    0  0.50130405210E+00 -0.44267416406E+01  0.36164855409E+01  0.57381456267E+01  0.51100000000E-03 0. -1.
        -11    1    4    4    0    0 -0.13875961911E+02  0.27993208497E+02  0.26557597569E+02  0.41005707283E+02  0.51100000000E-03 0.  1.
        -12    1    4    4    0    0 -0.97808419222E+00 -0.75548840021E+01 -0.28415498195E+00  0.76232319279E+01  0.00000000000E+00 0.  1.
</event>
<event>
 8    1  0.2460897E-006  0.9118800E+02  0.7816164E-02  0.1184000E+00
        -11   -1    0    0    0    0  0.00000000000E+00  0.00000000000E+00  0.45593999997E+02  0.45594000000E+02  0.51100000000E-03 0.  1.
         11   -1    0    0    0    0 -0.00000000000E+00 -0.00000000000E+00 -0.45593999997E+02  0.45594000000E+02  0.51100000000E-03 0. -1.
         23    2    1    2    0    0 -0.44408920985E-15  0.00000000000E+00 -0.71054273576E-14  0.91188000000E+02  0.91188000000E+02 0.  0.
    9900012    2    3    3    0    0  0.20043380745E+01  0.18137575212E+02  0.31981092776E+02  0.54367091526E+02  0.40000016752E+02 0.  0.
         12    1    3    3    0    0 -0.20043380745E+01 -0.18137575212E+02 -0.31981092776E+02  0.36820908474E+02  0.00000000000E+00 0. -1.
         11    1    4    4    0    0  0.34798480811E+01  0.50965891542E+01  0.62341237323E+01  0.87720500822E+01  0.51100000000E-03 0. -1.
        -11    1    4    4    0    0  0.11549273954E+02  0.13354534813E+02  0.27260701210E+02  0.32478841723E+02  0.51100000000E-03 0.  1.
         12    1    4    4    0    0 -0.13024783961E+02 -0.31354875517E+00 -0.15137321659E+01  0.13116199721E+02  0.00000000000E+00 0. -1.
</event>
<event>
 8    1  0.2460897E-006  0.9118800E+02  0.7816164E-02  0.1184000E+00
        -11   -1    0    0    0    0  0.00000000000E+00  0.00000000000E+00  0.45593999997E+02  0.45594000000E+02  0.51100000000E-03 0. -1.
         11   -1    0    0    0    0 -0.00000000000E+00 -0.00000000000E+00 -0.45593999997E+02  0.45594000000E+02  0.51100000000E-03 0.  1.
         23    2    1    2    0    0  0.00000000000E+00  0.00000000000E+00  0.00000000000E+00  0.91188000000E+02  0.91188000000E+02 0.  0.
    9900012    2    3    3    0    0 -0.86544271000E+01  0.17610110480E+02 -0.31157040538E+02  0.54367132620E+02  0.40000110433E+02 0.  0.
        -12    1    3    3    0    0  0.86544271000E+01 -0.17610110480E+02  0.31157040538E+02  0.36820867380E+02  0.00000000000E+00 0.  1.
         11    1    4    4    0    0 -0.43994684546E+00  0.14546217124E+01 -0.22845713655E+01  0.27438557065E+01  0.51100000000E-03 0. -1.
        -11    1    4    4    0    0  0.45177285852E+01  0.21025033425E+02 -0.31099831715E+02  0.37810863981E+02  0.51100000000E-03 0.  1.
         12    1    4    4    0    0 -0.12732208840E+02 -0.48695446569E+01  0.22273625418E+01  0.13812412932E+02  0.00000000000E+00 0. -1.
</event>
<event>
 8    1  0.2460897E-006  0.9118800E+02  0.7816164E-02  0.1184000E+00
        -11   -1    0    0    0    0  0.00000000000E+00  0.00000000000E+00  0.45593999997E+02  0.45594000000E+02  0.51100000000E-03 0. -1.
         11   -1    0    0    0    0 -0.00000000000E+00 -0.00000000000E+00 -0.45593999997E+02  0.45594000000E+02  0.51100000000E-03 0.  1.
         23    2    1    2    0    0 -0.11102230246E-15  0.00000000000E+00  0.00000000000E+00  0.91188000000E+02  0.91188000000E+02 0.  0.
    9900012    2    3    3    0    0 -0.84251198999E+00 -0.14844980865E+02  0.33685166998E+02  0.54367166780E+02  0.40000188308E+02 0.  0.
        -12    1    3    3    0    0  0.84251198999E+00  0.14844980865E+02 -0.33685166998E+02  0.36820833220E+02  0.00000000000E+00 0.  1.
         11    1    4    4    0    0  0.11111149290E+02 -0.44423603482E+01  0.16678527043E+02  0.20527188522E+02  0.51100000000E-03 0. -1.
        -11    1    4    4    0    0 -0.19341858391E+02 -0.67788561416E+01  0.90885929381E+01  0.22420144925E+02  0.51100000000E-03 0.  1.
        -12    1    4    4    0    0  0.73881971109E+01 -0.36237643753E+01  0.79180470168E+01  0.11419833333E+02  0.00000000000E+00 0.  1.
</event>
<event>
 8    1  0.2460897E-006  0.9118800E+02  0.7816164E-02  0.1184000E+00
        -11   -1    0    0    0    0  0.00000000000E+00  0.00000000000E+00  0.45593999997E+02  0.45594000000E+02  0.51100000000E-03 0. -1.
         11   -1    0    0    0    0 -0.00000000000E+00 -0.00000000000E+00 -0.45593999997E+02  0.45594000000E+02  0.51100000000E-03 0.  1.
         23    2    1    2    0    0  0.00000000000E+00 -0.88817841970E-15  0.00000000000E+00  0.91188000000E+02  0.91188000000E+02 0.  0.
    9900012    2    3    3    0    0 -0.17493182966E+02 -0.36180693749E+01 -0.32197408148E+02  0.54367150367E+02  0.40000150890E+02 0.  0.
         12    1    3    3    0    0  0.17493182966E+02  0.36180693749E+01  0.32197408148E+02  0.36820849633E+02  0.00000000000E+00 0. -1.
         11    1    4    4    0    0 -0.12470097226E+02 -0.77523087930E+01 -0.23153643654E+01  0.14864808403E+02  0.51100000000E-03 0. -1.
        -11    1    4    4    0    0  0.18085524451E+01 -0.92564437765E+01 -0.18073214220E+02  0.20386115026E+02  0.51100000000E-03 0.  1.
        -12    1    4    4    0    0 -0.68316381853E+01  0.13390683195E+02 -0.11808829562E+02  0.19116226938E+02  0.00000000000E+00 0.  1.
</event>
<event>
 8    1  0.2460897E-006  0.9118800E+02  0.7816164E-02  0.1184000E+00
        -11   -1    0    0    0    0  0.00000000000E+00  0.00000000000E+00  0.45593999997E+02  0.45594000000E+02  0.51100000000E-03 0.  1.
         11   -1    0    0    0    0 -0.00000000000E+00 -0.00000000000E+00 -0.45593999997E+02  0.45594000000E+02  0.51100000000E-03 0. -1.
         23    2    1    2    0    0 -0.66613381478E-15  0.35527136788E-14  0.00000000000E+00  0.91188000000E+02  0.91188000000E+02 0.  0.
    9900012    2    3    3    0    0  0.51346194635E+00 -0.26985903791E+02  0.25045524663E+02  0.54367069101E+02  0.39999965630E+02 0.  0.
         12    1    3    3    0    0 -0.51346194635E+00  0.26985903791E+02 -0.25045524663E+02  0.36820930899E+02  0.00000000000E+00 0. -1.
         11    1    4    4    0    0  0.53301415503E+01  0.19693578903E+01  0.47177309304E+01  0.73855104657E+01  0.51100000000E-03 0. -1.
        -11    1    4    4    0    0  0.10351873097E+02 -0.21337801360E+02  0.18158617486E+02  0.29869690872E+02  0.51100000000E-03 0.  1.
        -12    1    4    4    0    0 -0.15168552701E+02 -0.76174603214E+01  0.21691762464E+01  0.17111867764E+02  0.00000000000E+00 0.  1.
</event>
<event>
 8    1  0.2460897E-006  0.9118800E+02  0.7816164E-02  0.1184000E+00
        -11   -1    0    0    0    0  0.00000000000E+00  0.00000000000E+00  0.45593999997E+02  0.45594000000E+02  0.51100000000E-03 0.  1.
         11   -1    0    0    0    0 -0.00000000000E+00 -0.00000000000E+00 -0.45593999997E+02  0.45594000000E+02  0.51100000000E-03 0. -1.
         23    2    1    2    0    0  0.35527136788E-14  0.35527136788E-14  0.35527136788E-14  0.91188000000E+02  0.91188000000E+02 0.  0.
    9900012    2    3    3    0    0 -0.25775738819E+02 -0.10770816856E+02 -0.23987019827E+02  0.54367131900E+02  0.40000108793E+02 0.  0.
        -12    1    3    3    0    0  0.25775738819E+02  0.10770816856E+02  0.23987019827E+02  0.36820868100E+02  0.00000000000E+00 0.  1.
         11    1    4    4    0    0 -0.86549057440E+01  0.46153589949E+01 -0.12995595009E+02  0.16281720486E+02  0.51100000000E-03 0. -1.
        -11    1    4    4    0    0  0.89051132779E+00  0.66773558415E+01  0.16324300377E+01  0.69314442613E+01  0.51100000000E-03 0.  1.
        -12    1    4    4    0    0 -0.18011344403E+02 -0.22063531693E+02 -0.12623854856E+02  0.31153967153E+02  0.00000000000E+00 0.  1.
</event>
<event>
 8    1  0.2460897E-006  0.9118800E+02  0.7816164E-02  0.1184000E+00
        -11   -1    0    0    0    0  0.00000000000E+00  0.00000000000E+00  0.45593999997E+02  0.45594000000E+02  0.51100000000E-03 0.  1.
         11   -1    0    0    0    0 -0.00000000000E+00 -0.00000000000E+00 -0.45593999997E+02  0.45594000000E+02  0.51100000000E-03 0. -1.
         23    2    1    2    0    0  0.00000000000E+00  0.00000000000E+00  0.00000000000E+00  0.91188000000E+02  0.91188000000E+02 0.  0.
    9900012    2    3    3    0    0 -0.24214693196E+02 -0.18169329032E+02  0.20959574743E+02  0.54367086684E+02  0.40000005713E+02 0.  0.
         12    1    3    3    0    0  0.24214693196E+02  0.18169329032E+02 -0.20959574743E+02  0.36820913316E+02  0.00000000000E+00 0. -1.
         11    1    4    4    0    0  0.18364354795E+01 -0.18345473351E+00 -0.86568533606E+00  0.20385196275E+01  0.51100000000E-03 0. -1.
        -11    1    4    4    0    0 -0.12165205163E+02 -0.27727851858E+02  0.16848514764E+02  0.34651095730E+02  0.51100000000E-03 0.  1.
         12    1    4    4    0    0 -0.13885923512E+02  0.97419775587E+01  0.49767453149E+01  0.17677471326E+02  0.00000000000E+00 0. -1.
</event>
<event>
 8    1  0.2460897E-006  0.9118800E+02  0.7816164E-02  0.1184000E+00
        -11   -1    0    0    0    0  0.00000000000E+00  0.00000000000E+00  0.45593999997E+02  0.45594000000E+02  0.51100000000E-03 0.  1.
         11   -1    0    0    0    0 -0.00000000000E+00 -0.00000000000E+00 -0.45593999997E+02  0.45594000000E+02  0.51100000000E-03 0. -1.
         23    2    1    2    0    0  0.00000000000E+00 -0.22204460493E-15 -0.17763568394E-14  0.91188000000E+02  0.91188000000E+02 0.  0.
    9900012    2    3    3    0    0 -0.35229141486E+02 -0.17596061053E+01 -0.10563701879E+02  0.54367076317E+02  0.39999982080E+02 0.  0.
        -12    1    3    3    0    0  0.35229141486E+02  0.17596061053E+01  0.10563701879E+02  0.36820923683E+02  0.00000000000E+00 0.  1.
         11    1    4    4    0    0 -0.16936329204E+02 -0.33127108968E+01  0.31749355020E+01  0.17546894771E+02  0.51100000000E-03 0. -1.
        -11    1    4    4    0    0  0.35092321055E+01  0.68466134196E+01  0.35724274088E+01  0.84825151423E+01  0.51100000000E-03 0.  1.
         12    1    4    4    0    0 -0.21802044387E+02 -0.52935086281E+01 -0.17311064790E+02  0.28337666404E+02  0.00000000000E+00 0. -1.
</event>
<event>
 8    1  0.2460897E-006  0.9118800E+02  0.7816164E-02  0.1184000E+00
        -11   -1    0    0    0    0  0.00000000000E+00  0.00000000000E+00  0.45593999997E+02  0.45594000000E+02  0.51100000000E-03 0. -1.
         11   -1    0    0    0    0 -0.00000000000E+00 -0.00000000000E+00 -0.45593999997E+02  0.45594000000E+02  0.51100000000E-03 0.  1.
         23    2    1    2    0    0  0.35527136788E-14  0.35527136788E-14  0.35527136788E-14  0.91188000000E+02  0.91188000000E+02 0.  0.
    9900012    2    3    3    0    0  0.10554760908E+02  0.16184772016E+02  0.31343746813E+02  0.54367078130E+02  0.39999986214E+02 0.  0.
        -12    1    3    3    0    0 -0.10554760908E+02 -0.16184772016E+02 -0.31343746813E+02  0.36820921870E+02  0.00000000000E+00 0.  1.
         11    1    4    4    0    0  0.17946226173E+02  0.72082616512E+01  0.30542287511E+02  0.36150482660E+02  0.51100000000E-03 0. -1.
        -11    1    4    4    0    0 -0.25745767428E+01  0.11022612694E+02  0.40901703617E+01  0.12035610905E+02  0.51100000000E-03 0.  1.
        -12    1    4    4    0    0 -0.48168885224E+01 -0.20461023285E+01 -0.32887110592E+01  0.61809845661E+01  0.00000000000E+00 0.  1.
</event>
<event>
 8    1  0.2460897E-006  0.9118800E+02  0.7816164E-02  0.1184000E+00
        -11   -1    0    0    0    0  0.00000000000E+00  0.00000000000E+00  0.45593999997E+02  0.45594000000E+02  0.51100000000E-03 0. -1.
         11   -1    0    0    0    0 -0.00000000000E+00 -0.00000000000E+00 -0.45593999997E+02  0.45594000000E+02  0.51100000000E-03 0.  1.
         23    2    1    2    0    0  0.00000000000E+00  0.13322676296E-14  0.00000000000E+00  0.91188000000E+02  0.91188000000E+02 0.  0.
    9900012    2    3    3    0    0  0.29234936603E+02 -0.10771019503E+01  0.22359051519E+02  0.54367233419E+02  0.40000340223E+02 0.  0.
        -12    1    3    3    0    0 -0.29234936603E+02  0.10771019503E+01 -0.22359051519E+02  0.36820766581E+02  0.00000000000E+00 0.  1.
         11    1    4    4    0    0  0.10435993497E+02  0.45960378061E+01 -0.64913968925E+01  0.13121423614E+02  0.51100000000E-03 0. -1.
        -11    1    4    4    0    0  0.22260098822E+02 -0.92178586600E+01  0.26321697326E+02  0.35683506950E+02  0.51100000000E-03 0.  1.
        -12    1    4    4    0    0 -0.34611557159E+01  0.35447189035E+01  0.25287510854E+01  0.55623028546E+01  0.00000000000E+00 0.  1.
</event>
<event>
 8    1  0.2460897E-006  0.9118800E+02  0.7816164E-02  0.1184000E+00
        -11   -1    0    0    0    0  0.00000000000E+00  0.00000000000E+00  0.45593999997E+02  0.45594000000E+02  0.51100000000E-03 0. -1.
         11   -1    0    0    0    0 -0.00000000000E+00 -0.00000000000E+00 -0.45593999997E+02  0.45594000000E+02  0.51100000000E-03 0.  1.
         23    2    1    2    0    0  0.00000000000E+00  0.17763568394E-14  0.22204460493E-15  0.91188000000E+02  0.91188000000E+02 0.  0.
    9900012    2    3    3    0    0 -0.34884092313E+02  0.11708382704E+02  0.13392386222E+01  0.54367086348E+02  0.40000004948E+02 0.  0.
         12    1    3    3    0    0  0.34884092313E+02 -0.11708382704E+02 -0.13392386222E+01  0.36820913652E+02  0.00000000000E+00 0. -1.
         11    1    4    4    0    0  0.42593883681E+01  0.93391686218E+01 -0.17034530372E+01  0.10405009002E+02  0.51100000000E-03 0. -1.
        -11    1    4    4    0    0 -0.13845726414E+02  0.10382619550E+02  0.17423266646E+01  0.17393637662E+02  0.51100000000E-03 0.  1.
        -12    1    4    4    0    0 -0.25297754267E+02 -0.80134054677E+01  0.13003649948E+01  0.26568439685E+02  0.00000000000E+00 0.  1.
</event>
<event>
 8    1  0.2460897E-006  0.9118800E+02  0.7816164E-02  0.1184000E+00
        -11   -1    0    0    0    0  0.00000000000E+00  0.00000000000E+00  0.45593999997E+02  0.45594000000E+02  0.51100000000E-03 0. -1.
         11   -1    0    0    0    0 -0.00000000000E+00 -0.00000000000E+00 -0.45593999997E+02  0.45594000000E+02  0.51100000000E-03 0.  1.
         23    2    1    2    0    0  0.00000000000E+00  0.00000000000E+00  0.71054273576E-14  0.91188000000E+02  0.91188000000E+02 0.  0.
    9900012    2    3    3    0    0 -0.21518714722E+02  0.22975777729E+02  0.19100764547E+02  0.54367073181E+02  0.39999974931E+02 0.  0.
        -12    1    3    3    0    0  0.21518714722E+02 -0.22975777729E+02 -0.19100764547E+02  0.36820926819E+02  0.00000000000E+00 0.  1.
         11    1    4    4    0    0 -0.18019584739E+02  0.22560586786E+02 -0.83143783117E+00  0.28885581168E+02  0.51100000000E-03 0. -1.
        -11    1    4    4    0    0  0.76782681923E+00  0.64654179839E+01  0.15598631663E+02  0.16902913883E+02  0.51100000000E-03 0.  1.
         12    1    4    4    0    0 -0.42669568022E+01 -0.60502270404E+01  0.43335707147E+01  0.85785781299E+01  0.00000000000E+00 0. -1.
</event>
<event>
 8    1  0.2460897E-006  0.9118800E+02  0.7816164E-02  0.1184000E+00
        -11   -1    0    0    0    0  0.00000000000E+00  0.00000000000E+00  0.45593999997E+02  0.45594000000E+02  0.51100000000E-03 0.  1.
         11   -1    0    0    0    0 -0.00000000000E+00 -0.00000000000E+00 -0.45593999997E+02  0.45594000000E+02  0.51100000000E-03 0. -1.
         23    2    1    2    0    0  0.00000000000E+00  0.17763568394E-14  0.35527136788E-14  0.91188000000E+02  0.91188000000E+02 0.  0.
    9900012    2    3    3    0    0 -0.21631633384E+02  0.14703640406E+02  0.25916315032E+02  0.54367082183E+02  0.39999995453E+02 0.  0.
         12    1    3    3    0    0  0.21631633384E+02 -0.14703640406E+02 -0.25916315032E+02  0.36820917817E+02  0.00000000000E+00 0. -1.
         11    1    4    4    0    0 -0.29266000056E+02  0.12419319383E+02  0.62545064713E+01  0.32401498494E+02  0.51100000000E-03 0. -1.
        -11    1    4    4    0    0  0.42106693178E+01  0.15455934875E+00  0.15908244348E+02  0.16456787754E+02  0.51100000000E-03 0.  1.
         12    1    4    4    0    0  0.34236973535E+01  0.21297616740E+01  0.37535642124E+01  0.55087959349E+01  0.00000000000E+00 0. -1.
</event>
<event>
 8    1  0.2460897E-006  0.9118800E+02  0.7816164E-02  0.1184000E+00
        -11   -1    0    0    0    0  0.00000000000E+00  0.00000000000E+00  0.45593999997E+02  0.45594000000E+02  0.51100000000E-03 0.  1.
         11   -1    0    0    0    0 -0.00000000000E+00 -0.00000000000E+00 -0.45593999997E+02  0.45594000000E+02  0.51100000000E-03 0. -1.
         23    2    1    2    0    0  0.47184478547E-15  0.00000000000E+00  0.00000000000E+00  0.91188000000E+02  0.91188000000E+02 0.  0.
    9900012    2    3    3    0    0 -0.23540199574E+00  0.25771793242E+02 -0.26296980891E+02  0.54367191413E+02  0.40000244463E+02 0.  0.
        -12    1    3    3    0    0  0.23540199574E+00 -0.25771793242E+02  0.26296980891E+02  0.36820808587E+02  0.00000000000E+00 0.  1.
         11    1    4    4    0    0 -0.58431312093E+01  0.38173754816E+01 -0.21858921403E+02  0.22946175783E+02  0.51100000000E-03 0. -1.
        -11    1    4    4    0    0 -0.64308277540E+01  0.15813929856E+02  0.37427825775E+00  0.17075596844E+02  0.51100000000E-03 0.  1.
        -12    1    4    4    0    0  0.12038556968E+02  0.61404879048E+01 -0.48123377457E+01  0.14345418786E+02  0.00000000000E+00 0.  1.
</event>
<event>
 8    1  0.2460897E-006  0.9118800E+02  0.7816164E-02  0.1184000E+00
        -11   -1    0    0    0    0  0.00000000000E+00  0.00000000000E+00  0.45593999997E+02  0.45594000000E+02  0.51100000000E-03 0. -1.
         11   -1    0    0    0    0 -0.00000000000E+00 -0.00000000000E+00 -0.45593999997E+02  0.45594000000E+02  0.51100000000E-03 0.  1.
         23    2    1    2    0    0  0.00000000000E+00  0.00000000000E+00 -0.88817841970E-15  0.91188000000E+02  0.91188000000E+02 0.  0.
    9900012    2    3    3    0    0  0.14364820674E+02 -0.33509038007E+02 -0.51554016653E+01  0.54367056673E+02  0.39999937298E+02 0.  0.
         12    1    3    3    0    0 -0.14364820674E+02  0.33509038007E+02  0.51554016653E+01  0.36820943327E+02  0.00000000000E+00 0. -1.
         11    1    4    4    0    0  0.10496982996E+01  0.32898864659E+01 -0.12150026137E+01  0.36607992421E+01  0.51100000000E-03 0. -1.
        -11    1    4    4    0    0 -0.39876827755E+00 -0.34590671452E+02 -0.92940496633E+01  0.35819728182E+02  0.51100000000E-03 0.  1.
        -12    1    4    4    0    0  0.13713890652E+02 -0.22082530210E+01  0.53536506117E+01  0.14886529250E+02  0.00000000000E+00 0.  1.
</event>
<event>
 8    1  0.2460897E-006  0.9118800E+02  0.7816164E-02  0.1184000E+00
        -11   -1    0    0    0    0  0.00000000000E+00  0.00000000000E+00  0.45593999997E+02  0.45594000000E+02  0.51100000000E-03 0.  1.
         11   -1    0    0    0    0 -0.00000000000E+00 -0.00000000000E+00 -0.45593999997E+02  0.45594000000E+02  0.51100000000E-03 0. -1.
         23    2    1    2    0    0  0.00000000000E+00  0.00000000000E+00 -0.17763568394E-14  0.91188000000E+02  0.91188000000E+02 0.  0.
    9900012    2    3    3    0    0 -0.23345256341E+02 -0.27147078729E+02 -0.85916559268E+01  0.54367062631E+02  0.39999950881E+02 0.  0.
         12    1    3    3    0    0  0.23345256341E+02  0.27147078729E+02  0.85916559268E+01  0.36820937369E+02  0.00000000000E+00 0. -1.
         11    1    4    4    0    0 -0.15548413476E+01  0.46908283579E+01 -0.15683810381E+01  0.51847103719E+01  0.51100000000E-03 0. -1.
        -11    1    4    4    0    0 -0.23801605987E+02 -0.11921110494E+02 -0.10947458117E+02  0.28783261845E+02  0.51100000000E-03 0.  1.
        -12    1    4    4    0    0  0.20111909932E+01 -0.19916796593E+02  0.39241832278E+01  0.20399090415E+02  0.00000000000E+00 0.  1.
</event>
<event>
 8    1  0.2460897E-006  0.9118800E+02  0.7816164E-02  0.1184000E+00
        -11   -1    0    0    0    0  0.00000000000E+00  0.00000000000E+00  0.45593999997E+02  0.45594000000E+02  0.51100000000E-03 0.  1.
         11   -1    0    0    0    0 -0.00000000000E+00 -0.00000000000E+00 -0.45593999997E+02  0.45594000000E+02  0.51100000000E-03 0. -1.
         23    2    1    2    0    0  0.00000000000E+00 -0.35527136788E-14 -0.17763568394E-14  0.91188000000E+02  0.91188000000E+02 0.  0.
    9900012    2    3    3    0    0 -0.30245338012E+02 -0.18295610775E+02 -0.10308713597E+02  0.54367089893E+02  0.40000013028E+02 0.  0.
         12    1    3    3    0    0  0.30245338012E+02  0.18295610775E+02  0.10308713597E+02  0.36820910107E+02  0.00000000000E+00 0. -1.
         11    1    4    4    0    0 -0.10160813658E+01 -0.77160761965E+01 -0.27594280978E+01  0.82574025516E+01  0.51100000000E-03 0. -1.
        -11    1    4    4    0    0 -0.20471875529E+02 -0.17209626364E+02 -0.16940416971E+02  0.31658279402E+02  0.51100000000E-03 0.  1.
        -12    1    4    4    0    0 -0.87573811172E+01  0.66300917853E+01  0.93911314716E+01  0.14451407939E+02  0.00000000000E+00 0.  1.
</event>
<event>
 8    1  0.2460897E-006  0.9118800E+02  0.7816164E-02  0.1184000E+00
        -11   -1    0    0    0    0  0.00000000000E+00  0.00000000000E+00  0.45593999997E+02  0.45594000000E+02  0.51100000000E-03 0.  1.
         11   -1    0    0    0    0 -0.00000000000E+00 -0.00000000000E+00 -0.45593999997E+02  0.45594000000E+02  0.51100000000E-03 0. -1.
         23    2    1    2    0    0  0.35527136788E-14  0.00000000000E+00  0.00000000000E+00  0.91188000000E+02  0.91188000000E+02 0.  0.
    9900012    2    3    3    0    0 -0.16451363042E+02  0.25198300490E+02 -0.21217394685E+02  0.54367088404E+02  0.40000009634E+02 0.  0.
        -12    1    3    3    0    0  0.16451363042E+02 -0.25198300490E+02  0.21217394685E+02  0.36820911596E+02  0.00000000000E+00 0.  1.
         11    1    4    4    0    0  0.26085103438E+00  0.12657067202E+02 -0.66129877868E+01  0.14282891905E+02  0.51100000000E-03 0. -1.
        -11    1    4    4    0    0 -0.32952995139E+01  0.49834301626E+01 -0.22145836607E+02  0.22937559905E+02  0.51100000000E-03 0.  1.
         12    1    4    4    0    0 -0.13416914562E+02  0.75578031254E+01  0.75414297089E+01  0.17146636595E+02  0.00000000000E+00 0. -1.
</event>
<event>
 8    1  0.2460897E-006  0.9118800E+02  0.7816164E-02  0.1184000E+00
        -11   -1    0    0    0    0  0.00000000000E+00  0.00000000000E+00  0.45593999997E+02  0.45594000000E+02  0.51100000000E-03 0.  1.
         11   -1    0    0    0    0 -0.00000000000E+00 -0.00000000000E+00 -0.45593999997E+02  0.45594000000E+02  0.51100000000E-03 0. -1.
         23    2    1    2    0    0  0.00000000000E+00  0.88817841970E-15  0.00000000000E+00  0.91188000000E+02  0.91188000000E+02 0.  0.
    9900012    2    3    3    0    0  0.60875791806E+01  0.64720272945E+01 -0.35732781397E+02  0.54367117013E+02  0.40000074855E+02 0.  0.
        -12    1    3    3    0    0 -0.60875791806E+01 -0.64720272945E+01  0.35732781397E+02  0.36820882987E+02  0.00000000000E+00 0.  1.
         11    1    4    4    0    0  0.10440123269E+02 -0.32290389941E+01 -0.34868448658E+02  0.36540820718E+02  0.51100000000E-03 0. -1.
        -11    1    4    4    0    0 -0.75052576104E+01  0.86835063853E+01 -0.50068482716E+01  0.12522008817E+02  0.51100000000E-03 0.  1.
        -12    1    4    4    0    0  0.31527135223E+01  0.10175599033E+01  0.41425155329E+01  0.53042874781E+01  0.00000000000E+00 0.  1.
</event>
<event>
 8    1  0.2460897E-006  0.9118800E+02  0.7816164E-02  0.1184000E+00
        -11   -1    0    0    0    0  0.00000000000E+00  0.00000000000E+00  0.45593999997E+02  0.45594000000E+02  0.51100000000E-03 0.  1.
         11   -1    0    0    0    0 -0.00000000000E+00 -0.00000000000E+00 -0.45593999997E+02  0.45594000000E+02  0.51100000000E-03 0. -1.
         23    2    1    2    0    0  0.00000000000E+00  0.00000000000E+00  0.88817841970E-15  0.91188000000E+02  0.91188000000E+02 0.  0.
    9900012    2    3    3    0    0 -0.34960454727E+02  0.11319386195E+02 -0.23276639184E+01  0.54367083147E+02  0.39999997651E+02 0.  0.
        -12    1    3    3    0    0  0.34960454727E+02 -0.11319386195E+02  0.23276639184E+01  0.36820916853E+02  0.00000000000E+00 0.  1.
         11    1    4    4    0    0 -0.10688688169E+02  0.86277544414E+01 -0.13323106048E+02  0.19136126999E+02  0.51100000000E-03 0. -1.
        -11    1    4    4    0    0 -0.23687349396E+02 -0.11868244328E+01  0.17085901155E+00  0.23717678358E+02  0.51100000000E-03 0.  1.
        -12    1    4    4    0    0 -0.58441716199E+00  0.38784561864E+01  0.10824583118E+02  0.11513277791E+02  0.00000000000E+00 0.  1.
</event>
<event>
 8    1  0.2460897E-006  0.9118800E+02  0.7816164E-02  0.1184000E+00
        -11   -1    0    0    0    0  0.00000000000E+00  0.00000000000E+00  0.45593999997E+02  0.45594000000E+02  0.51100000000E-03 0.  1.
         11   -1    0    0    0    0 -0.00000000000E+00 -0.00000000000E+00 -0.45593999997E+02  0.45594000000E+02  0.51100000000E-03 0. -1.
         23    2    1    2    0    0  0.00000000000E+00  0.17763568394E-14 -0.35527136788E-14  0.91188000000E+02  0.91188000000E+02 0.  0.
    9900012    2    3    3    0    0  0.18093043473E+02 -0.91724526376E+01  0.30729285965E+02  0.54367066750E+02  0.39999960269E+02 0.  0.
         12    1    3    3    0    0 -0.18093043473E+02  0.91724526376E+01 -0.30729285965E+02  0.36820933250E+02  0.00000000000E+00 0. -1.
         11    1    4    4    0    0  0.29858065352E+01 -0.17403681978E+02  0.13896619734E+02  0.22470407814E+02  0.51100000000E-03 0.  1.
        -11    1    4    4    0    0  0.13630216230E+02  0.71348651951E+01  0.42952197184E+00  0.15390698009E+02  0.51100000000E-03 0. -1.
         12    1    4    4    0    0  0.14770207078E+01  0.10963641451E+01  0.16403144260E+02  0.16505960927E+02  0.00000000000E+00 0. -1.
</event>
<event>
 8    1  0.2460897E-006  0.9118800E+02  0.7816164E-02  0.1184000E+00
        -11   -1    0    0    0    0  0.00000000000E+00  0.00000000000E+00  0.45593999997E+02  0.45594000000E+02  0.51100000000E-03 0.  1.
         11   -1    0    0    0    0 -0.00000000000E+00 -0.00000000000E+00 -0.45593999997E+02  0.45594000000E+02  0.51100000000E-03 0. -1.
         23    2    1    2    0    0  0.17763568394E-14  0.88817841970E-15  0.00000000000E+00  0.91188000000E+02  0.91188000000E+02 0.  0.
    9900012    2    3    3    0    0  0.10885199992E+02  0.26914900688E+01  0.35072044012E+02  0.54367082455E+02  0.39999996073E+02 0.  0.
         12    1    3    3    0    0 -0.10885199992E+02 -0.26914900688E+01 -0.35072044012E+02  0.36820917545E+02  0.00000000000E+00 0. -1.
         11    1    4    4    0    0 -0.62438508526E+01 -0.10399622055E+02  0.27284491031E+00  0.12133105825E+02  0.51100000000E-03 0. -1.
        -11    1    4    4    0    0  0.70313889694E+01  0.48319362309E-01  0.14190587511E+02  0.15837156934E+02  0.51100000000E-03 0.  1.
         12    1    4    4    0    0  0.10097661876E+02  0.13042792761E+02  0.20608611591E+02  0.26396819696E+02  0.00000000000E+00 0. -1.
</event>
<event>
 8    1  0.2460897E-006  0.9118800E+02  0.7816164E-02  0.1184000E+00
        -11   -1    0    0    0    0  0.00000000000E+00  0.00000000000E+00  0.45593999997E+02  0.45594000000E+02  0.51100000000E-03 0.  1.
         11   -1    0    0    0    0 -0.00000000000E+00 -0.00000000000E+00 -0.45593999997E+02  0.45594000000E+02  0.51100000000E-03 0. -1.
         23    2    1    2    0    0 -0.17763568394E-14 -0.44408920985E-14  0.71054273576E-14  0.91188000000E+02  0.91188000000E+02 0.  0.
    9900012    2    3    3    0    0 -0.11205667623E+02 -0.52519697376E+01  0.34678929259E+02  0.54367105014E+02  0.40000047501E+02 0.  0.
         12    1    3    3    0    0  0.11205667623E+02  0.52519697376E+01 -0.34678929259E+02  0.36820894986E+02  0.00000000000E+00 0. -1.
         11    1    4    4    0    0 -0.35242107717E+01  0.12997407335E+02  0.15823414121E+02  0.20778187931E+02  0.51100000000E-03 0. -1.
        -11    1    4    4    0    0 -0.10708203558E+02 -0.73201612842E+01  0.18039815237E+02  0.22219030553E+02  0.51100000000E-03 0.  1.
         12    1    4    4    0    0  0.30267467069E+01 -0.10929215789E+02  0.81569990110E+00  0.11369886530E+02  0.00000000000E+00 0. -1.
</event>
<event>
 8    1  0.2460897E-006  0.9118800E+02  0.7816164E-02  0.1184000E+00
        -11   -1    0    0    0    0  0.00000000000E+00  0.00000000000E+00  0.45593999997E+02  0.45594000000E+02  0.51100000000E-03 0.  1.
         11   -1    0    0    0    0 -0.00000000000E+00 -0.00000000000E+00 -0.45593999997E+02  0.45594000000E+02  0.51100000000E-03 0. -1.
         23    2    1    2    0    0  0.00000000000E+00  0.00000000000E+00  0.00000000000E+00  0.91188000000E+02  0.91188000000E+02 0.  0.
    9900012    2    3    3    0    0  0.32739836048E+02 -0.15325715498E+02 -0.70003838472E+01  0.54367084830E+02  0.40000001487E+02 0.  0.
        -12    1    3    3    0    0 -0.32739836048E+02  0.15325715498E+02  0.70003838472E+01  0.36820915170E+02  0.00000000000E+00 0.  1.
         11    1    4    4    0    0  0.14056514878E+01 -0.60104677341E+01 -0.10349134718E+02  0.12050152205E+02  0.51100000000E-03 0. -1.
        -11    1    4    4    0    0 -0.26377068298E+00  0.36246458118E+01  0.70905524374E+01  0.79676575205E+01  0.51100000000E-03 0.  1.
         12    1    4    4    0    0  0.31597955243E+02 -0.12939893575E+02 -0.37418015670E+01  0.34349275105E+02  0.00000000000E+00 0. -1.
</event>
<event>
 8    1  0.2460897E-006  0.9118800E+02  0.7816164E-02  0.1184000E+00
        -11   -1    0    0    0    0  0.00000000000E+00  0.00000000000E+00  0.45593999997E+02  0.45594000000E+02  0.51100000000E-03 0. -1.
         11   -1    0    0    0    0 -0.00000000000E+00 -0.00000000000E+00 -0.45593999997E+02  0.45594000000E+02  0.51100000000E-03 0.  1.
         23    2    1    2    0    0 -0.11102230246E-14  0.00000000000E+00  0.35527136788E-14  0.91188000000E+02  0.91188000000E+02 0.  0.
    9900012    2    3    3    0    0  0.14845879622E+01 -0.26848230760E+02 -0.25154489610E+02  0.54367084151E+02  0.39999999940E+02 0.  0.
        -12    1    3    3    0    0 -0.14845879622E+01  0.26848230760E+02  0.25154489610E+02  0.36820915849E+02  0.00000000000E+00 0.  1.
         11    1    4    4    0    0  0.96691033134E+00  0.47723683521E+01  0.20835290400E+00  0.48737897442E+01  0.51100000000E-03 0. -1.
        -11    1    4    4    0    0  0.98719884959E+01 -0.56313687408E+00 -0.40687652604E+01  0.10692433353E+02  0.51100000000E-03 0.  1.
        -12    1    4    4    0    0 -0.93543108651E+01 -0.31057462238E+02 -0.21294077254E+02  0.38800861054E+02  0.00000000000E+00 0.  1.
</event>
<event>
 8    1  0.2460897E-006  0.9118800E+02  0.7816164E-02  0.1184000E+00
        -11   -1    0    0    0    0  0.00000000000E+00  0.00000000000E+00  0.45593999997E+02  0.45594000000E+02  0.51100000000E-03 0.  1.
         11   -1    0    0    0    0 -0.00000000000E+00 -0.00000000000E+00 -0.45593999997E+02  0.45594000000E+02  0.51100000000E-03 0. -1.
         23    2    1    2    0    0  0.00000000000E+00  0.35527136788E-14  0.00000000000E+00  0.91188000000E+02  0.91188000000E+02 0.  0.
    9900012    2    3    3    0    0  0.26480026085E+02  0.18657690003E+02 -0.17506484027E+02  0.54367107008E+02  0.40000052046E+02 0.  0.
        -12    1    3    3    0    0 -0.26480026085E+02 -0.18657690003E+02  0.17506484027E+02  0.36820892992E+02  0.00000000000E+00 0.  1.
         11    1    4    4    0    0  0.20132331194E+02  0.12928938640E+01 -0.74003058851E+01  0.21488295914E+02  0.51100000000E-03 0. -1.
        -11    1    4    4    0    0 -0.27192533757E+01 -0.57900035148E+01 -0.15570824625E+01  0.65835389935E+01  0.51100000000E-03 0.  1.
         12    1    4    4    0    0  0.90669482674E+01  0.23154799654E+02 -0.85490956792E+01  0.26295272101E+02  0.00000000000E+00 0. -1.
</event>
<event>
 8    1  0.2460897E-006  0.9118800E+02  0.7816164E-02  0.1184000E+00
        -11   -1    0    0    0    0  0.00000000000E+00  0.00000000000E+00  0.45593999997E+02  0.45594000000E+02  0.51100000000E-03 0.  1.
         11   -1    0    0    0    0 -0.00000000000E+00 -0.00000000000E+00 -0.45593999997E+02  0.45594000000E+02  0.51100000000E-03 0. -1.
         23    2    1    2    0    0  0.00000000000E+00  0.88817841970E-15  0.00000000000E+00  0.91188000000E+02  0.91188000000E+02 0.  0.
    9900012    2    3    3    0    0 -0.87040866944E+01 -0.33122732494E+01  0.35623688491E+02  0.54367089351E+02  0.40000011795E+02 0.  0.
         12    1    3    3    0    0  0.87040866944E+01  0.33122732494E+01 -0.35623688491E+02  0.36820910649E+02  0.00000000000E+00 0. -1.
         11    1    4    4    0    0  0.96641585191E+01 -0.35316896758E+01  0.78117224361E+01  0.12918660903E+02  0.51100000000E-03 0. -1.
        -11    1    4    4    0    0 -0.16074380716E+02  0.82366302787E+01  0.27748804161E+02  0.33109272513E+02  0.51100000000E-03 0.  1.
        -12    1    4    4    0    0 -0.22938644976E+01 -0.80172138523E+01  0.63161894515E-01  0.83391559352E+01  0.00000000000E+00 0.  1.
</event>
<event>
 8    1  0.2460897E-006  0.9118800E+02  0.7816164E-02  0.1184000E+00
        -11   -1    0    0    0    0  0.00000000000E+00  0.00000000000E+00  0.45593999997E+02  0.45594000000E+02  0.51100000000E-03 0. -1.
         11   -1    0    0    0    0 -0.00000000000E+00 -0.00000000000E+00 -0.45593999997E+02  0.45594000000E+02  0.51100000000E-03 0.  1.
         23    2    1    2    0    0  0.35527136788E-14  0.77715611724E-15  0.71054273576E-14  0.91188000000E+02  0.91188000000E+02 0.  0.
    9900012    2    3    3    0    0 -0.16133216730E+02  0.85113012552E+00 -0.33087194681E+02  0.54367251007E+02  0.40000380318E+02 0.  0.
         12    1    3    3    0    0  0.16133216730E+02 -0.85113012552E+00  0.33087194681E+02  0.36820748993E+02  0.00000000000E+00 0. -1.
         11    1    4    4    0    0  0.34500323515E+01 -0.64807531210E+01 -0.18601779163E+02  0.19998226735E+02  0.51100000000E-03 0. -1.
        -11    1    4    4    0    0 -0.17569305636E+02 -0.42910508158E+01 -0.38601186232E+01  0.18493083401E+02  0.51100000000E-03 0.  1.
         12    1    4    4    0    0 -0.20139434449E+01  0.11622934062E+02 -0.10625296895E+02  0.15875940870E+02  0.00000000000E+00 0. -1.
</event>
<event>
 8    1  0.2460897E-006  0.9118800E+02  0.7816164E-02  0.1184000E+00
        -11   -1    0    0    0    0  0.00000000000E+00  0.00000000000E+00  0.45593999997E+02  0.45594000000E+02  0.51100000000E-03 0.  1.
         11   -1    0    0    0    0 -0.00000000000E+00 -0.00000000000E+00 -0.45593999997E+02  0.45594000000E+02  0.51100000000E-03 0. -1.
         23    2    1    2    0    0  0.35527136788E-14 -0.71054273576E-14 -0.35527136788E-14  0.91188000000E+02  0.91188000000E+02 0.  0.
    9900012    2    3    3    0    0  0.22728573314E+02 -0.19068444953E+02 -0.21807920497E+02  0.54367095147E+02  0.40000025007E+02 0.  0.
        -12    1    3    3    0    0 -0.22728573314E+02  0.19068444953E+02  0.21807920497E+02  0.36820904853E+02  0.00000000000E+00 0.  1.
         11    1    4    4    0    0  0.14809932179E+02 -0.16404062253E+02 -0.81160506232E+01  0.23543526233E+02  0.51100000000E-03 0. -1.
        -11    1    4    4    0    0 -0.92919176695E+01 -0.24410435752E+01 -0.85476448054E+01  0.12859263575E+02  0.51100000000E-03 0.  1.
        -12    1    4    4    0    0  0.17210558805E+02 -0.22333912480E+00 -0.51442250681E+01  0.17964305338E+02  0.00000000000E+00 0.  1.
</event>
<event>
 8    1  0.2460897E-006  0.9118800E+02  0.7816164E-02  0.1184000E+00
        -11   -1    0    0    0    0  0.00000000000E+00  0.00000000000E+00  0.45593999997E+02  0.45594000000E+02  0.51100000000E-03 0.  1.
         11   -1    0    0    0    0 -0.00000000000E+00 -0.00000000000E+00 -0.45593999997E+02  0.45594000000E+02  0.51100000000E-03 0. -1.
         23    2    1    2    0    0  0.10658141036E-13 -0.35527136788E-14 -0.17763568394E-14  0.91188000000E+02  0.91188000000E+02 0.  0.
    9900012    2    3    3    0    0 -0.31379591984E+02 -0.17956493291E+02  0.69760386529E+01  0.54367088011E+02  0.40000008738E+02 0.  0.
         12    1    3    3    0    0  0.31379591984E+02  0.17956493291E+02 -0.69760386529E+01  0.36820911989E+02  0.00000000000E+00 0. -1.
         11    1    4    4    0    0  0.58403732865E+01 -0.67336304784E+01 -0.33278367906E+01  0.95145277082E+01  0.51100000000E-03 0. -1.
        -11    1    4    4    0    0 -0.29937392344E+01  0.48728846597E+01  0.24601305386E+01  0.62257306430E+01  0.51100000000E-03 0.  1.
         12    1    4    4    0    0 -0.34226226037E+02 -0.16095747473E+02  0.78437449049E+01  0.38626829659E+02  0.00000000000E+00 0. -1.
</event>
<event>
 8    1  0.2460897E-006  0.9118800E+02  0.7816164E-02  0.1184000E+00
        -11   -1    0    0    0    0  0.00000000000E+00  0.00000000000E+00  0.45593999997E+02  0.45594000000E+02  0.51100000000E-03 0.  1.
         11   -1    0    0    0    0 -0.00000000000E+00 -0.00000000000E+00 -0.45593999997E+02  0.45594000000E+02  0.51100000000E-03 0. -1.
         23    2    1    2    0    0  0.88817841970E-15  0.00000000000E+00  0.00000000000E+00  0.91188000000E+02  0.91188000000E+02 0.  0.
    9900012    2    3    3    0    0 -0.46924914185E+01  0.23836170334E+01 -0.36442811628E+02  0.54367087122E+02  0.40000006711E+02 0.  0.
        -12    1    3    3    0    0  0.46924914185E+01 -0.23836170334E+01  0.36442811628E+02  0.36820912878E+02  0.00000000000E+00 0.  1.
         11    1    4    4    0    0  0.85713383148E+01 -0.16376367721E+01 -0.73696207057E+01  0.11421952736E+02  0.51100000000E-03 0. -1.
        -11    1    4    4    0    0 -0.87396269310E+01 -0.10365095709E+02 -0.22976643260E+02  0.26678501152E+02  0.51100000000E-03 0.  1.
         12    1    4    4    0    0 -0.45242028023E+01  0.14386349515E+02 -0.60965476620E+01  0.16266633233E+02  0.00000000000E+00 0. -1.
</event>
<event>
 8    1  0.2460897E-006  0.9118800E+02  0.7816164E-02  0.1184000E+00
        -11   -1    0    0    0    0  0.00000000000E+00  0.00000000000E+00  0.45593999997E+02  0.45594000000E+02  0.51100000000E-03 0.  1.
         11   -1    0    0    0    0 -0.00000000000E+00 -0.00000000000E+00 -0.45593999997E+02  0.45594000000E+02  0.51100000000E-03 0. -1.
         23    2    1    2    0    0  0.35527136788E-14  0.13322676296E-14  0.35527136788E-14  0.91188000000E+02  0.91188000000E+02 0.  0.
    9900012    2    3    3    0    0 -0.21555817230E+02  0.12606748938E+01 -0.29825146074E+02  0.54367056286E+02  0.39999936415E+02 0.  0.
         12    1    3    3    0    0  0.21555817230E+02 -0.12606748938E+01  0.29825146074E+02  0.36820943714E+02  0.00000000000E+00 0. -1.
         11    1    4    4    0    0  0.22048484329E+01  0.12205436548E+02 -0.17661208174E+02  0.21581295428E+02  0.51100000000E-03 0. -1.
        -11    1    4    4    0    0 -0.15287415771E+02  0.92085308840E+00 -0.31245495319E+01  0.15630606559E+02  0.51100000000E-03 0.  1.
         12    1    4    4    0    0 -0.84732498913E+01 -0.11865614742E+02 -0.90393883686E+01  0.17155154299E+02  0.00000000000E+00 0. -1.
</event>
<event>
 8    1  0.2460897E-006  0.9118800E+02  0.7816164E-02  0.1184000E+00
        -11   -1    0    0    0    0  0.00000000000E+00  0.00000000000E+00  0.45593999997E+02  0.45594000000E+02  0.51100000000E-03 0.  1.
         11   -1    0    0    0    0 -0.00000000000E+00 -0.00000000000E+00 -0.45593999997E+02  0.45594000000E+02  0.51100000000E-03 0. -1.
         23    2    1    2    0    0 -0.35527136788E-14  0.35527136788E-14  0.00000000000E+00  0.91188000000E+02  0.91188000000E+02 0.  0.
    9900012    2    3    3    0    0 -0.11042259545E+02 -0.31270144864E+02  0.16000839993E+02  0.54367077467E+02  0.39999984702E+02 0.  0.
         12    1    3    3    0    0  0.11042259545E+02  0.31270144864E+02 -0.16000839993E+02  0.36820922533E+02  0.00000000000E+00 0. -1.
         11    1    4    4    0    0  0.92054901499E+01 -0.95721295339E+01  0.27065873274E+01  0.13553314279E+02  0.51100000000E-03 0. -1.
        -11    1    4    4    0    0  0.48338933858E+01 -0.92908340648E+01  0.21374618739E+01  0.10689006802E+02  0.51100000000E-03 0.  1.
         12    1    4    4    0    0 -0.25081643081E+02 -0.12407181265E+02  0.11156790792E+02  0.30124756387E+02  0.00000000000E+00 0. -1.
</event>
<event>
 8    1  0.2460897E-006  0.9118800E+02  0.7816164E-02  0.1184000E+00
        -11   -1    0    0    0    0  0.00000000000E+00  0.00000000000E+00  0.45593999997E+02  0.45594000000E+02  0.51100000000E-03 0. -1.
         11   -1    0    0    0    0 -0.00000000000E+00 -0.00000000000E+00 -0.45593999997E+02  0.45594000000E+02  0.51100000000E-03 0.  1.
         23    2    1    2    0    0  0.00000000000E+00  0.35527136788E-14  0.00000000000E+00  0.91188000000E+02  0.91188000000E+02 0.  0.
    9900012    2    3    3    0    0  0.21213825585E+02  0.24773747579E+02  0.17088542699E+02  0.54367037810E+02  0.39999894295E+02 0.  0.
        -12    1    3    3    0    0 -0.21213825585E+02 -0.24773747579E+02 -0.17088542699E+02  0.36820962190E+02  0.00000000000E+00 0.  1.
         11    1    4    4    0    0 -0.15383776158E+00  0.83538368570E+01  0.40952544427E+01  0.93049108272E+01  0.51100000000E-03 0. -1.
        -11    1    4    4    0    0 -0.48763599700E+01 -0.14038623670E+01 -0.61781059404E+01  0.79949177216E+01  0.51100000000E-03 0.  1.
         12    1    4    4    0    0  0.26244023316E+02  0.17823773089E+02  0.19171394197E+02  0.37067209261E+02  0.00000000000E+00 0. -1.
</event>
<event>
 8    1  0.2460897E-006  0.9118800E+02  0.7816164E-02  0.1184000E+00
        -11   -1    0    0    0    0  0.00000000000E+00  0.00000000000E+00  0.45593999997E+02  0.45594000000E+02  0.51100000000E-03 0.  1.
         11   -1    0    0    0    0 -0.00000000000E+00 -0.00000000000E+00 -0.45593999997E+02  0.45594000000E+02  0.51100000000E-03 0. -1.
         23    2    1    2    0    0  0.00000000000E+00 -0.35527136788E-14  0.00000000000E+00  0.91188000000E+02  0.91188000000E+02 0.  0.
    9900012    2    3    3    0    0 -0.32819506751E+02 -0.15685798259E+02  0.57102678701E+01  0.54367198141E+02  0.40000259801E+02 0.  0.
         12    1    3    3    0    0  0.32819506751E+02  0.15685798259E+02 -0.57102678701E+01  0.36820801859E+02  0.00000000000E+00 0. -1.
         11    1    4    4    0    0 -0.20398828811E+02  0.91888636016E+01  0.13692859265E+01  0.22414780288E+02  0.51100000000E-03 0. -1.
        -11    1    4    4    0    0 -0.15699843156E+02 -0.17183792171E+02  0.36869913659E+01  0.23566113258E+02  0.51100000000E-03 0.  1.
         12    1    4    4    0    0  0.32791652156E+01 -0.76908696897E+01  0.65399057763E+00  0.83863045956E+01  0.00000000000E+00 0. -1.
</event>
<event>
 8    1  0.2460897E-006  0.9118800E+02  0.7816164E-02  0.1184000E+00
        -11   -1    0    0    0    0  0.00000000000E+00  0.00000000000E+00  0.45593999997E+02  0.45594000000E+02  0.51100000000E-03 0. -1.
         11   -1    0    0    0    0 -0.00000000000E+00 -0.00000000000E+00 -0.45593999997E+02  0.45594000000E+02  0.51100000000E-03 0.  1.
         23    2    1    2    0    0  0.00000000000E+00  0.00000000000E+00  0.35527136788E-14  0.91188000000E+02  0.91188000000E+02 0.  0.
    9900012    2    3    3    0    0 -0.96641958402E+01 -0.27848187871E+02 -0.22064936586E+02  0.54367086439E+02  0.40000005154E+02 0.  0.
         12    1    3    3    0    0  0.96641958402E+01  0.27848187871E+02  0.22064936586E+02  0.36820913561E+02  0.00000000000E+00 0. -1.
         11    1    4    4    0    0 -0.44627181892E+01 -0.40474955941E+00 -0.13875891524E+01  0.46909572327E+01  0.51100000000E-03 0. -1.
        -11    1    4    4    0    0  0.26504803416E+01 -0.17087773347E+02 -0.29340786833E+02  0.34057287270E+02  0.51100000000E-03 0.  1.
         12    1    4    4    0    0 -0.78519579926E+01 -0.10355664965E+02  0.86634393991E+01  0.15618841936E+02  0.00000000000E+00 0. -1.
</event>
<event>
 8    1  0.2460897E-006  0.9118800E+02  0.7816164E-02  0.1184000E+00
        -11   -1    0    0    0    0  0.00000000000E+00  0.00000000000E+00  0.45593999997E+02  0.45594000000E+02  0.51100000000E-03 0. -1.
         11   -1    0    0    0    0 -0.00000000000E+00 -0.00000000000E+00 -0.45593999997E+02  0.45594000000E+02  0.51100000000E-03 0.  1.
         23    2    1    2    0    0  0.00000000000E+00 -0.35527136788E-14  0.35527136788E-14  0.91188000000E+02  0.91188000000E+02 0.  0.
    9900012    2    3    3    0    0  0.15751490841E+02  0.23261649423E+02  0.23802642218E+02  0.54367087815E+02  0.40000008291E+02 0.  0.
        -12    1    3    3    0    0 -0.15751490841E+02 -0.23261649423E+02 -0.23802642218E+02  0.36820912185E+02  0.00000000000E+00 0.  1.
         11    1    4    4    0    0  0.71923494694E+01  0.60826339253E+01  0.13200811925E+02  0.16216959089E+02  0.51100000000E-03 0. -1.
        -11    1    4    4    0    0  0.13174656574E+02  0.24544646080E+02  0.92549146337E+01  0.29354125301E+02  0.51100000000E-03 0.  1.
         12    1    4    4    0    0 -0.46155152028E+01 -0.73656305817E+01  0.13469156593E+01  0.87960034247E+01  0.00000000000E+00 0. -1.
</event>
<event>
 8    1  0.2460897E-006  0.9118800E+02  0.7816164E-02  0.1184000E+00
        -11   -1    0    0    0    0  0.00000000000E+00  0.00000000000E+00  0.45593999997E+02  0.45594000000E+02  0.51100000000E-03 0.  1.
         11   -1    0    0    0    0 -0.00000000000E+00 -0.00000000000E+00 -0.45593999997E+02  0.45594000000E+02  0.51100000000E-03 0. -1.
         23    2    1    2    0    0  0.17763568394E-14 -0.44408920985E-15  0.00000000000E+00  0.91188000000E+02  0.91188000000E+02 0.  0.
    9900012    2    3    3    0    0 -0.86558525403E+01 -0.22382001940E+01 -0.35719034195E+02  0.54367045000E+02  0.39999910686E+02 0.  0.
        -12    1    3    3    0    0  0.86558525403E+01  0.22382001940E+01  0.35719034195E+02  0.36820955000E+02  0.00000000000E+00 0.  1.
         11    1    4    4    0    0 -0.16561983756E+02 -0.13750648264E+02 -0.25855033459E+02  0.33643162590E+02  0.51100000000E-03 0. -1.
        -11    1    4    4    0    0  0.81131157711E+01  0.15542534555E+01 -0.42346462130E+01  0.92828110036E+01  0.51100000000E-03 0.  1.
         12    1    4    4    0    0 -0.20698455527E+00  0.99581946142E+01 -0.56293545232E+01  0.11441071407E+02  0.00000000000E+00 0. -1.
</event>
<event>
 8    1  0.2460897E-006  0.9118800E+02  0.7816164E-02  0.1184000E+00
        -11   -1    0    0    0    0  0.00000000000E+00  0.00000000000E+00  0.45593999997E+02  0.45594000000E+02  0.51100000000E-03 0.  1.
         11   -1    0    0    0    0 -0.00000000000E+00 -0.00000000000E+00 -0.45593999997E+02  0.45594000000E+02  0.51100000000E-03 0. -1.
         23    2    1    2    0    0  0.00000000000E+00  0.00000000000E+00  0.00000000000E+00  0.91188000000E+02  0.91188000000E+02 0.  0.
    9900012    2    3    3    0    0 -0.31123236964E+02  0.52351953113E+01  0.18966163676E+02  0.54367102216E+02  0.40000041121E+02 0.  0.
         12    1    3    3    0    0  0.31123236964E+02 -0.52351953113E+01 -0.18966163676E+02  0.36820897784E+02  0.00000000000E+00 0. -1.
         11    1    4    4    0    0 -0.24939149830E+02  0.74727551406E+01  0.15951269114E+02  0.30532707876E+02  0.51100000000E-03 0. -1.
        -11    1    4    4    0    0 -0.13089652630E+02  0.68414914172E+00 -0.38573429599E+01  0.13663314422E+02  0.51100000000E-03 0.  1.
         12    1    4    4    0    0  0.69055654964E+01 -0.29217089710E+01  0.68722375216E+01  0.10171079918E+02  0.00000000000E+00 0. -1.
</event>
<event>
 8    1  0.2460897E-006  0.9118800E+02  0.7816164E-02  0.1184000E+00
        -11   -1    0    0    0    0  0.00000000000E+00  0.00000000000E+00  0.45593999997E+02  0.45594000000E+02  0.51100000000E-03 0. -1.
         11   -1    0    0    0    0 -0.00000000000E+00 -0.00000000000E+00 -0.45593999997E+02  0.45594000000E+02  0.51100000000E-03 0.  1.
         23    2    1    2    0    0  0.00000000000E+00  0.00000000000E+00  0.00000000000E+00  0.91188000000E+02  0.91188000000E+02 0.  0.
    9900012    2    3    3    0    0  0.20545373933E+02  0.23927803066E+02  0.19003319592E+02  0.54367105048E+02  0.40000047577E+02 0.  0.
        -12    1    3    3    0    0 -0.20545373933E+02 -0.23927803066E+02 -0.19003319592E+02  0.36820894952E+02  0.00000000000E+00 0.  1.
         11    1    4    4    0    0  0.10873629632E+02  0.26546811924E+02  0.11823246583E+02  0.31028345182E+02  0.51100000000E-03 0. -1.
        -11    1    4    4    0    0  0.10453539589E+02  0.40682396077E+01  0.10904899242E+02  0.15644292608E+02  0.51100000000E-03 0.  1.
        -12    1    4    4    0    0 -0.78179528899E+00 -0.66872484659E+01 -0.37248262330E+01  0.76944672580E+01  0.00000000000E+00 0.  1.
</event>
<event>
 8    1  0.2460897E-006  0.9118800E+02  0.7816164E-02  0.1184000E+00
        -11   -1    0    0    0    0  0.00000000000E+00  0.00000000000E+00  0.45593999997E+02  0.45594000000E+02  0.51100000000E-03 0.  1.
         11   -1    0    0    0    0 -0.00000000000E+00 -0.00000000000E+00 -0.45593999997E+02  0.45594000000E+02  0.51100000000E-03 0. -1.
         23    2    1    2    0    0  0.17763568394E-14  0.00000000000E+00  0.35527136788E-14  0.91188000000E+02  0.91188000000E+02 0.  0.
    9900012    2    3    3    0    0  0.98789028600E+01  0.33188802892E+02  0.12517626426E+02  0.54367077545E+02  0.39999984878E+02 0.  0.
         12    1    3    3    0    0 -0.98789028600E+01 -0.33188802892E+02 -0.12517626426E+02  0.36820922455E+02  0.00000000000E+00 0. -1.
         11    1    4    4    0    0  0.66625245900E+01  0.16025808799E+02 -0.57221381105E+01  0.18274535463E+02  0.51100000000E-03 0. -1.
        -11    1    4    4    0    0 -0.28151767758E+01  0.97915359371E+01 -0.47253096678E+01  0.11230669971E+02  0.51100000000E-03 0.  1.
        -12    1    4    4    0    0  0.60315550459E+01  0.73714581562E+01  0.22965074204E+02  0.24861872110E+02  0.00000000000E+00 0.  1.
</event>
<event>
 8    1  0.2460897E-006  0.9118800E+02  0.7816164E-02  0.1184000E+00
        -11   -1    0    0    0    0  0.00000000000E+00  0.00000000000E+00  0.45593999997E+02  0.45594000000E+02  0.51100000000E-03 0. -1.
         11   -1    0    0    0    0 -0.00000000000E+00 -0.00000000000E+00 -0.45593999997E+02  0.45594000000E+02  0.51100000000E-03 0.  1.
         23    2    1    2    0    0 -0.35527136788E-14 -0.17763568394E-14  0.00000000000E+00  0.91188000000E+02  0.91188000000E+02 0.  0.
    9900012    2    3    3    0    0 -0.24898820124E+02 -0.15142359135E+02  0.22506364261E+02  0.54367099468E+02  0.40000034858E+02 0.  0.
        -12    1    3    3    0    0  0.24898820124E+02  0.15142359135E+02 -0.22506364261E+02  0.36820900532E+02  0.00000000000E+00 0.  1.
         11    1    4    4    0    0 -0.73259053264E+01 -0.15864138371E+02  0.36804349554E+01  0.17857361978E+02  0.51100000000E-03 0. -1.
        -11    1    4    4    0    0 -0.38909095220E+01 -0.11336543923E+02  0.12209447655E+02  0.17109267002E+02  0.51100000000E-03 0.  1.
         12    1    4    4    0    0 -0.13682005275E+02  0.12058323158E+02  0.66164816501E+01  0.19400470488E+02  0.00000000000E+00 0. -1.
</event>
<event>
 8    1  0.2460897E-006  0.9118800E+02  0.7816164E-02  0.1184000E+00
        -11   -1    0    0    0    0  0.00000000000E+00  0.00000000000E+00  0.45593999997E+02  0.45594000000E+02  0.51100000000E-03 0. -1.
         11   -1    0    0    0    0 -0.00000000000E+00 -0.00000000000E+00 -0.45593999997E+02  0.45594000000E+02  0.51100000000E-03 0.  1.
         23    2    1    2    0    0  0.00000000000E+00  0.00000000000E+00  0.00000000000E+00  0.91188000000E+02  0.91188000000E+02 0.  0.
    9900012    2    3    3    0    0  0.94333794405E+01  0.29933462683E+02  0.19255682864E+02  0.54367052722E+02  0.39999928291E+02 0.  0.
        -12    1    3    3    0    0 -0.94333794405E+01 -0.29933462683E+02 -0.19255682864E+02  0.36820947278E+02  0.00000000000E+00 0.  1.
         11    1    4    4    0    0  0.30133206901E+00  0.24935892528E+02  0.46927110469E+01  0.25375402941E+02  0.51100000000E-03 0. -1.
        -11    1    4    4    0    0 -0.42924263635E+00 -0.81030679198E+01  0.16981060932E+01  0.82902064823E+01  0.51100000000E-03 0.  1.
         12    1    4    4    0    0  0.95612900078E+01  0.13100638075E+02  0.12864865724E+02  0.20701443300E+02  0.00000000000E+00 0. -1.
</event>
<event>
 8    1  0.2460897E-006  0.9118800E+02  0.7816164E-02  0.1184000E+00
        -11   -1    0    0    0    0  0.00000000000E+00  0.00000000000E+00  0.45593999997E+02  0.45594000000E+02  0.51100000000E-03 0. -1.
         11   -1    0    0    0    0 -0.00000000000E+00 -0.00000000000E+00 -0.45593999997E+02  0.45594000000E+02  0.51100000000E-03 0.  1.
         23    2    1    2    0    0  0.17763568394E-14 -0.35527136788E-14  0.00000000000E+00  0.91188000000E+02  0.91188000000E+02 0.  0.
    9900012    2    3    3    0    0  0.13618949544E+02 -0.25836381908E+02 -0.22423014655E+02  0.54367000516E+02  0.39999809277E+02 0.  0.
         12    1    3    3    0    0 -0.13618949544E+02  0.25836381908E+02  0.22423014655E+02  0.36820999484E+02  0.00000000000E+00 0. -1.
         11    1    4    4    0    0  0.12480010303E+02  0.16676821632E+01 -0.10528118283E+02  0.16412589553E+02  0.51100000000E-03 0. -1.
        -11    1    4    4    0    0  0.61310863255E+01 -0.16963137602E+01 -0.96692636954E+01  0.11574211013E+02  0.51100000000E-03 0.  1.
         12    1    4    4    0    0 -0.49921470854E+01 -0.25807750311E+02 -0.22256326760E+01  0.26380199951E+02  0.00000000000E+00 0. -1.
</event>
