<LesHouchesEvents version="3.0">
<header>
<!--
#*********************************************************************
#                                                                    *
#                        MadGraph5_aMC@NLO                           *
#                                                                    *
#                           Going Beyond                             *
#                                                                    *
#                   http://madgraph.hep.uiuc.edu                     *
#                   http://madgraph.phys.ucl.ac.be                   *
#                   http://amcatnlo.cern.ch                          *
#                                                                    *
#                     The MadGraph5_aMC@NLO team                     *
#                                                                    *
#....................................................................*
#                                                                    *
# This file contains all the information necessary to reproduce      *
# the events generated:                                              *
#                                                                    *
# 1. software version                                                *
# 2. proc_card          : code generation info including model       *
# 3. param_card         : model primary parameters in the LH format  *
# 4. run_card           : running parameters (collider and cuts)     *
# 5. pythia_card        : present only if pythia has been run        *
# 6. pgs_card           : present only if pgs has been run           *
# 7. delphes_cards      : present only if delphes has been run       *
#                                                                    *
#                                                                    *
#*********************************************************************
-->
<MGVersion>
2.6.7
</MGVersion>
<MG5ProcCard>
<![CDATA[
#************************************************************
#*                     MadGraph5_aMC@NLO                    *
#*                                                          *
#*                *                       *                 *
#*                  *        * *        *                   *
#*                    * * * * 5 * * * *                     *
#*                  *        * *        *                   *
#*                *                       *                 *
#*                                                          *
#*                                                          *
#*         VERSION 2.6.7                 2019-10-16         *
#*                                                          *
#*    The MadGraph5_aMC@NLO Development Team - Find us at   *
#*    https://server06.fynu.ucl.ac.be/projects/madgraph     *
#*                                                          *
#************************************************************
#*                                                          *
#*               Command File for MadGraph5_aMC@NLO         *
#*                                                          *
#*     run as ./bin/mg5_aMC  filename                       *
#*                                                          *
#************************************************************
set low_mem_multicore_nlo_generation False
set default_unset_couplings 99
set group_subprocesses Auto
set ignore_six_quark_processes False
set loop_optimized_output True
set loop_color_flows False
set gauge unitary
set complex_mass_scheme False
set max_npoint_for_channel 0
import model sm
define p = g u c d s u~ c~ d~ s~
define j = g u c d s u~ c~ d~ s~
define l+ = e+ mu+
define l- = e- mu-
define vl = ve vm vt
define vl~ = ve~ vm~ vt~
import model SM_HeavyN_CKM_AllMasses_LO
define e = e+ e-
define nue = ve ve~
generate e+ e- > z, z > n1 ve , (n1 > z ve, z > e+ e-)
add process e+ e- > z, z > n1 ve~ , (n1 > z ve~, z > e+ e-)
add process e+ e- > z, z > n1 ve , (n1 > w+ e-, w+ > ve e+)
add process e+ e- > z, z > n1 ve~ , (n1 > w- e+, w- > ve~ e-)
add process e+ e- > z, z > n1 ve , (n1 > z ve~ , z > e+ e-)
add process e+ e- > z, z > n1 ve~ , (n1 > z ve, z > e+ e-)
add process e+ e- > z, z > n1 ve , (n1 > w- e+ , w- > e- ve~)
add process e+ e- > z, z > n1 ve~ , (n1 > w+ e- , w+ > e+ ve)
output HNL_Majorana_50GeV_1e-3Ve
]]>
</MG5ProcCard>
<MGProcCard>
#*********************************************************************
#                        MadGraph/MadEvent                           *
#                   http://madgraph.hep.uiuc.edu                     *
#                                                                    *
#                          proc_card.dat                             *
#*********************************************************************
#                                                                    *
#            This Files is generated by MADGRAPH 5                   *
#                                                                    *
# WARNING: This Files is generated for MADEVENT (compatibility issue)*
#          This files is NOT a valid MG4 proc_card.dat               *
#          Running this in MG4 will NEVER reproduce the result of MG5*
#                                                                    *
#*********************************************************************
#*********************************************************************
# Process(es) requested : mg2 input                                  *
#*********************************************************************
# Begin PROCESS # This is TAG. Do not modify this line
e+ e- > z , z > n1 ve , (n1 > z ve , z > e+ e-)           #Process
# Be carefull the coupling are here in MG5 convention
          
end_coup           # End the couplings input

done               # this tells MG there are no more procs
# End PROCESS  # This is TAG. Do not modify this line
#*********************************************************************
# Model information                                                  *
#*********************************************************************
# Begin MODEL  # This is TAG. Do not modify this line
SM_HeavyN_CKM_AllMasses_LO
# End   MODEL  # This is TAG. Do not modify this line
#*********************************************************************
# Start multiparticle definitions                                    *
#*********************************************************************
# Begin MULTIPARTICLES # This is TAG. Do not modify this line

# End  MULTIPARTICLES # This is TAG. Do not modify this line
</MGProcCard>
<MGRunCard>
<![CDATA[
#*********************************************************************
#                       MadGraph5_aMC@NLO                            *
#                                                                    *
#                     run_card.dat MadEvent                          *
#                                                                    *
#  This file is used to set the parameters of the run.               *
#                                                                    *
#  Some notation/conventions:                                        *
#                                                                    *
#   Lines starting with a '# ' are info or comments                  *
#                                                                    *
#   mind the format:   value    = variable     ! comment             *
#                                                                    *
#   To display more options, you can type the command:               *
#      update full_run_card                                          *
#*********************************************************************
#
#*******************                                                 
# Running parameters
#*******************                                                 
#                                                                    
#*********************************************************************
# Tag name for the run (one word)                                    *
#*********************************************************************
  tag_1	= run_tag ! name of the run 
#*********************************************************************
# Number of events and rnd seed                                      *
# Warning: Do not generate more than 1M events in a single run       *
#*********************************************************************
  1000	= nevents ! Number of unweighted events requested 
 21 = iseed ! rnd seed (0=assigned automatically=default))
#*********************************************************************
# Collider type and energy                                           *
# lpp: 0=No PDF, 1=proton, -1=antiproton, 2=photon from proton,      *
#                                         3=photon from electron     *
#*********************************************************************
  0	= lpp1 ! beam 1 type 
  0	= lpp2 ! beam 2 type
  45.594	= ebeam1 ! beam 1 total energy in GeV
  45.594	= ebeam2 ! beam 2 total energy in GeV
#*********************************************************************
# Beam polarization from -100 (left-handed) to 100 (right-handed)    *
#*********************************************************************
  0.0	= polbeam1 ! beam polarization for beam 1
  0.0	= polbeam2 ! beam polarization for beam 2

#*********************************************************************
# PDF CHOICE: this automatically fixes also alpha_s and its evol.    *
#*********************************************************************
  nn23lo1	= pdlabel ! PDF set                                     
  230000	= lhaid ! if pdlabel=lhapdf, this is the lhapdf number
# To see heavy ion options: type "update ion_pdf"
#*********************************************************************
# Renormalization and factorization scales                           *
#*********************************************************************
  False	= fixed_ren_scale ! if .true. use fixed ren scale
  False	= fixed_fac_scale ! if .true. use fixed fac scale
  91.188	= scale ! fixed ren scale
  91.188	= dsqrt_q2fact1 ! fixed fact scale for pdf1
  91.188	= dsqrt_q2fact2 ! fixed fact scale for pdf2
  -1	= dynamical_scale_choice ! Choose one of the preselected dynamical choices
  1.0	= scalefact ! scale factor for event-by-event scales
#*********************************************************************
# Type and output format
#*********************************************************************
  False	= gridpack !True = setting up the grid pack
  0.0	= time_of_flight ! threshold (in mm) below which the invariant livetime is not written (-1 means not written)
  3.0	= lhe_version ! Change the way clustering information pass to shower.        
  True	= clusinfo ! include clustering tag in output
  average	= event_norm ! average/sum. Normalization of the weight in the LHEF

#*********************************************************************
# Matching parameter (MLM only)
#*********************************************************************
  0	= ickkw ! 0 no matching, 1 MLM
  1.0	= alpsfact ! scale factor for QCD emission vx
  False	= chcluster ! cluster only according to channel diag
  5	= asrwgtflavor ! highest quark flavor for a_s reweight
  True	= auto_ptj_mjj ! Automatic setting of ptj and mjj if xqcut >0
                                   ! (turn off for VBF and single top processes) 
  0.0	= xqcut ! minimum kt jet measure between partons
#*********************************************************************
#
#*********************************************************************
# handling of the helicities:
#  0: sum over all helicities
#  1: importance sampling over helicities
#*********************************************************************
  0	= nhel ! using helicities importance sampling or not.
#*********************************************************************
# Generation bias, check the wiki page below for more information:   *
#  'cp3.irmp.ucl.ac.be/projects/madgraph/wiki/LOEventGenerationBias' *
#*********************************************************************
  None	= bias_module ! Bias type of bias, [None, ptj_bias, -custom_folder-]
  {}	= bias_parameters ! Specifies the parameters of the module.
#
#*******************************                                                 
# Parton level cuts definition *
#*******************************                                     
#                                                                    
#
#*********************************************************************
# BW cutoff (M+/-bwcutoff*Gamma) ! Define on/off-shell for "$" and decay  
#*********************************************************************
  15.0	= bwcutoff ! (M+/-bwcutoff*Gamma)
#*********************************************************************
# Apply pt/E/eta/dr/mij/kt_durham cuts on decay products or not
# (note that etmiss/ptll/ptheavy/ht/sorted cuts always apply)
#*********************************************************************
  False	= cut_decays ! Cut decay products 
#*********************************************************************
# Standard Cuts                                                      *
#*********************************************************************
# Minimum and maximum pt's (for max, -1 means no cut)                *
#*********************************************************************
  0.0	= ptj ! minimum pt for the jets 
  0.0	= ptb ! minimum pt for the b 
  0.0	= pta ! minimum pt for the photons 
  0.0	= ptl ! minimum pt for the charged leptons 
  0.0	= misset ! minimum missing Et (sum of neutrino's momenta)
  -1.0	= ptjmax ! maximum pt for the jets
  -1.0	= ptbmax ! maximum pt for the b
  -1.0	= ptamax ! maximum pt for the photons
  -1.0	= ptlmax ! maximum pt for the charged leptons
  -1.0	= missetmax ! maximum missing Et (sum of neutrino's momenta)
  {}	= pt_min_pdg ! pt cut for other particles (use pdg code). Applied on particle and anti-particle
  {}	= pt_max_pdg ! pt cut for other particles (syntax e.g. {6: 100, 25: 50}) 
#*********************************************************************
# Minimum and maximum E's (in the center of mass frame)              *
#*********************************************************************
  0.0	= ej ! minimum E for the jets
  0.0	= eb ! minimum E for the b
  0.0	= ea ! minimum E for the photons
  0.0	= el ! minimum E for the charged leptons
  -1.0	= ejmax ! maximum E for the jets
  -1.0	= ebmax ! maximum E for the b
  -1.0	= eamax ! maximum E for the photons
  -1.0	= elmax ! maximum E for the charged leptons
  {}	= e_min_pdg ! E cut for other particles (use pdg code). Applied on particle and anti-particle
  {}	= e_max_pdg ! E cut for other particles (syntax e.g. {6: 100, 25: 50})

#*********************************************************************
# Maximum and minimum absolute rapidity (for max, -1 means no cut)   *
#*********************************************************************
  -1.0	= etaj ! max rap for the jets 
  -1.0	= etab ! max rap for the b
  -1.0	= etaa ! max rap for the photons 
  -1.0	= etal ! max rap for the charged leptons 
  0.0	= etajmin ! min rap for the jets
  0.0	= etabmin ! min rap for the b
  0.0	= etaamin ! min rap for the photons
  0.0	= etalmin ! main rap for the charged leptons
  {}	= eta_min_pdg ! rap cut for other particles (use pdg code). Applied on particle and anti-particle
  {}	= eta_max_pdg ! rap cut for other particles (syntax e.g. {6: 2.5, 23: 5})
#*********************************************************************
# Minimum and maximum DeltaR distance                                *
#*********************************************************************
  0.0	= drjj ! min distance between jets 
  0.0	= drbb ! min distance between b's 
  0.0	= drll ! min distance between leptons 
  0.0	= draa ! min distance between gammas 
  0.0	= drbj ! min distance between b and jet 
  0.0	= draj ! min distance between gamma and jet 
  0.0	= drjl ! min distance between jet and lepton 
  0.0	= drab ! min distance between gamma and b 
  0.0	= drbl ! min distance between b and lepton 
  0.0	= dral ! min distance between gamma and lepton 
  -1.0	= drjjmax ! max distance between jets
  -1.0	= drbbmax ! max distance between b's
  -1.0	= drllmax ! max distance between leptons
  -1.0	= draamax ! max distance between gammas
  -1.0	= drbjmax ! max distance between b and jet
  -1.0	= drajmax ! max distance between gamma and jet
  -1.0	= drjlmax ! max distance between jet and lepton
  -1.0	= drabmax ! max distance between gamma and b
  -1.0	= drblmax ! max distance between b and lepton
  -1.0	= dralmax ! maxdistance between gamma and lepton
#*********************************************************************
# Minimum and maximum invariant mass for pairs                       *
# WARNING: for four lepton final state mmll cut require to have      *
#          different lepton masses for each flavor!                  *           
#*********************************************************************
  0.0	= mmjj ! min invariant mass of a jet pair 
  0.0	= mmbb ! min invariant mass of a b pair 
  0.0	= mmaa ! min invariant mass of gamma gamma pair
  0.0	= mmll ! min invariant mass of l+l- (same flavour) lepton pair
  -1.0	= mmjjmax ! max invariant mass of a jet pair
  -1.0	= mmbbmax ! max invariant mass of a b pair
  -1.0	= mmaamax ! max invariant mass of gamma gamma pair
  -1.0	= mmllmax ! max invariant mass of l+l- (same flavour) lepton pair
  {}	= mxx_min_pdg ! min invariant mass of a pair of particles X/X~ (e.g. {6:250})
  {'default': False}	= mxx_only_part_antipart ! if True the invariant mass is applied only 
                       ! to pairs of particle/antiparticle and not to pairs of the same pdg codes.  
#*********************************************************************
# Minimum and maximum invariant mass for all letpons                 *
#*********************************************************************
  0.0	= mmnl ! min invariant mass for all letpons (l+- and vl) 
  -1.0	= mmnlmax ! max invariant mass for all letpons (l+- and vl) 
#*********************************************************************
# Minimum and maximum pt for 4-momenta sum of leptons                *
#*********************************************************************
  0.0	= ptllmin ! Minimum pt for 4-momenta sum of leptons(l and vl)
  -1.0	= ptllmax ! Maximum pt for 4-momenta sum of leptons(l and vl)
#*********************************************************************
# Inclusive cuts                                                     *
#*********************************************************************
  0.0	= ptheavy ! minimum pt for at least one heavy final state
  0.0	= xptj ! minimum pt for at least one jet  
  0.0	= xptb ! minimum pt for at least one b 
  0.0	= xpta ! minimum pt for at least one photon 
  0.0	= xptl ! minimum pt for at least one charged lepton 
#*********************************************************************
# Control the pt's of the jets sorted by pt                          *
#*********************************************************************
  0.0	= ptj1min ! minimum pt for the leading jet in pt
  0.0	= ptj2min ! minimum pt for the second jet in pt
  0.0	= ptj3min ! minimum pt for the third jet in pt
  0.0	= ptj4min ! minimum pt for the fourth jet in pt
  -1.0	= ptj1max ! maximum pt for the leading jet in pt 
  -1.0	= ptj2max ! maximum pt for the second jet in pt
  -1.0	= ptj3max ! maximum pt for the third jet in pt
  -1.0	= ptj4max ! maximum pt for the fourth jet in pt
  0	= cutuse ! reject event if fails any (0) / all (1) jet pt cuts
#*********************************************************************
# Control the pt's of leptons sorted by pt                           *
#*********************************************************************
  0.0	= ptl1min ! minimum pt for the leading lepton in pt
  0.0	= ptl2min ! minimum pt for the second lepton in pt
  0.0	= ptl3min ! minimum pt for the third lepton in pt
  0.0	= ptl4min ! minimum pt for the fourth lepton in pt
  -1.0	= ptl1max ! maximum pt for the leading lepton in pt 
  -1.0	= ptl2max ! maximum pt for the second lepton in pt
  -1.0	= ptl3max ! maximum pt for the third lepton in pt
  -1.0	= ptl4max ! maximum pt for the fourth lepton in pt
#*********************************************************************
# Control the Ht(k)=Sum of k leading jets                            *
#*********************************************************************
  0.0	= htjmin ! minimum jet HT=Sum(jet pt)
  -1.0	= htjmax ! maximum jet HT=Sum(jet pt)
  0.0	= ihtmin !inclusive Ht for all partons (including b)
  -1.0	= ihtmax !inclusive Ht for all partons (including b)
  0.0	= ht2min ! minimum Ht for the two leading jets
  0.0	= ht3min ! minimum Ht for the three leading jets
  0.0	= ht4min ! minimum Ht for the four leading jets
  -1.0	= ht2max ! maximum Ht for the two leading jets
  -1.0	= ht3max ! maximum Ht for the three leading jets
  -1.0	= ht4max ! maximum Ht for the four leading jets
#***********************************************************************
# Photon-isolation cuts, according to hep-ph/9801442                   *
# When ptgmin=0, all the other parameters are ignored                  *
# When ptgmin>0, pta and draj are not going to be used                 *
#***********************************************************************
  0.0	= ptgmin ! Min photon transverse momentum
  0.4	= r0gamma ! Radius of isolation code
  1.0	= xn ! n parameter of eq.(3.4) in hep-ph/9801442
  1.0	= epsgamma ! epsilon_gamma parameter of eq.(3.4) in hep-ph/9801442
  True	= isoem ! isolate photons from EM energy (photons and leptons)
#*********************************************************************
# WBF cuts                                                           *
#*********************************************************************
  0.0	= xetamin ! minimum rapidity for two jets in the WBF case  
  -1.0	= deltaeta ! minimum rapidity for two jets in the WBF case 
#***********************************************************************
# Turn on either the ktdurham or ptlund cut to activate                *
# CKKW(L) merging with Pythia8 [arXiv:1410.3012, arXiv:1109.4829]      *
#***********************************************************************
  0.0	= ktdurham 
  0.0	= dparameter 
  0.0	= ptlund 
  1, 2, 3, 4, 5, 6, 21	= pdgs_for_merging_cut ! PDGs for two cuts above   
#*********************************************************************
# maximal pdg code for quark to be considered as a light jet         *
# (otherwise b cuts are applied)                                     *
#*********************************************************************
  4	= maxjetflavor ! Maximum jet pdg code
#*********************************************************************
#
#*********************************************************************
# Store info for systematics studies                                 *
# WARNING: Do not use for interference type of computation           *
#*********************************************************************
  False	= use_syst ! Enable systematics studies
#
  systematics	= systematics_program ! none, systematics [python], SysCalc [depreceted, C++]
['--mur=0.5,1,2', '--muf=0.5,1,2', '--pdf=errorset'] = systematics_arguments ! see: https://cp3.irmp.ucl.ac.be/projects/madgraph/wiki/Systematics#Systematicspythonmodule
# Syscalc is deprecated but to see the associate options type'update syscalc'#********************************************************************* 
#  Additional hidden parameters
#*********************************************************************
  ['--mur=0.5,1,2', '--muf=0.5,1,2', '--pdf=errorset']	= systematics_arguments # Choose the argment to pass to the systematics command. like --mur=0.25,1,4. Look at the help of the systematics function for more details.
]]>
</MGRunCard>
<slha>
######################################################################
## PARAM_CARD AUTOMATICALY GENERATED BY MG5                       ####
######################################################################
###################################
## INFORMATION FOR CKMBLOCK
###################################
BLOCK CKMBLOCK # 
      1 2.275910e-01 # cabi
      2 3.508000e-03 # th13
      3 4.153900e-02 # th23
      4 1.200000e+00 # del13
###################################
## INFORMATION FOR MASS
###################################
BLOCK MASS # 
      1 5.040000e-03 # md
      2 2.550000e-03 # mu
      3 1.010000e-01 # ms
      4 1.270000e+00 # mc
      5 4.700000e+00 # mb
      6 1.733000e+02 # mt
      11 5.110000e-04 # me
      13 1.056600e-01 # mmu
      15 1.777000e+00 # mta
      23 9.118760e+01 # mz
      25 1.257000e+02 # mh
      9900012 5.000000e+01 # mn1
      9900014 1.000000e+04 # mn2
      9900016 1.000000e+04 # mn3
      12 0.000000e+00 # ve : 0.0
      14 0.000000e+00 # vm : 0.0
      16 0.000000e+00 # vt : 0.0
      21 0.000000e+00 # g : 0.0
      22 0.000000e+00 # a : 0.0
      24 7.995123e+01 # w+ : cmath.sqrt(mz__exp__2/2. + cmath.sqrt(mz__exp__4/4. - (aew*cmath.pi*mz__exp__2)/(gf*sqrt__2)))
###################################
## INFORMATION FOR NUMIXING
###################################
BLOCK NUMIXING # 
      1 1.000000e-03 # ven1
      2 0.000000e+00 # ven2
      3 0.000000e+00 # ven3
      4 0.000000e+00 # vmun1
      5 1.000000e+00 # vmun2
      6 0.000000e+00 # vmun3
      7 0.000000e+00 # vtan1
      8 0.000000e+00 # vtan2
      9 1.000000e+00 # vtan3
###################################
## INFORMATION FOR SMINPUTS
###################################
BLOCK SMINPUTS # 
      1 1.279400e+02 # aewm1
      2 1.174560e-05 # gf
      3 1.184000e-01 # as
###################################
## INFORMATION FOR YUKAWA
###################################
BLOCK YUKAWA # 
      1 5.040000e-03 # ymdo
      2 2.550000e-03 # ymup
      3 1.010000e-01 # yms
      4 1.270000e+00 # ymc
      5 4.700000e+00 # ymb
      6 1.733000e+02 # ymt
      11 5.110000e-04 # yme
      13 1.056600e-01 # ymm
      15 1.777000e+00 # ymtau
###################################
## INFORMATION FOR DECAY
###################################
BLOCK QNUMBERS 9900012 #   n1
      1 0 # 3 times electric charge
      2 2 # number of spin states (2s+1)
      3 1 # colour rep (1: singlet, 3: triplet, 8: octet)
      4 0 # particle/antiparticle distinction (0=own anti)
###################################
## INFORMATION FOR QNUMBERS 9900014
###################################
BLOCK QNUMBERS 9900014 #   n2
      1 0 # 3 times electric charge
      2 2 # number of spin states (2s+1)
      3 1 # colour rep (1: singlet, 3: triplet, 8: octet)
      4 0 # particle/antiparticle distinction (0=own anti)
###################################
## INFORMATION FOR QNUMBERS 9900016
###################################
BLOCK QNUMBERS 9900016 #   n3
      1 0 # 3 times electric charge
      2 2 # number of spin states (2s+1)
      3 1 # colour rep (1: singlet, 3: triplet, 8: octet)
      4 0 # particle/antiparticle distinction (0=own anti)
#
#*************************
#      Decay widths      *
#*************************
#
#      PDG        Width
DECAY  1   0.000000e+00
#
#      PDG        Width
DECAY  2   0.000000e+00
#
#      PDG        Width
DECAY  3   0.000000e+00
#
#      PDG        Width
DECAY  4   0.000000e+00
#
#      PDG        Width
DECAY  5   0.000000e+00
#
#      PDG        Width
DECAY  6   1.350000e+00
#
#      PDG        Width
DECAY  11   0.000000e+00
#
#      PDG        Width
DECAY  12   0.000000e+00
#
#      PDG        Width
DECAY  13   0.000000e+00
#
#      PDG        Width
DECAY  14   0.000000e+00
#
#      PDG        Width
DECAY  15   0.000000e+00
#
#      PDG        Width
DECAY  16   0.000000e+00
#
#      PDG        Width
DECAY  21   0.000000e+00
#
#      PDG        Width
DECAY  22   0.000000e+00
#
#      PDG        Width
DECAY  23   2.495200e+00
#
#      PDG        Width
DECAY  24   2.085000e+00
#
#      PDG        Width
DECAY  25   4.170000e-03
#
#      PDG        Width
DECAY  9900012   2.222024e-10
#  BR             NDA  ID1    ID2   ...
   1.225369e-01   3    -1  2  11 # 2.72279932686e-11
   1.213623e-01   3    -11  -4  3 # 2.69669943295e-11
   1.209033e-01   3    -3  4  11 # 2.68650034279e-11
   1.206153e-01   3    -11  -2  1 # 2.68010091367e-11
   4.315930e-02   3    -14  -11  13 # 9.59010004232e-12
   4.311610e-02   3    -13  11  14 # 9.58050089864e-12
   4.287892e-02   3    -16  -11  15 # 9.52779893341e-12
   4.248964e-02   3    -15  11  16 # 9.44129998314e-12
   2.603572e-02   3    -11  11  12 # 5.78519946973e-12
   2.541692e-02   3    -12  -11  11 # 5.64770062461e-12
   2.244755e-02   3    -3  3  12 # 4.98789948412e-12
   2.218473e-02   3    -1  1  12 # 4.92950024935e-12
   2.217168e-02   3    -12  -1  1 # 4.92660050803e-12
   2.205332e-02   3    -12  -3  3 # 4.90030063197e-12
   1.935353e-02   3    -12  -5  5 # 4.30040081447e-12
   1.923562e-02   3    -5  5  12 # 4.27420092949e-12
   1.718388e-02   3    -12  -2  2 # 3.81829937731e-12
   1.716498e-02   3    -4  4  12 # 3.81409975195e-12
   1.707227e-02   3    -2  2  12 # 3.79349936745e-12
   1.699487e-02   3    -12  -4  4 # 3.77630090169e-12
   9.915059e-03   3    -14  12  14 # 2.20314990594e-12
   9.915059e-03   3    -16  12  16 # 2.20314990594e-12
   9.905159e-03   3    -14  -12  14 # 2.20095010218e-12
   9.905159e-03   3    -16  -12  16 # 2.20095010218e-12
   6.614240e-03   3    -3  2  11 # 1.46970000218e-12
   6.611990e-03   3    -11  -2  3 # 1.46920004678e-12
   6.504880e-03   3    -11  -4  1 # 1.44539994771e-12
   6.480128e-03   3    -1  4  11 # 1.43989999391e-12
   5.044050e-03   3    -13  12  13 # 1.12080001572e-12
   4.986445e-03   3    -12  12  12 # 1.10800004647e-12
   4.984645e-03   3    -13  -12  13 # 1.10760008215e-12
   4.949541e-03   3    -12  -12  12 # 1.0997998891e-12
   4.927490e-03   3    -15  12  15 # 1.09490010398e-12
   4.879335e-03   3    -15  -12  15 # 1.0841999474e-12
#
#      PDG        Width
DECAY  9900014   1.500000e+00
#
#      PDG        Width
DECAY  9900016   1.230000e+01
</slha>
<MGGenerationInfo>
#  Number of Events        :       1000
#  Integrated weight (pb)  :       0.0178968
</MGGenerationInfo>
</header>
<init>
-11 11 4.559400e+01 4.559400e+01 0 0 247000 247000 -4 8
2.237400e-03 2.646500e-06 1.789680e-02 1
2.239400e-03 3.067900e-06 1.789680e-02 3
2.237700e-03 2.552100e-06 1.789680e-02 2
2.230100e-03 3.464100e-06 1.789680e-02 5
2.236600e-03 3.341000e-06 1.789680e-02 4
2.238400e-03 3.612200e-06 1.789680e-02 7
2.237600e-03 2.572900e-06 1.789680e-02 6
2.239600e-03 2.552600e-06 1.789680e-02 8
<generator name='MadGraph5_aMC@NLO' version='2.6.7'>please cite 1405.0301 </generator>
</init>
<event>
 5      3 +1.7896800e-02 9.11880000e+01 7.81616400e-03 1.18400000e-01
      -11 -1    0    0    0    0 +0.0000000000e+00 +0.0000000000e+00 +4.5593999997e+01 4.5594000000e+01 5.1100000000e-04 0.0000e+00 -1.0000e+00
       11 -1    0    0    0    0 -0.0000000000e+00 -0.0000000000e+00 -4.5593999997e+01 4.5594000000e+01 5.1100000000e-04 0.0000e+00 1.0000e+00
       23  2    1    2    0    0 +0.0000000000e+00 +0.0000000000e+00 +0.0000000000e+00 9.1188000000e+01 9.1188000000e+01 7.6312e-14 0.0000e+00
  9900012  1    3    3    0    0 -4.1228744911e-01 -2.4294835455e+01 -2.0647313499e+01 5.9301944028e+01 5.0000000000e+01 4.4541e-04 1.0000e+00
       12  1    3    3    0    0 +4.1228744911e-01 +2.4294835455e+01 +2.0647313499e+01 3.1886055972e+01 0.0000000000e+00 0.0000e+00 -1.0000e+00
</event>
<event>
 5      6 +1.7896800e-02 9.11880000e+01 7.81616400e-03 1.18400000e-01
      -11 -1    0    0    0    0 +0.0000000000e+00 +0.0000000000e+00 +4.5593999997e+01 4.5594000000e+01 5.1100000000e-04 0.0000e+00 -1.0000e+00
       11 -1    0    0    0    0 -0.0000000000e+00 -0.0000000000e+00 -4.5593999997e+01 4.5594000000e+01 5.1100000000e-04 0.0000e+00 1.0000e+00
       23  2    1    2    0    0 +0.0000000000e+00 +0.0000000000e+00 +0.0000000000e+00 9.1188000000e+01 9.1188000000e+01 6.9540e-14 0.0000e+00
  9900012  1    3    3    0    0 -1.9901781880e+01 -2.2069251225e+01 -1.1558018595e+01 5.9301944028e+01 5.0000000000e+01 2.1146e-03 -1.0000e+00
      -12  1    3    3    0    0 +1.9901781880e+01 +2.2069251225e+01 +1.1558018595e+01 3.1886055972e+01 0.0000000000e+00 0.0000e+00 1.0000e+00
</event>
<event>
 5      3 +1.7896800e-02 9.11880000e+01 7.81616400e-03 1.18400000e-01
      -11 -1    0    0    0    0 +0.0000000000e+00 +0.0000000000e+00 +4.5593999997e+01 4.5594000000e+01 5.1100000000e-04 0.0000e+00 1.0000e+00
       11 -1    0    0    0    0 -0.0000000000e+00 -0.0000000000e+00 -4.5593999997e+01 4.5594000000e+01 5.1100000000e-04 0.0000e+00 -1.0000e+00
       23  2    1    2    0    0 +0.0000000000e+00 +0.0000000000e+00 +0.0000000000e+00 9.1188000000e+01 9.1188000000e+01 1.1659e-13 0.0000e+00
  9900012  1    3    3    0    0 +1.2016166424e+01 -1.4778764049e+01 +2.5571868198e+01 5.9301944028e+01 5.0000000000e+01 1.7866e-03 1.0000e+00
       12  1    3    3    0    0 -1.2016166424e+01 +1.4778764049e+01 -2.5571868198e+01 3.1886055972e+01 0.0000000000e+00 0.0000e+00 -1.0000e+00
</event>
<event>
 5      6 +1.7896800e-02 9.11880000e+01 7.81616400e-03 1.18400000e-01
      -11 -1    0    0    0    0 +0.0000000000e+00 +0.0000000000e+00 +4.5593999997e+01 4.5594000000e+01 5.1100000000e-04 0.0000e+00 1.0000e+00
       11 -1    0    0    0    0 -0.0000000000e+00 -0.0000000000e+00 -4.5593999997e+01 4.5594000000e+01 5.1100000000e-04 0.0000e+00 -1.0000e+00
       23  2    1    2    0    0 +0.0000000000e+00 +0.0000000000e+00 +0.0000000000e+00 9.1188000000e+01 9.1188000000e+01 1.3120e-13 0.0000e+00
  9900012  1    3    3    0    0 +9.2829060640e+00 +8.7193847498e+00 -2.9232183464e+01 5.9301944028e+01 5.0000000000e+01 7.8136e-05 -1.0000e+00
      -12  1    3    3    0    0 -9.2829060640e+00 -8.7193847498e+00 +2.9232183464e+01 3.1886055972e+01 0.0000000000e+00 0.0000e+00 1.0000e+00
</event>
<event>
 5      4 +1.7896800e-02 9.11880000e+01 7.81616400e-03 1.18400000e-01
      -11 -1    0    0    0    0 +0.0000000000e+00 +0.0000000000e+00 +4.5593999997e+01 4.5594000000e+01 5.1100000000e-04 0.0000e+00 -1.0000e+00
       11 -1    0    0    0    0 -0.0000000000e+00 -0.0000000000e+00 -4.5593999997e+01 4.5594000000e+01 5.1100000000e-04 0.0000e+00 1.0000e+00
       23  2    1    2    0    0 +0.0000000000e+00 +0.0000000000e+00 +0.0000000000e+00 9.1188000000e+01 9.1188000000e+01 1.6317e-13 0.0000e+00
  9900012  1    3    3    0    0 -1.3343986356e+01 +1.9282808670e+01 +2.1606292680e+01 5.9301944028e+01 5.0000000000e+01 8.0958e-04 -1.0000e+00
      -12  1    3    3    0    0 +1.3343986356e+01 -1.9282808670e+01 -2.1606292680e+01 3.1886055972e+01 0.0000000000e+00 0.0000e+00 1.0000e+00
</event>
<event>
 5      8 +1.7896800e-02 9.11880000e+01 7.81616400e-03 1.18400000e-01
      -11 -1    0    0    0    0 +0.0000000000e+00 +0.0000000000e+00 +4.5593999997e+01 4.5594000000e+01 5.1100000000e-04 0.0000e+00 1.0000e+00
       11 -1    0    0    0    0 -0.0000000000e+00 -0.0000000000e+00 -4.5593999997e+01 4.5594000000e+01 5.1100000000e-04 0.0000e+00 -1.0000e+00
       23  2    1    2    0    0 +0.0000000000e+00 +0.0000000000e+00 +0.0000000000e+00 9.1188000000e+01 9.1188000000e+01 7.2405e-14 0.0000e+00
  9900012  1    3    3    0    0 +2.8930270512e+01 -1.2572728666e+01 +4.6568774382e+00 5.9301944028e+01 5.0000000000e+01 1.1927e-03 1.0000e+00
      -12  1    3    3    0    0 -2.8930270512e+01 +1.2572728666e+01 -4.6568774382e+00 3.1886055972e+01 0.0000000000e+00 0.0000e+00 1.0000e+00
</event>
<event>
 5      1 +1.7896800e-02 9.11880000e+01 7.81616400e-03 1.18400000e-01
      -11 -1    0    0    0    0 +0.0000000000e+00 +0.0000000000e+00 +4.5593999997e+01 4.5594000000e+01 5.1100000000e-04 0.0000e+00 1.0000e+00
       11 -1    0    0    0    0 -0.0000000000e+00 -0.0000000000e+00 -4.5593999997e+01 4.5594000000e+01 5.1100000000e-04 0.0000e+00 -1.0000e+00
       23  2    1    2    0    0 +0.0000000000e+00 +0.0000000000e+00 +0.0000000000e+00 9.1188000000e+01 9.1188000000e+01 1.4017e-14 0.0000e+00
  9900012  1    3    3    0    0 -2.5608391901e+01 +9.3128020447e+00 +1.6559062407e+01 5.9301944028e+01 5.0000000000e+01 6.3232e-05 1.0000e+00
       12  1    3    3    0    0 +2.5608391901e+01 -9.3128020447e+00 -1.6559062407e+01 3.1886055972e+01 0.0000000000e+00 0.0000e+00 -1.0000e+00
</event>
<event>
 5      7 +1.7896800e-02 9.11880000e+01 7.81616400e-03 1.18400000e-01
      -11 -1    0    0    0    0 +0.0000000000e+00 +0.0000000000e+00 +4.5593999997e+01 4.5594000000e+01 5.1100000000e-04 0.0000e+00 -1.0000e+00
       11 -1    0    0    0    0 -0.0000000000e+00 -0.0000000000e+00 -4.5593999997e+01 4.5594000000e+01 5.1100000000e-04 0.0000e+00 1.0000e+00
       23  2    1    2    0    0 +0.0000000000e+00 +0.0000000000e+00 +0.0000000000e+00 9.1188000000e+01 9.1188000000e+01 5.4152e-14 0.0000e+00
  9900012  1    3    3    0    0 -1.7687366614e+01 -3.3920259930e+00 -2.6312958545e+01 5.9301944028e+01 5.0000000000e+01 5.1399e-06 1.0000e+00
       12  1    3    3    0    0 +1.7687366614e+01 +3.3920259930e+00 +2.6312958545e+01 3.1886055972e+01 0.0000000000e+00 0.0000e+00 -1.0000e+00
</event>
<event>
 5      8 +1.7896800e-02 9.11880000e+01 7.81616400e-03 1.18400000e-01
      -11 -1    0    0    0    0 +0.0000000000e+00 +0.0000000000e+00 +4.5593999997e+01 4.5594000000e+01 5.1100000000e-04 0.0000e+00 1.0000e+00
       11 -1    0    0    0    0 -0.0000000000e+00 -0.0000000000e+00 -4.5593999997e+01 4.5594000000e+01 5.1100000000e-04 0.0000e+00 -1.0000e+00
       23  2    1    2    0    0 +0.0000000000e+00 +0.0000000000e+00 +0.0000000000e+00 9.1188000000e+01 9.1188000000e+01 1.9521e-14 0.0000e+00
  9900012  1    3    3    0    0 -1.2899611462e+01 +2.2945414793e+01 -1.7995236302e+01 5.9301944028e+01 5.0000000000e+01 2.1519e-03 -1.0000e+00
      -12  1    3    3    0    0 +1.2899611462e+01 -2.2945414793e+01 +1.7995236302e+01 3.1886055972e+01 0.0000000000e+00 0.0000e+00 1.0000e+00
</event>
<event>
 5      6 +1.7896800e-02 9.11880000e+01 7.81616400e-03 1.18400000e-01
      -11 -1    0    0    0    0 +0.0000000000e+00 +0.0000000000e+00 +4.5593999997e+01 4.5594000000e+01 5.1100000000e-04 0.0000e+00 -1.0000e+00
       11 -1    0    0    0    0 -0.0000000000e+00 -0.0000000000e+00 -4.5593999997e+01 4.5594000000e+01 5.1100000000e-04 0.0000e+00 1.0000e+00
       23  2    1    2    0    0 +0.0000000000e+00 +0.0000000000e+00 +0.0000000000e+00 9.1188000000e+01 9.1188000000e+01 3.3850e-14 0.0000e+00
  9900012  1    3    3    0    0 +2.5864927703e+01 +1.5445479414e+01 +1.0448121652e+01 5.9301944028e+01 5.0000000000e+01 2.5901e-03 -1.0000e+00
      -12  1    3    3    0    0 -2.5864927703e+01 -1.5445479414e+01 -1.0448121652e+01 3.1886055972e+01 0.0000000000e+00 0.0000e+00 1.0000e+00
</event>
<event>
 5      1 +1.7896800e-02 9.11880000e+01 7.81616400e-03 1.18400000e-01
      -11 -1    0    0    0    0 +0.0000000000e+00 +0.0000000000e+00 +4.5593999997e+01 4.5594000000e+01 5.1100000000e-04 0.0000e+00 -1.0000e+00
       11 -1    0    0    0    0 -0.0000000000e+00 -0.0000000000e+00 -4.5593999997e+01 4.5594000000e+01 5.1100000000e-04 0.0000e+00 1.0000e+00
       23  2    1    2    0    0 +0.0000000000e+00 +0.0000000000e+00 +0.0000000000e+00 9.1188000000e+01 9.1188000000e+01 1.2954e-13 0.0000e+00
  9900012  1    3    3    0    0 -3.0624675109e+01 -8.7527438285e+00 -1.4964342403e+00 5.9301944028e+01 5.0000000000e+01 5.0468e-04 1.0000e+00
       12  1    3    3    0    0 +3.0624675109e+01 +8.7527438285e+00 +1.4964342403e+00 3.1886055972e+01 0.0000000000e+00 0.0000e+00 -1.0000e+00
</event>
<event>
 5      7 +1.7896800e-02 9.11880000e+01 7.81616400e-03 1.18400000e-01
      -11 -1    0    0    0    0 +0.0000000000e+00 +0.0000000000e+00 +4.5593999997e+01 4.5594000000e+01 5.1100000000e-04 0.0000e+00 -1.0000e+00
       11 -1    0    0    0    0 -0.0000000000e+00 -0.0000000000e+00 -4.5593999997e+01 4.5594000000e+01 5.1100000000e-04 0.0000e+00 1.0000e+00
       23  2    1    2    0    0 +0.0000000000e+00 +0.0000000000e+00 +0.0000000000e+00 9.1188000000e+01 9.1188000000e+01 3.4354e-16 0.0000e+00
  9900012  1    3    3    0    0 +1.6701850905e+01 -1.6609645420e+01 -2.1491589538e+01 5.9301944028e+01 5.0000000000e+01 3.8951e-04 1.0000e+00
       12  1    3    3    0    0 -1.6701850905e+01 +1.6609645420e+01 +2.1491589538e+01 3.1886055972e+01 0.0000000000e+00 0.0000e+00 -1.0000e+00
</event>
<event>
 5      7 +1.7896800e-02 9.11880000e+01 7.81616400e-03 1.18400000e-01
      -11 -1    0    0    0    0 +0.0000000000e+00 +0.0000000000e+00 +4.5593999997e+01 4.5594000000e+01 5.1100000000e-04 0.0000e+00 -1.0000e+00
       11 -1    0    0    0    0 -0.0000000000e+00 -0.0000000000e+00 -4.5593999997e+01 4.5594000000e+01 5.1100000000e-04 0.0000e+00 1.0000e+00
       23  2    1    2    0    0 +0.0000000000e+00 +0.0000000000e+00 +0.0000000000e+00 9.1188000000e+01 9.1188000000e+01 2.0024e-13 0.0000e+00
  9900012  1    3    3    0    0 +1.3872250755e+00 +9.9903617392e+00 -3.0248782527e+01 5.9301944028e+01 5.0000000000e+01 1.3449e-03 -1.0000e+00
       12  1    3    3    0    0 -1.3872250755e+00 -9.9903617392e+00 +3.0248782527e+01 3.1886055972e+01 0.0000000000e+00 0.0000e+00 -1.0000e+00
</event>
<event>
 5      6 +1.7896800e-02 9.11880000e+01 7.81616400e-03 1.18400000e-01
      -11 -1    0    0    0    0 +0.0000000000e+00 +0.0000000000e+00 +4.5593999997e+01 4.5594000000e+01 5.1100000000e-04 0.0000e+00 -1.0000e+00
       11 -1    0    0    0    0 -0.0000000000e+00 -0.0000000000e+00 -4.5593999997e+01 4.5594000000e+01 5.1100000000e-04 0.0000e+00 1.0000e+00
       23  2    1    2    0    0 +0.0000000000e+00 +0.0000000000e+00 +0.0000000000e+00 9.1188000000e+01 9.1188000000e+01 2.7596e-13 0.0000e+00
  9900012  1    3    3    0    0 -8.9213600522e+00 +3.2832637347e+00 +3.0435999730e+01 5.9301944028e+01 5.0000000000e+01 3.3299e-04 -1.0000e+00
      -12  1    3    3    0    0 +8.9213600522e+00 -3.2832637347e+00 -3.0435999730e+01 3.1886055972e+01 0.0000000000e+00 0.0000e+00 1.0000e+00
</event>
<event>
 5      8 +1.7896800e-02 9.11880000e+01 7.81616400e-03 1.18400000e-01
      -11 -1    0    0    0    0 +0.0000000000e+00 +0.0000000000e+00 +4.5593999997e+01 4.5594000000e+01 5.1100000000e-04 0.0000e+00 1.0000e+00
       11 -1    0    0    0    0 -0.0000000000e+00 -0.0000000000e+00 -4.5593999997e+01 4.5594000000e+01 5.1100000000e-04 0.0000e+00 -1.0000e+00
       23  2    1    2    0    0 +0.0000000000e+00 +0.0000000000e+00 +0.0000000000e+00 9.1188000000e+01 9.1188000000e+01 6.7984e-14 0.0000e+00
  9900012  1    3    3    0    0 +2.6892500081e+01 +1.7047317589e+01 -1.7038098186e+00 5.9301944028e+01 5.0000000000e+01 1.7746e-03 -1.0000e+00
      -12  1    3    3    0    0 -2.6892500081e+01 -1.7047317589e+01 +1.7038098186e+00 3.1886055972e+01 0.0000000000e+00 0.0000e+00 1.0000e+00
</event>
<event>
 5      4 +1.7896800e-02 9.11880000e+01 7.81616400e-03 1.18400000e-01
      -11 -1    0    0    0    0 +0.0000000000e+00 +0.0000000000e+00 +4.5593999997e+01 4.5594000000e+01 5.1100000000e-04 0.0000e+00 -1.0000e+00
       11 -1    0    0    0    0 -0.0000000000e+00 -0.0000000000e+00 -4.5593999997e+01 4.5594000000e+01 5.1100000000e-04 0.0000e+00 1.0000e+00
       23  2    1    2    0    0 +0.0000000000e+00 +0.0000000000e+00 +0.0000000000e+00 9.1188000000e+01 9.1188000000e+01 1.6638e-14 0.0000e+00
  9900012  1    3    3    0    0 -7.3763021334e+00 -2.4623102835e+01 +1.8868321046e+01 5.9301944028e+01 5.0000000000e+01 5.3740e-04 -1.0000e+00
      -12  1    3    3    0    0 +7.3763021334e+00 +2.4623102835e+01 -1.8868321046e+01 3.1886055972e+01 0.0000000000e+00 0.0000e+00 1.0000e+00
</event>
<event>
 5      7 +1.7896800e-02 9.11880000e+01 7.81616400e-03 1.18400000e-01
      -11 -1    0    0    0    0 +0.0000000000e+00 +0.0000000000e+00 +4.5593999997e+01 4.5594000000e+01 5.1100000000e-04 0.0000e+00 1.0000e+00
       11 -1    0    0    0    0 -0.0000000000e+00 -0.0000000000e+00 -4.5593999997e+01 4.5594000000e+01 5.1100000000e-04 0.0000e+00 -1.0000e+00
       23  2    1    2    0    0 +0.0000000000e+00 +0.0000000000e+00 +0.0000000000e+00 9.1188000000e+01 9.1188000000e+01 3.7284e-15 0.0000e+00
  9900012  1    3    3    0    0 +1.3637864855e+01 -3.8358786946e+00 +2.8565980507e+01 5.9301944028e+01 5.0000000000e+01 5.8417e-04 1.0000e+00
       12  1    3    3    0    0 -1.3637864855e+01 +3.8358786946e+00 -2.8565980507e+01 3.1886055972e+01 0.0000000000e+00 0.0000e+00 -1.0000e+00
</event>
<event>
 5      2 +1.7896800e-02 9.11880000e+01 7.81616400e-03 1.18400000e-01
      -11 -1    0    0    0    0 +0.0000000000e+00 +0.0000000000e+00 +4.5593999997e+01 4.5594000000e+01 5.1100000000e-04 0.0000e+00 1.0000e+00
       11 -1    0    0    0    0 -0.0000000000e+00 -0.0000000000e+00 -4.5593999997e+01 4.5594000000e+01 5.1100000000e-04 0.0000e+00 -1.0000e+00
       23  2    1    2    0    0 +0.0000000000e+00 +0.0000000000e+00 +0.0000000000e+00 9.1188000000e+01 9.1188000000e+01 1.0242e-14 0.0000e+00
  9900012  1    3    3    0    0 -2.0522114807e+01 -2.4394089058e+01 +7.0127624503e-01 5.9301944028e+01 5.0000000000e+01 2.6523e-03 -1.0000e+00
      -12  1    3    3    0    0 +2.0522114807e+01 +2.4394089058e+01 -7.0127624503e-01 3.1886055972e+01 0.0000000000e+00 0.0000e+00 1.0000e+00
</event>
<event>
 5      2 +1.7896800e-02 9.11880000e+01 7.81616400e-03 1.18400000e-01
      -11 -1    0    0    0    0 +0.0000000000e+00 +0.0000000000e+00 +4.5593999997e+01 4.5594000000e+01 5.1100000000e-04 0.0000e+00 1.0000e+00
       11 -1    0    0    0    0 -0.0000000000e+00 -0.0000000000e+00 -4.5593999997e+01 4.5594000000e+01 5.1100000000e-04 0.0000e+00 -1.0000e+00
       23  2    1    2    0    0 +0.0000000000e+00 +0.0000000000e+00 +0.0000000000e+00 9.1188000000e+01 9.1188000000e+01 1.6270e-14 0.0000e+00
  9900012  1    3    3    0    0 -1.3682035483e+00 -1.0051247538e+01 -3.0229472497e+01 5.9301944028e+01 5.0000000000e+01 2.2829e-03 -1.0000e+00
      -12  1    3    3    0    0 +1.3682035483e+00 +1.0051247538e+01 +3.0229472497e+01 3.1886055972e+01 0.0000000000e+00 0.0000e+00 1.0000e+00
</event>
<event>
 5      7 +1.7896800e-02 9.11880000e+01 7.81616400e-03 1.18400000e-01
      -11 -1    0    0    0    0 +0.0000000000e+00 +0.0000000000e+00 +4.5593999997e+01 4.5594000000e+01 5.1100000000e-04 0.0000e+00 1.0000e+00
       11 -1    0    0    0    0 -0.0000000000e+00 -0.0000000000e+00 -4.5593999997e+01 4.5594000000e+01 5.1100000000e-04 0.0000e+00 -1.0000e+00
       23  2    1    2    0    0 +0.0000000000e+00 +0.0000000000e+00 +0.0000000000e+00 9.1188000000e+01 9.1188000000e+01 9.9923e-14 0.0000e+00
  9900012  1    3    3    0    0 +2.8345807952e+01 -1.0490057942e+01 +1.0158465503e+01 5.9301944028e+01 5.0000000000e+01 2.6953e-04 1.0000e+00
       12  1    3    3    0    0 -2.8345807952e+01 +1.0490057942e+01 -1.0158465503e+01 3.1886055972e+01 0.0000000000e+00 0.0000e+00 -1.0000e+00
</event>
<event>
 5      7 +1.7896800e-02 9.11880000e+01 7.81616400e-03 1.18400000e-01
      -11 -1    0    0    0    0 +0.0000000000e+00 +0.0000000000e+00 +4.5593999997e+01 4.5594000000e+01 5.1100000000e-04 0.0000e+00 -1.0000e+00
       11 -1    0    0    0    0 -0.0000000000e+00 -0.0000000000e+00 -4.5593999997e+01 4.5594000000e+01 5.1100000000e-04 0.0000e+00 1.0000e+00
       23  2    1    2    0    0 +0.0000000000e+00 +0.0000000000e+00 +0.0000000000e+00 9.1188000000e+01 9.1188000000e+01 2.3737e-14 0.0000e+00
  9900012  1    3    3    0    0 -3.2942514858e+00 -2.5879904478e+01 +1.8333003486e+01 5.9301944028e+01 5.0000000000e+01 4.3826e-05 1.0000e+00
       12  1    3    3    0    0 +3.2942514858e+00 +2.5879904478e+01 -1.8333003486e+01 3.1886055972e+01 0.0000000000e+00 0.0000e+00 -1.0000e+00
</event>
<event>
 5      5 +1.7896800e-02 9.11880000e+01 7.81616400e-03 1.18400000e-01
      -11 -1    0    0    0    0 +0.0000000000e+00 +0.0000000000e+00 +4.5593999997e+01 4.5594000000e+01 5.1100000000e-04 0.0000e+00 -1.0000e+00
       11 -1    0    0    0    0 -0.0000000000e+00 -0.0000000000e+00 -4.5593999997e+01 4.5594000000e+01 5.1100000000e-04 0.0000e+00 1.0000e+00
       23  2    1    2    0    0 +0.0000000000e+00 +0.0000000000e+00 +0.0000000000e+00 9.1188000000e+01 9.1188000000e+01 1.8508e-14 0.0000e+00
  9900012  1    3    3    0    0 +5.5104452941e+00 +8.3533271731e+00 -3.0275030690e+01 5.9301944028e+01 5.0000000000e+01 2.7188e-04 1.0000e+00
       12  1    3    3    0    0 -5.5104452941e+00 -8.3533271731e+00 +3.0275030690e+01 3.1886055972e+01 0.0000000000e+00 0.0000e+00 -1.0000e+00
</event>
<event>
 5      6 +1.7896800e-02 9.11880000e+01 7.81616400e-03 1.18400000e-01
      -11 -1    0    0    0    0 +0.0000000000e+00 +0.0000000000e+00 +4.5593999997e+01 4.5594000000e+01 5.1100000000e-04 0.0000e+00 -1.0000e+00
       11 -1    0    0    0    0 -0.0000000000e+00 -0.0000000000e+00 -4.5593999997e+01 4.5594000000e+01 5.1100000000e-04 0.0000e+00 1.0000e+00
       23  2    1    2    0    0 +0.0000000000e+00 +0.0000000000e+00 +0.0000000000e+00 9.1188000000e+01 9.1188000000e+01 6.3646e-14 0.0000e+00
  9900012  1    3    3    0    0 +1.4286714037e+01 +1.5300602001e+01 +2.4052067394e+01 5.9301944028e+01 5.0000000000e+01 2.7143e-04 -1.0000e+00
      -12  1    3    3    0    0 -1.4286714037e+01 -1.5300602001e+01 -2.4052067394e+01 3.1886055972e+01 0.0000000000e+00 0.0000e+00 1.0000e+00
</event>
<event>
 5      7 +1.7896800e-02 9.11880000e+01 7.81616400e-03 1.18400000e-01
      -11 -1    0    0    0    0 +0.0000000000e+00 +0.0000000000e+00 +4.5593999997e+01 4.5594000000e+01 5.1100000000e-04 0.0000e+00 1.0000e+00
       11 -1    0    0    0    0 -0.0000000000e+00 -0.0000000000e+00 -4.5593999997e+01 4.5594000000e+01 5.1100000000e-04 0.0000e+00 -1.0000e+00
       23  2    1    2    0    0 +0.0000000000e+00 +0.0000000000e+00 +0.0000000000e+00 9.1188000000e+01 9.1188000000e+01 3.2170e-14 0.0000e+00
  9900012  1    3    3    0    0 +5.9525286210e+00 -3.0087318915e+01 +8.7201610641e+00 5.9301944028e+01 5.0000000000e+01 3.2023e-04 1.0000e+00
       12  1    3    3    0    0 -5.9525286210e+00 +3.0087318915e+01 -8.7201610641e+00 3.1886055972e+01 0.0000000000e+00 0.0000e+00 -1.0000e+00
</event>
<event>
 5      5 +1.7896800e-02 9.11880000e+01 7.81616400e-03 1.18400000e-01
      -11 -1    0    0    0    0 +0.0000000000e+00 +0.0000000000e+00 +4.5593999997e+01 4.5594000000e+01 5.1100000000e-04 0.0000e+00 1.0000e+00
       11 -1    0    0    0    0 -0.0000000000e+00 -0.0000000000e+00 -4.5593999997e+01 4.5594000000e+01 5.1100000000e-04 0.0000e+00 -1.0000e+00
       23  2    1    2    0    0 +0.0000000000e+00 +0.0000000000e+00 +0.0000000000e+00 9.1188000000e+01 9.1188000000e+01 3.3022e-14 0.0000e+00
  9900012  1    3    3    0    0 +3.7348489585e+00 -2.6320639311e+01 -1.7606686655e+01 5.9301944028e+01 5.0000000000e+01 2.1635e-04 1.0000e+00
       12  1    3    3    0    0 -3.7348489585e+00 +2.6320639311e+01 +1.7606686655e+01 3.1886055972e+01 0.0000000000e+00 0.0000e+00 -1.0000e+00
</event>
<event>
 5      8 +1.7896800e-02 9.11880000e+01 7.81616400e-03 1.18400000e-01
      -11 -1    0    0    0    0 +0.0000000000e+00 +0.0000000000e+00 +4.5593999997e+01 4.5594000000e+01 5.1100000000e-04 0.0000e+00 -1.0000e+00
       11 -1    0    0    0    0 -0.0000000000e+00 -0.0000000000e+00 -4.5593999997e+01 4.5594000000e+01 5.1100000000e-04 0.0000e+00 1.0000e+00
       23  2    1    2    0    0 +0.0000000000e+00 +0.0000000000e+00 +0.0000000000e+00 9.1188000000e+01 9.1188000000e+01 2.8857e-14 0.0000e+00
  9900012  1    3    3    0    0 +2.2717110591e+01 -1.0369115074e+01 +1.9827629824e+01 5.9301944028e+01 5.0000000000e+01 1.2855e-03 -1.0000e+00
      -12  1    3    3    0    0 -2.2717110591e+01 +1.0369115074e+01 -1.9827629824e+01 3.1886055972e+01 0.0000000000e+00 0.0000e+00 1.0000e+00
</event>
<event>
 5      4 +1.7896800e-02 9.11880000e+01 7.81616400e-03 1.18400000e-01
      -11 -1    0    0    0    0 +0.0000000000e+00 +0.0000000000e+00 +4.5593999997e+01 4.5594000000e+01 5.1100000000e-04 0.0000e+00 -1.0000e+00
       11 -1    0    0    0    0 -0.0000000000e+00 -0.0000000000e+00 -4.5593999997e+01 4.5594000000e+01 5.1100000000e-04 0.0000e+00 1.0000e+00
       23  2    1    2    0    0 +0.0000000000e+00 +0.0000000000e+00 +0.0000000000e+00 9.1188000000e+01 9.1188000000e+01 2.6402e-14 0.0000e+00
  9900012  1    3    3    0    0 -2.6611725451e+01 -1.7271667175e+01 -3.1978347362e+00 5.9301944028e+01 5.0000000000e+01 3.6545e-04 -1.0000e+00
      -12  1    3    3    0    0 +2.6611725451e+01 +1.7271667175e+01 +3.1978347362e+00 3.1886055972e+01 0.0000000000e+00 0.0000e+00 1.0000e+00
</event>
<event>
 5      8 +1.7896800e-02 9.11880000e+01 7.81616400e-03 1.18400000e-01
      -11 -1    0    0    0    0 +0.0000000000e+00 +0.0000000000e+00 +4.5593999997e+01 4.5594000000e+01 5.1100000000e-04 0.0000e+00 1.0000e+00
       11 -1    0    0    0    0 -0.0000000000e+00 -0.0000000000e+00 -4.5593999997e+01 4.5594000000e+01 5.1100000000e-04 0.0000e+00 -1.0000e+00
       23  2    1    2    0    0 +0.0000000000e+00 +0.0000000000e+00 +0.0000000000e+00 9.1188000000e+01 9.1188000000e+01 8.0149e-14 0.0000e+00
  9900012  1    3    3    0    0 +1.3602364827e+01 -2.0412924838e+01 -2.0371763207e+01 5.9301944028e+01 5.0000000000e+01 2.6821e-04 -1.0000e+00
      -12  1    3    3    0    0 -1.3602364827e+01 +2.0412924838e+01 +2.0371763207e+01 3.1886055972e+01 0.0000000000e+00 0.0000e+00 1.0000e+00
</event>
<event>
 5      3 +1.7896800e-02 9.11880000e+01 7.81616400e-03 1.18400000e-01
      -11 -1    0    0    0    0 +0.0000000000e+00 +0.0000000000e+00 +4.5593999997e+01 4.5594000000e+01 5.1100000000e-04 0.0000e+00 1.0000e+00
       11 -1    0    0    0    0 -0.0000000000e+00 -0.0000000000e+00 -4.5593999997e+01 4.5594000000e+01 5.1100000000e-04 0.0000e+00 -1.0000e+00
       23  2    1    2    0    0 +0.0000000000e+00 +0.0000000000e+00 +0.0000000000e+00 9.1188000000e+01 9.1188000000e+01 9.4050e-14 0.0000e+00
  9900012  1    3    3    0    0 -1.2652109086e+00 -5.0638472385e+00 +3.1455957432e+01 5.9301944028e+01 5.0000000000e+01 8.5107e-04 1.0000e+00
       12  1    3    3    0    0 +1.2652109086e+00 +5.0638472385e+00 -3.1455957432e+01 3.1886055972e+01 0.0000000000e+00 0.0000e+00 -1.0000e+00
</event>
<event>
 5      6 +1.7896800e-02 9.11880000e+01 7.81616400e-03 1.18400000e-01
      -11 -1    0    0    0    0 +0.0000000000e+00 +0.0000000000e+00 +4.5593999997e+01 4.5594000000e+01 5.1100000000e-04 0.0000e+00 1.0000e+00
       11 -1    0    0    0    0 -0.0000000000e+00 -0.0000000000e+00 -4.5593999997e+01 4.5594000000e+01 5.1100000000e-04 0.0000e+00 -1.0000e+00
       23  2    1    2    0    0 +0.0000000000e+00 +0.0000000000e+00 +0.0000000000e+00 9.1188000000e+01 9.1188000000e+01 2.5815e-13 0.0000e+00
  9900012  1    3    3    0    0 -2.6620549653e+01 -1.1864355923e+01 -1.2934603210e+01 5.9301944028e+01 5.0000000000e+01 1.5681e-03 -1.0000e+00
      -12  1    3    3    0    0 +2.6620549653e+01 +1.1864355923e+01 +1.2934603210e+01 3.1886055972e+01 0.0000000000e+00 0.0000e+00 1.0000e+00
</event>
<event>
 5      7 +1.7896800e-02 9.11880000e+01 7.81616400e-03 1.18400000e-01
      -11 -1    0    0    0    0 +0.0000000000e+00 +0.0000000000e+00 +4.5593999997e+01 4.5594000000e+01 5.1100000000e-04 0.0000e+00 1.0000e+00
       11 -1    0    0    0    0 -0.0000000000e+00 -0.0000000000e+00 -4.5593999997e+01 4.5594000000e+01 5.1100000000e-04 0.0000e+00 -1.0000e+00
       23  2    1    2    0    0 +0.0000000000e+00 +0.0000000000e+00 +0.0000000000e+00 9.1188000000e+01 9.1188000000e+01 5.1644e-15 0.0000e+00
  9900012  1    3    3    0    0 -4.9560567610e+00 -1.2648406594e+01 +2.8847458770e+01 5.9301944028e+01 5.0000000000e+01 3.9191e-04 1.0000e+00
       12  1    3    3    0    0 +4.9560567610e+00 +1.2648406594e+01 -2.8847458770e+01 3.1886055972e+01 0.0000000000e+00 0.0000e+00 -1.0000e+00
</event>
<event>
 5      4 +1.7896800e-02 9.11880000e+01 7.81616400e-03 1.18400000e-01
      -11 -1    0    0    0    0 +0.0000000000e+00 +0.0000000000e+00 +4.5593999997e+01 4.5594000000e+01 5.1100000000e-04 0.0000e+00 -1.0000e+00
       11 -1    0    0    0    0 -0.0000000000e+00 -0.0000000000e+00 -4.5593999997e+01 4.5594000000e+01 5.1100000000e-04 0.0000e+00 1.0000e+00
       23  2    1    2    0    0 +0.0000000000e+00 +0.0000000000e+00 +0.0000000000e+00 9.1188000000e+01 9.1188000000e+01 1.6354e-13 0.0000e+00
  9900012  1    3    3    0    0 -1.1196820483e+01 -2.8077308920e+01 +1.0149704445e+01 5.9301944028e+01 5.0000000000e+01 6.5388e-05 -1.0000e+00
      -12  1    3    3    0    0 +1.1196820483e+01 +2.8077308920e+01 -1.0149704445e+01 3.1886055972e+01 0.0000000000e+00 0.0000e+00 1.0000e+00
</event>
<event>
 5      2 +1.7896800e-02 9.11880000e+01 7.81616400e-03 1.18400000e-01
      -11 -1    0    0    0    0 +0.0000000000e+00 +0.0000000000e+00 +4.5593999997e+01 4.5594000000e+01 5.1100000000e-04 0.0000e+00 1.0000e+00
       11 -1    0    0    0    0 -0.0000000000e+00 -0.0000000000e+00 -4.5593999997e+01 4.5594000000e+01 5.1100000000e-04 0.0000e+00 -1.0000e+00
       23  2    1    2    0    0 +0.0000000000e+00 +0.0000000000e+00 +0.0000000000e+00 9.1188000000e+01 9.1188000000e+01 2.9134e-15 0.0000e+00
  9900012  1    3    3    0    0 +1.6822138424e+01 +7.4779161408e+00 -2.6034918753e+01 5.9301944028e+01 5.0000000000e+01 1.9527e-05 -1.0000e+00
      -12  1    3    3    0    0 -1.6822138424e+01 -7.4779161408e+00 +2.6034918753e+01 3.1886055972e+01 0.0000000000e+00 0.0000e+00 1.0000e+00
</event>
<event>
 5      4 +1.7896800e-02 9.11880000e+01 7.81616400e-03 1.18400000e-01
      -11 -1    0    0    0    0 +0.0000000000e+00 +0.0000000000e+00 +4.5593999997e+01 4.5594000000e+01 5.1100000000e-04 0.0000e+00 -1.0000e+00
       11 -1    0    0    0    0 -0.0000000000e+00 -0.0000000000e+00 -4.5593999997e+01 4.5594000000e+01 5.1100000000e-04 0.0000e+00 1.0000e+00
       23  2    1    2    0    0 +0.0000000000e+00 +0.0000000000e+00 +0.0000000000e+00 9.1188000000e+01 9.1188000000e+01 6.6536e-14 0.0000e+00
  9900012  1    3    3    0    0 -2.4260251646e+01 +2.0350775483e+01 +3.7425516381e+00 5.9301944028e+01 5.0000000000e+01 9.8908e-05 -1.0000e+00
      -12  1    3    3    0    0 +2.4260251646e+01 -2.0350775483e+01 -3.7425516381e+00 3.1886055972e+01 0.0000000000e+00 0.0000e+00 1.0000e+00
</event>
<event>
 5      5 +1.7896800e-02 9.11880000e+01 7.81616400e-03 1.18400000e-01
      -11 -1    0    0    0    0 +0.0000000000e+00 +0.0000000000e+00 +4.5593999997e+01 4.5594000000e+01 5.1100000000e-04 0.0000e+00 -1.0000e+00
       11 -1    0    0    0    0 -0.0000000000e+00 -0.0000000000e+00 -4.5593999997e+01 4.5594000000e+01 5.1100000000e-04 0.0000e+00 1.0000e+00
       23  2    1    2    0    0 +0.0000000000e+00 +0.0000000000e+00 +0.0000000000e+00 9.1188000000e+01 9.1188000000e+01 6.2102e-14 0.0000e+00
  9900012  1    3    3    0    0 -1.6772104677e+01 -1.8099855823e+01 -2.0194362812e+01 5.9301944028e+01 5.0000000000e+01 9.0335e-04 1.0000e+00
       12  1    3    3    0    0 +1.6772104677e+01 +1.8099855823e+01 +2.0194362812e+01 3.1886055972e+01 0.0000000000e+00 0.0000e+00 -1.0000e+00
</event>
<event>
 5      4 +1.7896800e-02 9.11880000e+01 7.81616400e-03 1.18400000e-01
      -11 -1    0    0    0    0 +0.0000000000e+00 +0.0000000000e+00 +4.5593999997e+01 4.5594000000e+01 5.1100000000e-04 0.0000e+00 1.0000e+00
       11 -1    0    0    0    0 -0.0000000000e+00 -0.0000000000e+00 -4.5593999997e+01 4.5594000000e+01 5.1100000000e-04 0.0000e+00 -1.0000e+00
       23  2    1    2    0    0 +0.0000000000e+00 +0.0000000000e+00 +0.0000000000e+00 9.1188000000e+01 9.1188000000e+01 2.6174e-15 0.0000e+00
  9900012  1    3    3    0    0 -4.8779074810e+00 -1.0529680772e+01 -2.9699367113e+01 5.9301944028e+01 5.0000000000e+01 4.7926e-03 -1.0000e+00
      -12  1    3    3    0    0 +4.8779074810e+00 +1.0529680772e+01 +2.9699367113e+01 3.1886055972e+01 0.0000000000e+00 0.0000e+00 1.0000e+00
</event>
<event>
 5      4 +1.7896800e-02 9.11880000e+01 7.81616400e-03 1.18400000e-01
      -11 -1    0    0    0    0 +0.0000000000e+00 +0.0000000000e+00 +4.5593999997e+01 4.5594000000e+01 5.1100000000e-04 0.0000e+00 -1.0000e+00
       11 -1    0    0    0    0 -0.0000000000e+00 -0.0000000000e+00 -4.5593999997e+01 4.5594000000e+01 5.1100000000e-04 0.0000e+00 1.0000e+00
       23  2    1    2    0    0 +0.0000000000e+00 +0.0000000000e+00 +0.0000000000e+00 9.1188000000e+01 9.1188000000e+01 6.2316e-14 0.0000e+00
  9900012  1    3    3    0    0 +1.0051907872e+01 +2.9300027208e+00 +3.0118014504e+01 5.9301944028e+01 5.0000000000e+01 3.1819e-03 -1.0000e+00
      -12  1    3    3    0    0 -1.0051907872e+01 -2.9300027208e+00 -3.0118014504e+01 3.1886055972e+01 0.0000000000e+00 0.0000e+00 1.0000e+00
</event>
<event>
 5      6 +1.7896800e-02 9.11880000e+01 7.81616400e-03 1.18400000e-01
      -11 -1    0    0    0    0 +0.0000000000e+00 +0.0000000000e+00 +4.5593999997e+01 4.5594000000e+01 5.1100000000e-04 0.0000e+00 -1.0000e+00
       11 -1    0    0    0    0 -0.0000000000e+00 -0.0000000000e+00 -4.5593999997e+01 4.5594000000e+01 5.1100000000e-04 0.0000e+00 1.0000e+00
       23  2    1    2    0    0 +0.0000000000e+00 +0.0000000000e+00 +0.0000000000e+00 9.1188000000e+01 9.1188000000e+01 4.3191e-14 0.0000e+00
  9900012  1    3    3    0    0 -3.1805612658e+01 -1.0816569928e-01 -2.2609443003e+00 5.9301944028e+01 5.0000000000e+01 3.3748e-04 1.0000e+00
      -12  1    3    3    0    0 +3.1805612658e+01 +1.0816569928e-01 +2.2609443003e+00 3.1886055972e+01 0.0000000000e+00 0.0000e+00 1.0000e+00
</event>
<event>
 5      3 +1.7896800e-02 9.11880000e+01 7.81616400e-03 1.18400000e-01
      -11 -1    0    0    0    0 +0.0000000000e+00 +0.0000000000e+00 +4.5593999997e+01 4.5594000000e+01 5.1100000000e-04 0.0000e+00 1.0000e+00
       11 -1    0    0    0    0 -0.0000000000e+00 -0.0000000000e+00 -4.5593999997e+01 4.5594000000e+01 5.1100000000e-04 0.0000e+00 -1.0000e+00
       23  2    1    2    0    0 +0.0000000000e+00 +0.0000000000e+00 +0.0000000000e+00 9.1188000000e+01 9.1188000000e+01 2.7928e-14 0.0000e+00
  9900012  1    3    3    0    0 -2.1254563265e+01 +1.8539900140e+01 +1.4874011184e+01 5.9301944028e+01 5.0000000000e+01 5.0086e-05 1.0000e+00
       12  1    3    3    0    0 +2.1254563265e+01 -1.8539900140e+01 -1.4874011184e+01 3.1886055972e+01 0.0000000000e+00 0.0000e+00 -1.0000e+00
</event>
<event>
 5      6 +1.7896800e-02 9.11880000e+01 7.81616400e-03 1.18400000e-01
      -11 -1    0    0    0    0 +0.0000000000e+00 +0.0000000000e+00 +4.5593999997e+01 4.5594000000e+01 5.1100000000e-04 0.0000e+00 1.0000e+00
       11 -1    0    0    0    0 -0.0000000000e+00 -0.0000000000e+00 -4.5593999997e+01 4.5594000000e+01 5.1100000000e-04 0.0000e+00 -1.0000e+00
       23  2    1    2    0    0 +0.0000000000e+00 +0.0000000000e+00 +0.0000000000e+00 9.1188000000e+01 9.1188000000e+01 3.1416e-14 0.0000e+00
  9900012  1    3    3    0    0 +1.6058230450e+01 -8.0010606300e-02 -2.7547184949e+01 5.9301944028e+01 5.0000000000e+01 1.9056e-03 -1.0000e+00
      -12  1    3    3    0    0 -1.6058230450e+01 +8.0010606300e-02 +2.7547184949e+01 3.1886055972e+01 0.0000000000e+00 0.0000e+00 1.0000e+00
</event>
<event>
 5      5 +1.7896800e-02 9.11880000e+01 7.81616400e-03 1.18400000e-01
      -11 -1    0    0    0    0 +0.0000000000e+00 +0.0000000000e+00 +4.5593999997e+01 4.5594000000e+01 5.1100000000e-04 0.0000e+00 -1.0000e+00
       11 -1    0    0    0    0 -0.0000000000e+00 -0.0000000000e+00 -4.5593999997e+01 4.5594000000e+01 5.1100000000e-04 0.0000e+00 1.0000e+00
       23  2    1    2    0    0 +0.0000000000e+00 +0.0000000000e+00 +0.0000000000e+00 9.1188000000e+01 9.1188000000e+01 3.0076e-14 0.0000e+00
  9900012  1    3    3    0    0 +2.4202042057e+01 -1.6861146435e+01 -1.2111295002e+01 5.9301944028e+01 5.0000000000e+01 6.8579e-05 1.0000e+00
       12  1    3    3    0    0 -2.4202042057e+01 +1.6861146435e+01 +1.2111295002e+01 3.1886055972e+01 0.0000000000e+00 0.0000e+00 -1.0000e+00
</event>
<event>
 5      6 +1.7896800e-02 9.11880000e+01 7.81616400e-03 1.18400000e-01
      -11 -1    0    0    0    0 +0.0000000000e+00 +0.0000000000e+00 +4.5593999997e+01 4.5594000000e+01 5.1100000000e-04 0.0000e+00 -1.0000e+00
       11 -1    0    0    0    0 -0.0000000000e+00 -0.0000000000e+00 -4.5593999997e+01 4.5594000000e+01 5.1100000000e-04 0.0000e+00 1.0000e+00
       23  2    1    2    0    0 +0.0000000000e+00 +0.0000000000e+00 +0.0000000000e+00 9.1188000000e+01 9.1188000000e+01 5.4395e-14 0.0000e+00
  9900012  1    3    3    0    0 +1.5811061107e+01 -2.3743214256e+01 +1.4247480091e+01 5.9301944028e+01 5.0000000000e+01 3.8255e-05 -1.0000e+00
      -12  1    3    3    0    0 -1.5811061107e+01 +2.3743214256e+01 -1.4247480091e+01 3.1886055972e+01 0.0000000000e+00 0.0000e+00 1.0000e+00
</event>
<event>
 5      3 +1.7896800e-02 9.11880000e+01 7.81616400e-03 1.18400000e-01
      -11 -1    0    0    0    0 +0.0000000000e+00 +0.0000000000e+00 +4.5593999997e+01 4.5594000000e+01 5.1100000000e-04 0.0000e+00 -1.0000e+00
       11 -1    0    0    0    0 -0.0000000000e+00 -0.0000000000e+00 -4.5593999997e+01 4.5594000000e+01 5.1100000000e-04 0.0000e+00 1.0000e+00
       23  2    1    2    0    0 +0.0000000000e+00 +0.0000000000e+00 +0.0000000000e+00 9.1188000000e+01 9.1188000000e+01 9.1558e-14 0.0000e+00
  9900012  1    3    3    0    0 -2.6254970103e+01 +7.1416896560e+00 -1.6625082834e+01 5.9301944028e+01 5.0000000000e+01 4.0822e-03 -1.0000e+00
       12  1    3    3    0    0 +2.6254970103e+01 -7.1416896560e+00 +1.6625082834e+01 3.1886055972e+01 0.0000000000e+00 0.0000e+00 -1.0000e+00
</event>
<event>
 5      5 +1.7896800e-02 9.11880000e+01 7.81616400e-03 1.18400000e-01
      -11 -1    0    0    0    0 +0.0000000000e+00 +0.0000000000e+00 +4.5593999997e+01 4.5594000000e+01 5.1100000000e-04 0.0000e+00 -1.0000e+00
       11 -1    0    0    0    0 -0.0000000000e+00 -0.0000000000e+00 -4.5593999997e+01 4.5594000000e+01 5.1100000000e-04 0.0000e+00 1.0000e+00
       23  2    1    2    0    0 +0.0000000000e+00 +0.0000000000e+00 +0.0000000000e+00 9.1188000000e+01 9.1188000000e+01 4.2082e-13 0.0000e+00
  9900012  1    3    3    0    0 +2.8385042309e+01 -5.9506984015e-01 -1.4513987408e+01 5.9301944028e+01 5.0000000000e+01 1.1406e-03 1.0000e+00
       12  1    3    3    0    0 -2.8385042309e+01 +5.9506984015e-01 +1.4513987408e+01 3.1886055972e+01 0.0000000000e+00 0.0000e+00 -1.0000e+00
</event>
<event>
 5      4 +1.7896800e-02 9.11880000e+01 7.81616400e-03 1.18400000e-01
      -11 -1    0    0    0    0 +0.0000000000e+00 +0.0000000000e+00 +4.5593999997e+01 4.5594000000e+01 5.1100000000e-04 0.0000e+00 1.0000e+00
       11 -1    0    0    0    0 -0.0000000000e+00 -0.0000000000e+00 -4.5593999997e+01 4.5594000000e+01 5.1100000000e-04 0.0000e+00 -1.0000e+00
       23  2    1    2    0    0 +0.0000000000e+00 +0.0000000000e+00 +0.0000000000e+00 9.1188000000e+01 9.1188000000e+01 8.1616e-14 0.0000e+00
  9900012  1    3    3    0    0 +2.6256902936e+01 +6.1710376859e+00 -1.7006290235e+01 5.9301944028e+01 5.0000000000e+01 6.9370e-04 -1.0000e+00
      -12  1    3    3    0    0 -2.6256902936e+01 -6.1710376859e+00 +1.7006290235e+01 3.1886055972e+01 0.0000000000e+00 0.0000e+00 1.0000e+00
</event>
<event>
 5      6 +1.7896800e-02 9.11880000e+01 7.81616400e-03 1.18400000e-01
      -11 -1    0    0    0    0 +0.0000000000e+00 +0.0000000000e+00 +4.5593999997e+01 4.5594000000e+01 5.1100000000e-04 0.0000e+00 1.0000e+00
       11 -1    0    0    0    0 -0.0000000000e+00 -0.0000000000e+00 -4.5593999997e+01 4.5594000000e+01 5.1100000000e-04 0.0000e+00 -1.0000e+00
       23  2    1    2    0    0 +0.0000000000e+00 +0.0000000000e+00 +0.0000000000e+00 9.1188000000e+01 9.1188000000e+01 9.3406e-14 0.0000e+00
  9900012  1    3    3    0    0 -1.7713458715e+01 -2.5993865527e+01 +5.2223462897e+00 5.9301944028e+01 5.0000000000e+01 4.7255e-04 -1.0000e+00
      -12  1    3    3    0    0 +1.7713458715e+01 +2.5993865527e+01 -5.2223462897e+00 3.1886055972e+01 0.0000000000e+00 0.0000e+00 1.0000e+00
</event>
<event>
 5      4 +1.7896800e-02 9.11880000e+01 7.81616400e-03 1.18400000e-01
      -11 -1    0    0    0    0 +0.0000000000e+00 +0.0000000000e+00 +4.5593999997e+01 4.5594000000e+01 5.1100000000e-04 0.0000e+00 1.0000e+00
       11 -1    0    0    0    0 -0.0000000000e+00 -0.0000000000e+00 -4.5593999997e+01 4.5594000000e+01 5.1100000000e-04 0.0000e+00 -1.0000e+00
       23  2    1    2    0    0 +0.0000000000e+00 +0.0000000000e+00 +0.0000000000e+00 9.1188000000e+01 9.1188000000e+01 3.8086e-14 0.0000e+00
  9900012  1    3    3    0    0 -3.0895265733e+01 +2.3756496474e-02 -7.8868597301e+00 5.9301944028e+01 5.0000000000e+01 6.1520e-04 -1.0000e+00
      -12  1    3    3    0    0 +3.0895265733e+01 -2.3756496474e-02 +7.8868597301e+00 3.1886055972e+01 0.0000000000e+00 0.0000e+00 1.0000e+00
</event>
<event>
 5      7 +1.7896800e-02 9.11880000e+01 7.81616400e-03 1.18400000e-01
      -11 -1    0    0    0    0 +0.0000000000e+00 +0.0000000000e+00 +4.5593999997e+01 4.5594000000e+01 5.1100000000e-04 0.0000e+00 1.0000e+00
       11 -1    0    0    0    0 -0.0000000000e+00 -0.0000000000e+00 -4.5593999997e+01 4.5594000000e+01 5.1100000000e-04 0.0000e+00 -1.0000e+00
       23  2    1    2    0    0 +0.0000000000e+00 +0.0000000000e+00 +0.0000000000e+00 9.1188000000e+01 9.1188000000e+01 1.0978e-13 0.0000e+00
  9900012  1    3    3    0    0 +2.3642786164e+01 +2.3221908598e+00 +2.1268442761e+01 5.9301944028e+01 5.0000000000e+01 2.6636e-04 1.0000e+00
       12  1    3    3    0    0 -2.3642786164e+01 -2.3221908598e+00 -2.1268442761e+01 3.1886055972e+01 0.0000000000e+00 0.0000e+00 -1.0000e+00
</event>
<event>
 5      7 +1.7896800e-02 9.11880000e+01 7.81616400e-03 1.18400000e-01
      -11 -1    0    0    0    0 +0.0000000000e+00 +0.0000000000e+00 +4.5593999997e+01 4.5594000000e+01 5.1100000000e-04 0.0000e+00 -1.0000e+00
       11 -1    0    0    0    0 -0.0000000000e+00 -0.0000000000e+00 -4.5593999997e+01 4.5594000000e+01 5.1100000000e-04 0.0000e+00 1.0000e+00
       23  2    1    2    0    0 +0.0000000000e+00 +0.0000000000e+00 +0.0000000000e+00 9.1188000000e+01 9.1188000000e+01 1.2866e-14 0.0000e+00
  9900012  1    3    3    0    0 +2.6938759928e+01 +9.3007385298e+00 -1.4301050375e+01 5.9301944028e+01 5.0000000000e+01 5.7940e-04 1.0000e+00
       12  1    3    3    0    0 -2.6938759928e+01 -9.3007385298e+00 +1.4301050375e+01 3.1886055972e+01 0.0000000000e+00 0.0000e+00 -1.0000e+00
</event>
<event>
 5      7 +1.7896800e-02 9.11880000e+01 7.81616400e-03 1.18400000e-01
      -11 -1    0    0    0    0 +0.0000000000e+00 +0.0000000000e+00 +4.5593999997e+01 4.5594000000e+01 5.1100000000e-04 0.0000e+00 1.0000e+00
       11 -1    0    0    0    0 -0.0000000000e+00 -0.0000000000e+00 -4.5593999997e+01 4.5594000000e+01 5.1100000000e-04 0.0000e+00 -1.0000e+00
       23  2    1    2    0    0 +0.0000000000e+00 +0.0000000000e+00 +0.0000000000e+00 9.1188000000e+01 9.1188000000e+01 8.8073e-14 0.0000e+00
  9900012  1    3    3    0    0 +2.6726869107e+01 -1.2969125642e+01 +1.1584334824e+01 5.9301944028e+01 5.0000000000e+01 7.7510e-05 1.0000e+00
       12  1    3    3    0    0 -2.6726869107e+01 +1.2969125642e+01 -1.1584334824e+01 3.1886055972e+01 0.0000000000e+00 0.0000e+00 -1.0000e+00
</event>
<event>
 5      7 +1.7896800e-02 9.11880000e+01 7.81616400e-03 1.18400000e-01
      -11 -1    0    0    0    0 +0.0000000000e+00 +0.0000000000e+00 +4.5593999997e+01 4.5594000000e+01 5.1100000000e-04 0.0000e+00 -1.0000e+00
       11 -1    0    0    0    0 -0.0000000000e+00 -0.0000000000e+00 -4.5593999997e+01 4.5594000000e+01 5.1100000000e-04 0.0000e+00 1.0000e+00
       23  2    1    2    0    0 +0.0000000000e+00 +0.0000000000e+00 +0.0000000000e+00 9.1188000000e+01 9.1188000000e+01 5.2672e-14 0.0000e+00
  9900012  1    3    3    0    0 +4.5081275856e+00 -1.3186780615e+01 -2.8679368336e+01 5.9301944028e+01 5.0000000000e+01 1.0026e-03 1.0000e+00
       12  1    3    3    0    0 -4.5081275856e+00 +1.3186780615e+01 +2.8679368336e+01 3.1886055972e+01 0.0000000000e+00 0.0000e+00 -1.0000e+00
</event>
<event>
 5      1 +1.7896800e-02 9.11880000e+01 7.81616400e-03 1.18400000e-01
      -11 -1    0    0    0    0 +0.0000000000e+00 +0.0000000000e+00 +4.5593999997e+01 4.5594000000e+01 5.1100000000e-04 0.0000e+00 -1.0000e+00
       11 -1    0    0    0    0 -0.0000000000e+00 -0.0000000000e+00 -4.5593999997e+01 4.5594000000e+01 5.1100000000e-04 0.0000e+00 1.0000e+00
       23  2    1    2    0    0 +0.0000000000e+00 +0.0000000000e+00 +0.0000000000e+00 9.1188000000e+01 9.1188000000e+01 3.4266e-13 0.0000e+00
  9900012  1    3    3    0    0 +2.0122196751e+00 +2.2732052541e+00 -3.1741204692e+01 5.9301944028e+01 5.0000000000e+01 8.6112e-04 1.0000e+00
       12  1    3    3    0    0 -2.0122196751e+00 -2.2732052541e+00 +3.1741204692e+01 3.1886055972e+01 0.0000000000e+00 0.0000e+00 -1.0000e+00
</event>
<event>
 5      7 +1.7896800e-02 9.11880000e+01 7.81616400e-03 1.18400000e-01
      -11 -1    0    0    0    0 +0.0000000000e+00 +0.0000000000e+00 +4.5593999997e+01 4.5594000000e+01 5.1100000000e-04 0.0000e+00 1.0000e+00
       11 -1    0    0    0    0 -0.0000000000e+00 -0.0000000000e+00 -4.5593999997e+01 4.5594000000e+01 5.1100000000e-04 0.0000e+00 -1.0000e+00
       23  2    1    2    0    0 +0.0000000000e+00 +0.0000000000e+00 +0.0000000000e+00 9.1188000000e+01 9.1188000000e+01 1.0936e-13 0.0000e+00
  9900012  1    3    3    0    0 -2.4967964286e+01 +1.3274880991e+01 +1.4734274993e+01 5.9301944028e+01 5.0000000000e+01 3.0649e-04 1.0000e+00
       12  1    3    3    0    0 +2.4967964286e+01 -1.3274880991e+01 -1.4734274993e+01 3.1886055972e+01 0.0000000000e+00 0.0000e+00 -1.0000e+00
</event>
<event>
 5      5 +1.7896800e-02 9.11880000e+01 7.81616400e-03 1.18400000e-01
      -11 -1    0    0    0    0 +0.0000000000e+00 +0.0000000000e+00 +4.5593999997e+01 4.5594000000e+01 5.1100000000e-04 0.0000e+00 -1.0000e+00
       11 -1    0    0    0    0 -0.0000000000e+00 -0.0000000000e+00 -4.5593999997e+01 4.5594000000e+01 5.1100000000e-04 0.0000e+00 1.0000e+00
       23  2    1    2    0    0 +0.0000000000e+00 +0.0000000000e+00 +0.0000000000e+00 9.1188000000e+01 9.1188000000e+01 1.0921e-13 0.0000e+00
  9900012  1    3    3    0    0 +2.5865617693e+01 +1.8554713530e+01 +1.8474286607e+00 5.9301944028e+01 5.0000000000e+01 1.6724e-03 1.0000e+00
       12  1    3    3    0    0 -2.5865617693e+01 -1.8554713530e+01 -1.8474286607e+00 3.1886055972e+01 0.0000000000e+00 0.0000e+00 -1.0000e+00
</event>
<event>
 5      2 +1.7896800e-02 9.11880000e+01 7.81616400e-03 1.18400000e-01
      -11 -1    0    0    0    0 +0.0000000000e+00 +0.0000000000e+00 +4.5593999997e+01 4.5594000000e+01 5.1100000000e-04 0.0000e+00 1.0000e+00
       11 -1    0    0    0    0 -0.0000000000e+00 -0.0000000000e+00 -4.5593999997e+01 4.5594000000e+01 5.1100000000e-04 0.0000e+00 -1.0000e+00
       23  2    1    2    0    0 +0.0000000000e+00 +0.0000000000e+00 +0.0000000000e+00 9.1188000000e+01 9.1188000000e+01 7.2767e-14 0.0000e+00
  9900012  1    3    3    0    0 -2.4902559440e+01 +1.0310785441e+01 +1.7037335542e+01 5.9301944028e+01 5.0000000000e+01 1.7263e-03 -1.0000e+00
      -12  1    3    3    0    0 +2.4902559440e+01 -1.0310785441e+01 -1.7037335542e+01 3.1886055972e+01 0.0000000000e+00 0.0000e+00 1.0000e+00
</event>
<event>
 5      8 +1.7896800e-02 9.11880000e+01 7.81616400e-03 1.18400000e-01
      -11 -1    0    0    0    0 +0.0000000000e+00 +0.0000000000e+00 +4.5593999997e+01 4.5594000000e+01 5.1100000000e-04 0.0000e+00 -1.0000e+00
       11 -1    0    0    0    0 -0.0000000000e+00 -0.0000000000e+00 -4.5593999997e+01 4.5594000000e+01 5.1100000000e-04 0.0000e+00 1.0000e+00
       23  2    1    2    0    0 +0.0000000000e+00 +0.0000000000e+00 +0.0000000000e+00 9.1188000000e+01 9.1188000000e+01 6.1807e-14 0.0000e+00
  9900012  1    3    3    0    0 -1.3141297579e+01 +2.8490261787e+01 +5.6861099827e+00 5.9301944028e+01 5.0000000000e+01 7.1074e-05 -1.0000e+00
      -12  1    3    3    0    0 +1.3141297579e+01 -2.8490261787e+01 -5.6861099827e+00 3.1886055972e+01 0.0000000000e+00 0.0000e+00 1.0000e+00
</event>
<event>
 5      7 +1.7896800e-02 9.11880000e+01 7.81616400e-03 1.18400000e-01
      -11 -1    0    0    0    0 +0.0000000000e+00 +0.0000000000e+00 +4.5593999997e+01 4.5594000000e+01 5.1100000000e-04 0.0000e+00 -1.0000e+00
       11 -1    0    0    0    0 -0.0000000000e+00 -0.0000000000e+00 -4.5593999997e+01 4.5594000000e+01 5.1100000000e-04 0.0000e+00 1.0000e+00
       23  2    1    2    0    0 +0.0000000000e+00 +0.0000000000e+00 +0.0000000000e+00 9.1188000000e+01 9.1188000000e+01 8.6535e-15 0.0000e+00
  9900012  1    3    3    0    0 -1.3099739870e+01 -2.7439046282e+00 -2.8941118986e+01 5.9301944028e+01 5.0000000000e+01 8.7726e-04 1.0000e+00
       12  1    3    3    0    0 +1.3099739870e+01 +2.7439046282e+00 +2.8941118986e+01 3.1886055972e+01 0.0000000000e+00 0.0000e+00 -1.0000e+00
</event>
<event>
 5      7 +1.7896800e-02 9.11880000e+01 7.81616400e-03 1.18400000e-01
      -11 -1    0    0    0    0 +0.0000000000e+00 +0.0000000000e+00 +4.5593999997e+01 4.5594000000e+01 5.1100000000e-04 0.0000e+00 1.0000e+00
       11 -1    0    0    0    0 -0.0000000000e+00 -0.0000000000e+00 -4.5593999997e+01 4.5594000000e+01 5.1100000000e-04 0.0000e+00 -1.0000e+00
       23  2    1    2    0    0 +0.0000000000e+00 +0.0000000000e+00 +0.0000000000e+00 9.1188000000e+01 9.1188000000e+01 2.0954e-14 0.0000e+00
  9900012  1    3    3    0    0 +1.1598956383e+01 -2.7519612521e+01 +1.1173884866e+01 5.9301944028e+01 5.0000000000e+01 1.1382e-03 1.0000e+00
       12  1    3    3    0    0 -1.1598956383e+01 +2.7519612521e+01 -1.1173884866e+01 3.1886055972e+01 0.0000000000e+00 0.0000e+00 -1.0000e+00
</event>
<event>
 5      8 +1.7896800e-02 9.11880000e+01 7.81616400e-03 1.18400000e-01
      -11 -1    0    0    0    0 +0.0000000000e+00 +0.0000000000e+00 +4.5593999997e+01 4.5594000000e+01 5.1100000000e-04 0.0000e+00 -1.0000e+00
       11 -1    0    0    0    0 -0.0000000000e+00 -0.0000000000e+00 -4.5593999997e+01 4.5594000000e+01 5.1100000000e-04 0.0000e+00 1.0000e+00
       23  2    1    2    0    0 +0.0000000000e+00 +0.0000000000e+00 +0.0000000000e+00 9.1188000000e+01 9.1188000000e+01 1.3509e-14 0.0000e+00
  9900012  1    3    3    0    0 -1.4330174046e+01 +2.8043343994e+01 -4.9937495842e+00 5.9301944028e+01 5.0000000000e+01 2.0353e-03 -1.0000e+00
      -12  1    3    3    0    0 +1.4330174046e+01 -2.8043343994e+01 +4.9937495842e+00 3.1886055972e+01 0.0000000000e+00 0.0000e+00 1.0000e+00
</event>
<event>
 5      4 +1.7896800e-02 9.11880000e+01 7.81616400e-03 1.18400000e-01
      -11 -1    0    0    0    0 +0.0000000000e+00 +0.0000000000e+00 +4.5593999997e+01 4.5594000000e+01 5.1100000000e-04 0.0000e+00 -1.0000e+00
       11 -1    0    0    0    0 -0.0000000000e+00 -0.0000000000e+00 -4.5593999997e+01 4.5594000000e+01 5.1100000000e-04 0.0000e+00 1.0000e+00
       23  2    1    2    0    0 +0.0000000000e+00 +0.0000000000e+00 +0.0000000000e+00 9.1188000000e+01 9.1188000000e+01 7.8379e-14 0.0000e+00
  9900012  1    3    3    0    0 +1.8191935833e+01 -1.8194828943e+01 +1.8834071144e+01 5.9301944028e+01 5.0000000000e+01 2.1964e-05 1.0000e+00
      -12  1    3    3    0    0 -1.8191935833e+01 +1.8194828943e+01 -1.8834071144e+01 3.1886055972e+01 0.0000000000e+00 0.0000e+00 1.0000e+00
</event>
<event>
 5      1 +1.7896800e-02 9.11880000e+01 7.81616400e-03 1.18400000e-01
      -11 -1    0    0    0    0 +0.0000000000e+00 +0.0000000000e+00 +4.5593999997e+01 4.5594000000e+01 5.1100000000e-04 0.0000e+00 -1.0000e+00
       11 -1    0    0    0    0 -0.0000000000e+00 -0.0000000000e+00 -4.5593999997e+01 4.5594000000e+01 5.1100000000e-04 0.0000e+00 1.0000e+00
       23  2    1    2    0    0 +0.0000000000e+00 +0.0000000000e+00 +0.0000000000e+00 9.1188000000e+01 9.1188000000e+01 8.7992e-14 0.0000e+00
  9900012  1    3    3    0    0 -1.1216283227e+01 +1.3870181086e+01 +2.6429786845e+01 5.9301944028e+01 5.0000000000e+01 4.5115e-04 -1.0000e+00
       12  1    3    3    0    0 +1.1216283227e+01 -1.3870181086e+01 -2.6429786845e+01 3.1886055972e+01 0.0000000000e+00 0.0000e+00 -1.0000e+00
</event>
<event>
 5      7 +1.7896800e-02 9.11880000e+01 7.81616400e-03 1.18400000e-01
      -11 -1    0    0    0    0 +0.0000000000e+00 +0.0000000000e+00 +4.5593999997e+01 4.5594000000e+01 5.1100000000e-04 0.0000e+00 -1.0000e+00
       11 -1    0    0    0    0 -0.0000000000e+00 -0.0000000000e+00 -4.5593999997e+01 4.5594000000e+01 5.1100000000e-04 0.0000e+00 1.0000e+00
       23  2    1    2    0    0 +0.0000000000e+00 +0.0000000000e+00 +0.0000000000e+00 9.1188000000e+01 9.1188000000e+01 1.6050e-14 0.0000e+00
  9900012  1    3    3    0    0 -2.0625707118e+01 -3.2855134970e+00 -2.4093695699e+01 5.9301944028e+01 5.0000000000e+01 3.0302e-04 1.0000e+00
       12  1    3    3    0    0 +2.0625707118e+01 +3.2855134970e+00 +2.4093695699e+01 3.1886055972e+01 0.0000000000e+00 0.0000e+00 -1.0000e+00
</event>
<event>
 5      2 +1.7896800e-02 9.11880000e+01 7.81616400e-03 1.18400000e-01
      -11 -1    0    0    0    0 +0.0000000000e+00 +0.0000000000e+00 +4.5593999997e+01 4.5594000000e+01 5.1100000000e-04 0.0000e+00 1.0000e+00
       11 -1    0    0    0    0 -0.0000000000e+00 -0.0000000000e+00 -4.5593999997e+01 4.5594000000e+01 5.1100000000e-04 0.0000e+00 -1.0000e+00
       23  2    1    2    0    0 +0.0000000000e+00 +0.0000000000e+00 +0.0000000000e+00 9.1188000000e+01 9.1188000000e+01 8.4266e-14 0.0000e+00
  9900012  1    3    3    0    0 -3.0763021333e+01 +5.8647919349e+00 -5.9967740920e+00 5.9301944028e+01 5.0000000000e+01 1.2204e-03 -1.0000e+00
      -12  1    3    3    0    0 +3.0763021333e+01 -5.8647919349e+00 +5.9967740920e+00 3.1886055972e+01 0.0000000000e+00 0.0000e+00 1.0000e+00
</event>
<event>
 5      4 +1.7896800e-02 9.11880000e+01 7.81616400e-03 1.18400000e-01
      -11 -1    0    0    0    0 +0.0000000000e+00 +0.0000000000e+00 +4.5593999997e+01 4.5594000000e+01 5.1100000000e-04 0.0000e+00 1.0000e+00
       11 -1    0    0    0    0 -0.0000000000e+00 -0.0000000000e+00 -4.5593999997e+01 4.5594000000e+01 5.1100000000e-04 0.0000e+00 -1.0000e+00
       23  2    1    2    0    0 +0.0000000000e+00 +0.0000000000e+00 +0.0000000000e+00 9.1188000000e+01 9.1188000000e+01 2.5664e-13 0.0000e+00
  9900012  1    3    3    0    0 +2.0067134070e+01 -8.6460503374e+00 -2.3222327818e+01 5.9301944028e+01 5.0000000000e+01 1.5510e-03 -1.0000e+00
      -12  1    3    3    0    0 -2.0067134070e+01 +8.6460503374e+00 +2.3222327818e+01 3.1886055972e+01 0.0000000000e+00 0.0000e+00 1.0000e+00
</event>
<event>
 5      2 +1.7896800e-02 9.11880000e+01 7.81616400e-03 1.18400000e-01
      -11 -1    0    0    0    0 +0.0000000000e+00 +0.0000000000e+00 +4.5593999997e+01 4.5594000000e+01 5.1100000000e-04 0.0000e+00 1.0000e+00
       11 -1    0    0    0    0 -0.0000000000e+00 -0.0000000000e+00 -4.5593999997e+01 4.5594000000e+01 5.1100000000e-04 0.0000e+00 -1.0000e+00
       23  2    1    2    0    0 +0.0000000000e+00 +0.0000000000e+00 +0.0000000000e+00 9.1188000000e+01 9.1188000000e+01 1.9391e-13 0.0000e+00
  9900012  1    3    3    0    0 +2.3315494184e+01 -1.5574179969e+01 -1.5183978883e+01 5.9301944028e+01 5.0000000000e+01 9.5672e-04 -1.0000e+00
      -12  1    3    3    0    0 -2.3315494184e+01 +1.5574179969e+01 +1.5183978883e+01 3.1886055972e+01 0.0000000000e+00 0.0000e+00 1.0000e+00
</event>
<event>
 5      1 +1.7896800e-02 9.11880000e+01 7.81616400e-03 1.18400000e-01
      -11 -1    0    0    0    0 +0.0000000000e+00 +0.0000000000e+00 +4.5593999997e+01 4.5594000000e+01 5.1100000000e-04 0.0000e+00 1.0000e+00
       11 -1    0    0    0    0 -0.0000000000e+00 -0.0000000000e+00 -4.5593999997e+01 4.5594000000e+01 5.1100000000e-04 0.0000e+00 -1.0000e+00
       23  2    1    2    0    0 +0.0000000000e+00 +0.0000000000e+00 +0.0000000000e+00 9.1188000000e+01 9.1188000000e+01 7.3679e-14 0.0000e+00
  9900012  1    3    3    0    0 +7.4560277048e-01 -3.1502148329e+01 +4.8764016086e+00 5.9301944028e+01 5.0000000000e+01 1.4035e-03 1.0000e+00
       12  1    3    3    0    0 -7.4560277048e-01 +3.1502148329e+01 -4.8764016086e+00 3.1886055972e+01 0.0000000000e+00 0.0000e+00 -1.0000e+00
</event>
<event>
 5      2 +1.7896800e-02 9.11880000e+01 7.81616400e-03 1.18400000e-01
      -11 -1    0    0    0    0 +0.0000000000e+00 +0.0000000000e+00 +4.5593999997e+01 4.5594000000e+01 5.1100000000e-04 0.0000e+00 -1.0000e+00
       11 -1    0    0    0    0 -0.0000000000e+00 -0.0000000000e+00 -4.5593999997e+01 4.5594000000e+01 5.1100000000e-04 0.0000e+00 1.0000e+00
       23  2    1    2    0    0 +0.0000000000e+00 +0.0000000000e+00 +0.0000000000e+00 9.1188000000e+01 9.1188000000e+01 8.0656e-14 0.0000e+00
  9900012  1    3    3    0    0 +1.5601879382e+01 +9.0620970628e+00 +2.6290308519e+01 5.9301944028e+01 5.0000000000e+01 3.3693e-04 -1.0000e+00
      -12  1    3    3    0    0 -1.5601879382e+01 -9.0620970628e+00 -2.6290308519e+01 3.1886055972e+01 0.0000000000e+00 0.0000e+00 1.0000e+00
</event>
<event>
 5      1 +1.7896800e-02 9.11880000e+01 7.81616400e-03 1.18400000e-01
      -11 -1    0    0    0    0 +0.0000000000e+00 +0.0000000000e+00 +4.5593999997e+01 4.5594000000e+01 5.1100000000e-04 0.0000e+00 1.0000e+00
       11 -1    0    0    0    0 -0.0000000000e+00 -0.0000000000e+00 -4.5593999997e+01 4.5594000000e+01 5.1100000000e-04 0.0000e+00 -1.0000e+00
       23  2    1    2    0    0 +0.0000000000e+00 +0.0000000000e+00 +0.0000000000e+00 9.1188000000e+01 9.1188000000e+01 6.5072e-14 0.0000e+00
  9900012  1    3    3    0    0 -2.4441965858e+01 -7.0064026329e+00 +1.9241132831e+01 5.9301944028e+01 5.0000000000e+01 2.0177e-03 1.0000e+00
       12  1    3    3    0    0 +2.4441965858e+01 +7.0064026329e+00 -1.9241132831e+01 3.1886055972e+01 0.0000000000e+00 0.0000e+00 -1.0000e+00
</event>
<event>
 5      5 +1.7896800e-02 9.11880000e+01 7.81616400e-03 1.18400000e-01
      -11 -1    0    0    0    0 +0.0000000000e+00 +0.0000000000e+00 +4.5593999997e+01 4.5594000000e+01 5.1100000000e-04 0.0000e+00 1.0000e+00
       11 -1    0    0    0    0 -0.0000000000e+00 -0.0000000000e+00 -4.5593999997e+01 4.5594000000e+01 5.1100000000e-04 0.0000e+00 -1.0000e+00
       23  2    1    2    0    0 +0.0000000000e+00 +0.0000000000e+00 +0.0000000000e+00 9.1188000000e+01 9.1188000000e+01 7.6392e-14 0.0000e+00
  9900012  1    3    3    0    0 -5.6347742241e+00 +1.4503621045e+01 +2.7831903663e+01 5.9301944028e+01 5.0000000000e+01 1.0926e-03 1.0000e+00
       12  1    3    3    0    0 +5.6347742241e+00 -1.4503621045e+01 -2.7831903663e+01 3.1886055972e+01 0.0000000000e+00 0.0000e+00 -1.0000e+00
</event>
<event>
 5      7 +1.7896800e-02 9.11880000e+01 7.81616400e-03 1.18400000e-01
      -11 -1    0    0    0    0 +0.0000000000e+00 +0.0000000000e+00 +4.5593999997e+01 4.5594000000e+01 5.1100000000e-04 0.0000e+00 1.0000e+00
       11 -1    0    0    0    0 -0.0000000000e+00 -0.0000000000e+00 -4.5593999997e+01 4.5594000000e+01 5.1100000000e-04 0.0000e+00 -1.0000e+00
       23  2    1    2    0    0 +0.0000000000e+00 +0.0000000000e+00 +0.0000000000e+00 9.1188000000e+01 9.1188000000e+01 5.2183e-14 0.0000e+00
  9900012  1    3    3    0    0 -3.1048041414e+00 +2.8967367860e+01 +1.2960414961e+01 5.9301944028e+01 5.0000000000e+01 6.1986e-04 1.0000e+00
       12  1    3    3    0    0 +3.1048041414e+00 -2.8967367860e+01 -1.2960414961e+01 3.1886055972e+01 0.0000000000e+00 0.0000e+00 -1.0000e+00
</event>
<event>
 5      5 +1.7896800e-02 9.11880000e+01 7.81616400e-03 1.18400000e-01
      -11 -1    0    0    0    0 +0.0000000000e+00 +0.0000000000e+00 +4.5593999997e+01 4.5594000000e+01 5.1100000000e-04 0.0000e+00 1.0000e+00
       11 -1    0    0    0    0 -0.0000000000e+00 -0.0000000000e+00 -4.5593999997e+01 4.5594000000e+01 5.1100000000e-04 0.0000e+00 -1.0000e+00
       23  2    1    2    0    0 +0.0000000000e+00 +0.0000000000e+00 +0.0000000000e+00 9.1188000000e+01 9.1188000000e+01 1.8129e-13 0.0000e+00
  9900012  1    3    3    0    0 -1.2836829942e+01 -2.5705829805e+01 +1.3825580514e+01 5.9301944028e+01 5.0000000000e+01 6.3650e-05 1.0000e+00
       12  1    3    3    0    0 +1.2836829942e+01 +2.5705829805e+01 -1.3825580514e+01 3.1886055972e+01 0.0000000000e+00 0.0000e+00 -1.0000e+00
</event>
<event>
 5      5 +1.7896800e-02 9.11880000e+01 7.81616400e-03 1.18400000e-01
      -11 -1    0    0    0    0 +0.0000000000e+00 +0.0000000000e+00 +4.5593999997e+01 4.5594000000e+01 5.1100000000e-04 0.0000e+00 1.0000e+00
       11 -1    0    0    0    0 -0.0000000000e+00 -0.0000000000e+00 -4.5593999997e+01 4.5594000000e+01 5.1100000000e-04 0.0000e+00 -1.0000e+00
       23  2    1    2    0    0 +0.0000000000e+00 +0.0000000000e+00 +0.0000000000e+00 9.1188000000e+01 9.1188000000e+01 1.2606e-13 0.0000e+00
  9900012  1    3    3    0    0 +1.8224458810e+01 -2.5614526361e+01 +5.3372001850e+00 5.9301944028e+01 5.0000000000e+01 2.8379e-04 1.0000e+00
       12  1    3    3    0    0 -1.8224458810e+01 +2.5614526361e+01 -5.3372001850e+00 3.1886055972e+01 0.0000000000e+00 0.0000e+00 -1.0000e+00
</event>
<event>
 5      2 +1.7896800e-02 9.11880000e+01 7.81616400e-03 1.18400000e-01
      -11 -1    0    0    0    0 +0.0000000000e+00 +0.0000000000e+00 +4.5593999997e+01 4.5594000000e+01 5.1100000000e-04 0.0000e+00 -1.0000e+00
       11 -1    0    0    0    0 -0.0000000000e+00 -0.0000000000e+00 -4.5593999997e+01 4.5594000000e+01 5.1100000000e-04 0.0000e+00 1.0000e+00
       23  2    1    2    0    0 +0.0000000000e+00 +0.0000000000e+00 +0.0000000000e+00 9.1188000000e+01 9.1188000000e+01 4.6650e-15 0.0000e+00
  9900012  1    3    3    0    0 -6.3321476188e+00 -2.0434115164e+01 +2.3644690936e+01 5.9301944028e+01 5.0000000000e+01 1.8895e-03 -1.0000e+00
      -12  1    3    3    0    0 +6.3321476188e+00 +2.0434115164e+01 -2.3644690936e+01 3.1886055972e+01 0.0000000000e+00 0.0000e+00 1.0000e+00
</event>
<event>
 5      5 +1.7896800e-02 9.11880000e+01 7.81616400e-03 1.18400000e-01
      -11 -1    0    0    0    0 +0.0000000000e+00 +0.0000000000e+00 +4.5593999997e+01 4.5594000000e+01 5.1100000000e-04 0.0000e+00 -1.0000e+00
       11 -1    0    0    0    0 -0.0000000000e+00 -0.0000000000e+00 -4.5593999997e+01 4.5594000000e+01 5.1100000000e-04 0.0000e+00 1.0000e+00
       23  2    1    2    0    0 +0.0000000000e+00 +0.0000000000e+00 +0.0000000000e+00 9.1188000000e+01 9.1188000000e+01 2.8278e-14 0.0000e+00
  9900012  1    3    3    0    0 -3.1582476184e+01 -2.3331190602e+00 -3.7181069139e+00 5.9301944028e+01 5.0000000000e+01 7.4463e-04 1.0000e+00
       12  1    3    3    0    0 +3.1582476184e+01 +2.3331190602e+00 +3.7181069139e+00 3.1886055972e+01 0.0000000000e+00 0.0000e+00 -1.0000e+00
</event>
<event>
 5      4 +1.7896800e-02 9.11880000e+01 7.81616400e-03 1.18400000e-01
      -11 -1    0    0    0    0 +0.0000000000e+00 +0.0000000000e+00 +4.5593999997e+01 4.5594000000e+01 5.1100000000e-04 0.0000e+00 1.0000e+00
       11 -1    0    0    0    0 -0.0000000000e+00 -0.0000000000e+00 -4.5593999997e+01 4.5594000000e+01 5.1100000000e-04 0.0000e+00 -1.0000e+00
       23  2    1    2    0    0 +0.0000000000e+00 +0.0000000000e+00 +0.0000000000e+00 9.1188000000e+01 9.1188000000e+01 9.4303e-14 0.0000e+00
  9900012  1    3    3    0    0 -1.2438385338e+01 +2.9058674737e+01 +4.1953019195e+00 5.9301944028e+01 5.0000000000e+01 1.0846e-04 -1.0000e+00
      -12  1    3    3    0    0 +1.2438385338e+01 -2.9058674737e+01 -4.1953019195e+00 3.1886055972e+01 0.0000000000e+00 0.0000e+00 1.0000e+00
</event>
<event>
 5      2 +1.7896800e-02 9.11880000e+01 7.81616400e-03 1.18400000e-01
      -11 -1    0    0    0    0 +0.0000000000e+00 +0.0000000000e+00 +4.5593999997e+01 4.5594000000e+01 5.1100000000e-04 0.0000e+00 -1.0000e+00
       11 -1    0    0    0    0 -0.0000000000e+00 -0.0000000000e+00 -4.5593999997e+01 4.5594000000e+01 5.1100000000e-04 0.0000e+00 1.0000e+00
       23  2    1    2    0    0 +0.0000000000e+00 +0.0000000000e+00 +0.0000000000e+00 9.1188000000e+01 9.1188000000e+01 2.2245e-15 0.0000e+00
  9900012  1    3    3    0    0 +2.8757198124e+01 -6.3163028652e+00 +1.2241259725e+01 5.9301944028e+01 5.0000000000e+01 2.9129e-04 1.0000e+00
      -12  1    3    3    0    0 -2.8757198124e+01 +6.3163028652e+00 -1.2241259725e+01 3.1886055972e+01 0.0000000000e+00 0.0000e+00 1.0000e+00
</event>
<event>
 5      2 +1.7896800e-02 9.11880000e+01 7.81616400e-03 1.18400000e-01
      -11 -1    0    0    0    0 +0.0000000000e+00 +0.0000000000e+00 +4.5593999997e+01 4.5594000000e+01 5.1100000000e-04 0.0000e+00 1.0000e+00
       11 -1    0    0    0    0 -0.0000000000e+00 -0.0000000000e+00 -4.5593999997e+01 4.5594000000e+01 5.1100000000e-04 0.0000e+00 -1.0000e+00
       23  2    1    2    0    0 +0.0000000000e+00 +0.0000000000e+00 +0.0000000000e+00 9.1188000000e+01 9.1188000000e+01 7.0877e-14 0.0000e+00
  9900012  1    3    3    0    0 -2.6502733133e+01 -1.5838506364e+01 -7.9666440948e+00 5.9301944028e+01 5.0000000000e+01 2.5019e-04 -1.0000e+00
      -12  1    3    3    0    0 +2.6502733133e+01 +1.5838506364e+01 +7.9666440948e+00 3.1886055972e+01 0.0000000000e+00 0.0000e+00 1.0000e+00
</event>
<event>
 5      4 +1.7896800e-02 9.11880000e+01 7.81616400e-03 1.18400000e-01
      -11 -1    0    0    0    0 +0.0000000000e+00 +0.0000000000e+00 +4.5593999997e+01 4.5594000000e+01 5.1100000000e-04 0.0000e+00 -1.0000e+00
       11 -1    0    0    0    0 -0.0000000000e+00 -0.0000000000e+00 -4.5593999997e+01 4.5594000000e+01 5.1100000000e-04 0.0000e+00 1.0000e+00
       23  2    1    2    0    0 +0.0000000000e+00 +0.0000000000e+00 +0.0000000000e+00 9.1188000000e+01 9.1188000000e+01 3.5052e-15 0.0000e+00
  9900012  1    3    3    0    0 -2.5323243259e+01 +1.9264410015e+01 -2.0824080024e+00 5.9301944028e+01 5.0000000000e+01 6.6143e-04 -1.0000e+00
      -12  1    3    3    0    0 +2.5323243259e+01 -1.9264410015e+01 +2.0824080024e+00 3.1886055972e+01 0.0000000000e+00 0.0000e+00 1.0000e+00
</event>
<event>
 5      6 +1.7896800e-02 9.11880000e+01 7.81616400e-03 1.18400000e-01
      -11 -1    0    0    0    0 +0.0000000000e+00 +0.0000000000e+00 +4.5593999997e+01 4.5594000000e+01 5.1100000000e-04 0.0000e+00 -1.0000e+00
       11 -1    0    0    0    0 -0.0000000000e+00 -0.0000000000e+00 -4.5593999997e+01 4.5594000000e+01 5.1100000000e-04 0.0000e+00 1.0000e+00
       23  2    1    2    0    0 +0.0000000000e+00 +0.0000000000e+00 +0.0000000000e+00 9.1188000000e+01 9.1188000000e+01 6.3953e-14 0.0000e+00
  9900012  1    3    3    0    0 -1.7231496420e+01 +2.6828961705e+01 +5.3948400732e-02 5.9301944028e+01 5.0000000000e+01 1.5578e-03 1.0000e+00
      -12  1    3    3    0    0 +1.7231496420e+01 -2.6828961705e+01 -5.3948400732e-02 3.1886055972e+01 0.0000000000e+00 0.0000e+00 1.0000e+00
</event>
<event>
 5      3 +1.7896800e-02 9.11880000e+01 7.81616400e-03 1.18400000e-01
      -11 -1    0    0    0    0 +0.0000000000e+00 +0.0000000000e+00 +4.5593999997e+01 4.5594000000e+01 5.1100000000e-04 0.0000e+00 1.0000e+00
       11 -1    0    0    0    0 -0.0000000000e+00 -0.0000000000e+00 -4.5593999997e+01 4.5594000000e+01 5.1100000000e-04 0.0000e+00 -1.0000e+00
       23  2    1    2    0    0 +0.0000000000e+00 +0.0000000000e+00 +0.0000000000e+00 9.1188000000e+01 9.1188000000e+01 3.8344e-14 0.0000e+00
  9900012  1    3    3    0    0 +2.6291023503e+01 +1.7995669388e+01 +1.2878400112e+00 5.9301944028e+01 5.0000000000e+01 5.7948e-04 1.0000e+00
       12  1    3    3    0    0 -2.6291023503e+01 -1.7995669388e+01 -1.2878400112e+00 3.1886055972e+01 0.0000000000e+00 0.0000e+00 -1.0000e+00
</event>
<event>
 5      7 +1.7896800e-02 9.11880000e+01 7.81616400e-03 1.18400000e-01
      -11 -1    0    0    0    0 +0.0000000000e+00 +0.0000000000e+00 +4.5593999997e+01 4.5594000000e+01 5.1100000000e-04 0.0000e+00 -1.0000e+00
       11 -1    0    0    0    0 -0.0000000000e+00 -0.0000000000e+00 -4.5593999997e+01 4.5594000000e+01 5.1100000000e-04 0.0000e+00 1.0000e+00
       23  2    1    2    0    0 +0.0000000000e+00 +0.0000000000e+00 +0.0000000000e+00 9.1188000000e+01 9.1188000000e+01 6.7116e-14 0.0000e+00
  9900012  1    3    3    0    0 +3.8560327356e+00 -4.0105805292e+00 -3.1396923748e+01 5.9301944028e+01 5.0000000000e+01 1.3782e-04 1.0000e+00
       12  1    3    3    0    0 -3.8560327356e+00 +4.0105805292e+00 +3.1396923748e+01 3.1886055972e+01 0.0000000000e+00 0.0000e+00 -1.0000e+00
</event>
<event>
 5      1 +1.7896800e-02 9.11880000e+01 7.81616400e-03 1.18400000e-01
      -11 -1    0    0    0    0 +0.0000000000e+00 +0.0000000000e+00 +4.5593999997e+01 4.5594000000e+01 5.1100000000e-04 0.0000e+00 -1.0000e+00
       11 -1    0    0    0    0 -0.0000000000e+00 -0.0000000000e+00 -4.5593999997e+01 4.5594000000e+01 5.1100000000e-04 0.0000e+00 1.0000e+00
       23  2    1    2    0    0 +0.0000000000e+00 +0.0000000000e+00 +0.0000000000e+00 9.1188000000e+01 9.1188000000e+01 6.3840e-14 0.0000e+00
  9900012  1    3    3    0    0 +7.9534352702e-01 +3.1210767860e+01 +6.4788859924e+00 5.9301944028e+01 5.0000000000e+01 1.0955e-03 -1.0000e+00
       12  1    3    3    0    0 -7.9534352702e-01 -3.1210767860e+01 -6.4788859924e+00 3.1886055972e+01 0.0000000000e+00 0.0000e+00 -1.0000e+00
</event>
<event>
 5      1 +1.7896800e-02 9.11880000e+01 7.81616400e-03 1.18400000e-01
      -11 -1    0    0    0    0 +0.0000000000e+00 +0.0000000000e+00 +4.5593999997e+01 4.5594000000e+01 5.1100000000e-04 0.0000e+00 1.0000e+00
       11 -1    0    0    0    0 -0.0000000000e+00 -0.0000000000e+00 -4.5593999997e+01 4.5594000000e+01 5.1100000000e-04 0.0000e+00 -1.0000e+00
       23  2    1    2    0    0 +0.0000000000e+00 +0.0000000000e+00 +0.0000000000e+00 9.1188000000e+01 9.1188000000e+01 2.2070e-14 0.0000e+00
  9900012  1    3    3    0    0 +1.2345218703e+01 +2.8888095584e+01 -5.4583948344e+00 5.9301944028e+01 5.0000000000e+01 1.1550e-04 1.0000e+00
       12  1    3    3    0    0 -1.2345218703e+01 -2.8888095584e+01 +5.4583948344e+00 3.1886055972e+01 0.0000000000e+00 0.0000e+00 -1.0000e+00
</event>
<event>
 5      4 +1.7896800e-02 9.11880000e+01 7.81616400e-03 1.18400000e-01
      -11 -1    0    0    0    0 +0.0000000000e+00 +0.0000000000e+00 +4.5593999997e+01 4.5594000000e+01 5.1100000000e-04 0.0000e+00 -1.0000e+00
       11 -1    0    0    0    0 -0.0000000000e+00 -0.0000000000e+00 -4.5593999997e+01 4.5594000000e+01 5.1100000000e-04 0.0000e+00 1.0000e+00
       23  2    1    2    0    0 +0.0000000000e+00 +0.0000000000e+00 +0.0000000000e+00 9.1188000000e+01 9.1188000000e+01 1.0343e-13 0.0000e+00
  9900012  1    3    3    0    0 -2.1111287993e+00 +1.0712146538e+01 +2.9958531626e+01 5.9301944028e+01 5.0000000000e+01 2.4556e-05 -1.0000e+00
      -12  1    3    3    0    0 +2.1111287993e+00 -1.0712146538e+01 -2.9958531626e+01 3.1886055972e+01 0.0000000000e+00 0.0000e+00 1.0000e+00
</event>
<event>
 5      8 +1.7896800e-02 9.11880000e+01 7.81616400e-03 1.18400000e-01
      -11 -1    0    0    0    0 +0.0000000000e+00 +0.0000000000e+00 +4.5593999997e+01 4.5594000000e+01 5.1100000000e-04 0.0000e+00 -1.0000e+00
       11 -1    0    0    0    0 -0.0000000000e+00 -0.0000000000e+00 -4.5593999997e+01 4.5594000000e+01 5.1100000000e-04 0.0000e+00 1.0000e+00
       23  2    1    2    0    0 +0.0000000000e+00 +0.0000000000e+00 +0.0000000000e+00 9.1188000000e+01 9.1188000000e+01 2.4683e-14 0.0000e+00
  9900012  1    3    3    0    0 -1.8740145131e+01 -1.6799347797e+01 +1.9578290006e+01 5.9301944028e+01 5.0000000000e+01 6.8181e-04 -1.0000e+00
      -12  1    3    3    0    0 +1.8740145131e+01 +1.6799347797e+01 -1.9578290006e+01 3.1886055972e+01 0.0000000000e+00 0.0000e+00 1.0000e+00
</event>
<event>
 5      1 +1.7896800e-02 9.11880000e+01 7.81616400e-03 1.18400000e-01
      -11 -1    0    0    0    0 +0.0000000000e+00 +0.0000000000e+00 +4.5593999997e+01 4.5594000000e+01 5.1100000000e-04 0.0000e+00 1.0000e+00
       11 -1    0    0    0    0 -0.0000000000e+00 -0.0000000000e+00 -4.5593999997e+01 4.5594000000e+01 5.1100000000e-04 0.0000e+00 -1.0000e+00
       23  2    1    2    0    0 +0.0000000000e+00 +0.0000000000e+00 +0.0000000000e+00 9.1188000000e+01 9.1188000000e+01 2.4348e-14 0.0000e+00
  9900012  1    3    3    0    0 +7.3421035672e+00 -1.7724611352e+01 +2.5468651968e+01 5.9301944028e+01 5.0000000000e+01 1.2151e-03 1.0000e+00
       12  1    3    3    0    0 -7.3421035672e+00 +1.7724611352e+01 -2.5468651968e+01 3.1886055972e+01 0.0000000000e+00 0.0000e+00 -1.0000e+00
</event>
<event>
 5      4 +1.7896800e-02 9.11880000e+01 7.81616400e-03 1.18400000e-01
      -11 -1    0    0    0    0 +0.0000000000e+00 +0.0000000000e+00 +4.5593999997e+01 4.5594000000e+01 5.1100000000e-04 0.0000e+00 -1.0000e+00
       11 -1    0    0    0    0 -0.0000000000e+00 -0.0000000000e+00 -4.5593999997e+01 4.5594000000e+01 5.1100000000e-04 0.0000e+00 1.0000e+00
       23  2    1    2    0    0 +0.0000000000e+00 +0.0000000000e+00 +0.0000000000e+00 9.1188000000e+01 9.1188000000e+01 7.9932e-14 0.0000e+00
  9900012  1    3    3    0    0 +1.1749620755e+01 -1.5243911340e+01 +2.5422237208e+01 5.9301944028e+01 5.0000000000e+01 2.4916e-05 -1.0000e+00
      -12  1    3    3    0    0 -1.1749620755e+01 +1.5243911340e+01 -2.5422237208e+01 3.1886055972e+01 0.0000000000e+00 0.0000e+00 1.0000e+00
</event>
<event>
 5      5 +1.7896800e-02 9.11880000e+01 7.81616400e-03 1.18400000e-01
      -11 -1    0    0    0    0 +0.0000000000e+00 +0.0000000000e+00 +4.5593999997e+01 4.5594000000e+01 5.1100000000e-04 0.0000e+00 -1.0000e+00
       11 -1    0    0    0    0 -0.0000000000e+00 -0.0000000000e+00 -4.5593999997e+01 4.5594000000e+01 5.1100000000e-04 0.0000e+00 1.0000e+00
       23  2    1    2    0    0 +0.0000000000e+00 +0.0000000000e+00 +0.0000000000e+00 9.1188000000e+01 9.1188000000e+01 1.3324e-13 0.0000e+00
  9900012  1    3    3    0    0 -1.4656116103e+01 -1.2387744530e+01 -2.5464929054e+01 5.9301944028e+01 5.0000000000e+01 2.1083e-04 1.0000e+00
       12  1    3    3    0    0 +1.4656116103e+01 +1.2387744530e+01 +2.5464929054e+01 3.1886055972e+01 0.0000000000e+00 0.0000e+00 -1.0000e+00
</event>
<event>
 5      4 +1.7896800e-02 9.11880000e+01 7.81616400e-03 1.18400000e-01
      -11 -1    0    0    0    0 +0.0000000000e+00 +0.0000000000e+00 +4.5593999997e+01 4.5594000000e+01 5.1100000000e-04 0.0000e+00 1.0000e+00
       11 -1    0    0    0    0 -0.0000000000e+00 -0.0000000000e+00 -4.5593999997e+01 4.5594000000e+01 5.1100000000e-04 0.0000e+00 -1.0000e+00
       23  2    1    2    0    0 +0.0000000000e+00 +0.0000000000e+00 +0.0000000000e+00 9.1188000000e+01 9.1188000000e+01 8.7242e-14 0.0000e+00
  9900012  1    3    3    0    0 +2.1009431575e+01 +4.2665427970e+00 -2.3603409985e+01 5.9301944028e+01 5.0000000000e+01 4.0694e-04 -1.0000e+00
      -12  1    3    3    0    0 -2.1009431575e+01 -4.2665427970e+00 +2.3603409985e+01 3.1886055972e+01 0.0000000000e+00 0.0000e+00 1.0000e+00
</event>
<event>
 5      1 +1.7896800e-02 9.11880000e+01 7.81616400e-03 1.18400000e-01
      -11 -1    0    0    0    0 +0.0000000000e+00 +0.0000000000e+00 +4.5593999997e+01 4.5594000000e+01 5.1100000000e-04 0.0000e+00 1.0000e+00
       11 -1    0    0    0    0 -0.0000000000e+00 -0.0000000000e+00 -4.5593999997e+01 4.5594000000e+01 5.1100000000e-04 0.0000e+00 -1.0000e+00
       23  2    1    2    0    0 +0.0000000000e+00 +0.0000000000e+00 +0.0000000000e+00 9.1188000000e+01 9.1188000000e+01 6.0072e-14 0.0000e+00
  9900012  1    3    3    0    0 +5.7872323140e+00 +2.0556629152e+00 +3.1289019761e+01 5.9301944028e+01 5.0000000000e+01 1.0836e-03 1.0000e+00
       12  1    3    3    0    0 -5.7872323140e+00 -2.0556629152e+00 -3.1289019761e+01 3.1886055972e+01 0.0000000000e+00 0.0000e+00 -1.0000e+00
</event>
<event>
 5      3 +1.7896800e-02 9.11880000e+01 7.81616400e-03 1.18400000e-01
      -11 -1    0    0    0    0 +0.0000000000e+00 +0.0000000000e+00 +4.5593999997e+01 4.5594000000e+01 5.1100000000e-04 0.0000e+00 1.0000e+00
       11 -1    0    0    0    0 -0.0000000000e+00 -0.0000000000e+00 -4.5593999997e+01 4.5594000000e+01 5.1100000000e-04 0.0000e+00 -1.0000e+00
       23  2    1    2    0    0 +0.0000000000e+00 +0.0000000000e+00 +0.0000000000e+00 9.1188000000e+01 9.1188000000e+01 4.3207e-14 0.0000e+00
  9900012  1    3    3    0    0 +1.3544542116e+01 -2.3940983149e+01 +1.6127469430e+01 5.9301944028e+01 5.0000000000e+01 1.1819e-05 1.0000e+00
       12  1    3    3    0    0 -1.3544542116e+01 +2.3940983149e+01 -1.6127469430e+01 3.1886055972e+01 0.0000000000e+00 0.0000e+00 -1.0000e+00
</event>
<event>
 5      3 +1.7896800e-02 9.11880000e+01 7.81616400e-03 1.18400000e-01
      -11 -1    0    0    0    0 +0.0000000000e+00 +0.0000000000e+00 +4.5593999997e+01 4.5594000000e+01 5.1100000000e-04 0.0000e+00 -1.0000e+00
       11 -1    0    0    0    0 -0.0000000000e+00 -0.0000000000e+00 -4.5593999997e+01 4.5594000000e+01 5.1100000000e-04 0.0000e+00 1.0000e+00
       23  2    1    2    0    0 +0.0000000000e+00 +0.0000000000e+00 +0.0000000000e+00 9.1188000000e+01 9.1188000000e+01 5.8933e-14 0.0000e+00
  9900012  1    3    3    0    0 -1.4226928277e+01 +2.8511940522e+01 -1.1765734006e+00 5.9301944028e+01 5.0000000000e+01 6.6206e-04 1.0000e+00
       12  1    3    3    0    0 +1.4226928277e+01 -2.8511940522e+01 +1.1765734006e+00 3.1886055972e+01 0.0000000000e+00 0.0000e+00 -1.0000e+00
</event>
<event>
 5      4 +1.7896800e-02 9.11880000e+01 7.81616400e-03 1.18400000e-01
      -11 -1    0    0    0    0 +0.0000000000e+00 +0.0000000000e+00 +4.5593999997e+01 4.5594000000e+01 5.1100000000e-04 0.0000e+00 1.0000e+00
       11 -1    0    0    0    0 -0.0000000000e+00 -0.0000000000e+00 -4.5593999997e+01 4.5594000000e+01 5.1100000000e-04 0.0000e+00 -1.0000e+00
       23  2    1    2    0    0 +0.0000000000e+00 +0.0000000000e+00 +0.0000000000e+00 9.1188000000e+01 9.1188000000e+01 4.0825e-14 0.0000e+00
  9900012  1    3    3    0    0 +3.2266169561e+00 -3.1592716793e+01 +2.8652668448e+00 5.9301944028e+01 5.0000000000e+01 1.2705e-03 1.0000e+00
      -12  1    3    3    0    0 -3.2266169561e+00 +3.1592716793e+01 -2.8652668448e+00 3.1886055972e+01 0.0000000000e+00 0.0000e+00 1.0000e+00
</event>
<event>
 5      1 +1.7896800e-02 9.11880000e+01 7.81616400e-03 1.18400000e-01
      -11 -1    0    0    0    0 +0.0000000000e+00 +0.0000000000e+00 +4.5593999997e+01 4.5594000000e+01 5.1100000000e-04 0.0000e+00 -1.0000e+00
       11 -1    0    0    0    0 -0.0000000000e+00 -0.0000000000e+00 -4.5593999997e+01 4.5594000000e+01 5.1100000000e-04 0.0000e+00 1.0000e+00
       23  2    1    2    0    0 +0.0000000000e+00 +0.0000000000e+00 +0.0000000000e+00 9.1188000000e+01 9.1188000000e+01 2.6252e-13 0.0000e+00
  9900012  1    3    3    0    0 +9.7592575554e+00 +2.1978879595e+01 -2.0938154388e+01 5.9301944028e+01 5.0000000000e+01 2.8426e-04 1.0000e+00
       12  1    3    3    0    0 -9.7592575554e+00 -2.1978879595e+01 +2.0938154388e+01 3.1886055972e+01 0.0000000000e+00 0.0000e+00 -1.0000e+00
</event>
<event>
 5      2 +1.7896800e-02 9.11880000e+01 7.81616400e-03 1.18400000e-01
      -11 -1    0    0    0    0 +0.0000000000e+00 +0.0000000000e+00 +4.5593999997e+01 4.5594000000e+01 5.1100000000e-04 0.0000e+00 -1.0000e+00
       11 -1    0    0    0    0 -0.0000000000e+00 -0.0000000000e+00 -4.5593999997e+01 4.5594000000e+01 5.1100000000e-04 0.0000e+00 1.0000e+00
       23  2    1    2    0    0 +0.0000000000e+00 +0.0000000000e+00 +0.0000000000e+00 9.1188000000e+01 9.1188000000e+01 1.0316e-14 0.0000e+00
  9900012  1    3    3    0    0 +6.9727049794e-01 -2.2346283714e+01 +2.2734950704e+01 5.9301944028e+01 5.0000000000e+01 2.8926e-04 -1.0000e+00
      -12  1    3    3    0    0 -6.9727049794e-01 +2.2346283714e+01 -2.2734950704e+01 3.1886055972e+01 0.0000000000e+00 0.0000e+00 1.0000e+00
</event>
<event>
 5      1 +1.7896800e-02 9.11880000e+01 7.81616400e-03 1.18400000e-01
      -11 -1    0    0    0    0 +0.0000000000e+00 +0.0000000000e+00 +4.5593999997e+01 4.5594000000e+01 5.1100000000e-04 0.0000e+00 1.0000e+00
       11 -1    0    0    0    0 -0.0000000000e+00 -0.0000000000e+00 -4.5593999997e+01 4.5594000000e+01 5.1100000000e-04 0.0000e+00 -1.0000e+00
       23  2    1    2    0    0 +0.0000000000e+00 +0.0000000000e+00 +0.0000000000e+00 9.1188000000e+01 9.1188000000e+01 1.5205e-14 0.0000e+00
  9900012  1    3    3    0    0 +5.2868566858e+00 +8.1041278238e+00 +3.0382442694e+01 5.9301944028e+01 5.0000000000e+01 8.5553e-04 1.0000e+00
       12  1    3    3    0    0 -5.2868566858e+00 -8.1041278238e+00 -3.0382442694e+01 3.1886055972e+01 0.0000000000e+00 0.0000e+00 -1.0000e+00
</event>
<event>
 5      6 +1.7896800e-02 9.11880000e+01 7.81616400e-03 1.18400000e-01
      -11 -1    0    0    0    0 +0.0000000000e+00 +0.0000000000e+00 +4.5593999997e+01 4.5594000000e+01 5.1100000000e-04 0.0000e+00 1.0000e+00
       11 -1    0    0    0    0 -0.0000000000e+00 -0.0000000000e+00 -4.5593999997e+01 4.5594000000e+01 5.1100000000e-04 0.0000e+00 -1.0000e+00
       23  2    1    2    0    0 +0.0000000000e+00 +0.0000000000e+00 +0.0000000000e+00 9.1188000000e+01 9.1188000000e+01 3.0583e-14 0.0000e+00
  9900012  1    3    3    0    0 -3.0560680733e+00 +1.1301820064e+01 -2.9658892033e+01 5.9301944028e+01 5.0000000000e+01 1.1063e-03 -1.0000e+00
      -12  1    3    3    0    0 +3.0560680733e+00 -1.1301820064e+01 +2.9658892033e+01 3.1886055972e+01 0.0000000000e+00 0.0000e+00 1.0000e+00
</event>
<event>
 5      5 +1.7896800e-02 9.11880000e+01 7.81616400e-03 1.18400000e-01
      -11 -1    0    0    0    0 +0.0000000000e+00 +0.0000000000e+00 +4.5593999997e+01 4.5594000000e+01 5.1100000000e-04 0.0000e+00 -1.0000e+00
       11 -1    0    0    0    0 -0.0000000000e+00 -0.0000000000e+00 -4.5593999997e+01 4.5594000000e+01 5.1100000000e-04 0.0000e+00 1.0000e+00
       23  2    1    2    0    0 +0.0000000000e+00 +0.0000000000e+00 +0.0000000000e+00 9.1188000000e+01 9.1188000000e+01 1.1610e-13 0.0000e+00
  9900012  1    3    3    0    0 -2.6461770290e+01 +1.6634461267e+01 +6.3079296874e+00 5.9301944028e+01 5.0000000000e+01 1.2369e-04 1.0000e+00
       12  1    3    3    0    0 +2.6461770290e+01 -1.6634461267e+01 -6.3079296874e+00 3.1886055972e+01 0.0000000000e+00 0.0000e+00 -1.0000e+00
</event>
<event>
 5      3 +1.7896800e-02 9.11880000e+01 7.81616400e-03 1.18400000e-01
      -11 -1    0    0    0    0 +0.0000000000e+00 +0.0000000000e+00 +4.5593999997e+01 4.5594000000e+01 5.1100000000e-04 0.0000e+00 1.0000e+00
       11 -1    0    0    0    0 -0.0000000000e+00 -0.0000000000e+00 -4.5593999997e+01 4.5594000000e+01 5.1100000000e-04 0.0000e+00 -1.0000e+00
       23  2    1    2    0    0 +0.0000000000e+00 +0.0000000000e+00 +0.0000000000e+00 9.1188000000e+01 9.1188000000e+01 9.1028e-14 0.0000e+00
  9900012  1    3    3    0    0 +2.2107521495e+01 +1.5893405309e+01 +1.6594508927e+01 5.9301944028e+01 5.0000000000e+01 1.7838e-04 1.0000e+00
       12  1    3    3    0    0 -2.2107521495e+01 -1.5893405309e+01 -1.6594508927e+01 3.1886055972e+01 0.0000000000e+00 0.0000e+00 -1.0000e+00
</event>
<event>
 5      4 +1.7896800e-02 9.11880000e+01 7.81616400e-03 1.18400000e-01
      -11 -1    0    0    0    0 +0.0000000000e+00 +0.0000000000e+00 +4.5593999997e+01 4.5594000000e+01 5.1100000000e-04 0.0000e+00 -1.0000e+00
       11 -1    0    0    0    0 -0.0000000000e+00 -0.0000000000e+00 -4.5593999997e+01 4.5594000000e+01 5.1100000000e-04 0.0000e+00 1.0000e+00
       23  2    1    2    0    0 +0.0000000000e+00 +0.0000000000e+00 +0.0000000000e+00 9.1188000000e+01 9.1188000000e+01 2.2731e-14 0.0000e+00
  9900012  1    3    3    0    0 -5.6863804079e+00 +2.8614670638e+01 +1.2868032780e+01 5.9301944028e+01 5.0000000000e+01 7.3401e-04 -1.0000e+00
      -12  1    3    3    0    0 +5.6863804079e+00 -2.8614670638e+01 -1.2868032780e+01 3.1886055972e+01 0.0000000000e+00 0.0000e+00 1.0000e+00
</event>
<event>
 5      7 +1.7896800e-02 9.11880000e+01 7.81616400e-03 1.18400000e-01
      -11 -1    0    0    0    0 +0.0000000000e+00 +0.0000000000e+00 +4.5593999997e+01 4.5594000000e+01 5.1100000000e-04 0.0000e+00 1.0000e+00
       11 -1    0    0    0    0 -0.0000000000e+00 -0.0000000000e+00 -4.5593999997e+01 4.5594000000e+01 5.1100000000e-04 0.0000e+00 -1.0000e+00
       23  2    1    2    0    0 +0.0000000000e+00 +0.0000000000e+00 +0.0000000000e+00 9.1188000000e+01 9.1188000000e+01 3.0849e-13 0.0000e+00
  9900012  1    3    3    0    0 -2.7094349291e+00 +7.8646599897e+00 +3.0781920848e+01 5.9301944028e+01 5.0000000000e+01 2.0014e-04 1.0000e+00
       12  1    3    3    0    0 +2.7094349291e+00 -7.8646599897e+00 -3.0781920848e+01 3.1886055972e+01 0.0000000000e+00 0.0000e+00 -1.0000e+00
</event>
<event>
 5      7 +1.7896800e-02 9.11880000e+01 7.81616400e-03 1.18400000e-01
      -11 -1    0    0    0    0 +0.0000000000e+00 +0.0000000000e+00 +4.5593999997e+01 4.5594000000e+01 5.1100000000e-04 0.0000e+00 -1.0000e+00
       11 -1    0    0    0    0 -0.0000000000e+00 -0.0000000000e+00 -4.5593999997e+01 4.5594000000e+01 5.1100000000e-04 0.0000e+00 1.0000e+00
       23  2    1    2    0    0 +0.0000000000e+00 +0.0000000000e+00 +0.0000000000e+00 9.1188000000e+01 9.1188000000e+01 5.9115e-14 0.0000e+00
  9900012  1    3    3    0    0 +5.6539332753e+00 +3.0001667328e+01 -9.2007370083e+00 5.9301944028e+01 5.0000000000e+01 2.2396e-03 1.0000e+00
       12  1    3    3    0    0 -5.6539332753e+00 -3.0001667328e+01 +9.2007370083e+00 3.1886055972e+01 0.0000000000e+00 0.0000e+00 -1.0000e+00
</event>
<event>
 5      6 +1.7896800e-02 9.11880000e+01 7.81616400e-03 1.18400000e-01
      -11 -1    0    0    0    0 +0.0000000000e+00 +0.0000000000e+00 +4.5593999997e+01 4.5594000000e+01 5.1100000000e-04 0.0000e+00 -1.0000e+00
       11 -1    0    0    0    0 -0.0000000000e+00 -0.0000000000e+00 -4.5593999997e+01 4.5594000000e+01 5.1100000000e-04 0.0000e+00 1.0000e+00
       23  2    1    2    0    0 +0.0000000000e+00 +0.0000000000e+00 +0.0000000000e+00 9.1188000000e+01 9.1188000000e+01 6.1841e-14 0.0000e+00
  9900012  1    3    3    0    0 +2.9550205903e+01 -8.1484425095e+00 +8.7811605864e+00 5.9301944028e+01 5.0000000000e+01 4.5086e-03 -1.0000e+00
      -12  1    3    3    0    0 -2.9550205903e+01 +8.1484425095e+00 -8.7811605864e+00 3.1886055972e+01 0.0000000000e+00 0.0000e+00 1.0000e+00
</event>
<event>
 5      5 +1.7896800e-02 9.11880000e+01 7.81616400e-03 1.18400000e-01
      -11 -1    0    0    0    0 +0.0000000000e+00 +0.0000000000e+00 +4.5593999997e+01 4.5594000000e+01 5.1100000000e-04 0.0000e+00 -1.0000e+00
       11 -1    0    0    0    0 -0.0000000000e+00 -0.0000000000e+00 -4.5593999997e+01 4.5594000000e+01 5.1100000000e-04 0.0000e+00 1.0000e+00
       23  2    1    2    0    0 +0.0000000000e+00 +0.0000000000e+00 +0.0000000000e+00 9.1188000000e+01 9.1188000000e+01 5.7951e-14 0.0000e+00
  9900012  1    3    3    0    0 +5.2029963722e+00 -3.1167451918e+01 +4.2707534662e+00 5.9301944028e+01 5.0000000000e+01 7.0783e-04 -1.0000e+00
       12  1    3    3    0    0 -5.2029963722e+00 +3.1167451918e+01 -4.2707534662e+00 3.1886055972e+01 0.0000000000e+00 0.0000e+00 -1.0000e+00
</event>
<event>
 5      3 +1.7896800e-02 9.11880000e+01 7.81616400e-03 1.18400000e-01
      -11 -1    0    0    0    0 +0.0000000000e+00 +0.0000000000e+00 +4.5593999997e+01 4.5594000000e+01 5.1100000000e-04 0.0000e+00 -1.0000e+00
       11 -1    0    0    0    0 -0.0000000000e+00 -0.0000000000e+00 -4.5593999997e+01 4.5594000000e+01 5.1100000000e-04 0.0000e+00 1.0000e+00
       23  2    1    2    0    0 +0.0000000000e+00 +0.0000000000e+00 +0.0000000000e+00 9.1188000000e+01 9.1188000000e+01 5.6715e-14 0.0000e+00
  9900012  1    3    3    0    0 +7.7067153332e+00 +2.8797110786e+01 -1.1316073287e+01 5.9301944028e+01 5.0000000000e+01 2.8986e-04 1.0000e+00
       12  1    3    3    0    0 -7.7067153332e+00 -2.8797110786e+01 +1.1316073287e+01 3.1886055972e+01 0.0000000000e+00 0.0000e+00 -1.0000e+00
</event>
<event>
 5      2 +1.7896800e-02 9.11880000e+01 7.81616400e-03 1.18400000e-01
      -11 -1    0    0    0    0 +0.0000000000e+00 +0.0000000000e+00 +4.5593999997e+01 4.5594000000e+01 5.1100000000e-04 0.0000e+00 1.0000e+00
       11 -1    0    0    0    0 -0.0000000000e+00 -0.0000000000e+00 -4.5593999997e+01 4.5594000000e+01 5.1100000000e-04 0.0000e+00 -1.0000e+00
       23  2    1    2    0    0 +0.0000000000e+00 +0.0000000000e+00 +0.0000000000e+00 9.1188000000e+01 9.1188000000e+01 2.7915e-14 0.0000e+00
  9900012  1    3    3    0    0 +5.5594359186e+00 -2.0926796147e+01 -2.3406888746e+01 5.9301944028e+01 5.0000000000e+01 1.1832e-03 -1.0000e+00
      -12  1    3    3    0    0 -5.5594359186e+00 +2.0926796147e+01 +2.3406888746e+01 3.1886055972e+01 0.0000000000e+00 0.0000e+00 1.0000e+00
</event>
<event>
 5      6 +1.7896800e-02 9.11880000e+01 7.81616400e-03 1.18400000e-01
      -11 -1    0    0    0    0 +0.0000000000e+00 +0.0000000000e+00 +4.5593999997e+01 4.5594000000e+01 5.1100000000e-04 0.0000e+00 -1.0000e+00
       11 -1    0    0    0    0 -0.0000000000e+00 -0.0000000000e+00 -4.5593999997e+01 4.5594000000e+01 5.1100000000e-04 0.0000e+00 1.0000e+00
       23  2    1    2    0    0 +0.0000000000e+00 +0.0000000000e+00 +0.0000000000e+00 9.1188000000e+01 9.1188000000e+01 2.9063e-14 0.0000e+00
  9900012  1    3    3    0    0 -2.8253548207e+01 -4.0061455331e+00 +1.4227029809e+01 5.9301944028e+01 5.0000000000e+01 1.0309e-03 -1.0000e+00
      -12  1    3    3    0    0 +2.8253548207e+01 +4.0061455331e+00 -1.4227029809e+01 3.1886055972e+01 0.0000000000e+00 0.0000e+00 1.0000e+00
</event>
<event>
 5      2 +1.7896800e-02 9.11880000e+01 7.81616400e-03 1.18400000e-01
      -11 -1    0    0    0    0 +0.0000000000e+00 +0.0000000000e+00 +4.5593999997e+01 4.5594000000e+01 5.1100000000e-04 0.0000e+00 1.0000e+00
       11 -1    0    0    0    0 -0.0000000000e+00 -0.0000000000e+00 -4.5593999997e+01 4.5594000000e+01 5.1100000000e-04 0.0000e+00 -1.0000e+00
       23  2    1    2    0    0 +0.0000000000e+00 +0.0000000000e+00 +0.0000000000e+00 9.1188000000e+01 9.1188000000e+01 8.9481e-14 0.0000e+00
  9900012  1    3    3    0    0 +4.0668453376e+00 +1.3449993676e+01 -2.8623050232e+01 5.9301944028e+01 5.0000000000e+01 3.0924e-04 -1.0000e+00
      -12  1    3    3    0    0 -4.0668453376e+00 -1.3449993676e+01 +2.8623050232e+01 3.1886055972e+01 0.0000000000e+00 0.0000e+00 1.0000e+00
</event>
<event>
 5      8 +1.7896800e-02 9.11880000e+01 7.81616400e-03 1.18400000e-01
      -11 -1    0    0    0    0 +0.0000000000e+00 +0.0000000000e+00 +4.5593999997e+01 4.5594000000e+01 5.1100000000e-04 0.0000e+00 -1.0000e+00
       11 -1    0    0    0    0 -0.0000000000e+00 -0.0000000000e+00 -4.5593999997e+01 4.5594000000e+01 5.1100000000e-04 0.0000e+00 1.0000e+00
       23  2    1    2    0    0 +0.0000000000e+00 +0.0000000000e+00 +0.0000000000e+00 9.1188000000e+01 9.1188000000e+01 8.8239e-15 0.0000e+00
  9900012  1    3    3    0    0 -2.7417839271e+00 +2.9309667500e+01 +1.2253431251e+01 5.9301944028e+01 5.0000000000e+01 4.4692e-04 -1.0000e+00
      -12  1    3    3    0    0 +2.7417839271e+00 -2.9309667500e+01 -1.2253431251e+01 3.1886055972e+01 0.0000000000e+00 0.0000e+00 1.0000e+00
</event>
<event>
 5      1 +1.7896800e-02 9.11880000e+01 7.81616400e-03 1.18400000e-01
      -11 -1    0    0    0    0 +0.0000000000e+00 +0.0000000000e+00 +4.5593999997e+01 4.5594000000e+01 5.1100000000e-04 0.0000e+00 -1.0000e+00
       11 -1    0    0    0    0 -0.0000000000e+00 -0.0000000000e+00 -4.5593999997e+01 4.5594000000e+01 5.1100000000e-04 0.0000e+00 1.0000e+00
       23  2    1    2    0    0 +0.0000000000e+00 +0.0000000000e+00 +0.0000000000e+00 9.1188000000e+01 9.1188000000e+01 6.1584e-15 0.0000e+00
  9900012  1    3    3    0    0 -4.6424990375e+00 +3.0124133168e+01 -9.3650610788e+00 5.9301944028e+01 5.0000000000e+01 4.8815e-04 1.0000e+00
       12  1    3    3    0    0 +4.6424990375e+00 -3.0124133168e+01 +9.3650610788e+00 3.1886055972e+01 0.0000000000e+00 0.0000e+00 -1.0000e+00
</event>
<event>
 5      5 +1.7896800e-02 9.11880000e+01 7.81616400e-03 1.18400000e-01
      -11 -1    0    0    0    0 +0.0000000000e+00 +0.0000000000e+00 +4.5593999997e+01 4.5594000000e+01 5.1100000000e-04 0.0000e+00 1.0000e+00
       11 -1    0    0    0    0 -0.0000000000e+00 -0.0000000000e+00 -4.5593999997e+01 4.5594000000e+01 5.1100000000e-04 0.0000e+00 -1.0000e+00
       23  2    1    2    0    0 +0.0000000000e+00 +0.0000000000e+00 +0.0000000000e+00 9.1188000000e+01 9.1188000000e+01 8.5731e-16 0.0000e+00
  9900012  1    3    3    0    0 +2.6623671081e+01 -1.4721973718e+01 +9.5479942125e+00 5.9301944028e+01 5.0000000000e+01 3.9049e-04 1.0000e+00
       12  1    3    3    0    0 -2.6623671081e+01 +1.4721973718e+01 -9.5479942125e+00 3.1886055972e+01 0.0000000000e+00 0.0000e+00 -1.0000e+00
</event>
<event>
 5      3 +1.7896800e-02 9.11880000e+01 7.81616400e-03 1.18400000e-01
      -11 -1    0    0    0    0 +0.0000000000e+00 +0.0000000000e+00 +4.5593999997e+01 4.5594000000e+01 5.1100000000e-04 0.0000e+00 1.0000e+00
       11 -1    0    0    0    0 -0.0000000000e+00 -0.0000000000e+00 -4.5593999997e+01 4.5594000000e+01 5.1100000000e-04 0.0000e+00 -1.0000e+00
       23  2    1    2    0    0 +0.0000000000e+00 +0.0000000000e+00 +0.0000000000e+00 9.1188000000e+01 9.1188000000e+01 1.9966e-14 0.0000e+00
  9900012  1    3    3    0    0 +4.8191179620e+00 -1.5187346743e+00 +3.1483171894e+01 5.9301944028e+01 5.0000000000e+01 3.9882e-04 1.0000e+00
       12  1    3    3    0    0 -4.8191179620e+00 +1.5187346743e+00 -3.1483171894e+01 3.1886055972e+01 0.0000000000e+00 0.0000e+00 -1.0000e+00
</event>
<event>
 5      3 +1.7896800e-02 9.11880000e+01 7.81616400e-03 1.18400000e-01
      -11 -1    0    0    0    0 +0.0000000000e+00 +0.0000000000e+00 +4.5593999997e+01 4.5594000000e+01 5.1100000000e-04 0.0000e+00 -1.0000e+00
       11 -1    0    0    0    0 -0.0000000000e+00 -0.0000000000e+00 -4.5593999997e+01 4.5594000000e+01 5.1100000000e-04 0.0000e+00 1.0000e+00
       23  2    1    2    0    0 +0.0000000000e+00 +0.0000000000e+00 +0.0000000000e+00 9.1188000000e+01 9.1188000000e+01 1.9826e-13 0.0000e+00
  9900012  1    3    3    0    0 +2.5132419194e+01 +1.9614139093e+01 -6.0631556330e-01 5.9301944028e+01 5.0000000000e+01 1.6773e-03 1.0000e+00
       12  1    3    3    0    0 -2.5132419194e+01 -1.9614139093e+01 +6.0631556330e-01 3.1886055972e+01 0.0000000000e+00 0.0000e+00 -1.0000e+00
</event>
<event>
 5      2 +1.7896800e-02 9.11880000e+01 7.81616400e-03 1.18400000e-01
      -11 -1    0    0    0    0 +0.0000000000e+00 +0.0000000000e+00 +4.5593999997e+01 4.5594000000e+01 5.1100000000e-04 0.0000e+00 1.0000e+00
       11 -1    0    0    0    0 -0.0000000000e+00 -0.0000000000e+00 -4.5593999997e+01 4.5594000000e+01 5.1100000000e-04 0.0000e+00 -1.0000e+00
       23  2    1    2    0    0 +0.0000000000e+00 +0.0000000000e+00 +0.0000000000e+00 9.1188000000e+01 9.1188000000e+01 4.0922e-13 0.0000e+00
  9900012  1    3    3    0    0 +3.0796699064e+00 +2.6356229452e+01 -1.7680083932e+01 5.9301944028e+01 5.0000000000e+01 1.2524e-03 -1.0000e+00
      -12  1    3    3    0    0 -3.0796699064e+00 -2.6356229452e+01 +1.7680083932e+01 3.1886055972e+01 0.0000000000e+00 0.0000e+00 1.0000e+00
</event>
<event>
 5      7 +1.7896800e-02 9.11880000e+01 7.81616400e-03 1.18400000e-01
      -11 -1    0    0    0    0 +0.0000000000e+00 +0.0000000000e+00 +4.5593999997e+01 4.5594000000e+01 5.1100000000e-04 0.0000e+00 1.0000e+00
       11 -1    0    0    0    0 -0.0000000000e+00 -0.0000000000e+00 -4.5593999997e+01 4.5594000000e+01 5.1100000000e-04 0.0000e+00 -1.0000e+00
       23  2    1    2    0    0 +0.0000000000e+00 +0.0000000000e+00 +0.0000000000e+00 9.1188000000e+01 9.1188000000e+01 8.1771e-14 0.0000e+00
  9900012  1    3    3    0    0 +1.8554706625e+01 +1.0341831722e+01 +2.3780032468e+01 5.9301944028e+01 5.0000000000e+01 2.9869e-04 1.0000e+00
       12  1    3    3    0    0 -1.8554706625e+01 -1.0341831722e+01 -2.3780032468e+01 3.1886055972e+01 0.0000000000e+00 0.0000e+00 -1.0000e+00
</event>
<event>
 5      3 +1.7896800e-02 9.11880000e+01 7.81616400e-03 1.18400000e-01
      -11 -1    0    0    0    0 +0.0000000000e+00 +0.0000000000e+00 +4.5593999997e+01 4.5594000000e+01 5.1100000000e-04 0.0000e+00 1.0000e+00
       11 -1    0    0    0    0 -0.0000000000e+00 -0.0000000000e+00 -4.5593999997e+01 4.5594000000e+01 5.1100000000e-04 0.0000e+00 -1.0000e+00
       23  2    1    2    0    0 +0.0000000000e+00 +0.0000000000e+00 +0.0000000000e+00 9.1188000000e+01 9.1188000000e+01 7.2398e-14 0.0000e+00
  9900012  1    3    3    0    0 +2.4896331841e+01 +5.7604243261e+00 -1.9071201795e+01 5.9301944028e+01 5.0000000000e+01 7.6578e-04 1.0000e+00
       12  1    3    3    0    0 -2.4896331841e+01 -5.7604243261e+00 +1.9071201795e+01 3.1886055972e+01 0.0000000000e+00 0.0000e+00 -1.0000e+00
</event>
<event>
 5      3 +1.7896800e-02 9.11880000e+01 7.81616400e-03 1.18400000e-01
      -11 -1    0    0    0    0 +0.0000000000e+00 +0.0000000000e+00 +4.5593999997e+01 4.5594000000e+01 5.1100000000e-04 0.0000e+00 1.0000e+00
       11 -1    0    0    0    0 -0.0000000000e+00 -0.0000000000e+00 -4.5593999997e+01 4.5594000000e+01 5.1100000000e-04 0.0000e+00 -1.0000e+00
       23  2    1    2    0    0 +0.0000000000e+00 +0.0000000000e+00 +0.0000000000e+00 9.1188000000e+01 9.1188000000e+01 7.1082e-14 0.0000e+00
  9900012  1    3    3    0    0 +2.7844509494e+01 +5.2583608488e+00 +1.4620311136e+01 5.9301944028e+01 5.0000000000e+01 3.9934e-04 1.0000e+00
       12  1    3    3    0    0 -2.7844509494e+01 -5.2583608488e+00 -1.4620311136e+01 3.1886055972e+01 0.0000000000e+00 0.0000e+00 -1.0000e+00
</event>
<event>
 5      6 +1.7896800e-02 9.11880000e+01 7.81616400e-03 1.18400000e-01
      -11 -1    0    0    0    0 +0.0000000000e+00 +0.0000000000e+00 +4.5593999997e+01 4.5594000000e+01 5.1100000000e-04 0.0000e+00 -1.0000e+00
       11 -1    0    0    0    0 -0.0000000000e+00 -0.0000000000e+00 -4.5593999997e+01 4.5594000000e+01 5.1100000000e-04 0.0000e+00 1.0000e+00
       23  2    1    2    0    0 +0.0000000000e+00 +0.0000000000e+00 +0.0000000000e+00 9.1188000000e+01 9.1188000000e+01 1.9097e-15 0.0000e+00
  9900012  1    3    3    0    0 +1.3724435377e+01 -1.3171788066e+01 -2.5590319228e+01 5.9301944028e+01 5.0000000000e+01 2.7619e-03 -1.0000e+00
      -12  1    3    3    0    0 -1.3724435377e+01 +1.3171788066e+01 +2.5590319228e+01 3.1886055972e+01 0.0000000000e+00 0.0000e+00 1.0000e+00
</event>
<event>
 5      4 +1.7896800e-02 9.11880000e+01 7.81616400e-03 1.18400000e-01
      -11 -1    0    0    0    0 +0.0000000000e+00 +0.0000000000e+00 +4.5593999997e+01 4.5594000000e+01 5.1100000000e-04 0.0000e+00 1.0000e+00
       11 -1    0    0    0    0 -0.0000000000e+00 -0.0000000000e+00 -4.5593999997e+01 4.5594000000e+01 5.1100000000e-04 0.0000e+00 -1.0000e+00
       23  2    1    2    0    0 +0.0000000000e+00 +0.0000000000e+00 +0.0000000000e+00 9.1188000000e+01 9.1188000000e+01 3.4890e-14 0.0000e+00
  9900012  1    3    3    0    0 -1.5249068572e+01 -2.7279073697e+01 -6.3276070814e+00 5.9301944028e+01 5.0000000000e+01 3.9516e-04 -1.0000e+00
      -12  1    3    3    0    0 +1.5249068572e+01 +2.7279073697e+01 +6.3276070814e+00 3.1886055972e+01 0.0000000000e+00 0.0000e+00 1.0000e+00
</event>
<event>
 5      6 +1.7896800e-02 9.11880000e+01 7.81616400e-03 1.18400000e-01
      -11 -1    0    0    0    0 +0.0000000000e+00 +0.0000000000e+00 +4.5593999997e+01 4.5594000000e+01 5.1100000000e-04 0.0000e+00 -1.0000e+00
       11 -1    0    0    0    0 -0.0000000000e+00 -0.0000000000e+00 -4.5593999997e+01 4.5594000000e+01 5.1100000000e-04 0.0000e+00 1.0000e+00
       23  2    1    2    0    0 +0.0000000000e+00 +0.0000000000e+00 +0.0000000000e+00 9.1188000000e+01 9.1188000000e+01 2.3531e-13 0.0000e+00
  9900012  1    3    3    0    0 +1.0803948182e+01 -1.4413434241e+01 +2.6310609695e+01 5.9301944028e+01 5.0000000000e+01 1.9528e-04 -1.0000e+00
      -12  1    3    3    0    0 -1.0803948182e+01 +1.4413434241e+01 -2.6310609695e+01 3.1886055972e+01 0.0000000000e+00 0.0000e+00 1.0000e+00
</event>
<event>
 5      7 +1.7896800e-02 9.11880000e+01 7.81616400e-03 1.18400000e-01
      -11 -1    0    0    0    0 +0.0000000000e+00 +0.0000000000e+00 +4.5593999997e+01 4.5594000000e+01 5.1100000000e-04 0.0000e+00 1.0000e+00
       11 -1    0    0    0    0 -0.0000000000e+00 -0.0000000000e+00 -4.5593999997e+01 4.5594000000e+01 5.1100000000e-04 0.0000e+00 -1.0000e+00
       23  2    1    2    0    0 +0.0000000000e+00 +0.0000000000e+00 +0.0000000000e+00 9.1188000000e+01 9.1188000000e+01 1.6871e-13 0.0000e+00
  9900012  1    3    3    0    0 +2.3101001596e+01 +4.4407064092e+00 +2.1525436519e+01 5.9301944028e+01 5.0000000000e+01 2.3196e-03 1.0000e+00
       12  1    3    3    0    0 -2.3101001596e+01 -4.4407064092e+00 -2.1525436519e+01 3.1886055972e+01 0.0000000000e+00 0.0000e+00 -1.0000e+00
</event>
<event>
 5      7 +1.7896800e-02 9.11880000e+01 7.81616400e-03 1.18400000e-01
      -11 -1    0    0    0    0 +0.0000000000e+00 +0.0000000000e+00 +4.5593999997e+01 4.5594000000e+01 5.1100000000e-04 0.0000e+00 1.0000e+00
       11 -1    0    0    0    0 -0.0000000000e+00 -0.0000000000e+00 -4.5593999997e+01 4.5594000000e+01 5.1100000000e-04 0.0000e+00 -1.0000e+00
       23  2    1    2    0    0 +0.0000000000e+00 +0.0000000000e+00 +0.0000000000e+00 9.1188000000e+01 9.1188000000e+01 1.2011e-13 0.0000e+00
  9900012  1    3    3    0    0 -3.3610479460e+00 +3.1700449909e+01 +7.1091331172e-01 5.9301944028e+01 5.0000000000e+01 6.1754e-04 1.0000e+00
       12  1    3    3    0    0 +3.3610479460e+00 -3.1700449909e+01 -7.1091331172e-01 3.1886055972e+01 0.0000000000e+00 0.0000e+00 -1.0000e+00
</event>
<event>
 5      2 +1.7896800e-02 9.11880000e+01 7.81616400e-03 1.18400000e-01
      -11 -1    0    0    0    0 +0.0000000000e+00 +0.0000000000e+00 +4.5593999997e+01 4.5594000000e+01 5.1100000000e-04 0.0000e+00 -1.0000e+00
       11 -1    0    0    0    0 -0.0000000000e+00 -0.0000000000e+00 -4.5593999997e+01 4.5594000000e+01 5.1100000000e-04 0.0000e+00 1.0000e+00
       23  2    1    2    0    0 +0.0000000000e+00 +0.0000000000e+00 +0.0000000000e+00 9.1188000000e+01 9.1188000000e+01 6.5974e-14 0.0000e+00
  9900012  1    3    3    0    0 +3.0552521999e+01 +7.9607051265e+00 -4.4599483044e+00 5.9301944028e+01 5.0000000000e+01 1.1320e-04 1.0000e+00
      -12  1    3    3    0    0 -3.0552521999e+01 -7.9607051265e+00 +4.4599483044e+00 3.1886055972e+01 0.0000000000e+00 0.0000e+00 1.0000e+00
</event>
<event>
 5      8 +1.7896800e-02 9.11880000e+01 7.81616400e-03 1.18400000e-01
      -11 -1    0    0    0    0 +0.0000000000e+00 +0.0000000000e+00 +4.5593999997e+01 4.5594000000e+01 5.1100000000e-04 0.0000e+00 -1.0000e+00
       11 -1    0    0    0    0 -0.0000000000e+00 -0.0000000000e+00 -4.5593999997e+01 4.5594000000e+01 5.1100000000e-04 0.0000e+00 1.0000e+00
       23  2    1    2    0    0 +0.0000000000e+00 +0.0000000000e+00 +0.0000000000e+00 9.1188000000e+01 9.1188000000e+01 1.1471e-14 0.0000e+00
  9900012  1    3    3    0    0 +2.5242055155e+01 -2.2351372949e+00 +1.9353639923e+01 5.9301944028e+01 5.0000000000e+01 2.0869e-03 -1.0000e+00
      -12  1    3    3    0    0 -2.5242055155e+01 +2.2351372949e+00 -1.9353639923e+01 3.1886055972e+01 0.0000000000e+00 0.0000e+00 1.0000e+00
</event>
<event>
 5      5 +1.7896800e-02 9.11880000e+01 7.81616400e-03 1.18400000e-01
      -11 -1    0    0    0    0 +0.0000000000e+00 +0.0000000000e+00 +4.5593999997e+01 4.5594000000e+01 5.1100000000e-04 0.0000e+00 -1.0000e+00
       11 -1    0    0    0    0 -0.0000000000e+00 -0.0000000000e+00 -4.5593999997e+01 4.5594000000e+01 5.1100000000e-04 0.0000e+00 1.0000e+00
       23  2    1    2    0    0 +0.0000000000e+00 +0.0000000000e+00 +0.0000000000e+00 9.1188000000e+01 9.1188000000e+01 2.7030e-13 0.0000e+00
  9900012  1    3    3    0    0 +1.7474719534e+01 +3.9032733574e+00 -2.6384070947e+01 5.9301944028e+01 5.0000000000e+01 3.8309e-04 1.0000e+00
       12  1    3    3    0    0 -1.7474719534e+01 -3.9032733574e+00 +2.6384070947e+01 3.1886055972e+01 0.0000000000e+00 0.0000e+00 -1.0000e+00
</event>
<event>
 5      7 +1.7896800e-02 9.11880000e+01 7.81616400e-03 1.18400000e-01
      -11 -1    0    0    0    0 +0.0000000000e+00 +0.0000000000e+00 +4.5593999997e+01 4.5594000000e+01 5.1100000000e-04 0.0000e+00 -1.0000e+00
       11 -1    0    0    0    0 -0.0000000000e+00 -0.0000000000e+00 -4.5593999997e+01 4.5594000000e+01 5.1100000000e-04 0.0000e+00 1.0000e+00
       23  2    1    2    0    0 +0.0000000000e+00 +0.0000000000e+00 +0.0000000000e+00 9.1188000000e+01 9.1188000000e+01 1.5526e-13 0.0000e+00
  9900012  1    3    3    0    0 +1.2746489251e+01 -2.5432350919e+01 -1.4402885266e+01 5.9301944028e+01 5.0000000000e+01 5.2586e-04 1.0000e+00
       12  1    3    3    0    0 -1.2746489251e+01 +2.5432350919e+01 +1.4402885266e+01 3.1886055972e+01 0.0000000000e+00 0.0000e+00 -1.0000e+00
</event>
<event>
 5      1 +1.7896800e-02 9.11880000e+01 7.81616400e-03 1.18400000e-01
      -11 -1    0    0    0    0 +0.0000000000e+00 +0.0000000000e+00 +4.5593999997e+01 4.5594000000e+01 5.1100000000e-04 0.0000e+00 1.0000e+00
       11 -1    0    0    0    0 -0.0000000000e+00 -0.0000000000e+00 -4.5593999997e+01 4.5594000000e+01 5.1100000000e-04 0.0000e+00 -1.0000e+00
       23  2    1    2    0    0 +0.0000000000e+00 +0.0000000000e+00 +0.0000000000e+00 9.1188000000e+01 9.1188000000e+01 3.3033e-13 0.0000e+00
  9900012  1    3    3    0    0 -1.2035983394e+01 -2.9482698113e+01 -1.6205496520e+00 5.9301944028e+01 5.0000000000e+01 1.0740e-03 1.0000e+00
       12  1    3    3    0    0 +1.2035983394e+01 +2.9482698113e+01 +1.6205496520e+00 3.1886055972e+01 0.0000000000e+00 0.0000e+00 -1.0000e+00
</event>
<event>
 5      5 +1.7896800e-02 9.11880000e+01 7.81616400e-03 1.18400000e-01
      -11 -1    0    0    0    0 +0.0000000000e+00 +0.0000000000e+00 +4.5593999997e+01 4.5594000000e+01 5.1100000000e-04 0.0000e+00 1.0000e+00
       11 -1    0    0    0    0 -0.0000000000e+00 -0.0000000000e+00 -4.5593999997e+01 4.5594000000e+01 5.1100000000e-04 0.0000e+00 -1.0000e+00
       23  2    1    2    0    0 +0.0000000000e+00 +0.0000000000e+00 +0.0000000000e+00 9.1188000000e+01 9.1188000000e+01 7.6189e-16 0.0000e+00
  9900012  1    3    3    0    0 -2.4509660376e+01 -1.0085022021e+01 +1.7728210416e+01 5.9301944028e+01 5.0000000000e+01 2.8571e-03 1.0000e+00
       12  1    3    3    0    0 +2.4509660376e+01 +1.0085022021e+01 -1.7728210416e+01 3.1886055972e+01 0.0000000000e+00 0.0000e+00 -1.0000e+00
</event>
<event>
 5      2 +1.7896800e-02 9.11880000e+01 7.81616400e-03 1.18400000e-01
      -11 -1    0    0    0    0 +0.0000000000e+00 +0.0000000000e+00 +4.5593999997e+01 4.5594000000e+01 5.1100000000e-04 0.0000e+00 -1.0000e+00
       11 -1    0    0    0    0 -0.0000000000e+00 -0.0000000000e+00 -4.5593999997e+01 4.5594000000e+01 5.1100000000e-04 0.0000e+00 1.0000e+00
       23  2    1    2    0    0 +0.0000000000e+00 +0.0000000000e+00 +0.0000000000e+00 9.1188000000e+01 9.1188000000e+01 1.1915e-13 0.0000e+00
  9900012  1    3    3    0    0 +1.9898185618e+01 +5.3636894028e+00 +2.4331329815e+01 5.9301944028e+01 5.0000000000e+01 3.5608e-04 -1.0000e+00
      -12  1    3    3    0    0 -1.9898185618e+01 -5.3636894028e+00 -2.4331329815e+01 3.1886055972e+01 0.0000000000e+00 0.0000e+00 1.0000e+00
</event>
<event>
 5      7 +1.7896800e-02 9.11880000e+01 7.81616400e-03 1.18400000e-01
      -11 -1    0    0    0    0 +0.0000000000e+00 +0.0000000000e+00 +4.5593999997e+01 4.5594000000e+01 5.1100000000e-04 0.0000e+00 -1.0000e+00
       11 -1    0    0    0    0 -0.0000000000e+00 -0.0000000000e+00 -4.5593999997e+01 4.5594000000e+01 5.1100000000e-04 0.0000e+00 1.0000e+00
       23  2    1    2    0    0 +0.0000000000e+00 +0.0000000000e+00 +0.0000000000e+00 9.1188000000e+01 9.1188000000e+01 2.3816e-14 0.0000e+00
  9900012  1    3    3    0    0 +1.7838200543e+01 +1.9444683856e+01 -1.7900375320e+01 5.9301944028e+01 5.0000000000e+01 1.4982e-03 -1.0000e+00
       12  1    3    3    0    0 -1.7838200543e+01 -1.9444683856e+01 +1.7900375320e+01 3.1886055972e+01 0.0000000000e+00 0.0000e+00 -1.0000e+00
</event>
<event>
 5      7 +1.7896800e-02 9.11880000e+01 7.81616400e-03 1.18400000e-01
      -11 -1    0    0    0    0 +0.0000000000e+00 +0.0000000000e+00 +4.5593999997e+01 4.5594000000e+01 5.1100000000e-04 0.0000e+00 1.0000e+00
       11 -1    0    0    0    0 -0.0000000000e+00 -0.0000000000e+00 -4.5593999997e+01 4.5594000000e+01 5.1100000000e-04 0.0000e+00 -1.0000e+00
       23  2    1    2    0    0 +0.0000000000e+00 +0.0000000000e+00 +0.0000000000e+00 9.1188000000e+01 9.1188000000e+01 9.3936e-14 0.0000e+00
  9900012  1    3    3    0    0 +2.3928729417e+01 +1.9888812418e+01 +6.9693338676e+00 5.9301944028e+01 5.0000000000e+01 1.1008e-03 1.0000e+00
       12  1    3    3    0    0 -2.3928729417e+01 -1.9888812418e+01 -6.9693338676e+00 3.1886055972e+01 0.0000000000e+00 0.0000e+00 -1.0000e+00
</event>
<event>
 5      8 +1.7896800e-02 9.11880000e+01 7.81616400e-03 1.18400000e-01
      -11 -1    0    0    0    0 +0.0000000000e+00 +0.0000000000e+00 +4.5593999997e+01 4.5594000000e+01 5.1100000000e-04 0.0000e+00 1.0000e+00
       11 -1    0    0    0    0 -0.0000000000e+00 -0.0000000000e+00 -4.5593999997e+01 4.5594000000e+01 5.1100000000e-04 0.0000e+00 -1.0000e+00
       23  2    1    2    0    0 +0.0000000000e+00 +0.0000000000e+00 +0.0000000000e+00 9.1188000000e+01 9.1188000000e+01 5.6939e-16 0.0000e+00
  9900012  1    3    3    0    0 +2.1550221737e+01 +2.3114729444e+01 -4.2447368952e+00 5.9301944028e+01 5.0000000000e+01 1.3453e-04 -1.0000e+00
      -12  1    3    3    0    0 -2.1550221737e+01 -2.3114729444e+01 +4.2447368952e+00 3.1886055972e+01 0.0000000000e+00 0.0000e+00 1.0000e+00
</event>
<event>
 5      8 +1.7896800e-02 9.11880000e+01 7.81616400e-03 1.18400000e-01
      -11 -1    0    0    0    0 +0.0000000000e+00 +0.0000000000e+00 +4.5593999997e+01 4.5594000000e+01 5.1100000000e-04 0.0000e+00 -1.0000e+00
       11 -1    0    0    0    0 -0.0000000000e+00 -0.0000000000e+00 -4.5593999997e+01 4.5594000000e+01 5.1100000000e-04 0.0000e+00 1.0000e+00
       23  2    1    2    0    0 +0.0000000000e+00 +0.0000000000e+00 +0.0000000000e+00 9.1188000000e+01 9.1188000000e+01 1.9306e-13 0.0000e+00
  9900012  1    3    3    0    0 +1.1854618575e+01 +2.9434667348e+01 +3.1287284985e+00 5.9301944028e+01 5.0000000000e+01 1.9712e-03 1.0000e+00
      -12  1    3    3    0    0 -1.1854618575e+01 -2.9434667348e+01 -3.1287284985e+00 3.1886055972e+01 0.0000000000e+00 0.0000e+00 1.0000e+00
</event>
<event>
 5      6 +1.7896800e-02 9.11880000e+01 7.81616400e-03 1.18400000e-01
      -11 -1    0    0    0    0 +0.0000000000e+00 +0.0000000000e+00 +4.5593999997e+01 4.5594000000e+01 5.1100000000e-04 0.0000e+00 1.0000e+00
       11 -1    0    0    0    0 -0.0000000000e+00 -0.0000000000e+00 -4.5593999997e+01 4.5594000000e+01 5.1100000000e-04 0.0000e+00 -1.0000e+00
       23  2    1    2    0    0 +0.0000000000e+00 +0.0000000000e+00 +0.0000000000e+00 9.1188000000e+01 9.1188000000e+01 2.3114e-15 0.0000e+00
  9900012  1    3    3    0    0 -2.7008755741e+01 +1.4695630138e+01 -8.4431116093e+00 5.9301944028e+01 5.0000000000e+01 4.3232e-04 -1.0000e+00
      -12  1    3    3    0    0 +2.7008755741e+01 -1.4695630138e+01 +8.4431116093e+00 3.1886055972e+01 0.0000000000e+00 0.0000e+00 1.0000e+00
</event>
<event>
 5      2 +1.7896800e-02 9.11880000e+01 7.81616400e-03 1.18400000e-01
      -11 -1    0    0    0    0 +0.0000000000e+00 +0.0000000000e+00 +4.5593999997e+01 4.5594000000e+01 5.1100000000e-04 0.0000e+00 -1.0000e+00
       11 -1    0    0    0    0 -0.0000000000e+00 -0.0000000000e+00 -4.5593999997e+01 4.5594000000e+01 5.1100000000e-04 0.0000e+00 1.0000e+00
       23  2    1    2    0    0 +0.0000000000e+00 +0.0000000000e+00 +0.0000000000e+00 9.1188000000e+01 9.1188000000e+01 5.1306e-14 0.0000e+00
  9900012  1    3    3    0    0 +5.9818811304e+00 -1.9346142902e+01 +2.4630558630e+01 5.9301944028e+01 5.0000000000e+01 5.5993e-04 -1.0000e+00
      -12  1    3    3    0    0 -5.9818811304e+00 +1.9346142902e+01 -2.4630558630e+01 3.1886055972e+01 0.0000000000e+00 0.0000e+00 1.0000e+00
</event>
<event>
 5      5 +1.7896800e-02 9.11880000e+01 7.81616400e-03 1.18400000e-01
      -11 -1    0    0    0    0 +0.0000000000e+00 +0.0000000000e+00 +4.5593999997e+01 4.5594000000e+01 5.1100000000e-04 0.0000e+00 -1.0000e+00
       11 -1    0    0    0    0 -0.0000000000e+00 -0.0000000000e+00 -4.5593999997e+01 4.5594000000e+01 5.1100000000e-04 0.0000e+00 1.0000e+00
       23  2    1    2    0    0 +0.0000000000e+00 +0.0000000000e+00 +0.0000000000e+00 9.1188000000e+01 9.1188000000e+01 2.1059e-14 0.0000e+00
  9900012  1    3    3    0    0 +2.7023358634e+01 +8.8930310031e+00 -1.4400439340e+01 5.9301944028e+01 5.0000000000e+01 1.0084e-03 -1.0000e+00
       12  1    3    3    0    0 -2.7023358634e+01 -8.8930310031e+00 +1.4400439340e+01 3.1886055972e+01 0.0000000000e+00 0.0000e+00 -1.0000e+00
</event>
<event>
 5      3 +1.7896800e-02 9.11880000e+01 7.81616400e-03 1.18400000e-01
      -11 -1    0    0    0    0 +0.0000000000e+00 +0.0000000000e+00 +4.5593999997e+01 4.5594000000e+01 5.1100000000e-04 0.0000e+00 -1.0000e+00
       11 -1    0    0    0    0 -0.0000000000e+00 -0.0000000000e+00 -4.5593999997e+01 4.5594000000e+01 5.1100000000e-04 0.0000e+00 1.0000e+00
       23  2    1    2    0    0 +0.0000000000e+00 +0.0000000000e+00 +0.0000000000e+00 9.1188000000e+01 9.1188000000e+01 7.6450e-14 0.0000e+00
  9900012  1    3    3    0    0 +1.6807375891e+01 -1.8782198066e+01 -1.9531044952e+01 5.9301944028e+01 5.0000000000e+01 1.0906e-03 1.0000e+00
       12  1    3    3    0    0 -1.6807375891e+01 +1.8782198066e+01 +1.9531044952e+01 3.1886055972e+01 0.0000000000e+00 0.0000e+00 -1.0000e+00
</event>
<event>
 5      2 +1.7896800e-02 9.11880000e+01 7.81616400e-03 1.18400000e-01
      -11 -1    0    0    0    0 +0.0000000000e+00 +0.0000000000e+00 +4.5593999997e+01 4.5594000000e+01 5.1100000000e-04 0.0000e+00 1.0000e+00
       11 -1    0    0    0    0 -0.0000000000e+00 -0.0000000000e+00 -4.5593999997e+01 4.5594000000e+01 5.1100000000e-04 0.0000e+00 -1.0000e+00
       23  2    1    2    0    0 +0.0000000000e+00 +0.0000000000e+00 +0.0000000000e+00 9.1188000000e+01 9.1188000000e+01 1.2104e-13 0.0000e+00
  9900012  1    3    3    0    0 +1.5907870334e+01 +1.0370718057e+00 -2.7614936339e+01 5.9301944028e+01 5.0000000000e+01 1.7505e-03 -1.0000e+00
      -12  1    3    3    0    0 -1.5907870334e+01 -1.0370718057e+00 +2.7614936339e+01 3.1886055972e+01 0.0000000000e+00 0.0000e+00 1.0000e+00
</event>
<event>
 5      6 +1.7896800e-02 9.11880000e+01 7.81616400e-03 1.18400000e-01
      -11 -1    0    0    0    0 +0.0000000000e+00 +0.0000000000e+00 +4.5593999997e+01 4.5594000000e+01 5.1100000000e-04 0.0000e+00 -1.0000e+00
       11 -1    0    0    0    0 -0.0000000000e+00 -0.0000000000e+00 -4.5593999997e+01 4.5594000000e+01 5.1100000000e-04 0.0000e+00 1.0000e+00
       23  2    1    2    0    0 +0.0000000000e+00 +0.0000000000e+00 +0.0000000000e+00 9.1188000000e+01 9.1188000000e+01 9.5316e-14 0.0000e+00
  9900012  1    3    3    0    0 -9.4345073168e+00 +3.0303529428e+01 +3.0670411402e+00 5.9301944028e+01 5.0000000000e+01 1.8076e-03 -1.0000e+00
      -12  1    3    3    0    0 +9.4345073168e+00 -3.0303529428e+01 -3.0670411402e+00 3.1886055972e+01 0.0000000000e+00 0.0000e+00 1.0000e+00
</event>
<event>
 5      5 +1.7896800e-02 9.11880000e+01 7.81616400e-03 1.18400000e-01
      -11 -1    0    0    0    0 +0.0000000000e+00 +0.0000000000e+00 +4.5593999997e+01 4.5594000000e+01 5.1100000000e-04 0.0000e+00 -1.0000e+00
       11 -1    0    0    0    0 -0.0000000000e+00 -0.0000000000e+00 -4.5593999997e+01 4.5594000000e+01 5.1100000000e-04 0.0000e+00 1.0000e+00
       23  2    1    2    0    0 +0.0000000000e+00 +0.0000000000e+00 +0.0000000000e+00 9.1188000000e+01 9.1188000000e+01 9.8964e-14 0.0000e+00
  9900012  1    3    3    0    0 +7.4913171299e+00 -6.2744527455e+00 -3.0351803503e+01 5.9301944028e+01 5.0000000000e+01 3.3868e-04 1.0000e+00
       12  1    3    3    0    0 -7.4913171299e+00 +6.2744527455e+00 +3.0351803503e+01 3.1886055972e+01 0.0000000000e+00 0.0000e+00 -1.0000e+00
</event>
<event>
 5      1 +1.7896800e-02 9.11880000e+01 7.81616400e-03 1.18400000e-01
      -11 -1    0    0    0    0 +0.0000000000e+00 +0.0000000000e+00 +4.5593999997e+01 4.5594000000e+01 5.1100000000e-04 0.0000e+00 -1.0000e+00
       11 -1    0    0    0    0 -0.0000000000e+00 -0.0000000000e+00 -4.5593999997e+01 4.5594000000e+01 5.1100000000e-04 0.0000e+00 1.0000e+00
       23  2    1    2    0    0 +0.0000000000e+00 +0.0000000000e+00 +0.0000000000e+00 9.1188000000e+01 9.1188000000e+01 2.2902e-13 0.0000e+00
  9900012  1    3    3    0    0 -2.8550463019e+01 +1.4023010336e+01 +2.2241420743e+00 5.9301944028e+01 5.0000000000e+01 7.4917e-04 -1.0000e+00
       12  1    3    3    0    0 +2.8550463019e+01 -1.4023010336e+01 -2.2241420743e+00 3.1886055972e+01 0.0000000000e+00 0.0000e+00 -1.0000e+00
</event>
<event>
 5      2 +1.7896800e-02 9.11880000e+01 7.81616400e-03 1.18400000e-01
      -11 -1    0    0    0    0 +0.0000000000e+00 +0.0000000000e+00 +4.5593999997e+01 4.5594000000e+01 5.1100000000e-04 0.0000e+00 1.0000e+00
       11 -1    0    0    0    0 -0.0000000000e+00 -0.0000000000e+00 -4.5593999997e+01 4.5594000000e+01 5.1100000000e-04 0.0000e+00 -1.0000e+00
       23  2    1    2    0    0 +0.0000000000e+00 +0.0000000000e+00 +0.0000000000e+00 9.1188000000e+01 9.1188000000e+01 7.0291e-14 0.0000e+00
  9900012  1    3    3    0    0 +1.2971876222e-01 -1.6611260609e+01 -2.7217085801e+01 5.9301944028e+01 5.0000000000e+01 1.3655e-04 -1.0000e+00
      -12  1    3    3    0    0 -1.2971876222e-01 +1.6611260609e+01 +2.7217085801e+01 3.1886055972e+01 0.0000000000e+00 0.0000e+00 1.0000e+00
</event>
<event>
 5      4 +1.7896800e-02 9.11880000e+01 7.81616400e-03 1.18400000e-01
      -11 -1    0    0    0    0 +0.0000000000e+00 +0.0000000000e+00 +4.5593999997e+01 4.5594000000e+01 5.1100000000e-04 0.0000e+00 1.0000e+00
       11 -1    0    0    0    0 -0.0000000000e+00 -0.0000000000e+00 -4.5593999997e+01 4.5594000000e+01 5.1100000000e-04 0.0000e+00 -1.0000e+00
       23  2    1    2    0    0 +0.0000000000e+00 +0.0000000000e+00 +0.0000000000e+00 9.1188000000e+01 9.1188000000e+01 1.4297e-14 0.0000e+00
  9900012  1    3    3    0    0 -9.8545724549e-01 -7.2721368054e+00 -3.1030073570e+01 5.9301944028e+01 5.0000000000e+01 4.9063e-05 -1.0000e+00
      -12  1    3    3    0    0 +9.8545724549e-01 +7.2721368054e+00 +3.1030073570e+01 3.1886055972e+01 0.0000000000e+00 0.0000e+00 1.0000e+00
</event>
<event>
 5      3 +1.7896800e-02 9.11880000e+01 7.81616400e-03 1.18400000e-01
      -11 -1    0    0    0    0 +0.0000000000e+00 +0.0000000000e+00 +4.5593999997e+01 4.5594000000e+01 5.1100000000e-04 0.0000e+00 1.0000e+00
       11 -1    0    0    0    0 -0.0000000000e+00 -0.0000000000e+00 -4.5593999997e+01 4.5594000000e+01 5.1100000000e-04 0.0000e+00 -1.0000e+00
       23  2    1    2    0    0 +0.0000000000e+00 +0.0000000000e+00 +0.0000000000e+00 9.1188000000e+01 9.1188000000e+01 7.7004e-14 0.0000e+00
  9900012  1    3    3    0    0 -9.5894901620e+00 +2.1438406507e+01 +2.1567498008e+01 5.9301944028e+01 5.0000000000e+01 2.5540e-04 1.0000e+00
       12  1    3    3    0    0 +9.5894901620e+00 -2.1438406507e+01 -2.1567498008e+01 3.1886055972e+01 0.0000000000e+00 0.0000e+00 -1.0000e+00
</event>
<event>
 5      1 +1.7896800e-02 9.11880000e+01 7.81616400e-03 1.18400000e-01
      -11 -1    0    0    0    0 +0.0000000000e+00 +0.0000000000e+00 +4.5593999997e+01 4.5594000000e+01 5.1100000000e-04 0.0000e+00 1.0000e+00
       11 -1    0    0    0    0 -0.0000000000e+00 -0.0000000000e+00 -4.5593999997e+01 4.5594000000e+01 5.1100000000e-04 0.0000e+00 -1.0000e+00
       23  2    1    2    0    0 +0.0000000000e+00 +0.0000000000e+00 +0.0000000000e+00 9.1188000000e+01 9.1188000000e+01 2.0433e-14 0.0000e+00
  9900012  1    3    3    0    0 -3.2155716244e-01 +2.9367316533e+01 +1.2416838813e+01 5.9301944028e+01 5.0000000000e+01 3.1862e-04 1.0000e+00
       12  1    3    3    0    0 +3.2155716244e-01 -2.9367316533e+01 -1.2416838813e+01 3.1886055972e+01 0.0000000000e+00 0.0000e+00 -1.0000e+00
</event>
<event>
 5      6 +1.7896800e-02 9.11880000e+01 7.81616400e-03 1.18400000e-01
      -11 -1    0    0    0    0 +0.0000000000e+00 +0.0000000000e+00 +4.5593999997e+01 4.5594000000e+01 5.1100000000e-04 0.0000e+00 1.0000e+00
       11 -1    0    0    0    0 -0.0000000000e+00 -0.0000000000e+00 -4.5593999997e+01 4.5594000000e+01 5.1100000000e-04 0.0000e+00 -1.0000e+00
       23  2    1    2    0    0 +0.0000000000e+00 +0.0000000000e+00 +0.0000000000e+00 9.1188000000e+01 9.1188000000e+01 4.1580e-14 0.0000e+00
  9900012  1    3    3    0    0 +2.0751853688e+01 +1.1559485192e+01 -2.1271093909e+01 5.9301944028e+01 5.0000000000e+01 8.2269e-04 -1.0000e+00
      -12  1    3    3    0    0 -2.0751853688e+01 -1.1559485192e+01 +2.1271093909e+01 3.1886055972e+01 0.0000000000e+00 0.0000e+00 1.0000e+00
</event>
<event>
 5      8 +1.7896800e-02 9.11880000e+01 7.81616400e-03 1.18400000e-01
      -11 -1    0    0    0    0 +0.0000000000e+00 +0.0000000000e+00 +4.5593999997e+01 4.5594000000e+01 5.1100000000e-04 0.0000e+00 -1.0000e+00
       11 -1    0    0    0    0 -0.0000000000e+00 -0.0000000000e+00 -4.5593999997e+01 4.5594000000e+01 5.1100000000e-04 0.0000e+00 1.0000e+00
       23  2    1    2    0    0 +0.0000000000e+00 +0.0000000000e+00 +0.0000000000e+00 9.1188000000e+01 9.1188000000e+01 5.4798e-14 0.0000e+00
  9900012  1    3    3    0    0 +2.8383316313e+01 -7.4409187900e+00 -1.2479609293e+01 5.9301944028e+01 5.0000000000e+01 1.1712e-03 -1.0000e+00
      -12  1    3    3    0    0 -2.8383316313e+01 +7.4409187900e+00 +1.2479609293e+01 3.1886055972e+01 0.0000000000e+00 0.0000e+00 1.0000e+00
</event>
<event>
 5      5 +1.7896800e-02 9.11880000e+01 7.81616400e-03 1.18400000e-01
      -11 -1    0    0    0    0 +0.0000000000e+00 +0.0000000000e+00 +4.5593999997e+01 4.5594000000e+01 5.1100000000e-04 0.0000e+00 1.0000e+00
       11 -1    0    0    0    0 -0.0000000000e+00 -0.0000000000e+00 -4.5593999997e+01 4.5594000000e+01 5.1100000000e-04 0.0000e+00 -1.0000e+00
       23  2    1    2    0    0 +0.0000000000e+00 +0.0000000000e+00 +0.0000000000e+00 9.1188000000e+01 9.1188000000e+01 1.9010e-13 0.0000e+00
  9900012  1    3    3    0    0 +1.7176314157e+01 -2.4049318267e+01 +1.1971845654e+01 5.9301944028e+01 5.0000000000e+01 6.1181e-04 1.0000e+00
       12  1    3    3    0    0 -1.7176314157e+01 +2.4049318267e+01 -1.1971845654e+01 3.1886055972e+01 0.0000000000e+00 0.0000e+00 -1.0000e+00
</event>
<event>
 5      1 +1.7896800e-02 9.11880000e+01 7.81616400e-03 1.18400000e-01
      -11 -1    0    0    0    0 +0.0000000000e+00 +0.0000000000e+00 +4.5593999997e+01 4.5594000000e+01 5.1100000000e-04 0.0000e+00 1.0000e+00
       11 -1    0    0    0    0 -0.0000000000e+00 -0.0000000000e+00 -4.5593999997e+01 4.5594000000e+01 5.1100000000e-04 0.0000e+00 -1.0000e+00
       23  2    1    2    0    0 +0.0000000000e+00 +0.0000000000e+00 +0.0000000000e+00 9.1188000000e+01 9.1188000000e+01 4.2523e-14 0.0000e+00
  9900012  1    3    3    0    0 +2.1256873735e+01 +2.2940407583e+01 -6.2131782843e+00 5.9301944028e+01 5.0000000000e+01 2.3702e-03 -1.0000e+00
       12  1    3    3    0    0 -2.1256873735e+01 -2.2940407583e+01 +6.2131782843e+00 3.1886055972e+01 0.0000000000e+00 0.0000e+00 -1.0000e+00
</event>
<event>
 5      4 +1.7896800e-02 9.11880000e+01 7.81616400e-03 1.18400000e-01
      -11 -1    0    0    0    0 +0.0000000000e+00 +0.0000000000e+00 +4.5593999997e+01 4.5594000000e+01 5.1100000000e-04 0.0000e+00 -1.0000e+00
       11 -1    0    0    0    0 -0.0000000000e+00 -0.0000000000e+00 -4.5593999997e+01 4.5594000000e+01 5.1100000000e-04 0.0000e+00 1.0000e+00
       23  2    1    2    0    0 +0.0000000000e+00 +0.0000000000e+00 +0.0000000000e+00 9.1188000000e+01 9.1188000000e+01 4.7772e-14 0.0000e+00
  9900012  1    3    3    0    0 +4.4213869271e+00 +3.8117687425e+00 +3.1347126219e+01 5.9301944028e+01 5.0000000000e+01 1.0313e-04 -1.0000e+00
      -12  1    3    3    0    0 -4.4213869271e+00 -3.8117687425e+00 -3.1347126219e+01 3.1886055972e+01 0.0000000000e+00 0.0000e+00 1.0000e+00
</event>
<event>
 5      2 +1.7896800e-02 9.11880000e+01 7.81616400e-03 1.18400000e-01
      -11 -1    0    0    0    0 +0.0000000000e+00 +0.0000000000e+00 +4.5593999997e+01 4.5594000000e+01 5.1100000000e-04 0.0000e+00 1.0000e+00
       11 -1    0    0    0    0 -0.0000000000e+00 -0.0000000000e+00 -4.5593999997e+01 4.5594000000e+01 5.1100000000e-04 0.0000e+00 -1.0000e+00
       23  2    1    2    0    0 +0.0000000000e+00 +0.0000000000e+00 +0.0000000000e+00 9.1188000000e+01 9.1188000000e+01 4.3812e-14 0.0000e+00
  9900012  1    3    3    0    0 -2.4187240689e+01 -2.0542160180e+01 -3.1173078863e+00 5.9301944028e+01 5.0000000000e+01 1.1167e-03 -1.0000e+00
      -12  1    3    3    0    0 +2.4187240689e+01 +2.0542160180e+01 +3.1173078863e+00 3.1886055972e+01 0.0000000000e+00 0.0000e+00 1.0000e+00
</event>
<event>
 5      3 +1.7896800e-02 9.11880000e+01 7.81616400e-03 1.18400000e-01
      -11 -1    0    0    0    0 +0.0000000000e+00 +0.0000000000e+00 +4.5593999997e+01 4.5594000000e+01 5.1100000000e-04 0.0000e+00 -1.0000e+00
       11 -1    0    0    0    0 -0.0000000000e+00 -0.0000000000e+00 -4.5593999997e+01 4.5594000000e+01 5.1100000000e-04 0.0000e+00 1.0000e+00
       23  2    1    2    0    0 +0.0000000000e+00 +0.0000000000e+00 +0.0000000000e+00 9.1188000000e+01 9.1188000000e+01 2.8537e-14 0.0000e+00
  9900012  1    3    3    0    0 -9.0453176471e+00 +2.7138626527e+01 +1.4085373420e+01 5.9301944028e+01 5.0000000000e+01 4.3632e-04 -1.0000e+00
       12  1    3    3    0    0 +9.0453176471e+00 -2.7138626527e+01 -1.4085373420e+01 3.1886055972e+01 0.0000000000e+00 0.0000e+00 -1.0000e+00
</event>
<event>
 5      5 +1.7896800e-02 9.11880000e+01 7.81616400e-03 1.18400000e-01
      -11 -1    0    0    0    0 +0.0000000000e+00 +0.0000000000e+00 +4.5593999997e+01 4.5594000000e+01 5.1100000000e-04 0.0000e+00 1.0000e+00
       11 -1    0    0    0    0 -0.0000000000e+00 -0.0000000000e+00 -4.5593999997e+01 4.5594000000e+01 5.1100000000e-04 0.0000e+00 -1.0000e+00
       23  2    1    2    0    0 +0.0000000000e+00 +0.0000000000e+00 +0.0000000000e+00 9.1188000000e+01 9.1188000000e+01 1.8772e-14 0.0000e+00
  9900012  1    3    3    0    0 +2.2511997461e+01 +6.0239054487e+00 -2.1763343009e+01 5.9301944028e+01 5.0000000000e+01 1.6303e-03 1.0000e+00
       12  1    3    3    0    0 -2.2511997461e+01 -6.0239054487e+00 +2.1763343009e+01 3.1886055972e+01 0.0000000000e+00 0.0000e+00 -1.0000e+00
</event>
<event>
 5      1 +1.7896800e-02 9.11880000e+01 7.81616400e-03 1.18400000e-01
      -11 -1    0    0    0    0 +0.0000000000e+00 +0.0000000000e+00 +4.5593999997e+01 4.5594000000e+01 5.1100000000e-04 0.0000e+00 -1.0000e+00
       11 -1    0    0    0    0 -0.0000000000e+00 -0.0000000000e+00 -4.5593999997e+01 4.5594000000e+01 5.1100000000e-04 0.0000e+00 1.0000e+00
       23  2    1    2    0    0 +0.0000000000e+00 +0.0000000000e+00 +0.0000000000e+00 9.1188000000e+01 9.1188000000e+01 8.6896e-14 0.0000e+00
  9900012  1    3    3    0    0 +6.3189359579e+00 +3.1222872440e+01 +1.3870293623e+00 5.9301944028e+01 5.0000000000e+01 1.0659e-05 1.0000e+00
       12  1    3    3    0    0 -6.3189359579e+00 -3.1222872440e+01 -1.3870293623e+00 3.1886055972e+01 0.0000000000e+00 0.0000e+00 -1.0000e+00
</event>
<event>
 5      1 +1.7896800e-02 9.11880000e+01 7.81616400e-03 1.18400000e-01
      -11 -1    0    0    0    0 +0.0000000000e+00 +0.0000000000e+00 +4.5593999997e+01 4.5594000000e+01 5.1100000000e-04 0.0000e+00 1.0000e+00
       11 -1    0    0    0    0 -0.0000000000e+00 -0.0000000000e+00 -4.5593999997e+01 4.5594000000e+01 5.1100000000e-04 0.0000e+00 -1.0000e+00
       23  2    1    2    0    0 +0.0000000000e+00 +0.0000000000e+00 +0.0000000000e+00 9.1188000000e+01 9.1188000000e+01 6.2561e-14 0.0000e+00
  9900012  1    3    3    0    0 -1.7616778438e+01 +1.0955811006e+01 +2.4214456181e+01 5.9301944028e+01 5.0000000000e+01 1.5665e-05 1.0000e+00
       12  1    3    3    0    0 +1.7616778438e+01 -1.0955811006e+01 -2.4214456181e+01 3.1886055972e+01 0.0000000000e+00 0.0000e+00 -1.0000e+00
</event>
<event>
 5      4 +1.7896800e-02 9.11880000e+01 7.81616400e-03 1.18400000e-01
      -11 -1    0    0    0    0 +0.0000000000e+00 +0.0000000000e+00 +4.5593999997e+01 4.5594000000e+01 5.1100000000e-04 0.0000e+00 1.0000e+00
       11 -1    0    0    0    0 -0.0000000000e+00 -0.0000000000e+00 -4.5593999997e+01 4.5594000000e+01 5.1100000000e-04 0.0000e+00 -1.0000e+00
       23  2    1    2    0    0 +0.0000000000e+00 +0.0000000000e+00 +0.0000000000e+00 9.1188000000e+01 9.1188000000e+01 3.3364e-14 0.0000e+00
  9900012  1    3    3    0    0 -1.1986599079e+01 -2.8919027667e+01 -6.0606803882e+00 5.9301944028e+01 5.0000000000e+01 7.0313e-05 -1.0000e+00
      -12  1    3    3    0    0 +1.1986599079e+01 +2.8919027667e+01 +6.0606803882e+00 3.1886055972e+01 0.0000000000e+00 0.0000e+00 1.0000e+00
</event>
<event>
 5      3 +1.7896800e-02 9.11880000e+01 7.81616400e-03 1.18400000e-01
      -11 -1    0    0    0    0 +0.0000000000e+00 +0.0000000000e+00 +4.5593999997e+01 4.5594000000e+01 5.1100000000e-04 0.0000e+00 -1.0000e+00
       11 -1    0    0    0    0 -0.0000000000e+00 -0.0000000000e+00 -4.5593999997e+01 4.5594000000e+01 5.1100000000e-04 0.0000e+00 1.0000e+00
       23  2    1    2    0    0 +0.0000000000e+00 +0.0000000000e+00 +0.0000000000e+00 9.1188000000e+01 9.1188000000e+01 1.2520e-13 0.0000e+00
  9900012  1    3    3    0    0 -9.1506086740e+00 -2.6380855095e+01 -1.5396019317e+01 5.9301944028e+01 5.0000000000e+01 4.8368e-04 1.0000e+00
       12  1    3    3    0    0 +9.1506086740e+00 +2.6380855095e+01 +1.5396019317e+01 3.1886055972e+01 0.0000000000e+00 0.0000e+00 -1.0000e+00
</event>
<event>
 5      2 +1.7896800e-02 9.11880000e+01 7.81616400e-03 1.18400000e-01
      -11 -1    0    0    0    0 +0.0000000000e+00 +0.0000000000e+00 +4.5593999997e+01 4.5594000000e+01 5.1100000000e-04 0.0000e+00 1.0000e+00
       11 -1    0    0    0    0 -0.0000000000e+00 -0.0000000000e+00 -4.5593999997e+01 4.5594000000e+01 5.1100000000e-04 0.0000e+00 -1.0000e+00
       23  2    1    2    0    0 +0.0000000000e+00 +0.0000000000e+00 +0.0000000000e+00 9.1188000000e+01 9.1188000000e+01 4.1751e-14 0.0000e+00
  9900012  1    3    3    0    0 +1.7070716272e+01 +2.3971868693e+01 +1.2274392971e+01 5.9301944028e+01 5.0000000000e+01 1.1681e-03 -1.0000e+00
      -12  1    3    3    0    0 -1.7070716272e+01 -2.3971868693e+01 -1.2274392971e+01 3.1886055972e+01 0.0000000000e+00 0.0000e+00 1.0000e+00
</event>
<event>
 5      1 +1.7896800e-02 9.11880000e+01 7.81616400e-03 1.18400000e-01
      -11 -1    0    0    0    0 +0.0000000000e+00 +0.0000000000e+00 +4.5593999997e+01 4.5594000000e+01 5.1100000000e-04 0.0000e+00 1.0000e+00
       11 -1    0    0    0    0 -0.0000000000e+00 -0.0000000000e+00 -4.5593999997e+01 4.5594000000e+01 5.1100000000e-04 0.0000e+00 -1.0000e+00
       23  2    1    2    0    0 +0.0000000000e+00 +0.0000000000e+00 +0.0000000000e+00 9.1188000000e+01 9.1188000000e+01 9.9053e-15 0.0000e+00
  9900012  1    3    3    0    0 +1.0156410568e+01 +2.3561765536e+01 +1.8931748326e+01 5.9301944028e+01 5.0000000000e+01 1.3676e-03 -1.0000e+00
       12  1    3    3    0    0 -1.0156410568e+01 -2.3561765536e+01 -1.8931748326e+01 3.1886055972e+01 0.0000000000e+00 0.0000e+00 -1.0000e+00
</event>
<event>
 5      3 +1.7896800e-02 9.11880000e+01 7.81616400e-03 1.18400000e-01
      -11 -1    0    0    0    0 +0.0000000000e+00 +0.0000000000e+00 +4.5593999997e+01 4.5594000000e+01 5.1100000000e-04 0.0000e+00 -1.0000e+00
       11 -1    0    0    0    0 -0.0000000000e+00 -0.0000000000e+00 -4.5593999997e+01 4.5594000000e+01 5.1100000000e-04 0.0000e+00 1.0000e+00
       23  2    1    2    0    0 +0.0000000000e+00 +0.0000000000e+00 +0.0000000000e+00 9.1188000000e+01 9.1188000000e+01 2.9762e-14 0.0000e+00
  9900012  1    3    3    0    0 +1.8416502907e+01 +6.5833039746e+00 -2.5183587809e+01 5.9301944028e+01 5.0000000000e+01 1.2981e-03 1.0000e+00
       12  1    3    3    0    0 -1.8416502907e+01 -6.5833039746e+00 +2.5183587809e+01 3.1886055972e+01 0.0000000000e+00 0.0000e+00 -1.0000e+00
</event>
<event>
 5      4 +1.7896800e-02 9.11880000e+01 7.81616400e-03 1.18400000e-01
      -11 -1    0    0    0    0 +0.0000000000e+00 +0.0000000000e+00 +4.5593999997e+01 4.5594000000e+01 5.1100000000e-04 0.0000e+00 -1.0000e+00
       11 -1    0    0    0    0 -0.0000000000e+00 -0.0000000000e+00 -4.5593999997e+01 4.5594000000e+01 5.1100000000e-04 0.0000e+00 1.0000e+00
       23  2    1    2    0    0 +0.0000000000e+00 +0.0000000000e+00 +0.0000000000e+00 9.1188000000e+01 9.1188000000e+01 3.3209e-15 0.0000e+00
  9900012  1    3    3    0    0 +2.9131743069e+01 +1.0561360089e+01 +7.5179641074e+00 5.9301944028e+01 5.0000000000e+01 1.3186e-04 -1.0000e+00
      -12  1    3    3    0    0 -2.9131743069e+01 -1.0561360089e+01 -7.5179641074e+00 3.1886055972e+01 0.0000000000e+00 0.0000e+00 1.0000e+00
</event>
<event>
 5      6 +1.7896800e-02 9.11880000e+01 7.81616400e-03 1.18400000e-01
      -11 -1    0    0    0    0 +0.0000000000e+00 +0.0000000000e+00 +4.5593999997e+01 4.5594000000e+01 5.1100000000e-04 0.0000e+00 -1.0000e+00
       11 -1    0    0    0    0 -0.0000000000e+00 -0.0000000000e+00 -4.5593999997e+01 4.5594000000e+01 5.1100000000e-04 0.0000e+00 1.0000e+00
       23  2    1    2    0    0 +0.0000000000e+00 +0.0000000000e+00 +0.0000000000e+00 9.1188000000e+01 9.1188000000e+01 2.9868e-13 0.0000e+00
  9900012  1    3    3    0    0 +2.1777452438e+01 +2.5265125927e+00 +2.3153398561e+01 5.9301944028e+01 5.0000000000e+01 5.3223e-04 -1.0000e+00
      -12  1    3    3    0    0 -2.1777452438e+01 -2.5265125927e+00 -2.3153398561e+01 3.1886055972e+01 0.0000000000e+00 0.0000e+00 1.0000e+00
</event>
<event>
 5      4 +1.7896800e-02 9.11880000e+01 7.81616400e-03 1.18400000e-01
      -11 -1    0    0    0    0 +0.0000000000e+00 +0.0000000000e+00 +4.5593999997e+01 4.5594000000e+01 5.1100000000e-04 0.0000e+00 1.0000e+00
       11 -1    0    0    0    0 -0.0000000000e+00 -0.0000000000e+00 -4.5593999997e+01 4.5594000000e+01 5.1100000000e-04 0.0000e+00 -1.0000e+00
       23  2    1    2    0    0 +0.0000000000e+00 +0.0000000000e+00 +0.0000000000e+00 9.1188000000e+01 9.1188000000e+01 1.3324e-13 0.0000e+00
  9900012  1    3    3    0    0 +3.0237359171e+00 +1.0698862531e+01 -2.9884978285e+01 5.9301944028e+01 5.0000000000e+01 5.2605e-04 -1.0000e+00
      -12  1    3    3    0    0 -3.0237359171e+00 -1.0698862531e+01 +2.9884978285e+01 3.1886055972e+01 0.0000000000e+00 0.0000e+00 1.0000e+00
</event>
<event>
 5      8 +1.7896800e-02 9.11880000e+01 7.81616400e-03 1.18400000e-01
      -11 -1    0    0    0    0 +0.0000000000e+00 +0.0000000000e+00 +4.5593999997e+01 4.5594000000e+01 5.1100000000e-04 0.0000e+00 1.0000e+00
       11 -1    0    0    0    0 -0.0000000000e+00 -0.0000000000e+00 -4.5593999997e+01 4.5594000000e+01 5.1100000000e-04 0.0000e+00 -1.0000e+00
       23  2    1    2    0    0 +0.0000000000e+00 +0.0000000000e+00 +0.0000000000e+00 9.1188000000e+01 9.1188000000e+01 5.5996e-14 0.0000e+00
  9900012  1    3    3    0    0 +1.3351678485e+01 +2.2965373305e+01 -1.7636464386e+01 5.9301944028e+01 5.0000000000e+01 2.7363e-04 -1.0000e+00
      -12  1    3    3    0    0 -1.3351678485e+01 -2.2965373305e+01 +1.7636464386e+01 3.1886055972e+01 0.0000000000e+00 0.0000e+00 1.0000e+00
</event>
<event>
 5      1 +1.7896800e-02 9.11880000e+01 7.81616400e-03 1.18400000e-01
      -11 -1    0    0    0    0 +0.0000000000e+00 +0.0000000000e+00 +4.5593999997e+01 4.5594000000e+01 5.1100000000e-04 0.0000e+00 1.0000e+00
       11 -1    0    0    0    0 -0.0000000000e+00 -0.0000000000e+00 -4.5593999997e+01 4.5594000000e+01 5.1100000000e-04 0.0000e+00 -1.0000e+00
       23  2    1    2    0    0 +0.0000000000e+00 +0.0000000000e+00 +0.0000000000e+00 9.1188000000e+01 9.1188000000e+01 1.3070e-13 0.0000e+00
  9900012  1    3    3    0    0 -5.0099545238e+00 +1.4940378881e+01 -2.7720137085e+01 5.9301944028e+01 5.0000000000e+01 5.0612e-04 -1.0000e+00
       12  1    3    3    0    0 +5.0099545238e+00 -1.4940378881e+01 +2.7720137085e+01 3.1886055972e+01 0.0000000000e+00 0.0000e+00 -1.0000e+00
</event>
<event>
 5      6 +1.7896800e-02 9.11880000e+01 7.81616400e-03 1.18400000e-01
      -11 -1    0    0    0    0 +0.0000000000e+00 +0.0000000000e+00 +4.5593999997e+01 4.5594000000e+01 5.1100000000e-04 0.0000e+00 1.0000e+00
       11 -1    0    0    0    0 -0.0000000000e+00 -0.0000000000e+00 -4.5593999997e+01 4.5594000000e+01 5.1100000000e-04 0.0000e+00 -1.0000e+00
       23  2    1    2    0    0 +0.0000000000e+00 +0.0000000000e+00 +0.0000000000e+00 9.1188000000e+01 9.1188000000e+01 9.3664e-15 0.0000e+00
  9900012  1    3    3    0    0 -2.3212644513e+01 -1.5670777902e+01 -1.5242060889e+01 5.9301944028e+01 5.0000000000e+01 1.1830e-05 -1.0000e+00
      -12  1    3    3    0    0 +2.3212644513e+01 +1.5670777902e+01 +1.5242060889e+01 3.1886055972e+01 0.0000000000e+00 0.0000e+00 1.0000e+00
</event>
<event>
 5      8 +1.7896800e-02 9.11880000e+01 7.81616400e-03 1.18400000e-01
      -11 -1    0    0    0    0 +0.0000000000e+00 +0.0000000000e+00 +4.5593999997e+01 4.5594000000e+01 5.1100000000e-04 0.0000e+00 -1.0000e+00
       11 -1    0    0    0    0 -0.0000000000e+00 -0.0000000000e+00 -4.5593999997e+01 4.5594000000e+01 5.1100000000e-04 0.0000e+00 1.0000e+00
       23  2    1    2    0    0 +0.0000000000e+00 +0.0000000000e+00 +0.0000000000e+00 9.1188000000e+01 9.1188000000e+01 3.1944e-14 0.0000e+00
  9900012  1    3    3    0    0 +5.7331041795e-01 +2.7389127066e+01 +1.6316482440e+01 5.9301944028e+01 5.0000000000e+01 3.7981e-04 -1.0000e+00
      -12  1    3    3    0    0 -5.7331041795e-01 -2.7389127066e+01 -1.6316482440e+01 3.1886055972e+01 0.0000000000e+00 0.0000e+00 1.0000e+00
</event>
<event>
 5      7 +1.7896800e-02 9.11880000e+01 7.81616400e-03 1.18400000e-01
      -11 -1    0    0    0    0 +0.0000000000e+00 +0.0000000000e+00 +4.5593999997e+01 4.5594000000e+01 5.1100000000e-04 0.0000e+00 1.0000e+00
       11 -1    0    0    0    0 -0.0000000000e+00 -0.0000000000e+00 -4.5593999997e+01 4.5594000000e+01 5.1100000000e-04 0.0000e+00 -1.0000e+00
       23  2    1    2    0    0 +0.0000000000e+00 +0.0000000000e+00 +0.0000000000e+00 9.1188000000e+01 9.1188000000e+01 6.7596e-14 0.0000e+00
  9900012  1    3    3    0    0 -2.6476164897e+01 +2.1789887359e+00 +1.7634774337e+01 5.9301944028e+01 5.0000000000e+01 7.1181e-04 1.0000e+00
       12  1    3    3    0    0 +2.6476164897e+01 -2.1789887359e+00 -1.7634774337e+01 3.1886055972e+01 0.0000000000e+00 0.0000e+00 -1.0000e+00
</event>
<event>
 5      4 +1.7896800e-02 9.11880000e+01 7.81616400e-03 1.18400000e-01
      -11 -1    0    0    0    0 +0.0000000000e+00 +0.0000000000e+00 +4.5593999997e+01 4.5594000000e+01 5.1100000000e-04 0.0000e+00 1.0000e+00
       11 -1    0    0    0    0 -0.0000000000e+00 -0.0000000000e+00 -4.5593999997e+01 4.5594000000e+01 5.1100000000e-04 0.0000e+00 -1.0000e+00
       23  2    1    2    0    0 +0.0000000000e+00 +0.0000000000e+00 +0.0000000000e+00 9.1188000000e+01 9.1188000000e+01 1.3664e-13 0.0000e+00
  9900012  1    3    3    0    0 -1.6717287045e+01 +1.3079096281e+01 -2.3794749837e+01 5.9301944028e+01 5.0000000000e+01 9.5278e-04 -1.0000e+00
      -12  1    3    3    0    0 +1.6717287045e+01 -1.3079096281e+01 +2.3794749837e+01 3.1886055972e+01 0.0000000000e+00 0.0000e+00 1.0000e+00
</event>
<event>
 5      6 +1.7896800e-02 9.11880000e+01 7.81616400e-03 1.18400000e-01
      -11 -1    0    0    0    0 +0.0000000000e+00 +0.0000000000e+00 +4.5593999997e+01 4.5594000000e+01 5.1100000000e-04 0.0000e+00 1.0000e+00
       11 -1    0    0    0    0 -0.0000000000e+00 -0.0000000000e+00 -4.5593999997e+01 4.5594000000e+01 5.1100000000e-04 0.0000e+00 -1.0000e+00
       23  2    1    2    0    0 +0.0000000000e+00 +0.0000000000e+00 +0.0000000000e+00 9.1188000000e+01 9.1188000000e+01 4.6749e-14 0.0000e+00
  9900012  1    3    3    0    0 +1.4766403988e+01 -1.2453092401e+01 -2.5369161760e+01 5.9301944028e+01 5.0000000000e+01 1.9663e-04 -1.0000e+00
      -12  1    3    3    0    0 -1.4766403988e+01 +1.2453092401e+01 +2.5369161760e+01 3.1886055972e+01 0.0000000000e+00 0.0000e+00 1.0000e+00
</event>
<event>
 5      8 +1.7896800e-02 9.11880000e+01 7.81616400e-03 1.18400000e-01
      -11 -1    0    0    0    0 +0.0000000000e+00 +0.0000000000e+00 +4.5593999997e+01 4.5594000000e+01 5.1100000000e-04 0.0000e+00 1.0000e+00
       11 -1    0    0    0    0 -0.0000000000e+00 -0.0000000000e+00 -4.5593999997e+01 4.5594000000e+01 5.1100000000e-04 0.0000e+00 -1.0000e+00
       23  2    1    2    0    0 +0.0000000000e+00 +0.0000000000e+00 +0.0000000000e+00 9.1188000000e+01 9.1188000000e+01 1.1620e-13 0.0000e+00
  9900012  1    3    3    0    0 +1.2293453180e+01 +7.3244121697e+00 -2.8494640913e+01 5.9301944028e+01 5.0000000000e+01 3.3174e-04 -1.0000e+00
      -12  1    3    3    0    0 -1.2293453180e+01 -7.3244121697e+00 +2.8494640913e+01 3.1886055972e+01 0.0000000000e+00 0.0000e+00 1.0000e+00
</event>
<event>
 5      4 +1.7896800e-02 9.11880000e+01 7.81616400e-03 1.18400000e-01
      -11 -1    0    0    0    0 +0.0000000000e+00 +0.0000000000e+00 +4.5593999997e+01 4.5594000000e+01 5.1100000000e-04 0.0000e+00 -1.0000e+00
       11 -1    0    0    0    0 -0.0000000000e+00 -0.0000000000e+00 -4.5593999997e+01 4.5594000000e+01 5.1100000000e-04 0.0000e+00 1.0000e+00
       23  2    1    2    0    0 +0.0000000000e+00 +0.0000000000e+00 +0.0000000000e+00 9.1188000000e+01 9.1188000000e+01 2.9346e-14 0.0000e+00
  9900012  1    3    3    0    0 -1.3882545338e+01 +2.3066296381e+01 +1.7086294849e+01 5.9301944028e+01 5.0000000000e+01 1.0140e-04 -1.0000e+00
      -12  1    3    3    0    0 +1.3882545338e+01 -2.3066296381e+01 -1.7086294849e+01 3.1886055972e+01 0.0000000000e+00 0.0000e+00 1.0000e+00
</event>
<event>
 5      4 +1.7896800e-02 9.11880000e+01 7.81616400e-03 1.18400000e-01
      -11 -1    0    0    0    0 +0.0000000000e+00 +0.0000000000e+00 +4.5593999997e+01 4.5594000000e+01 5.1100000000e-04 0.0000e+00 -1.0000e+00
       11 -1    0    0    0    0 -0.0000000000e+00 -0.0000000000e+00 -4.5593999997e+01 4.5594000000e+01 5.1100000000e-04 0.0000e+00 1.0000e+00
       23  2    1    2    0    0 +0.0000000000e+00 +0.0000000000e+00 +0.0000000000e+00 9.1188000000e+01 9.1188000000e+01 4.2569e-14 0.0000e+00
  9900012  1    3    3    0    0 -1.4296675927e+01 +2.1349918705e+01 +1.8881382211e+01 5.9301944028e+01 5.0000000000e+01 3.9658e-05 -1.0000e+00
      -12  1    3    3    0    0 +1.4296675927e+01 -2.1349918705e+01 -1.8881382211e+01 3.1886055972e+01 0.0000000000e+00 0.0000e+00 1.0000e+00
</event>
<event>
 5      3 +1.7896800e-02 9.11880000e+01 7.81616400e-03 1.18400000e-01
      -11 -1    0    0    0    0 +0.0000000000e+00 +0.0000000000e+00 +4.5593999997e+01 4.5594000000e+01 5.1100000000e-04 0.0000e+00 1.0000e+00
       11 -1    0    0    0    0 -0.0000000000e+00 -0.0000000000e+00 -4.5593999997e+01 4.5594000000e+01 5.1100000000e-04 0.0000e+00 -1.0000e+00
       23  2    1    2    0    0 +0.0000000000e+00 +0.0000000000e+00 +0.0000000000e+00 9.1188000000e+01 9.1188000000e+01 5.4349e-14 0.0000e+00
  9900012  1    3    3    0    0 +1.3469557860e+01 +1.9861269444e+00 +2.8833086486e+01 5.9301944028e+01 5.0000000000e+01 1.0467e-03 1.0000e+00
       12  1    3    3    0    0 -1.3469557860e+01 -1.9861269444e+00 -2.8833086486e+01 3.1886055972e+01 0.0000000000e+00 0.0000e+00 -1.0000e+00
</event>
<event>
 5      2 +1.7896800e-02 9.11880000e+01 7.81616400e-03 1.18400000e-01
      -11 -1    0    0    0    0 +0.0000000000e+00 +0.0000000000e+00 +4.5593999997e+01 4.5594000000e+01 5.1100000000e-04 0.0000e+00 1.0000e+00
       11 -1    0    0    0    0 -0.0000000000e+00 -0.0000000000e+00 -4.5593999997e+01 4.5594000000e+01 5.1100000000e-04 0.0000e+00 -1.0000e+00
       23  2    1    2    0    0 +0.0000000000e+00 +0.0000000000e+00 +0.0000000000e+00 9.1188000000e+01 9.1188000000e+01 2.2408e-13 0.0000e+00
  9900012  1    3    3    0    0 +2.5966415616e+01 -1.8108991339e+01 +3.8118575757e+00 5.9301944028e+01 5.0000000000e+01 2.0066e-03 -1.0000e+00
      -12  1    3    3    0    0 -2.5966415616e+01 +1.8108991339e+01 -3.8118575757e+00 3.1886055972e+01 0.0000000000e+00 0.0000e+00 1.0000e+00
</event>
<event>
 5      3 +1.7896800e-02 9.11880000e+01 7.81616400e-03 1.18400000e-01
      -11 -1    0    0    0    0 +0.0000000000e+00 +0.0000000000e+00 +4.5593999997e+01 4.5594000000e+01 5.1100000000e-04 0.0000e+00 1.0000e+00
       11 -1    0    0    0    0 -0.0000000000e+00 -0.0000000000e+00 -4.5593999997e+01 4.5594000000e+01 5.1100000000e-04 0.0000e+00 -1.0000e+00
       23  2    1    2    0    0 +0.0000000000e+00 +0.0000000000e+00 +0.0000000000e+00 9.1188000000e+01 9.1188000000e+01 1.9761e-13 0.0000e+00
  9900012  1    3    3    0    0 +1.6413147555e+01 -2.1151690417e+01 +1.7318635782e+01 5.9301944028e+01 5.0000000000e+01 8.2463e-05 1.0000e+00
       12  1    3    3    0    0 -1.6413147555e+01 +2.1151690417e+01 -1.7318635782e+01 3.1886055972e+01 0.0000000000e+00 0.0000e+00 -1.0000e+00
</event>
<event>
 5      1 +1.7896800e-02 9.11880000e+01 7.81616400e-03 1.18400000e-01
      -11 -1    0    0    0    0 +0.0000000000e+00 +0.0000000000e+00 +4.5593999997e+01 4.5594000000e+01 5.1100000000e-04 0.0000e+00 1.0000e+00
       11 -1    0    0    0    0 -0.0000000000e+00 -0.0000000000e+00 -4.5593999997e+01 4.5594000000e+01 5.1100000000e-04 0.0000e+00 -1.0000e+00
       23  2    1    2    0    0 +0.0000000000e+00 +0.0000000000e+00 +0.0000000000e+00 9.1188000000e+01 9.1188000000e+01 3.6938e-13 0.0000e+00
  9900012  1    3    3    0    0 -2.4731665836e+01 -5.0703967925e+00 -1.9477072337e+01 5.9301944028e+01 5.0000000000e+01 8.6418e-04 1.0000e+00
       12  1    3    3    0    0 +2.4731665836e+01 +5.0703967925e+00 +1.9477072337e+01 3.1886055972e+01 0.0000000000e+00 0.0000e+00 -1.0000e+00
</event>
<event>
 5      6 +1.7896800e-02 9.11880000e+01 7.81616400e-03 1.18400000e-01
      -11 -1    0    0    0    0 +0.0000000000e+00 +0.0000000000e+00 +4.5593999997e+01 4.5594000000e+01 5.1100000000e-04 0.0000e+00 1.0000e+00
       11 -1    0    0    0    0 -0.0000000000e+00 -0.0000000000e+00 -4.5593999997e+01 4.5594000000e+01 5.1100000000e-04 0.0000e+00 -1.0000e+00
       23  2    1    2    0    0 +0.0000000000e+00 +0.0000000000e+00 +0.0000000000e+00 9.1188000000e+01 9.1188000000e+01 4.1701e-13 0.0000e+00
  9900012  1    3    3    0    0 +1.9951987144e+01 +5.3453855571e+00 -2.4291266490e+01 5.9301944028e+01 5.0000000000e+01 1.5867e-03 -1.0000e+00
      -12  1    3    3    0    0 -1.9951987144e+01 -5.3453855571e+00 +2.4291266490e+01 3.1886055972e+01 0.0000000000e+00 0.0000e+00 1.0000e+00
</event>
<event>
 5      1 +1.7896800e-02 9.11880000e+01 7.81616400e-03 1.18400000e-01
      -11 -1    0    0    0    0 +0.0000000000e+00 +0.0000000000e+00 +4.5593999997e+01 4.5594000000e+01 5.1100000000e-04 0.0000e+00 -1.0000e+00
       11 -1    0    0    0    0 -0.0000000000e+00 -0.0000000000e+00 -4.5593999997e+01 4.5594000000e+01 5.1100000000e-04 0.0000e+00 1.0000e+00
       23  2    1    2    0    0 +0.0000000000e+00 +0.0000000000e+00 +0.0000000000e+00 9.1188000000e+01 9.1188000000e+01 1.3000e-13 0.0000e+00
  9900012  1    3    3    0    0 +5.2419268399e+00 -6.3669074674e+00 -3.0801059361e+01 5.9301944028e+01 5.0000000000e+01 1.6687e-04 1.0000e+00
       12  1    3    3    0    0 -5.2419268399e+00 +6.3669074674e+00 +3.0801059361e+01 3.1886055972e+01 0.0000000000e+00 0.0000e+00 -1.0000e+00
</event>
<event>
 5      5 +1.7896800e-02 9.11880000e+01 7.81616400e-03 1.18400000e-01
      -11 -1    0    0    0    0 +0.0000000000e+00 +0.0000000000e+00 +4.5593999997e+01 4.5594000000e+01 5.1100000000e-04 0.0000e+00 1.0000e+00
       11 -1    0    0    0    0 -0.0000000000e+00 -0.0000000000e+00 -4.5593999997e+01 4.5594000000e+01 5.1100000000e-04 0.0000e+00 -1.0000e+00
       23  2    1    2    0    0 +0.0000000000e+00 +0.0000000000e+00 +0.0000000000e+00 9.1188000000e+01 9.1188000000e+01 6.1974e-14 0.0000e+00
  9900012  1    3    3    0    0 -1.8665783498e+01 +2.5809106732e+01 +1.4829368077e+00 5.9301944028e+01 5.0000000000e+01 8.6460e-04 1.0000e+00
       12  1    3    3    0    0 +1.8665783498e+01 -2.5809106732e+01 -1.4829368077e+00 3.1886055972e+01 0.0000000000e+00 0.0000e+00 -1.0000e+00
</event>
<event>
 5      4 +1.7896800e-02 9.11880000e+01 7.81616400e-03 1.18400000e-01
      -11 -1    0    0    0    0 +0.0000000000e+00 +0.0000000000e+00 +4.5593999997e+01 4.5594000000e+01 5.1100000000e-04 0.0000e+00 1.0000e+00
       11 -1    0    0    0    0 -0.0000000000e+00 -0.0000000000e+00 -4.5593999997e+01 4.5594000000e+01 5.1100000000e-04 0.0000e+00 -1.0000e+00
       23  2    1    2    0    0 +0.0000000000e+00 +0.0000000000e+00 +0.0000000000e+00 9.1188000000e+01 9.1188000000e+01 6.0543e-14 0.0000e+00
  9900012  1    3    3    0    0 -1.9602598029e+01 +3.4715549810e+00 -2.4907971054e+01 5.9301944028e+01 5.0000000000e+01 3.2541e-04 -1.0000e+00
      -12  1    3    3    0    0 +1.9602598029e+01 -3.4715549810e+00 +2.4907971054e+01 3.1886055972e+01 0.0000000000e+00 0.0000e+00 1.0000e+00
</event>
<event>
 5      8 +1.7896800e-02 9.11880000e+01 7.81616400e-03 1.18400000e-01
      -11 -1    0    0    0    0 +0.0000000000e+00 +0.0000000000e+00 +4.5593999997e+01 4.5594000000e+01 5.1100000000e-04 0.0000e+00 -1.0000e+00
       11 -1    0    0    0    0 -0.0000000000e+00 -0.0000000000e+00 -4.5593999997e+01 4.5594000000e+01 5.1100000000e-04 0.0000e+00 1.0000e+00
       23  2    1    2    0    0 +0.0000000000e+00 +0.0000000000e+00 +0.0000000000e+00 9.1188000000e+01 9.1188000000e+01 5.4665e-14 0.0000e+00
  9900012  1    3    3    0    0 -2.2165886337e+01 -2.2148850013e+01 -5.9010585041e+00 5.9301944028e+01 5.0000000000e+01 5.4297e-04 -1.0000e+00
      -12  1    3    3    0    0 +2.2165886337e+01 +2.2148850013e+01 +5.9010585041e+00 3.1886055972e+01 0.0000000000e+00 0.0000e+00 1.0000e+00
</event>
<event>
 5      1 +1.7896800e-02 9.11880000e+01 7.81616400e-03 1.18400000e-01
      -11 -1    0    0    0    0 +0.0000000000e+00 +0.0000000000e+00 +4.5593999997e+01 4.5594000000e+01 5.1100000000e-04 0.0000e+00 1.0000e+00
       11 -1    0    0    0    0 -0.0000000000e+00 -0.0000000000e+00 -4.5593999997e+01 4.5594000000e+01 5.1100000000e-04 0.0000e+00 -1.0000e+00
       23  2    1    2    0    0 +0.0000000000e+00 +0.0000000000e+00 +0.0000000000e+00 9.1188000000e+01 9.1188000000e+01 3.1925e-14 0.0000e+00
  9900012  1    3    3    0    0 +8.2875999574e+00 -1.1270395253e+01 +2.8653349599e+01 5.9301944028e+01 5.0000000000e+01 9.2346e-04 1.0000e+00
       12  1    3    3    0    0 -8.2875999574e+00 +1.1270395253e+01 -2.8653349599e+01 3.1886055972e+01 0.0000000000e+00 0.0000e+00 -1.0000e+00
</event>
<event>
 5      3 +1.7896800e-02 9.11880000e+01 7.81616400e-03 1.18400000e-01
      -11 -1    0    0    0    0 +0.0000000000e+00 +0.0000000000e+00 +4.5593999997e+01 4.5594000000e+01 5.1100000000e-04 0.0000e+00 -1.0000e+00
       11 -1    0    0    0    0 -0.0000000000e+00 -0.0000000000e+00 -4.5593999997e+01 4.5594000000e+01 5.1100000000e-04 0.0000e+00 1.0000e+00
       23  2    1    2    0    0 +0.0000000000e+00 +0.0000000000e+00 +0.0000000000e+00 9.1188000000e+01 9.1188000000e+01 1.5741e-13 0.0000e+00
  9900012  1    3    3    0    0 +4.2254440795e+00 +4.5581363778e+00 +3.1274423745e+01 5.9301944028e+01 5.0000000000e+01 2.2938e-03 -1.0000e+00
       12  1    3    3    0    0 -4.2254440795e+00 -4.5581363778e+00 -3.1274423745e+01 3.1886055972e+01 0.0000000000e+00 0.0000e+00 -1.0000e+00
</event>
<event>
 5      4 +1.7896800e-02 9.11880000e+01 7.81616400e-03 1.18400000e-01
      -11 -1    0    0    0    0 +0.0000000000e+00 +0.0000000000e+00 +4.5593999997e+01 4.5594000000e+01 5.1100000000e-04 0.0000e+00 1.0000e+00
       11 -1    0    0    0    0 -0.0000000000e+00 -0.0000000000e+00 -4.5593999997e+01 4.5594000000e+01 5.1100000000e-04 0.0000e+00 -1.0000e+00
       23  2    1    2    0    0 +0.0000000000e+00 +0.0000000000e+00 +0.0000000000e+00 9.1188000000e+01 9.1188000000e+01 8.1633e-14 0.0000e+00
  9900012  1    3    3    0    0 -2.3199712407e+00 -2.4257288574e+01 -2.0565073546e+01 5.9301944028e+01 5.0000000000e+01 2.3503e-04 -1.0000e+00
      -12  1    3    3    0    0 +2.3199712407e+00 +2.4257288574e+01 +2.0565073546e+01 3.1886055972e+01 0.0000000000e+00 0.0000e+00 1.0000e+00
</event>
<event>
 5      6 +1.7896800e-02 9.11880000e+01 7.81616400e-03 1.18400000e-01
      -11 -1    0    0    0    0 +0.0000000000e+00 +0.0000000000e+00 +4.5593999997e+01 4.5594000000e+01 5.1100000000e-04 0.0000e+00 1.0000e+00
       11 -1    0    0    0    0 -0.0000000000e+00 -0.0000000000e+00 -4.5593999997e+01 4.5594000000e+01 5.1100000000e-04 0.0000e+00 -1.0000e+00
       23  2    1    2    0    0 +0.0000000000e+00 +0.0000000000e+00 +0.0000000000e+00 9.1188000000e+01 9.1188000000e+01 1.9420e-14 0.0000e+00
  9900012  1    3    3    0    0 +1.2893631171e+00 -3.0705084771e+01 -8.5003457228e+00 5.9301944028e+01 5.0000000000e+01 8.0920e-04 -1.0000e+00
      -12  1    3    3    0    0 -1.2893631171e+00 +3.0705084771e+01 +8.5003457228e+00 3.1886055972e+01 0.0000000000e+00 0.0000e+00 1.0000e+00
</event>
<event>
 5      4 +1.7896800e-02 9.11880000e+01 7.81616400e-03 1.18400000e-01
      -11 -1    0    0    0    0 +0.0000000000e+00 +0.0000000000e+00 +4.5593999997e+01 4.5594000000e+01 5.1100000000e-04 0.0000e+00 1.0000e+00
       11 -1    0    0    0    0 -0.0000000000e+00 -0.0000000000e+00 -4.5593999997e+01 4.5594000000e+01 5.1100000000e-04 0.0000e+00 -1.0000e+00
       23  2    1    2    0    0 +0.0000000000e+00 +0.0000000000e+00 +0.0000000000e+00 9.1188000000e+01 9.1188000000e+01 6.2722e-14 0.0000e+00
  9900012  1    3    3    0    0 +2.6936816249e+01 +1.4825783713e+01 +8.4453912366e+00 5.9301944028e+01 5.0000000000e+01 4.3657e-05 -1.0000e+00
      -12  1    3    3    0    0 -2.6936816249e+01 -1.4825783713e+01 -8.4453912366e+00 3.1886055972e+01 0.0000000000e+00 0.0000e+00 1.0000e+00
</event>
<event>
 5      4 +1.7896800e-02 9.11880000e+01 7.81616400e-03 1.18400000e-01
      -11 -1    0    0    0    0 +0.0000000000e+00 +0.0000000000e+00 +4.5593999997e+01 4.5594000000e+01 5.1100000000e-04 0.0000e+00 1.0000e+00
       11 -1    0    0    0    0 -0.0000000000e+00 -0.0000000000e+00 -4.5593999997e+01 4.5594000000e+01 5.1100000000e-04 0.0000e+00 -1.0000e+00
       23  2    1    2    0    0 +0.0000000000e+00 +0.0000000000e+00 +0.0000000000e+00 9.1188000000e+01 9.1188000000e+01 1.5758e-15 0.0000e+00
  9900012  1    3    3    0    0 -3.7704042172e+00 -3.1201525795e+01 +5.3823234344e+00 5.9301944028e+01 5.0000000000e+01 2.4657e-04 -1.0000e+00
      -12  1    3    3    0    0 +3.7704042172e+00 +3.1201525795e+01 -5.3823234344e+00 3.1886055972e+01 0.0000000000e+00 0.0000e+00 1.0000e+00
</event>
<event>
 5      2 +1.7896800e-02 9.11880000e+01 7.81616400e-03 1.18400000e-01
      -11 -1    0    0    0    0 +0.0000000000e+00 +0.0000000000e+00 +4.5593999997e+01 4.5594000000e+01 5.1100000000e-04 0.0000e+00 1.0000e+00
       11 -1    0    0    0    0 -0.0000000000e+00 -0.0000000000e+00 -4.5593999997e+01 4.5594000000e+01 5.1100000000e-04 0.0000e+00 -1.0000e+00
       23  2    1    2    0    0 +0.0000000000e+00 +0.0000000000e+00 +0.0000000000e+00 9.1188000000e+01 9.1188000000e+01 3.9083e-14 0.0000e+00
  9900012  1    3    3    0    0 -1.9364827599e+01 +2.4662238045e+01 -5.7877484492e+00 5.9301944028e+01 5.0000000000e+01 1.6590e-03 -1.0000e+00
      -12  1    3    3    0    0 +1.9364827599e+01 -2.4662238045e+01 +5.7877484492e+00 3.1886055972e+01 0.0000000000e+00 0.0000e+00 1.0000e+00
</event>
<event>
 5      6 +1.7896800e-02 9.11880000e+01 7.81616400e-03 1.18400000e-01
      -11 -1    0    0    0    0 +0.0000000000e+00 +0.0000000000e+00 +4.5593999997e+01 4.5594000000e+01 5.1100000000e-04 0.0000e+00 1.0000e+00
       11 -1    0    0    0    0 -0.0000000000e+00 -0.0000000000e+00 -4.5593999997e+01 4.5594000000e+01 5.1100000000e-04 0.0000e+00 -1.0000e+00
       23  2    1    2    0    0 +0.0000000000e+00 +0.0000000000e+00 +0.0000000000e+00 9.1188000000e+01 9.1188000000e+01 3.8335e-15 0.0000e+00
  9900012  1    3    3    0    0 +2.5207882689e+01 -1.4954373351e+01 +1.2555872470e+01 5.9301944028e+01 5.0000000000e+01 1.9198e-04 -1.0000e+00
      -12  1    3    3    0    0 -2.5207882689e+01 +1.4954373351e+01 -1.2555872470e+01 3.1886055972e+01 0.0000000000e+00 0.0000e+00 1.0000e+00
</event>
<event>
 5      1 +1.7896800e-02 9.11880000e+01 7.81616400e-03 1.18400000e-01
      -11 -1    0    0    0    0 +0.0000000000e+00 +0.0000000000e+00 +4.5593999997e+01 4.5594000000e+01 5.1100000000e-04 0.0000e+00 1.0000e+00
       11 -1    0    0    0    0 -0.0000000000e+00 -0.0000000000e+00 -4.5593999997e+01 4.5594000000e+01 5.1100000000e-04 0.0000e+00 -1.0000e+00
       23  2    1    2    0    0 +0.0000000000e+00 +0.0000000000e+00 +0.0000000000e+00 9.1188000000e+01 9.1188000000e+01 3.9944e-15 0.0000e+00
  9900012  1    3    3    0    0 -2.4459674541e+01 +2.0158893708e+01 +3.4733112839e+00 5.9301944028e+01 5.0000000000e+01 6.9651e-04 1.0000e+00
       12  1    3    3    0    0 +2.4459674541e+01 -2.0158893708e+01 -3.4733112839e+00 3.1886055972e+01 0.0000000000e+00 0.0000e+00 -1.0000e+00
</event>
<event>
 5      8 +1.7896800e-02 9.11880000e+01 7.81616400e-03 1.18400000e-01
      -11 -1    0    0    0    0 +0.0000000000e+00 +0.0000000000e+00 +4.5593999997e+01 4.5594000000e+01 5.1100000000e-04 0.0000e+00 1.0000e+00
       11 -1    0    0    0    0 -0.0000000000e+00 -0.0000000000e+00 -4.5593999997e+01 4.5594000000e+01 5.1100000000e-04 0.0000e+00 -1.0000e+00
       23  2    1    2    0    0 +0.0000000000e+00 +0.0000000000e+00 +0.0000000000e+00 9.1188000000e+01 9.1188000000e+01 1.5197e-13 0.0000e+00
  9900012  1    3    3    0    0 +2.8314958683e+01 +1.3327072761e+01 -6.1133306694e+00 5.9301944028e+01 5.0000000000e+01 1.5541e-04 -1.0000e+00
      -12  1    3    3    0    0 -2.8314958683e+01 -1.3327072761e+01 +6.1133306694e+00 3.1886055972e+01 0.0000000000e+00 0.0000e+00 1.0000e+00
</event>
<event>
 5      1 +1.7896800e-02 9.11880000e+01 7.81616400e-03 1.18400000e-01
      -11 -1    0    0    0    0 +0.0000000000e+00 +0.0000000000e+00 +4.5593999997e+01 4.5594000000e+01 5.1100000000e-04 0.0000e+00 -1.0000e+00
       11 -1    0    0    0    0 -0.0000000000e+00 -0.0000000000e+00 -4.5593999997e+01 4.5594000000e+01 5.1100000000e-04 0.0000e+00 1.0000e+00
       23  2    1    2    0    0 +0.0000000000e+00 +0.0000000000e+00 +0.0000000000e+00 9.1188000000e+01 9.1188000000e+01 2.3030e-13 0.0000e+00
  9900012  1    3    3    0    0 -2.1833468365e+01 -2.1142856681e+01 -9.6436422578e+00 5.9301944028e+01 5.0000000000e+01 1.1288e-03 1.0000e+00
       12  1    3    3    0    0 +2.1833468365e+01 +2.1142856681e+01 +9.6436422578e+00 3.1886055972e+01 0.0000000000e+00 0.0000e+00 -1.0000e+00
</event>
<event>
 5      8 +1.7896800e-02 9.11880000e+01 7.81616400e-03 1.18400000e-01
      -11 -1    0    0    0    0 +0.0000000000e+00 +0.0000000000e+00 +4.5593999997e+01 4.5594000000e+01 5.1100000000e-04 0.0000e+00 -1.0000e+00
       11 -1    0    0    0    0 -0.0000000000e+00 -0.0000000000e+00 -4.5593999997e+01 4.5594000000e+01 5.1100000000e-04 0.0000e+00 1.0000e+00
       23  2    1    2    0    0 +0.0000000000e+00 +0.0000000000e+00 +0.0000000000e+00 9.1188000000e+01 9.1188000000e+01 4.0538e-14 0.0000e+00
  9900012  1    3    3    0    0 +8.5122420821e+00 +2.4931662030e+01 +1.7963143617e+01 5.9301944028e+01 5.0000000000e+01 1.0718e-04 -1.0000e+00
      -12  1    3    3    0    0 -8.5122420821e+00 -2.4931662030e+01 -1.7963143617e+01 3.1886055972e+01 0.0000000000e+00 0.0000e+00 1.0000e+00
</event>
<event>
 5      3 +1.7896800e-02 9.11880000e+01 7.81616400e-03 1.18400000e-01
      -11 -1    0    0    0    0 +0.0000000000e+00 +0.0000000000e+00 +4.5593999997e+01 4.5594000000e+01 5.1100000000e-04 0.0000e+00 -1.0000e+00
       11 -1    0    0    0    0 -0.0000000000e+00 -0.0000000000e+00 -4.5593999997e+01 4.5594000000e+01 5.1100000000e-04 0.0000e+00 1.0000e+00
       23  2    1    2    0    0 +0.0000000000e+00 +0.0000000000e+00 +0.0000000000e+00 9.1188000000e+01 9.1188000000e+01 8.2659e-14 0.0000e+00
  9900012  1    3    3    0    0 -8.5117860057e+00 +2.9216114606e+01 -9.5230621011e+00 5.9301944028e+01 5.0000000000e+01 2.4650e-04 1.0000e+00
       12  1    3    3    0    0 +8.5117860057e+00 -2.9216114606e+01 +9.5230621011e+00 3.1886055972e+01 0.0000000000e+00 0.0000e+00 -1.0000e+00
</event>
<event>
 5      6 +1.7896800e-02 9.11880000e+01 7.81616400e-03 1.18400000e-01
      -11 -1    0    0    0    0 +0.0000000000e+00 +0.0000000000e+00 +4.5593999997e+01 4.5594000000e+01 5.1100000000e-04 0.0000e+00 1.0000e+00
       11 -1    0    0    0    0 -0.0000000000e+00 -0.0000000000e+00 -4.5593999997e+01 4.5594000000e+01 5.1100000000e-04 0.0000e+00 -1.0000e+00
       23  2    1    2    0    0 +0.0000000000e+00 +0.0000000000e+00 +0.0000000000e+00 9.1188000000e+01 9.1188000000e+01 3.7339e-14 0.0000e+00
  9900012  1    3    3    0    0 +1.1330961318e+01 +2.1165254899e+01 -2.0984800837e+01 5.9301944028e+01 5.0000000000e+01 1.3474e-03 -1.0000e+00
      -12  1    3    3    0    0 -1.1330961318e+01 -2.1165254899e+01 +2.0984800837e+01 3.1886055972e+01 0.0000000000e+00 0.0000e+00 1.0000e+00
</event>
<event>
 5      7 +1.7896800e-02 9.11880000e+01 7.81616400e-03 1.18400000e-01
      -11 -1    0    0    0    0 +0.0000000000e+00 +0.0000000000e+00 +4.5593999997e+01 4.5594000000e+01 5.1100000000e-04 0.0000e+00 1.0000e+00
       11 -1    0    0    0    0 -0.0000000000e+00 -0.0000000000e+00 -4.5593999997e+01 4.5594000000e+01 5.1100000000e-04 0.0000e+00 -1.0000e+00
       23  2    1    2    0    0 +0.0000000000e+00 +0.0000000000e+00 +0.0000000000e+00 9.1188000000e+01 9.1188000000e+01 1.1668e-13 0.0000e+00
  9900012  1    3    3    0    0 -3.0136982957e+01 +1.6091118884e+00 -1.0290460759e+01 5.9301944028e+01 5.0000000000e+01 2.3514e-04 1.0000e+00
       12  1    3    3    0    0 +3.0136982957e+01 -1.6091118884e+00 +1.0290460759e+01 3.1886055972e+01 0.0000000000e+00 0.0000e+00 -1.0000e+00
</event>
<event>
 5      5 +1.7896800e-02 9.11880000e+01 7.81616400e-03 1.18400000e-01
      -11 -1    0    0    0    0 +0.0000000000e+00 +0.0000000000e+00 +4.5593999997e+01 4.5594000000e+01 5.1100000000e-04 0.0000e+00 -1.0000e+00
       11 -1    0    0    0    0 -0.0000000000e+00 -0.0000000000e+00 -4.5593999997e+01 4.5594000000e+01 5.1100000000e-04 0.0000e+00 1.0000e+00
       23  2    1    2    0    0 +0.0000000000e+00 +0.0000000000e+00 +0.0000000000e+00 9.1188000000e+01 9.1188000000e+01 3.4189e-14 0.0000e+00
  9900012  1    3    3    0    0 +8.6135270143e+00 +1.3772792892e+01 -2.7437891570e+01 5.9301944028e+01 5.0000000000e+01 1.5818e-03 1.0000e+00
       12  1    3    3    0    0 -8.6135270143e+00 -1.3772792892e+01 +2.7437891570e+01 3.1886055972e+01 0.0000000000e+00 0.0000e+00 -1.0000e+00
</event>
<event>
 5      7 +1.7896800e-02 9.11880000e+01 7.81616400e-03 1.18400000e-01
      -11 -1    0    0    0    0 +0.0000000000e+00 +0.0000000000e+00 +4.5593999997e+01 4.5594000000e+01 5.1100000000e-04 0.0000e+00 1.0000e+00
       11 -1    0    0    0    0 -0.0000000000e+00 -0.0000000000e+00 -4.5593999997e+01 4.5594000000e+01 5.1100000000e-04 0.0000e+00 -1.0000e+00
       23  2    1    2    0    0 +0.0000000000e+00 +0.0000000000e+00 +0.0000000000e+00 9.1188000000e+01 9.1188000000e+01 4.5766e-14 0.0000e+00
  9900012  1    3    3    0    0 -1.7107741127e+01 -1.3551620183e+01 +2.3246491120e+01 5.9301944028e+01 5.0000000000e+01 2.8077e-03 1.0000e+00
       12  1    3    3    0    0 +1.7107741127e+01 +1.3551620183e+01 -2.3246491120e+01 3.1886055972e+01 0.0000000000e+00 0.0000e+00 -1.0000e+00
</event>
<event>
 5      7 +1.7896800e-02 9.11880000e+01 7.81616400e-03 1.18400000e-01
      -11 -1    0    0    0    0 +0.0000000000e+00 +0.0000000000e+00 +4.5593999997e+01 4.5594000000e+01 5.1100000000e-04 0.0000e+00 1.0000e+00
       11 -1    0    0    0    0 -0.0000000000e+00 -0.0000000000e+00 -4.5593999997e+01 4.5594000000e+01 5.1100000000e-04 0.0000e+00 -1.0000e+00
       23  2    1    2    0    0 +0.0000000000e+00 +0.0000000000e+00 +0.0000000000e+00 9.1188000000e+01 9.1188000000e+01 4.0355e-14 0.0000e+00
  9900012  1    3    3    0    0 +1.4816986781e+01 +1.1825065942e+01 +2.5638745751e+01 5.9301944028e+01 5.0000000000e+01 1.0003e-03 1.0000e+00
       12  1    3    3    0    0 -1.4816986781e+01 -1.1825065942e+01 -2.5638745751e+01 3.1886055972e+01 0.0000000000e+00 0.0000e+00 -1.0000e+00
</event>
<event>
 5      4 +1.7896800e-02 9.11880000e+01 7.81616400e-03 1.18400000e-01
      -11 -1    0    0    0    0 +0.0000000000e+00 +0.0000000000e+00 +4.5593999997e+01 4.5594000000e+01 5.1100000000e-04 0.0000e+00 1.0000e+00
       11 -1    0    0    0    0 -0.0000000000e+00 -0.0000000000e+00 -4.5593999997e+01 4.5594000000e+01 5.1100000000e-04 0.0000e+00 -1.0000e+00
       23  2    1    2    0    0 +0.0000000000e+00 +0.0000000000e+00 +0.0000000000e+00 9.1188000000e+01 9.1188000000e+01 3.0686e-13 0.0000e+00
  9900012  1    3    3    0    0 -2.6845854628e+01 -7.6535584149e+00 -1.5409208232e+01 5.9301944028e+01 5.0000000000e+01 6.1031e-04 -1.0000e+00
      -12  1    3    3    0    0 +2.6845854628e+01 +7.6535584149e+00 +1.5409208232e+01 3.1886055972e+01 0.0000000000e+00 0.0000e+00 1.0000e+00
</event>
<event>
 5      8 +1.7896800e-02 9.11880000e+01 7.81616400e-03 1.18400000e-01
      -11 -1    0    0    0    0 +0.0000000000e+00 +0.0000000000e+00 +4.5593999997e+01 4.5594000000e+01 5.1100000000e-04 0.0000e+00 1.0000e+00
       11 -1    0    0    0    0 -0.0000000000e+00 -0.0000000000e+00 -4.5593999997e+01 4.5594000000e+01 5.1100000000e-04 0.0000e+00 -1.0000e+00
       23  2    1    2    0    0 +0.0000000000e+00 +0.0000000000e+00 +0.0000000000e+00 9.1188000000e+01 9.1188000000e+01 2.6330e-15 0.0000e+00
  9900012  1    3    3    0    0 +2.0180933132e+01 +2.7545694291e+00 -2.4532893239e+01 5.9301944028e+01 5.0000000000e+01 1.2805e-04 -1.0000e+00
      -12  1    3    3    0    0 -2.0180933132e+01 -2.7545694291e+00 +2.4532893239e+01 3.1886055972e+01 0.0000000000e+00 0.0000e+00 1.0000e+00
</event>
<event>
 5      4 +1.7896800e-02 9.11880000e+01 7.81616400e-03 1.18400000e-01
      -11 -1    0    0    0    0 +0.0000000000e+00 +0.0000000000e+00 +4.5593999997e+01 4.5594000000e+01 5.1100000000e-04 0.0000e+00 1.0000e+00
       11 -1    0    0    0    0 -0.0000000000e+00 -0.0000000000e+00 -4.5593999997e+01 4.5594000000e+01 5.1100000000e-04 0.0000e+00 -1.0000e+00
       23  2    1    2    0    0 +0.0000000000e+00 +0.0000000000e+00 +0.0000000000e+00 9.1188000000e+01 9.1188000000e+01 3.3168e-14 0.0000e+00
  9900012  1    3    3    0    0 +1.2667441903e+01 +1.0428770137e+01 -2.7340395654e+01 5.9301944028e+01 5.0000000000e+01 1.3727e-03 -1.0000e+00
      -12  1    3    3    0    0 -1.2667441903e+01 -1.0428770137e+01 +2.7340395654e+01 3.1886055972e+01 0.0000000000e+00 0.0000e+00 1.0000e+00
</event>
<event>
 5      3 +1.7896800e-02 9.11880000e+01 7.81616400e-03 1.18400000e-01
      -11 -1    0    0    0    0 +0.0000000000e+00 +0.0000000000e+00 +4.5593999997e+01 4.5594000000e+01 5.1100000000e-04 0.0000e+00 1.0000e+00
       11 -1    0    0    0    0 -0.0000000000e+00 -0.0000000000e+00 -4.5593999997e+01 4.5594000000e+01 5.1100000000e-04 0.0000e+00 -1.0000e+00
       23  2    1    2    0    0 +0.0000000000e+00 +0.0000000000e+00 +0.0000000000e+00 9.1188000000e+01 9.1188000000e+01 8.0452e-16 0.0000e+00
  9900012  1    3    3    0    0 -9.3587300332e+00 +4.0271656686e+00 +3.0214510989e+01 5.9301944028e+01 5.0000000000e+01 1.0257e-03 1.0000e+00
       12  1    3    3    0    0 +9.3587300332e+00 -4.0271656686e+00 -3.0214510989e+01 3.1886055972e+01 0.0000000000e+00 0.0000e+00 -1.0000e+00
</event>
<event>
 5      1 +1.7896800e-02 9.11880000e+01 7.81616400e-03 1.18400000e-01
      -11 -1    0    0    0    0 +0.0000000000e+00 +0.0000000000e+00 +4.5593999997e+01 4.5594000000e+01 5.1100000000e-04 0.0000e+00 -1.0000e+00
       11 -1    0    0    0    0 -0.0000000000e+00 -0.0000000000e+00 -4.5593999997e+01 4.5594000000e+01 5.1100000000e-04 0.0000e+00 1.0000e+00
       23  2    1    2    0    0 +0.0000000000e+00 +0.0000000000e+00 +0.0000000000e+00 9.1188000000e+01 9.1188000000e+01 5.9881e-14 0.0000e+00
  9900012  1    3    3    0    0 -2.4677513988e+01 -1.8114917332e+01 +8.9213585771e+00 5.9301944028e+01 5.0000000000e+01 9.8686e-04 1.0000e+00
       12  1    3    3    0    0 +2.4677513988e+01 +1.8114917332e+01 -8.9213585771e+00 3.1886055972e+01 0.0000000000e+00 0.0000e+00 -1.0000e+00
</event>
<event>
 5      8 +1.7896800e-02 9.11880000e+01 7.81616400e-03 1.18400000e-01
      -11 -1    0    0    0    0 +0.0000000000e+00 +0.0000000000e+00 +4.5593999997e+01 4.5594000000e+01 5.1100000000e-04 0.0000e+00 -1.0000e+00
       11 -1    0    0    0    0 -0.0000000000e+00 -0.0000000000e+00 -4.5593999997e+01 4.5594000000e+01 5.1100000000e-04 0.0000e+00 1.0000e+00
       23  2    1    2    0    0 +0.0000000000e+00 +0.0000000000e+00 +0.0000000000e+00 9.1188000000e+01 9.1188000000e+01 5.4367e-14 0.0000e+00
  9900012  1    3    3    0    0 +1.7418265433e+01 -1.1642906503e+01 +2.4036791028e+01 5.9301944028e+01 5.0000000000e+01 8.1788e-04 -1.0000e+00
      -12  1    3    3    0    0 -1.7418265433e+01 +1.1642906503e+01 -2.4036791028e+01 3.1886055972e+01 0.0000000000e+00 0.0000e+00 1.0000e+00
</event>
<event>
 5      3 +1.7896800e-02 9.11880000e+01 7.81616400e-03 1.18400000e-01
      -11 -1    0    0    0    0 +0.0000000000e+00 +0.0000000000e+00 +4.5593999997e+01 4.5594000000e+01 5.1100000000e-04 0.0000e+00 1.0000e+00
       11 -1    0    0    0    0 -0.0000000000e+00 -0.0000000000e+00 -4.5593999997e+01 4.5594000000e+01 5.1100000000e-04 0.0000e+00 -1.0000e+00
       23  2    1    2    0    0 +0.0000000000e+00 +0.0000000000e+00 +0.0000000000e+00 9.1188000000e+01 9.1188000000e+01 3.6489e-14 0.0000e+00
  9900012  1    3    3    0    0 +1.6794989439e+01 -2.6660199251e+01 +4.8869899804e+00 5.9301944028e+01 5.0000000000e+01 2.1201e-03 1.0000e+00
       12  1    3    3    0    0 -1.6794989439e+01 +2.6660199251e+01 -4.8869899804e+00 3.1886055972e+01 0.0000000000e+00 0.0000e+00 -1.0000e+00
</event>
<event>
 5      1 +1.7896800e-02 9.11880000e+01 7.81616400e-03 1.18400000e-01
      -11 -1    0    0    0    0 +0.0000000000e+00 +0.0000000000e+00 +4.5593999997e+01 4.5594000000e+01 5.1100000000e-04 0.0000e+00 -1.0000e+00
       11 -1    0    0    0    0 -0.0000000000e+00 -0.0000000000e+00 -4.5593999997e+01 4.5594000000e+01 5.1100000000e-04 0.0000e+00 1.0000e+00
       23  2    1    2    0    0 +0.0000000000e+00 +0.0000000000e+00 +0.0000000000e+00 9.1188000000e+01 9.1188000000e+01 8.7356e-14 0.0000e+00
  9900012  1    3    3    0    0 -6.4340258423e+00 +2.9638315955e+01 -9.8434802918e+00 5.9301944028e+01 5.0000000000e+01 1.6523e-04 1.0000e+00
       12  1    3    3    0    0 +6.4340258423e+00 -2.9638315955e+01 +9.8434802918e+00 3.1886055972e+01 0.0000000000e+00 0.0000e+00 -1.0000e+00
</event>
<event>
 5      1 +1.7896800e-02 9.11880000e+01 7.81616400e-03 1.18400000e-01
      -11 -1    0    0    0    0 +0.0000000000e+00 +0.0000000000e+00 +4.5593999997e+01 4.5594000000e+01 5.1100000000e-04 0.0000e+00 1.0000e+00
       11 -1    0    0    0    0 -0.0000000000e+00 -0.0000000000e+00 -4.5593999997e+01 4.5594000000e+01 5.1100000000e-04 0.0000e+00 -1.0000e+00
       23  2    1    2    0    0 +0.0000000000e+00 +0.0000000000e+00 +0.0000000000e+00 9.1188000000e+01 9.1188000000e+01 1.6897e-14 0.0000e+00
  9900012  1    3    3    0    0 -3.0864084612e+01 +7.7182329036e+00 -2.1348834504e+00 5.9301944028e+01 5.0000000000e+01 2.2265e-03 1.0000e+00
       12  1    3    3    0    0 +3.0864084612e+01 -7.7182329036e+00 +2.1348834504e+00 3.1886055972e+01 0.0000000000e+00 0.0000e+00 -1.0000e+00
</event>
<event>
 5      1 +1.7896800e-02 9.11880000e+01 7.81616400e-03 1.18400000e-01
      -11 -1    0    0    0    0 +0.0000000000e+00 +0.0000000000e+00 +4.5593999997e+01 4.5594000000e+01 5.1100000000e-04 0.0000e+00 1.0000e+00
       11 -1    0    0    0    0 -0.0000000000e+00 -0.0000000000e+00 -4.5593999997e+01 4.5594000000e+01 5.1100000000e-04 0.0000e+00 -1.0000e+00
       23  2    1    2    0    0 +0.0000000000e+00 +0.0000000000e+00 +0.0000000000e+00 9.1188000000e+01 9.1188000000e+01 1.2720e-13 0.0000e+00
  9900012  1    3    3    0    0 +7.4980321414e+00 -2.3968795982e+01 +1.9646803777e+01 5.9301944028e+01 5.0000000000e+01 2.5399e-03 1.0000e+00
       12  1    3    3    0    0 -7.4980321414e+00 +2.3968795982e+01 -1.9646803777e+01 3.1886055972e+01 0.0000000000e+00 0.0000e+00 -1.0000e+00
</event>
<event>
 5      6 +1.7896800e-02 9.11880000e+01 7.81616400e-03 1.18400000e-01
      -11 -1    0    0    0    0 +0.0000000000e+00 +0.0000000000e+00 +4.5593999997e+01 4.5594000000e+01 5.1100000000e-04 0.0000e+00 -1.0000e+00
       11 -1    0    0    0    0 -0.0000000000e+00 -0.0000000000e+00 -4.5593999997e+01 4.5594000000e+01 5.1100000000e-04 0.0000e+00 1.0000e+00
       23  2    1    2    0    0 +0.0000000000e+00 +0.0000000000e+00 +0.0000000000e+00 9.1188000000e+01 9.1188000000e+01 4.7786e-14 0.0000e+00
  9900012  1    3    3    0    0 +2.0091547794e+01 -5.8303448325e+00 +2.4063610532e+01 5.9301944028e+01 5.0000000000e+01 1.0300e-03 -1.0000e+00
      -12  1    3    3    0    0 -2.0091547794e+01 +5.8303448325e+00 -2.4063610532e+01 3.1886055972e+01 0.0000000000e+00 0.0000e+00 1.0000e+00
</event>
<event>
 5      5 +1.7896800e-02 9.11880000e+01 7.81616400e-03 1.18400000e-01
      -11 -1    0    0    0    0 +0.0000000000e+00 +0.0000000000e+00 +4.5593999997e+01 4.5594000000e+01 5.1100000000e-04 0.0000e+00 -1.0000e+00
       11 -1    0    0    0    0 -0.0000000000e+00 -0.0000000000e+00 -4.5593999997e+01 4.5594000000e+01 5.1100000000e-04 0.0000e+00 1.0000e+00
       23  2    1    2    0    0 +0.0000000000e+00 +0.0000000000e+00 +0.0000000000e+00 9.1188000000e+01 9.1188000000e+01 3.9701e-14 0.0000e+00
  9900012  1    3    3    0    0 +1.0650334012e+01 -2.8807532142e+01 -8.5683745691e+00 5.9301944028e+01 5.0000000000e+01 3.3164e-05 -1.0000e+00
       12  1    3    3    0    0 -1.0650334012e+01 +2.8807532142e+01 +8.5683745691e+00 3.1886055972e+01 0.0000000000e+00 0.0000e+00 -1.0000e+00
</event>
<event>
 5      4 +1.7896800e-02 9.11880000e+01 7.81616400e-03 1.18400000e-01
      -11 -1    0    0    0    0 +0.0000000000e+00 +0.0000000000e+00 +4.5593999997e+01 4.5594000000e+01 5.1100000000e-04 0.0000e+00 -1.0000e+00
       11 -1    0    0    0    0 -0.0000000000e+00 -0.0000000000e+00 -4.5593999997e+01 4.5594000000e+01 5.1100000000e-04 0.0000e+00 1.0000e+00
       23  2    1    2    0    0 +0.0000000000e+00 +0.0000000000e+00 +0.0000000000e+00 9.1188000000e+01 9.1188000000e+01 1.5555e-14 0.0000e+00
  9900012  1    3    3    0    0 +2.8560187644e+01 +5.7638146230e+00 +1.2954330866e+01 5.9301944028e+01 5.0000000000e+01 1.0934e-03 -1.0000e+00
      -12  1    3    3    0    0 -2.8560187644e+01 -5.7638146230e+00 -1.2954330866e+01 3.1886055972e+01 0.0000000000e+00 0.0000e+00 1.0000e+00
</event>
<event>
 5      6 +1.7896800e-02 9.11880000e+01 7.81616400e-03 1.18400000e-01
      -11 -1    0    0    0    0 +0.0000000000e+00 +0.0000000000e+00 +4.5593999997e+01 4.5594000000e+01 5.1100000000e-04 0.0000e+00 1.0000e+00
       11 -1    0    0    0    0 -0.0000000000e+00 -0.0000000000e+00 -4.5593999997e+01 4.5594000000e+01 5.1100000000e-04 0.0000e+00 -1.0000e+00
       23  2    1    2    0    0 +0.0000000000e+00 +0.0000000000e+00 +0.0000000000e+00 9.1188000000e+01 9.1188000000e+01 2.5412e-14 0.0000e+00
  9900012  1    3    3    0    0 -4.8021574706e-01 +1.4083867187e+01 -2.8603053043e+01 5.9301944028e+01 5.0000000000e+01 5.5203e-04 -1.0000e+00
      -12  1    3    3    0    0 +4.8021574706e-01 -1.4083867187e+01 +2.8603053043e+01 3.1886055972e+01 0.0000000000e+00 0.0000e+00 1.0000e+00
</event>
<event>
 5      8 +1.7896800e-02 9.11880000e+01 7.81616400e-03 1.18400000e-01
      -11 -1    0    0    0    0 +0.0000000000e+00 +0.0000000000e+00 +4.5593999997e+01 4.5594000000e+01 5.1100000000e-04 0.0000e+00 -1.0000e+00
       11 -1    0    0    0    0 -0.0000000000e+00 -0.0000000000e+00 -4.5593999997e+01 4.5594000000e+01 5.1100000000e-04 0.0000e+00 1.0000e+00
       23  2    1    2    0    0 +0.0000000000e+00 +0.0000000000e+00 +0.0000000000e+00 9.1188000000e+01 9.1188000000e+01 1.7737e-14 0.0000e+00
  9900012  1    3    3    0    0 +7.2381502041e+00 -8.5683402917e+00 +2.9848170660e+01 5.9301944028e+01 5.0000000000e+01 1.0762e-03 -1.0000e+00
      -12  1    3    3    0    0 -7.2381502041e+00 +8.5683402917e+00 -2.9848170660e+01 3.1886055972e+01 0.0000000000e+00 0.0000e+00 1.0000e+00
</event>
<event>
 5      8 +1.7896800e-02 9.11880000e+01 7.81616400e-03 1.18400000e-01
      -11 -1    0    0    0    0 +0.0000000000e+00 +0.0000000000e+00 +4.5593999997e+01 4.5594000000e+01 5.1100000000e-04 0.0000e+00 -1.0000e+00
       11 -1    0    0    0    0 -0.0000000000e+00 -0.0000000000e+00 -4.5593999997e+01 4.5594000000e+01 5.1100000000e-04 0.0000e+00 1.0000e+00
       23  2    1    2    0    0 +0.0000000000e+00 +0.0000000000e+00 +0.0000000000e+00 9.1188000000e+01 9.1188000000e+01 4.8638e-14 0.0000e+00
  9900012  1    3    3    0    0 -2.7719654272e+01 +1.5758518103e+01 -1.0217495660e-01 5.9301944028e+01 5.0000000000e+01 2.2276e-03 -1.0000e+00
      -12  1    3    3    0    0 +2.7719654272e+01 -1.5758518103e+01 +1.0217495660e-01 3.1886055972e+01 0.0000000000e+00 0.0000e+00 1.0000e+00
</event>
<event>
 5      3 +1.7896800e-02 9.11880000e+01 7.81616400e-03 1.18400000e-01
      -11 -1    0    0    0    0 +0.0000000000e+00 +0.0000000000e+00 +4.5593999997e+01 4.5594000000e+01 5.1100000000e-04 0.0000e+00 -1.0000e+00
       11 -1    0    0    0    0 -0.0000000000e+00 -0.0000000000e+00 -4.5593999997e+01 4.5594000000e+01 5.1100000000e-04 0.0000e+00 1.0000e+00
       23  2    1    2    0    0 +0.0000000000e+00 +0.0000000000e+00 +0.0000000000e+00 9.1188000000e+01 9.1188000000e+01 3.3043e-14 0.0000e+00
  9900012  1    3    3    0    0 +7.1151669231e+00 -2.4769173174e+01 -1.8777194290e+01 5.9301944028e+01 5.0000000000e+01 1.7670e-04 1.0000e+00
       12  1    3    3    0    0 -7.1151669231e+00 +2.4769173174e+01 +1.8777194290e+01 3.1886055972e+01 0.0000000000e+00 0.0000e+00 -1.0000e+00
</event>
<event>
 5      6 +1.7896800e-02 9.11880000e+01 7.81616400e-03 1.18400000e-01
      -11 -1    0    0    0    0 +0.0000000000e+00 +0.0000000000e+00 +4.5593999997e+01 4.5594000000e+01 5.1100000000e-04 0.0000e+00 1.0000e+00
       11 -1    0    0    0    0 -0.0000000000e+00 -0.0000000000e+00 -4.5593999997e+01 4.5594000000e+01 5.1100000000e-04 0.0000e+00 -1.0000e+00
       23  2    1    2    0    0 +0.0000000000e+00 +0.0000000000e+00 +0.0000000000e+00 9.1188000000e+01 9.1188000000e+01 6.4879e-14 0.0000e+00
  9900012  1    3    3    0    0 +2.0458073574e+01 -1.7539308557e+01 +1.7045833697e+01 5.9301944028e+01 5.0000000000e+01 1.3204e-03 1.0000e+00
      -12  1    3    3    0    0 -2.0458073574e+01 +1.7539308557e+01 -1.7045833697e+01 3.1886055972e+01 0.0000000000e+00 0.0000e+00 1.0000e+00
</event>
<event>
 5      8 +1.7896800e-02 9.11880000e+01 7.81616400e-03 1.18400000e-01
      -11 -1    0    0    0    0 +0.0000000000e+00 +0.0000000000e+00 +4.5593999997e+01 4.5594000000e+01 5.1100000000e-04 0.0000e+00 1.0000e+00
       11 -1    0    0    0    0 -0.0000000000e+00 -0.0000000000e+00 -4.5593999997e+01 4.5594000000e+01 5.1100000000e-04 0.0000e+00 -1.0000e+00
       23  2    1    2    0    0 +0.0000000000e+00 +0.0000000000e+00 +0.0000000000e+00 9.1188000000e+01 9.1188000000e+01 3.4125e-14 0.0000e+00
  9900012  1    3    3    0    0 -8.5583266944e+00 +7.9984106540e+00 -2.9656382731e+01 5.9301944028e+01 5.0000000000e+01 2.7479e-03 -1.0000e+00
      -12  1    3    3    0    0 +8.5583266944e+00 -7.9984106540e+00 +2.9656382731e+01 3.1886055972e+01 0.0000000000e+00 0.0000e+00 1.0000e+00
</event>
<event>
 5      8 +1.7896800e-02 9.11880000e+01 7.81616400e-03 1.18400000e-01
      -11 -1    0    0    0    0 +0.0000000000e+00 +0.0000000000e+00 +4.5593999997e+01 4.5594000000e+01 5.1100000000e-04 0.0000e+00 1.0000e+00
       11 -1    0    0    0    0 -0.0000000000e+00 -0.0000000000e+00 -4.5593999997e+01 4.5594000000e+01 5.1100000000e-04 0.0000e+00 -1.0000e+00
       23  2    1    2    0    0 +0.0000000000e+00 +0.0000000000e+00 +0.0000000000e+00 9.1188000000e+01 9.1188000000e+01 1.9230e-13 0.0000e+00
  9900012  1    3    3    0    0 -2.7349678277e+01 +1.6336998364e+01 -1.3483872202e+00 5.9301944028e+01 5.0000000000e+01 9.9624e-04 1.0000e+00
      -12  1    3    3    0    0 +2.7349678277e+01 -1.6336998364e+01 +1.3483872202e+00 3.1886055972e+01 0.0000000000e+00 0.0000e+00 1.0000e+00
</event>
<event>
 5      2 +1.7896800e-02 9.11880000e+01 7.81616400e-03 1.18400000e-01
      -11 -1    0    0    0    0 +0.0000000000e+00 +0.0000000000e+00 +4.5593999997e+01 4.5594000000e+01 5.1100000000e-04 0.0000e+00 1.0000e+00
       11 -1    0    0    0    0 -0.0000000000e+00 -0.0000000000e+00 -4.5593999997e+01 4.5594000000e+01 5.1100000000e-04 0.0000e+00 -1.0000e+00
       23  2    1    2    0    0 +0.0000000000e+00 +0.0000000000e+00 +0.0000000000e+00 9.1188000000e+01 9.1188000000e+01 3.0345e-14 0.0000e+00
  9900012  1    3    3    0    0 +1.1815130184e+01 -2.9004189134e+01 -5.9900147658e+00 5.9301944028e+01 5.0000000000e+01 7.0916e-04 -1.0000e+00
      -12  1    3    3    0    0 -1.1815130184e+01 +2.9004189134e+01 +5.9900147658e+00 3.1886055972e+01 0.0000000000e+00 0.0000e+00 1.0000e+00
</event>
<event>
 5      7 +1.7896800e-02 9.11880000e+01 7.81616400e-03 1.18400000e-01
      -11 -1    0    0    0    0 +0.0000000000e+00 +0.0000000000e+00 +4.5593999997e+01 4.5594000000e+01 5.1100000000e-04 0.0000e+00 1.0000e+00
       11 -1    0    0    0    0 -0.0000000000e+00 -0.0000000000e+00 -4.5593999997e+01 4.5594000000e+01 5.1100000000e-04 0.0000e+00 -1.0000e+00
       23  2    1    2    0    0 +0.0000000000e+00 +0.0000000000e+00 +0.0000000000e+00 9.1188000000e+01 9.1188000000e+01 1.4554e-13 0.0000e+00
  9900012  1    3    3    0    0 +2.1537734459e+01 -4.9592487799e+00 +2.2983742328e+01 5.9301944028e+01 5.0000000000e+01 1.6886e-04 1.0000e+00
       12  1    3    3    0    0 -2.1537734459e+01 +4.9592487799e+00 -2.2983742328e+01 3.1886055972e+01 0.0000000000e+00 0.0000e+00 -1.0000e+00
</event>
<event>
 5      3 +1.7896800e-02 9.11880000e+01 7.81616400e-03 1.18400000e-01
      -11 -1    0    0    0    0 +0.0000000000e+00 +0.0000000000e+00 +4.5593999997e+01 4.5594000000e+01 5.1100000000e-04 0.0000e+00 -1.0000e+00
       11 -1    0    0    0    0 -0.0000000000e+00 -0.0000000000e+00 -4.5593999997e+01 4.5594000000e+01 5.1100000000e-04 0.0000e+00 1.0000e+00
       23  2    1    2    0    0 +0.0000000000e+00 +0.0000000000e+00 +0.0000000000e+00 9.1188000000e+01 9.1188000000e+01 2.0193e-13 0.0000e+00
  9900012  1    3    3    0    0 +8.9293935817e+00 +1.6241558265e+01 -2.5946064843e+01 5.9301944028e+01 5.0000000000e+01 2.2856e-04 1.0000e+00
       12  1    3    3    0    0 -8.9293935817e+00 -1.6241558265e+01 +2.5946064843e+01 3.1886055972e+01 0.0000000000e+00 0.0000e+00 -1.0000e+00
</event>
<event>
 5      5 +1.7896800e-02 9.11880000e+01 7.81616400e-03 1.18400000e-01
      -11 -1    0    0    0    0 +0.0000000000e+00 +0.0000000000e+00 +4.5593999997e+01 4.5594000000e+01 5.1100000000e-04 0.0000e+00 1.0000e+00
       11 -1    0    0    0    0 -0.0000000000e+00 -0.0000000000e+00 -4.5593999997e+01 4.5594000000e+01 5.1100000000e-04 0.0000e+00 -1.0000e+00
       23  2    1    2    0    0 +0.0000000000e+00 +0.0000000000e+00 +0.0000000000e+00 9.1188000000e+01 9.1188000000e+01 1.4996e-14 0.0000e+00
  9900012  1    3    3    0    0 +1.5186031903e+00 -2.9911554963e+01 +1.0941356840e+01 5.9301944028e+01 5.0000000000e+01 4.9118e-04 1.0000e+00
       12  1    3    3    0    0 -1.5186031903e+00 +2.9911554963e+01 -1.0941356840e+01 3.1886055972e+01 0.0000000000e+00 0.0000e+00 -1.0000e+00
</event>
<event>
 5      8 +1.7896800e-02 9.11880000e+01 7.81616400e-03 1.18400000e-01
      -11 -1    0    0    0    0 +0.0000000000e+00 +0.0000000000e+00 +4.5593999997e+01 4.5594000000e+01 5.1100000000e-04 0.0000e+00 -1.0000e+00
       11 -1    0    0    0    0 -0.0000000000e+00 -0.0000000000e+00 -4.5593999997e+01 4.5594000000e+01 5.1100000000e-04 0.0000e+00 1.0000e+00
       23  2    1    2    0    0 +0.0000000000e+00 +0.0000000000e+00 +0.0000000000e+00 9.1188000000e+01 9.1188000000e+01 2.2309e-14 0.0000e+00
  9900012  1    3    3    0    0 +7.6424587053e+00 -2.5165219621e+01 +1.8028452841e+01 5.9301944028e+01 5.0000000000e+01 4.5586e-04 -1.0000e+00
      -12  1    3    3    0    0 -7.6424587053e+00 +2.5165219621e+01 -1.8028452841e+01 3.1886055972e+01 0.0000000000e+00 0.0000e+00 1.0000e+00
</event>
<event>
 5      4 +1.7896800e-02 9.11880000e+01 7.81616400e-03 1.18400000e-01
      -11 -1    0    0    0    0 +0.0000000000e+00 +0.0000000000e+00 +4.5593999997e+01 4.5594000000e+01 5.1100000000e-04 0.0000e+00 1.0000e+00
       11 -1    0    0    0    0 -0.0000000000e+00 -0.0000000000e+00 -4.5593999997e+01 4.5594000000e+01 5.1100000000e-04 0.0000e+00 -1.0000e+00
       23  2    1    2    0    0 +0.0000000000e+00 +0.0000000000e+00 +0.0000000000e+00 9.1188000000e+01 9.1188000000e+01 7.0600e-14 0.0000e+00
  9900012  1    3    3    0    0 -1.0800057539e+00 +2.6656936306e+00 -3.1756073915e+01 5.9301944028e+01 5.0000000000e+01 4.3684e-04 -1.0000e+00
      -12  1    3    3    0    0 +1.0800057539e+00 -2.6656936306e+00 +3.1756073915e+01 3.1886055972e+01 0.0000000000e+00 0.0000e+00 1.0000e+00
</event>
<event>
 5      2 +1.7896800e-02 9.11880000e+01 7.81616400e-03 1.18400000e-01
      -11 -1    0    0    0    0 +0.0000000000e+00 +0.0000000000e+00 +4.5593999997e+01 4.5594000000e+01 5.1100000000e-04 0.0000e+00 1.0000e+00
       11 -1    0    0    0    0 -0.0000000000e+00 -0.0000000000e+00 -4.5593999997e+01 4.5594000000e+01 5.1100000000e-04 0.0000e+00 -1.0000e+00
       23  2    1    2    0    0 +0.0000000000e+00 +0.0000000000e+00 +0.0000000000e+00 9.1188000000e+01 9.1188000000e+01 3.9823e-15 0.0000e+00
  9900012  1    3    3    0    0 +2.7941221113e+00 -1.3454419035e+01 -2.8773113414e+01 5.9301944028e+01 5.0000000000e+01 2.9739e-04 -1.0000e+00
      -12  1    3    3    0    0 -2.7941221113e+00 +1.3454419035e+01 +2.8773113414e+01 3.1886055972e+01 0.0000000000e+00 0.0000e+00 1.0000e+00
</event>
<event>
 5      3 +1.7896800e-02 9.11880000e+01 7.81616400e-03 1.18400000e-01
      -11 -1    0    0    0    0 +0.0000000000e+00 +0.0000000000e+00 +4.5593999997e+01 4.5594000000e+01 5.1100000000e-04 0.0000e+00 -1.0000e+00
       11 -1    0    0    0    0 -0.0000000000e+00 -0.0000000000e+00 -4.5593999997e+01 4.5594000000e+01 5.1100000000e-04 0.0000e+00 1.0000e+00
       23  2    1    2    0    0 +0.0000000000e+00 +0.0000000000e+00 +0.0000000000e+00 9.1188000000e+01 9.1188000000e+01 1.8554e-14 0.0000e+00
  9900012  1    3    3    0    0 -1.6283374199e+01 +1.0277031112e+01 -2.5415643247e+01 5.9301944028e+01 5.0000000000e+01 3.6196e-04 1.0000e+00
       12  1    3    3    0    0 +1.6283374199e+01 -1.0277031112e+01 +2.5415643247e+01 3.1886055972e+01 0.0000000000e+00 0.0000e+00 -1.0000e+00
</event>
<event>
 5      8 +1.7896800e-02 9.11880000e+01 7.81616400e-03 1.18400000e-01
      -11 -1    0    0    0    0 +0.0000000000e+00 +0.0000000000e+00 +4.5593999997e+01 4.5594000000e+01 5.1100000000e-04 0.0000e+00 -1.0000e+00
       11 -1    0    0    0    0 -0.0000000000e+00 -0.0000000000e+00 -4.5593999997e+01 4.5594000000e+01 5.1100000000e-04 0.0000e+00 1.0000e+00
       23  2    1    2    0    0 +0.0000000000e+00 +0.0000000000e+00 +0.0000000000e+00 9.1188000000e+01 9.1188000000e+01 4.8653e-15 0.0000e+00
  9900012  1    3    3    0    0 -2.2002712216e-01 +1.8918428618e+01 +2.5666421881e+01 5.9301944028e+01 5.0000000000e+01 2.8295e-06 -1.0000e+00
      -12  1    3    3    0    0 +2.2002712216e-01 -1.8918428618e+01 -2.5666421881e+01 3.1886055972e+01 0.0000000000e+00 0.0000e+00 1.0000e+00
</event>
<event>
 5      6 +1.7896800e-02 9.11880000e+01 7.81616400e-03 1.18400000e-01
      -11 -1    0    0    0    0 +0.0000000000e+00 +0.0000000000e+00 +4.5593999997e+01 4.5594000000e+01 5.1100000000e-04 0.0000e+00 -1.0000e+00
       11 -1    0    0    0    0 -0.0000000000e+00 -0.0000000000e+00 -4.5593999997e+01 4.5594000000e+01 5.1100000000e-04 0.0000e+00 1.0000e+00
       23  2    1    2    0    0 +0.0000000000e+00 +0.0000000000e+00 +0.0000000000e+00 9.1188000000e+01 9.1188000000e+01 3.2252e-13 0.0000e+00
  9900012  1    3    3    0    0 +1.4436907343e+01 +2.3484677744e+01 -1.6023925333e+01 5.9301944028e+01 5.0000000000e+01 7.9238e-04 -1.0000e+00
      -12  1    3    3    0    0 -1.4436907343e+01 -2.3484677744e+01 +1.6023925333e+01 3.1886055972e+01 0.0000000000e+00 0.0000e+00 1.0000e+00
</event>
<event>
 5      3 +1.7896800e-02 9.11880000e+01 7.81616400e-03 1.18400000e-01
      -11 -1    0    0    0    0 +0.0000000000e+00 +0.0000000000e+00 +4.5593999997e+01 4.5594000000e+01 5.1100000000e-04 0.0000e+00 1.0000e+00
       11 -1    0    0    0    0 -0.0000000000e+00 -0.0000000000e+00 -4.5593999997e+01 4.5594000000e+01 5.1100000000e-04 0.0000e+00 -1.0000e+00
       23  2    1    2    0    0 +0.0000000000e+00 +0.0000000000e+00 +0.0000000000e+00 9.1188000000e+01 9.1188000000e+01 3.0000e-13 0.0000e+00
  9900012  1    3    3    0    0 -1.6699880043e+00 +2.9018909611e+01 +1.3108569355e+01 5.9301944028e+01 5.0000000000e+01 3.0523e-03 1.0000e+00
       12  1    3    3    0    0 +1.6699880043e+00 -2.9018909611e+01 -1.3108569355e+01 3.1886055972e+01 0.0000000000e+00 0.0000e+00 -1.0000e+00
</event>
<event>
 5      3 +1.7896800e-02 9.11880000e+01 7.81616400e-03 1.18400000e-01
      -11 -1    0    0    0    0 +0.0000000000e+00 +0.0000000000e+00 +4.5593999997e+01 4.5594000000e+01 5.1100000000e-04 0.0000e+00 -1.0000e+00
       11 -1    0    0    0    0 -0.0000000000e+00 -0.0000000000e+00 -4.5593999997e+01 4.5594000000e+01 5.1100000000e-04 0.0000e+00 1.0000e+00
       23  2    1    2    0    0 +0.0000000000e+00 +0.0000000000e+00 +0.0000000000e+00 9.1188000000e+01 9.1188000000e+01 4.3088e-14 0.0000e+00
  9900012  1    3    3    0    0 +1.5785688903e+00 -2.3747572574e+00 -3.1758293621e+01 5.9301944028e+01 5.0000000000e+01 1.7613e-03 1.0000e+00
       12  1    3    3    0    0 -1.5785688903e+00 +2.3747572574e+00 +3.1758293621e+01 3.1886055972e+01 0.0000000000e+00 0.0000e+00 -1.0000e+00
</event>
<event>
 5      6 +1.7896800e-02 9.11880000e+01 7.81616400e-03 1.18400000e-01
      -11 -1    0    0    0    0 +0.0000000000e+00 +0.0000000000e+00 +4.5593999997e+01 4.5594000000e+01 5.1100000000e-04 0.0000e+00 -1.0000e+00
       11 -1    0    0    0    0 -0.0000000000e+00 -0.0000000000e+00 -4.5593999997e+01 4.5594000000e+01 5.1100000000e-04 0.0000e+00 1.0000e+00
       23  2    1    2    0    0 +0.0000000000e+00 +0.0000000000e+00 +0.0000000000e+00 9.1188000000e+01 9.1188000000e+01 5.4711e-15 0.0000e+00
  9900012  1    3    3    0    0 +2.1362502135e+01 -2.0104940506e+01 +1.2496216838e+01 5.9301944028e+01 5.0000000000e+01 1.7143e-04 -1.0000e+00
      -12  1    3    3    0    0 -2.1362502135e+01 +2.0104940506e+01 -1.2496216838e+01 3.1886055972e+01 0.0000000000e+00 0.0000e+00 1.0000e+00
</event>
<event>
 5      7 +1.7896800e-02 9.11880000e+01 7.81616400e-03 1.18400000e-01
      -11 -1    0    0    0    0 +0.0000000000e+00 +0.0000000000e+00 +4.5593999997e+01 4.5594000000e+01 5.1100000000e-04 0.0000e+00 -1.0000e+00
       11 -1    0    0    0    0 -0.0000000000e+00 -0.0000000000e+00 -4.5593999997e+01 4.5594000000e+01 5.1100000000e-04 0.0000e+00 1.0000e+00
       23  2    1    2    0    0 +0.0000000000e+00 +0.0000000000e+00 +0.0000000000e+00 9.1188000000e+01 9.1188000000e+01 1.8411e-13 0.0000e+00
  9900012  1    3    3    0    0 -9.3007944108e-01 -4.6227416930e+00 -3.1535468554e+01 5.9301944028e+01 5.0000000000e+01 6.5826e-04 1.0000e+00
       12  1    3    3    0    0 +9.3007944108e-01 +4.6227416930e+00 +3.1535468554e+01 3.1886055972e+01 0.0000000000e+00 0.0000e+00 -1.0000e+00
</event>
<event>
 5      1 +1.7896800e-02 9.11880000e+01 7.81616400e-03 1.18400000e-01
      -11 -1    0    0    0    0 +0.0000000000e+00 +0.0000000000e+00 +4.5593999997e+01 4.5594000000e+01 5.1100000000e-04 0.0000e+00 -1.0000e+00
       11 -1    0    0    0    0 -0.0000000000e+00 -0.0000000000e+00 -4.5593999997e+01 4.5594000000e+01 5.1100000000e-04 0.0000e+00 1.0000e+00
       23  2    1    2    0    0 +0.0000000000e+00 +0.0000000000e+00 +0.0000000000e+00 9.1188000000e+01 9.1188000000e+01 1.1695e-14 0.0000e+00
  9900012  1    3    3    0    0 -4.5217615776e+00 -1.3339943144e+01 -2.8606295716e+01 5.9301944028e+01 5.0000000000e+01 1.2313e-04 1.0000e+00
       12  1    3    3    0    0 +4.5217615776e+00 +1.3339943144e+01 +2.8606295716e+01 3.1886055972e+01 0.0000000000e+00 0.0000e+00 -1.0000e+00
</event>
<event>
 5      3 +1.7896800e-02 9.11880000e+01 7.81616400e-03 1.18400000e-01
      -11 -1    0    0    0    0 +0.0000000000e+00 +0.0000000000e+00 +4.5593999997e+01 4.5594000000e+01 5.1100000000e-04 0.0000e+00 1.0000e+00
       11 -1    0    0    0    0 -0.0000000000e+00 -0.0000000000e+00 -4.5593999997e+01 4.5594000000e+01 5.1100000000e-04 0.0000e+00 -1.0000e+00
       23  2    1    2    0    0 +0.0000000000e+00 +0.0000000000e+00 +0.0000000000e+00 9.1188000000e+01 9.1188000000e+01 3.3966e-15 0.0000e+00
  9900012  1    3    3    0    0 +2.4457980926e+01 -1.1437311850e+01 +1.6962182411e+01 5.9301944028e+01 5.0000000000e+01 7.0269e-04 1.0000e+00
       12  1    3    3    0    0 -2.4457980926e+01 +1.1437311850e+01 -1.6962182411e+01 3.1886055972e+01 0.0000000000e+00 0.0000e+00 -1.0000e+00
</event>
<event>
 5      6 +1.7896800e-02 9.11880000e+01 7.81616400e-03 1.18400000e-01
      -11 -1    0    0    0    0 +0.0000000000e+00 +0.0000000000e+00 +4.5593999997e+01 4.5594000000e+01 5.1100000000e-04 0.0000e+00 1.0000e+00
       11 -1    0    0    0    0 -0.0000000000e+00 -0.0000000000e+00 -4.5593999997e+01 4.5594000000e+01 5.1100000000e-04 0.0000e+00 -1.0000e+00
       23  2    1    2    0    0 +0.0000000000e+00 +0.0000000000e+00 +0.0000000000e+00 9.1188000000e+01 9.1188000000e+01 9.9023e-14 0.0000e+00
  9900012  1    3    3    0    0 +6.3009333433e+00 -1.5813291280e+01 -2.6962170227e+01 5.9301944028e+01 5.0000000000e+01 8.8671e-04 -1.0000e+00
      -12  1    3    3    0    0 -6.3009333433e+00 +1.5813291280e+01 +2.6962170227e+01 3.1886055972e+01 0.0000000000e+00 0.0000e+00 1.0000e+00
</event>
<event>
 5      7 +1.7896800e-02 9.11880000e+01 7.81616400e-03 1.18400000e-01
      -11 -1    0    0    0    0 +0.0000000000e+00 +0.0000000000e+00 +4.5593999997e+01 4.5594000000e+01 5.1100000000e-04 0.0000e+00 1.0000e+00
       11 -1    0    0    0    0 -0.0000000000e+00 -0.0000000000e+00 -4.5593999997e+01 4.5594000000e+01 5.1100000000e-04 0.0000e+00 -1.0000e+00
       23  2    1    2    0    0 +0.0000000000e+00 +0.0000000000e+00 +0.0000000000e+00 9.1188000000e+01 9.1188000000e+01 5.3445e-14 0.0000e+00
  9900012  1    3    3    0    0 +2.4941953161e+01 +7.0530016438e+00 +1.8570802508e+01 5.9301944028e+01 5.0000000000e+01 1.0226e-03 1.0000e+00
       12  1    3    3    0    0 -2.4941953161e+01 -7.0530016438e+00 -1.8570802508e+01 3.1886055972e+01 0.0000000000e+00 0.0000e+00 -1.0000e+00
</event>
<event>
 5      8 +1.7896800e-02 9.11880000e+01 7.81616400e-03 1.18400000e-01
      -11 -1    0    0    0    0 +0.0000000000e+00 +0.0000000000e+00 +4.5593999997e+01 4.5594000000e+01 5.1100000000e-04 0.0000e+00 1.0000e+00
       11 -1    0    0    0    0 -0.0000000000e+00 -0.0000000000e+00 -4.5593999997e+01 4.5594000000e+01 5.1100000000e-04 0.0000e+00 -1.0000e+00
       23  2    1    2    0    0 +0.0000000000e+00 +0.0000000000e+00 +0.0000000000e+00 9.1188000000e+01 9.1188000000e+01 3.4638e-14 0.0000e+00
  9900012  1    3    3    0    0 -2.5346205907e+01 -9.7581292984e+00 +1.6705368125e+01 5.9301944028e+01 5.0000000000e+01 5.4987e-05 1.0000e+00
      -12  1    3    3    0    0 +2.5346205907e+01 +9.7581292984e+00 -1.6705368125e+01 3.1886055972e+01 0.0000000000e+00 0.0000e+00 1.0000e+00
</event>
<event>
 5      7 +1.7896800e-02 9.11880000e+01 7.81616400e-03 1.18400000e-01
      -11 -1    0    0    0    0 +0.0000000000e+00 +0.0000000000e+00 +4.5593999997e+01 4.5594000000e+01 5.1100000000e-04 0.0000e+00 1.0000e+00
       11 -1    0    0    0    0 -0.0000000000e+00 -0.0000000000e+00 -4.5593999997e+01 4.5594000000e+01 5.1100000000e-04 0.0000e+00 -1.0000e+00
       23  2    1    2    0    0 +0.0000000000e+00 +0.0000000000e+00 +0.0000000000e+00 9.1188000000e+01 9.1188000000e+01 9.4099e-14 0.0000e+00
  9900012  1    3    3    0    0 +1.6417471852e+01 -2.1580969906e+01 +1.6776439472e+01 5.9301944028e+01 5.0000000000e+01 9.0050e-04 1.0000e+00
       12  1    3    3    0    0 -1.6417471852e+01 +2.1580969906e+01 -1.6776439472e+01 3.1886055972e+01 0.0000000000e+00 0.0000e+00 -1.0000e+00
</event>
<event>
 5      2 +1.7896800e-02 9.11880000e+01 7.81616400e-03 1.18400000e-01
      -11 -1    0    0    0    0 +0.0000000000e+00 +0.0000000000e+00 +4.5593999997e+01 4.5594000000e+01 5.1100000000e-04 0.0000e+00 -1.0000e+00
       11 -1    0    0    0    0 -0.0000000000e+00 -0.0000000000e+00 -4.5593999997e+01 4.5594000000e+01 5.1100000000e-04 0.0000e+00 1.0000e+00
       23  2    1    2    0    0 +0.0000000000e+00 +0.0000000000e+00 +0.0000000000e+00 9.1188000000e+01 9.1188000000e+01 1.1510e-13 0.0000e+00
  9900012  1    3    3    0    0 +2.6293753233e+01 -5.0077195375e+00 +1.7328642516e+01 5.9301944028e+01 5.0000000000e+01 6.7742e-04 -1.0000e+00
      -12  1    3    3    0    0 -2.6293753233e+01 +5.0077195375e+00 -1.7328642516e+01 3.1886055972e+01 0.0000000000e+00 0.0000e+00 1.0000e+00
</event>
<event>
 5      6 +1.7896800e-02 9.11880000e+01 7.81616400e-03 1.18400000e-01
      -11 -1    0    0    0    0 +0.0000000000e+00 +0.0000000000e+00 +4.5593999997e+01 4.5594000000e+01 5.1100000000e-04 0.0000e+00 -1.0000e+00
       11 -1    0    0    0    0 -0.0000000000e+00 -0.0000000000e+00 -4.5593999997e+01 4.5594000000e+01 5.1100000000e-04 0.0000e+00 1.0000e+00
       23  2    1    2    0    0 +0.0000000000e+00 +0.0000000000e+00 +0.0000000000e+00 9.1188000000e+01 9.1188000000e+01 4.6078e-14 0.0000e+00
  9900012  1    3    3    0    0 +1.2154007579e+01 +2.7718248712e+01 +1.0034906755e+01 5.9301944028e+01 5.0000000000e+01 1.1795e-03 -1.0000e+00
      -12  1    3    3    0    0 -1.2154007579e+01 -2.7718248712e+01 -1.0034906755e+01 3.1886055972e+01 0.0000000000e+00 0.0000e+00 1.0000e+00
</event>
<event>
 5      6 +1.7896800e-02 9.11880000e+01 7.81616400e-03 1.18400000e-01
      -11 -1    0    0    0    0 +0.0000000000e+00 +0.0000000000e+00 +4.5593999997e+01 4.5594000000e+01 5.1100000000e-04 0.0000e+00 1.0000e+00
       11 -1    0    0    0    0 -0.0000000000e+00 -0.0000000000e+00 -4.5593999997e+01 4.5594000000e+01 5.1100000000e-04 0.0000e+00 -1.0000e+00
       23  2    1    2    0    0 +0.0000000000e+00 +0.0000000000e+00 +0.0000000000e+00 9.1188000000e+01 9.1188000000e+01 1.2352e-15 0.0000e+00
  9900012  1    3    3    0    0 +1.2311023190e+01 -1.4364390456e+01 -2.5667558519e+01 5.9301944028e+01 5.0000000000e+01 3.7757e-04 -1.0000e+00
      -12  1    3    3    0    0 -1.2311023190e+01 +1.4364390456e+01 +2.5667558519e+01 3.1886055972e+01 0.0000000000e+00 0.0000e+00 1.0000e+00
</event>
<event>
 5      7 +1.7896800e-02 9.11880000e+01 7.81616400e-03 1.18400000e-01
      -11 -1    0    0    0    0 +0.0000000000e+00 +0.0000000000e+00 +4.5593999997e+01 4.5594000000e+01 5.1100000000e-04 0.0000e+00 -1.0000e+00
       11 -1    0    0    0    0 -0.0000000000e+00 -0.0000000000e+00 -4.5593999997e+01 4.5594000000e+01 5.1100000000e-04 0.0000e+00 1.0000e+00
       23  2    1    2    0    0 +0.0000000000e+00 +0.0000000000e+00 +0.0000000000e+00 9.1188000000e+01 9.1188000000e+01 3.2922e-14 0.0000e+00
  9900012  1    3    3    0    0 +4.7199421150e+00 -1.4673946195e+01 -2.7912685556e+01 5.9301944028e+01 5.0000000000e+01 7.5538e-05 1.0000e+00
       12  1    3    3    0    0 -4.7199421150e+00 +1.4673946195e+01 +2.7912685556e+01 3.1886055972e+01 0.0000000000e+00 0.0000e+00 -1.0000e+00
</event>
<event>
 5      8 +1.7896800e-02 9.11880000e+01 7.81616400e-03 1.18400000e-01
      -11 -1    0    0    0    0 +0.0000000000e+00 +0.0000000000e+00 +4.5593999997e+01 4.5594000000e+01 5.1100000000e-04 0.0000e+00 1.0000e+00
       11 -1    0    0    0    0 -0.0000000000e+00 -0.0000000000e+00 -4.5593999997e+01 4.5594000000e+01 5.1100000000e-04 0.0000e+00 -1.0000e+00
       23  2    1    2    0    0 +0.0000000000e+00 +0.0000000000e+00 +0.0000000000e+00 9.1188000000e+01 9.1188000000e+01 3.5664e-14 0.0000e+00
  9900012  1    3    3    0    0 +2.8767909722e+01 +1.3491857138e+01 -2.6641559028e+00 5.9301944028e+01 5.0000000000e+01 7.4003e-05 -1.0000e+00
      -12  1    3    3    0    0 -2.8767909722e+01 -1.3491857138e+01 +2.6641559028e+00 3.1886055972e+01 0.0000000000e+00 0.0000e+00 1.0000e+00
</event>
<event>
 5      1 +1.7896800e-02 9.11880000e+01 7.81616400e-03 1.18400000e-01
      -11 -1    0    0    0    0 +0.0000000000e+00 +0.0000000000e+00 +4.5593999997e+01 4.5594000000e+01 5.1100000000e-04 0.0000e+00 1.0000e+00
       11 -1    0    0    0    0 -0.0000000000e+00 -0.0000000000e+00 -4.5593999997e+01 4.5594000000e+01 5.1100000000e-04 0.0000e+00 -1.0000e+00
       23  2    1    2    0    0 +0.0000000000e+00 +0.0000000000e+00 +0.0000000000e+00 9.1188000000e+01 9.1188000000e+01 3.7690e-16 0.0000e+00
  9900012  1    3    3    0    0 +2.5302200922e+01 +1.6999047077e+00 +1.9329498647e+01 5.9301944028e+01 5.0000000000e+01 1.7308e-03 1.0000e+00
       12  1    3    3    0    0 -2.5302200922e+01 -1.6999047077e+00 -1.9329498647e+01 3.1886055972e+01 0.0000000000e+00 0.0000e+00 -1.0000e+00
</event>
<event>
 5      6 +1.7896800e-02 9.11880000e+01 7.81616400e-03 1.18400000e-01
      -11 -1    0    0    0    0 +0.0000000000e+00 +0.0000000000e+00 +4.5593999997e+01 4.5594000000e+01 5.1100000000e-04 0.0000e+00 -1.0000e+00
       11 -1    0    0    0    0 -0.0000000000e+00 -0.0000000000e+00 -4.5593999997e+01 4.5594000000e+01 5.1100000000e-04 0.0000e+00 1.0000e+00
       23  2    1    2    0    0 +0.0000000000e+00 +0.0000000000e+00 +0.0000000000e+00 9.1188000000e+01 9.1188000000e+01 2.2737e-13 0.0000e+00
  9900012  1    3    3    0    0 -2.3192424266e+01 -1.4417236523e+01 +1.6461327808e+01 5.9301944028e+01 5.0000000000e+01 6.6068e-04 -1.0000e+00
      -12  1    3    3    0    0 +2.3192424266e+01 +1.4417236523e+01 -1.6461327808e+01 3.1886055972e+01 0.0000000000e+00 0.0000e+00 1.0000e+00
</event>
<event>
 5      8 +1.7896800e-02 9.11880000e+01 7.81616400e-03 1.18400000e-01
      -11 -1    0    0    0    0 +0.0000000000e+00 +0.0000000000e+00 +4.5593999997e+01 4.5594000000e+01 5.1100000000e-04 0.0000e+00 1.0000e+00
       11 -1    0    0    0    0 -0.0000000000e+00 -0.0000000000e+00 -4.5593999997e+01 4.5594000000e+01 5.1100000000e-04 0.0000e+00 -1.0000e+00
       23  2    1    2    0    0 +0.0000000000e+00 +0.0000000000e+00 +0.0000000000e+00 9.1188000000e+01 9.1188000000e+01 1.6407e-13 0.0000e+00
  9900012  1    3    3    0    0 -1.2686980255e+01 -2.6633686293e+01 -1.2099911235e+01 5.9301944028e+01 5.0000000000e+01 4.9008e-06 -1.0000e+00
      -12  1    3    3    0    0 +1.2686980255e+01 +2.6633686293e+01 +1.2099911235e+01 3.1886055972e+01 0.0000000000e+00 0.0000e+00 1.0000e+00
</event>
<event>
 5      8 +1.7896800e-02 9.11880000e+01 7.81616400e-03 1.18400000e-01
      -11 -1    0    0    0    0 +0.0000000000e+00 +0.0000000000e+00 +4.5593999997e+01 4.5594000000e+01 5.1100000000e-04 0.0000e+00 1.0000e+00
       11 -1    0    0    0    0 -0.0000000000e+00 -0.0000000000e+00 -4.5593999997e+01 4.5594000000e+01 5.1100000000e-04 0.0000e+00 -1.0000e+00
       23  2    1    2    0    0 +0.0000000000e+00 +0.0000000000e+00 +0.0000000000e+00 9.1188000000e+01 9.1188000000e+01 3.6707e-14 0.0000e+00
  9900012  1    3    3    0    0 -7.5224463832e-01 -1.5592683770e+01 -2.7803289487e+01 5.9301944028e+01 5.0000000000e+01 6.1540e-04 -1.0000e+00
      -12  1    3    3    0    0 +7.5224463832e-01 +1.5592683770e+01 +2.7803289487e+01 3.1886055972e+01 0.0000000000e+00 0.0000e+00 1.0000e+00
</event>
<event>
 5      4 +1.7896800e-02 9.11880000e+01 7.81616400e-03 1.18400000e-01
      -11 -1    0    0    0    0 +0.0000000000e+00 +0.0000000000e+00 +4.5593999997e+01 4.5594000000e+01 5.1100000000e-04 0.0000e+00 -1.0000e+00
       11 -1    0    0    0    0 -0.0000000000e+00 -0.0000000000e+00 -4.5593999997e+01 4.5594000000e+01 5.1100000000e-04 0.0000e+00 1.0000e+00
       23  2    1    2    0    0 +0.0000000000e+00 +0.0000000000e+00 +0.0000000000e+00 9.1188000000e+01 9.1188000000e+01 5.8564e-14 0.0000e+00
  9900012  1    3    3    0    0 +2.5575844662e+01 -1.7154172846e+01 -8.2662621096e+00 5.9301944028e+01 5.0000000000e+01 7.8260e-04 1.0000e+00
      -12  1    3    3    0    0 -2.5575844662e+01 +1.7154172846e+01 +8.2662621096e+00 3.1886055972e+01 0.0000000000e+00 0.0000e+00 1.0000e+00
</event>
<event>
 5      6 +1.7896800e-02 9.11880000e+01 7.81616400e-03 1.18400000e-01
      -11 -1    0    0    0    0 +0.0000000000e+00 +0.0000000000e+00 +4.5593999997e+01 4.5594000000e+01 5.1100000000e-04 0.0000e+00 1.0000e+00
       11 -1    0    0    0    0 -0.0000000000e+00 -0.0000000000e+00 -4.5593999997e+01 4.5594000000e+01 5.1100000000e-04 0.0000e+00 -1.0000e+00
       23  2    1    2    0    0 +0.0000000000e+00 +0.0000000000e+00 +0.0000000000e+00 9.1188000000e+01 9.1188000000e+01 2.8917e-14 0.0000e+00
  9900012  1    3    3    0    0 -3.1195944441e+00 -1.0823975932e+01 -2.9830022477e+01 5.9301944028e+01 5.0000000000e+01 2.1715e-03 -1.0000e+00
      -12  1    3    3    0    0 +3.1195944441e+00 +1.0823975932e+01 +2.9830022477e+01 3.1886055972e+01 0.0000000000e+00 0.0000e+00 1.0000e+00
</event>
<event>
 5      4 +1.7896800e-02 9.11880000e+01 7.81616400e-03 1.18400000e-01
      -11 -1    0    0    0    0 +0.0000000000e+00 +0.0000000000e+00 +4.5593999997e+01 4.5594000000e+01 5.1100000000e-04 0.0000e+00 -1.0000e+00
       11 -1    0    0    0    0 -0.0000000000e+00 -0.0000000000e+00 -4.5593999997e+01 4.5594000000e+01 5.1100000000e-04 0.0000e+00 1.0000e+00
       23  2    1    2    0    0 +0.0000000000e+00 +0.0000000000e+00 +0.0000000000e+00 9.1188000000e+01 9.1188000000e+01 2.0488e-13 0.0000e+00
  9900012  1    3    3    0    0 -2.8552489898e+01 +1.4138558586e+01 -1.2558053915e+00 5.9301944028e+01 5.0000000000e+01 1.0770e-03 1.0000e+00
      -12  1    3    3    0    0 +2.8552489898e+01 -1.4138558586e+01 +1.2558053915e+00 3.1886055972e+01 0.0000000000e+00 0.0000e+00 1.0000e+00
</event>
<event>
 5      5 +1.7896800e-02 9.11880000e+01 7.81616400e-03 1.18400000e-01
      -11 -1    0    0    0    0 +0.0000000000e+00 +0.0000000000e+00 +4.5593999997e+01 4.5594000000e+01 5.1100000000e-04 0.0000e+00 -1.0000e+00
       11 -1    0    0    0    0 -0.0000000000e+00 -0.0000000000e+00 -4.5593999997e+01 4.5594000000e+01 5.1100000000e-04 0.0000e+00 1.0000e+00
       23  2    1    2    0    0 +0.0000000000e+00 +0.0000000000e+00 +0.0000000000e+00 9.1188000000e+01 9.1188000000e+01 4.7685e-14 0.0000e+00
  9900012  1    3    3    0    0 +2.5642540048e+01 +1.8230454736e+01 +5.1798866282e+00 5.9301944028e+01 5.0000000000e+01 1.8448e-03 1.0000e+00
       12  1    3    3    0    0 -2.5642540048e+01 -1.8230454736e+01 -5.1798866282e+00 3.1886055972e+01 0.0000000000e+00 0.0000e+00 -1.0000e+00
</event>
<event>
 5      2 +1.7896800e-02 9.11880000e+01 7.81616400e-03 1.18400000e-01
      -11 -1    0    0    0    0 +0.0000000000e+00 +0.0000000000e+00 +4.5593999997e+01 4.5594000000e+01 5.1100000000e-04 0.0000e+00 -1.0000e+00
       11 -1    0    0    0    0 -0.0000000000e+00 -0.0000000000e+00 -4.5593999997e+01 4.5594000000e+01 5.1100000000e-04 0.0000e+00 1.0000e+00
       23  2    1    2    0    0 +0.0000000000e+00 +0.0000000000e+00 +0.0000000000e+00 9.1188000000e+01 9.1188000000e+01 5.0700e-14 0.0000e+00
  9900012  1    3    3    0    0 -1.2658872589e+01 +2.3942571104e+01 +1.6829343398e+01 5.9301944028e+01 5.0000000000e+01 5.3142e-04 -1.0000e+00
      -12  1    3    3    0    0 +1.2658872589e+01 -2.3942571104e+01 -1.6829343398e+01 3.1886055972e+01 0.0000000000e+00 0.0000e+00 1.0000e+00
</event>
<event>
 5      5 +1.7896800e-02 9.11880000e+01 7.81616400e-03 1.18400000e-01
      -11 -1    0    0    0    0 +0.0000000000e+00 +0.0000000000e+00 +4.5593999997e+01 4.5594000000e+01 5.1100000000e-04 0.0000e+00 1.0000e+00
       11 -1    0    0    0    0 -0.0000000000e+00 -0.0000000000e+00 -4.5593999997e+01 4.5594000000e+01 5.1100000000e-04 0.0000e+00 -1.0000e+00
       23  2    1    2    0    0 +0.0000000000e+00 +0.0000000000e+00 +0.0000000000e+00 9.1188000000e+01 9.1188000000e+01 3.8807e-14 0.0000e+00
  9900012  1    3    3    0    0 +2.1232786333e+01 -2.3566043262e+01 -3.2451432934e+00 5.9301944028e+01 5.0000000000e+01 7.2338e-04 1.0000e+00
       12  1    3    3    0    0 -2.1232786333e+01 +2.3566043262e+01 +3.2451432934e+00 3.1886055972e+01 0.0000000000e+00 0.0000e+00 -1.0000e+00
</event>
<event>
 5      7 +1.7896800e-02 9.11880000e+01 7.81616400e-03 1.18400000e-01
      -11 -1    0    0    0    0 +0.0000000000e+00 +0.0000000000e+00 +4.5593999997e+01 4.5594000000e+01 5.1100000000e-04 0.0000e+00 -1.0000e+00
       11 -1    0    0    0    0 -0.0000000000e+00 -0.0000000000e+00 -4.5593999997e+01 4.5594000000e+01 5.1100000000e-04 0.0000e+00 1.0000e+00
       23  2    1    2    0    0 +0.0000000000e+00 +0.0000000000e+00 +0.0000000000e+00 9.1188000000e+01 9.1188000000e+01 3.3935e-14 0.0000e+00
  9900012  1    3    3    0    0 -2.8335042193e+01 -5.7123849702e+00 -1.3461597503e+01 5.9301944028e+01 5.0000000000e+01 3.4974e-03 1.0000e+00
       12  1    3    3    0    0 +2.8335042193e+01 +5.7123849702e+00 +1.3461597503e+01 3.1886055972e+01 0.0000000000e+00 0.0000e+00 -1.0000e+00
</event>
<event>
 5      1 +1.7896800e-02 9.11880000e+01 7.81616400e-03 1.18400000e-01
      -11 -1    0    0    0    0 +0.0000000000e+00 +0.0000000000e+00 +4.5593999997e+01 4.5594000000e+01 5.1100000000e-04 0.0000e+00 -1.0000e+00
       11 -1    0    0    0    0 -0.0000000000e+00 -0.0000000000e+00 -4.5593999997e+01 4.5594000000e+01 5.1100000000e-04 0.0000e+00 1.0000e+00
       23  2    1    2    0    0 +0.0000000000e+00 +0.0000000000e+00 +0.0000000000e+00 9.1188000000e+01 9.1188000000e+01 9.4229e-14 0.0000e+00
  9900012  1    3    3    0    0 +2.5690184032e+01 +1.8272988585e+01 +4.7783781793e+00 5.9301944028e+01 5.0000000000e+01 8.4213e-04 1.0000e+00
       12  1    3    3    0    0 -2.5690184032e+01 -1.8272988585e+01 -4.7783781793e+00 3.1886055972e+01 0.0000000000e+00 0.0000e+00 -1.0000e+00
</event>
<event>
 5      4 +1.7896800e-02 9.11880000e+01 7.81616400e-03 1.18400000e-01
      -11 -1    0    0    0    0 +0.0000000000e+00 +0.0000000000e+00 +4.5593999997e+01 4.5594000000e+01 5.1100000000e-04 0.0000e+00 1.0000e+00
       11 -1    0    0    0    0 -0.0000000000e+00 -0.0000000000e+00 -4.5593999997e+01 4.5594000000e+01 5.1100000000e-04 0.0000e+00 -1.0000e+00
       23  2    1    2    0    0 +0.0000000000e+00 +0.0000000000e+00 +0.0000000000e+00 9.1188000000e+01 9.1188000000e+01 5.0208e-15 0.0000e+00
  9900012  1    3    3    0    0 -1.2456713840e+01 -1.7243532560e+01 -2.3753135174e+01 5.9301944028e+01 5.0000000000e+01 1.0718e-03 -1.0000e+00
      -12  1    3    3    0    0 +1.2456713840e+01 +1.7243532560e+01 +2.3753135174e+01 3.1886055972e+01 0.0000000000e+00 0.0000e+00 1.0000e+00
</event>
<event>
 5      2 +1.7896800e-02 9.11880000e+01 7.81616400e-03 1.18400000e-01
      -11 -1    0    0    0    0 +0.0000000000e+00 +0.0000000000e+00 +4.5593999997e+01 4.5594000000e+01 5.1100000000e-04 0.0000e+00 1.0000e+00
       11 -1    0    0    0    0 -0.0000000000e+00 -0.0000000000e+00 -4.5593999997e+01 4.5594000000e+01 5.1100000000e-04 0.0000e+00 -1.0000e+00
       23  2    1    2    0    0 +0.0000000000e+00 +0.0000000000e+00 +0.0000000000e+00 9.1188000000e+01 9.1188000000e+01 5.3682e-15 0.0000e+00
  9900012  1    3    3    0    0 +2.7851182380e+01 +1.5195376166e+01 -3.1831978676e+00 5.9301944028e+01 5.0000000000e+01 9.7927e-04 -1.0000e+00
      -12  1    3    3    0    0 -2.7851182380e+01 -1.5195376166e+01 +3.1831978676e+00 3.1886055972e+01 0.0000000000e+00 0.0000e+00 1.0000e+00
</event>
<event>
 5      1 +1.7896800e-02 9.11880000e+01 7.81616400e-03 1.18400000e-01
      -11 -1    0    0    0    0 +0.0000000000e+00 +0.0000000000e+00 +4.5593999997e+01 4.5594000000e+01 5.1100000000e-04 0.0000e+00 1.0000e+00
       11 -1    0    0    0    0 -0.0000000000e+00 -0.0000000000e+00 -4.5593999997e+01 4.5594000000e+01 5.1100000000e-04 0.0000e+00 -1.0000e+00
       23  2    1    2    0    0 +0.0000000000e+00 +0.0000000000e+00 +0.0000000000e+00 9.1188000000e+01 9.1188000000e+01 9.4737e-14 0.0000e+00
  9900012  1    3    3    0    0 -9.2990528348e+00 +2.9677781111e+01 +7.0340237557e+00 5.9301944028e+01 5.0000000000e+01 4.0521e-04 1.0000e+00
       12  1    3    3    0    0 +9.2990528348e+00 -2.9677781111e+01 -7.0340237557e+00 3.1886055972e+01 0.0000000000e+00 0.0000e+00 -1.0000e+00
</event>
<event>
 5      7 +1.7896800e-02 9.11880000e+01 7.81616400e-03 1.18400000e-01
      -11 -1    0    0    0    0 +0.0000000000e+00 +0.0000000000e+00 +4.5593999997e+01 4.5594000000e+01 5.1100000000e-04 0.0000e+00 1.0000e+00
       11 -1    0    0    0    0 -0.0000000000e+00 -0.0000000000e+00 -4.5593999997e+01 4.5594000000e+01 5.1100000000e-04 0.0000e+00 -1.0000e+00
       23  2    1    2    0    0 +0.0000000000e+00 +0.0000000000e+00 +0.0000000000e+00 9.1188000000e+01 9.1188000000e+01 7.5313e-14 0.0000e+00
  9900012  1    3    3    0    0 +3.1279218790e+01 -3.2943935301e+00 -5.2419470285e+00 5.9301944028e+01 5.0000000000e+01 1.9911e-04 1.0000e+00
       12  1    3    3    0    0 -3.1279218790e+01 +3.2943935301e+00 +5.2419470285e+00 3.1886055972e+01 0.0000000000e+00 0.0000e+00 -1.0000e+00
</event>
<event>
 5      4 +1.7896800e-02 9.11880000e+01 7.81616400e-03 1.18400000e-01
      -11 -1    0    0    0    0 +0.0000000000e+00 +0.0000000000e+00 +4.5593999997e+01 4.5594000000e+01 5.1100000000e-04 0.0000e+00 1.0000e+00
       11 -1    0    0    0    0 -0.0000000000e+00 -0.0000000000e+00 -4.5593999997e+01 4.5594000000e+01 5.1100000000e-04 0.0000e+00 -1.0000e+00
       23  2    1    2    0    0 +0.0000000000e+00 +0.0000000000e+00 +0.0000000000e+00 9.1188000000e+01 9.1188000000e+01 1.0504e-13 0.0000e+00
  9900012  1    3    3    0    0 -2.2654771950e+00 -3.0299054357e+01 -9.6724083662e+00 5.9301944028e+01 5.0000000000e+01 3.1014e-04 -1.0000e+00
      -12  1    3    3    0    0 +2.2654771950e+00 +3.0299054357e+01 +9.6724083662e+00 3.1886055972e+01 0.0000000000e+00 0.0000e+00 1.0000e+00
</event>
<event>
 5      8 +1.7896800e-02 9.11880000e+01 7.81616400e-03 1.18400000e-01
      -11 -1    0    0    0    0 +0.0000000000e+00 +0.0000000000e+00 +4.5593999997e+01 4.5594000000e+01 5.1100000000e-04 0.0000e+00 -1.0000e+00
       11 -1    0    0    0    0 -0.0000000000e+00 -0.0000000000e+00 -4.5593999997e+01 4.5594000000e+01 5.1100000000e-04 0.0000e+00 1.0000e+00
       23  2    1    2    0    0 +0.0000000000e+00 +0.0000000000e+00 +0.0000000000e+00 9.1188000000e+01 9.1188000000e+01 1.0404e-14 0.0000e+00
  9900012  1    3    3    0    0 +1.7547144760e+01 +1.7301101818e+01 +2.0235863019e+01 5.9301944028e+01 5.0000000000e+01 1.6920e-03 -1.0000e+00
      -12  1    3    3    0    0 -1.7547144760e+01 -1.7301101818e+01 -2.0235863019e+01 3.1886055972e+01 0.0000000000e+00 0.0000e+00 1.0000e+00
</event>
<event>
 5      1 +1.7896800e-02 9.11880000e+01 7.81616400e-03 1.18400000e-01
      -11 -1    0    0    0    0 +0.0000000000e+00 +0.0000000000e+00 +4.5593999997e+01 4.5594000000e+01 5.1100000000e-04 0.0000e+00 -1.0000e+00
       11 -1    0    0    0    0 -0.0000000000e+00 -0.0000000000e+00 -4.5593999997e+01 4.5594000000e+01 5.1100000000e-04 0.0000e+00 1.0000e+00
       23  2    1    2    0    0 +0.0000000000e+00 +0.0000000000e+00 +0.0000000000e+00 9.1188000000e+01 9.1188000000e+01 1.2445e-13 0.0000e+00
  9900012  1    3    3    0    0 -1.1719323352e+01 -2.8993313272e+01 -6.2262196533e+00 5.9301944028e+01 5.0000000000e+01 3.6887e-04 1.0000e+00
       12  1    3    3    0    0 +1.1719323352e+01 +2.8993313272e+01 +6.2262196533e+00 3.1886055972e+01 0.0000000000e+00 0.0000e+00 -1.0000e+00
</event>
<event>
 5      2 +1.7896800e-02 9.11880000e+01 7.81616400e-03 1.18400000e-01
      -11 -1    0    0    0    0 +0.0000000000e+00 +0.0000000000e+00 +4.5593999997e+01 4.5594000000e+01 5.1100000000e-04 0.0000e+00 1.0000e+00
       11 -1    0    0    0    0 -0.0000000000e+00 -0.0000000000e+00 -4.5593999997e+01 4.5594000000e+01 5.1100000000e-04 0.0000e+00 -1.0000e+00
       23  2    1    2    0    0 +0.0000000000e+00 +0.0000000000e+00 +0.0000000000e+00 9.1188000000e+01 9.1188000000e+01 1.9119e-13 0.0000e+00
  9900012  1    3    3    0    0 -2.6827671178e+01 -1.6120681272e+01 +6.0926398191e+00 5.9301944028e+01 5.0000000000e+01 3.1874e-04 -1.0000e+00
      -12  1    3    3    0    0 +2.6827671178e+01 +1.6120681272e+01 -6.0926398191e+00 3.1886055972e+01 0.0000000000e+00 0.0000e+00 1.0000e+00
</event>
<event>
 5      1 +1.7896800e-02 9.11880000e+01 7.81616400e-03 1.18400000e-01
      -11 -1    0    0    0    0 +0.0000000000e+00 +0.0000000000e+00 +4.5593999997e+01 4.5594000000e+01 5.1100000000e-04 0.0000e+00 -1.0000e+00
       11 -1    0    0    0    0 -0.0000000000e+00 -0.0000000000e+00 -4.5593999997e+01 4.5594000000e+01 5.1100000000e-04 0.0000e+00 1.0000e+00
       23  2    1    2    0    0 +0.0000000000e+00 +0.0000000000e+00 +0.0000000000e+00 9.1188000000e+01 9.1188000000e+01 3.3481e-13 0.0000e+00
  9900012  1    3    3    0    0 -1.2237548961e+01 +2.8180931274e+01 +8.5321787017e+00 5.9301944028e+01 5.0000000000e+01 1.3570e-03 1.0000e+00
       12  1    3    3    0    0 +1.2237548961e+01 -2.8180931274e+01 -8.5321787017e+00 3.1886055972e+01 0.0000000000e+00 0.0000e+00 -1.0000e+00
</event>
<event>
 5      7 +1.7896800e-02 9.11880000e+01 7.81616400e-03 1.18400000e-01
      -11 -1    0    0    0    0 +0.0000000000e+00 +0.0000000000e+00 +4.5593999997e+01 4.5594000000e+01 5.1100000000e-04 0.0000e+00 -1.0000e+00
       11 -1    0    0    0    0 -0.0000000000e+00 -0.0000000000e+00 -4.5593999997e+01 4.5594000000e+01 5.1100000000e-04 0.0000e+00 1.0000e+00
       23  2    1    2    0    0 +0.0000000000e+00 +0.0000000000e+00 +0.0000000000e+00 9.1188000000e+01 9.1188000000e+01 5.8736e-14 0.0000e+00
  9900012  1    3    3    0    0 +1.4204443908e+01 -2.5991694407e+01 -1.1806191621e+01 5.9301944028e+01 5.0000000000e+01 1.7538e-03 1.0000e+00
       12  1    3    3    0    0 -1.4204443908e+01 +2.5991694407e+01 +1.1806191621e+01 3.1886055972e+01 0.0000000000e+00 0.0000e+00 -1.0000e+00
</event>
<event>
 5      8 +1.7896800e-02 9.11880000e+01 7.81616400e-03 1.18400000e-01
      -11 -1    0    0    0    0 +0.0000000000e+00 +0.0000000000e+00 +4.5593999997e+01 4.5594000000e+01 5.1100000000e-04 0.0000e+00 1.0000e+00
       11 -1    0    0    0    0 -0.0000000000e+00 -0.0000000000e+00 -4.5593999997e+01 4.5594000000e+01 5.1100000000e-04 0.0000e+00 -1.0000e+00
       23  2    1    2    0    0 +0.0000000000e+00 +0.0000000000e+00 +0.0000000000e+00 9.1188000000e+01 9.1188000000e+01 2.5156e-14 0.0000e+00
  9900012  1    3    3    0    0 +2.4518387285e+01 +1.7646202663e+01 -1.0206898745e+01 5.9301944028e+01 5.0000000000e+01 1.6488e-03 -1.0000e+00
      -12  1    3    3    0    0 -2.4518387285e+01 -1.7646202663e+01 +1.0206898745e+01 3.1886055972e+01 0.0000000000e+00 0.0000e+00 1.0000e+00
</event>
<event>
 5      5 +1.7896800e-02 9.11880000e+01 7.81616400e-03 1.18400000e-01
      -11 -1    0    0    0    0 +0.0000000000e+00 +0.0000000000e+00 +4.5593999997e+01 4.5594000000e+01 5.1100000000e-04 0.0000e+00 -1.0000e+00
       11 -1    0    0    0    0 -0.0000000000e+00 -0.0000000000e+00 -4.5593999997e+01 4.5594000000e+01 5.1100000000e-04 0.0000e+00 1.0000e+00
       23  2    1    2    0    0 +0.0000000000e+00 +0.0000000000e+00 +0.0000000000e+00 9.1188000000e+01 9.1188000000e+01 1.2203e-13 0.0000e+00
  9900012  1    3    3    0    0 -9.8784692685e+00 +1.6373252447e+01 -2.5515740528e+01 5.9301944028e+01 5.0000000000e+01 5.1710e-04 1.0000e+00
       12  1    3    3    0    0 +9.8784692685e+00 -1.6373252447e+01 +2.5515740528e+01 3.1886055972e+01 0.0000000000e+00 0.0000e+00 -1.0000e+00
</event>
<event>
 5      8 +1.7896800e-02 9.11880000e+01 7.81616400e-03 1.18400000e-01
      -11 -1    0    0    0    0 +0.0000000000e+00 +0.0000000000e+00 +4.5593999997e+01 4.5594000000e+01 5.1100000000e-04 0.0000e+00 -1.0000e+00
       11 -1    0    0    0    0 -0.0000000000e+00 -0.0000000000e+00 -4.5593999997e+01 4.5594000000e+01 5.1100000000e-04 0.0000e+00 1.0000e+00
       23  2    1    2    0    0 +0.0000000000e+00 +0.0000000000e+00 +0.0000000000e+00 9.1188000000e+01 9.1188000000e+01 9.9950e-14 0.0000e+00
  9900012  1    3    3    0    0 -2.4289807507e+01 -7.3308087792e+00 +1.9312821113e+01 5.9301944028e+01 5.0000000000e+01 6.2593e-04 -1.0000e+00
      -12  1    3    3    0    0 +2.4289807507e+01 +7.3308087792e+00 -1.9312821113e+01 3.1886055972e+01 0.0000000000e+00 0.0000e+00 1.0000e+00
</event>
<event>
 5      6 +1.7896800e-02 9.11880000e+01 7.81616400e-03 1.18400000e-01
      -11 -1    0    0    0    0 +0.0000000000e+00 +0.0000000000e+00 +4.5593999997e+01 4.5594000000e+01 5.1100000000e-04 0.0000e+00 -1.0000e+00
       11 -1    0    0    0    0 -0.0000000000e+00 -0.0000000000e+00 -4.5593999997e+01 4.5594000000e+01 5.1100000000e-04 0.0000e+00 1.0000e+00
       23  2    1    2    0    0 +0.0000000000e+00 +0.0000000000e+00 +0.0000000000e+00 9.1188000000e+01 9.1188000000e+01 8.7729e-14 0.0000e+00
  9900012  1    3    3    0    0 -9.8720781652e+00 -2.8105675410e+01 +1.1372495238e+01 5.9301944028e+01 5.0000000000e+01 9.6776e-05 -1.0000e+00
      -12  1    3    3    0    0 +9.8720781652e+00 +2.8105675410e+01 -1.1372495238e+01 3.1886055972e+01 0.0000000000e+00 0.0000e+00 1.0000e+00
</event>
<event>
 5      4 +1.7896800e-02 9.11880000e+01 7.81616400e-03 1.18400000e-01
      -11 -1    0    0    0    0 +0.0000000000e+00 +0.0000000000e+00 +4.5593999997e+01 4.5594000000e+01 5.1100000000e-04 0.0000e+00 -1.0000e+00
       11 -1    0    0    0    0 -0.0000000000e+00 -0.0000000000e+00 -4.5593999997e+01 4.5594000000e+01 5.1100000000e-04 0.0000e+00 1.0000e+00
       23  2    1    2    0    0 +0.0000000000e+00 +0.0000000000e+00 +0.0000000000e+00 9.1188000000e+01 9.1188000000e+01 7.3556e-14 0.0000e+00
  9900012  1    3    3    0    0 -2.4917859714e+00 +8.2278271128e-01 +3.1777894782e+01 5.9301944028e+01 5.0000000000e+01 3.7721e-04 -1.0000e+00
      -12  1    3    3    0    0 +2.4917859714e+00 -8.2278271128e-01 -3.1777894782e+01 3.1886055972e+01 0.0000000000e+00 0.0000e+00 1.0000e+00
</event>
<event>
 5      6 +1.7896800e-02 9.11880000e+01 7.81616400e-03 1.18400000e-01
      -11 -1    0    0    0    0 +0.0000000000e+00 +0.0000000000e+00 +4.5593999997e+01 4.5594000000e+01 5.1100000000e-04 0.0000e+00 1.0000e+00
       11 -1    0    0    0    0 -0.0000000000e+00 -0.0000000000e+00 -4.5593999997e+01 4.5594000000e+01 5.1100000000e-04 0.0000e+00 -1.0000e+00
       23  2    1    2    0    0 +0.0000000000e+00 +0.0000000000e+00 +0.0000000000e+00 9.1188000000e+01 9.1188000000e+01 3.2184e-14 0.0000e+00
  9900012  1    3    3    0    0 -3.1095324957e+01 +4.9756117210e+00 -5.0044599403e+00 5.9301944028e+01 5.0000000000e+01 7.6591e-04 -1.0000e+00
      -12  1    3    3    0    0 +3.1095324957e+01 -4.9756117210e+00 +5.0044599403e+00 3.1886055972e+01 0.0000000000e+00 0.0000e+00 1.0000e+00
</event>
<event>
 5      4 +1.7896800e-02 9.11880000e+01 7.81616400e-03 1.18400000e-01
      -11 -1    0    0    0    0 +0.0000000000e+00 +0.0000000000e+00 +4.5593999997e+01 4.5594000000e+01 5.1100000000e-04 0.0000e+00 -1.0000e+00
       11 -1    0    0    0    0 -0.0000000000e+00 -0.0000000000e+00 -4.5593999997e+01 4.5594000000e+01 5.1100000000e-04 0.0000e+00 1.0000e+00
       23  2    1    2    0    0 +0.0000000000e+00 +0.0000000000e+00 +0.0000000000e+00 9.1188000000e+01 9.1188000000e+01 4.0008e-14 0.0000e+00
  9900012  1    3    3    0    0 +2.7571941895e+01 -1.5787588087e+01 -2.6945589621e+00 5.9301944028e+01 5.0000000000e+01 1.6824e-04 -1.0000e+00
      -12  1    3    3    0    0 -2.7571941895e+01 +1.5787588087e+01 +2.6945589621e+00 3.1886055972e+01 0.0000000000e+00 0.0000e+00 1.0000e+00
</event>
<event>
 5      7 +1.7896800e-02 9.11880000e+01 7.81616400e-03 1.18400000e-01
      -11 -1    0    0    0    0 +0.0000000000e+00 +0.0000000000e+00 +4.5593999997e+01 4.5594000000e+01 5.1100000000e-04 0.0000e+00 1.0000e+00
       11 -1    0    0    0    0 -0.0000000000e+00 -0.0000000000e+00 -4.5593999997e+01 4.5594000000e+01 5.1100000000e-04 0.0000e+00 -1.0000e+00
       23  2    1    2    0    0 +0.0000000000e+00 +0.0000000000e+00 +0.0000000000e+00 9.1188000000e+01 9.1188000000e+01 7.5967e-14 0.0000e+00
  9900012  1    3    3    0    0 -2.3579253531e+01 -1.1896004166e+01 +1.7866853480e+01 5.9301944028e+01 5.0000000000e+01 3.8540e-06 1.0000e+00
       12  1    3    3    0    0 +2.3579253531e+01 +1.1896004166e+01 -1.7866853480e+01 3.1886055972e+01 0.0000000000e+00 0.0000e+00 -1.0000e+00
</event>
<event>
 5      1 +1.7896800e-02 9.11880000e+01 7.81616400e-03 1.18400000e-01
      -11 -1    0    0    0    0 +0.0000000000e+00 +0.0000000000e+00 +4.5593999997e+01 4.5594000000e+01 5.1100000000e-04 0.0000e+00 1.0000e+00
       11 -1    0    0    0    0 -0.0000000000e+00 -0.0000000000e+00 -4.5593999997e+01 4.5594000000e+01 5.1100000000e-04 0.0000e+00 -1.0000e+00
       23  2    1    2    0    0 +0.0000000000e+00 +0.0000000000e+00 +0.0000000000e+00 9.1188000000e+01 9.1188000000e+01 2.4265e-13 0.0000e+00
  9900012  1    3    3    0    0 -1.4805806850e+01 -2.4753302969e+01 -1.3593477888e+01 5.9301944028e+01 5.0000000000e+01 7.6851e-04 -1.0000e+00
       12  1    3    3    0    0 +1.4805806850e+01 +2.4753302969e+01 +1.3593477888e+01 3.1886055972e+01 0.0000000000e+00 0.0000e+00 -1.0000e+00
</event>
<event>
 5      3 +1.7896800e-02 9.11880000e+01 7.81616400e-03 1.18400000e-01
      -11 -1    0    0    0    0 +0.0000000000e+00 +0.0000000000e+00 +4.5593999997e+01 4.5594000000e+01 5.1100000000e-04 0.0000e+00 -1.0000e+00
       11 -1    0    0    0    0 -0.0000000000e+00 -0.0000000000e+00 -4.5593999997e+01 4.5594000000e+01 5.1100000000e-04 0.0000e+00 1.0000e+00
       23  2    1    2    0    0 +0.0000000000e+00 +0.0000000000e+00 +0.0000000000e+00 9.1188000000e+01 9.1188000000e+01 6.4717e-14 0.0000e+00
  9900012  1    3    3    0    0 -1.0325485015e+01 +2.7765817373e+01 -1.1796792372e+01 5.9301944028e+01 5.0000000000e+01 4.8178e-04 1.0000e+00
       12  1    3    3    0    0 +1.0325485015e+01 -2.7765817373e+01 +1.1796792372e+01 3.1886055972e+01 0.0000000000e+00 0.0000e+00 -1.0000e+00
</event>
<event>
 5      1 +1.7896800e-02 9.11880000e+01 7.81616400e-03 1.18400000e-01
      -11 -1    0    0    0    0 +0.0000000000e+00 +0.0000000000e+00 +4.5593999997e+01 4.5594000000e+01 5.1100000000e-04 0.0000e+00 -1.0000e+00
       11 -1    0    0    0    0 -0.0000000000e+00 -0.0000000000e+00 -4.5593999997e+01 4.5594000000e+01 5.1100000000e-04 0.0000e+00 1.0000e+00
       23  2    1    2    0    0 +0.0000000000e+00 +0.0000000000e+00 +0.0000000000e+00 9.1188000000e+01 9.1188000000e+01 2.8049e-14 0.0000e+00
  9900012  1    3    3    0    0 -5.3152471490e+00 +1.3521184563e+01 -2.8383908843e+01 5.9301944028e+01 5.0000000000e+01 2.8064e-03 1.0000e+00
       12  1    3    3    0    0 +5.3152471490e+00 -1.3521184563e+01 +2.8383908843e+01 3.1886055972e+01 0.0000000000e+00 0.0000e+00 -1.0000e+00
</event>
<event>
 5      2 +1.7896800e-02 9.11880000e+01 7.81616400e-03 1.18400000e-01
      -11 -1    0    0    0    0 +0.0000000000e+00 +0.0000000000e+00 +4.5593999997e+01 4.5594000000e+01 5.1100000000e-04 0.0000e+00 1.0000e+00
       11 -1    0    0    0    0 -0.0000000000e+00 -0.0000000000e+00 -4.5593999997e+01 4.5594000000e+01 5.1100000000e-04 0.0000e+00 -1.0000e+00
       23  2    1    2    0    0 +0.0000000000e+00 +0.0000000000e+00 +0.0000000000e+00 9.1188000000e+01 9.1188000000e+01 8.2327e-14 0.0000e+00
  9900012  1    3    3    0    0 -1.1462627435e+01 -2.9273437805e+00 -2.9610123204e+01 5.9301944028e+01 5.0000000000e+01 1.6666e-04 -1.0000e+00
      -12  1    3    3    0    0 +1.1462627435e+01 +2.9273437805e+00 +2.9610123204e+01 3.1886055972e+01 0.0000000000e+00 0.0000e+00 1.0000e+00
</event>
<event>
 5      7 +1.7896800e-02 9.11880000e+01 7.81616400e-03 1.18400000e-01
      -11 -1    0    0    0    0 +0.0000000000e+00 +0.0000000000e+00 +4.5593999997e+01 4.5594000000e+01 5.1100000000e-04 0.0000e+00 1.0000e+00
       11 -1    0    0    0    0 -0.0000000000e+00 -0.0000000000e+00 -4.5593999997e+01 4.5594000000e+01 5.1100000000e-04 0.0000e+00 -1.0000e+00
       23  2    1    2    0    0 +0.0000000000e+00 +0.0000000000e+00 +0.0000000000e+00 9.1188000000e+01 9.1188000000e+01 9.7198e-16 0.0000e+00
  9900012  1    3    3    0    0 +9.4940468055e+00 +5.6409744593e+00 +2.9912590123e+01 5.9301944028e+01 5.0000000000e+01 4.9164e-03 1.0000e+00
       12  1    3    3    0    0 -9.4940468055e+00 -5.6409744593e+00 -2.9912590123e+01 3.1886055972e+01 0.0000000000e+00 0.0000e+00 -1.0000e+00
</event>
<event>
 5      2 +1.7896800e-02 9.11880000e+01 7.81616400e-03 1.18400000e-01
      -11 -1    0    0    0    0 +0.0000000000e+00 +0.0000000000e+00 +4.5593999997e+01 4.5594000000e+01 5.1100000000e-04 0.0000e+00 -1.0000e+00
       11 -1    0    0    0    0 -0.0000000000e+00 -0.0000000000e+00 -4.5593999997e+01 4.5594000000e+01 5.1100000000e-04 0.0000e+00 1.0000e+00
       23  2    1    2    0    0 +0.0000000000e+00 +0.0000000000e+00 +0.0000000000e+00 9.1188000000e+01 9.1188000000e+01 2.7327e-14 0.0000e+00
  9900012  1    3    3    0    0 +1.4003653451e+01 -2.3292538231e+01 +1.6675608482e+01 5.9301944028e+01 5.0000000000e+01 2.4295e-03 1.0000e+00
      -12  1    3    3    0    0 -1.4003653451e+01 +2.3292538231e+01 -1.6675608482e+01 3.1886055972e+01 0.0000000000e+00 0.0000e+00 1.0000e+00
</event>
<event>
 5      8 +1.7896800e-02 9.11880000e+01 7.81616400e-03 1.18400000e-01
      -11 -1    0    0    0    0 +0.0000000000e+00 +0.0000000000e+00 +4.5593999997e+01 4.5594000000e+01 5.1100000000e-04 0.0000e+00 -1.0000e+00
       11 -1    0    0    0    0 -0.0000000000e+00 -0.0000000000e+00 -4.5593999997e+01 4.5594000000e+01 5.1100000000e-04 0.0000e+00 1.0000e+00
       23  2    1    2    0    0 +0.0000000000e+00 +0.0000000000e+00 +0.0000000000e+00 9.1188000000e+01 9.1188000000e+01 2.8951e-14 0.0000e+00
  9900012  1    3    3    0    0 -7.9762781450e+00 +5.4345985801e-01 +3.0867526687e+01 5.9301944028e+01 5.0000000000e+01 5.3918e-04 -1.0000e+00
      -12  1    3    3    0    0 +7.9762781450e+00 -5.4345985801e-01 -3.0867526687e+01 3.1886055972e+01 0.0000000000e+00 0.0000e+00 1.0000e+00
</event>
<event>
 5      2 +1.7896800e-02 9.11880000e+01 7.81616400e-03 1.18400000e-01
      -11 -1    0    0    0    0 +0.0000000000e+00 +0.0000000000e+00 +4.5593999997e+01 4.5594000000e+01 5.1100000000e-04 0.0000e+00 1.0000e+00
       11 -1    0    0    0    0 -0.0000000000e+00 -0.0000000000e+00 -4.5593999997e+01 4.5594000000e+01 5.1100000000e-04 0.0000e+00 -1.0000e+00
       23  2    1    2    0    0 +0.0000000000e+00 +0.0000000000e+00 +0.0000000000e+00 9.1188000000e+01 9.1188000000e+01 1.0391e-13 0.0000e+00
  9900012  1    3    3    0    0 +1.7214393021e-01 -2.0986719874e+01 -2.4005176959e+01 5.9301944028e+01 5.0000000000e+01 8.8865e-06 1.0000e+00
      -12  1    3    3    0    0 -1.7214393021e-01 +2.0986719874e+01 +2.4005176959e+01 3.1886055972e+01 0.0000000000e+00 0.0000e+00 1.0000e+00
</event>
<event>
 5      7 +1.7896800e-02 9.11880000e+01 7.81616400e-03 1.18400000e-01
      -11 -1    0    0    0    0 +0.0000000000e+00 +0.0000000000e+00 +4.5593999997e+01 4.5594000000e+01 5.1100000000e-04 0.0000e+00 1.0000e+00
       11 -1    0    0    0    0 -0.0000000000e+00 -0.0000000000e+00 -4.5593999997e+01 4.5594000000e+01 5.1100000000e-04 0.0000e+00 -1.0000e+00
       23  2    1    2    0    0 +0.0000000000e+00 +0.0000000000e+00 +0.0000000000e+00 9.1188000000e+01 9.1188000000e+01 2.3728e-14 0.0000e+00
  9900012  1    3    3    0    0 -1.2115894380e+01 -2.1753604153e+01 +1.9917489179e+01 5.9301944028e+01 5.0000000000e+01 1.2627e-03 1.0000e+00
       12  1    3    3    0    0 +1.2115894380e+01 +2.1753604153e+01 -1.9917489179e+01 3.1886055972e+01 0.0000000000e+00 0.0000e+00 -1.0000e+00
</event>
<event>
 5      1 +1.7896800e-02 9.11880000e+01 7.81616400e-03 1.18400000e-01
      -11 -1    0    0    0    0 +0.0000000000e+00 +0.0000000000e+00 +4.5593999997e+01 4.5594000000e+01 5.1100000000e-04 0.0000e+00 -1.0000e+00
       11 -1    0    0    0    0 -0.0000000000e+00 -0.0000000000e+00 -4.5593999997e+01 4.5594000000e+01 5.1100000000e-04 0.0000e+00 1.0000e+00
       23  2    1    2    0    0 +0.0000000000e+00 +0.0000000000e+00 +0.0000000000e+00 9.1188000000e+01 9.1188000000e+01 1.6613e-14 0.0000e+00
  9900012  1    3    3    0    0 -1.9115306960e+01 -2.2620278667e+01 -1.1817300806e+01 5.9301944028e+01 5.0000000000e+01 8.8173e-04 -1.0000e+00
       12  1    3    3    0    0 +1.9115306960e+01 +2.2620278667e+01 +1.1817300806e+01 3.1886055972e+01 0.0000000000e+00 0.0000e+00 -1.0000e+00
</event>
<event>
 5      6 +1.7896800e-02 9.11880000e+01 7.81616400e-03 1.18400000e-01
      -11 -1    0    0    0    0 +0.0000000000e+00 +0.0000000000e+00 +4.5593999997e+01 4.5594000000e+01 5.1100000000e-04 0.0000e+00 1.0000e+00
       11 -1    0    0    0    0 -0.0000000000e+00 -0.0000000000e+00 -4.5593999997e+01 4.5594000000e+01 5.1100000000e-04 0.0000e+00 -1.0000e+00
       23  2    1    2    0    0 +0.0000000000e+00 +0.0000000000e+00 +0.0000000000e+00 9.1188000000e+01 9.1188000000e+01 3.6458e-15 0.0000e+00
  9900012  1    3    3    0    0 +9.7893195886e+00 +2.9155759277e+01 -8.4161445131e+00 5.9301944028e+01 5.0000000000e+01 3.9787e-06 -1.0000e+00
      -12  1    3    3    0    0 -9.7893195886e+00 -2.9155759277e+01 +8.4161445131e+00 3.1886055972e+01 0.0000000000e+00 0.0000e+00 1.0000e+00
</event>
<event>
 5      7 +1.7896800e-02 9.11880000e+01 7.81616400e-03 1.18400000e-01
      -11 -1    0    0    0    0 +0.0000000000e+00 +0.0000000000e+00 +4.5593999997e+01 4.5594000000e+01 5.1100000000e-04 0.0000e+00 1.0000e+00
       11 -1    0    0    0    0 -0.0000000000e+00 -0.0000000000e+00 -4.5593999997e+01 4.5594000000e+01 5.1100000000e-04 0.0000e+00 -1.0000e+00
       23  2    1    2    0    0 +0.0000000000e+00 +0.0000000000e+00 +0.0000000000e+00 9.1188000000e+01 9.1188000000e+01 1.0121e-13 0.0000e+00
  9900012  1    3    3    0    0 +3.2098881910e+00 -7.3670895894e+00 +3.0856817306e+01 5.9301944028e+01 5.0000000000e+01 2.9357e-03 1.0000e+00
       12  1    3    3    0    0 -3.2098881910e+00 +7.3670895894e+00 -3.0856817306e+01 3.1886055972e+01 0.0000000000e+00 0.0000e+00 -1.0000e+00
</event>
<event>
 5      1 +1.7896800e-02 9.11880000e+01 7.81616400e-03 1.18400000e-01
      -11 -1    0    0    0    0 +0.0000000000e+00 +0.0000000000e+00 +4.5593999997e+01 4.5594000000e+01 5.1100000000e-04 0.0000e+00 -1.0000e+00
       11 -1    0    0    0    0 -0.0000000000e+00 -0.0000000000e+00 -4.5593999997e+01 4.5594000000e+01 5.1100000000e-04 0.0000e+00 1.0000e+00
       23  2    1    2    0    0 +0.0000000000e+00 +0.0000000000e+00 +0.0000000000e+00 9.1188000000e+01 9.1188000000e+01 1.0498e-13 0.0000e+00
  9900012  1    3    3    0    0 +2.2162109855e+01 +1.7766867783e+01 -1.4487921225e+01 5.9301944028e+01 5.0000000000e+01 1.9988e-04 1.0000e+00
       12  1    3    3    0    0 -2.2162109855e+01 -1.7766867783e+01 +1.4487921225e+01 3.1886055972e+01 0.0000000000e+00 0.0000e+00 -1.0000e+00
</event>
<event>
 5      8 +1.7896800e-02 9.11880000e+01 7.81616400e-03 1.18400000e-01
      -11 -1    0    0    0    0 +0.0000000000e+00 +0.0000000000e+00 +4.5593999997e+01 4.5594000000e+01 5.1100000000e-04 0.0000e+00 1.0000e+00
       11 -1    0    0    0    0 -0.0000000000e+00 -0.0000000000e+00 -4.5593999997e+01 4.5594000000e+01 5.1100000000e-04 0.0000e+00 -1.0000e+00
       23  2    1    2    0    0 +0.0000000000e+00 +0.0000000000e+00 +0.0000000000e+00 9.1188000000e+01 9.1188000000e+01 1.3472e-13 0.0000e+00
  9900012  1    3    3    0    0 -1.4747045470e+01 -2.1282527383e+01 -1.8609117215e+01 5.9301944028e+01 5.0000000000e+01 3.1292e-04 -1.0000e+00
      -12  1    3    3    0    0 +1.4747045470e+01 +2.1282527383e+01 +1.8609117215e+01 3.1886055972e+01 0.0000000000e+00 0.0000e+00 1.0000e+00
</event>
<event>
 5      7 +1.7896800e-02 9.11880000e+01 7.81616400e-03 1.18400000e-01
      -11 -1    0    0    0    0 +0.0000000000e+00 +0.0000000000e+00 +4.5593999997e+01 4.5594000000e+01 5.1100000000e-04 0.0000e+00 -1.0000e+00
       11 -1    0    0    0    0 -0.0000000000e+00 -0.0000000000e+00 -4.5593999997e+01 4.5594000000e+01 5.1100000000e-04 0.0000e+00 1.0000e+00
       23  2    1    2    0    0 +0.0000000000e+00 +0.0000000000e+00 +0.0000000000e+00 9.1188000000e+01 9.1188000000e+01 4.5216e-14 0.0000e+00
  9900012  1    3    3    0    0 -1.5016503238e+01 -1.4591473605e+01 -2.4048161968e+01 5.9301944028e+01 5.0000000000e+01 3.4518e-04 1.0000e+00
       12  1    3    3    0    0 +1.5016503238e+01 +1.4591473605e+01 +2.4048161968e+01 3.1886055972e+01 0.0000000000e+00 0.0000e+00 -1.0000e+00
</event>
<event>
 5      6 +1.7896800e-02 9.11880000e+01 7.81616400e-03 1.18400000e-01
      -11 -1    0    0    0    0 +0.0000000000e+00 +0.0000000000e+00 +4.5593999997e+01 4.5594000000e+01 5.1100000000e-04 0.0000e+00 1.0000e+00
       11 -1    0    0    0    0 -0.0000000000e+00 -0.0000000000e+00 -4.5593999997e+01 4.5594000000e+01 5.1100000000e-04 0.0000e+00 -1.0000e+00
       23  2    1    2    0    0 +0.0000000000e+00 +0.0000000000e+00 +0.0000000000e+00 9.1188000000e+01 9.1188000000e+01 1.3628e-13 0.0000e+00
  9900012  1    3    3    0    0 -1.7387698577e+01 +5.9665190188e+00 -2.6053582373e+01 5.9301944028e+01 5.0000000000e+01 8.5048e-04 -1.0000e+00
      -12  1    3    3    0    0 +1.7387698577e+01 -5.9665190188e+00 +2.6053582373e+01 3.1886055972e+01 0.0000000000e+00 0.0000e+00 1.0000e+00
</event>
<event>
 5      1 +1.7896800e-02 9.11880000e+01 7.81616400e-03 1.18400000e-01
      -11 -1    0    0    0    0 +0.0000000000e+00 +0.0000000000e+00 +4.5593999997e+01 4.5594000000e+01 5.1100000000e-04 0.0000e+00 -1.0000e+00
       11 -1    0    0    0    0 -0.0000000000e+00 -0.0000000000e+00 -4.5593999997e+01 4.5594000000e+01 5.1100000000e-04 0.0000e+00 1.0000e+00
       23  2    1    2    0    0 +0.0000000000e+00 +0.0000000000e+00 +0.0000000000e+00 9.1188000000e+01 9.1188000000e+01 6.9711e-15 0.0000e+00
  9900012  1    3    3    0    0 -5.6901943326e+00 +1.9625083854e+01 -2.4478528094e+01 5.9301944028e+01 5.0000000000e+01 7.8095e-05 1.0000e+00
       12  1    3    3    0    0 +5.6901943326e+00 -1.9625083854e+01 +2.4478528094e+01 3.1886055972e+01 0.0000000000e+00 0.0000e+00 -1.0000e+00
</event>
<event>
 5      6 +1.7896800e-02 9.11880000e+01 7.81616400e-03 1.18400000e-01
      -11 -1    0    0    0    0 +0.0000000000e+00 +0.0000000000e+00 +4.5593999997e+01 4.5594000000e+01 5.1100000000e-04 0.0000e+00 -1.0000e+00
       11 -1    0    0    0    0 -0.0000000000e+00 -0.0000000000e+00 -4.5593999997e+01 4.5594000000e+01 5.1100000000e-04 0.0000e+00 1.0000e+00
       23  2    1    2    0    0 +0.0000000000e+00 +0.0000000000e+00 +0.0000000000e+00 9.1188000000e+01 9.1188000000e+01 1.0497e-14 0.0000e+00
  9900012  1    3    3    0    0 +2.1325135108e+01 -2.0043107251e+00 +2.3620794157e+01 5.9301944028e+01 5.0000000000e+01 5.3575e-05 -1.0000e+00
      -12  1    3    3    0    0 -2.1325135108e+01 +2.0043107251e+00 -2.3620794157e+01 3.1886055972e+01 0.0000000000e+00 0.0000e+00 1.0000e+00
</event>
<event>
 5      5 +1.7896800e-02 9.11880000e+01 7.81616400e-03 1.18400000e-01
      -11 -1    0    0    0    0 +0.0000000000e+00 +0.0000000000e+00 +4.5593999997e+01 4.5594000000e+01 5.1100000000e-04 0.0000e+00 -1.0000e+00
       11 -1    0    0    0    0 -0.0000000000e+00 -0.0000000000e+00 -4.5593999997e+01 4.5594000000e+01 5.1100000000e-04 0.0000e+00 1.0000e+00
       23  2    1    2    0    0 +0.0000000000e+00 +0.0000000000e+00 +0.0000000000e+00 9.1188000000e+01 9.1188000000e+01 6.0741e-14 0.0000e+00
  9900012  1    3    3    0    0 +8.4039594767e+00 -2.5142615644e+01 -1.7718434162e+01 5.9301944028e+01 5.0000000000e+01 8.8936e-04 1.0000e+00
       12  1    3    3    0    0 -8.4039594767e+00 +2.5142615644e+01 +1.7718434162e+01 3.1886055972e+01 0.0000000000e+00 0.0000e+00 -1.0000e+00
</event>
<event>
 5      5 +1.7896800e-02 9.11880000e+01 7.81616400e-03 1.18400000e-01
      -11 -1    0    0    0    0 +0.0000000000e+00 +0.0000000000e+00 +4.5593999997e+01 4.5594000000e+01 5.1100000000e-04 0.0000e+00 1.0000e+00
       11 -1    0    0    0    0 -0.0000000000e+00 -0.0000000000e+00 -4.5593999997e+01 4.5594000000e+01 5.1100000000e-04 0.0000e+00 -1.0000e+00
       23  2    1    2    0    0 +0.0000000000e+00 +0.0000000000e+00 +0.0000000000e+00 9.1188000000e+01 9.1188000000e+01 6.9963e-14 0.0000e+00
  9900012  1    3    3    0    0 +7.4382248787e+00 +7.8672720219e+00 +2.9991655624e+01 5.9301944028e+01 5.0000000000e+01 1.2028e-03 1.0000e+00
       12  1    3    3    0    0 -7.4382248787e+00 -7.8672720219e+00 -2.9991655624e+01 3.1886055972e+01 0.0000000000e+00 0.0000e+00 -1.0000e+00
</event>
<event>
 5      5 +1.7896800e-02 9.11880000e+01 7.81616400e-03 1.18400000e-01
      -11 -1    0    0    0    0 +0.0000000000e+00 +0.0000000000e+00 +4.5593999997e+01 4.5594000000e+01 5.1100000000e-04 0.0000e+00 1.0000e+00
       11 -1    0    0    0    0 -0.0000000000e+00 -0.0000000000e+00 -4.5593999997e+01 4.5594000000e+01 5.1100000000e-04 0.0000e+00 -1.0000e+00
       23  2    1    2    0    0 +0.0000000000e+00 +0.0000000000e+00 +0.0000000000e+00 9.1188000000e+01 9.1188000000e+01 1.7579e-13 0.0000e+00
  9900012  1    3    3    0    0 -2.1877270671e+01 +8.9722401288e+00 +2.1391692325e+01 5.9301944028e+01 5.0000000000e+01 1.2675e-04 1.0000e+00
       12  1    3    3    0    0 +2.1877270671e+01 -8.9722401288e+00 -2.1391692325e+01 3.1886055972e+01 0.0000000000e+00 0.0000e+00 -1.0000e+00
</event>
<event>
 5      7 +1.7896800e-02 9.11880000e+01 7.81616400e-03 1.18400000e-01
      -11 -1    0    0    0    0 +0.0000000000e+00 +0.0000000000e+00 +4.5593999997e+01 4.5594000000e+01 5.1100000000e-04 0.0000e+00 1.0000e+00
       11 -1    0    0    0    0 -0.0000000000e+00 -0.0000000000e+00 -4.5593999997e+01 4.5594000000e+01 5.1100000000e-04 0.0000e+00 -1.0000e+00
       23  2    1    2    0    0 +0.0000000000e+00 +0.0000000000e+00 +0.0000000000e+00 9.1188000000e+01 9.1188000000e+01 3.0946e-15 0.0000e+00
  9900012  1    3    3    0    0 -9.0296319472e+00 -1.6366201270e+01 -2.5832804113e+01 5.9301944028e+01 5.0000000000e+01 7.4140e-04 1.0000e+00
       12  1    3    3    0    0 +9.0296319472e+00 +1.6366201270e+01 +2.5832804113e+01 3.1886055972e+01 0.0000000000e+00 0.0000e+00 -1.0000e+00
</event>
<event>
 5      7 +1.7896800e-02 9.11880000e+01 7.81616400e-03 1.18400000e-01
      -11 -1    0    0    0    0 +0.0000000000e+00 +0.0000000000e+00 +4.5593999997e+01 4.5594000000e+01 5.1100000000e-04 0.0000e+00 1.0000e+00
       11 -1    0    0    0    0 -0.0000000000e+00 -0.0000000000e+00 -4.5593999997e+01 4.5594000000e+01 5.1100000000e-04 0.0000e+00 -1.0000e+00
       23  2    1    2    0    0 +0.0000000000e+00 +0.0000000000e+00 +0.0000000000e+00 9.1188000000e+01 9.1188000000e+01 5.0414e-14 0.0000e+00
  9900012  1    3    3    0    0 +1.5222514334e+01 -1.0884393102e+01 +2.5817157272e+01 5.9301944028e+01 5.0000000000e+01 5.1818e-04 1.0000e+00
       12  1    3    3    0    0 -1.5222514334e+01 +1.0884393102e+01 -2.5817157272e+01 3.1886055972e+01 0.0000000000e+00 0.0000e+00 -1.0000e+00
</event>
<event>
 5      3 +1.7896800e-02 9.11880000e+01 7.81616400e-03 1.18400000e-01
      -11 -1    0    0    0    0 +0.0000000000e+00 +0.0000000000e+00 +4.5593999997e+01 4.5594000000e+01 5.1100000000e-04 0.0000e+00 1.0000e+00
       11 -1    0    0    0    0 -0.0000000000e+00 -0.0000000000e+00 -4.5593999997e+01 4.5594000000e+01 5.1100000000e-04 0.0000e+00 -1.0000e+00
       23  2    1    2    0    0 +0.0000000000e+00 +0.0000000000e+00 +0.0000000000e+00 9.1188000000e+01 9.1188000000e+01 2.4319e-14 0.0000e+00
  9900012  1    3    3    0    0 -1.9854658016e+01 -1.6811927354e-01 +2.4949646419e+01 5.9301944028e+01 5.0000000000e+01 1.2311e-03 1.0000e+00
       12  1    3    3    0    0 +1.9854658016e+01 +1.6811927354e-01 -2.4949646419e+01 3.1886055972e+01 0.0000000000e+00 0.0000e+00 -1.0000e+00
</event>
<event>
 5      6 +1.7896800e-02 9.11880000e+01 7.81616400e-03 1.18400000e-01
      -11 -1    0    0    0    0 +0.0000000000e+00 +0.0000000000e+00 +4.5593999997e+01 4.5594000000e+01 5.1100000000e-04 0.0000e+00 1.0000e+00
       11 -1    0    0    0    0 -0.0000000000e+00 -0.0000000000e+00 -4.5593999997e+01 4.5594000000e+01 5.1100000000e-04 0.0000e+00 -1.0000e+00
       23  2    1    2    0    0 +0.0000000000e+00 +0.0000000000e+00 +0.0000000000e+00 9.1188000000e+01 9.1188000000e+01 6.8824e-14 0.0000e+00
  9900012  1    3    3    0    0 -2.8161530789e+01 +1.0805075332e+00 -1.4915805462e+01 5.9301944028e+01 5.0000000000e+01 5.1400e-04 -1.0000e+00
      -12  1    3    3    0    0 +2.8161530789e+01 -1.0805075332e+00 +1.4915805462e+01 3.1886055972e+01 0.0000000000e+00 0.0000e+00 1.0000e+00
</event>
<event>
 5      3 +1.7896800e-02 9.11880000e+01 7.81616400e-03 1.18400000e-01
      -11 -1    0    0    0    0 +0.0000000000e+00 +0.0000000000e+00 +4.5593999997e+01 4.5594000000e+01 5.1100000000e-04 0.0000e+00 -1.0000e+00
       11 -1    0    0    0    0 -0.0000000000e+00 -0.0000000000e+00 -4.5593999997e+01 4.5594000000e+01 5.1100000000e-04 0.0000e+00 1.0000e+00
       23  2    1    2    0    0 +0.0000000000e+00 +0.0000000000e+00 +0.0000000000e+00 9.1188000000e+01 9.1188000000e+01 9.3787e-14 0.0000e+00
  9900012  1    3    3    0    0 +7.5636757353e+00 -1.3447543744e+01 -2.7904747662e+01 5.9301944028e+01 5.0000000000e+01 3.0827e-04 1.0000e+00
       12  1    3    3    0    0 -7.5636757353e+00 +1.3447543744e+01 +2.7904747662e+01 3.1886055972e+01 0.0000000000e+00 0.0000e+00 -1.0000e+00
</event>
<event>
 5      3 +1.7896800e-02 9.11880000e+01 7.81616400e-03 1.18400000e-01
      -11 -1    0    0    0    0 +0.0000000000e+00 +0.0000000000e+00 +4.5593999997e+01 4.5594000000e+01 5.1100000000e-04 0.0000e+00 -1.0000e+00
       11 -1    0    0    0    0 -0.0000000000e+00 -0.0000000000e+00 -4.5593999997e+01 4.5594000000e+01 5.1100000000e-04 0.0000e+00 1.0000e+00
       23  2    1    2    0    0 +0.0000000000e+00 +0.0000000000e+00 +0.0000000000e+00 9.1188000000e+01 9.1188000000e+01 9.3871e-14 0.0000e+00
  9900012  1    3    3    0    0 +1.3767541149e+01 +2.0655585199e+01 -2.0013050149e+01 5.9301944028e+01 5.0000000000e+01 2.1594e-03 1.0000e+00
       12  1    3    3    0    0 -1.3767541149e+01 -2.0655585199e+01 +2.0013050149e+01 3.1886055972e+01 0.0000000000e+00 0.0000e+00 -1.0000e+00
</event>
<event>
 5      7 +1.7896800e-02 9.11880000e+01 7.81616400e-03 1.18400000e-01
      -11 -1    0    0    0    0 +0.0000000000e+00 +0.0000000000e+00 +4.5593999997e+01 4.5594000000e+01 5.1100000000e-04 0.0000e+00 -1.0000e+00
       11 -1    0    0    0    0 -0.0000000000e+00 -0.0000000000e+00 -4.5593999997e+01 4.5594000000e+01 5.1100000000e-04 0.0000e+00 1.0000e+00
       23  2    1    2    0    0 +0.0000000000e+00 +0.0000000000e+00 +0.0000000000e+00 9.1188000000e+01 9.1188000000e+01 3.9042e-14 0.0000e+00
  9900012  1    3    3    0    0 +1.0172460769e+01 +2.8473022176e+01 -1.0125641486e+01 5.9301944028e+01 5.0000000000e+01 6.2155e-04 1.0000e+00
       12  1    3    3    0    0 -1.0172460769e+01 -2.8473022176e+01 +1.0125641486e+01 3.1886055972e+01 0.0000000000e+00 0.0000e+00 -1.0000e+00
</event>
<event>
 5      5 +1.7896800e-02 9.11880000e+01 7.81616400e-03 1.18400000e-01
      -11 -1    0    0    0    0 +0.0000000000e+00 +0.0000000000e+00 +4.5593999997e+01 4.5594000000e+01 5.1100000000e-04 0.0000e+00 1.0000e+00
       11 -1    0    0    0    0 -0.0000000000e+00 -0.0000000000e+00 -4.5593999997e+01 4.5594000000e+01 5.1100000000e-04 0.0000e+00 -1.0000e+00
       23  2    1    2    0    0 +0.0000000000e+00 +0.0000000000e+00 +0.0000000000e+00 9.1188000000e+01 9.1188000000e+01 1.8201e-13 0.0000e+00
  9900012  1    3    3    0    0 +1.0106968984e+01 +1.6342636188e+01 +2.5445785228e+01 5.9301944028e+01 5.0000000000e+01 1.4619e-03 1.0000e+00
       12  1    3    3    0    0 -1.0106968984e+01 -1.6342636188e+01 -2.5445785228e+01 3.1886055972e+01 0.0000000000e+00 0.0000e+00 -1.0000e+00
</event>
<event>
 5      2 +1.7896800e-02 9.11880000e+01 7.81616400e-03 1.18400000e-01
      -11 -1    0    0    0    0 +0.0000000000e+00 +0.0000000000e+00 +4.5593999997e+01 4.5594000000e+01 5.1100000000e-04 0.0000e+00 -1.0000e+00
       11 -1    0    0    0    0 -0.0000000000e+00 -0.0000000000e+00 -4.5593999997e+01 4.5594000000e+01 5.1100000000e-04 0.0000e+00 1.0000e+00
       23  2    1    2    0    0 +0.0000000000e+00 +0.0000000000e+00 +0.0000000000e+00 9.1188000000e+01 9.1188000000e+01 2.4580e-15 0.0000e+00
  9900012  1    3    3    0    0 +6.3440249061e+00 +2.7199194109e+01 +1.5384334671e+01 5.9301944028e+01 5.0000000000e+01 1.1413e-03 -1.0000e+00
      -12  1    3    3    0    0 -6.3440249061e+00 -2.7199194109e+01 -1.5384334671e+01 3.1886055972e+01 0.0000000000e+00 0.0000e+00 1.0000e+00
</event>
<event>
 5      4 +1.7896800e-02 9.11880000e+01 7.81616400e-03 1.18400000e-01
      -11 -1    0    0    0    0 +0.0000000000e+00 +0.0000000000e+00 +4.5593999997e+01 4.5594000000e+01 5.1100000000e-04 0.0000e+00 1.0000e+00
       11 -1    0    0    0    0 -0.0000000000e+00 -0.0000000000e+00 -4.5593999997e+01 4.5594000000e+01 5.1100000000e-04 0.0000e+00 -1.0000e+00
       23  2    1    2    0    0 +0.0000000000e+00 +0.0000000000e+00 +0.0000000000e+00 9.1188000000e+01 9.1188000000e+01 2.2327e-14 0.0000e+00
  9900012  1    3    3    0    0 +1.0498248260e+00 +3.0173539060e+01 -1.0255533817e+01 5.9301944028e+01 5.0000000000e+01 6.3773e-04 1.0000e+00
      -12  1    3    3    0    0 -1.0498248260e+00 -3.0173539060e+01 +1.0255533817e+01 3.1886055972e+01 0.0000000000e+00 0.0000e+00 1.0000e+00
</event>
<event>
 5      6 +1.7896800e-02 9.11880000e+01 7.81616400e-03 1.18400000e-01
      -11 -1    0    0    0    0 +0.0000000000e+00 +0.0000000000e+00 +4.5593999997e+01 4.5594000000e+01 5.1100000000e-04 0.0000e+00 1.0000e+00
       11 -1    0    0    0    0 -0.0000000000e+00 -0.0000000000e+00 -4.5593999997e+01 4.5594000000e+01 5.1100000000e-04 0.0000e+00 -1.0000e+00
       23  2    1    2    0    0 +0.0000000000e+00 +0.0000000000e+00 +0.0000000000e+00 9.1188000000e+01 9.1188000000e+01 1.1154e-13 0.0000e+00
  9900012  1    3    3    0    0 -1.2871511361e-01 -3.1169239214e+01 +6.7217947526e+00 5.9301944028e+01 5.0000000000e+01 6.0832e-04 -1.0000e+00
      -12  1    3    3    0    0 +1.2871511361e-01 +3.1169239214e+01 -6.7217947526e+00 3.1886055972e+01 0.0000000000e+00 0.0000e+00 1.0000e+00
</event>
<event>
 5      1 +1.7896800e-02 9.11880000e+01 7.81616400e-03 1.18400000e-01
      -11 -1    0    0    0    0 +0.0000000000e+00 +0.0000000000e+00 +4.5593999997e+01 4.5594000000e+01 5.1100000000e-04 0.0000e+00 -1.0000e+00
       11 -1    0    0    0    0 -0.0000000000e+00 -0.0000000000e+00 -4.5593999997e+01 4.5594000000e+01 5.1100000000e-04 0.0000e+00 1.0000e+00
       23  2    1    2    0    0 +0.0000000000e+00 +0.0000000000e+00 +0.0000000000e+00 9.1188000000e+01 9.1188000000e+01 6.5645e-14 0.0000e+00
  9900012  1    3    3    0    0 +3.0421641400e+01 +9.4047773353e+00 +1.6716648268e+00 5.9301944028e+01 5.0000000000e+01 2.3293e-04 1.0000e+00
       12  1    3    3    0    0 -3.0421641400e+01 -9.4047773353e+00 -1.6716648268e+00 3.1886055972e+01 0.0000000000e+00 0.0000e+00 -1.0000e+00
</event>
<event>
 5      3 +1.7896800e-02 9.11880000e+01 7.81616400e-03 1.18400000e-01
      -11 -1    0    0    0    0 +0.0000000000e+00 +0.0000000000e+00 +4.5593999997e+01 4.5594000000e+01 5.1100000000e-04 0.0000e+00 1.0000e+00
       11 -1    0    0    0    0 -0.0000000000e+00 -0.0000000000e+00 -4.5593999997e+01 4.5594000000e+01 5.1100000000e-04 0.0000e+00 -1.0000e+00
       23  2    1    2    0    0 +0.0000000000e+00 +0.0000000000e+00 +0.0000000000e+00 9.1188000000e+01 9.1188000000e+01 1.1457e-14 0.0000e+00
  9900012  1    3    3    0    0 +3.1698429449e+01 -2.3621533933e+00 -2.5199935033e+00 5.9301944028e+01 5.0000000000e+01 1.5729e-03 1.0000e+00
       12  1    3    3    0    0 -3.1698429449e+01 +2.3621533933e+00 +2.5199935033e+00 3.1886055972e+01 0.0000000000e+00 0.0000e+00 -1.0000e+00
</event>
<event>
 5      1 +1.7896800e-02 9.11880000e+01 7.81616400e-03 1.18400000e-01
      -11 -1    0    0    0    0 +0.0000000000e+00 +0.0000000000e+00 +4.5593999997e+01 4.5594000000e+01 5.1100000000e-04 0.0000e+00 1.0000e+00
       11 -1    0    0    0    0 -0.0000000000e+00 -0.0000000000e+00 -4.5593999997e+01 4.5594000000e+01 5.1100000000e-04 0.0000e+00 -1.0000e+00
       23  2    1    2    0    0 +0.0000000000e+00 +0.0000000000e+00 +0.0000000000e+00 9.1188000000e+01 9.1188000000e+01 7.7384e-14 0.0000e+00
  9900012  1    3    3    0    0 -3.1578766215e+01 +3.0876997036e+00 +3.1572456851e+00 5.9301944028e+01 5.0000000000e+01 2.0984e-04 1.0000e+00
       12  1    3    3    0    0 +3.1578766215e+01 -3.0876997036e+00 -3.1572456851e+00 3.1886055972e+01 0.0000000000e+00 0.0000e+00 -1.0000e+00
</event>
<event>
 5      3 +1.7896800e-02 9.11880000e+01 7.81616400e-03 1.18400000e-01
      -11 -1    0    0    0    0 +0.0000000000e+00 +0.0000000000e+00 +4.5593999997e+01 4.5594000000e+01 5.1100000000e-04 0.0000e+00 1.0000e+00
       11 -1    0    0    0    0 -0.0000000000e+00 -0.0000000000e+00 -4.5593999997e+01 4.5594000000e+01 5.1100000000e-04 0.0000e+00 -1.0000e+00
       23  2    1    2    0    0 +0.0000000000e+00 +0.0000000000e+00 +0.0000000000e+00 9.1188000000e+01 9.1188000000e+01 9.1235e-14 0.0000e+00
  9900012  1    3    3    0    0 +8.7662408417e+00 +2.6039191458e+01 +1.6181288428e+01 5.9301944028e+01 5.0000000000e+01 1.4008e-03 1.0000e+00
       12  1    3    3    0    0 -8.7662408417e+00 -2.6039191458e+01 -1.6181288428e+01 3.1886055972e+01 0.0000000000e+00 0.0000e+00 -1.0000e+00
</event>
<event>
 5      6 +1.7896800e-02 9.11880000e+01 7.81616400e-03 1.18400000e-01
      -11 -1    0    0    0    0 +0.0000000000e+00 +0.0000000000e+00 +4.5593999997e+01 4.5594000000e+01 5.1100000000e-04 0.0000e+00 1.0000e+00
       11 -1    0    0    0    0 -0.0000000000e+00 -0.0000000000e+00 -4.5593999997e+01 4.5594000000e+01 5.1100000000e-04 0.0000e+00 -1.0000e+00
       23  2    1    2    0    0 +0.0000000000e+00 +0.0000000000e+00 +0.0000000000e+00 9.1188000000e+01 9.1188000000e+01 1.6192e-13 0.0000e+00
  9900012  1    3    3    0    0 -1.9134334143e+00 +2.7802145007e+01 +1.5495162827e+01 5.9301944028e+01 5.0000000000e+01 1.0005e-03 1.0000e+00
      -12  1    3    3    0    0 +1.9134334143e+00 -2.7802145007e+01 -1.5495162827e+01 3.1886055972e+01 0.0000000000e+00 0.0000e+00 1.0000e+00
</event>
<event>
 5      8 +1.7896800e-02 9.11880000e+01 7.81616400e-03 1.18400000e-01
      -11 -1    0    0    0    0 +0.0000000000e+00 +0.0000000000e+00 +4.5593999997e+01 4.5594000000e+01 5.1100000000e-04 0.0000e+00 -1.0000e+00
       11 -1    0    0    0    0 -0.0000000000e+00 -0.0000000000e+00 -4.5593999997e+01 4.5594000000e+01 5.1100000000e-04 0.0000e+00 1.0000e+00
       23  2    1    2    0    0 +0.0000000000e+00 +0.0000000000e+00 +0.0000000000e+00 9.1188000000e+01 9.1188000000e+01 6.8331e-15 0.0000e+00
  9900012  1    3    3    0    0 -6.7223345447e+00 +2.8482055534e+01 +1.2661093802e+01 5.9301944028e+01 5.0000000000e+01 1.4010e-03 -1.0000e+00
      -12  1    3    3    0    0 +6.7223345447e+00 -2.8482055534e+01 -1.2661093802e+01 3.1886055972e+01 0.0000000000e+00 0.0000e+00 1.0000e+00
</event>
<event>
 5      4 +1.7896800e-02 9.11880000e+01 7.81616400e-03 1.18400000e-01
      -11 -1    0    0    0    0 +0.0000000000e+00 +0.0000000000e+00 +4.5593999997e+01 4.5594000000e+01 5.1100000000e-04 0.0000e+00 -1.0000e+00
       11 -1    0    0    0    0 -0.0000000000e+00 -0.0000000000e+00 -4.5593999997e+01 4.5594000000e+01 5.1100000000e-04 0.0000e+00 1.0000e+00
       23  2    1    2    0    0 +0.0000000000e+00 +0.0000000000e+00 +0.0000000000e+00 9.1188000000e+01 9.1188000000e+01 4.8137e-15 0.0000e+00
  9900012  1    3    3    0    0 -2.6340104966e+01 -1.7828891000e+01 +2.2472386564e+00 5.9301944028e+01 5.0000000000e+01 5.7957e-04 -1.0000e+00
      -12  1    3    3    0    0 +2.6340104966e+01 +1.7828891000e+01 -2.2472386564e+00 3.1886055972e+01 0.0000000000e+00 0.0000e+00 1.0000e+00
</event>
<event>
 5      4 +1.7896800e-02 9.11880000e+01 7.81616400e-03 1.18400000e-01
      -11 -1    0    0    0    0 +0.0000000000e+00 +0.0000000000e+00 +4.5593999997e+01 4.5594000000e+01 5.1100000000e-04 0.0000e+00 -1.0000e+00
       11 -1    0    0    0    0 -0.0000000000e+00 -0.0000000000e+00 -4.5593999997e+01 4.5594000000e+01 5.1100000000e-04 0.0000e+00 1.0000e+00
       23  2    1    2    0    0 +0.0000000000e+00 +0.0000000000e+00 +0.0000000000e+00 9.1188000000e+01 9.1188000000e+01 2.6205e-14 0.0000e+00
  9900012  1    3    3    0    0 +1.0703378395e+01 -1.8016870860e+01 +2.4032282888e+01 5.9301944028e+01 5.0000000000e+01 2.3169e-04 -1.0000e+00
      -12  1    3    3    0    0 -1.0703378395e+01 +1.8016870860e+01 -2.4032282888e+01 3.1886055972e+01 0.0000000000e+00 0.0000e+00 1.0000e+00
</event>
<event>
 5      6 +1.7896800e-02 9.11880000e+01 7.81616400e-03 1.18400000e-01
      -11 -1    0    0    0    0 +0.0000000000e+00 +0.0000000000e+00 +4.5593999997e+01 4.5594000000e+01 5.1100000000e-04 0.0000e+00 -1.0000e+00
       11 -1    0    0    0    0 -0.0000000000e+00 -0.0000000000e+00 -4.5593999997e+01 4.5594000000e+01 5.1100000000e-04 0.0000e+00 1.0000e+00
       23  2    1    2    0    0 +0.0000000000e+00 +0.0000000000e+00 +0.0000000000e+00 9.1188000000e+01 9.1188000000e+01 2.7519e-14 0.0000e+00
  9900012  1    3    3    0    0 +2.9927381490e+01 -4.1831036809e+00 -1.0177133496e+01 5.9301944028e+01 5.0000000000e+01 9.0018e-04 -1.0000e+00
      -12  1    3    3    0    0 -2.9927381490e+01 +4.1831036809e+00 +1.0177133496e+01 3.1886055972e+01 0.0000000000e+00 0.0000e+00 1.0000e+00
</event>
<event>
 5      8 +1.7896800e-02 9.11880000e+01 7.81616400e-03 1.18400000e-01
      -11 -1    0    0    0    0 +0.0000000000e+00 +0.0000000000e+00 +4.5593999997e+01 4.5594000000e+01 5.1100000000e-04 0.0000e+00 1.0000e+00
       11 -1    0    0    0    0 -0.0000000000e+00 -0.0000000000e+00 -4.5593999997e+01 4.5594000000e+01 5.1100000000e-04 0.0000e+00 -1.0000e+00
       23  2    1    2    0    0 +0.0000000000e+00 +0.0000000000e+00 +0.0000000000e+00 9.1188000000e+01 9.1188000000e+01 9.3473e-14 0.0000e+00
  9900012  1    3    3    0    0 +2.8708557508e+01 +1.3359225563e+01 +3.7510510060e+00 5.9301944028e+01 5.0000000000e+01 2.8473e-04 -1.0000e+00
      -12  1    3    3    0    0 -2.8708557508e+01 -1.3359225563e+01 -3.7510510060e+00 3.1886055972e+01 0.0000000000e+00 0.0000e+00 1.0000e+00
</event>
<event>
 5      3 +1.7896800e-02 9.11880000e+01 7.81616400e-03 1.18400000e-01
      -11 -1    0    0    0    0 +0.0000000000e+00 +0.0000000000e+00 +4.5593999997e+01 4.5594000000e+01 5.1100000000e-04 0.0000e+00 -1.0000e+00
       11 -1    0    0    0    0 -0.0000000000e+00 -0.0000000000e+00 -4.5593999997e+01 4.5594000000e+01 5.1100000000e-04 0.0000e+00 1.0000e+00
       23  2    1    2    0    0 +0.0000000000e+00 +0.0000000000e+00 +0.0000000000e+00 9.1188000000e+01 9.1188000000e+01 1.0375e-13 0.0000e+00
  9900012  1    3    3    0    0 -1.9237524763e+01 -2.5421236038e+01 -6.3163658161e-01 5.9301944028e+01 5.0000000000e+01 2.8073e-03 1.0000e+00
       12  1    3    3    0    0 +1.9237524763e+01 +2.5421236038e+01 +6.3163658161e-01 3.1886055972e+01 0.0000000000e+00 0.0000e+00 -1.0000e+00
</event>
<event>
 5      5 +1.7896800e-02 9.11880000e+01 7.81616400e-03 1.18400000e-01
      -11 -1    0    0    0    0 +0.0000000000e+00 +0.0000000000e+00 +4.5593999997e+01 4.5594000000e+01 5.1100000000e-04 0.0000e+00 -1.0000e+00
       11 -1    0    0    0    0 -0.0000000000e+00 -0.0000000000e+00 -4.5593999997e+01 4.5594000000e+01 5.1100000000e-04 0.0000e+00 1.0000e+00
       23  2    1    2    0    0 +0.0000000000e+00 +0.0000000000e+00 +0.0000000000e+00 9.1188000000e+01 9.1188000000e+01 2.6032e-14 0.0000e+00
  9900012  1    3    3    0    0 -1.9837642211e+00 +3.1563485077e+01 -4.0659137701e+00 5.9301944028e+01 5.0000000000e+01 4.0475e-04 1.0000e+00
       12  1    3    3    0    0 +1.9837642211e+00 -3.1563485077e+01 +4.0659137701e+00 3.1886055972e+01 0.0000000000e+00 0.0000e+00 -1.0000e+00
</event>
<event>
 5      5 +1.7896800e-02 9.11880000e+01 7.81616400e-03 1.18400000e-01
      -11 -1    0    0    0    0 +0.0000000000e+00 +0.0000000000e+00 +4.5593999997e+01 4.5594000000e+01 5.1100000000e-04 0.0000e+00 -1.0000e+00
       11 -1    0    0    0    0 -0.0000000000e+00 -0.0000000000e+00 -4.5593999997e+01 4.5594000000e+01 5.1100000000e-04 0.0000e+00 1.0000e+00
       23  2    1    2    0    0 +0.0000000000e+00 +0.0000000000e+00 +0.0000000000e+00 9.1188000000e+01 9.1188000000e+01 3.6705e-15 0.0000e+00
  9900012  1    3    3    0    0 -2.9733317027e+01 -1.4780022056e+00 +1.1422168512e+01 5.9301944028e+01 5.0000000000e+01 1.0868e-03 1.0000e+00
       12  1    3    3    0    0 +2.9733317027e+01 +1.4780022056e+00 -1.1422168512e+01 3.1886055972e+01 0.0000000000e+00 0.0000e+00 -1.0000e+00
</event>
<event>
 5      6 +1.7896800e-02 9.11880000e+01 7.81616400e-03 1.18400000e-01
      -11 -1    0    0    0    0 +0.0000000000e+00 +0.0000000000e+00 +4.5593999997e+01 4.5594000000e+01 5.1100000000e-04 0.0000e+00 -1.0000e+00
       11 -1    0    0    0    0 -0.0000000000e+00 -0.0000000000e+00 -4.5593999997e+01 4.5594000000e+01 5.1100000000e-04 0.0000e+00 1.0000e+00
       23  2    1    2    0    0 +0.0000000000e+00 +0.0000000000e+00 +0.0000000000e+00 9.1188000000e+01 9.1188000000e+01 5.6289e-14 0.0000e+00
  9900012  1    3    3    0    0 -1.2095797518e+01 -2.2414590551e+01 +1.9183283825e+01 5.9301944028e+01 5.0000000000e+01 3.0130e-04 -1.0000e+00
      -12  1    3    3    0    0 +1.2095797518e+01 +2.2414590551e+01 -1.9183283825e+01 3.1886055972e+01 0.0000000000e+00 0.0000e+00 1.0000e+00
</event>
<event>
 5      2 +1.7896800e-02 9.11880000e+01 7.81616400e-03 1.18400000e-01
      -11 -1    0    0    0    0 +0.0000000000e+00 +0.0000000000e+00 +4.5593999997e+01 4.5594000000e+01 5.1100000000e-04 0.0000e+00 1.0000e+00
       11 -1    0    0    0    0 -0.0000000000e+00 -0.0000000000e+00 -4.5593999997e+01 4.5594000000e+01 5.1100000000e-04 0.0000e+00 -1.0000e+00
       23  2    1    2    0    0 +0.0000000000e+00 +0.0000000000e+00 +0.0000000000e+00 9.1188000000e+01 9.1188000000e+01 3.2423e-15 0.0000e+00
  9900012  1    3    3    0    0 -9.6070251590e+00 -1.5018929822e+01 -2.6435910805e+01 5.9301944028e+01 5.0000000000e+01 2.7868e-04 -1.0000e+00
      -12  1    3    3    0    0 +9.6070251590e+00 +1.5018929822e+01 +2.6435910805e+01 3.1886055972e+01 0.0000000000e+00 0.0000e+00 1.0000e+00
</event>
<event>
 5      4 +1.7896800e-02 9.11880000e+01 7.81616400e-03 1.18400000e-01
      -11 -1    0    0    0    0 +0.0000000000e+00 +0.0000000000e+00 +4.5593999997e+01 4.5594000000e+01 5.1100000000e-04 0.0000e+00 -1.0000e+00
       11 -1    0    0    0    0 -0.0000000000e+00 -0.0000000000e+00 -4.5593999997e+01 4.5594000000e+01 5.1100000000e-04 0.0000e+00 1.0000e+00
       23  2    1    2    0    0 +0.0000000000e+00 +0.0000000000e+00 +0.0000000000e+00 9.1188000000e+01 9.1188000000e+01 2.2923e-14 0.0000e+00
  9900012  1    3    3    0    0 -1.1480747706e+00 +1.1267885048e+01 +2.9806664629e+01 5.9301944028e+01 5.0000000000e+01 5.9371e-04 -1.0000e+00
      -12  1    3    3    0    0 +1.1480747706e+00 -1.1267885048e+01 -2.9806664629e+01 3.1886055972e+01 0.0000000000e+00 0.0000e+00 1.0000e+00
</event>
<event>
 5      3 +1.7896800e-02 9.11880000e+01 7.81616400e-03 1.18400000e-01
      -11 -1    0    0    0    0 +0.0000000000e+00 +0.0000000000e+00 +4.5593999997e+01 4.5594000000e+01 5.1100000000e-04 0.0000e+00 -1.0000e+00
       11 -1    0    0    0    0 -0.0000000000e+00 -0.0000000000e+00 -4.5593999997e+01 4.5594000000e+01 5.1100000000e-04 0.0000e+00 1.0000e+00
       23  2    1    2    0    0 +0.0000000000e+00 +0.0000000000e+00 +0.0000000000e+00 9.1188000000e+01 9.1188000000e+01 1.5482e-14 0.0000e+00
  9900012  1    3    3    0    0 -2.7157602623e+01 +7.8656024698e+00 -1.4741692000e+01 5.9301944028e+01 5.0000000000e+01 4.4276e-05 1.0000e+00
       12  1    3    3    0    0 +2.7157602623e+01 -7.8656024698e+00 +1.4741692000e+01 3.1886055972e+01 0.0000000000e+00 0.0000e+00 -1.0000e+00
</event>
<event>
 5      1 +1.7896800e-02 9.11880000e+01 7.81616400e-03 1.18400000e-01
      -11 -1    0    0    0    0 +0.0000000000e+00 +0.0000000000e+00 +4.5593999997e+01 4.5594000000e+01 5.1100000000e-04 0.0000e+00 1.0000e+00
       11 -1    0    0    0    0 -0.0000000000e+00 -0.0000000000e+00 -4.5593999997e+01 4.5594000000e+01 5.1100000000e-04 0.0000e+00 -1.0000e+00
       23  2    1    2    0    0 +0.0000000000e+00 +0.0000000000e+00 +0.0000000000e+00 9.1188000000e+01 9.1188000000e+01 1.0458e-14 0.0000e+00
  9900012  1    3    3    0    0 -1.2457968428e+01 +2.6516084581e+01 -1.2586375436e+01 5.9301944028e+01 5.0000000000e+01 4.0502e-05 -1.0000e+00
       12  1    3    3    0    0 +1.2457968428e+01 -2.6516084581e+01 +1.2586375436e+01 3.1886055972e+01 0.0000000000e+00 0.0000e+00 -1.0000e+00
</event>
<event>
 5      2 +1.7896800e-02 9.11880000e+01 7.81616400e-03 1.18400000e-01
      -11 -1    0    0    0    0 +0.0000000000e+00 +0.0000000000e+00 +4.5593999997e+01 4.5594000000e+01 5.1100000000e-04 0.0000e+00 -1.0000e+00
       11 -1    0    0    0    0 -0.0000000000e+00 -0.0000000000e+00 -4.5593999997e+01 4.5594000000e+01 5.1100000000e-04 0.0000e+00 1.0000e+00
       23  2    1    2    0    0 +0.0000000000e+00 +0.0000000000e+00 +0.0000000000e+00 9.1188000000e+01 9.1188000000e+01 2.5133e-14 0.0000e+00
  9900012  1    3    3    0    0 +1.1075806286e+01 -4.8207734225e+00 +2.9509442966e+01 5.9301944028e+01 5.0000000000e+01 6.7355e-04 -1.0000e+00
      -12  1    3    3    0    0 -1.1075806286e+01 +4.8207734225e+00 -2.9509442966e+01 3.1886055972e+01 0.0000000000e+00 0.0000e+00 1.0000e+00
</event>
<event>
 5      5 +1.7896800e-02 9.11880000e+01 7.81616400e-03 1.18400000e-01
      -11 -1    0    0    0    0 +0.0000000000e+00 +0.0000000000e+00 +4.5593999997e+01 4.5594000000e+01 5.1100000000e-04 0.0000e+00 1.0000e+00
       11 -1    0    0    0    0 -0.0000000000e+00 -0.0000000000e+00 -4.5593999997e+01 4.5594000000e+01 5.1100000000e-04 0.0000e+00 -1.0000e+00
       23  2    1    2    0    0 +0.0000000000e+00 +0.0000000000e+00 +0.0000000000e+00 9.1188000000e+01 9.1188000000e+01 1.0262e-13 0.0000e+00
  9900012  1    3    3    0    0 -1.9224243678e+01 -2.5438350459e+01 +1.9835925766e-01 5.9301944028e+01 5.0000000000e+01 6.8584e-04 1.0000e+00
       12  1    3    3    0    0 +1.9224243678e+01 +2.5438350459e+01 -1.9835925766e-01 3.1886055972e+01 0.0000000000e+00 0.0000e+00 -1.0000e+00
</event>
<event>
 5      4 +1.7896800e-02 9.11880000e+01 7.81616400e-03 1.18400000e-01
      -11 -1    0    0    0    0 +0.0000000000e+00 +0.0000000000e+00 +4.5593999997e+01 4.5594000000e+01 5.1100000000e-04 0.0000e+00 -1.0000e+00
       11 -1    0    0    0    0 -0.0000000000e+00 -0.0000000000e+00 -4.5593999997e+01 4.5594000000e+01 5.1100000000e-04 0.0000e+00 1.0000e+00
       23  2    1    2    0    0 +0.0000000000e+00 +0.0000000000e+00 +0.0000000000e+00 9.1188000000e+01 9.1188000000e+01 1.9019e-14 0.0000e+00
  9900012  1    3    3    0    0 +1.2245848804e+01 -2.1344161118e+01 +2.0277735049e+01 5.9301944028e+01 5.0000000000e+01 2.0021e-03 -1.0000e+00
      -12  1    3    3    0    0 -1.2245848804e+01 +2.1344161118e+01 -2.0277735049e+01 3.1886055972e+01 0.0000000000e+00 0.0000e+00 1.0000e+00
</event>
<event>
 5      2 +1.7896800e-02 9.11880000e+01 7.81616400e-03 1.18400000e-01
      -11 -1    0    0    0    0 +0.0000000000e+00 +0.0000000000e+00 +4.5593999997e+01 4.5594000000e+01 5.1100000000e-04 0.0000e+00 -1.0000e+00
       11 -1    0    0    0    0 -0.0000000000e+00 -0.0000000000e+00 -4.5593999997e+01 4.5594000000e+01 5.1100000000e-04 0.0000e+00 1.0000e+00
       23  2    1    2    0    0 +0.0000000000e+00 +0.0000000000e+00 +0.0000000000e+00 9.1188000000e+01 9.1188000000e+01 2.6995e-16 0.0000e+00
  9900012  1    3    3    0    0 +5.0193336521e+00 +2.9284587060e+01 +1.1573237053e+01 5.9301944028e+01 5.0000000000e+01 5.9351e-04 -1.0000e+00
      -12  1    3    3    0    0 -5.0193336521e+00 -2.9284587060e+01 -1.1573237053e+01 3.1886055972e+01 0.0000000000e+00 0.0000e+00 1.0000e+00
</event>
<event>
 5      6 +1.7896800e-02 9.11880000e+01 7.81616400e-03 1.18400000e-01
      -11 -1    0    0    0    0 +0.0000000000e+00 +0.0000000000e+00 +4.5593999997e+01 4.5594000000e+01 5.1100000000e-04 0.0000e+00 1.0000e+00
       11 -1    0    0    0    0 -0.0000000000e+00 -0.0000000000e+00 -4.5593999997e+01 4.5594000000e+01 5.1100000000e-04 0.0000e+00 -1.0000e+00
       23  2    1    2    0    0 +0.0000000000e+00 +0.0000000000e+00 +0.0000000000e+00 9.1188000000e+01 9.1188000000e+01 3.8748e-14 0.0000e+00
  9900012  1    3    3    0    0 -1.0756698268e+01 -2.8680877234e+01 -8.8555795373e+00 5.9301944028e+01 5.0000000000e+01 3.8363e-04 -1.0000e+00
      -12  1    3    3    0    0 +1.0756698268e+01 +2.8680877234e+01 +8.8555795373e+00 3.1886055972e+01 0.0000000000e+00 0.0000e+00 1.0000e+00
</event>
<event>
 5      7 +1.7896800e-02 9.11880000e+01 7.81616400e-03 1.18400000e-01
      -11 -1    0    0    0    0 +0.0000000000e+00 +0.0000000000e+00 +4.5593999997e+01 4.5594000000e+01 5.1100000000e-04 0.0000e+00 1.0000e+00
       11 -1    0    0    0    0 -0.0000000000e+00 -0.0000000000e+00 -4.5593999997e+01 4.5594000000e+01 5.1100000000e-04 0.0000e+00 -1.0000e+00
       23  2    1    2    0    0 +0.0000000000e+00 +0.0000000000e+00 +0.0000000000e+00 9.1188000000e+01 9.1188000000e+01 2.0215e-13 0.0000e+00
  9900012  1    3    3    0    0 +5.9564660043e+00 -2.6780350145e+01 -1.6249736131e+01 5.9301944028e+01 5.0000000000e+01 7.6472e-04 -1.0000e+00
       12  1    3    3    0    0 -5.9564660043e+00 +2.6780350145e+01 +1.6249736131e+01 3.1886055972e+01 0.0000000000e+00 0.0000e+00 -1.0000e+00
</event>
<event>
 5      4 +1.7896800e-02 9.11880000e+01 7.81616400e-03 1.18400000e-01
      -11 -1    0    0    0    0 +0.0000000000e+00 +0.0000000000e+00 +4.5593999997e+01 4.5594000000e+01 5.1100000000e-04 0.0000e+00 1.0000e+00
       11 -1    0    0    0    0 -0.0000000000e+00 -0.0000000000e+00 -4.5593999997e+01 4.5594000000e+01 5.1100000000e-04 0.0000e+00 -1.0000e+00
       23  2    1    2    0    0 +0.0000000000e+00 +0.0000000000e+00 +0.0000000000e+00 9.1188000000e+01 9.1188000000e+01 1.2070e-13 0.0000e+00
  9900012  1    3    3    0    0 +1.1497375351e+01 -2.1468467722e+01 -2.0582415290e+01 5.9301944028e+01 5.0000000000e+01 1.5387e-04 -1.0000e+00
      -12  1    3    3    0    0 -1.1497375351e+01 +2.1468467722e+01 +2.0582415290e+01 3.1886055972e+01 0.0000000000e+00 0.0000e+00 1.0000e+00
</event>
<event>
 5      3 +1.7896800e-02 9.11880000e+01 7.81616400e-03 1.18400000e-01
      -11 -1    0    0    0    0 +0.0000000000e+00 +0.0000000000e+00 +4.5593999997e+01 4.5594000000e+01 5.1100000000e-04 0.0000e+00 -1.0000e+00
       11 -1    0    0    0    0 -0.0000000000e+00 -0.0000000000e+00 -4.5593999997e+01 4.5594000000e+01 5.1100000000e-04 0.0000e+00 1.0000e+00
       23  2    1    2    0    0 +0.0000000000e+00 +0.0000000000e+00 +0.0000000000e+00 9.1188000000e+01 9.1188000000e+01 2.5007e-13 0.0000e+00
  9900012  1    3    3    0    0 -1.0776385269e+01 +7.5162126633e+00 -2.9053341171e+01 5.9301944028e+01 5.0000000000e+01 7.3465e-05 1.0000e+00
       12  1    3    3    0    0 +1.0776385269e+01 -7.5162126633e+00 +2.9053341171e+01 3.1886055972e+01 0.0000000000e+00 0.0000e+00 -1.0000e+00
</event>
<event>
 5      2 +1.7896800e-02 9.11880000e+01 7.81616400e-03 1.18400000e-01
      -11 -1    0    0    0    0 +0.0000000000e+00 +0.0000000000e+00 +4.5593999997e+01 4.5594000000e+01 5.1100000000e-04 0.0000e+00 1.0000e+00
       11 -1    0    0    0    0 -0.0000000000e+00 -0.0000000000e+00 -4.5593999997e+01 4.5594000000e+01 5.1100000000e-04 0.0000e+00 -1.0000e+00
       23  2    1    2    0    0 +0.0000000000e+00 +0.0000000000e+00 +0.0000000000e+00 9.1188000000e+01 9.1188000000e+01 1.6578e-14 0.0000e+00
  9900012  1    3    3    0    0 +5.8007000234e+00 +9.7152817265e-01 -3.1338930705e+01 5.9301944028e+01 5.0000000000e+01 4.1871e-05 -1.0000e+00
      -12  1    3    3    0    0 -5.8007000234e+00 -9.7152817265e-01 +3.1338930705e+01 3.1886055972e+01 0.0000000000e+00 0.0000e+00 1.0000e+00
</event>
<event>
 5      1 +1.7896800e-02 9.11880000e+01 7.81616400e-03 1.18400000e-01
      -11 -1    0    0    0    0 +0.0000000000e+00 +0.0000000000e+00 +4.5593999997e+01 4.5594000000e+01 5.1100000000e-04 0.0000e+00 1.0000e+00
       11 -1    0    0    0    0 -0.0000000000e+00 -0.0000000000e+00 -4.5593999997e+01 4.5594000000e+01 5.1100000000e-04 0.0000e+00 -1.0000e+00
       23  2    1    2    0    0 +0.0000000000e+00 +0.0000000000e+00 +0.0000000000e+00 9.1188000000e+01 9.1188000000e+01 2.4693e-13 0.0000e+00
  9900012  1    3    3    0    0 +8.8650487299e+00 -9.7677116091e-01 +3.0613353207e+01 5.9301944028e+01 5.0000000000e+01 1.8968e-04 1.0000e+00
       12  1    3    3    0    0 -8.8650487299e+00 +9.7677116091e-01 -3.0613353207e+01 3.1886055972e+01 0.0000000000e+00 0.0000e+00 -1.0000e+00
</event>
<event>
 5      5 +1.7896800e-02 9.11880000e+01 7.81616400e-03 1.18400000e-01
      -11 -1    0    0    0    0 +0.0000000000e+00 +0.0000000000e+00 +4.5593999997e+01 4.5594000000e+01 5.1100000000e-04 0.0000e+00 -1.0000e+00
       11 -1    0    0    0    0 -0.0000000000e+00 -0.0000000000e+00 -4.5593999997e+01 4.5594000000e+01 5.1100000000e-04 0.0000e+00 1.0000e+00
       23  2    1    2    0    0 +0.0000000000e+00 +0.0000000000e+00 +0.0000000000e+00 9.1188000000e+01 9.1188000000e+01 8.2148e-14 0.0000e+00
  9900012  1    3    3    0    0 -2.2402149685e+01 -2.2181350959e+01 -4.7803686689e+00 5.9301944028e+01 5.0000000000e+01 7.6482e-04 1.0000e+00
       12  1    3    3    0    0 +2.2402149685e+01 +2.2181350959e+01 +4.7803686689e+00 3.1886055972e+01 0.0000000000e+00 0.0000e+00 -1.0000e+00
</event>
<event>
 5      8 +1.7896800e-02 9.11880000e+01 7.81616400e-03 1.18400000e-01
      -11 -1    0    0    0    0 +0.0000000000e+00 +0.0000000000e+00 +4.5593999997e+01 4.5594000000e+01 5.1100000000e-04 0.0000e+00 1.0000e+00
       11 -1    0    0    0    0 -0.0000000000e+00 -0.0000000000e+00 -4.5593999997e+01 4.5594000000e+01 5.1100000000e-04 0.0000e+00 -1.0000e+00
       23  2    1    2    0    0 +0.0000000000e+00 +0.0000000000e+00 +0.0000000000e+00 9.1188000000e+01 9.1188000000e+01 3.5996e-13 0.0000e+00
  9900012  1    3    3    0    0 -1.8509915814e+01 +1.9758354272e+01 +1.6843723416e+01 5.9301944028e+01 5.0000000000e+01 3.5927e-04 1.0000e+00
      -12  1    3    3    0    0 +1.8509915814e+01 -1.9758354272e+01 -1.6843723416e+01 3.1886055972e+01 0.0000000000e+00 0.0000e+00 1.0000e+00
</event>
<event>
 5      6 +1.7896800e-02 9.11880000e+01 7.81616400e-03 1.18400000e-01
      -11 -1    0    0    0    0 +0.0000000000e+00 +0.0000000000e+00 +4.5593999997e+01 4.5594000000e+01 5.1100000000e-04 0.0000e+00 1.0000e+00
       11 -1    0    0    0    0 -0.0000000000e+00 -0.0000000000e+00 -4.5593999997e+01 4.5594000000e+01 5.1100000000e-04 0.0000e+00 -1.0000e+00
       23  2    1    2    0    0 +0.0000000000e+00 +0.0000000000e+00 +0.0000000000e+00 9.1188000000e+01 9.1188000000e+01 1.2106e-14 0.0000e+00
  9900012  1    3    3    0    0 +2.9663586305e+01 -1.0946950949e+01 -4.1178244172e+00 5.9301944028e+01 5.0000000000e+01 9.8466e-04 1.0000e+00
      -12  1    3    3    0    0 -2.9663586305e+01 +1.0946950949e+01 +4.1178244172e+00 3.1886055972e+01 0.0000000000e+00 0.0000e+00 1.0000e+00
</event>
<event>
 5      7 +1.7896800e-02 9.11880000e+01 7.81616400e-03 1.18400000e-01
      -11 -1    0    0    0    0 +0.0000000000e+00 +0.0000000000e+00 +4.5593999997e+01 4.5594000000e+01 5.1100000000e-04 0.0000e+00 -1.0000e+00
       11 -1    0    0    0    0 -0.0000000000e+00 -0.0000000000e+00 -4.5593999997e+01 4.5594000000e+01 5.1100000000e-04 0.0000e+00 1.0000e+00
       23  2    1    2    0    0 +0.0000000000e+00 +0.0000000000e+00 +0.0000000000e+00 9.1188000000e+01 9.1188000000e+01 1.4623e-14 0.0000e+00
  9900012  1    3    3    0    0 -5.2959453476e+00 +1.6340840934e+01 -2.6863552370e+01 5.9301944028e+01 5.0000000000e+01 1.8365e-03 1.0000e+00
       12  1    3    3    0    0 +5.2959453476e+00 -1.6340840934e+01 +2.6863552370e+01 3.1886055972e+01 0.0000000000e+00 0.0000e+00 -1.0000e+00
</event>
<event>
 5      6 +1.7896800e-02 9.11880000e+01 7.81616400e-03 1.18400000e-01
      -11 -1    0    0    0    0 +0.0000000000e+00 +0.0000000000e+00 +4.5593999997e+01 4.5594000000e+01 5.1100000000e-04 0.0000e+00 -1.0000e+00
       11 -1    0    0    0    0 -0.0000000000e+00 -0.0000000000e+00 -4.5593999997e+01 4.5594000000e+01 5.1100000000e-04 0.0000e+00 1.0000e+00
       23  2    1    2    0    0 +0.0000000000e+00 +0.0000000000e+00 +0.0000000000e+00 9.1188000000e+01 9.1188000000e+01 1.8195e-14 0.0000e+00
  9900012  1    3    3    0    0 +3.1194471928e+01 +1.2158725367e+00 -6.4920829161e+00 5.9301944028e+01 5.0000000000e+01 1.7842e-03 -1.0000e+00
      -12  1    3    3    0    0 -3.1194471928e+01 -1.2158725367e+00 +6.4920829161e+00 3.1886055972e+01 0.0000000000e+00 0.0000e+00 1.0000e+00
</event>
<event>
 5      3 +1.7896800e-02 9.11880000e+01 7.81616400e-03 1.18400000e-01
      -11 -1    0    0    0    0 +0.0000000000e+00 +0.0000000000e+00 +4.5593999997e+01 4.5594000000e+01 5.1100000000e-04 0.0000e+00 1.0000e+00
       11 -1    0    0    0    0 -0.0000000000e+00 -0.0000000000e+00 -4.5593999997e+01 4.5594000000e+01 5.1100000000e-04 0.0000e+00 -1.0000e+00
       23  2    1    2    0    0 +0.0000000000e+00 +0.0000000000e+00 +0.0000000000e+00 9.1188000000e+01 9.1188000000e+01 1.6315e-13 0.0000e+00
  9900012  1    3    3    0    0 +2.0510031340e+01 -1.1844666348e+01 +2.1348607894e+01 5.9301944028e+01 5.0000000000e+01 2.4024e-04 1.0000e+00
       12  1    3    3    0    0 -2.0510031340e+01 +1.1844666348e+01 -2.1348607894e+01 3.1886055972e+01 0.0000000000e+00 0.0000e+00 -1.0000e+00
</event>
<event>
 5      1 +1.7896800e-02 9.11880000e+01 7.81616400e-03 1.18400000e-01
      -11 -1    0    0    0    0 +0.0000000000e+00 +0.0000000000e+00 +4.5593999997e+01 4.5594000000e+01 5.1100000000e-04 0.0000e+00 1.0000e+00
       11 -1    0    0    0    0 -0.0000000000e+00 -0.0000000000e+00 -4.5593999997e+01 4.5594000000e+01 5.1100000000e-04 0.0000e+00 -1.0000e+00
       23  2    1    2    0    0 +0.0000000000e+00 +0.0000000000e+00 +0.0000000000e+00 9.1188000000e+01 9.1188000000e+01 7.4368e-14 0.0000e+00
  9900012  1    3    3    0    0 -1.3830587256e+01 +1.0249890063e+01 +2.6839805799e+01 5.9301944028e+01 5.0000000000e+01 1.2099e-04 1.0000e+00
       12  1    3    3    0    0 +1.3830587256e+01 -1.0249890063e+01 -2.6839805799e+01 3.1886055972e+01 0.0000000000e+00 0.0000e+00 -1.0000e+00
</event>
<event>
 5      8 +1.7896800e-02 9.11880000e+01 7.81616400e-03 1.18400000e-01
      -11 -1    0    0    0    0 +0.0000000000e+00 +0.0000000000e+00 +4.5593999997e+01 4.5594000000e+01 5.1100000000e-04 0.0000e+00 -1.0000e+00
       11 -1    0    0    0    0 -0.0000000000e+00 -0.0000000000e+00 -4.5593999997e+01 4.5594000000e+01 5.1100000000e-04 0.0000e+00 1.0000e+00
       23  2    1    2    0    0 +0.0000000000e+00 +0.0000000000e+00 +0.0000000000e+00 9.1188000000e+01 9.1188000000e+01 6.4350e-14 0.0000e+00
  9900012  1    3    3    0    0 +6.1337126226e+00 +1.6941239195e+01 +2.6307651919e+01 5.9301944028e+01 5.0000000000e+01 4.0512e-04 -1.0000e+00
      -12  1    3    3    0    0 -6.1337126226e+00 -1.6941239195e+01 -2.6307651919e+01 3.1886055972e+01 0.0000000000e+00 0.0000e+00 1.0000e+00
</event>
<event>
 5      2 +1.7896800e-02 9.11880000e+01 7.81616400e-03 1.18400000e-01
      -11 -1    0    0    0    0 +0.0000000000e+00 +0.0000000000e+00 +4.5593999997e+01 4.5594000000e+01 5.1100000000e-04 0.0000e+00 1.0000e+00
       11 -1    0    0    0    0 -0.0000000000e+00 -0.0000000000e+00 -4.5593999997e+01 4.5594000000e+01 5.1100000000e-04 0.0000e+00 -1.0000e+00
       23  2    1    2    0    0 +0.0000000000e+00 +0.0000000000e+00 +0.0000000000e+00 9.1188000000e+01 9.1188000000e+01 1.7653e-14 0.0000e+00
  9900012  1    3    3    0    0 -3.1510743122e+01 -1.8549398269e+00 +4.5114112641e+00 5.9301944028e+01 5.0000000000e+01 6.4410e-04 -1.0000e+00
      -12  1    3    3    0    0 +3.1510743122e+01 +1.8549398269e+00 -4.5114112641e+00 3.1886055972e+01 0.0000000000e+00 0.0000e+00 1.0000e+00
</event>
<event>
 5      2 +1.7896800e-02 9.11880000e+01 7.81616400e-03 1.18400000e-01
      -11 -1    0    0    0    0 +0.0000000000e+00 +0.0000000000e+00 +4.5593999997e+01 4.5594000000e+01 5.1100000000e-04 0.0000e+00 1.0000e+00
       11 -1    0    0    0    0 -0.0000000000e+00 -0.0000000000e+00 -4.5593999997e+01 4.5594000000e+01 5.1100000000e-04 0.0000e+00 -1.0000e+00
       23  2    1    2    0    0 +0.0000000000e+00 +0.0000000000e+00 +0.0000000000e+00 9.1188000000e+01 9.1188000000e+01 1.4201e-13 0.0000e+00
  9900012  1    3    3    0    0 -8.0743377982e+00 +2.2851816825e+01 -2.0720041081e+01 5.9301944028e+01 5.0000000000e+01 3.6974e-03 -1.0000e+00
      -12  1    3    3    0    0 +8.0743377982e+00 -2.2851816825e+01 +2.0720041081e+01 3.1886055972e+01 0.0000000000e+00 0.0000e+00 1.0000e+00
</event>
<event>
 5      3 +1.7896800e-02 9.11880000e+01 7.81616400e-03 1.18400000e-01
      -11 -1    0    0    0    0 +0.0000000000e+00 +0.0000000000e+00 +4.5593999997e+01 4.5594000000e+01 5.1100000000e-04 0.0000e+00 1.0000e+00
       11 -1    0    0    0    0 -0.0000000000e+00 -0.0000000000e+00 -4.5593999997e+01 4.5594000000e+01 5.1100000000e-04 0.0000e+00 -1.0000e+00
       23  2    1    2    0    0 +0.0000000000e+00 +0.0000000000e+00 +0.0000000000e+00 9.1188000000e+01 9.1188000000e+01 2.4696e-15 0.0000e+00
  9900012  1    3    3    0    0 +7.3524179207e+00 +1.8931979016e+01 +2.4581348351e+01 5.9301944028e+01 5.0000000000e+01 1.5292e-03 1.0000e+00
       12  1    3    3    0    0 -7.3524179207e+00 -1.8931979016e+01 -2.4581348351e+01 3.1886055972e+01 0.0000000000e+00 0.0000e+00 -1.0000e+00
</event>
<event>
 5      1 +1.7896800e-02 9.11880000e+01 7.81616400e-03 1.18400000e-01
      -11 -1    0    0    0    0 +0.0000000000e+00 +0.0000000000e+00 +4.5593999997e+01 4.5594000000e+01 5.1100000000e-04 0.0000e+00 -1.0000e+00
       11 -1    0    0    0    0 -0.0000000000e+00 -0.0000000000e+00 -4.5593999997e+01 4.5594000000e+01 5.1100000000e-04 0.0000e+00 1.0000e+00
       23  2    1    2    0    0 +0.0000000000e+00 +0.0000000000e+00 +0.0000000000e+00 9.1188000000e+01 9.1188000000e+01 3.0935e-13 0.0000e+00
  9900012  1    3    3    0    0 +1.1070133047e+01 +1.4414220806e+01 -2.6199293089e+01 5.9301944028e+01 5.0000000000e+01 2.7070e-04 1.0000e+00
       12  1    3    3    0    0 -1.1070133047e+01 -1.4414220806e+01 +2.6199293089e+01 3.1886055972e+01 0.0000000000e+00 0.0000e+00 -1.0000e+00
</event>
<event>
 5      4 +1.7896800e-02 9.11880000e+01 7.81616400e-03 1.18400000e-01
      -11 -1    0    0    0    0 +0.0000000000e+00 +0.0000000000e+00 +4.5593999997e+01 4.5594000000e+01 5.1100000000e-04 0.0000e+00 1.0000e+00
       11 -1    0    0    0    0 -0.0000000000e+00 -0.0000000000e+00 -4.5593999997e+01 4.5594000000e+01 5.1100000000e-04 0.0000e+00 -1.0000e+00
       23  2    1    2    0    0 +0.0000000000e+00 +0.0000000000e+00 +0.0000000000e+00 9.1188000000e+01 9.1188000000e+01 9.6962e-15 0.0000e+00
  9900012  1    3    3    0    0 -5.8974282704e+00 -5.4368940723e+00 -3.0860672191e+01 5.9301944028e+01 5.0000000000e+01 3.5592e-05 -1.0000e+00
      -12  1    3    3    0    0 +5.8974282704e+00 +5.4368940723e+00 +3.0860672191e+01 3.1886055972e+01 0.0000000000e+00 0.0000e+00 1.0000e+00
</event>
<event>
 5      1 +1.7896800e-02 9.11880000e+01 7.81616400e-03 1.18400000e-01
      -11 -1    0    0    0    0 +0.0000000000e+00 +0.0000000000e+00 +4.5593999997e+01 4.5594000000e+01 5.1100000000e-04 0.0000e+00 1.0000e+00
       11 -1    0    0    0    0 -0.0000000000e+00 -0.0000000000e+00 -4.5593999997e+01 4.5594000000e+01 5.1100000000e-04 0.0000e+00 -1.0000e+00
       23  2    1    2    0    0 +0.0000000000e+00 +0.0000000000e+00 +0.0000000000e+00 9.1188000000e+01 9.1188000000e+01 1.0861e-13 0.0000e+00
  9900012  1    3    3    0    0 +1.7582937346e+01 +2.3716362476e+01 +1.2045539867e+01 5.9301944028e+01 5.0000000000e+01 8.2296e-05 1.0000e+00
       12  1    3    3    0    0 -1.7582937346e+01 -2.3716362476e+01 -1.2045539867e+01 3.1886055972e+01 0.0000000000e+00 0.0000e+00 -1.0000e+00
</event>
<event>
 5      2 +1.7896800e-02 9.11880000e+01 7.81616400e-03 1.18400000e-01
      -11 -1    0    0    0    0 +0.0000000000e+00 +0.0000000000e+00 +4.5593999997e+01 4.5594000000e+01 5.1100000000e-04 0.0000e+00 1.0000e+00
       11 -1    0    0    0    0 -0.0000000000e+00 -0.0000000000e+00 -4.5593999997e+01 4.5594000000e+01 5.1100000000e-04 0.0000e+00 -1.0000e+00
       23  2    1    2    0    0 +0.0000000000e+00 +0.0000000000e+00 +0.0000000000e+00 9.1188000000e+01 9.1188000000e+01 6.2000e-15 0.0000e+00
  9900012  1    3    3    0    0 -1.8774452140e+00 -2.0865134850e+01 -2.4038342551e+01 5.9301944028e+01 5.0000000000e+01 2.1702e-04 -1.0000e+00
      -12  1    3    3    0    0 +1.8774452140e+00 +2.0865134850e+01 +2.4038342551e+01 3.1886055972e+01 0.0000000000e+00 0.0000e+00 1.0000e+00
</event>
<event>
 5      8 +1.7896800e-02 9.11880000e+01 7.81616400e-03 1.18400000e-01
      -11 -1    0    0    0    0 +0.0000000000e+00 +0.0000000000e+00 +4.5593999997e+01 4.5594000000e+01 5.1100000000e-04 0.0000e+00 1.0000e+00
       11 -1    0    0    0    0 -0.0000000000e+00 -0.0000000000e+00 -4.5593999997e+01 4.5594000000e+01 5.1100000000e-04 0.0000e+00 -1.0000e+00
       23  2    1    2    0    0 +0.0000000000e+00 +0.0000000000e+00 +0.0000000000e+00 9.1188000000e+01 9.1188000000e+01 2.3034e-14 0.0000e+00
  9900012  1    3    3    0    0 +2.1551477981e+01 -2.0365639595e+01 -1.1725829872e+01 5.9301944028e+01 5.0000000000e+01 7.5980e-05 -1.0000e+00
      -12  1    3    3    0    0 -2.1551477981e+01 +2.0365639595e+01 +1.1725829872e+01 3.1886055972e+01 0.0000000000e+00 0.0000e+00 1.0000e+00
</event>
<event>
 5      5 +1.7896800e-02 9.11880000e+01 7.81616400e-03 1.18400000e-01
      -11 -1    0    0    0    0 +0.0000000000e+00 +0.0000000000e+00 +4.5593999997e+01 4.5594000000e+01 5.1100000000e-04 0.0000e+00 1.0000e+00
       11 -1    0    0    0    0 -0.0000000000e+00 -0.0000000000e+00 -4.5593999997e+01 4.5594000000e+01 5.1100000000e-04 0.0000e+00 -1.0000e+00
       23  2    1    2    0    0 +0.0000000000e+00 +0.0000000000e+00 +0.0000000000e+00 9.1188000000e+01 9.1188000000e+01 9.9431e-15 0.0000e+00
  9900012  1    3    3    0    0 +1.9679346841e+01 +1.6360140547e+01 +1.9020769560e+01 5.9301944028e+01 5.0000000000e+01 1.5880e-04 1.0000e+00
       12  1    3    3    0    0 -1.9679346841e+01 -1.6360140547e+01 -1.9020769560e+01 3.1886055972e+01 0.0000000000e+00 0.0000e+00 -1.0000e+00
</event>
<event>
 5      4 +1.7896800e-02 9.11880000e+01 7.81616400e-03 1.18400000e-01
      -11 -1    0    0    0    0 +0.0000000000e+00 +0.0000000000e+00 +4.5593999997e+01 4.5594000000e+01 5.1100000000e-04 0.0000e+00 1.0000e+00
       11 -1    0    0    0    0 -0.0000000000e+00 -0.0000000000e+00 -4.5593999997e+01 4.5594000000e+01 5.1100000000e-04 0.0000e+00 -1.0000e+00
       23  2    1    2    0    0 +0.0000000000e+00 +0.0000000000e+00 +0.0000000000e+00 9.1188000000e+01 9.1188000000e+01 2.3235e-14 0.0000e+00
  9900012  1    3    3    0    0 -2.0872289060e+01 +2.0068270424e+01 -1.3354124347e+01 5.9301944028e+01 5.0000000000e+01 4.5449e-04 -1.0000e+00
      -12  1    3    3    0    0 +2.0872289060e+01 -2.0068270424e+01 +1.3354124347e+01 3.1886055972e+01 0.0000000000e+00 0.0000e+00 1.0000e+00
</event>
<event>
 5      1 +1.7896800e-02 9.11880000e+01 7.81616400e-03 1.18400000e-01
      -11 -1    0    0    0    0 +0.0000000000e+00 +0.0000000000e+00 +4.5593999997e+01 4.5594000000e+01 5.1100000000e-04 0.0000e+00 1.0000e+00
       11 -1    0    0    0    0 -0.0000000000e+00 -0.0000000000e+00 -4.5593999997e+01 4.5594000000e+01 5.1100000000e-04 0.0000e+00 -1.0000e+00
       23  2    1    2    0    0 +0.0000000000e+00 +0.0000000000e+00 +0.0000000000e+00 9.1188000000e+01 9.1188000000e+01 3.8931e-14 0.0000e+00
  9900012  1    3    3    0    0 -5.6868180550e-01 -3.1826090935e+01 -1.8700540750e+00 5.9301944028e+01 5.0000000000e+01 7.4080e-04 1.0000e+00
       12  1    3    3    0    0 +5.6868180550e-01 +3.1826090935e+01 +1.8700540750e+00 3.1886055972e+01 0.0000000000e+00 0.0000e+00 -1.0000e+00
</event>
<event>
 5      3 +1.7896800e-02 9.11880000e+01 7.81616400e-03 1.18400000e-01
      -11 -1    0    0    0    0 +0.0000000000e+00 +0.0000000000e+00 +4.5593999997e+01 4.5594000000e+01 5.1100000000e-04 0.0000e+00 -1.0000e+00
       11 -1    0    0    0    0 -0.0000000000e+00 -0.0000000000e+00 -4.5593999997e+01 4.5594000000e+01 5.1100000000e-04 0.0000e+00 1.0000e+00
       23  2    1    2    0    0 +0.0000000000e+00 +0.0000000000e+00 +0.0000000000e+00 9.1188000000e+01 9.1188000000e+01 2.5680e-14 0.0000e+00
  9900012  1    3    3    0    0 +8.9622462273e+00 -1.4616097183e+00 -3.0565706356e+01 5.9301944028e+01 5.0000000000e+01 6.4709e-04 1.0000e+00
       12  1    3    3    0    0 -8.9622462273e+00 +1.4616097183e+00 +3.0565706356e+01 3.1886055972e+01 0.0000000000e+00 0.0000e+00 -1.0000e+00
</event>
<event>
 5      2 +1.7896800e-02 9.11880000e+01 7.81616400e-03 1.18400000e-01
      -11 -1    0    0    0    0 +0.0000000000e+00 +0.0000000000e+00 +4.5593999997e+01 4.5594000000e+01 5.1100000000e-04 0.0000e+00 -1.0000e+00
       11 -1    0    0    0    0 -0.0000000000e+00 -0.0000000000e+00 -4.5593999997e+01 4.5594000000e+01 5.1100000000e-04 0.0000e+00 1.0000e+00
       23  2    1    2    0    0 +0.0000000000e+00 +0.0000000000e+00 +0.0000000000e+00 9.1188000000e+01 9.1188000000e+01 3.9899e-16 0.0000e+00
  9900012  1    3    3    0    0 -8.6126502946e+00 +2.1804326655e+01 +2.1612823959e+01 5.9301944028e+01 5.0000000000e+01 8.0406e-04 -1.0000e+00
      -12  1    3    3    0    0 +8.6126502946e+00 -2.1804326655e+01 -2.1612823959e+01 3.1886055972e+01 0.0000000000e+00 0.0000e+00 1.0000e+00
</event>
<event>
 5      2 +1.7896800e-02 9.11880000e+01 7.81616400e-03 1.18400000e-01
      -11 -1    0    0    0    0 +0.0000000000e+00 +0.0000000000e+00 +4.5593999997e+01 4.5594000000e+01 5.1100000000e-04 0.0000e+00 -1.0000e+00
       11 -1    0    0    0    0 -0.0000000000e+00 -0.0000000000e+00 -4.5593999997e+01 4.5594000000e+01 5.1100000000e-04 0.0000e+00 1.0000e+00
       23  2    1    2    0    0 +0.0000000000e+00 +0.0000000000e+00 +0.0000000000e+00 9.1188000000e+01 9.1188000000e+01 8.1027e-14 0.0000e+00
  9900012  1    3    3    0    0 -1.4554301780e+01 +2.3139860236e+01 +1.6414619503e+01 5.9301944028e+01 5.0000000000e+01 5.4612e-04 -1.0000e+00
      -12  1    3    3    0    0 +1.4554301780e+01 -2.3139860236e+01 -1.6414619503e+01 3.1886055972e+01 0.0000000000e+00 0.0000e+00 1.0000e+00
</event>
<event>
 5      5 +1.7896800e-02 9.11880000e+01 7.81616400e-03 1.18400000e-01
      -11 -1    0    0    0    0 +0.0000000000e+00 +0.0000000000e+00 +4.5593999997e+01 4.5594000000e+01 5.1100000000e-04 0.0000e+00 -1.0000e+00
       11 -1    0    0    0    0 -0.0000000000e+00 -0.0000000000e+00 -4.5593999997e+01 4.5594000000e+01 5.1100000000e-04 0.0000e+00 1.0000e+00
       23  2    1    2    0    0 +0.0000000000e+00 +0.0000000000e+00 +0.0000000000e+00 9.1188000000e+01 9.1188000000e+01 2.3896e-14 0.0000e+00
  9900012  1    3    3    0    0 -3.3828681790e+00 +2.8543242224e+01 -1.3804350462e+01 5.9301944028e+01 5.0000000000e+01 2.9041e-05 1.0000e+00
       12  1    3    3    0    0 +3.3828681790e+00 -2.8543242224e+01 +1.3804350462e+01 3.1886055972e+01 0.0000000000e+00 0.0000e+00 -1.0000e+00
</event>
<event>
 5      5 +1.7896800e-02 9.11880000e+01 7.81616400e-03 1.18400000e-01
      -11 -1    0    0    0    0 +0.0000000000e+00 +0.0000000000e+00 +4.5593999997e+01 4.5594000000e+01 5.1100000000e-04 0.0000e+00 -1.0000e+00
       11 -1    0    0    0    0 -0.0000000000e+00 -0.0000000000e+00 -4.5593999997e+01 4.5594000000e+01 5.1100000000e-04 0.0000e+00 1.0000e+00
       23  2    1    2    0    0 +0.0000000000e+00 +0.0000000000e+00 +0.0000000000e+00 9.1188000000e+01 9.1188000000e+01 1.5222e-14 0.0000e+00
  9900012  1    3    3    0    0 -1.2311785174e+01 -2.8044296601e+01 -8.8689311326e+00 5.9301944028e+01 5.0000000000e+01 1.0205e-04 1.0000e+00
       12  1    3    3    0    0 +1.2311785174e+01 +2.8044296601e+01 +8.8689311326e+00 3.1886055972e+01 0.0000000000e+00 0.0000e+00 -1.0000e+00
</event>
<event>
 5      2 +1.7896800e-02 9.11880000e+01 7.81616400e-03 1.18400000e-01
      -11 -1    0    0    0    0 +0.0000000000e+00 +0.0000000000e+00 +4.5593999997e+01 4.5594000000e+01 5.1100000000e-04 0.0000e+00 -1.0000e+00
       11 -1    0    0    0    0 -0.0000000000e+00 -0.0000000000e+00 -4.5593999997e+01 4.5594000000e+01 5.1100000000e-04 0.0000e+00 1.0000e+00
       23  2    1    2    0    0 +0.0000000000e+00 +0.0000000000e+00 +0.0000000000e+00 9.1188000000e+01 9.1188000000e+01 1.0266e-14 0.0000e+00
  9900012  1    3    3    0    0 -1.3711581350e+01 +1.0868450411e+01 +2.6656891942e+01 5.9301944028e+01 5.0000000000e+01 1.1924e-03 -1.0000e+00
      -12  1    3    3    0    0 +1.3711581350e+01 -1.0868450411e+01 -2.6656891942e+01 3.1886055972e+01 0.0000000000e+00 0.0000e+00 1.0000e+00
</event>
<event>
 5      3 +1.7896800e-02 9.11880000e+01 7.81616400e-03 1.18400000e-01
      -11 -1    0    0    0    0 +0.0000000000e+00 +0.0000000000e+00 +4.5593999997e+01 4.5594000000e+01 5.1100000000e-04 0.0000e+00 -1.0000e+00
       11 -1    0    0    0    0 -0.0000000000e+00 -0.0000000000e+00 -4.5593999997e+01 4.5594000000e+01 5.1100000000e-04 0.0000e+00 1.0000e+00
       23  2    1    2    0    0 +0.0000000000e+00 +0.0000000000e+00 +0.0000000000e+00 9.1188000000e+01 9.1188000000e+01 2.3145e-13 0.0000e+00
  9900012  1    3    3    0    0 -2.3041520805e+01 +1.7585419021e+01 -1.3287660529e+01 5.9301944028e+01 5.0000000000e+01 9.3780e-04 -1.0000e+00
       12  1    3    3    0    0 +2.3041520805e+01 -1.7585419021e+01 +1.3287660529e+01 3.1886055972e+01 0.0000000000e+00 0.0000e+00 -1.0000e+00
</event>
<event>
 5      2 +1.7896800e-02 9.11880000e+01 7.81616400e-03 1.18400000e-01
      -11 -1    0    0    0    0 +0.0000000000e+00 +0.0000000000e+00 +4.5593999997e+01 4.5594000000e+01 5.1100000000e-04 0.0000e+00 1.0000e+00
       11 -1    0    0    0    0 -0.0000000000e+00 -0.0000000000e+00 -4.5593999997e+01 4.5594000000e+01 5.1100000000e-04 0.0000e+00 -1.0000e+00
       23  2    1    2    0    0 +0.0000000000e+00 +0.0000000000e+00 +0.0000000000e+00 9.1188000000e+01 9.1188000000e+01 9.8868e-14 0.0000e+00
  9900012  1    3    3    0    0 -1.5727028057e+01 -5.3071155334e+00 -2.7225276466e+01 5.9301944028e+01 5.0000000000e+01 1.1749e-03 -1.0000e+00
      -12  1    3    3    0    0 +1.5727028057e+01 +5.3071155334e+00 +2.7225276466e+01 3.1886055972e+01 0.0000000000e+00 0.0000e+00 1.0000e+00
</event>
<event>
 5      3 +1.7896800e-02 9.11880000e+01 7.81616400e-03 1.18400000e-01
      -11 -1    0    0    0    0 +0.0000000000e+00 +0.0000000000e+00 +4.5593999997e+01 4.5594000000e+01 5.1100000000e-04 0.0000e+00 -1.0000e+00
       11 -1    0    0    0    0 -0.0000000000e+00 -0.0000000000e+00 -4.5593999997e+01 4.5594000000e+01 5.1100000000e-04 0.0000e+00 1.0000e+00
       23  2    1    2    0    0 +0.0000000000e+00 +0.0000000000e+00 +0.0000000000e+00 9.1188000000e+01 9.1188000000e+01 1.2666e-13 0.0000e+00
  9900012  1    3    3    0    0 +2.5137004709e+01 +1.1781070537e+00 -1.9582227235e+01 5.9301944028e+01 5.0000000000e+01 2.7351e-03 1.0000e+00
       12  1    3    3    0    0 -2.5137004709e+01 -1.1781070537e+00 +1.9582227235e+01 3.1886055972e+01 0.0000000000e+00 0.0000e+00 -1.0000e+00
</event>
<event>
 5      4 +1.7896800e-02 9.11880000e+01 7.81616400e-03 1.18400000e-01
      -11 -1    0    0    0    0 +0.0000000000e+00 +0.0000000000e+00 +4.5593999997e+01 4.5594000000e+01 5.1100000000e-04 0.0000e+00 1.0000e+00
       11 -1    0    0    0    0 -0.0000000000e+00 -0.0000000000e+00 -4.5593999997e+01 4.5594000000e+01 5.1100000000e-04 0.0000e+00 -1.0000e+00
       23  2    1    2    0    0 +0.0000000000e+00 +0.0000000000e+00 +0.0000000000e+00 9.1188000000e+01 9.1188000000e+01 1.7170e-14 0.0000e+00
  9900012  1    3    3    0    0 -9.8782728359e+00 +2.7701910051e+01 -1.2318460568e+01 5.9301944028e+01 5.0000000000e+01 1.4935e-04 -1.0000e+00
      -12  1    3    3    0    0 +9.8782728359e+00 -2.7701910051e+01 +1.2318460568e+01 3.1886055972e+01 0.0000000000e+00 0.0000e+00 1.0000e+00
</event>
<event>
 5      1 +1.7896800e-02 9.11880000e+01 7.81616400e-03 1.18400000e-01
      -11 -1    0    0    0    0 +0.0000000000e+00 +0.0000000000e+00 +4.5593999997e+01 4.5594000000e+01 5.1100000000e-04 0.0000e+00 1.0000e+00
       11 -1    0    0    0    0 -0.0000000000e+00 -0.0000000000e+00 -4.5593999997e+01 4.5594000000e+01 5.1100000000e-04 0.0000e+00 -1.0000e+00
       23  2    1    2    0    0 +0.0000000000e+00 +0.0000000000e+00 +0.0000000000e+00 9.1188000000e+01 9.1188000000e+01 2.1406e-13 0.0000e+00
  9900012  1    3    3    0    0 +9.3437322199e+00 +3.0356934239e+01 +2.8056687806e+00 5.9301944028e+01 5.0000000000e+01 5.4967e-04 -1.0000e+00
       12  1    3    3    0    0 -9.3437322199e+00 -3.0356934239e+01 -2.8056687806e+00 3.1886055972e+01 0.0000000000e+00 0.0000e+00 -1.0000e+00
</event>
<event>
 5      2 +1.7896800e-02 9.11880000e+01 7.81616400e-03 1.18400000e-01
      -11 -1    0    0    0    0 +0.0000000000e+00 +0.0000000000e+00 +4.5593999997e+01 4.5594000000e+01 5.1100000000e-04 0.0000e+00 -1.0000e+00
       11 -1    0    0    0    0 -0.0000000000e+00 -0.0000000000e+00 -4.5593999997e+01 4.5594000000e+01 5.1100000000e-04 0.0000e+00 1.0000e+00
       23  2    1    2    0    0 +0.0000000000e+00 +0.0000000000e+00 +0.0000000000e+00 9.1188000000e+01 9.1188000000e+01 6.3718e-14 0.0000e+00
  9900012  1    3    3    0    0 +1.2061812666e+01 -1.2147852828e+01 +2.6900983483e+01 5.9301944028e+01 5.0000000000e+01 9.1664e-04 -1.0000e+00
      -12  1    3    3    0    0 -1.2061812666e+01 +1.2147852828e+01 -2.6900983483e+01 3.1886055972e+01 0.0000000000e+00 0.0000e+00 1.0000e+00
</event>
<event>
 5      4 +1.7896800e-02 9.11880000e+01 7.81616400e-03 1.18400000e-01
      -11 -1    0    0    0    0 +0.0000000000e+00 +0.0000000000e+00 +4.5593999997e+01 4.5594000000e+01 5.1100000000e-04 0.0000e+00 -1.0000e+00
       11 -1    0    0    0    0 -0.0000000000e+00 -0.0000000000e+00 -4.5593999997e+01 4.5594000000e+01 5.1100000000e-04 0.0000e+00 1.0000e+00
       23  2    1    2    0    0 +0.0000000000e+00 +0.0000000000e+00 +0.0000000000e+00 9.1188000000e+01 9.1188000000e+01 7.7384e-16 0.0000e+00
  9900012  1    3    3    0    0 -1.2658833227e+01 +2.5260389055e+01 +1.4777931235e+01 5.9301944028e+01 5.0000000000e+01 6.1780e-05 -1.0000e+00
      -12  1    3    3    0    0 +1.2658833227e+01 -2.5260389055e+01 -1.4777931235e+01 3.1886055972e+01 0.0000000000e+00 0.0000e+00 1.0000e+00
</event>
<event>
 5      6 +1.7896800e-02 9.11880000e+01 7.81616400e-03 1.18400000e-01
      -11 -1    0    0    0    0 +0.0000000000e+00 +0.0000000000e+00 +4.5593999997e+01 4.5594000000e+01 5.1100000000e-04 0.0000e+00 -1.0000e+00
       11 -1    0    0    0    0 -0.0000000000e+00 -0.0000000000e+00 -4.5593999997e+01 4.5594000000e+01 5.1100000000e-04 0.0000e+00 1.0000e+00
       23  2    1    2    0    0 +0.0000000000e+00 +0.0000000000e+00 +0.0000000000e+00 9.1188000000e+01 9.1188000000e+01 2.0049e-13 0.0000e+00
  9900012  1    3    3    0    0 -6.8263891106e+00 -2.8140888107e+01 -1.3349584029e+01 5.9301944028e+01 5.0000000000e+01 1.0054e-03 -1.0000e+00
      -12  1    3    3    0    0 +6.8263891106e+00 +2.8140888107e+01 +1.3349584029e+01 3.1886055972e+01 0.0000000000e+00 0.0000e+00 1.0000e+00
</event>
<event>
 5      1 +1.7896800e-02 9.11880000e+01 7.81616400e-03 1.18400000e-01
      -11 -1    0    0    0    0 +0.0000000000e+00 +0.0000000000e+00 +4.5593999997e+01 4.5594000000e+01 5.1100000000e-04 0.0000e+00 -1.0000e+00
       11 -1    0    0    0    0 -0.0000000000e+00 -0.0000000000e+00 -4.5593999997e+01 4.5594000000e+01 5.1100000000e-04 0.0000e+00 1.0000e+00
       23  2    1    2    0    0 +0.0000000000e+00 +0.0000000000e+00 +0.0000000000e+00 9.1188000000e+01 9.1188000000e+01 5.2129e-14 0.0000e+00
  9900012  1    3    3    0    0 -2.5961873901e+01 +1.6658545730e+01 -8.0743125523e+00 5.9301944028e+01 5.0000000000e+01 5.5494e-04 1.0000e+00
       12  1    3    3    0    0 +2.5961873901e+01 -1.6658545730e+01 +8.0743125523e+00 3.1886055972e+01 0.0000000000e+00 0.0000e+00 -1.0000e+00
</event>
<event>
 5      3 +1.7896800e-02 9.11880000e+01 7.81616400e-03 1.18400000e-01
      -11 -1    0    0    0    0 +0.0000000000e+00 +0.0000000000e+00 +4.5593999997e+01 4.5594000000e+01 5.1100000000e-04 0.0000e+00 1.0000e+00
       11 -1    0    0    0    0 -0.0000000000e+00 -0.0000000000e+00 -4.5593999997e+01 4.5594000000e+01 5.1100000000e-04 0.0000e+00 -1.0000e+00
       23  2    1    2    0    0 +0.0000000000e+00 +0.0000000000e+00 +0.0000000000e+00 9.1188000000e+01 9.1188000000e+01 2.1372e-14 0.0000e+00
  9900012  1    3    3    0    0 -1.6011389029e+00 +2.9154182948e+01 +1.2813685509e+01 5.9301944028e+01 5.0000000000e+01 6.2024e-04 1.0000e+00
       12  1    3    3    0    0 +1.6011389029e+00 -2.9154182948e+01 -1.2813685509e+01 3.1886055972e+01 0.0000000000e+00 0.0000e+00 -1.0000e+00
</event>
<event>
 5      8 +1.7896800e-02 9.11880000e+01 7.81616400e-03 1.18400000e-01
      -11 -1    0    0    0    0 +0.0000000000e+00 +0.0000000000e+00 +4.5593999997e+01 4.5594000000e+01 5.1100000000e-04 0.0000e+00 1.0000e+00
       11 -1    0    0    0    0 -0.0000000000e+00 -0.0000000000e+00 -4.5593999997e+01 4.5594000000e+01 5.1100000000e-04 0.0000e+00 -1.0000e+00
       23  2    1    2    0    0 +0.0000000000e+00 +0.0000000000e+00 +0.0000000000e+00 9.1188000000e+01 9.1188000000e+01 3.5545e-14 0.0000e+00
  9900012  1    3    3    0    0 -5.8863760364e+00 -2.1437269611e+01 -2.2858578570e+01 5.9301944028e+01 5.0000000000e+01 2.2717e-03 -1.0000e+00
      -12  1    3    3    0    0 +5.8863760364e+00 +2.1437269611e+01 +2.2858578570e+01 3.1886055972e+01 0.0000000000e+00 0.0000e+00 1.0000e+00
</event>
<event>
 5      3 +1.7896800e-02 9.11880000e+01 7.81616400e-03 1.18400000e-01
      -11 -1    0    0    0    0 +0.0000000000e+00 +0.0000000000e+00 +4.5593999997e+01 4.5594000000e+01 5.1100000000e-04 0.0000e+00 1.0000e+00
       11 -1    0    0    0    0 -0.0000000000e+00 -0.0000000000e+00 -4.5593999997e+01 4.5594000000e+01 5.1100000000e-04 0.0000e+00 -1.0000e+00
       23  2    1    2    0    0 +0.0000000000e+00 +0.0000000000e+00 +0.0000000000e+00 9.1188000000e+01 9.1188000000e+01 2.5636e-14 0.0000e+00
  9900012  1    3    3    0    0 +1.5937036815e+01 +2.7617516840e+01 -6.4704115335e-02 5.9301944028e+01 5.0000000000e+01 1.1080e-04 -1.0000e+00
       12  1    3    3    0    0 -1.5937036815e+01 -2.7617516840e+01 +6.4704115335e-02 3.1886055972e+01 0.0000000000e+00 0.0000e+00 -1.0000e+00
</event>
<event>
 5      5 +1.7896800e-02 9.11880000e+01 7.81616400e-03 1.18400000e-01
      -11 -1    0    0    0    0 +0.0000000000e+00 +0.0000000000e+00 +4.5593999997e+01 4.5594000000e+01 5.1100000000e-04 0.0000e+00 1.0000e+00
       11 -1    0    0    0    0 -0.0000000000e+00 -0.0000000000e+00 -4.5593999997e+01 4.5594000000e+01 5.1100000000e-04 0.0000e+00 -1.0000e+00
       23  2    1    2    0    0 +0.0000000000e+00 +0.0000000000e+00 +0.0000000000e+00 9.1188000000e+01 9.1188000000e+01 4.0206e-14 0.0000e+00
  9900012  1    3    3    0    0 +1.8370539151e+01 +2.6047127528e+01 -8.8938422730e-01 5.9301944028e+01 5.0000000000e+01 2.1877e-03 1.0000e+00
       12  1    3    3    0    0 -1.8370539151e+01 -2.6047127528e+01 +8.8938422730e-01 3.1886055972e+01 0.0000000000e+00 0.0000e+00 -1.0000e+00
</event>
<event>
 5      8 +1.7896800e-02 9.11880000e+01 7.81616400e-03 1.18400000e-01
      -11 -1    0    0    0    0 +0.0000000000e+00 +0.0000000000e+00 +4.5593999997e+01 4.5594000000e+01 5.1100000000e-04 0.0000e+00 1.0000e+00
       11 -1    0    0    0    0 -0.0000000000e+00 -0.0000000000e+00 -4.5593999997e+01 4.5594000000e+01 5.1100000000e-04 0.0000e+00 -1.0000e+00
       23  2    1    2    0    0 +0.0000000000e+00 +0.0000000000e+00 +0.0000000000e+00 9.1188000000e+01 9.1188000000e+01 1.0246e-13 0.0000e+00
  9900012  1    3    3    0    0 +3.2015246722e+00 -2.8275524859e+01 -1.4386295534e+01 5.9301944028e+01 5.0000000000e+01 7.3875e-04 1.0000e+00
      -12  1    3    3    0    0 -3.2015246722e+00 +2.8275524859e+01 +1.4386295534e+01 3.1886055972e+01 0.0000000000e+00 0.0000e+00 1.0000e+00
</event>
<event>
 5      4 +1.7896800e-02 9.11880000e+01 7.81616400e-03 1.18400000e-01
      -11 -1    0    0    0    0 +0.0000000000e+00 +0.0000000000e+00 +4.5593999997e+01 4.5594000000e+01 5.1100000000e-04 0.0000e+00 1.0000e+00
       11 -1    0    0    0    0 -0.0000000000e+00 -0.0000000000e+00 -4.5593999997e+01 4.5594000000e+01 5.1100000000e-04 0.0000e+00 -1.0000e+00
       23  2    1    2    0    0 +0.0000000000e+00 +0.0000000000e+00 +0.0000000000e+00 9.1188000000e+01 9.1188000000e+01 4.2226e-14 0.0000e+00
  9900012  1    3    3    0    0 -2.2481852134e+01 +1.9088704116e+01 +1.2120571985e+01 5.9301944028e+01 5.0000000000e+01 1.6239e-03 -1.0000e+00
      -12  1    3    3    0    0 +2.2481852134e+01 -1.9088704116e+01 -1.2120571985e+01 3.1886055972e+01 0.0000000000e+00 0.0000e+00 1.0000e+00
</event>
<event>
 5      8 +1.7896800e-02 9.11880000e+01 7.81616400e-03 1.18400000e-01
      -11 -1    0    0    0    0 +0.0000000000e+00 +0.0000000000e+00 +4.5593999997e+01 4.5594000000e+01 5.1100000000e-04 0.0000e+00 1.0000e+00
       11 -1    0    0    0    0 -0.0000000000e+00 -0.0000000000e+00 -4.5593999997e+01 4.5594000000e+01 5.1100000000e-04 0.0000e+00 -1.0000e+00
       23  2    1    2    0    0 +0.0000000000e+00 +0.0000000000e+00 +0.0000000000e+00 9.1188000000e+01 9.1188000000e+01 1.3427e-13 0.0000e+00
  9900012  1    3    3    0    0 +1.5139434287e+01 -1.3015765775e+01 -2.4861776611e+01 5.9301944028e+01 5.0000000000e+01 5.8723e-04 -1.0000e+00
      -12  1    3    3    0    0 -1.5139434287e+01 +1.3015765775e+01 +2.4861776611e+01 3.1886055972e+01 0.0000000000e+00 0.0000e+00 1.0000e+00
</event>
<event>
 5      4 +1.7896800e-02 9.11880000e+01 7.81616400e-03 1.18400000e-01
      -11 -1    0    0    0    0 +0.0000000000e+00 +0.0000000000e+00 +4.5593999997e+01 4.5594000000e+01 5.1100000000e-04 0.0000e+00 1.0000e+00
       11 -1    0    0    0    0 -0.0000000000e+00 -0.0000000000e+00 -4.5593999997e+01 4.5594000000e+01 5.1100000000e-04 0.0000e+00 -1.0000e+00
       23  2    1    2    0    0 +0.0000000000e+00 +0.0000000000e+00 +0.0000000000e+00 9.1188000000e+01 9.1188000000e+01 1.2792e-13 0.0000e+00
  9900012  1    3    3    0    0 -4.0356076088e+00 -1.7608861028e+01 -2.6274749285e+01 5.9301944028e+01 5.0000000000e+01 4.8761e-05 -1.0000e+00
      -12  1    3    3    0    0 +4.0356076088e+00 +1.7608861028e+01 +2.6274749285e+01 3.1886055972e+01 0.0000000000e+00 0.0000e+00 1.0000e+00
</event>
<event>
 5      6 +1.7896800e-02 9.11880000e+01 7.81616400e-03 1.18400000e-01
      -11 -1    0    0    0    0 +0.0000000000e+00 +0.0000000000e+00 +4.5593999997e+01 4.5594000000e+01 5.1100000000e-04 0.0000e+00 -1.0000e+00
       11 -1    0    0    0    0 -0.0000000000e+00 -0.0000000000e+00 -4.5593999997e+01 4.5594000000e+01 5.1100000000e-04 0.0000e+00 1.0000e+00
       23  2    1    2    0    0 +0.0000000000e+00 +0.0000000000e+00 +0.0000000000e+00 9.1188000000e+01 9.1188000000e+01 1.1800e-13 0.0000e+00
  9900012  1    3    3    0    0 -1.7356978238e+01 +1.9126379370e+00 +2.6679536878e+01 5.9301944028e+01 5.0000000000e+01 1.8577e-03 -1.0000e+00
      -12  1    3    3    0    0 +1.7356978238e+01 -1.9126379370e+00 -2.6679536878e+01 3.1886055972e+01 0.0000000000e+00 0.0000e+00 1.0000e+00
</event>
<event>
 5      2 +1.7896800e-02 9.11880000e+01 7.81616400e-03 1.18400000e-01
      -11 -1    0    0    0    0 +0.0000000000e+00 +0.0000000000e+00 +4.5593999997e+01 4.5594000000e+01 5.1100000000e-04 0.0000e+00 1.0000e+00
       11 -1    0    0    0    0 -0.0000000000e+00 -0.0000000000e+00 -4.5593999997e+01 4.5594000000e+01 5.1100000000e-04 0.0000e+00 -1.0000e+00
       23  2    1    2    0    0 +0.0000000000e+00 +0.0000000000e+00 +0.0000000000e+00 9.1188000000e+01 9.1188000000e+01 2.2916e-14 0.0000e+00
  9900012  1    3    3    0    0 +1.4804931158e+01 +2.1597394015e+01 -1.8195800357e+01 5.9301944028e+01 5.0000000000e+01 4.1871e-04 -1.0000e+00
      -12  1    3    3    0    0 -1.4804931158e+01 -2.1597394015e+01 +1.8195800357e+01 3.1886055972e+01 0.0000000000e+00 0.0000e+00 1.0000e+00
</event>
<event>
 5      8 +1.7896800e-02 9.11880000e+01 7.81616400e-03 1.18400000e-01
      -11 -1    0    0    0    0 +0.0000000000e+00 +0.0000000000e+00 +4.5593999997e+01 4.5594000000e+01 5.1100000000e-04 0.0000e+00 1.0000e+00
       11 -1    0    0    0    0 -0.0000000000e+00 -0.0000000000e+00 -4.5593999997e+01 4.5594000000e+01 5.1100000000e-04 0.0000e+00 -1.0000e+00
       23  2    1    2    0    0 +0.0000000000e+00 +0.0000000000e+00 +0.0000000000e+00 9.1188000000e+01 9.1188000000e+01 1.0066e-13 0.0000e+00
  9900012  1    3    3    0    0 +1.5905195075e+01 +2.7269028176e+01 +4.4883669002e+00 5.9301944028e+01 5.0000000000e+01 1.7984e-04 -1.0000e+00
      -12  1    3    3    0    0 -1.5905195075e+01 -2.7269028176e+01 -4.4883669002e+00 3.1886055972e+01 0.0000000000e+00 0.0000e+00 1.0000e+00
</event>
<event>
 5      7 +1.7896800e-02 9.11880000e+01 7.81616400e-03 1.18400000e-01
      -11 -1    0    0    0    0 +0.0000000000e+00 +0.0000000000e+00 +4.5593999997e+01 4.5594000000e+01 5.1100000000e-04 0.0000e+00 -1.0000e+00
       11 -1    0    0    0    0 -0.0000000000e+00 -0.0000000000e+00 -4.5593999997e+01 4.5594000000e+01 5.1100000000e-04 0.0000e+00 1.0000e+00
       23  2    1    2    0    0 +0.0000000000e+00 +0.0000000000e+00 +0.0000000000e+00 9.1188000000e+01 9.1188000000e+01 2.6026e-13 0.0000e+00
  9900012  1    3    3    0    0 +1.9015138381e+01 +1.4546886733e+01 -2.1060227069e+01 5.9301944028e+01 5.0000000000e+01 1.3680e-03 1.0000e+00
       12  1    3    3    0    0 -1.9015138381e+01 -1.4546886733e+01 +2.1060227069e+01 3.1886055972e+01 0.0000000000e+00 0.0000e+00 -1.0000e+00
</event>
<event>
 5      8 +1.7896800e-02 9.11880000e+01 7.81616400e-03 1.18400000e-01
      -11 -1    0    0    0    0 +0.0000000000e+00 +0.0000000000e+00 +4.5593999997e+01 4.5594000000e+01 5.1100000000e-04 0.0000e+00 -1.0000e+00
       11 -1    0    0    0    0 -0.0000000000e+00 -0.0000000000e+00 -4.5593999997e+01 4.5594000000e+01 5.1100000000e-04 0.0000e+00 1.0000e+00
       23  2    1    2    0    0 +0.0000000000e+00 +0.0000000000e+00 +0.0000000000e+00 9.1188000000e+01 9.1188000000e+01 4.9042e-15 0.0000e+00
  9900012  1    3    3    0    0 +3.1149977821e+01 +6.8063218429e+00 -2.7098004383e-01 5.9301944028e+01 5.0000000000e+01 1.5465e-03 -1.0000e+00
      -12  1    3    3    0    0 -3.1149977821e+01 -6.8063218429e+00 +2.7098004383e-01 3.1886055972e+01 0.0000000000e+00 0.0000e+00 1.0000e+00
</event>
<event>
 5      1 +1.7896800e-02 9.11880000e+01 7.81616400e-03 1.18400000e-01
      -11 -1    0    0    0    0 +0.0000000000e+00 +0.0000000000e+00 +4.5593999997e+01 4.5594000000e+01 5.1100000000e-04 0.0000e+00 1.0000e+00
       11 -1    0    0    0    0 -0.0000000000e+00 -0.0000000000e+00 -4.5593999997e+01 4.5594000000e+01 5.1100000000e-04 0.0000e+00 -1.0000e+00
       23  2    1    2    0    0 +0.0000000000e+00 +0.0000000000e+00 +0.0000000000e+00 9.1188000000e+01 9.1188000000e+01 6.6132e-14 0.0000e+00
  9900012  1    3    3    0    0 -1.4208496082e+01 -1.7686687498e+01 -2.2405809289e+01 5.9301944028e+01 5.0000000000e+01 1.6305e-03 1.0000e+00
       12  1    3    3    0    0 +1.4208496082e+01 +1.7686687498e+01 +2.2405809289e+01 3.1886055972e+01 0.0000000000e+00 0.0000e+00 -1.0000e+00
</event>
<event>
 5      3 +1.7896800e-02 9.11880000e+01 7.81616400e-03 1.18400000e-01
      -11 -1    0    0    0    0 +0.0000000000e+00 +0.0000000000e+00 +4.5593999997e+01 4.5594000000e+01 5.1100000000e-04 0.0000e+00 1.0000e+00
       11 -1    0    0    0    0 -0.0000000000e+00 -0.0000000000e+00 -4.5593999997e+01 4.5594000000e+01 5.1100000000e-04 0.0000e+00 -1.0000e+00
       23  2    1    2    0    0 +0.0000000000e+00 +0.0000000000e+00 +0.0000000000e+00 9.1188000000e+01 9.1188000000e+01 3.7475e-14 0.0000e+00
  9900012  1    3    3    0    0 +1.6218308691e+00 +3.1824469524e+01 -1.1372640874e+00 5.9301944028e+01 5.0000000000e+01 9.7375e-05 1.0000e+00
       12  1    3    3    0    0 -1.6218308691e+00 -3.1824469524e+01 +1.1372640874e+00 3.1886055972e+01 0.0000000000e+00 0.0000e+00 -1.0000e+00
</event>
<event>
 5      6 +1.7896800e-02 9.11880000e+01 7.81616400e-03 1.18400000e-01
      -11 -1    0    0    0    0 +0.0000000000e+00 +0.0000000000e+00 +4.5593999997e+01 4.5594000000e+01 5.1100000000e-04 0.0000e+00 1.0000e+00
       11 -1    0    0    0    0 -0.0000000000e+00 -0.0000000000e+00 -4.5593999997e+01 4.5594000000e+01 5.1100000000e-04 0.0000e+00 -1.0000e+00
       23  2    1    2    0    0 +0.0000000000e+00 +0.0000000000e+00 +0.0000000000e+00 9.1188000000e+01 9.1188000000e+01 1.1682e-13 0.0000e+00
  9900012  1    3    3    0    0 -1.7317050876e+01 -2.0653557791e+01 -1.7037337380e+01 5.9301944028e+01 5.0000000000e+01 7.4589e-04 -1.0000e+00
      -12  1    3    3    0    0 +1.7317050876e+01 +2.0653557791e+01 +1.7037337380e+01 3.1886055972e+01 0.0000000000e+00 0.0000e+00 1.0000e+00
</event>
<event>
 5      6 +1.7896800e-02 9.11880000e+01 7.81616400e-03 1.18400000e-01
      -11 -1    0    0    0    0 +0.0000000000e+00 +0.0000000000e+00 +4.5593999997e+01 4.5594000000e+01 5.1100000000e-04 0.0000e+00 -1.0000e+00
       11 -1    0    0    0    0 -0.0000000000e+00 -0.0000000000e+00 -4.5593999997e+01 4.5594000000e+01 5.1100000000e-04 0.0000e+00 1.0000e+00
       23  2    1    2    0    0 +0.0000000000e+00 +0.0000000000e+00 +0.0000000000e+00 9.1188000000e+01 9.1188000000e+01 7.4635e-14 0.0000e+00
  9900012  1    3    3    0    0 +3.3261970414e+00 +2.1614609673e+01 +2.3204862150e+01 5.9301944028e+01 5.0000000000e+01 1.7482e-04 -1.0000e+00
      -12  1    3    3    0    0 -3.3261970414e+00 -2.1614609673e+01 -2.3204862150e+01 3.1886055972e+01 0.0000000000e+00 0.0000e+00 1.0000e+00
</event>
<event>
 5      2 +1.7896800e-02 9.11880000e+01 7.81616400e-03 1.18400000e-01
      -11 -1    0    0    0    0 +0.0000000000e+00 +0.0000000000e+00 +4.5593999997e+01 4.5594000000e+01 5.1100000000e-04 0.0000e+00 1.0000e+00
       11 -1    0    0    0    0 -0.0000000000e+00 -0.0000000000e+00 -4.5593999997e+01 4.5594000000e+01 5.1100000000e-04 0.0000e+00 -1.0000e+00
       23  2    1    2    0    0 +0.0000000000e+00 +0.0000000000e+00 +0.0000000000e+00 9.1188000000e+01 9.1188000000e+01 1.1109e-13 0.0000e+00
  9900012  1    3    3    0    0 -5.5929551640e+00 -1.4934982219e+01 -2.7611333255e+01 5.9301944028e+01 5.0000000000e+01 5.5440e-04 -1.0000e+00
      -12  1    3    3    0    0 +5.5929551640e+00 +1.4934982219e+01 +2.7611333255e+01 3.1886055972e+01 0.0000000000e+00 0.0000e+00 1.0000e+00
</event>
<event>
 5      3 +1.7896800e-02 9.11880000e+01 7.81616400e-03 1.18400000e-01
      -11 -1    0    0    0    0 +0.0000000000e+00 +0.0000000000e+00 +4.5593999997e+01 4.5594000000e+01 5.1100000000e-04 0.0000e+00 -1.0000e+00
       11 -1    0    0    0    0 -0.0000000000e+00 -0.0000000000e+00 -4.5593999997e+01 4.5594000000e+01 5.1100000000e-04 0.0000e+00 1.0000e+00
       23  2    1    2    0    0 +0.0000000000e+00 +0.0000000000e+00 +0.0000000000e+00 9.1188000000e+01 9.1188000000e+01 5.7624e-14 0.0000e+00
  9900012  1    3    3    0    0 -2.7192900481e+01 -1.1338430014e+01 +1.2194537044e+01 5.9301944028e+01 5.0000000000e+01 1.1047e-03 -1.0000e+00
       12  1    3    3    0    0 +2.7192900481e+01 +1.1338430014e+01 -1.2194537044e+01 3.1886055972e+01 0.0000000000e+00 0.0000e+00 -1.0000e+00
</event>
<event>
 5      1 +1.7896800e-02 9.11880000e+01 7.81616400e-03 1.18400000e-01
      -11 -1    0    0    0    0 +0.0000000000e+00 +0.0000000000e+00 +4.5593999997e+01 4.5594000000e+01 5.1100000000e-04 0.0000e+00 1.0000e+00
       11 -1    0    0    0    0 -0.0000000000e+00 -0.0000000000e+00 -4.5593999997e+01 4.5594000000e+01 5.1100000000e-04 0.0000e+00 -1.0000e+00
       23  2    1    2    0    0 +0.0000000000e+00 +0.0000000000e+00 +0.0000000000e+00 9.1188000000e+01 9.1188000000e+01 1.1832e-13 0.0000e+00
  9900012  1    3    3    0    0 +2.3558596877e+01 +3.8293265740e-01 +2.1484097403e+01 5.9301944028e+01 5.0000000000e+01 3.3153e-04 1.0000e+00
       12  1    3    3    0    0 -2.3558596877e+01 -3.8293265740e-01 -2.1484097403e+01 3.1886055972e+01 0.0000000000e+00 0.0000e+00 -1.0000e+00
</event>
<event>
 5      5 +1.7896800e-02 9.11880000e+01 7.81616400e-03 1.18400000e-01
      -11 -1    0    0    0    0 +0.0000000000e+00 +0.0000000000e+00 +4.5593999997e+01 4.5594000000e+01 5.1100000000e-04 0.0000e+00 1.0000e+00
       11 -1    0    0    0    0 -0.0000000000e+00 -0.0000000000e+00 -4.5593999997e+01 4.5594000000e+01 5.1100000000e-04 0.0000e+00 -1.0000e+00
       23  2    1    2    0    0 +0.0000000000e+00 +0.0000000000e+00 +0.0000000000e+00 9.1188000000e+01 9.1188000000e+01 9.2758e-14 0.0000e+00
  9900012  1    3    3    0    0 -7.8342647650e+00 +2.3007956905e+01 +2.0639253380e+01 5.9301944028e+01 5.0000000000e+01 1.2970e-04 1.0000e+00
       12  1    3    3    0    0 +7.8342647650e+00 -2.3007956905e+01 -2.0639253380e+01 3.1886055972e+01 0.0000000000e+00 0.0000e+00 -1.0000e+00
</event>
<event>
 5      7 +1.7896800e-02 9.11880000e+01 7.81616400e-03 1.18400000e-01
      -11 -1    0    0    0    0 +0.0000000000e+00 +0.0000000000e+00 +4.5593999997e+01 4.5594000000e+01 5.1100000000e-04 0.0000e+00 -1.0000e+00
       11 -1    0    0    0    0 -0.0000000000e+00 -0.0000000000e+00 -4.5593999997e+01 4.5594000000e+01 5.1100000000e-04 0.0000e+00 1.0000e+00
       23  2    1    2    0    0 +0.0000000000e+00 +0.0000000000e+00 +0.0000000000e+00 9.1188000000e+01 9.1188000000e+01 2.8164e-14 0.0000e+00
  9900012  1    3    3    0    0 +1.0500570980e+01 +1.9350621367e+01 -2.3065385912e+01 5.9301944028e+01 5.0000000000e+01 2.1002e-03 1.0000e+00
       12  1    3    3    0    0 -1.0500570980e+01 -1.9350621367e+01 +2.3065385912e+01 3.1886055972e+01 0.0000000000e+00 0.0000e+00 -1.0000e+00
</event>
<event>
 5      4 +1.7896800e-02 9.11880000e+01 7.81616400e-03 1.18400000e-01
      -11 -1    0    0    0    0 +0.0000000000e+00 +0.0000000000e+00 +4.5593999997e+01 4.5594000000e+01 5.1100000000e-04 0.0000e+00 1.0000e+00
       11 -1    0    0    0    0 -0.0000000000e+00 -0.0000000000e+00 -4.5593999997e+01 4.5594000000e+01 5.1100000000e-04 0.0000e+00 -1.0000e+00
       23  2    1    2    0    0 +0.0000000000e+00 +0.0000000000e+00 +0.0000000000e+00 9.1188000000e+01 9.1188000000e+01 4.0214e-13 0.0000e+00
  9900012  1    3    3    0    0 -2.0411704714e+01 -1.2995493623e+01 -2.0765356284e+01 5.9301944028e+01 5.0000000000e+01 4.4770e-04 1.0000e+00
      -12  1    3    3    0    0 +2.0411704714e+01 +1.2995493623e+01 +2.0765356284e+01 3.1886055972e+01 0.0000000000e+00 0.0000e+00 1.0000e+00
</event>
<event>
 5      5 +1.7896800e-02 9.11880000e+01 7.81616400e-03 1.18400000e-01
      -11 -1    0    0    0    0 +0.0000000000e+00 +0.0000000000e+00 +4.5593999997e+01 4.5594000000e+01 5.1100000000e-04 0.0000e+00 -1.0000e+00
       11 -1    0    0    0    0 -0.0000000000e+00 -0.0000000000e+00 -4.5593999997e+01 4.5594000000e+01 5.1100000000e-04 0.0000e+00 1.0000e+00
       23  2    1    2    0    0 +0.0000000000e+00 +0.0000000000e+00 +0.0000000000e+00 9.1188000000e+01 9.1188000000e+01 3.0612e-14 0.0000e+00
  9900012  1    3    3    0    0 -2.9835868664e+01 -1.1222635212e+00 +1.1192945596e+01 5.9301944028e+01 5.0000000000e+01 3.1179e-03 1.0000e+00
       12  1    3    3    0    0 +2.9835868664e+01 +1.1222635212e+00 -1.1192945596e+01 3.1886055972e+01 0.0000000000e+00 0.0000e+00 -1.0000e+00
</event>
<event>
 5      3 +1.7896800e-02 9.11880000e+01 7.81616400e-03 1.18400000e-01
      -11 -1    0    0    0    0 +0.0000000000e+00 +0.0000000000e+00 +4.5593999997e+01 4.5594000000e+01 5.1100000000e-04 0.0000e+00 -1.0000e+00
       11 -1    0    0    0    0 -0.0000000000e+00 -0.0000000000e+00 -4.5593999997e+01 4.5594000000e+01 5.1100000000e-04 0.0000e+00 1.0000e+00
       23  2    1    2    0    0 +0.0000000000e+00 +0.0000000000e+00 +0.0000000000e+00 9.1188000000e+01 9.1188000000e+01 1.2905e-13 0.0000e+00
  9900012  1    3    3    0    0 -1.8953401123e+01 +2.2251264039e+00 -2.5544822642e+01 5.9301944028e+01 5.0000000000e+01 9.5542e-04 1.0000e+00
       12  1    3    3    0    0 +1.8953401123e+01 -2.2251264039e+00 +2.5544822642e+01 3.1886055972e+01 0.0000000000e+00 0.0000e+00 -1.0000e+00
</event>
<event>
 5      1 +1.7896800e-02 9.11880000e+01 7.81616400e-03 1.18400000e-01
      -11 -1    0    0    0    0 +0.0000000000e+00 +0.0000000000e+00 +4.5593999997e+01 4.5594000000e+01 5.1100000000e-04 0.0000e+00 1.0000e+00
       11 -1    0    0    0    0 -0.0000000000e+00 -0.0000000000e+00 -4.5593999997e+01 4.5594000000e+01 5.1100000000e-04 0.0000e+00 -1.0000e+00
       23  2    1    2    0    0 +0.0000000000e+00 +0.0000000000e+00 +0.0000000000e+00 9.1188000000e+01 9.1188000000e+01 3.2070e-14 0.0000e+00
  9900012  1    3    3    0    0 +9.3794440214e+00 -9.5388166830e+00 +2.8944042074e+01 5.9301944028e+01 5.0000000000e+01 2.1517e-03 1.0000e+00
       12  1    3    3    0    0 -9.3794440214e+00 +9.5388166830e+00 -2.8944042074e+01 3.1886055972e+01 0.0000000000e+00 0.0000e+00 -1.0000e+00
</event>
<event>
 5      4 +1.7896800e-02 9.11880000e+01 7.81616400e-03 1.18400000e-01
      -11 -1    0    0    0    0 +0.0000000000e+00 +0.0000000000e+00 +4.5593999997e+01 4.5594000000e+01 5.1100000000e-04 0.0000e+00 1.0000e+00
       11 -1    0    0    0    0 -0.0000000000e+00 -0.0000000000e+00 -4.5593999997e+01 4.5594000000e+01 5.1100000000e-04 0.0000e+00 -1.0000e+00
       23  2    1    2    0    0 +0.0000000000e+00 +0.0000000000e+00 +0.0000000000e+00 9.1188000000e+01 9.1188000000e+01 2.3551e-14 0.0000e+00
  9900012  1    3    3    0    0 +3.0840893255e+01 +2.3237812760e+00 +7.7562819222e+00 5.9301944028e+01 5.0000000000e+01 1.2797e-03 1.0000e+00
      -12  1    3    3    0    0 -3.0840893255e+01 -2.3237812760e+00 -7.7562819222e+00 3.1886055972e+01 0.0000000000e+00 0.0000e+00 1.0000e+00
</event>
<event>
 5      1 +1.7896800e-02 9.11880000e+01 7.81616400e-03 1.18400000e-01
      -11 -1    0    0    0    0 +0.0000000000e+00 +0.0000000000e+00 +4.5593999997e+01 4.5594000000e+01 5.1100000000e-04 0.0000e+00 1.0000e+00
       11 -1    0    0    0    0 -0.0000000000e+00 -0.0000000000e+00 -4.5593999997e+01 4.5594000000e+01 5.1100000000e-04 0.0000e+00 -1.0000e+00
       23  2    1    2    0    0 +0.0000000000e+00 +0.0000000000e+00 +0.0000000000e+00 9.1188000000e+01 9.1188000000e+01 8.1491e-14 0.0000e+00
  9900012  1    3    3    0    0 +2.0263075301e+01 +2.3225245005e+01 -8.1680070568e+00 5.9301944028e+01 5.0000000000e+01 7.1184e-04 -1.0000e+00
       12  1    3    3    0    0 -2.0263075301e+01 -2.3225245005e+01 +8.1680070568e+00 3.1886055972e+01 0.0000000000e+00 0.0000e+00 -1.0000e+00
</event>
<event>
 5      7 +1.7896800e-02 9.11880000e+01 7.81616400e-03 1.18400000e-01
      -11 -1    0    0    0    0 +0.0000000000e+00 +0.0000000000e+00 +4.5593999997e+01 4.5594000000e+01 5.1100000000e-04 0.0000e+00 -1.0000e+00
       11 -1    0    0    0    0 -0.0000000000e+00 -0.0000000000e+00 -4.5593999997e+01 4.5594000000e+01 5.1100000000e-04 0.0000e+00 1.0000e+00
       23  2    1    2    0    0 +0.0000000000e+00 +0.0000000000e+00 +0.0000000000e+00 9.1188000000e+01 9.1188000000e+01 2.6075e-14 0.0000e+00
  9900012  1    3    3    0    0 +1.9213190475e+01 -2.4615420428e+01 +6.4540649522e+00 5.9301944028e+01 5.0000000000e+01 1.2480e-03 -1.0000e+00
       12  1    3    3    0    0 -1.9213190475e+01 +2.4615420428e+01 -6.4540649522e+00 3.1886055972e+01 0.0000000000e+00 0.0000e+00 -1.0000e+00
</event>
<event>
 5      1 +1.7896800e-02 9.11880000e+01 7.81616400e-03 1.18400000e-01
      -11 -1    0    0    0    0 +0.0000000000e+00 +0.0000000000e+00 +4.5593999997e+01 4.5594000000e+01 5.1100000000e-04 0.0000e+00 -1.0000e+00
       11 -1    0    0    0    0 -0.0000000000e+00 -0.0000000000e+00 -4.5593999997e+01 4.5594000000e+01 5.1100000000e-04 0.0000e+00 1.0000e+00
       23  2    1    2    0    0 +0.0000000000e+00 +0.0000000000e+00 +0.0000000000e+00 9.1188000000e+01 9.1188000000e+01 1.1628e-13 0.0000e+00
  9900012  1    3    3    0    0 +1.3348084111e+01 +2.7606623455e+01 -8.7420568200e+00 5.9301944028e+01 5.0000000000e+01 4.5099e-04 1.0000e+00
       12  1    3    3    0    0 -1.3348084111e+01 -2.7606623455e+01 +8.7420568200e+00 3.1886055972e+01 0.0000000000e+00 0.0000e+00 -1.0000e+00
</event>
<event>
 5      5 +1.7896800e-02 9.11880000e+01 7.81616400e-03 1.18400000e-01
      -11 -1    0    0    0    0 +0.0000000000e+00 +0.0000000000e+00 +4.5593999997e+01 4.5594000000e+01 5.1100000000e-04 0.0000e+00 1.0000e+00
       11 -1    0    0    0    0 -0.0000000000e+00 -0.0000000000e+00 -4.5593999997e+01 4.5594000000e+01 5.1100000000e-04 0.0000e+00 -1.0000e+00
       23  2    1    2    0    0 +0.0000000000e+00 +0.0000000000e+00 +0.0000000000e+00 9.1188000000e+01 9.1188000000e+01 1.5739e-13 0.0000e+00
  9900012  1    3    3    0    0 -7.6334043407e+00 -2.9725264233e+01 +8.6521887364e+00 5.9301944028e+01 5.0000000000e+01 1.6163e-04 1.0000e+00
       12  1    3    3    0    0 +7.6334043407e+00 +2.9725264233e+01 -8.6521887364e+00 3.1886055972e+01 0.0000000000e+00 0.0000e+00 -1.0000e+00
</event>
<event>
 5      6 +1.7896800e-02 9.11880000e+01 7.81616400e-03 1.18400000e-01
      -11 -1    0    0    0    0 +0.0000000000e+00 +0.0000000000e+00 +4.5593999997e+01 4.5594000000e+01 5.1100000000e-04 0.0000e+00 1.0000e+00
       11 -1    0    0    0    0 -0.0000000000e+00 -0.0000000000e+00 -4.5593999997e+01 4.5594000000e+01 5.1100000000e-04 0.0000e+00 -1.0000e+00
       23  2    1    2    0    0 +0.0000000000e+00 +0.0000000000e+00 +0.0000000000e+00 9.1188000000e+01 9.1188000000e+01 9.0647e-14 0.0000e+00
  9900012  1    3    3    0    0 -9.3063446018e+00 -1.4926739647e+01 +2.6595205567e+01 5.9301944028e+01 5.0000000000e+01 3.1481e-03 1.0000e+00
      -12  1    3    3    0    0 +9.3063446018e+00 +1.4926739647e+01 -2.6595205567e+01 3.1886055972e+01 0.0000000000e+00 0.0000e+00 1.0000e+00
</event>
<event>
 5      3 +1.7896800e-02 9.11880000e+01 7.81616400e-03 1.18400000e-01
      -11 -1    0    0    0    0 +0.0000000000e+00 +0.0000000000e+00 +4.5593999997e+01 4.5594000000e+01 5.1100000000e-04 0.0000e+00 -1.0000e+00
       11 -1    0    0    0    0 -0.0000000000e+00 -0.0000000000e+00 -4.5593999997e+01 4.5594000000e+01 5.1100000000e-04 0.0000e+00 1.0000e+00
       23  2    1    2    0    0 +0.0000000000e+00 +0.0000000000e+00 +0.0000000000e+00 9.1188000000e+01 9.1188000000e+01 3.2609e-14 0.0000e+00
  9900012  1    3    3    0    0 -3.0182649664e+01 +1.4554067807e+00 -1.0178900522e+01 5.9301944028e+01 5.0000000000e+01 1.2918e-03 1.0000e+00
       12  1    3    3    0    0 +3.0182649664e+01 -1.4554067807e+00 +1.0178900522e+01 3.1886055972e+01 0.0000000000e+00 0.0000e+00 -1.0000e+00
</event>
<event>
 5      4 +1.7896800e-02 9.11880000e+01 7.81616400e-03 1.18400000e-01
      -11 -1    0    0    0    0 +0.0000000000e+00 +0.0000000000e+00 +4.5593999997e+01 4.5594000000e+01 5.1100000000e-04 0.0000e+00 1.0000e+00
       11 -1    0    0    0    0 -0.0000000000e+00 -0.0000000000e+00 -4.5593999997e+01 4.5594000000e+01 5.1100000000e-04 0.0000e+00 -1.0000e+00
       23  2    1    2    0    0 +0.0000000000e+00 +0.0000000000e+00 +0.0000000000e+00 9.1188000000e+01 9.1188000000e+01 3.1714e-14 0.0000e+00
  9900012  1    3    3    0    0 -1.1919401131e+01 -8.4862061689e+00 -2.8330773851e+01 5.9301944028e+01 5.0000000000e+01 1.2434e-03 -1.0000e+00
      -12  1    3    3    0    0 +1.1919401131e+01 +8.4862061689e+00 +2.8330773851e+01 3.1886055972e+01 0.0000000000e+00 0.0000e+00 1.0000e+00
</event>
<event>
 5      6 +1.7896800e-02 9.11880000e+01 7.81616400e-03 1.18400000e-01
      -11 -1    0    0    0    0 +0.0000000000e+00 +0.0000000000e+00 +4.5593999997e+01 4.5594000000e+01 5.1100000000e-04 0.0000e+00 -1.0000e+00
       11 -1    0    0    0    0 -0.0000000000e+00 -0.0000000000e+00 -4.5593999997e+01 4.5594000000e+01 5.1100000000e-04 0.0000e+00 1.0000e+00
       23  2    1    2    0    0 +0.0000000000e+00 +0.0000000000e+00 +0.0000000000e+00 9.1188000000e+01 9.1188000000e+01 8.5398e-14 0.0000e+00
  9900012  1    3    3    0    0 +1.4477323302e+01 -2.8406853328e+01 +4.2232626838e-01 5.9301944028e+01 5.0000000000e+01 9.6242e-04 -1.0000e+00
      -12  1    3    3    0    0 -1.4477323302e+01 +2.8406853328e+01 -4.2232626838e-01 3.1886055972e+01 0.0000000000e+00 0.0000e+00 1.0000e+00
</event>
<event>
 5      8 +1.7896800e-02 9.11880000e+01 7.81616400e-03 1.18400000e-01
      -11 -1    0    0    0    0 +0.0000000000e+00 +0.0000000000e+00 +4.5593999997e+01 4.5594000000e+01 5.1100000000e-04 0.0000e+00 1.0000e+00
       11 -1    0    0    0    0 -0.0000000000e+00 -0.0000000000e+00 -4.5593999997e+01 4.5594000000e+01 5.1100000000e-04 0.0000e+00 -1.0000e+00
       23  2    1    2    0    0 +0.0000000000e+00 +0.0000000000e+00 +0.0000000000e+00 9.1188000000e+01 9.1188000000e+01 1.7897e-14 0.0000e+00
  9900012  1    3    3    0    0 +2.2036627195e+01 +1.3498458046e+01 -1.8678845193e+01 5.9301944028e+01 5.0000000000e+01 8.4143e-04 -1.0000e+00
      -12  1    3    3    0    0 -2.2036627195e+01 -1.3498458046e+01 +1.8678845193e+01 3.1886055972e+01 0.0000000000e+00 0.0000e+00 1.0000e+00
</event>
<event>
 5      2 +1.7896800e-02 9.11880000e+01 7.81616400e-03 1.18400000e-01
      -11 -1    0    0    0    0 +0.0000000000e+00 +0.0000000000e+00 +4.5593999997e+01 4.5594000000e+01 5.1100000000e-04 0.0000e+00 1.0000e+00
       11 -1    0    0    0    0 -0.0000000000e+00 -0.0000000000e+00 -4.5593999997e+01 4.5594000000e+01 5.1100000000e-04 0.0000e+00 -1.0000e+00
       23  2    1    2    0    0 +0.0000000000e+00 +0.0000000000e+00 +0.0000000000e+00 9.1188000000e+01 9.1188000000e+01 2.9342e-14 0.0000e+00
  9900012  1    3    3    0    0 +2.3782932447e+01 +1.7722075321e+01 -1.1705585676e+01 5.9301944028e+01 5.0000000000e+01 2.8585e-03 -1.0000e+00
      -12  1    3    3    0    0 -2.3782932447e+01 -1.7722075321e+01 +1.1705585676e+01 3.1886055972e+01 0.0000000000e+00 0.0000e+00 1.0000e+00
</event>
<event>
 5      5 +1.7896800e-02 9.11880000e+01 7.81616400e-03 1.18400000e-01
      -11 -1    0    0    0    0 +0.0000000000e+00 +0.0000000000e+00 +4.5593999997e+01 4.5594000000e+01 5.1100000000e-04 0.0000e+00 -1.0000e+00
       11 -1    0    0    0    0 -0.0000000000e+00 -0.0000000000e+00 -4.5593999997e+01 4.5594000000e+01 5.1100000000e-04 0.0000e+00 1.0000e+00
       23  2    1    2    0    0 +0.0000000000e+00 +0.0000000000e+00 +0.0000000000e+00 9.1188000000e+01 9.1188000000e+01 4.3050e-14 0.0000e+00
  9900012  1    3    3    0    0 -3.0764297411e+01 -8.3697865614e+00 -4.7459795426e-01 5.9301944028e+01 5.0000000000e+01 3.3962e-03 1.0000e+00
       12  1    3    3    0    0 +3.0764297411e+01 +8.3697865614e+00 +4.7459795426e-01 3.1886055972e+01 0.0000000000e+00 0.0000e+00 -1.0000e+00
</event>
<event>
 5      8 +1.7896800e-02 9.11880000e+01 7.81616400e-03 1.18400000e-01
      -11 -1    0    0    0    0 +0.0000000000e+00 +0.0000000000e+00 +4.5593999997e+01 4.5594000000e+01 5.1100000000e-04 0.0000e+00 -1.0000e+00
       11 -1    0    0    0    0 -0.0000000000e+00 -0.0000000000e+00 -4.5593999997e+01 4.5594000000e+01 5.1100000000e-04 0.0000e+00 1.0000e+00
       23  2    1    2    0    0 +0.0000000000e+00 +0.0000000000e+00 +0.0000000000e+00 9.1188000000e+01 9.1188000000e+01 2.6563e-14 0.0000e+00
  9900012  1    3    3    0    0 -1.0831835270e+01 -8.4213165232e+00 +2.8783212784e+01 5.9301944028e+01 5.0000000000e+01 2.0375e-05 -1.0000e+00
      -12  1    3    3    0    0 +1.0831835270e+01 +8.4213165232e+00 -2.8783212784e+01 3.1886055972e+01 0.0000000000e+00 0.0000e+00 1.0000e+00
</event>
<event>
 5      2 +1.7896800e-02 9.11880000e+01 7.81616400e-03 1.18400000e-01
      -11 -1    0    0    0    0 +0.0000000000e+00 +0.0000000000e+00 +4.5593999997e+01 4.5594000000e+01 5.1100000000e-04 0.0000e+00 1.0000e+00
       11 -1    0    0    0    0 -0.0000000000e+00 -0.0000000000e+00 -4.5593999997e+01 4.5594000000e+01 5.1100000000e-04 0.0000e+00 -1.0000e+00
       23  2    1    2    0    0 +0.0000000000e+00 +0.0000000000e+00 +0.0000000000e+00 9.1188000000e+01 9.1188000000e+01 1.0849e-13 0.0000e+00
  9900012  1    3    3    0    0 -2.3217681220e+01 +1.9285760271e+01 -1.0281988863e+01 5.9301944028e+01 5.0000000000e+01 1.8614e-03 -1.0000e+00
      -12  1    3    3    0    0 +2.3217681220e+01 -1.9285760271e+01 +1.0281988863e+01 3.1886055972e+01 0.0000000000e+00 0.0000e+00 1.0000e+00
</event>
<event>
 5      6 +1.7896800e-02 9.11880000e+01 7.81616400e-03 1.18400000e-01
      -11 -1    0    0    0    0 +0.0000000000e+00 +0.0000000000e+00 +4.5593999997e+01 4.5594000000e+01 5.1100000000e-04 0.0000e+00 1.0000e+00
       11 -1    0    0    0    0 -0.0000000000e+00 -0.0000000000e+00 -4.5593999997e+01 4.5594000000e+01 5.1100000000e-04 0.0000e+00 -1.0000e+00
       23  2    1    2    0    0 +0.0000000000e+00 +0.0000000000e+00 +0.0000000000e+00 9.1188000000e+01 9.1188000000e+01 7.1141e-14 0.0000e+00
  9900012  1    3    3    0    0 +1.2271209980e+01 +7.8577894635e+00 -2.8361824974e+01 5.9301944028e+01 5.0000000000e+01 3.5232e-04 -1.0000e+00
      -12  1    3    3    0    0 -1.2271209980e+01 -7.8577894635e+00 +2.8361824974e+01 3.1886055972e+01 0.0000000000e+00 0.0000e+00 1.0000e+00
</event>
<event>
 5      1 +1.7896800e-02 9.11880000e+01 7.81616400e-03 1.18400000e-01
      -11 -1    0    0    0    0 +0.0000000000e+00 +0.0000000000e+00 +4.5593999997e+01 4.5594000000e+01 5.1100000000e-04 0.0000e+00 1.0000e+00
       11 -1    0    0    0    0 -0.0000000000e+00 -0.0000000000e+00 -4.5593999997e+01 4.5594000000e+01 5.1100000000e-04 0.0000e+00 -1.0000e+00
       23  2    1    2    0    0 +0.0000000000e+00 +0.0000000000e+00 +0.0000000000e+00 9.1188000000e+01 9.1188000000e+01 1.1657e-15 0.0000e+00
  9900012  1    3    3    0    0 +1.8770478237e+01 -2.4939881497e+01 +6.5109156892e+00 5.9301944028e+01 5.0000000000e+01 2.8206e-04 1.0000e+00
       12  1    3    3    0    0 -1.8770478237e+01 +2.4939881497e+01 -6.5109156892e+00 3.1886055972e+01 0.0000000000e+00 0.0000e+00 -1.0000e+00
</event>
<event>
 5      3 +1.7896800e-02 9.11880000e+01 7.81616400e-03 1.18400000e-01
      -11 -1    0    0    0    0 +0.0000000000e+00 +0.0000000000e+00 +4.5593999997e+01 4.5594000000e+01 5.1100000000e-04 0.0000e+00 -1.0000e+00
       11 -1    0    0    0    0 -0.0000000000e+00 -0.0000000000e+00 -4.5593999997e+01 4.5594000000e+01 5.1100000000e-04 0.0000e+00 1.0000e+00
       23  2    1    2    0    0 +0.0000000000e+00 +0.0000000000e+00 +0.0000000000e+00 9.1188000000e+01 9.1188000000e+01 5.3835e-13 0.0000e+00
  9900012  1    3    3    0    0 +6.3543604451e+00 -2.4326206671e+01 -1.9610668979e+01 5.9301944028e+01 5.0000000000e+01 2.6101e-03 1.0000e+00
       12  1    3    3    0    0 -6.3543604451e+00 +2.4326206671e+01 +1.9610668979e+01 3.1886055972e+01 0.0000000000e+00 0.0000e+00 -1.0000e+00
</event>
<event>
 5      5 +1.7896800e-02 9.11880000e+01 7.81616400e-03 1.18400000e-01
      -11 -1    0    0    0    0 +0.0000000000e+00 +0.0000000000e+00 +4.5593999997e+01 4.5594000000e+01 5.1100000000e-04 0.0000e+00 1.0000e+00
       11 -1    0    0    0    0 -0.0000000000e+00 -0.0000000000e+00 -4.5593999997e+01 4.5594000000e+01 5.1100000000e-04 0.0000e+00 -1.0000e+00
       23  2    1    2    0    0 +0.0000000000e+00 +0.0000000000e+00 +0.0000000000e+00 9.1188000000e+01 9.1188000000e+01 1.0203e-13 0.0000e+00
  9900012  1    3    3    0    0 -2.9325924480e+01 +1.1929177144e+01 -3.7954514226e+00 5.9301944028e+01 5.0000000000e+01 2.5477e-04 1.0000e+00
       12  1    3    3    0    0 +2.9325924480e+01 -1.1929177144e+01 +3.7954514226e+00 3.1886055972e+01 0.0000000000e+00 0.0000e+00 -1.0000e+00
</event>
<event>
 5      8 +1.7896800e-02 9.11880000e+01 7.81616400e-03 1.18400000e-01
      -11 -1    0    0    0    0 +0.0000000000e+00 +0.0000000000e+00 +4.5593999997e+01 4.5594000000e+01 5.1100000000e-04 0.0000e+00 1.0000e+00
       11 -1    0    0    0    0 -0.0000000000e+00 -0.0000000000e+00 -4.5593999997e+01 4.5594000000e+01 5.1100000000e-04 0.0000e+00 -1.0000e+00
       23  2    1    2    0    0 +0.0000000000e+00 +0.0000000000e+00 +0.0000000000e+00 9.1188000000e+01 9.1188000000e+01 1.6482e-15 0.0000e+00
  9900012  1    3    3    0    0 -2.3410018044e+01 -4.5489778728e+00 -2.1165973187e+01 5.9301944028e+01 5.0000000000e+01 2.2781e-03 -1.0000e+00
      -12  1    3    3    0    0 +2.3410018044e+01 +4.5489778728e+00 +2.1165973187e+01 3.1886055972e+01 0.0000000000e+00 0.0000e+00 1.0000e+00
</event>
<event>
 5      1 +1.7896800e-02 9.11880000e+01 7.81616400e-03 1.18400000e-01
      -11 -1    0    0    0    0 +0.0000000000e+00 +0.0000000000e+00 +4.5593999997e+01 4.5594000000e+01 5.1100000000e-04 0.0000e+00 1.0000e+00
       11 -1    0    0    0    0 -0.0000000000e+00 -0.0000000000e+00 -4.5593999997e+01 4.5594000000e+01 5.1100000000e-04 0.0000e+00 -1.0000e+00
       23  2    1    2    0    0 +0.0000000000e+00 +0.0000000000e+00 +0.0000000000e+00 9.1188000000e+01 9.1188000000e+01 4.6870e-14 0.0000e+00
  9900012  1    3    3    0    0 +2.5052726136e+00 -2.9944851471e+01 -1.0665366613e+01 5.9301944028e+01 5.0000000000e+01 2.8291e-03 1.0000e+00
       12  1    3    3    0    0 -2.5052726136e+00 +2.9944851471e+01 +1.0665366613e+01 3.1886055972e+01 0.0000000000e+00 0.0000e+00 -1.0000e+00
</event>
<event>
 5      5 +1.7896800e-02 9.11880000e+01 7.81616400e-03 1.18400000e-01
      -11 -1    0    0    0    0 +0.0000000000e+00 +0.0000000000e+00 +4.5593999997e+01 4.5594000000e+01 5.1100000000e-04 0.0000e+00 -1.0000e+00
       11 -1    0    0    0    0 -0.0000000000e+00 -0.0000000000e+00 -4.5593999997e+01 4.5594000000e+01 5.1100000000e-04 0.0000e+00 1.0000e+00
       23  2    1    2    0    0 +0.0000000000e+00 +0.0000000000e+00 +0.0000000000e+00 9.1188000000e+01 9.1188000000e+01 8.3939e-14 0.0000e+00
  9900012  1    3    3    0    0 +1.1168959273e+00 +1.8937746524e+01 -2.5628789779e+01 5.9301944028e+01 5.0000000000e+01 8.9826e-05 1.0000e+00
       12  1    3    3    0    0 -1.1168959273e+00 -1.8937746524e+01 +2.5628789779e+01 3.1886055972e+01 0.0000000000e+00 0.0000e+00 -1.0000e+00
</event>
<event>
 5      7 +1.7896800e-02 9.11880000e+01 7.81616400e-03 1.18400000e-01
      -11 -1    0    0    0    0 +0.0000000000e+00 +0.0000000000e+00 +4.5593999997e+01 4.5594000000e+01 5.1100000000e-04 0.0000e+00 1.0000e+00
       11 -1    0    0    0    0 -0.0000000000e+00 -0.0000000000e+00 -4.5593999997e+01 4.5594000000e+01 5.1100000000e-04 0.0000e+00 -1.0000e+00
       23  2    1    2    0    0 +0.0000000000e+00 +0.0000000000e+00 +0.0000000000e+00 9.1188000000e+01 9.1188000000e+01 1.6497e-13 0.0000e+00
  9900012  1    3    3    0    0 -5.0320688372e+00 -1.7507192324e+01 +2.6170538122e+01 5.9301944028e+01 5.0000000000e+01 5.7586e-04 1.0000e+00
       12  1    3    3    0    0 +5.0320688372e+00 +1.7507192324e+01 -2.6170538122e+01 3.1886055972e+01 0.0000000000e+00 0.0000e+00 -1.0000e+00
</event>
<event>
 5      6 +1.7896800e-02 9.11880000e+01 7.81616400e-03 1.18400000e-01
      -11 -1    0    0    0    0 +0.0000000000e+00 +0.0000000000e+00 +4.5593999997e+01 4.5594000000e+01 5.1100000000e-04 0.0000e+00 -1.0000e+00
       11 -1    0    0    0    0 -0.0000000000e+00 -0.0000000000e+00 -4.5593999997e+01 4.5594000000e+01 5.1100000000e-04 0.0000e+00 1.0000e+00
       23  2    1    2    0    0 +0.0000000000e+00 +0.0000000000e+00 +0.0000000000e+00 9.1188000000e+01 9.1188000000e+01 6.2747e-15 0.0000e+00
  9900012  1    3    3    0    0 +1.4264918476e+01 -2.0732686222e+01 -1.9580306136e+01 5.9301944028e+01 5.0000000000e+01 6.1891e-05 -1.0000e+00
      -12  1    3    3    0    0 -1.4264918476e+01 +2.0732686222e+01 +1.9580306136e+01 3.1886055972e+01 0.0000000000e+00 0.0000e+00 1.0000e+00
</event>
<event>
 5      7 +1.7896800e-02 9.11880000e+01 7.81616400e-03 1.18400000e-01
      -11 -1    0    0    0    0 +0.0000000000e+00 +0.0000000000e+00 +4.5593999997e+01 4.5594000000e+01 5.1100000000e-04 0.0000e+00 1.0000e+00
       11 -1    0    0    0    0 -0.0000000000e+00 -0.0000000000e+00 -4.5593999997e+01 4.5594000000e+01 5.1100000000e-04 0.0000e+00 -1.0000e+00
       23  2    1    2    0    0 +0.0000000000e+00 +0.0000000000e+00 +0.0000000000e+00 9.1188000000e+01 9.1188000000e+01 1.3272e-13 0.0000e+00
  9900012  1    3    3    0    0 -8.9872498814e+00 -1.9669766632e+01 +2.3431819940e+01 5.9301944028e+01 5.0000000000e+01 1.4570e-04 1.0000e+00
       12  1    3    3    0    0 +8.9872498814e+00 +1.9669766632e+01 -2.3431819940e+01 3.1886055972e+01 0.0000000000e+00 0.0000e+00 -1.0000e+00
</event>
<event>
 5      6 +1.7896800e-02 9.11880000e+01 7.81616400e-03 1.18400000e-01
      -11 -1    0    0    0    0 +0.0000000000e+00 +0.0000000000e+00 +4.5593999997e+01 4.5594000000e+01 5.1100000000e-04 0.0000e+00 1.0000e+00
       11 -1    0    0    0    0 -0.0000000000e+00 -0.0000000000e+00 -4.5593999997e+01 4.5594000000e+01 5.1100000000e-04 0.0000e+00 -1.0000e+00
       23  2    1    2    0    0 +0.0000000000e+00 +0.0000000000e+00 +0.0000000000e+00 9.1188000000e+01 9.1188000000e+01 1.0127e-13 0.0000e+00
  9900012  1    3    3    0    0 -1.3428940431e+01 -2.4673084587e+01 +1.5087180695e+01 5.9301944028e+01 5.0000000000e+01 1.5750e-04 1.0000e+00
      -12  1    3    3    0    0 +1.3428940431e+01 +2.4673084587e+01 -1.5087180695e+01 3.1886055972e+01 0.0000000000e+00 0.0000e+00 1.0000e+00
</event>
<event>
 5      4 +1.7896800e-02 9.11880000e+01 7.81616400e-03 1.18400000e-01
      -11 -1    0    0    0    0 +0.0000000000e+00 +0.0000000000e+00 +4.5593999997e+01 4.5594000000e+01 5.1100000000e-04 0.0000e+00 -1.0000e+00
       11 -1    0    0    0    0 -0.0000000000e+00 -0.0000000000e+00 -4.5593999997e+01 4.5594000000e+01 5.1100000000e-04 0.0000e+00 1.0000e+00
       23  2    1    2    0    0 +0.0000000000e+00 +0.0000000000e+00 +0.0000000000e+00 9.1188000000e+01 9.1188000000e+01 9.6419e-14 0.0000e+00
  9900012  1    3    3    0    0 -2.8890596039e+01 -3.3803647739e+00 +1.3062433156e+01 5.9301944028e+01 5.0000000000e+01 2.7784e-03 -1.0000e+00
      -12  1    3    3    0    0 +2.8890596039e+01 +3.3803647739e+00 -1.3062433156e+01 3.1886055972e+01 0.0000000000e+00 0.0000e+00 1.0000e+00
</event>
<event>
 5      5 +1.7896800e-02 9.11880000e+01 7.81616400e-03 1.18400000e-01
      -11 -1    0    0    0    0 +0.0000000000e+00 +0.0000000000e+00 +4.5593999997e+01 4.5594000000e+01 5.1100000000e-04 0.0000e+00 -1.0000e+00
       11 -1    0    0    0    0 -0.0000000000e+00 -0.0000000000e+00 -4.5593999997e+01 4.5594000000e+01 5.1100000000e-04 0.0000e+00 1.0000e+00
       23  2    1    2    0    0 +0.0000000000e+00 +0.0000000000e+00 +0.0000000000e+00 9.1188000000e+01 9.1188000000e+01 4.5362e-15 0.0000e+00
  9900012  1    3    3    0    0 +3.8094882631e+00 +2.2343005466e+01 -2.2427627413e+01 5.9301944028e+01 5.0000000000e+01 4.7100e-04 1.0000e+00
       12  1    3    3    0    0 -3.8094882631e+00 -2.2343005466e+01 +2.2427627413e+01 3.1886055972e+01 0.0000000000e+00 0.0000e+00 -1.0000e+00
</event>
<event>
 5      3 +1.7896800e-02 9.11880000e+01 7.81616400e-03 1.18400000e-01
      -11 -1    0    0    0    0 +0.0000000000e+00 +0.0000000000e+00 +4.5593999997e+01 4.5594000000e+01 5.1100000000e-04 0.0000e+00 1.0000e+00
       11 -1    0    0    0    0 -0.0000000000e+00 -0.0000000000e+00 -4.5593999997e+01 4.5594000000e+01 5.1100000000e-04 0.0000e+00 -1.0000e+00
       23  2    1    2    0    0 +0.0000000000e+00 +0.0000000000e+00 +0.0000000000e+00 9.1188000000e+01 9.1188000000e+01 7.5053e-14 0.0000e+00
  9900012  1    3    3    0    0 -5.5292456127e+00 +1.2178321123e+01 +2.8945405560e+01 5.9301944028e+01 5.0000000000e+01 2.7955e-04 1.0000e+00
       12  1    3    3    0    0 +5.5292456127e+00 -1.2178321123e+01 -2.8945405560e+01 3.1886055972e+01 0.0000000000e+00 0.0000e+00 -1.0000e+00
</event>
<event>
 5      4 +1.7896800e-02 9.11880000e+01 7.81616400e-03 1.18400000e-01
      -11 -1    0    0    0    0 +0.0000000000e+00 +0.0000000000e+00 +4.5593999997e+01 4.5594000000e+01 5.1100000000e-04 0.0000e+00 1.0000e+00
       11 -1    0    0    0    0 -0.0000000000e+00 -0.0000000000e+00 -4.5593999997e+01 4.5594000000e+01 5.1100000000e-04 0.0000e+00 -1.0000e+00
       23  2    1    2    0    0 +0.0000000000e+00 +0.0000000000e+00 +0.0000000000e+00 9.1188000000e+01 9.1188000000e+01 1.2050e-14 0.0000e+00
  9900012  1    3    3    0    0 +1.5148128626e+01 +1.8968677973e+01 -2.0674719358e+01 5.9301944028e+01 5.0000000000e+01 4.7348e-04 -1.0000e+00
      -12  1    3    3    0    0 -1.5148128626e+01 -1.8968677973e+01 +2.0674719358e+01 3.1886055972e+01 0.0000000000e+00 0.0000e+00 1.0000e+00
</event>
<event>
 5      6 +1.7896800e-02 9.11880000e+01 7.81616400e-03 1.18400000e-01
      -11 -1    0    0    0    0 +0.0000000000e+00 +0.0000000000e+00 +4.5593999997e+01 4.5594000000e+01 5.1100000000e-04 0.0000e+00 1.0000e+00
       11 -1    0    0    0    0 -0.0000000000e+00 -0.0000000000e+00 -4.5593999997e+01 4.5594000000e+01 5.1100000000e-04 0.0000e+00 -1.0000e+00
       23  2    1    2    0    0 +0.0000000000e+00 +0.0000000000e+00 +0.0000000000e+00 9.1188000000e+01 9.1188000000e+01 2.1698e-14 0.0000e+00
  9900012  1    3    3    0    0 +2.3235688428e+01 +8.4388409932e+00 -2.0139744573e+01 5.9301944028e+01 5.0000000000e+01 4.3419e-04 -1.0000e+00
      -12  1    3    3    0    0 -2.3235688428e+01 -8.4388409932e+00 +2.0139744573e+01 3.1886055972e+01 0.0000000000e+00 0.0000e+00 1.0000e+00
</event>
<event>
 5      6 +1.7896800e-02 9.11880000e+01 7.81616400e-03 1.18400000e-01
      -11 -1    0    0    0    0 +0.0000000000e+00 +0.0000000000e+00 +4.5593999997e+01 4.5594000000e+01 5.1100000000e-04 0.0000e+00 -1.0000e+00
       11 -1    0    0    0    0 -0.0000000000e+00 -0.0000000000e+00 -4.5593999997e+01 4.5594000000e+01 5.1100000000e-04 0.0000e+00 1.0000e+00
       23  2    1    2    0    0 +0.0000000000e+00 +0.0000000000e+00 +0.0000000000e+00 9.1188000000e+01 9.1188000000e+01 1.1684e-13 0.0000e+00
  9900012  1    3    3    0    0 +7.2091403387e+00 +2.0170222372e+01 -2.3620139511e+01 5.9301944028e+01 5.0000000000e+01 1.5033e-03 1.0000e+00
      -12  1    3    3    0    0 -7.2091403387e+00 -2.0170222372e+01 +2.3620139511e+01 3.1886055972e+01 0.0000000000e+00 0.0000e+00 1.0000e+00
</event>
<event>
 5      7 +1.7896800e-02 9.11880000e+01 7.81616400e-03 1.18400000e-01
      -11 -1    0    0    0    0 +0.0000000000e+00 +0.0000000000e+00 +4.5593999997e+01 4.5594000000e+01 5.1100000000e-04 0.0000e+00 -1.0000e+00
       11 -1    0    0    0    0 -0.0000000000e+00 -0.0000000000e+00 -4.5593999997e+01 4.5594000000e+01 5.1100000000e-04 0.0000e+00 1.0000e+00
       23  2    1    2    0    0 +0.0000000000e+00 +0.0000000000e+00 +0.0000000000e+00 9.1188000000e+01 9.1188000000e+01 1.4649e-14 0.0000e+00
  9900012  1    3    3    0    0 -6.1027169222e+00 -2.6099904028e+01 -1.7270565172e+01 5.9301944028e+01 5.0000000000e+01 7.6024e-05 1.0000e+00
       12  1    3    3    0    0 +6.1027169222e+00 +2.6099904028e+01 +1.7270565172e+01 3.1886055972e+01 0.0000000000e+00 0.0000e+00 -1.0000e+00
</event>
<event>
 5      1 +1.7896800e-02 9.11880000e+01 7.81616400e-03 1.18400000e-01
      -11 -1    0    0    0    0 +0.0000000000e+00 +0.0000000000e+00 +4.5593999997e+01 4.5594000000e+01 5.1100000000e-04 0.0000e+00 -1.0000e+00
       11 -1    0    0    0    0 -0.0000000000e+00 -0.0000000000e+00 -4.5593999997e+01 4.5594000000e+01 5.1100000000e-04 0.0000e+00 1.0000e+00
       23  2    1    2    0    0 +0.0000000000e+00 +0.0000000000e+00 +0.0000000000e+00 9.1188000000e+01 9.1188000000e+01 2.1879e-14 0.0000e+00
  9900012  1    3    3    0    0 -6.1437925771e+00 -9.0499526380e+00 -2.9951172523e+01 5.9301944028e+01 5.0000000000e+01 1.1273e-03 1.0000e+00
       12  1    3    3    0    0 +6.1437925771e+00 +9.0499526380e+00 +2.9951172523e+01 3.1886055972e+01 0.0000000000e+00 0.0000e+00 -1.0000e+00
</event>
<event>
 5      1 +1.7896800e-02 9.11880000e+01 7.81616400e-03 1.18400000e-01
      -11 -1    0    0    0    0 +0.0000000000e+00 +0.0000000000e+00 +4.5593999997e+01 4.5594000000e+01 5.1100000000e-04 0.0000e+00 -1.0000e+00
       11 -1    0    0    0    0 -0.0000000000e+00 -0.0000000000e+00 -4.5593999997e+01 4.5594000000e+01 5.1100000000e-04 0.0000e+00 1.0000e+00
       23  2    1    2    0    0 +0.0000000000e+00 +0.0000000000e+00 +0.0000000000e+00 9.1188000000e+01 9.1188000000e+01 3.7220e-14 0.0000e+00
  9900012  1    3    3    0    0 -9.3533500555e+00 -7.7916368439e+00 -2.9470761841e+01 5.9301944028e+01 5.0000000000e+01 1.5673e-03 1.0000e+00
       12  1    3    3    0    0 +9.3533500555e+00 +7.7916368439e+00 +2.9470761841e+01 3.1886055972e+01 0.0000000000e+00 0.0000e+00 -1.0000e+00
</event>
<event>
 5      3 +1.7896800e-02 9.11880000e+01 7.81616400e-03 1.18400000e-01
      -11 -1    0    0    0    0 +0.0000000000e+00 +0.0000000000e+00 +4.5593999997e+01 4.5594000000e+01 5.1100000000e-04 0.0000e+00 1.0000e+00
       11 -1    0    0    0    0 -0.0000000000e+00 -0.0000000000e+00 -4.5593999997e+01 4.5594000000e+01 5.1100000000e-04 0.0000e+00 -1.0000e+00
       23  2    1    2    0    0 +0.0000000000e+00 +0.0000000000e+00 +0.0000000000e+00 9.1188000000e+01 9.1188000000e+01 9.4629e-14 0.0000e+00
  9900012  1    3    3    0    0 +4.5304319407e+00 -1.2288864377e+00 +3.1538636464e+01 5.9301944028e+01 5.0000000000e+01 3.2289e-04 1.0000e+00
       12  1    3    3    0    0 -4.5304319407e+00 +1.2288864377e+00 -3.1538636464e+01 3.1886055972e+01 0.0000000000e+00 0.0000e+00 -1.0000e+00
</event>
<event>
 5      1 +1.7896800e-02 9.11880000e+01 7.81616400e-03 1.18400000e-01
      -11 -1    0    0    0    0 +0.0000000000e+00 +0.0000000000e+00 +4.5593999997e+01 4.5594000000e+01 5.1100000000e-04 0.0000e+00 1.0000e+00
       11 -1    0    0    0    0 -0.0000000000e+00 -0.0000000000e+00 -4.5593999997e+01 4.5594000000e+01 5.1100000000e-04 0.0000e+00 -1.0000e+00
       23  2    1    2    0    0 +0.0000000000e+00 +0.0000000000e+00 +0.0000000000e+00 9.1188000000e+01 9.1188000000e+01 7.9290e-14 0.0000e+00
  9900012  1    3    3    0    0 -1.8075493101e+01 -1.1546213155e+01 +2.3594111054e+01 5.9301944028e+01 5.0000000000e+01 4.6566e-04 1.0000e+00
       12  1    3    3    0    0 +1.8075493101e+01 +1.1546213155e+01 -2.3594111054e+01 3.1886055972e+01 0.0000000000e+00 0.0000e+00 -1.0000e+00
</event>
<event>
 5      2 +1.7896800e-02 9.11880000e+01 7.81616400e-03 1.18400000e-01
      -11 -1    0    0    0    0 +0.0000000000e+00 +0.0000000000e+00 +4.5593999997e+01 4.5594000000e+01 5.1100000000e-04 0.0000e+00 -1.0000e+00
       11 -1    0    0    0    0 -0.0000000000e+00 -0.0000000000e+00 -4.5593999997e+01 4.5594000000e+01 5.1100000000e-04 0.0000e+00 1.0000e+00
       23  2    1    2    0    0 +0.0000000000e+00 +0.0000000000e+00 +0.0000000000e+00 9.1188000000e+01 9.1188000000e+01 7.7667e-14 0.0000e+00
  9900012  1    3    3    0    0 +1.1752816168e+01 -1.0760549439e+01 +2.7618878568e+01 5.9301944028e+01 5.0000000000e+01 1.0393e-03 -1.0000e+00
      -12  1    3    3    0    0 -1.1752816168e+01 +1.0760549439e+01 -2.7618878568e+01 3.1886055972e+01 0.0000000000e+00 0.0000e+00 1.0000e+00
</event>
<event>
 5      5 +1.7896800e-02 9.11880000e+01 7.81616400e-03 1.18400000e-01
      -11 -1    0    0    0    0 +0.0000000000e+00 +0.0000000000e+00 +4.5593999997e+01 4.5594000000e+01 5.1100000000e-04 0.0000e+00 -1.0000e+00
       11 -1    0    0    0    0 -0.0000000000e+00 -0.0000000000e+00 -4.5593999997e+01 4.5594000000e+01 5.1100000000e-04 0.0000e+00 1.0000e+00
       23  2    1    2    0    0 +0.0000000000e+00 +0.0000000000e+00 +0.0000000000e+00 9.1188000000e+01 9.1188000000e+01 1.8641e-15 0.0000e+00
  9900012  1    3    3    0    0 -3.9619635569e+00 +1.6922524188e+01 -2.6732968136e+01 5.9301944028e+01 5.0000000000e+01 4.4226e-04 1.0000e+00
       12  1    3    3    0    0 +3.9619635569e+00 -1.6922524188e+01 +2.6732968136e+01 3.1886055972e+01 0.0000000000e+00 0.0000e+00 -1.0000e+00
</event>
<event>
 5      8 +1.7896800e-02 9.11880000e+01 7.81616400e-03 1.18400000e-01
      -11 -1    0    0    0    0 +0.0000000000e+00 +0.0000000000e+00 +4.5593999997e+01 4.5594000000e+01 5.1100000000e-04 0.0000e+00 1.0000e+00
       11 -1    0    0    0    0 -0.0000000000e+00 -0.0000000000e+00 -4.5593999997e+01 4.5594000000e+01 5.1100000000e-04 0.0000e+00 -1.0000e+00
       23  2    1    2    0    0 +0.0000000000e+00 +0.0000000000e+00 +0.0000000000e+00 9.1188000000e+01 9.1188000000e+01 6.2611e-14 0.0000e+00
  9900012  1    3    3    0    0 +4.6316055541e+00 +1.5670705428e+01 -2.7380609687e+01 5.9301944028e+01 5.0000000000e+01 1.1569e-05 -1.0000e+00
      -12  1    3    3    0    0 -4.6316055541e+00 -1.5670705428e+01 +2.7380609687e+01 3.1886055972e+01 0.0000000000e+00 0.0000e+00 1.0000e+00
</event>
<event>
 5      7 +1.7896800e-02 9.11880000e+01 7.81616400e-03 1.18400000e-01
      -11 -1    0    0    0    0 +0.0000000000e+00 +0.0000000000e+00 +4.5593999997e+01 4.5594000000e+01 5.1100000000e-04 0.0000e+00 -1.0000e+00
       11 -1    0    0    0    0 -0.0000000000e+00 -0.0000000000e+00 -4.5593999997e+01 4.5594000000e+01 5.1100000000e-04 0.0000e+00 1.0000e+00
       23  2    1    2    0    0 +0.0000000000e+00 +0.0000000000e+00 +0.0000000000e+00 9.1188000000e+01 9.1188000000e+01 3.4083e-14 0.0000e+00
  9900012  1    3    3    0    0 -5.8297085707e-01 -3.0086889397e+01 -1.0543234650e+01 5.9301944028e+01 5.0000000000e+01 1.4076e-04 1.0000e+00
       12  1    3    3    0    0 +5.8297085707e-01 +3.0086889397e+01 +1.0543234650e+01 3.1886055972e+01 0.0000000000e+00 0.0000e+00 -1.0000e+00
</event>
<event>
 5      5 +1.7896800e-02 9.11880000e+01 7.81616400e-03 1.18400000e-01
      -11 -1    0    0    0    0 +0.0000000000e+00 +0.0000000000e+00 +4.5593999997e+01 4.5594000000e+01 5.1100000000e-04 0.0000e+00 -1.0000e+00
       11 -1    0    0    0    0 -0.0000000000e+00 -0.0000000000e+00 -4.5593999997e+01 4.5594000000e+01 5.1100000000e-04 0.0000e+00 1.0000e+00
       23  2    1    2    0    0 +0.0000000000e+00 +0.0000000000e+00 +0.0000000000e+00 9.1188000000e+01 9.1188000000e+01 2.0854e-14 0.0000e+00
  9900012  1    3    3    0    0 +1.9817988061e+01 -1.6904009446e+01 -1.8390823237e+01 5.9301944028e+01 5.0000000000e+01 1.5366e-04 1.0000e+00
       12  1    3    3    0    0 -1.9817988061e+01 +1.6904009446e+01 +1.8390823237e+01 3.1886055972e+01 0.0000000000e+00 0.0000e+00 -1.0000e+00
</event>
<event>
 5      5 +1.7896800e-02 9.11880000e+01 7.81616400e-03 1.18400000e-01
      -11 -1    0    0    0    0 +0.0000000000e+00 +0.0000000000e+00 +4.5593999997e+01 4.5594000000e+01 5.1100000000e-04 0.0000e+00 -1.0000e+00
       11 -1    0    0    0    0 -0.0000000000e+00 -0.0000000000e+00 -4.5593999997e+01 4.5594000000e+01 5.1100000000e-04 0.0000e+00 1.0000e+00
       23  2    1    2    0    0 +0.0000000000e+00 +0.0000000000e+00 +0.0000000000e+00 9.1188000000e+01 9.1188000000e+01 1.9264e-13 0.0000e+00
  9900012  1    3    3    0    0 +9.2307477238e+00 -2.7155723828e+00 -3.0399663297e+01 5.9301944028e+01 5.0000000000e+01 4.1664e-03 1.0000e+00
       12  1    3    3    0    0 -9.2307477238e+00 +2.7155723828e+00 +3.0399663297e+01 3.1886055972e+01 0.0000000000e+00 0.0000e+00 -1.0000e+00
</event>
<event>
 5      2 +1.7896800e-02 9.11880000e+01 7.81616400e-03 1.18400000e-01
      -11 -1    0    0    0    0 +0.0000000000e+00 +0.0000000000e+00 +4.5593999997e+01 4.5594000000e+01 5.1100000000e-04 0.0000e+00 -1.0000e+00
       11 -1    0    0    0    0 -0.0000000000e+00 -0.0000000000e+00 -4.5593999997e+01 4.5594000000e+01 5.1100000000e-04 0.0000e+00 1.0000e+00
       23  2    1    2    0    0 +0.0000000000e+00 +0.0000000000e+00 +0.0000000000e+00 9.1188000000e+01 9.1188000000e+01 2.9220e-15 0.0000e+00
  9900012  1    3    3    0    0 -2.6711134265e+01 +1.7410279322e+01 -3.4357772383e-01 5.9301944028e+01 5.0000000000e+01 5.2539e-04 -1.0000e+00
      -12  1    3    3    0    0 +2.6711134265e+01 -1.7410279322e+01 +3.4357772383e-01 3.1886055972e+01 0.0000000000e+00 0.0000e+00 1.0000e+00
</event>
<event>
 5      6 +1.7896800e-02 9.11880000e+01 7.81616400e-03 1.18400000e-01
      -11 -1    0    0    0    0 +0.0000000000e+00 +0.0000000000e+00 +4.5593999997e+01 4.5594000000e+01 5.1100000000e-04 0.0000e+00 1.0000e+00
       11 -1    0    0    0    0 -0.0000000000e+00 -0.0000000000e+00 -4.5593999997e+01 4.5594000000e+01 5.1100000000e-04 0.0000e+00 -1.0000e+00
       23  2    1    2    0    0 +0.0000000000e+00 +0.0000000000e+00 +0.0000000000e+00 9.1188000000e+01 9.1188000000e+01 2.7613e-14 0.0000e+00
  9900012  1    3    3    0    0 -5.3718413874e+00 +2.7109296162e+01 -1.5904400246e+01 5.9301944028e+01 5.0000000000e+01 1.1080e-03 -1.0000e+00
      -12  1    3    3    0    0 +5.3718413874e+00 -2.7109296162e+01 +1.5904400246e+01 3.1886055972e+01 0.0000000000e+00 0.0000e+00 1.0000e+00
</event>
<event>
 5      8 +1.7896800e-02 9.11880000e+01 7.81616400e-03 1.18400000e-01
      -11 -1    0    0    0    0 +0.0000000000e+00 +0.0000000000e+00 +4.5593999997e+01 4.5594000000e+01 5.1100000000e-04 0.0000e+00 1.0000e+00
       11 -1    0    0    0    0 -0.0000000000e+00 -0.0000000000e+00 -4.5593999997e+01 4.5594000000e+01 5.1100000000e-04 0.0000e+00 -1.0000e+00
       23  2    1    2    0    0 +0.0000000000e+00 +0.0000000000e+00 +0.0000000000e+00 9.1188000000e+01 9.1188000000e+01 7.2993e-14 0.0000e+00
  9900012  1    3    3    0    0 +1.5605026236e+01 +2.7574049520e+01 -3.5882467416e+00 5.9301944028e+01 5.0000000000e+01 1.9047e-03 -1.0000e+00
      -12  1    3    3    0    0 -1.5605026236e+01 -2.7574049520e+01 +3.5882467416e+00 3.1886055972e+01 0.0000000000e+00 0.0000e+00 1.0000e+00
</event>
<event>
 5      5 +1.7896800e-02 9.11880000e+01 7.81616400e-03 1.18400000e-01
      -11 -1    0    0    0    0 +0.0000000000e+00 +0.0000000000e+00 +4.5593999997e+01 4.5594000000e+01 5.1100000000e-04 0.0000e+00 1.0000e+00
       11 -1    0    0    0    0 -0.0000000000e+00 -0.0000000000e+00 -4.5593999997e+01 4.5594000000e+01 5.1100000000e-04 0.0000e+00 -1.0000e+00
       23  2    1    2    0    0 +0.0000000000e+00 +0.0000000000e+00 +0.0000000000e+00 9.1188000000e+01 9.1188000000e+01 2.1604e-14 0.0000e+00
  9900012  1    3    3    0    0 -2.8318436671e+01 -5.8951605664e+00 -1.3417667156e+01 5.9301944028e+01 5.0000000000e+01 8.7218e-04 1.0000e+00
       12  1    3    3    0    0 +2.8318436671e+01 +5.8951605664e+00 +1.3417667156e+01 3.1886055972e+01 0.0000000000e+00 0.0000e+00 -1.0000e+00
</event>
<event>
 5      1 +1.7896800e-02 9.11880000e+01 7.81616400e-03 1.18400000e-01
      -11 -1    0    0    0    0 +0.0000000000e+00 +0.0000000000e+00 +4.5593999997e+01 4.5594000000e+01 5.1100000000e-04 0.0000e+00 1.0000e+00
       11 -1    0    0    0    0 -0.0000000000e+00 -0.0000000000e+00 -4.5593999997e+01 4.5594000000e+01 5.1100000000e-04 0.0000e+00 -1.0000e+00
       23  2    1    2    0    0 +0.0000000000e+00 +0.0000000000e+00 +0.0000000000e+00 9.1188000000e+01 9.1188000000e+01 1.3304e-13 0.0000e+00
  9900012  1    3    3    0    0 -1.8349330776e+01 +1.2886387936e+01 +2.2670766010e+01 5.9301944028e+01 5.0000000000e+01 2.5919e-04 1.0000e+00
       12  1    3    3    0    0 +1.8349330776e+01 -1.2886387936e+01 -2.2670766010e+01 3.1886055972e+01 0.0000000000e+00 0.0000e+00 -1.0000e+00
</event>
<event>
 5      8 +1.7896800e-02 9.11880000e+01 7.81616400e-03 1.18400000e-01
      -11 -1    0    0    0    0 +0.0000000000e+00 +0.0000000000e+00 +4.5593999997e+01 4.5594000000e+01 5.1100000000e-04 0.0000e+00 1.0000e+00
       11 -1    0    0    0    0 -0.0000000000e+00 -0.0000000000e+00 -4.5593999997e+01 4.5594000000e+01 5.1100000000e-04 0.0000e+00 -1.0000e+00
       23  2    1    2    0    0 +0.0000000000e+00 +0.0000000000e+00 +0.0000000000e+00 9.1188000000e+01 9.1188000000e+01 1.0779e-13 0.0000e+00
  9900012  1    3    3    0    0 -1.6410347619e+01 +2.1618736947e+01 -1.6734732424e+01 5.9301944028e+01 5.0000000000e+01 1.2541e-03 -1.0000e+00
      -12  1    3    3    0    0 +1.6410347619e+01 -2.1618736947e+01 +1.6734732424e+01 3.1886055972e+01 0.0000000000e+00 0.0000e+00 1.0000e+00
</event>
<event>
 5      4 +1.7896800e-02 9.11880000e+01 7.81616400e-03 1.18400000e-01
      -11 -1    0    0    0    0 +0.0000000000e+00 +0.0000000000e+00 +4.5593999997e+01 4.5594000000e+01 5.1100000000e-04 0.0000e+00 -1.0000e+00
       11 -1    0    0    0    0 -0.0000000000e+00 -0.0000000000e+00 -4.5593999997e+01 4.5594000000e+01 5.1100000000e-04 0.0000e+00 1.0000e+00
       23  2    1    2    0    0 +0.0000000000e+00 +0.0000000000e+00 +0.0000000000e+00 9.1188000000e+01 9.1188000000e+01 1.7259e-15 0.0000e+00
  9900012  1    3    3    0    0 -5.6693469077e-01 -3.1492987258e+00 +3.1725085785e+01 5.9301944028e+01 5.0000000000e+01 7.1245e-04 -1.0000e+00
      -12  1    3    3    0    0 +5.6693469077e-01 +3.1492987258e+00 -3.1725085785e+01 3.1886055972e+01 0.0000000000e+00 0.0000e+00 1.0000e+00
</event>
<event>
 5      5 +1.7896800e-02 9.11880000e+01 7.81616400e-03 1.18400000e-01
      -11 -1    0    0    0    0 +0.0000000000e+00 +0.0000000000e+00 +4.5593999997e+01 4.5594000000e+01 5.1100000000e-04 0.0000e+00 -1.0000e+00
       11 -1    0    0    0    0 -0.0000000000e+00 -0.0000000000e+00 -4.5593999997e+01 4.5594000000e+01 5.1100000000e-04 0.0000e+00 1.0000e+00
       23  2    1    2    0    0 +0.0000000000e+00 +0.0000000000e+00 +0.0000000000e+00 9.1188000000e+01 9.1188000000e+01 2.3342e-13 0.0000e+00
  9900012  1    3    3    0    0 +6.6436128264e+00 +1.4972484538e+01 -2.7357040791e+01 5.9301944028e+01 5.0000000000e+01 5.5964e-04 1.0000e+00
       12  1    3    3    0    0 -6.6436128264e+00 -1.4972484538e+01 +2.7357040791e+01 3.1886055972e+01 0.0000000000e+00 0.0000e+00 -1.0000e+00
</event>
<event>
 5      8 +1.7896800e-02 9.11880000e+01 7.81616400e-03 1.18400000e-01
      -11 -1    0    0    0    0 +0.0000000000e+00 +0.0000000000e+00 +4.5593999997e+01 4.5594000000e+01 5.1100000000e-04 0.0000e+00 1.0000e+00
       11 -1    0    0    0    0 -0.0000000000e+00 -0.0000000000e+00 -4.5593999997e+01 4.5594000000e+01 5.1100000000e-04 0.0000e+00 -1.0000e+00
       23  2    1    2    0    0 +0.0000000000e+00 +0.0000000000e+00 +0.0000000000e+00 9.1188000000e+01 9.1188000000e+01 8.5266e-14 0.0000e+00
  9900012  1    3    3    0    0 -2.5119916512e+01 +1.9006309208e+01 +4.9467737186e+00 5.9301944028e+01 5.0000000000e+01 1.9928e-03 1.0000e+00
      -12  1    3    3    0    0 +2.5119916512e+01 -1.9006309208e+01 -4.9467737186e+00 3.1886055972e+01 0.0000000000e+00 0.0000e+00 1.0000e+00
</event>
<event>
 5      4 +1.7896800e-02 9.11880000e+01 7.81616400e-03 1.18400000e-01
      -11 -1    0    0    0    0 +0.0000000000e+00 +0.0000000000e+00 +4.5593999997e+01 4.5594000000e+01 5.1100000000e-04 0.0000e+00 -1.0000e+00
       11 -1    0    0    0    0 -0.0000000000e+00 -0.0000000000e+00 -4.5593999997e+01 4.5594000000e+01 5.1100000000e-04 0.0000e+00 1.0000e+00
       23  2    1    2    0    0 +0.0000000000e+00 +0.0000000000e+00 +0.0000000000e+00 9.1188000000e+01 9.1188000000e+01 1.4446e-13 0.0000e+00
  9900012  1    3    3    0    0 +2.0918548282e+01 +4.3135660151e+00 +2.3675473627e+01 5.9301944028e+01 5.0000000000e+01 5.9508e-03 -1.0000e+00
      -12  1    3    3    0    0 -2.0918548282e+01 -4.3135660151e+00 -2.3675473627e+01 3.1886055972e+01 0.0000000000e+00 0.0000e+00 1.0000e+00
</event>
<event>
 5      1 +1.7896800e-02 9.11880000e+01 7.81616400e-03 1.18400000e-01
      -11 -1    0    0    0    0 +0.0000000000e+00 +0.0000000000e+00 +4.5593999997e+01 4.5594000000e+01 5.1100000000e-04 0.0000e+00 -1.0000e+00
       11 -1    0    0    0    0 -0.0000000000e+00 -0.0000000000e+00 -4.5593999997e+01 4.5594000000e+01 5.1100000000e-04 0.0000e+00 1.0000e+00
       23  2    1    2    0    0 +0.0000000000e+00 +0.0000000000e+00 +0.0000000000e+00 9.1188000000e+01 9.1188000000e+01 1.4752e-13 0.0000e+00
  9900012  1    3    3    0    0 +6.3668574213e+00 -9.4297487993e+00 -2.9786969125e+01 5.9301944028e+01 5.0000000000e+01 1.7432e-04 1.0000e+00
       12  1    3    3    0    0 -6.3668574213e+00 +9.4297487993e+00 +2.9786969125e+01 3.1886055972e+01 0.0000000000e+00 0.0000e+00 -1.0000e+00
</event>
<event>
 5      8 +1.7896800e-02 9.11880000e+01 7.81616400e-03 1.18400000e-01
      -11 -1    0    0    0    0 +0.0000000000e+00 +0.0000000000e+00 +4.5593999997e+01 4.5594000000e+01 5.1100000000e-04 0.0000e+00 1.0000e+00
       11 -1    0    0    0    0 -0.0000000000e+00 -0.0000000000e+00 -4.5593999997e+01 4.5594000000e+01 5.1100000000e-04 0.0000e+00 -1.0000e+00
       23  2    1    2    0    0 +0.0000000000e+00 +0.0000000000e+00 +0.0000000000e+00 9.1188000000e+01 9.1188000000e+01 1.6050e-13 0.0000e+00
  9900012  1    3    3    0    0 +1.2055923113e+01 +1.8936864436e+01 -2.2644435270e+01 5.9301944028e+01 5.0000000000e+01 1.4444e-04 -1.0000e+00
      -12  1    3    3    0    0 -1.2055923113e+01 -1.8936864436e+01 +2.2644435270e+01 3.1886055972e+01 0.0000000000e+00 0.0000e+00 1.0000e+00
</event>
<event>
 5      7 +1.7896800e-02 9.11880000e+01 7.81616400e-03 1.18400000e-01
      -11 -1    0    0    0    0 +0.0000000000e+00 +0.0000000000e+00 +4.5593999997e+01 4.5594000000e+01 5.1100000000e-04 0.0000e+00 1.0000e+00
       11 -1    0    0    0    0 -0.0000000000e+00 -0.0000000000e+00 -4.5593999997e+01 4.5594000000e+01 5.1100000000e-04 0.0000e+00 -1.0000e+00
       23  2    1    2    0    0 +0.0000000000e+00 +0.0000000000e+00 +0.0000000000e+00 9.1188000000e+01 9.1188000000e+01 1.4202e-14 0.0000e+00
  9900012  1    3    3    0    0 -1.7139628572e+00 -1.2715019611e+01 +2.9190943340e+01 5.9301944028e+01 5.0000000000e+01 1.9736e-03 1.0000e+00
       12  1    3    3    0    0 +1.7139628572e+00 +1.2715019611e+01 -2.9190943340e+01 3.1886055972e+01 0.0000000000e+00 0.0000e+00 -1.0000e+00
</event>
<event>
 5      7 +1.7896800e-02 9.11880000e+01 7.81616400e-03 1.18400000e-01
      -11 -1    0    0    0    0 +0.0000000000e+00 +0.0000000000e+00 +4.5593999997e+01 4.5594000000e+01 5.1100000000e-04 0.0000e+00 -1.0000e+00
       11 -1    0    0    0    0 -0.0000000000e+00 -0.0000000000e+00 -4.5593999997e+01 4.5594000000e+01 5.1100000000e-04 0.0000e+00 1.0000e+00
       23  2    1    2    0    0 +0.0000000000e+00 +0.0000000000e+00 +0.0000000000e+00 9.1188000000e+01 9.1188000000e+01 1.5139e-14 0.0000e+00
  9900012  1    3    3    0    0 -6.8387231112e+00 +1.5153437573e+01 -2.7208927972e+01 5.9301944028e+01 5.0000000000e+01 6.1584e-04 1.0000e+00
       12  1    3    3    0    0 +6.8387231112e+00 -1.5153437573e+01 +2.7208927972e+01 3.1886055972e+01 0.0000000000e+00 0.0000e+00 -1.0000e+00
</event>
<event>
 5      3 +1.7896800e-02 9.11880000e+01 7.81616400e-03 1.18400000e-01
      -11 -1    0    0    0    0 +0.0000000000e+00 +0.0000000000e+00 +4.5593999997e+01 4.5594000000e+01 5.1100000000e-04 0.0000e+00 1.0000e+00
       11 -1    0    0    0    0 -0.0000000000e+00 -0.0000000000e+00 -4.5593999997e+01 4.5594000000e+01 5.1100000000e-04 0.0000e+00 -1.0000e+00
       23  2    1    2    0    0 +0.0000000000e+00 +0.0000000000e+00 +0.0000000000e+00 9.1188000000e+01 9.1188000000e+01 7.7175e-14 0.0000e+00
  9900012  1    3    3    0    0 +1.6678320764e+00 +3.1501063897e+01 -4.6499327908e+00 5.9301944028e+01 5.0000000000e+01 2.5708e-04 -1.0000e+00
       12  1    3    3    0    0 -1.6678320764e+00 -3.1501063897e+01 +4.6499327908e+00 3.1886055972e+01 0.0000000000e+00 0.0000e+00 -1.0000e+00
</event>
<event>
 5      4 +1.7896800e-02 9.11880000e+01 7.81616400e-03 1.18400000e-01
      -11 -1    0    0    0    0 +0.0000000000e+00 +0.0000000000e+00 +4.5593999997e+01 4.5594000000e+01 5.1100000000e-04 0.0000e+00 1.0000e+00
       11 -1    0    0    0    0 -0.0000000000e+00 -0.0000000000e+00 -4.5593999997e+01 4.5594000000e+01 5.1100000000e-04 0.0000e+00 -1.0000e+00
       23  2    1    2    0    0 +0.0000000000e+00 +0.0000000000e+00 +0.0000000000e+00 9.1188000000e+01 9.1188000000e+01 5.2850e-14 0.0000e+00
  9900012  1    3    3    0    0 +2.4940088079e+01 -1.9533336225e+01 +3.6278572155e+00 5.9301944028e+01 5.0000000000e+01 2.6201e-03 1.0000e+00
      -12  1    3    3    0    0 -2.4940088079e+01 +1.9533336225e+01 -3.6278572155e+00 3.1886055972e+01 0.0000000000e+00 0.0000e+00 1.0000e+00
</event>
<event>
 5      1 +1.7896800e-02 9.11880000e+01 7.81616400e-03 1.18400000e-01
      -11 -1    0    0    0    0 +0.0000000000e+00 +0.0000000000e+00 +4.5593999997e+01 4.5594000000e+01 5.1100000000e-04 0.0000e+00 -1.0000e+00
       11 -1    0    0    0    0 -0.0000000000e+00 -0.0000000000e+00 -4.5593999997e+01 4.5594000000e+01 5.1100000000e-04 0.0000e+00 1.0000e+00
       23  2    1    2    0    0 +0.0000000000e+00 +0.0000000000e+00 +0.0000000000e+00 9.1188000000e+01 9.1188000000e+01 1.9911e-14 0.0000e+00
  9900012  1    3    3    0    0 +5.7552581858e-01 -3.1312422341e+01 +5.9934583207e+00 5.9301944028e+01 5.0000000000e+01 2.1233e-04 1.0000e+00
       12  1    3    3    0    0 -5.7552581858e-01 +3.1312422341e+01 -5.9934583207e+00 3.1886055972e+01 0.0000000000e+00 0.0000e+00 -1.0000e+00
</event>
<event>
 5      2 +1.7896800e-02 9.11880000e+01 7.81616400e-03 1.18400000e-01
      -11 -1    0    0    0    0 +0.0000000000e+00 +0.0000000000e+00 +4.5593999997e+01 4.5594000000e+01 5.1100000000e-04 0.0000e+00 1.0000e+00
       11 -1    0    0    0    0 -0.0000000000e+00 -0.0000000000e+00 -4.5593999997e+01 4.5594000000e+01 5.1100000000e-04 0.0000e+00 -1.0000e+00
       23  2    1    2    0    0 +0.0000000000e+00 +0.0000000000e+00 +0.0000000000e+00 9.1188000000e+01 9.1188000000e+01 1.1501e-13 0.0000e+00
  9900012  1    3    3    0    0 +2.7064421990e+01 -9.0295877667e+00 -1.4237421557e+01 5.9301944028e+01 5.0000000000e+01 2.0847e-04 -1.0000e+00
      -12  1    3    3    0    0 -2.7064421990e+01 +9.0295877667e+00 +1.4237421557e+01 3.1886055972e+01 0.0000000000e+00 0.0000e+00 1.0000e+00
</event>
<event>
 5      6 +1.7896800e-02 9.11880000e+01 7.81616400e-03 1.18400000e-01
      -11 -1    0    0    0    0 +0.0000000000e+00 +0.0000000000e+00 +4.5593999997e+01 4.5594000000e+01 5.1100000000e-04 0.0000e+00 1.0000e+00
       11 -1    0    0    0    0 -0.0000000000e+00 -0.0000000000e+00 -4.5593999997e+01 4.5594000000e+01 5.1100000000e-04 0.0000e+00 -1.0000e+00
       23  2    1    2    0    0 +0.0000000000e+00 +0.0000000000e+00 +0.0000000000e+00 9.1188000000e+01 9.1188000000e+01 7.2064e-15 0.0000e+00
  9900012  1    3    3    0    0 +1.5423863270e+01 +2.5453423319e+01 -1.1443262150e+01 5.9301944028e+01 5.0000000000e+01 2.7033e-04 -1.0000e+00
      -12  1    3    3    0    0 -1.5423863270e+01 -2.5453423319e+01 +1.1443262150e+01 3.1886055972e+01 0.0000000000e+00 0.0000e+00 1.0000e+00
</event>
<event>
 5      1 +1.7896800e-02 9.11880000e+01 7.81616400e-03 1.18400000e-01
      -11 -1    0    0    0    0 +0.0000000000e+00 +0.0000000000e+00 +4.5593999997e+01 4.5594000000e+01 5.1100000000e-04 0.0000e+00 -1.0000e+00
       11 -1    0    0    0    0 -0.0000000000e+00 -0.0000000000e+00 -4.5593999997e+01 4.5594000000e+01 5.1100000000e-04 0.0000e+00 1.0000e+00
       23  2    1    2    0    0 +0.0000000000e+00 +0.0000000000e+00 +0.0000000000e+00 9.1188000000e+01 9.1188000000e+01 7.8435e-15 0.0000e+00
  9900012  1    3    3    0    0 +3.0264754463e+00 -7.9576975535e+00 -3.0728424325e+01 5.9301944028e+01 5.0000000000e+01 2.1482e-03 1.0000e+00
       12  1    3    3    0    0 -3.0264754463e+00 +7.9576975535e+00 +3.0728424325e+01 3.1886055972e+01 0.0000000000e+00 0.0000e+00 -1.0000e+00
</event>
<event>
 5      6 +1.7896800e-02 9.11880000e+01 7.81616400e-03 1.18400000e-01
      -11 -1    0    0    0    0 +0.0000000000e+00 +0.0000000000e+00 +4.5593999997e+01 4.5594000000e+01 5.1100000000e-04 0.0000e+00 -1.0000e+00
       11 -1    0    0    0    0 -0.0000000000e+00 -0.0000000000e+00 -4.5593999997e+01 4.5594000000e+01 5.1100000000e-04 0.0000e+00 1.0000e+00
       23  2    1    2    0    0 +0.0000000000e+00 +0.0000000000e+00 +0.0000000000e+00 9.1188000000e+01 9.1188000000e+01 2.7943e-14 0.0000e+00
  9900012  1    3    3    0    0 +1.0275327204e+01 -2.0305669457e+01 +2.2334233907e+01 5.9301944028e+01 5.0000000000e+01 3.0589e-05 -1.0000e+00
      -12  1    3    3    0    0 -1.0275327204e+01 +2.0305669457e+01 -2.2334233907e+01 3.1886055972e+01 0.0000000000e+00 0.0000e+00 1.0000e+00
</event>
<event>
 5      4 +1.7896800e-02 9.11880000e+01 7.81616400e-03 1.18400000e-01
      -11 -1    0    0    0    0 +0.0000000000e+00 +0.0000000000e+00 +4.5593999997e+01 4.5594000000e+01 5.1100000000e-04 0.0000e+00 -1.0000e+00
       11 -1    0    0    0    0 -0.0000000000e+00 -0.0000000000e+00 -4.5593999997e+01 4.5594000000e+01 5.1100000000e-04 0.0000e+00 1.0000e+00
       23  2    1    2    0    0 +0.0000000000e+00 +0.0000000000e+00 +0.0000000000e+00 9.1188000000e+01 9.1188000000e+01 4.9175e-14 0.0000e+00
  9900012  1    3    3    0    0 -1.9593478156e+01 +1.5152024208e+01 -2.0080645946e+01 5.9301944028e+01 5.0000000000e+01 3.0453e-04 -1.0000e+00
      -12  1    3    3    0    0 +1.9593478156e+01 -1.5152024208e+01 +2.0080645946e+01 3.1886055972e+01 0.0000000000e+00 0.0000e+00 1.0000e+00
</event>
<event>
 5      7 +1.7896800e-02 9.11880000e+01 7.81616400e-03 1.18400000e-01
      -11 -1    0    0    0    0 +0.0000000000e+00 +0.0000000000e+00 +4.5593999997e+01 4.5594000000e+01 5.1100000000e-04 0.0000e+00 -1.0000e+00
       11 -1    0    0    0    0 -0.0000000000e+00 -0.0000000000e+00 -4.5593999997e+01 4.5594000000e+01 5.1100000000e-04 0.0000e+00 1.0000e+00
       23  2    1    2    0    0 +0.0000000000e+00 +0.0000000000e+00 +0.0000000000e+00 9.1188000000e+01 9.1188000000e+01 1.2172e-13 0.0000e+00
  9900012  1    3    3    0    0 +2.8046608289e+01 -1.4731139686e+01 -3.6196481193e+00 5.9301944028e+01 5.0000000000e+01 2.9865e-03 1.0000e+00
       12  1    3    3    0    0 -2.8046608289e+01 +1.4731139686e+01 +3.6196481193e+00 3.1886055972e+01 0.0000000000e+00 0.0000e+00 -1.0000e+00
</event>
<event>
 5      2 +1.7896800e-02 9.11880000e+01 7.81616400e-03 1.18400000e-01
      -11 -1    0    0    0    0 +0.0000000000e+00 +0.0000000000e+00 +4.5593999997e+01 4.5594000000e+01 5.1100000000e-04 0.0000e+00 1.0000e+00
       11 -1    0    0    0    0 -0.0000000000e+00 -0.0000000000e+00 -4.5593999997e+01 4.5594000000e+01 5.1100000000e-04 0.0000e+00 -1.0000e+00
       23  2    1    2    0    0 +0.0000000000e+00 +0.0000000000e+00 +0.0000000000e+00 9.1188000000e+01 9.1188000000e+01 1.1719e-13 0.0000e+00
  9900012  1    3    3    0    0 -3.0366401375e+01 -1.4969204051e+00 -9.6104871005e+00 5.9301944028e+01 5.0000000000e+01 3.3211e-04 -1.0000e+00
      -12  1    3    3    0    0 +3.0366401375e+01 +1.4969204051e+00 +9.6104871005e+00 3.1886055972e+01 0.0000000000e+00 0.0000e+00 1.0000e+00
</event>
<event>
 5      3 +1.7896800e-02 9.11880000e+01 7.81616400e-03 1.18400000e-01
      -11 -1    0    0    0    0 +0.0000000000e+00 +0.0000000000e+00 +4.5593999997e+01 4.5594000000e+01 5.1100000000e-04 0.0000e+00 -1.0000e+00
       11 -1    0    0    0    0 -0.0000000000e+00 -0.0000000000e+00 -4.5593999997e+01 4.5594000000e+01 5.1100000000e-04 0.0000e+00 1.0000e+00
       23  2    1    2    0    0 +0.0000000000e+00 +0.0000000000e+00 +0.0000000000e+00 9.1188000000e+01 9.1188000000e+01 8.3523e-14 0.0000e+00
  9900012  1    3    3    0    0 -1.6930556359e+01 +1.4391962101e+01 -2.2868061870e+01 5.9301944028e+01 5.0000000000e+01 1.5059e-03 1.0000e+00
       12  1    3    3    0    0 +1.6930556359e+01 -1.4391962101e+01 +2.2868061870e+01 3.1886055972e+01 0.0000000000e+00 0.0000e+00 -1.0000e+00
</event>
<event>
 5      1 +1.7896800e-02 9.11880000e+01 7.81616400e-03 1.18400000e-01
      -11 -1    0    0    0    0 +0.0000000000e+00 +0.0000000000e+00 +4.5593999997e+01 4.5594000000e+01 5.1100000000e-04 0.0000e+00 1.0000e+00
       11 -1    0    0    0    0 -0.0000000000e+00 -0.0000000000e+00 -4.5593999997e+01 4.5594000000e+01 5.1100000000e-04 0.0000e+00 -1.0000e+00
       23  2    1    2    0    0 +0.0000000000e+00 +0.0000000000e+00 +0.0000000000e+00 9.1188000000e+01 9.1188000000e+01 5.5644e-14 0.0000e+00
  9900012  1    3    3    0    0 +1.9941002079e+01 +2.2846046318e+01 +9.8557175887e+00 5.9301944028e+01 5.0000000000e+01 8.4132e-04 1.0000e+00
       12  1    3    3    0    0 -1.9941002079e+01 -2.2846046318e+01 -9.8557175887e+00 3.1886055972e+01 0.0000000000e+00 0.0000e+00 -1.0000e+00
</event>
<event>
 5      7 +1.7896800e-02 9.11880000e+01 7.81616400e-03 1.18400000e-01
      -11 -1    0    0    0    0 +0.0000000000e+00 +0.0000000000e+00 +4.5593999997e+01 4.5594000000e+01 5.1100000000e-04 0.0000e+00 1.0000e+00
       11 -1    0    0    0    0 -0.0000000000e+00 -0.0000000000e+00 -4.5593999997e+01 4.5594000000e+01 5.1100000000e-04 0.0000e+00 -1.0000e+00
       23  2    1    2    0    0 +0.0000000000e+00 +0.0000000000e+00 +0.0000000000e+00 9.1188000000e+01 9.1188000000e+01 1.3418e-13 0.0000e+00
  9900012  1    3    3    0    0 +2.7983378587e+01 -1.3657647626e+01 +6.8643826853e+00 5.9301944028e+01 5.0000000000e+01 1.9284e-04 1.0000e+00
       12  1    3    3    0    0 -2.7983378587e+01 +1.3657647626e+01 -6.8643826853e+00 3.1886055972e+01 0.0000000000e+00 0.0000e+00 -1.0000e+00
</event>
<event>
 5      3 +1.7896800e-02 9.11880000e+01 7.81616400e-03 1.18400000e-01
      -11 -1    0    0    0    0 +0.0000000000e+00 +0.0000000000e+00 +4.5593999997e+01 4.5594000000e+01 5.1100000000e-04 0.0000e+00 -1.0000e+00
       11 -1    0    0    0    0 -0.0000000000e+00 -0.0000000000e+00 -4.5593999997e+01 4.5594000000e+01 5.1100000000e-04 0.0000e+00 1.0000e+00
       23  2    1    2    0    0 +0.0000000000e+00 +0.0000000000e+00 +0.0000000000e+00 9.1188000000e+01 9.1188000000e+01 3.0002e-15 0.0000e+00
  9900012  1    3    3    0    0 +1.8484817634e+01 +2.5977661119e+01 -4.3955123733e-01 5.9301944028e+01 5.0000000000e+01 9.3438e-04 1.0000e+00
       12  1    3    3    0    0 -1.8484817634e+01 -2.5977661119e+01 +4.3955123733e-01 3.1886055972e+01 0.0000000000e+00 0.0000e+00 -1.0000e+00
</event>
<event>
 5      3 +1.7896800e-02 9.11880000e+01 7.81616400e-03 1.18400000e-01
      -11 -1    0    0    0    0 +0.0000000000e+00 +0.0000000000e+00 +4.5593999997e+01 4.5594000000e+01 5.1100000000e-04 0.0000e+00 -1.0000e+00
       11 -1    0    0    0    0 -0.0000000000e+00 -0.0000000000e+00 -4.5593999997e+01 4.5594000000e+01 5.1100000000e-04 0.0000e+00 1.0000e+00
       23  2    1    2    0    0 +0.0000000000e+00 +0.0000000000e+00 +0.0000000000e+00 9.1188000000e+01 9.1188000000e+01 2.1175e-13 0.0000e+00
  9900012  1    3    3    0    0 +2.8867620686e+01 -2.9786844513e+00 -1.3210165794e+01 5.9301944028e+01 5.0000000000e+01 8.7729e-05 1.0000e+00
       12  1    3    3    0    0 -2.8867620686e+01 +2.9786844513e+00 +1.3210165794e+01 3.1886055972e+01 0.0000000000e+00 0.0000e+00 -1.0000e+00
</event>
<event>
 5      5 +1.7896800e-02 9.11880000e+01 7.81616400e-03 1.18400000e-01
      -11 -1    0    0    0    0 +0.0000000000e+00 +0.0000000000e+00 +4.5593999997e+01 4.5594000000e+01 5.1100000000e-04 0.0000e+00 1.0000e+00
       11 -1    0    0    0    0 -0.0000000000e+00 -0.0000000000e+00 -4.5593999997e+01 4.5594000000e+01 5.1100000000e-04 0.0000e+00 -1.0000e+00
       23  2    1    2    0    0 +0.0000000000e+00 +0.0000000000e+00 +0.0000000000e+00 9.1188000000e+01 9.1188000000e+01 7.6000e-14 0.0000e+00
  9900012  1    3    3    0    0 +3.0203932643e+01 +7.5385526208e+00 -6.9002349765e+00 5.9301944028e+01 5.0000000000e+01 3.3249e-03 1.0000e+00
       12  1    3    3    0    0 -3.0203932643e+01 -7.5385526208e+00 +6.9002349765e+00 3.1886055972e+01 0.0000000000e+00 0.0000e+00 -1.0000e+00
</event>
<event>
 5      1 +1.7896800e-02 9.11880000e+01 7.81616400e-03 1.18400000e-01
      -11 -1    0    0    0    0 +0.0000000000e+00 +0.0000000000e+00 +4.5593999997e+01 4.5594000000e+01 5.1100000000e-04 0.0000e+00 1.0000e+00
       11 -1    0    0    0    0 -0.0000000000e+00 -0.0000000000e+00 -4.5593999997e+01 4.5594000000e+01 5.1100000000e-04 0.0000e+00 -1.0000e+00
       23  2    1    2    0    0 +0.0000000000e+00 +0.0000000000e+00 +0.0000000000e+00 9.1188000000e+01 9.1188000000e+01 9.1668e-14 0.0000e+00
  9900012  1    3    3    0    0 +1.5307602867e+01 +1.8316969561e+01 +2.1139689829e+01 5.9301944028e+01 5.0000000000e+01 2.2560e-04 1.0000e+00
       12  1    3    3    0    0 -1.5307602867e+01 -1.8316969561e+01 -2.1139689829e+01 3.1886055972e+01 0.0000000000e+00 0.0000e+00 -1.0000e+00
</event>
<event>
 5      2 +1.7896800e-02 9.11880000e+01 7.81616400e-03 1.18400000e-01
      -11 -1    0    0    0    0 +0.0000000000e+00 +0.0000000000e+00 +4.5593999997e+01 4.5594000000e+01 5.1100000000e-04 0.0000e+00 -1.0000e+00
       11 -1    0    0    0    0 -0.0000000000e+00 -0.0000000000e+00 -4.5593999997e+01 4.5594000000e+01 5.1100000000e-04 0.0000e+00 1.0000e+00
       23  2    1    2    0    0 +0.0000000000e+00 +0.0000000000e+00 +0.0000000000e+00 9.1188000000e+01 9.1188000000e+01 2.3731e-13 0.0000e+00
  9900012  1    3    3    0    0 -1.4988032358e+01 +1.9669042101e+01 +2.0129784756e+01 5.9301944028e+01 5.0000000000e+01 7.1166e-04 -1.0000e+00
      -12  1    3    3    0    0 +1.4988032358e+01 -1.9669042101e+01 -2.0129784756e+01 3.1886055972e+01 0.0000000000e+00 0.0000e+00 1.0000e+00
</event>
<event>
 5      1 +1.7896800e-02 9.11880000e+01 7.81616400e-03 1.18400000e-01
      -11 -1    0    0    0    0 +0.0000000000e+00 +0.0000000000e+00 +4.5593999997e+01 4.5594000000e+01 5.1100000000e-04 0.0000e+00 -1.0000e+00
       11 -1    0    0    0    0 -0.0000000000e+00 -0.0000000000e+00 -4.5593999997e+01 4.5594000000e+01 5.1100000000e-04 0.0000e+00 1.0000e+00
       23  2    1    2    0    0 +0.0000000000e+00 +0.0000000000e+00 +0.0000000000e+00 9.1188000000e+01 9.1188000000e+01 1.2307e-13 0.0000e+00
  9900012  1    3    3    0    0 +8.4561566862e+00 -2.2529150498e+01 -2.0920118484e+01 5.9301944028e+01 5.0000000000e+01 3.6469e-04 1.0000e+00
       12  1    3    3    0    0 -8.4561566862e+00 +2.2529150498e+01 +2.0920118484e+01 3.1886055972e+01 0.0000000000e+00 0.0000e+00 -1.0000e+00
</event>
<event>
 5      1 +1.7896800e-02 9.11880000e+01 7.81616400e-03 1.18400000e-01
      -11 -1    0    0    0    0 +0.0000000000e+00 +0.0000000000e+00 +4.5593999997e+01 4.5594000000e+01 5.1100000000e-04 0.0000e+00 1.0000e+00
       11 -1    0    0    0    0 -0.0000000000e+00 -0.0000000000e+00 -4.5593999997e+01 4.5594000000e+01 5.1100000000e-04 0.0000e+00 -1.0000e+00
       23  2    1    2    0    0 +0.0000000000e+00 +0.0000000000e+00 +0.0000000000e+00 9.1188000000e+01 9.1188000000e+01 9.8640e-14 0.0000e+00
  9900012  1    3    3    0    0 +5.0426076547e+00 -2.1862113622e+01 +2.2657022344e+01 5.9301944028e+01 5.0000000000e+01 1.4613e-03 1.0000e+00
       12  1    3    3    0    0 -5.0426076547e+00 +2.1862113622e+01 -2.2657022344e+01 3.1886055972e+01 0.0000000000e+00 0.0000e+00 -1.0000e+00
</event>
<event>
 5      7 +1.7896800e-02 9.11880000e+01 7.81616400e-03 1.18400000e-01
      -11 -1    0    0    0    0 +0.0000000000e+00 +0.0000000000e+00 +4.5593999997e+01 4.5594000000e+01 5.1100000000e-04 0.0000e+00 -1.0000e+00
       11 -1    0    0    0    0 -0.0000000000e+00 -0.0000000000e+00 -4.5593999997e+01 4.5594000000e+01 5.1100000000e-04 0.0000e+00 1.0000e+00
       23  2    1    2    0    0 +0.0000000000e+00 +0.0000000000e+00 +0.0000000000e+00 9.1188000000e+01 9.1188000000e+01 1.1508e-14 0.0000e+00
  9900012  1    3    3    0    0 -1.7667310427e+01 +1.3813426867e+01 -2.2666626258e+01 5.9301944028e+01 5.0000000000e+01 1.3360e-03 1.0000e+00
       12  1    3    3    0    0 +1.7667310427e+01 -1.3813426867e+01 +2.2666626258e+01 3.1886055972e+01 0.0000000000e+00 0.0000e+00 -1.0000e+00
</event>
<event>
 5      7 +1.7896800e-02 9.11880000e+01 7.81616400e-03 1.18400000e-01
      -11 -1    0    0    0    0 +0.0000000000e+00 +0.0000000000e+00 +4.5593999997e+01 4.5594000000e+01 5.1100000000e-04 0.0000e+00 -1.0000e+00
       11 -1    0    0    0    0 -0.0000000000e+00 -0.0000000000e+00 -4.5593999997e+01 4.5594000000e+01 5.1100000000e-04 0.0000e+00 1.0000e+00
       23  2    1    2    0    0 +0.0000000000e+00 +0.0000000000e+00 +0.0000000000e+00 9.1188000000e+01 9.1188000000e+01 7.1178e-14 0.0000e+00
  9900012  1    3    3    0    0 +3.1852778458e+01 +2.8945562820e-01 -1.4273350789e+00 5.9301944028e+01 5.0000000000e+01 2.5369e-04 1.0000e+00
       12  1    3    3    0    0 -3.1852778458e+01 -2.8945562820e-01 +1.4273350789e+00 3.1886055972e+01 0.0000000000e+00 0.0000e+00 -1.0000e+00
</event>
<event>
 5      2 +1.7896800e-02 9.11880000e+01 7.81616400e-03 1.18400000e-01
      -11 -1    0    0    0    0 +0.0000000000e+00 +0.0000000000e+00 +4.5593999997e+01 4.5594000000e+01 5.1100000000e-04 0.0000e+00 1.0000e+00
       11 -1    0    0    0    0 -0.0000000000e+00 -0.0000000000e+00 -4.5593999997e+01 4.5594000000e+01 5.1100000000e-04 0.0000e+00 -1.0000e+00
       23  2    1    2    0    0 +0.0000000000e+00 +0.0000000000e+00 +0.0000000000e+00 9.1188000000e+01 9.1188000000e+01 1.0110e-13 0.0000e+00
  9900012  1    3    3    0    0 -1.8329787092e+01 -3.3825789241e+00 -2.5870787202e+01 5.9301944028e+01 5.0000000000e+01 3.2932e-03 -1.0000e+00
      -12  1    3    3    0    0 +1.8329787092e+01 +3.3825789241e+00 +2.5870787202e+01 3.1886055972e+01 0.0000000000e+00 0.0000e+00 1.0000e+00
</event>
<event>
 5      2 +1.7896800e-02 9.11880000e+01 7.81616400e-03 1.18400000e-01
      -11 -1    0    0    0    0 +0.0000000000e+00 +0.0000000000e+00 +4.5593999997e+01 4.5594000000e+01 5.1100000000e-04 0.0000e+00 1.0000e+00
       11 -1    0    0    0    0 -0.0000000000e+00 -0.0000000000e+00 -4.5593999997e+01 4.5594000000e+01 5.1100000000e-04 0.0000e+00 -1.0000e+00
       23  2    1    2    0    0 +0.0000000000e+00 +0.0000000000e+00 +0.0000000000e+00 9.1188000000e+01 9.1188000000e+01 2.5807e-14 0.0000e+00
  9900012  1    3    3    0    0 -2.0557399217e+00 +1.2133341025e+01 -2.9415583190e+01 5.9301944028e+01 5.0000000000e+01 2.7502e-04 -1.0000e+00
      -12  1    3    3    0    0 +2.0557399217e+00 -1.2133341025e+01 +2.9415583190e+01 3.1886055972e+01 0.0000000000e+00 0.0000e+00 1.0000e+00
</event>
<event>
 5      4 +1.7896800e-02 9.11880000e+01 7.81616400e-03 1.18400000e-01
      -11 -1    0    0    0    0 +0.0000000000e+00 +0.0000000000e+00 +4.5593999997e+01 4.5594000000e+01 5.1100000000e-04 0.0000e+00 -1.0000e+00
       11 -1    0    0    0    0 -0.0000000000e+00 -0.0000000000e+00 -4.5593999997e+01 4.5594000000e+01 5.1100000000e-04 0.0000e+00 1.0000e+00
       23  2    1    2    0    0 +0.0000000000e+00 +0.0000000000e+00 +0.0000000000e+00 9.1188000000e+01 9.1188000000e+01 9.2902e-14 0.0000e+00
  9900012  1    3    3    0    0 -9.1825703836e+00 +9.8587848390e+00 +2.8899919171e+01 5.9301944028e+01 5.0000000000e+01 7.9200e-04 -1.0000e+00
      -12  1    3    3    0    0 +9.1825703836e+00 -9.8587848390e+00 -2.8899919171e+01 3.1886055972e+01 0.0000000000e+00 0.0000e+00 1.0000e+00
</event>
<event>
 5      1 +1.7896800e-02 9.11880000e+01 7.81616400e-03 1.18400000e-01
      -11 -1    0    0    0    0 +0.0000000000e+00 +0.0000000000e+00 +4.5593999997e+01 4.5594000000e+01 5.1100000000e-04 0.0000e+00 -1.0000e+00
       11 -1    0    0    0    0 -0.0000000000e+00 -0.0000000000e+00 -4.5593999997e+01 4.5594000000e+01 5.1100000000e-04 0.0000e+00 1.0000e+00
       23  2    1    2    0    0 +0.0000000000e+00 +0.0000000000e+00 +0.0000000000e+00 9.1188000000e+01 9.1188000000e+01 4.4055e-14 0.0000e+00
  9900012  1    3    3    0    0 -5.3569169227e+00 +2.8167976039e+00 -3.1306383659e+01 5.9301944028e+01 5.0000000000e+01 1.6831e-03 1.0000e+00
       12  1    3    3    0    0 +5.3569169227e+00 -2.8167976039e+00 +3.1306383659e+01 3.1886055972e+01 0.0000000000e+00 0.0000e+00 -1.0000e+00
</event>
<event>
 5      3 +1.7896800e-02 9.11880000e+01 7.81616400e-03 1.18400000e-01
      -11 -1    0    0    0    0 +0.0000000000e+00 +0.0000000000e+00 +4.5593999997e+01 4.5594000000e+01 5.1100000000e-04 0.0000e+00 1.0000e+00
       11 -1    0    0    0    0 -0.0000000000e+00 -0.0000000000e+00 -4.5593999997e+01 4.5594000000e+01 5.1100000000e-04 0.0000e+00 -1.0000e+00
       23  2    1    2    0    0 +0.0000000000e+00 +0.0000000000e+00 +0.0000000000e+00 9.1188000000e+01 9.1188000000e+01 6.4068e-15 0.0000e+00
  9900012  1    3    3    0    0 -1.2214812629e+00 -1.0746269851e+01 +2.9995770256e+01 5.9301944028e+01 5.0000000000e+01 2.3377e-04 1.0000e+00
       12  1    3    3    0    0 +1.2214812629e+00 +1.0746269851e+01 -2.9995770256e+01 3.1886055972e+01 0.0000000000e+00 0.0000e+00 -1.0000e+00
</event>
<event>
 5      5 +1.7896800e-02 9.11880000e+01 7.81616400e-03 1.18400000e-01
      -11 -1    0    0    0    0 +0.0000000000e+00 +0.0000000000e+00 +4.5593999997e+01 4.5594000000e+01 5.1100000000e-04 0.0000e+00 -1.0000e+00
       11 -1    0    0    0    0 -0.0000000000e+00 -0.0000000000e+00 -4.5593999997e+01 4.5594000000e+01 5.1100000000e-04 0.0000e+00 1.0000e+00
       23  2    1    2    0    0 +0.0000000000e+00 +0.0000000000e+00 +0.0000000000e+00 9.1188000000e+01 9.1188000000e+01 3.9926e-15 0.0000e+00
  9900012  1    3    3    0    0 -3.0388936732e+01 -9.6485824969e+00 -3.7141027490e-01 5.9301944028e+01 5.0000000000e+01 4.1620e-04 1.0000e+00
       12  1    3    3    0    0 +3.0388936732e+01 +9.6485824969e+00 +3.7141027490e-01 3.1886055972e+01 0.0000000000e+00 0.0000e+00 -1.0000e+00
</event>
<event>
 5      7 +1.7896800e-02 9.11880000e+01 7.81616400e-03 1.18400000e-01
      -11 -1    0    0    0    0 +0.0000000000e+00 +0.0000000000e+00 +4.5593999997e+01 4.5594000000e+01 5.1100000000e-04 0.0000e+00 1.0000e+00
       11 -1    0    0    0    0 -0.0000000000e+00 -0.0000000000e+00 -4.5593999997e+01 4.5594000000e+01 5.1100000000e-04 0.0000e+00 -1.0000e+00
       23  2    1    2    0    0 +0.0000000000e+00 +0.0000000000e+00 +0.0000000000e+00 9.1188000000e+01 9.1188000000e+01 9.9533e-14 0.0000e+00
  9900012  1    3    3    0    0 +2.2301018186e+01 -3.4699571166e+00 +2.2524310221e+01 5.9301944028e+01 5.0000000000e+01 1.7675e-03 1.0000e+00
       12  1    3    3    0    0 -2.2301018186e+01 +3.4699571166e+00 -2.2524310221e+01 3.1886055972e+01 0.0000000000e+00 0.0000e+00 -1.0000e+00
</event>
<event>
 5      7 +1.7896800e-02 9.11880000e+01 7.81616400e-03 1.18400000e-01
      -11 -1    0    0    0    0 +0.0000000000e+00 +0.0000000000e+00 +4.5593999997e+01 4.5594000000e+01 5.1100000000e-04 0.0000e+00 1.0000e+00
       11 -1    0    0    0    0 -0.0000000000e+00 -0.0000000000e+00 -4.5593999997e+01 4.5594000000e+01 5.1100000000e-04 0.0000e+00 -1.0000e+00
       23  2    1    2    0    0 +0.0000000000e+00 +0.0000000000e+00 +0.0000000000e+00 9.1188000000e+01 9.1188000000e+01 1.6932e-13 0.0000e+00
  9900012  1    3    3    0    0 +1.5478181897e+01 +1.5914958502e+01 +2.2888000055e+01 5.9301944028e+01 5.0000000000e+01 8.6688e-04 1.0000e+00
       12  1    3    3    0    0 -1.5478181897e+01 -1.5914958502e+01 -2.2888000055e+01 3.1886055972e+01 0.0000000000e+00 0.0000e+00 -1.0000e+00
</event>
<event>
 5      4 +1.7896800e-02 9.11880000e+01 7.81616400e-03 1.18400000e-01
      -11 -1    0    0    0    0 +0.0000000000e+00 +0.0000000000e+00 +4.5593999997e+01 4.5594000000e+01 5.1100000000e-04 0.0000e+00 1.0000e+00
       11 -1    0    0    0    0 -0.0000000000e+00 -0.0000000000e+00 -4.5593999997e+01 4.5594000000e+01 5.1100000000e-04 0.0000e+00 -1.0000e+00
       23  2    1    2    0    0 +0.0000000000e+00 +0.0000000000e+00 +0.0000000000e+00 9.1188000000e+01 9.1188000000e+01 1.5573e-14 0.0000e+00
  9900012  1    3    3    0    0 -1.6461745143e+01 +1.2725302449e+01 -2.4161916106e+01 5.9301944028e+01 5.0000000000e+01 2.2516e-03 -1.0000e+00
      -12  1    3    3    0    0 +1.6461745143e+01 -1.2725302449e+01 +2.4161916106e+01 3.1886055972e+01 0.0000000000e+00 0.0000e+00 1.0000e+00
</event>
<event>
 5      5 +1.7896800e-02 9.11880000e+01 7.81616400e-03 1.18400000e-01
      -11 -1    0    0    0    0 +0.0000000000e+00 +0.0000000000e+00 +4.5593999997e+01 4.5594000000e+01 5.1100000000e-04 0.0000e+00 1.0000e+00
       11 -1    0    0    0    0 -0.0000000000e+00 -0.0000000000e+00 -4.5593999997e+01 4.5594000000e+01 5.1100000000e-04 0.0000e+00 -1.0000e+00
       23  2    1    2    0    0 +0.0000000000e+00 +0.0000000000e+00 +0.0000000000e+00 9.1188000000e+01 9.1188000000e+01 6.7160e-14 0.0000e+00
  9900012  1    3    3    0    0 -3.0213785228e+01 +8.3628488588e+00 +5.8232728425e+00 5.9301944028e+01 5.0000000000e+01 3.6572e-04 1.0000e+00
       12  1    3    3    0    0 +3.0213785228e+01 -8.3628488588e+00 -5.8232728425e+00 3.1886055972e+01 0.0000000000e+00 0.0000e+00 -1.0000e+00
</event>
<event>
 5      6 +1.7896800e-02 9.11880000e+01 7.81616400e-03 1.18400000e-01
      -11 -1    0    0    0    0 +0.0000000000e+00 +0.0000000000e+00 +4.5593999997e+01 4.5594000000e+01 5.1100000000e-04 0.0000e+00 -1.0000e+00
       11 -1    0    0    0    0 -0.0000000000e+00 -0.0000000000e+00 -4.5593999997e+01 4.5594000000e+01 5.1100000000e-04 0.0000e+00 1.0000e+00
       23  2    1    2    0    0 +0.0000000000e+00 +0.0000000000e+00 +0.0000000000e+00 9.1188000000e+01 9.1188000000e+01 9.0637e-14 0.0000e+00
  9900012  1    3    3    0    0 +3.0759123370e+01 -1.3105286397e+00 -8.2993620047e+00 5.9301944028e+01 5.0000000000e+01 2.4524e-03 -1.0000e+00
      -12  1    3    3    0    0 -3.0759123370e+01 +1.3105286397e+00 +8.2993620047e+00 3.1886055972e+01 0.0000000000e+00 0.0000e+00 1.0000e+00
</event>
<event>
 5      3 +1.7896800e-02 9.11880000e+01 7.81616400e-03 1.18400000e-01
      -11 -1    0    0    0    0 +0.0000000000e+00 +0.0000000000e+00 +4.5593999997e+01 4.5594000000e+01 5.1100000000e-04 0.0000e+00 1.0000e+00
       11 -1    0    0    0    0 -0.0000000000e+00 -0.0000000000e+00 -4.5593999997e+01 4.5594000000e+01 5.1100000000e-04 0.0000e+00 -1.0000e+00
       23  2    1    2    0    0 +0.0000000000e+00 +0.0000000000e+00 +0.0000000000e+00 9.1188000000e+01 9.1188000000e+01 1.3943e-13 0.0000e+00
  9900012  1    3    3    0    0 -1.2436962047e+01 -2.5735288610e+01 +1.4132850410e+01 5.9301944028e+01 5.0000000000e+01 1.9263e-03 -1.0000e+00
       12  1    3    3    0    0 +1.2436962047e+01 +2.5735288610e+01 -1.4132850410e+01 3.1886055972e+01 0.0000000000e+00 0.0000e+00 -1.0000e+00
</event>
<event>
 5      8 +1.7896800e-02 9.11880000e+01 7.81616400e-03 1.18400000e-01
      -11 -1    0    0    0    0 +0.0000000000e+00 +0.0000000000e+00 +4.5593999997e+01 4.5594000000e+01 5.1100000000e-04 0.0000e+00 -1.0000e+00
       11 -1    0    0    0    0 -0.0000000000e+00 -0.0000000000e+00 -4.5593999997e+01 4.5594000000e+01 5.1100000000e-04 0.0000e+00 1.0000e+00
       23  2    1    2    0    0 +0.0000000000e+00 +0.0000000000e+00 +0.0000000000e+00 9.1188000000e+01 9.1188000000e+01 1.2850e-14 0.0000e+00
  9900012  1    3    3    0    0 +3.1481551227e+01 -3.7540316225e+00 -3.3970199315e+00 5.9301944028e+01 5.0000000000e+01 2.9654e-04 -1.0000e+00
      -12  1    3    3    0    0 -3.1481551227e+01 +3.7540316225e+00 +3.3970199315e+00 3.1886055972e+01 0.0000000000e+00 0.0000e+00 1.0000e+00
</event>
<event>
 5      3 +1.7896800e-02 9.11880000e+01 7.81616400e-03 1.18400000e-01
      -11 -1    0    0    0    0 +0.0000000000e+00 +0.0000000000e+00 +4.5593999997e+01 4.5594000000e+01 5.1100000000e-04 0.0000e+00 1.0000e+00
       11 -1    0    0    0    0 -0.0000000000e+00 -0.0000000000e+00 -4.5593999997e+01 4.5594000000e+01 5.1100000000e-04 0.0000e+00 -1.0000e+00
       23  2    1    2    0    0 +0.0000000000e+00 +0.0000000000e+00 +0.0000000000e+00 9.1188000000e+01 9.1188000000e+01 4.7525e-15 0.0000e+00
  9900012  1    3    3    0    0 +2.7489254179e+01 -3.0354846643e+00 +1.5869697634e+01 5.9301944028e+01 5.0000000000e+01 4.3857e-04 1.0000e+00
       12  1    3    3    0    0 -2.7489254179e+01 +3.0354846643e+00 -1.5869697634e+01 3.1886055972e+01 0.0000000000e+00 0.0000e+00 -1.0000e+00
</event>
<event>
 5      1 +1.7896800e-02 9.11880000e+01 7.81616400e-03 1.18400000e-01
      -11 -1    0    0    0    0 +0.0000000000e+00 +0.0000000000e+00 +4.5593999997e+01 4.5594000000e+01 5.1100000000e-04 0.0000e+00 1.0000e+00
       11 -1    0    0    0    0 -0.0000000000e+00 -0.0000000000e+00 -4.5593999997e+01 4.5594000000e+01 5.1100000000e-04 0.0000e+00 -1.0000e+00
       23  2    1    2    0    0 +0.0000000000e+00 +0.0000000000e+00 +0.0000000000e+00 9.1188000000e+01 9.1188000000e+01 1.0305e-15 0.0000e+00
  9900012  1    3    3    0    0 -3.1078370132e+01 +1.9159723853e+00 -6.8690993043e+00 5.9301944028e+01 5.0000000000e+01 1.2613e-03 1.0000e+00
       12  1    3    3    0    0 +3.1078370132e+01 -1.9159723853e+00 +6.8690993043e+00 3.1886055972e+01 0.0000000000e+00 0.0000e+00 -1.0000e+00
</event>
<event>
 5      7 +1.7896800e-02 9.11880000e+01 7.81616400e-03 1.18400000e-01
      -11 -1    0    0    0    0 +0.0000000000e+00 +0.0000000000e+00 +4.5593999997e+01 4.5594000000e+01 5.1100000000e-04 0.0000e+00 -1.0000e+00
       11 -1    0    0    0    0 -0.0000000000e+00 -0.0000000000e+00 -4.5593999997e+01 4.5594000000e+01 5.1100000000e-04 0.0000e+00 1.0000e+00
       23  2    1    2    0    0 +0.0000000000e+00 +0.0000000000e+00 +0.0000000000e+00 9.1188000000e+01 9.1188000000e+01 7.3712e-14 0.0000e+00
  9900012  1    3    3    0    0 -9.5975853550e-01 -8.4829859653e-01 -3.1860317301e+01 5.9301944028e+01 5.0000000000e+01 6.9630e-04 1.0000e+00
       12  1    3    3    0    0 +9.5975853550e-01 +8.4829859653e-01 +3.1860317301e+01 3.1886055972e+01 0.0000000000e+00 0.0000e+00 -1.0000e+00
</event>
<event>
 5      4 +1.7896800e-02 9.11880000e+01 7.81616400e-03 1.18400000e-01
      -11 -1    0    0    0    0 +0.0000000000e+00 +0.0000000000e+00 +4.5593999997e+01 4.5594000000e+01 5.1100000000e-04 0.0000e+00 1.0000e+00
       11 -1    0    0    0    0 -0.0000000000e+00 -0.0000000000e+00 -4.5593999997e+01 4.5594000000e+01 5.1100000000e-04 0.0000e+00 -1.0000e+00
       23  2    1    2    0    0 +0.0000000000e+00 +0.0000000000e+00 +0.0000000000e+00 9.1188000000e+01 9.1188000000e+01 1.1329e-14 0.0000e+00
  9900012  1    3    3    0    0 +2.6046016087e+01 -1.3446729975e+01 -1.2550341208e+01 5.9301944028e+01 5.0000000000e+01 1.0747e-03 -1.0000e+00
      -12  1    3    3    0    0 -2.6046016087e+01 +1.3446729975e+01 +1.2550341208e+01 3.1886055972e+01 0.0000000000e+00 0.0000e+00 1.0000e+00
</event>
<event>
 5      6 +1.7896800e-02 9.11880000e+01 7.81616400e-03 1.18400000e-01
      -11 -1    0    0    0    0 +0.0000000000e+00 +0.0000000000e+00 +4.5593999997e+01 4.5594000000e+01 5.1100000000e-04 0.0000e+00 1.0000e+00
       11 -1    0    0    0    0 -0.0000000000e+00 -0.0000000000e+00 -4.5593999997e+01 4.5594000000e+01 5.1100000000e-04 0.0000e+00 -1.0000e+00
       23  2    1    2    0    0 +0.0000000000e+00 +0.0000000000e+00 +0.0000000000e+00 9.1188000000e+01 9.1188000000e+01 6.9937e-14 0.0000e+00
  9900012  1    3    3    0    0 -1.4117667529e+01 -1.5461374711e+01 -2.4049073185e+01 5.9301944028e+01 5.0000000000e+01 3.4567e-04 -1.0000e+00
      -12  1    3    3    0    0 +1.4117667529e+01 +1.5461374711e+01 +2.4049073185e+01 3.1886055972e+01 0.0000000000e+00 0.0000e+00 1.0000e+00
</event>
<event>
 5      3 +1.7896800e-02 9.11880000e+01 7.81616400e-03 1.18400000e-01
      -11 -1    0    0    0    0 +0.0000000000e+00 +0.0000000000e+00 +4.5593999997e+01 4.5594000000e+01 5.1100000000e-04 0.0000e+00 -1.0000e+00
       11 -1    0    0    0    0 -0.0000000000e+00 -0.0000000000e+00 -4.5593999997e+01 4.5594000000e+01 5.1100000000e-04 0.0000e+00 1.0000e+00
       23  2    1    2    0    0 +0.0000000000e+00 +0.0000000000e+00 +0.0000000000e+00 9.1188000000e+01 9.1188000000e+01 1.4641e-13 0.0000e+00
  9900012  1    3    3    0    0 -3.1225535272e+01 -3.3840417263e+00 -5.4986156452e+00 5.9301944028e+01 5.0000000000e+01 1.8374e-04 -1.0000e+00
       12  1    3    3    0    0 +3.1225535272e+01 +3.3840417263e+00 +5.4986156452e+00 3.1886055972e+01 0.0000000000e+00 0.0000e+00 -1.0000e+00
</event>
<event>
 5      1 +1.7896800e-02 9.11880000e+01 7.81616400e-03 1.18400000e-01
      -11 -1    0    0    0    0 +0.0000000000e+00 +0.0000000000e+00 +4.5593999997e+01 4.5594000000e+01 5.1100000000e-04 0.0000e+00 -1.0000e+00
       11 -1    0    0    0    0 -0.0000000000e+00 -0.0000000000e+00 -4.5593999997e+01 4.5594000000e+01 5.1100000000e-04 0.0000e+00 1.0000e+00
       23  2    1    2    0    0 +0.0000000000e+00 +0.0000000000e+00 +0.0000000000e+00 9.1188000000e+01 9.1188000000e+01 3.5706e-14 0.0000e+00
  9900012  1    3    3    0    0 -8.1841130002e+00 -2.8199739976e+01 -1.2430427393e+01 5.9301944028e+01 5.0000000000e+01 1.6269e-03 1.0000e+00
       12  1    3    3    0    0 +8.1841130002e+00 +2.8199739976e+01 +1.2430427393e+01 3.1886055972e+01 0.0000000000e+00 0.0000e+00 -1.0000e+00
</event>
<event>
 5      5 +1.7896800e-02 9.11880000e+01 7.81616400e-03 1.18400000e-01
      -11 -1    0    0    0    0 +0.0000000000e+00 +0.0000000000e+00 +4.5593999997e+01 4.5594000000e+01 5.1100000000e-04 0.0000e+00 1.0000e+00
       11 -1    0    0    0    0 -0.0000000000e+00 -0.0000000000e+00 -4.5593999997e+01 4.5594000000e+01 5.1100000000e-04 0.0000e+00 -1.0000e+00
       23  2    1    2    0    0 +0.0000000000e+00 +0.0000000000e+00 +0.0000000000e+00 9.1188000000e+01 9.1188000000e+01 1.1312e-13 0.0000e+00
  9900012  1    3    3    0    0 -1.8708229620e+01 +1.7431827706e+01 +1.9048729426e+01 5.9301944028e+01 5.0000000000e+01 1.5048e-03 -1.0000e+00
       12  1    3    3    0    0 +1.8708229620e+01 -1.7431827706e+01 -1.9048729426e+01 3.1886055972e+01 0.0000000000e+00 0.0000e+00 -1.0000e+00
</event>
<event>
 5      1 +1.7896800e-02 9.11880000e+01 7.81616400e-03 1.18400000e-01
      -11 -1    0    0    0    0 +0.0000000000e+00 +0.0000000000e+00 +4.5593999997e+01 4.5594000000e+01 5.1100000000e-04 0.0000e+00 1.0000e+00
       11 -1    0    0    0    0 -0.0000000000e+00 -0.0000000000e+00 -4.5593999997e+01 4.5594000000e+01 5.1100000000e-04 0.0000e+00 -1.0000e+00
       23  2    1    2    0    0 +0.0000000000e+00 +0.0000000000e+00 +0.0000000000e+00 9.1188000000e+01 9.1188000000e+01 1.3518e-13 0.0000e+00
  9900012  1    3    3    0    0 +2.8902317603e+01 -8.4465943794e+00 -1.0489597038e+01 5.9301944028e+01 5.0000000000e+01 1.5438e-03 -1.0000e+00
       12  1    3    3    0    0 -2.8902317603e+01 +8.4465943794e+00 +1.0489597038e+01 3.1886055972e+01 0.0000000000e+00 0.0000e+00 -1.0000e+00
</event>
<event>
 5      2 +1.7896800e-02 9.11880000e+01 7.81616400e-03 1.18400000e-01
      -11 -1    0    0    0    0 +0.0000000000e+00 +0.0000000000e+00 +4.5593999997e+01 4.5594000000e+01 5.1100000000e-04 0.0000e+00 -1.0000e+00
       11 -1    0    0    0    0 -0.0000000000e+00 -0.0000000000e+00 -4.5593999997e+01 4.5594000000e+01 5.1100000000e-04 0.0000e+00 1.0000e+00
       23  2    1    2    0    0 +0.0000000000e+00 +0.0000000000e+00 +0.0000000000e+00 9.1188000000e+01 9.1188000000e+01 4.2144e-14 0.0000e+00
  9900012  1    3    3    0    0 +2.9955514881e+01 -6.6372288433e+00 +8.6795672106e+00 5.9301944028e+01 5.0000000000e+01 3.8019e-05 -1.0000e+00
      -12  1    3    3    0    0 -2.9955514881e+01 +6.6372288433e+00 -8.6795672106e+00 3.1886055972e+01 0.0000000000e+00 0.0000e+00 1.0000e+00
</event>
<event>
 5      2 +1.7896800e-02 9.11880000e+01 7.81616400e-03 1.18400000e-01
      -11 -1    0    0    0    0 +0.0000000000e+00 +0.0000000000e+00 +4.5593999997e+01 4.5594000000e+01 5.1100000000e-04 0.0000e+00 1.0000e+00
       11 -1    0    0    0    0 -0.0000000000e+00 -0.0000000000e+00 -4.5593999997e+01 4.5594000000e+01 5.1100000000e-04 0.0000e+00 -1.0000e+00
       23  2    1    2    0    0 +0.0000000000e+00 +0.0000000000e+00 +0.0000000000e+00 9.1188000000e+01 9.1188000000e+01 7.6855e-14 0.0000e+00
  9900012  1    3    3    0    0 -4.2786344782e+00 +2.4787783743e+01 +1.9595398174e+01 5.9301944028e+01 5.0000000000e+01 7.2117e-04 -1.0000e+00
      -12  1    3    3    0    0 +4.2786344782e+00 -2.4787783743e+01 -1.9595398174e+01 3.1886055972e+01 0.0000000000e+00 0.0000e+00 1.0000e+00
</event>
<event>
 5      6 +1.7896800e-02 9.11880000e+01 7.81616400e-03 1.18400000e-01
      -11 -1    0    0    0    0 +0.0000000000e+00 +0.0000000000e+00 +4.5593999997e+01 4.5594000000e+01 5.1100000000e-04 0.0000e+00 1.0000e+00
       11 -1    0    0    0    0 -0.0000000000e+00 -0.0000000000e+00 -4.5593999997e+01 4.5594000000e+01 5.1100000000e-04 0.0000e+00 -1.0000e+00
       23  2    1    2    0    0 +0.0000000000e+00 +0.0000000000e+00 +0.0000000000e+00 9.1188000000e+01 9.1188000000e+01 3.8953e-17 0.0000e+00
  9900012  1    3    3    0    0 -6.1650139744e+00 -1.2937212959e+01 -2.8484060262e+01 5.9301944028e+01 5.0000000000e+01 1.8324e-04 -1.0000e+00
      -12  1    3    3    0    0 +6.1650139744e+00 +1.2937212959e+01 +2.8484060262e+01 3.1886055972e+01 0.0000000000e+00 0.0000e+00 1.0000e+00
</event>
<event>
 5      2 +1.7896800e-02 9.11880000e+01 7.81616400e-03 1.18400000e-01
      -11 -1    0    0    0    0 +0.0000000000e+00 +0.0000000000e+00 +4.5593999997e+01 4.5594000000e+01 5.1100000000e-04 0.0000e+00 1.0000e+00
       11 -1    0    0    0    0 -0.0000000000e+00 -0.0000000000e+00 -4.5593999997e+01 4.5594000000e+01 5.1100000000e-04 0.0000e+00 -1.0000e+00
       23  2    1    2    0    0 +0.0000000000e+00 +0.0000000000e+00 +0.0000000000e+00 9.1188000000e+01 9.1188000000e+01 5.8511e-14 0.0000e+00
  9900012  1    3    3    0    0 +1.4229601992e+01 +2.5479766190e+01 -1.2846030808e+01 5.9301944028e+01 5.0000000000e+01 2.1666e-04 -1.0000e+00
      -12  1    3    3    0    0 -1.4229601992e+01 -2.5479766190e+01 +1.2846030808e+01 3.1886055972e+01 0.0000000000e+00 0.0000e+00 1.0000e+00
</event>
<event>
 5      8 +1.7896800e-02 9.11880000e+01 7.81616400e-03 1.18400000e-01
      -11 -1    0    0    0    0 +0.0000000000e+00 +0.0000000000e+00 +4.5593999997e+01 4.5594000000e+01 5.1100000000e-04 0.0000e+00 1.0000e+00
       11 -1    0    0    0    0 -0.0000000000e+00 -0.0000000000e+00 -4.5593999997e+01 4.5594000000e+01 5.1100000000e-04 0.0000e+00 -1.0000e+00
       23  2    1    2    0    0 +0.0000000000e+00 +0.0000000000e+00 +0.0000000000e+00 9.1188000000e+01 9.1188000000e+01 5.5198e-14 0.0000e+00
  9900012  1    3    3    0    0 +3.0097489418e+01 -2.5993089788e+00 -1.0203199940e+01 5.9301944028e+01 5.0000000000e+01 1.5658e-03 1.0000e+00
      -12  1    3    3    0    0 -3.0097489418e+01 +2.5993089788e+00 +1.0203199940e+01 3.1886055972e+01 0.0000000000e+00 0.0000e+00 1.0000e+00
</event>
<event>
 5      6 +1.7896800e-02 9.11880000e+01 7.81616400e-03 1.18400000e-01
      -11 -1    0    0    0    0 +0.0000000000e+00 +0.0000000000e+00 +4.5593999997e+01 4.5594000000e+01 5.1100000000e-04 0.0000e+00 -1.0000e+00
       11 -1    0    0    0    0 -0.0000000000e+00 -0.0000000000e+00 -4.5593999997e+01 4.5594000000e+01 5.1100000000e-04 0.0000e+00 1.0000e+00
       23  2    1    2    0    0 +0.0000000000e+00 +0.0000000000e+00 +0.0000000000e+00 9.1188000000e+01 9.1188000000e+01 1.5479e-13 0.0000e+00
  9900012  1    3    3    0    0 +1.1146521304e+01 -2.9754110784e+00 -2.9725789429e+01 5.9301944028e+01 5.0000000000e+01 1.5033e-04 1.0000e+00
      -12  1    3    3    0    0 -1.1146521304e+01 +2.9754110784e+00 +2.9725789429e+01 3.1886055972e+01 0.0000000000e+00 0.0000e+00 1.0000e+00
</event>
<event>
 5      7 +1.7896800e-02 9.11880000e+01 7.81616400e-03 1.18400000e-01
      -11 -1    0    0    0    0 +0.0000000000e+00 +0.0000000000e+00 +4.5593999997e+01 4.5594000000e+01 5.1100000000e-04 0.0000e+00 -1.0000e+00
       11 -1    0    0    0    0 -0.0000000000e+00 -0.0000000000e+00 -4.5593999997e+01 4.5594000000e+01 5.1100000000e-04 0.0000e+00 1.0000e+00
       23  2    1    2    0    0 +0.0000000000e+00 +0.0000000000e+00 +0.0000000000e+00 9.1188000000e+01 9.1188000000e+01 8.2455e-15 0.0000e+00
  9900012  1    3    3    0    0 -2.9532780323e+01 +1.5129986617e+00 -1.1926704781e+01 5.9301944028e+01 5.0000000000e+01 1.4005e-03 -1.0000e+00
       12  1    3    3    0    0 +2.9532780323e+01 -1.5129986617e+00 +1.1926704781e+01 3.1886055972e+01 0.0000000000e+00 0.0000e+00 -1.0000e+00
</event>
<event>
 5      8 +1.7896800e-02 9.11880000e+01 7.81616400e-03 1.18400000e-01
      -11 -1    0    0    0    0 +0.0000000000e+00 +0.0000000000e+00 +4.5593999997e+01 4.5594000000e+01 5.1100000000e-04 0.0000e+00 1.0000e+00
       11 -1    0    0    0    0 -0.0000000000e+00 -0.0000000000e+00 -4.5593999997e+01 4.5594000000e+01 5.1100000000e-04 0.0000e+00 -1.0000e+00
       23  2    1    2    0    0 +0.0000000000e+00 +0.0000000000e+00 +0.0000000000e+00 9.1188000000e+01 9.1188000000e+01 4.5754e-15 0.0000e+00
  9900012  1    3    3    0    0 -4.2908383011e-01 +2.6402163728e+01 -1.7873505617e+01 5.9301944028e+01 5.0000000000e+01 1.0751e-04 -1.0000e+00
      -12  1    3    3    0    0 +4.2908383011e-01 -2.6402163728e+01 +1.7873505617e+01 3.1886055972e+01 0.0000000000e+00 0.0000e+00 1.0000e+00
</event>
<event>
 5      3 +1.7896800e-02 9.11880000e+01 7.81616400e-03 1.18400000e-01
      -11 -1    0    0    0    0 +0.0000000000e+00 +0.0000000000e+00 +4.5593999997e+01 4.5594000000e+01 5.1100000000e-04 0.0000e+00 1.0000e+00
       11 -1    0    0    0    0 -0.0000000000e+00 -0.0000000000e+00 -4.5593999997e+01 4.5594000000e+01 5.1100000000e-04 0.0000e+00 -1.0000e+00
       23  2    1    2    0    0 +0.0000000000e+00 +0.0000000000e+00 +0.0000000000e+00 9.1188000000e+01 9.1188000000e+01 1.1055e-13 0.0000e+00
  9900012  1    3    3    0    0 +2.2944159423e+01 +1.0089813330e+01 +1.9709941167e+01 5.9301944028e+01 5.0000000000e+01 2.3670e-04 1.0000e+00
       12  1    3    3    0    0 -2.2944159423e+01 -1.0089813330e+01 -1.9709941167e+01 3.1886055972e+01 0.0000000000e+00 0.0000e+00 -1.0000e+00
</event>
<event>
 5      5 +1.7896800e-02 9.11880000e+01 7.81616400e-03 1.18400000e-01
      -11 -1    0    0    0    0 +0.0000000000e+00 +0.0000000000e+00 +4.5593999997e+01 4.5594000000e+01 5.1100000000e-04 0.0000e+00 -1.0000e+00
       11 -1    0    0    0    0 -0.0000000000e+00 -0.0000000000e+00 -4.5593999997e+01 4.5594000000e+01 5.1100000000e-04 0.0000e+00 1.0000e+00
       23  2    1    2    0    0 +0.0000000000e+00 +0.0000000000e+00 +0.0000000000e+00 9.1188000000e+01 9.1188000000e+01 2.1710e-15 0.0000e+00
  9900012  1    3    3    0    0 +2.2607013232e+01 +9.8381116067e+00 -2.0220165139e+01 5.9301944028e+01 5.0000000000e+01 3.8804e-04 1.0000e+00
       12  1    3    3    0    0 -2.2607013232e+01 -9.8381116067e+00 +2.0220165139e+01 3.1886055972e+01 0.0000000000e+00 0.0000e+00 -1.0000e+00
</event>
<event>
 5      5 +1.7896800e-02 9.11880000e+01 7.81616400e-03 1.18400000e-01
      -11 -1    0    0    0    0 +0.0000000000e+00 +0.0000000000e+00 +4.5593999997e+01 4.5594000000e+01 5.1100000000e-04 0.0000e+00 1.0000e+00
       11 -1    0    0    0    0 -0.0000000000e+00 -0.0000000000e+00 -4.5593999997e+01 4.5594000000e+01 5.1100000000e-04 0.0000e+00 -1.0000e+00
       23  2    1    2    0    0 +0.0000000000e+00 +0.0000000000e+00 +0.0000000000e+00 9.1188000000e+01 9.1188000000e+01 9.0413e-14 0.0000e+00
  9900012  1    3    3    0    0 +4.8756358013e+00 -2.1578690368e+01 +2.2963206723e+01 5.9301944028e+01 5.0000000000e+01 9.6132e-04 1.0000e+00
       12  1    3    3    0    0 -4.8756358013e+00 +2.1578690368e+01 -2.2963206723e+01 3.1886055972e+01 0.0000000000e+00 0.0000e+00 -1.0000e+00
</event>
<event>
 5      5 +1.7896800e-02 9.11880000e+01 7.81616400e-03 1.18400000e-01
      -11 -1    0    0    0    0 +0.0000000000e+00 +0.0000000000e+00 +4.5593999997e+01 4.5594000000e+01 5.1100000000e-04 0.0000e+00 1.0000e+00
       11 -1    0    0    0    0 -0.0000000000e+00 -0.0000000000e+00 -4.5593999997e+01 4.5594000000e+01 5.1100000000e-04 0.0000e+00 -1.0000e+00
       23  2    1    2    0    0 +0.0000000000e+00 +0.0000000000e+00 +0.0000000000e+00 9.1188000000e+01 9.1188000000e+01 2.7408e-13 0.0000e+00
  9900012  1    3    3    0    0 +1.8678407631e+01 -1.0657507084e+01 +2.3542625100e+01 5.9301944028e+01 5.0000000000e+01 3.1832e-04 1.0000e+00
       12  1    3    3    0    0 -1.8678407631e+01 +1.0657507084e+01 -2.3542625100e+01 3.1886055972e+01 0.0000000000e+00 0.0000e+00 -1.0000e+00
</event>
<event>
 5      7 +1.7896800e-02 9.11880000e+01 7.81616400e-03 1.18400000e-01
      -11 -1    0    0    0    0 +0.0000000000e+00 +0.0000000000e+00 +4.5593999997e+01 4.5594000000e+01 5.1100000000e-04 0.0000e+00 1.0000e+00
       11 -1    0    0    0    0 -0.0000000000e+00 -0.0000000000e+00 -4.5593999997e+01 4.5594000000e+01 5.1100000000e-04 0.0000e+00 -1.0000e+00
       23  2    1    2    0    0 +0.0000000000e+00 +0.0000000000e+00 +0.0000000000e+00 9.1188000000e+01 9.1188000000e+01 2.7375e-15 0.0000e+00
  9900012  1    3    3    0    0 -2.5347899178e+01 +1.7267576650e+01 -8.7198262232e+00 5.9301944028e+01 5.0000000000e+01 2.0196e-04 1.0000e+00
       12  1    3    3    0    0 +2.5347899178e+01 -1.7267576650e+01 +8.7198262232e+00 3.1886055972e+01 0.0000000000e+00 0.0000e+00 -1.0000e+00
</event>
<event>
 5      7 +1.7896800e-02 9.11880000e+01 7.81616400e-03 1.18400000e-01
      -11 -1    0    0    0    0 +0.0000000000e+00 +0.0000000000e+00 +4.5593999997e+01 4.5594000000e+01 5.1100000000e-04 0.0000e+00 1.0000e+00
       11 -1    0    0    0    0 -0.0000000000e+00 -0.0000000000e+00 -4.5593999997e+01 4.5594000000e+01 5.1100000000e-04 0.0000e+00 -1.0000e+00
       23  2    1    2    0    0 +0.0000000000e+00 +0.0000000000e+00 +0.0000000000e+00 9.1188000000e+01 9.1188000000e+01 7.0590e-14 0.0000e+00
  9900012  1    3    3    0    0 -5.1271640693e+00 +1.1307643630e+01 +2.9369541188e+01 5.9301944028e+01 5.0000000000e+01 7.3431e-04 1.0000e+00
       12  1    3    3    0    0 +5.1271640693e+00 -1.1307643630e+01 -2.9369541188e+01 3.1886055972e+01 0.0000000000e+00 0.0000e+00 -1.0000e+00
</event>
<event>
 5      2 +1.7896800e-02 9.11880000e+01 7.81616400e-03 1.18400000e-01
      -11 -1    0    0    0    0 +0.0000000000e+00 +0.0000000000e+00 +4.5593999997e+01 4.5594000000e+01 5.1100000000e-04 0.0000e+00 1.0000e+00
       11 -1    0    0    0    0 -0.0000000000e+00 -0.0000000000e+00 -4.5593999997e+01 4.5594000000e+01 5.1100000000e-04 0.0000e+00 -1.0000e+00
       23  2    1    2    0    0 +0.0000000000e+00 +0.0000000000e+00 +0.0000000000e+00 9.1188000000e+01 9.1188000000e+01 1.6643e-13 0.0000e+00
  9900012  1    3    3    0    0 -1.4292897640e-01 -2.3079250247e+01 -2.2001098718e+01 5.9301944028e+01 5.0000000000e+01 5.3588e-04 -1.0000e+00
      -12  1    3    3    0    0 +1.4292897640e-01 +2.3079250247e+01 +2.2001098718e+01 3.1886055972e+01 0.0000000000e+00 0.0000e+00 1.0000e+00
</event>
<event>
 5      3 +1.7896800e-02 9.11880000e+01 7.81616400e-03 1.18400000e-01
      -11 -1    0    0    0    0 +0.0000000000e+00 +0.0000000000e+00 +4.5593999997e+01 4.5594000000e+01 5.1100000000e-04 0.0000e+00 -1.0000e+00
       11 -1    0    0    0    0 -0.0000000000e+00 -0.0000000000e+00 -4.5593999997e+01 4.5594000000e+01 5.1100000000e-04 0.0000e+00 1.0000e+00
       23  2    1    2    0    0 +0.0000000000e+00 +0.0000000000e+00 +0.0000000000e+00 9.1188000000e+01 9.1188000000e+01 5.4635e-14 0.0000e+00
  9900012  1    3    3    0    0 -1.6461799134e+00 -9.9624211869e+00 -3.0245013163e+01 5.9301944028e+01 5.0000000000e+01 6.5189e-05 1.0000e+00
       12  1    3    3    0    0 +1.6461799134e+00 +9.9624211869e+00 +3.0245013163e+01 3.1886055972e+01 0.0000000000e+00 0.0000e+00 -1.0000e+00
</event>
<event>
 5      6 +1.7896800e-02 9.11880000e+01 7.81616400e-03 1.18400000e-01
      -11 -1    0    0    0    0 +0.0000000000e+00 +0.0000000000e+00 +4.5593999997e+01 4.5594000000e+01 5.1100000000e-04 0.0000e+00 1.0000e+00
       11 -1    0    0    0    0 -0.0000000000e+00 -0.0000000000e+00 -4.5593999997e+01 4.5594000000e+01 5.1100000000e-04 0.0000e+00 -1.0000e+00
       23  2    1    2    0    0 +0.0000000000e+00 +0.0000000000e+00 +0.0000000000e+00 9.1188000000e+01 9.1188000000e+01 1.4133e-13 0.0000e+00
  9900012  1    3    3    0    0 -2.9621929193e+01 +9.8273030971e+00 +6.5334516301e+00 5.9301944028e+01 5.0000000000e+01 1.5523e-04 -1.0000e+00
      -12  1    3    3    0    0 +2.9621929193e+01 -9.8273030971e+00 -6.5334516301e+00 3.1886055972e+01 0.0000000000e+00 0.0000e+00 1.0000e+00
</event>
<event>
 5      5 +1.7896800e-02 9.11880000e+01 7.81616400e-03 1.18400000e-01
      -11 -1    0    0    0    0 +0.0000000000e+00 +0.0000000000e+00 +4.5593999997e+01 4.5594000000e+01 5.1100000000e-04 0.0000e+00 1.0000e+00
       11 -1    0    0    0    0 -0.0000000000e+00 -0.0000000000e+00 -4.5593999997e+01 4.5594000000e+01 5.1100000000e-04 0.0000e+00 -1.0000e+00
       23  2    1    2    0    0 +0.0000000000e+00 +0.0000000000e+00 +0.0000000000e+00 9.1188000000e+01 9.1188000000e+01 4.2377e-14 0.0000e+00
  9900012  1    3    3    0    0 -1.7846630052e+01 +1.7034563640e+01 +2.0200049575e+01 5.9301944028e+01 5.0000000000e+01 9.0462e-04 1.0000e+00
       12  1    3    3    0    0 +1.7846630052e+01 -1.7034563640e+01 -2.0200049575e+01 3.1886055972e+01 0.0000000000e+00 0.0000e+00 -1.0000e+00
</event>
<event>
 5      8 +1.7896800e-02 9.11880000e+01 7.81616400e-03 1.18400000e-01
      -11 -1    0    0    0    0 +0.0000000000e+00 +0.0000000000e+00 +4.5593999997e+01 4.5594000000e+01 5.1100000000e-04 0.0000e+00 1.0000e+00
       11 -1    0    0    0    0 -0.0000000000e+00 -0.0000000000e+00 -4.5593999997e+01 4.5594000000e+01 5.1100000000e-04 0.0000e+00 -1.0000e+00
       23  2    1    2    0    0 +0.0000000000e+00 +0.0000000000e+00 +0.0000000000e+00 9.1188000000e+01 9.1188000000e+01 2.3243e-14 0.0000e+00
  9900012  1    3    3    0    0 +2.5423806063e+01 +1.9220581795e+01 -9.5910696679e-01 5.9301944028e+01 5.0000000000e+01 1.6173e-03 -1.0000e+00
      -12  1    3    3    0    0 -2.5423806063e+01 -1.9220581795e+01 +9.5910696679e-01 3.1886055972e+01 0.0000000000e+00 0.0000e+00 1.0000e+00
</event>
<event>
 5      3 +1.7896800e-02 9.11880000e+01 7.81616400e-03 1.18400000e-01
      -11 -1    0    0    0    0 +0.0000000000e+00 +0.0000000000e+00 +4.5593999997e+01 4.5594000000e+01 5.1100000000e-04 0.0000e+00 1.0000e+00
       11 -1    0    0    0    0 -0.0000000000e+00 -0.0000000000e+00 -4.5593999997e+01 4.5594000000e+01 5.1100000000e-04 0.0000e+00 -1.0000e+00
       23  2    1    2    0    0 +0.0000000000e+00 +0.0000000000e+00 +0.0000000000e+00 9.1188000000e+01 9.1188000000e+01 3.2684e-14 0.0000e+00
  9900012  1    3    3    0    0 -2.0341746064e+01 +5.7470861777e+00 +2.3872681730e+01 5.9301944028e+01 5.0000000000e+01 7.8094e-04 1.0000e+00
       12  1    3    3    0    0 +2.0341746064e+01 -5.7470861777e+00 -2.3872681730e+01 3.1886055972e+01 0.0000000000e+00 0.0000e+00 -1.0000e+00
</event>
<event>
 5      5 +1.7896800e-02 9.11880000e+01 7.81616400e-03 1.18400000e-01
      -11 -1    0    0    0    0 +0.0000000000e+00 +0.0000000000e+00 +4.5593999997e+01 4.5594000000e+01 5.1100000000e-04 0.0000e+00 1.0000e+00
       11 -1    0    0    0    0 -0.0000000000e+00 -0.0000000000e+00 -4.5593999997e+01 4.5594000000e+01 5.1100000000e-04 0.0000e+00 -1.0000e+00
       23  2    1    2    0    0 +0.0000000000e+00 +0.0000000000e+00 +0.0000000000e+00 9.1188000000e+01 9.1188000000e+01 2.8387e-14 0.0000e+00
  9900012  1    3    3    0    0 +2.5826179451e+01 +5.1083724130e+00 +1.7989818002e+01 5.9301944028e+01 5.0000000000e+01 1.3740e-04 1.0000e+00
       12  1    3    3    0    0 -2.5826179451e+01 -5.1083724130e+00 -1.7989818002e+01 3.1886055972e+01 0.0000000000e+00 0.0000e+00 -1.0000e+00
</event>
<event>
 5      6 +1.7896800e-02 9.11880000e+01 7.81616400e-03 1.18400000e-01
      -11 -1    0    0    0    0 +0.0000000000e+00 +0.0000000000e+00 +4.5593999997e+01 4.5594000000e+01 5.1100000000e-04 0.0000e+00 -1.0000e+00
       11 -1    0    0    0    0 -0.0000000000e+00 -0.0000000000e+00 -4.5593999997e+01 4.5594000000e+01 5.1100000000e-04 0.0000e+00 1.0000e+00
       23  2    1    2    0    0 +0.0000000000e+00 +0.0000000000e+00 +0.0000000000e+00 9.1188000000e+01 9.1188000000e+01 1.4307e-13 0.0000e+00
  9900012  1    3    3    0    0 -9.4447999334e+00 +3.0369844329e+01 +2.2779102464e+00 5.9301944028e+01 5.0000000000e+01 1.8669e-04 -1.0000e+00
      -12  1    3    3    0    0 +9.4447999334e+00 -3.0369844329e+01 -2.2779102464e+00 3.1886055972e+01 0.0000000000e+00 0.0000e+00 1.0000e+00
</event>
<event>
 5      8 +1.7896800e-02 9.11880000e+01 7.81616400e-03 1.18400000e-01
      -11 -1    0    0    0    0 +0.0000000000e+00 +0.0000000000e+00 +4.5593999997e+01 4.5594000000e+01 5.1100000000e-04 0.0000e+00 1.0000e+00
       11 -1    0    0    0    0 -0.0000000000e+00 -0.0000000000e+00 -4.5593999997e+01 4.5594000000e+01 5.1100000000e-04 0.0000e+00 -1.0000e+00
       23  2    1    2    0    0 +0.0000000000e+00 +0.0000000000e+00 +0.0000000000e+00 9.1188000000e+01 9.1188000000e+01 4.7224e-14 0.0000e+00
  9900012  1    3    3    0    0 +2.4503819780e+01 -1.8593045118e+00 -2.0318129058e+01 5.9301944028e+01 5.0000000000e+01 3.9147e-04 -1.0000e+00
      -12  1    3    3    0    0 -2.4503819780e+01 +1.8593045118e+00 +2.0318129058e+01 3.1886055972e+01 0.0000000000e+00 0.0000e+00 1.0000e+00
</event>
<event>
 5      8 +1.7896800e-02 9.11880000e+01 7.81616400e-03 1.18400000e-01
      -11 -1    0    0    0    0 +0.0000000000e+00 +0.0000000000e+00 +4.5593999997e+01 4.5594000000e+01 5.1100000000e-04 0.0000e+00 -1.0000e+00
       11 -1    0    0    0    0 -0.0000000000e+00 -0.0000000000e+00 -4.5593999997e+01 4.5594000000e+01 5.1100000000e-04 0.0000e+00 1.0000e+00
       23  2    1    2    0    0 +0.0000000000e+00 +0.0000000000e+00 +0.0000000000e+00 9.1188000000e+01 9.1188000000e+01 8.9961e-14 0.0000e+00
  9900012  1    3    3    0    0 -1.5708602428e+01 +1.1089540334e+01 +2.5435850102e+01 5.9301944028e+01 5.0000000000e+01 3.0388e-04 -1.0000e+00
      -12  1    3    3    0    0 +1.5708602428e+01 -1.1089540334e+01 -2.5435850102e+01 3.1886055972e+01 0.0000000000e+00 0.0000e+00 1.0000e+00
</event>
<event>
 5      1 +1.7896800e-02 9.11880000e+01 7.81616400e-03 1.18400000e-01
      -11 -1    0    0    0    0 +0.0000000000e+00 +0.0000000000e+00 +4.5593999997e+01 4.5594000000e+01 5.1100000000e-04 0.0000e+00 -1.0000e+00
       11 -1    0    0    0    0 -0.0000000000e+00 -0.0000000000e+00 -4.5593999997e+01 4.5594000000e+01 5.1100000000e-04 0.0000e+00 1.0000e+00
       23  2    1    2    0    0 +0.0000000000e+00 +0.0000000000e+00 +0.0000000000e+00 9.1188000000e+01 9.1188000000e+01 6.3288e-14 0.0000e+00
  9900012  1    3    3    0    0 -2.6085644945e+01 +7.9270110710e+00 -1.6535482719e+01 5.9301944028e+01 5.0000000000e+01 2.1804e-03 1.0000e+00
       12  1    3    3    0    0 +2.6085644945e+01 -7.9270110710e+00 +1.6535482719e+01 3.1886055972e+01 0.0000000000e+00 0.0000e+00 -1.0000e+00
</event>
<event>
 5      3 +1.7896800e-02 9.11880000e+01 7.81616400e-03 1.18400000e-01
      -11 -1    0    0    0    0 +0.0000000000e+00 +0.0000000000e+00 +4.5593999997e+01 4.5594000000e+01 5.1100000000e-04 0.0000e+00 1.0000e+00
       11 -1    0    0    0    0 -0.0000000000e+00 -0.0000000000e+00 -4.5593999997e+01 4.5594000000e+01 5.1100000000e-04 0.0000e+00 -1.0000e+00
       23  2    1    2    0    0 +0.0000000000e+00 +0.0000000000e+00 +0.0000000000e+00 9.1188000000e+01 9.1188000000e+01 6.9278e-14 0.0000e+00
  9900012  1    3    3    0    0 -1.0023958361e+01 -2.6884208404e+01 +1.3909714689e+01 5.9301944028e+01 5.0000000000e+01 1.0380e-03 1.0000e+00
       12  1    3    3    0    0 +1.0023958361e+01 +2.6884208404e+01 -1.3909714689e+01 3.1886055972e+01 0.0000000000e+00 0.0000e+00 -1.0000e+00
</event>
<event>
 5      4 +1.7896800e-02 9.11880000e+01 7.81616400e-03 1.18400000e-01
      -11 -1    0    0    0    0 +0.0000000000e+00 +0.0000000000e+00 +4.5593999997e+01 4.5594000000e+01 5.1100000000e-04 0.0000e+00 1.0000e+00
       11 -1    0    0    0    0 -0.0000000000e+00 -0.0000000000e+00 -4.5593999997e+01 4.5594000000e+01 5.1100000000e-04 0.0000e+00 -1.0000e+00
       23  2    1    2    0    0 +0.0000000000e+00 +0.0000000000e+00 +0.0000000000e+00 9.1188000000e+01 9.1188000000e+01 2.9734e-14 0.0000e+00
  9900012  1    3    3    0    0 -2.3676122640e+01 -2.1314363085e+01 +1.3637112802e+00 5.9301944028e+01 5.0000000000e+01 5.6867e-04 -1.0000e+00
      -12  1    3    3    0    0 +2.3676122640e+01 +2.1314363085e+01 -1.3637112802e+00 3.1886055972e+01 0.0000000000e+00 0.0000e+00 1.0000e+00
</event>
<event>
 5      4 +1.7896800e-02 9.11880000e+01 7.81616400e-03 1.18400000e-01
      -11 -1    0    0    0    0 +0.0000000000e+00 +0.0000000000e+00 +4.5593999997e+01 4.5594000000e+01 5.1100000000e-04 0.0000e+00 1.0000e+00
       11 -1    0    0    0    0 -0.0000000000e+00 -0.0000000000e+00 -4.5593999997e+01 4.5594000000e+01 5.1100000000e-04 0.0000e+00 -1.0000e+00
       23  2    1    2    0    0 +0.0000000000e+00 +0.0000000000e+00 +0.0000000000e+00 9.1188000000e+01 9.1188000000e+01 5.1354e-14 0.0000e+00
  9900012  1    3    3    0    0 +3.1872717186e+00 +1.9485814181e+01 -2.5037270421e+01 5.9301944028e+01 5.0000000000e+01 1.3009e-04 -1.0000e+00
      -12  1    3    3    0    0 -3.1872717186e+00 -1.9485814181e+01 +2.5037270421e+01 3.1886055972e+01 0.0000000000e+00 0.0000e+00 1.0000e+00
</event>
<event>
 5      7 +1.7896800e-02 9.11880000e+01 7.81616400e-03 1.18400000e-01
      -11 -1    0    0    0    0 +0.0000000000e+00 +0.0000000000e+00 +4.5593999997e+01 4.5594000000e+01 5.1100000000e-04 0.0000e+00 1.0000e+00
       11 -1    0    0    0    0 -0.0000000000e+00 -0.0000000000e+00 -4.5593999997e+01 4.5594000000e+01 5.1100000000e-04 0.0000e+00 -1.0000e+00
       23  2    1    2    0    0 +0.0000000000e+00 +0.0000000000e+00 +0.0000000000e+00 9.1188000000e+01 9.1188000000e+01 9.6242e-14 0.0000e+00
  9900012  1    3    3    0    0 +1.4687451154e+01 -2.8245912489e+01 +1.7798235120e+00 5.9301944028e+01 5.0000000000e+01 3.0145e-03 1.0000e+00
       12  1    3    3    0    0 -1.4687451154e+01 +2.8245912489e+01 -1.7798235120e+00 3.1886055972e+01 0.0000000000e+00 0.0000e+00 -1.0000e+00
</event>
<event>
 5      4 +1.7896800e-02 9.11880000e+01 7.81616400e-03 1.18400000e-01
      -11 -1    0    0    0    0 +0.0000000000e+00 +0.0000000000e+00 +4.5593999997e+01 4.5594000000e+01 5.1100000000e-04 0.0000e+00 -1.0000e+00
       11 -1    0    0    0    0 -0.0000000000e+00 -0.0000000000e+00 -4.5593999997e+01 4.5594000000e+01 5.1100000000e-04 0.0000e+00 1.0000e+00
       23  2    1    2    0    0 +0.0000000000e+00 +0.0000000000e+00 +0.0000000000e+00 9.1188000000e+01 9.1188000000e+01 3.7700e-14 0.0000e+00
  9900012  1    3    3    0    0 -8.4398911860e-01 -2.6701583067e+01 -1.7407863440e+01 5.9301944028e+01 5.0000000000e+01 2.0940e-03 1.0000e+00
      -12  1    3    3    0    0 +8.4398911860e-01 +2.6701583067e+01 +1.7407863440e+01 3.1886055972e+01 0.0000000000e+00 0.0000e+00 1.0000e+00
</event>
<event>
 5      8 +1.7896800e-02 9.11880000e+01 7.81616400e-03 1.18400000e-01
      -11 -1    0    0    0    0 +0.0000000000e+00 +0.0000000000e+00 +4.5593999997e+01 4.5594000000e+01 5.1100000000e-04 0.0000e+00 1.0000e+00
       11 -1    0    0    0    0 -0.0000000000e+00 -0.0000000000e+00 -4.5593999997e+01 4.5594000000e+01 5.1100000000e-04 0.0000e+00 -1.0000e+00
       23  2    1    2    0    0 +0.0000000000e+00 +0.0000000000e+00 +0.0000000000e+00 9.1188000000e+01 9.1188000000e+01 2.9859e-14 0.0000e+00
  9900012  1    3    3    0    0 +4.4246578753e+00 +2.2357783124e+01 +2.2299607664e+01 5.9301944028e+01 5.0000000000e+01 3.5581e-04 -1.0000e+00
      -12  1    3    3    0    0 -4.4246578753e+00 -2.2357783124e+01 -2.2299607664e+01 3.1886055972e+01 0.0000000000e+00 0.0000e+00 1.0000e+00
</event>
<event>
 5      8 +1.7896800e-02 9.11880000e+01 7.81616400e-03 1.18400000e-01
      -11 -1    0    0    0    0 +0.0000000000e+00 +0.0000000000e+00 +4.5593999997e+01 4.5594000000e+01 5.1100000000e-04 0.0000e+00 1.0000e+00
       11 -1    0    0    0    0 -0.0000000000e+00 -0.0000000000e+00 -4.5593999997e+01 4.5594000000e+01 5.1100000000e-04 0.0000e+00 -1.0000e+00
       23  2    1    2    0    0 +0.0000000000e+00 +0.0000000000e+00 +0.0000000000e+00 9.1188000000e+01 9.1188000000e+01 4.6116e-14 0.0000e+00
  9900012  1    3    3    0    0 -1.7606948166e+00 -2.2980842380e+01 +2.2034096368e+01 5.9301944028e+01 5.0000000000e+01 8.7315e-05 1.0000e+00
      -12  1    3    3    0    0 +1.7606948166e+00 +2.2980842380e+01 -2.2034096368e+01 3.1886055972e+01 0.0000000000e+00 0.0000e+00 1.0000e+00
</event>
<event>
 5      8 +1.7896800e-02 9.11880000e+01 7.81616400e-03 1.18400000e-01
      -11 -1    0    0    0    0 +0.0000000000e+00 +0.0000000000e+00 +4.5593999997e+01 4.5594000000e+01 5.1100000000e-04 0.0000e+00 -1.0000e+00
       11 -1    0    0    0    0 -0.0000000000e+00 -0.0000000000e+00 -4.5593999997e+01 4.5594000000e+01 5.1100000000e-04 0.0000e+00 1.0000e+00
       23  2    1    2    0    0 +0.0000000000e+00 +0.0000000000e+00 +0.0000000000e+00 9.1188000000e+01 9.1188000000e+01 8.5969e-14 0.0000e+00
  9900012  1    3    3    0    0 +2.5054187960e+01 -1.9294066272e+01 +4.0923389179e+00 5.9301944028e+01 5.0000000000e+01 9.1344e-05 -1.0000e+00
      -12  1    3    3    0    0 -2.5054187960e+01 +1.9294066272e+01 -4.0923389179e+00 3.1886055972e+01 0.0000000000e+00 0.0000e+00 1.0000e+00
</event>
<event>
 5      3 +1.7896800e-02 9.11880000e+01 7.81616400e-03 1.18400000e-01
      -11 -1    0    0    0    0 +0.0000000000e+00 +0.0000000000e+00 +4.5593999997e+01 4.5594000000e+01 5.1100000000e-04 0.0000e+00 -1.0000e+00
       11 -1    0    0    0    0 -0.0000000000e+00 -0.0000000000e+00 -4.5593999997e+01 4.5594000000e+01 5.1100000000e-04 0.0000e+00 1.0000e+00
       23  2    1    2    0    0 +0.0000000000e+00 +0.0000000000e+00 +0.0000000000e+00 9.1188000000e+01 9.1188000000e+01 7.6556e-14 0.0000e+00
  9900012  1    3    3    0    0 -3.5017091214e-02 -2.7157963619e+01 -1.6708212093e+01 5.9301944028e+01 5.0000000000e+01 9.3851e-04 1.0000e+00
       12  1    3    3    0    0 +3.5017091214e-02 +2.7157963619e+01 +1.6708212093e+01 3.1886055972e+01 0.0000000000e+00 0.0000e+00 -1.0000e+00
</event>
<event>
 5      6 +1.7896800e-02 9.11880000e+01 7.81616400e-03 1.18400000e-01
      -11 -1    0    0    0    0 +0.0000000000e+00 +0.0000000000e+00 +4.5593999997e+01 4.5594000000e+01 5.1100000000e-04 0.0000e+00 1.0000e+00
       11 -1    0    0    0    0 -0.0000000000e+00 -0.0000000000e+00 -4.5593999997e+01 4.5594000000e+01 5.1100000000e-04 0.0000e+00 -1.0000e+00
       23  2    1    2    0    0 +0.0000000000e+00 +0.0000000000e+00 +0.0000000000e+00 9.1188000000e+01 9.1188000000e+01 1.8923e-14 0.0000e+00
  9900012  1    3    3    0    0 +2.8110773916e+01 -5.3108166173e+00 -1.4081909748e+01 5.9301944028e+01 5.0000000000e+01 4.1052e-04 1.0000e+00
      -12  1    3    3    0    0 -2.8110773916e+01 +5.3108166173e+00 +1.4081909748e+01 3.1886055972e+01 0.0000000000e+00 0.0000e+00 1.0000e+00
</event>
<event>
 5      2 +1.7896800e-02 9.11880000e+01 7.81616400e-03 1.18400000e-01
      -11 -1    0    0    0    0 +0.0000000000e+00 +0.0000000000e+00 +4.5593999997e+01 4.5594000000e+01 5.1100000000e-04 0.0000e+00 1.0000e+00
       11 -1    0    0    0    0 -0.0000000000e+00 -0.0000000000e+00 -4.5593999997e+01 4.5594000000e+01 5.1100000000e-04 0.0000e+00 -1.0000e+00
       23  2    1    2    0    0 +0.0000000000e+00 +0.0000000000e+00 +0.0000000000e+00 9.1188000000e+01 9.1188000000e+01 2.1203e-13 0.0000e+00
  9900012  1    3    3    0    0 -8.2159659055e+00 +2.9071808920e+01 -1.0200411551e+01 5.9301944028e+01 5.0000000000e+01 1.2989e-03 1.0000e+00
      -12  1    3    3    0    0 +8.2159659055e+00 -2.9071808920e+01 +1.0200411551e+01 3.1886055972e+01 0.0000000000e+00 0.0000e+00 1.0000e+00
</event>
<event>
 5      2 +1.7896800e-02 9.11880000e+01 7.81616400e-03 1.18400000e-01
      -11 -1    0    0    0    0 +0.0000000000e+00 +0.0000000000e+00 +4.5593999997e+01 4.5594000000e+01 5.1100000000e-04 0.0000e+00 1.0000e+00
       11 -1    0    0    0    0 -0.0000000000e+00 -0.0000000000e+00 -4.5593999997e+01 4.5594000000e+01 5.1100000000e-04 0.0000e+00 -1.0000e+00
       23  2    1    2    0    0 +0.0000000000e+00 +0.0000000000e+00 +0.0000000000e+00 9.1188000000e+01 9.1188000000e+01 5.3969e-14 0.0000e+00
  9900012  1    3    3    0    0 -1.3060738965e+01 +9.0311017585e+00 -2.7650983060e+01 5.9301944028e+01 5.0000000000e+01 3.3049e-04 -1.0000e+00
      -12  1    3    3    0    0 +1.3060738965e+01 -9.0311017585e+00 +2.7650983060e+01 3.1886055972e+01 0.0000000000e+00 0.0000e+00 1.0000e+00
</event>
<event>
 5      6 +1.7896800e-02 9.11880000e+01 7.81616400e-03 1.18400000e-01
      -11 -1    0    0    0    0 +0.0000000000e+00 +0.0000000000e+00 +4.5593999997e+01 4.5594000000e+01 5.1100000000e-04 0.0000e+00 1.0000e+00
       11 -1    0    0    0    0 -0.0000000000e+00 -0.0000000000e+00 -4.5593999997e+01 4.5594000000e+01 5.1100000000e-04 0.0000e+00 -1.0000e+00
       23  2    1    2    0    0 +0.0000000000e+00 +0.0000000000e+00 +0.0000000000e+00 9.1188000000e+01 9.1188000000e+01 3.4579e-14 0.0000e+00
  9900012  1    3    3    0    0 +1.8669636725e+01 -9.6296437174e+00 -2.3988230278e+01 5.9301944028e+01 5.0000000000e+01 4.6620e-05 -1.0000e+00
      -12  1    3    3    0    0 -1.8669636725e+01 +9.6296437174e+00 +2.3988230278e+01 3.1886055972e+01 0.0000000000e+00 0.0000e+00 1.0000e+00
</event>
<event>
 5      1 +1.7896800e-02 9.11880000e+01 7.81616400e-03 1.18400000e-01
      -11 -1    0    0    0    0 +0.0000000000e+00 +0.0000000000e+00 +4.5593999997e+01 4.5594000000e+01 5.1100000000e-04 0.0000e+00 1.0000e+00
       11 -1    0    0    0    0 -0.0000000000e+00 -0.0000000000e+00 -4.5593999997e+01 4.5594000000e+01 5.1100000000e-04 0.0000e+00 -1.0000e+00
       23  2    1    2    0    0 +0.0000000000e+00 +0.0000000000e+00 +0.0000000000e+00 9.1188000000e+01 9.1188000000e+01 1.3221e-13 0.0000e+00
  9900012  1    3    3    0    0 -2.5047584253e+01 +8.7432861108e+00 +1.7688811055e+01 5.9301944028e+01 5.0000000000e+01 1.7502e-03 1.0000e+00
       12  1    3    3    0    0 +2.5047584253e+01 -8.7432861108e+00 -1.7688811055e+01 3.1886055972e+01 0.0000000000e+00 0.0000e+00 -1.0000e+00
</event>
<event>
 5      5 +1.7896800e-02 9.11880000e+01 7.81616400e-03 1.18400000e-01
      -11 -1    0    0    0    0 +0.0000000000e+00 +0.0000000000e+00 +4.5593999997e+01 4.5594000000e+01 5.1100000000e-04 0.0000e+00 1.0000e+00
       11 -1    0    0    0    0 -0.0000000000e+00 -0.0000000000e+00 -4.5593999997e+01 4.5594000000e+01 5.1100000000e-04 0.0000e+00 -1.0000e+00
       23  2    1    2    0    0 +0.0000000000e+00 +0.0000000000e+00 +0.0000000000e+00 9.1188000000e+01 9.1188000000e+01 8.5586e-14 0.0000e+00
  9900012  1    3    3    0    0 -5.6016300057e-02 -2.7425156833e+01 +1.6265859963e+01 5.9301944028e+01 5.0000000000e+01 4.0809e-05 1.0000e+00
       12  1    3    3    0    0 +5.6016300057e-02 +2.7425156833e+01 -1.6265859963e+01 3.1886055972e+01 0.0000000000e+00 0.0000e+00 -1.0000e+00
</event>
<event>
 5      7 +1.7896800e-02 9.11880000e+01 7.81616400e-03 1.18400000e-01
      -11 -1    0    0    0    0 +0.0000000000e+00 +0.0000000000e+00 +4.5593999997e+01 4.5594000000e+01 5.1100000000e-04 0.0000e+00 1.0000e+00
       11 -1    0    0    0    0 -0.0000000000e+00 -0.0000000000e+00 -4.5593999997e+01 4.5594000000e+01 5.1100000000e-04 0.0000e+00 -1.0000e+00
       23  2    1    2    0    0 +0.0000000000e+00 +0.0000000000e+00 +0.0000000000e+00 9.1188000000e+01 9.1188000000e+01 2.3188e-13 0.0000e+00
  9900012  1    3    3    0    0 +7.6872721196e+00 +3.0277952365e+01 +6.3931223539e+00 5.9301944028e+01 5.0000000000e+01 8.2034e-04 1.0000e+00
       12  1    3    3    0    0 -7.6872721196e+00 -3.0277952365e+01 -6.3931223539e+00 3.1886055972e+01 0.0000000000e+00 0.0000e+00 -1.0000e+00
</event>
<event>
 5      8 +1.7896800e-02 9.11880000e+01 7.81616400e-03 1.18400000e-01
      -11 -1    0    0    0    0 +0.0000000000e+00 +0.0000000000e+00 +4.5593999997e+01 4.5594000000e+01 5.1100000000e-04 0.0000e+00 -1.0000e+00
       11 -1    0    0    0    0 -0.0000000000e+00 -0.0000000000e+00 -4.5593999997e+01 4.5594000000e+01 5.1100000000e-04 0.0000e+00 1.0000e+00
       23  2    1    2    0    0 +0.0000000000e+00 +0.0000000000e+00 +0.0000000000e+00 9.1188000000e+01 9.1188000000e+01 5.6375e-14 0.0000e+00
  9900012  1    3    3    0    0 +2.3332181939e+01 -2.1326752034e+01 -4.1832402618e+00 5.9301944028e+01 5.0000000000e+01 1.4543e-03 -1.0000e+00
      -12  1    3    3    0    0 -2.3332181939e+01 +2.1326752034e+01 +4.1832402618e+00 3.1886055972e+01 0.0000000000e+00 0.0000e+00 1.0000e+00
</event>
<event>
 5      8 +1.7896800e-02 9.11880000e+01 7.81616400e-03 1.18400000e-01
      -11 -1    0    0    0    0 +0.0000000000e+00 +0.0000000000e+00 +4.5593999997e+01 4.5594000000e+01 5.1100000000e-04 0.0000e+00 1.0000e+00
       11 -1    0    0    0    0 -0.0000000000e+00 -0.0000000000e+00 -4.5593999997e+01 4.5594000000e+01 5.1100000000e-04 0.0000e+00 -1.0000e+00
       23  2    1    2    0    0 +0.0000000000e+00 +0.0000000000e+00 +0.0000000000e+00 9.1188000000e+01 9.1188000000e+01 7.9795e-15 0.0000e+00
  9900012  1    3    3    0    0 +1.2163234572e+01 +2.6247993630e+01 -1.3409665194e+01 5.9301944028e+01 5.0000000000e+01 7.1085e-04 -1.0000e+00
      -12  1    3    3    0    0 -1.2163234572e+01 -2.6247993630e+01 +1.3409665194e+01 3.1886055972e+01 0.0000000000e+00 0.0000e+00 1.0000e+00
</event>
<event>
 5      8 +1.7896800e-02 9.11880000e+01 7.81616400e-03 1.18400000e-01
      -11 -1    0    0    0    0 +0.0000000000e+00 +0.0000000000e+00 +4.5593999997e+01 4.5594000000e+01 5.1100000000e-04 0.0000e+00 -1.0000e+00
       11 -1    0    0    0    0 -0.0000000000e+00 -0.0000000000e+00 -4.5593999997e+01 4.5594000000e+01 5.1100000000e-04 0.0000e+00 1.0000e+00
       23  2    1    2    0    0 +0.0000000000e+00 +0.0000000000e+00 +0.0000000000e+00 9.1188000000e+01 9.1188000000e+01 1.3528e-13 0.0000e+00
  9900012  1    3    3    0    0 +6.9982284373e+00 +2.3278290444e+01 +2.0636534549e+01 5.9301944028e+01 5.0000000000e+01 1.2741e-03 -1.0000e+00
      -12  1    3    3    0    0 -6.9982284373e+00 -2.3278290444e+01 -2.0636534549e+01 3.1886055972e+01 0.0000000000e+00 0.0000e+00 1.0000e+00
</event>
<event>
 5      3 +1.7896800e-02 9.11880000e+01 7.81616400e-03 1.18400000e-01
      -11 -1    0    0    0    0 +0.0000000000e+00 +0.0000000000e+00 +4.5593999997e+01 4.5594000000e+01 5.1100000000e-04 0.0000e+00 -1.0000e+00
       11 -1    0    0    0    0 -0.0000000000e+00 -0.0000000000e+00 -4.5593999997e+01 4.5594000000e+01 5.1100000000e-04 0.0000e+00 1.0000e+00
       23  2    1    2    0    0 +0.0000000000e+00 +0.0000000000e+00 +0.0000000000e+00 9.1188000000e+01 9.1188000000e+01 1.3920e-14 0.0000e+00
  9900012  1    3    3    0    0 -2.9147659373e+01 +8.1231679368e+00 -1.0057269074e+01 5.9301944028e+01 5.0000000000e+01 2.8126e-03 1.0000e+00
       12  1    3    3    0    0 +2.9147659373e+01 -8.1231679368e+00 +1.0057269074e+01 3.1886055972e+01 0.0000000000e+00 0.0000e+00 -1.0000e+00
</event>
<event>
 5      1 +1.7896800e-02 9.11880000e+01 7.81616400e-03 1.18400000e-01
      -11 -1    0    0    0    0 +0.0000000000e+00 +0.0000000000e+00 +4.5593999997e+01 4.5594000000e+01 5.1100000000e-04 0.0000e+00 1.0000e+00
       11 -1    0    0    0    0 -0.0000000000e+00 -0.0000000000e+00 -4.5593999997e+01 4.5594000000e+01 5.1100000000e-04 0.0000e+00 -1.0000e+00
       23  2    1    2    0    0 +0.0000000000e+00 +0.0000000000e+00 +0.0000000000e+00 9.1188000000e+01 9.1188000000e+01 1.6553e-13 0.0000e+00
  9900012  1    3    3    0    0 -6.0131012178e+00 -2.9402217561e+01 +1.0773707891e+01 5.9301944028e+01 5.0000000000e+01 3.4661e-04 1.0000e+00
       12  1    3    3    0    0 +6.0131012178e+00 +2.9402217561e+01 -1.0773707891e+01 3.1886055972e+01 0.0000000000e+00 0.0000e+00 -1.0000e+00
</event>
<event>
 5      6 +1.7896800e-02 9.11880000e+01 7.81616400e-03 1.18400000e-01
      -11 -1    0    0    0    0 +0.0000000000e+00 +0.0000000000e+00 +4.5593999997e+01 4.5594000000e+01 5.1100000000e-04 0.0000e+00 -1.0000e+00
       11 -1    0    0    0    0 -0.0000000000e+00 -0.0000000000e+00 -4.5593999997e+01 4.5594000000e+01 5.1100000000e-04 0.0000e+00 1.0000e+00
       23  2    1    2    0    0 +0.0000000000e+00 +0.0000000000e+00 +0.0000000000e+00 9.1188000000e+01 9.1188000000e+01 1.0348e-13 0.0000e+00
  9900012  1    3    3    0    0 +3.1104649610e+01 -5.7626312436e+00 -4.0016770540e+00 5.9301944028e+01 5.0000000000e+01 7.2942e-05 -1.0000e+00
      -12  1    3    3    0    0 -3.1104649610e+01 +5.7626312436e+00 +4.0016770540e+00 3.1886055972e+01 0.0000000000e+00 0.0000e+00 1.0000e+00
</event>
<event>
 5      4 +1.7896800e-02 9.11880000e+01 7.81616400e-03 1.18400000e-01
      -11 -1    0    0    0    0 +0.0000000000e+00 +0.0000000000e+00 +4.5593999997e+01 4.5594000000e+01 5.1100000000e-04 0.0000e+00 1.0000e+00
       11 -1    0    0    0    0 -0.0000000000e+00 -0.0000000000e+00 -4.5593999997e+01 4.5594000000e+01 5.1100000000e-04 0.0000e+00 -1.0000e+00
       23  2    1    2    0    0 +0.0000000000e+00 +0.0000000000e+00 +0.0000000000e+00 9.1188000000e+01 9.1188000000e+01 3.9472e-14 0.0000e+00
  9900012  1    3    3    0    0 +1.8555238778e+01 +2.5921687441e+01 -6.9985682242e-01 5.9301944028e+01 5.0000000000e+01 5.3958e-04 -1.0000e+00
      -12  1    3    3    0    0 -1.8555238778e+01 -2.5921687441e+01 +6.9985682242e-01 3.1886055972e+01 0.0000000000e+00 0.0000e+00 1.0000e+00
</event>
<event>
 5      3 +1.7896800e-02 9.11880000e+01 7.81616400e-03 1.18400000e-01
      -11 -1    0    0    0    0 +0.0000000000e+00 +0.0000000000e+00 +4.5593999997e+01 4.5594000000e+01 5.1100000000e-04 0.0000e+00 1.0000e+00
       11 -1    0    0    0    0 -0.0000000000e+00 -0.0000000000e+00 -4.5593999997e+01 4.5594000000e+01 5.1100000000e-04 0.0000e+00 -1.0000e+00
       23  2    1    2    0    0 +0.0000000000e+00 +0.0000000000e+00 +0.0000000000e+00 9.1188000000e+01 9.1188000000e+01 9.6507e-15 0.0000e+00
  9900012  1    3    3    0    0 +6.3347883487e+00 -1.8418903721e+01 +2.5245494802e+01 5.9301944028e+01 5.0000000000e+01 1.2241e-04 1.0000e+00
       12  1    3    3    0    0 -6.3347883487e+00 +1.8418903721e+01 -2.5245494802e+01 3.1886055972e+01 0.0000000000e+00 0.0000e+00 -1.0000e+00
</event>
<event>
 5      8 +1.7896800e-02 9.11880000e+01 7.81616400e-03 1.18400000e-01
      -11 -1    0    0    0    0 +0.0000000000e+00 +0.0000000000e+00 +4.5593999997e+01 4.5594000000e+01 5.1100000000e-04 0.0000e+00 -1.0000e+00
       11 -1    0    0    0    0 -0.0000000000e+00 -0.0000000000e+00 -4.5593999997e+01 4.5594000000e+01 5.1100000000e-04 0.0000e+00 1.0000e+00
       23  2    1    2    0    0 +0.0000000000e+00 +0.0000000000e+00 +0.0000000000e+00 9.1188000000e+01 9.1188000000e+01 4.1337e-15 0.0000e+00
  9900012  1    3    3    0    0 -2.7292705256e+00 +1.0751961496e+00 +3.1750836227e+01 5.9301944028e+01 5.0000000000e+01 2.7011e-04 -1.0000e+00
      -12  1    3    3    0    0 +2.7292705256e+00 -1.0751961496e+00 -3.1750836227e+01 3.1886055972e+01 0.0000000000e+00 0.0000e+00 1.0000e+00
</event>
<event>
 5      5 +1.7896800e-02 9.11880000e+01 7.81616400e-03 1.18400000e-01
      -11 -1    0    0    0    0 +0.0000000000e+00 +0.0000000000e+00 +4.5593999997e+01 4.5594000000e+01 5.1100000000e-04 0.0000e+00 1.0000e+00
       11 -1    0    0    0    0 -0.0000000000e+00 -0.0000000000e+00 -4.5593999997e+01 4.5594000000e+01 5.1100000000e-04 0.0000e+00 -1.0000e+00
       23  2    1    2    0    0 +0.0000000000e+00 +0.0000000000e+00 +0.0000000000e+00 9.1188000000e+01 9.1188000000e+01 4.8768e-14 0.0000e+00
  9900012  1    3    3    0    0 -8.0252508558e+00 -1.6904879727e+01 +2.5817454476e+01 5.9301944028e+01 5.0000000000e+01 1.6510e-03 1.0000e+00
       12  1    3    3    0    0 +8.0252508558e+00 +1.6904879727e+01 -2.5817454476e+01 3.1886055972e+01 0.0000000000e+00 0.0000e+00 -1.0000e+00
</event>
<event>
 5      7 +1.7896800e-02 9.11880000e+01 7.81616400e-03 1.18400000e-01
      -11 -1    0    0    0    0 +0.0000000000e+00 +0.0000000000e+00 +4.5593999997e+01 4.5594000000e+01 5.1100000000e-04 0.0000e+00 -1.0000e+00
       11 -1    0    0    0    0 -0.0000000000e+00 -0.0000000000e+00 -4.5593999997e+01 4.5594000000e+01 5.1100000000e-04 0.0000e+00 1.0000e+00
       23  2    1    2    0    0 +0.0000000000e+00 +0.0000000000e+00 +0.0000000000e+00 9.1188000000e+01 9.1188000000e+01 4.2227e-14 0.0000e+00
  9900012  1    3    3    0    0 +1.9199622051e+01 -2.0023065947e+01 -1.5721701836e+01 5.9301944028e+01 5.0000000000e+01 7.8259e-04 1.0000e+00
       12  1    3    3    0    0 -1.9199622051e+01 +2.0023065947e+01 +1.5721701836e+01 3.1886055972e+01 0.0000000000e+00 0.0000e+00 -1.0000e+00
</event>
<event>
 5      2 +1.7896800e-02 9.11880000e+01 7.81616400e-03 1.18400000e-01
      -11 -1    0    0    0    0 +0.0000000000e+00 +0.0000000000e+00 +4.5593999997e+01 4.5594000000e+01 5.1100000000e-04 0.0000e+00 -1.0000e+00
       11 -1    0    0    0    0 -0.0000000000e+00 -0.0000000000e+00 -4.5593999997e+01 4.5594000000e+01 5.1100000000e-04 0.0000e+00 1.0000e+00
       23  2    1    2    0    0 +0.0000000000e+00 +0.0000000000e+00 +0.0000000000e+00 9.1188000000e+01 9.1188000000e+01 2.2710e-14 0.0000e+00
  9900012  1    3    3    0    0 -1.9506873368e+01 +2.3683619832e+01 +8.6769008614e+00 5.9301944028e+01 5.0000000000e+01 1.2927e-03 -1.0000e+00
      -12  1    3    3    0    0 +1.9506873368e+01 -2.3683619832e+01 -8.6769008614e+00 3.1886055972e+01 0.0000000000e+00 0.0000e+00 1.0000e+00
</event>
<event>
 5      3 +1.7896800e-02 9.11880000e+01 7.81616400e-03 1.18400000e-01
      -11 -1    0    0    0    0 +0.0000000000e+00 +0.0000000000e+00 +4.5593999997e+01 4.5594000000e+01 5.1100000000e-04 0.0000e+00 -1.0000e+00
       11 -1    0    0    0    0 -0.0000000000e+00 -0.0000000000e+00 -4.5593999997e+01 4.5594000000e+01 5.1100000000e-04 0.0000e+00 1.0000e+00
       23  2    1    2    0    0 +0.0000000000e+00 +0.0000000000e+00 +0.0000000000e+00 9.1188000000e+01 9.1188000000e+01 4.4608e-15 0.0000e+00
  9900012  1    3    3    0    0 +5.5034234385e+00 +2.9927001956e+01 +9.5292942986e+00 5.9301944028e+01 5.0000000000e+01 1.0088e-03 1.0000e+00
       12  1    3    3    0    0 -5.5034234385e+00 -2.9927001956e+01 -9.5292942986e+00 3.1886055972e+01 0.0000000000e+00 0.0000e+00 -1.0000e+00
</event>
<event>
 5      3 +1.7896800e-02 9.11880000e+01 7.81616400e-03 1.18400000e-01
      -11 -1    0    0    0    0 +0.0000000000e+00 +0.0000000000e+00 +4.5593999997e+01 4.5594000000e+01 5.1100000000e-04 0.0000e+00 1.0000e+00
       11 -1    0    0    0    0 -0.0000000000e+00 -0.0000000000e+00 -4.5593999997e+01 4.5594000000e+01 5.1100000000e-04 0.0000e+00 -1.0000e+00
       23  2    1    2    0    0 +0.0000000000e+00 +0.0000000000e+00 +0.0000000000e+00 9.1188000000e+01 9.1188000000e+01 1.3095e-13 0.0000e+00
  9900012  1    3    3    0    0 -2.5056808446e+01 -1.1764151600e+01 +1.5826612180e+01 5.9301944028e+01 5.0000000000e+01 1.5630e-04 1.0000e+00
       12  1    3    3    0    0 +2.5056808446e+01 +1.1764151600e+01 -1.5826612180e+01 3.1886055972e+01 0.0000000000e+00 0.0000e+00 -1.0000e+00
</event>
<event>
 5      3 +1.7896800e-02 9.11880000e+01 7.81616400e-03 1.18400000e-01
      -11 -1    0    0    0    0 +0.0000000000e+00 +0.0000000000e+00 +4.5593999997e+01 4.5594000000e+01 5.1100000000e-04 0.0000e+00 -1.0000e+00
       11 -1    0    0    0    0 -0.0000000000e+00 -0.0000000000e+00 -4.5593999997e+01 4.5594000000e+01 5.1100000000e-04 0.0000e+00 1.0000e+00
       23  2    1    2    0    0 +0.0000000000e+00 +0.0000000000e+00 +0.0000000000e+00 9.1188000000e+01 9.1188000000e+01 7.9122e-14 0.0000e+00
  9900012  1    3    3    0    0 -7.0152498914e+00 -1.6451452933e+01 -2.6398040284e+01 5.9301944028e+01 5.0000000000e+01 5.2365e-04 1.0000e+00
       12  1    3    3    0    0 +7.0152498914e+00 +1.6451452933e+01 +2.6398040284e+01 3.1886055972e+01 0.0000000000e+00 0.0000e+00 -1.0000e+00
</event>
<event>
 5      3 +1.7896800e-02 9.11880000e+01 7.81616400e-03 1.18400000e-01
      -11 -1    0    0    0    0 +0.0000000000e+00 +0.0000000000e+00 +4.5593999997e+01 4.5594000000e+01 5.1100000000e-04 0.0000e+00 1.0000e+00
       11 -1    0    0    0    0 -0.0000000000e+00 -0.0000000000e+00 -4.5593999997e+01 4.5594000000e+01 5.1100000000e-04 0.0000e+00 -1.0000e+00
       23  2    1    2    0    0 +0.0000000000e+00 +0.0000000000e+00 +0.0000000000e+00 9.1188000000e+01 9.1188000000e+01 6.6283e-14 0.0000e+00
  9900012  1    3    3    0    0 +2.6136064120e+01 +8.6879074437e+00 +1.6066953103e+01 5.9301944028e+01 5.0000000000e+01 3.7514e-04 1.0000e+00
       12  1    3    3    0    0 -2.6136064120e+01 -8.6879074437e+00 -1.6066953103e+01 3.1886055972e+01 0.0000000000e+00 0.0000e+00 -1.0000e+00
</event>
<event>
 5      6 +1.7896800e-02 9.11880000e+01 7.81616400e-03 1.18400000e-01
      -11 -1    0    0    0    0 +0.0000000000e+00 +0.0000000000e+00 +4.5593999997e+01 4.5594000000e+01 5.1100000000e-04 0.0000e+00 -1.0000e+00
       11 -1    0    0    0    0 -0.0000000000e+00 -0.0000000000e+00 -4.5593999997e+01 4.5594000000e+01 5.1100000000e-04 0.0000e+00 1.0000e+00
       23  2    1    2    0    0 +0.0000000000e+00 +0.0000000000e+00 +0.0000000000e+00 9.1188000000e+01 9.1188000000e+01 1.1050e-13 0.0000e+00
  9900012  1    3    3    0    0 -1.8785029297e+01 -4.6522324559e+00 +2.5341664763e+01 5.9301944028e+01 5.0000000000e+01 6.9505e-04 -1.0000e+00
      -12  1    3    3    0    0 +1.8785029297e+01 +4.6522324559e+00 -2.5341664763e+01 3.1886055972e+01 0.0000000000e+00 0.0000e+00 1.0000e+00
</event>
<event>
 5      3 +1.7896800e-02 9.11880000e+01 7.81616400e-03 1.18400000e-01
      -11 -1    0    0    0    0 +0.0000000000e+00 +0.0000000000e+00 +4.5593999997e+01 4.5594000000e+01 5.1100000000e-04 0.0000e+00 1.0000e+00
       11 -1    0    0    0    0 -0.0000000000e+00 -0.0000000000e+00 -4.5593999997e+01 4.5594000000e+01 5.1100000000e-04 0.0000e+00 -1.0000e+00
       23  2    1    2    0    0 +0.0000000000e+00 +0.0000000000e+00 +0.0000000000e+00 9.1188000000e+01 9.1188000000e+01 1.1046e-14 0.0000e+00
  9900012  1    3    3    0    0 -6.0979305639e+00 -8.1207310253e+00 -3.0225643681e+01 5.9301944028e+01 5.0000000000e+01 1.4891e-04 -1.0000e+00
       12  1    3    3    0    0 +6.0979305639e+00 +8.1207310253e+00 +3.0225643681e+01 3.1886055972e+01 0.0000000000e+00 0.0000e+00 -1.0000e+00
</event>
<event>
 5      3 +1.7896800e-02 9.11880000e+01 7.81616400e-03 1.18400000e-01
      -11 -1    0    0    0    0 +0.0000000000e+00 +0.0000000000e+00 +4.5593999997e+01 4.5594000000e+01 5.1100000000e-04 0.0000e+00 1.0000e+00
       11 -1    0    0    0    0 -0.0000000000e+00 -0.0000000000e+00 -4.5593999997e+01 4.5594000000e+01 5.1100000000e-04 0.0000e+00 -1.0000e+00
       23  2    1    2    0    0 +0.0000000000e+00 +0.0000000000e+00 +0.0000000000e+00 9.1188000000e+01 9.1188000000e+01 3.7048e-14 0.0000e+00
  9900012  1    3    3    0    0 +3.1928898529e-01 -1.4299244064e+01 +2.8498249757e+01 5.9301944028e+01 5.0000000000e+01 1.2288e-03 1.0000e+00
       12  1    3    3    0    0 -3.1928898529e-01 +1.4299244064e+01 -2.8498249757e+01 3.1886055972e+01 0.0000000000e+00 0.0000e+00 -1.0000e+00
</event>
<event>
 5      3 +1.7896800e-02 9.11880000e+01 7.81616400e-03 1.18400000e-01
      -11 -1    0    0    0    0 +0.0000000000e+00 +0.0000000000e+00 +4.5593999997e+01 4.5594000000e+01 5.1100000000e-04 0.0000e+00 1.0000e+00
       11 -1    0    0    0    0 -0.0000000000e+00 -0.0000000000e+00 -4.5593999997e+01 4.5594000000e+01 5.1100000000e-04 0.0000e+00 -1.0000e+00
       23  2    1    2    0    0 +0.0000000000e+00 +0.0000000000e+00 +0.0000000000e+00 9.1188000000e+01 9.1188000000e+01 4.2734e-14 0.0000e+00
  9900012  1    3    3    0    0 -6.6061341130e+00 +5.9362303274e+00 +3.0624185329e+01 5.9301944028e+01 5.0000000000e+01 8.1492e-04 1.0000e+00
       12  1    3    3    0    0 +6.6061341130e+00 -5.9362303274e+00 -3.0624185329e+01 3.1886055972e+01 0.0000000000e+00 0.0000e+00 -1.0000e+00
</event>
<event>
 5      5 +1.7896800e-02 9.11880000e+01 7.81616400e-03 1.18400000e-01
      -11 -1    0    0    0    0 +0.0000000000e+00 +0.0000000000e+00 +4.5593999997e+01 4.5594000000e+01 5.1100000000e-04 0.0000e+00 -1.0000e+00
       11 -1    0    0    0    0 -0.0000000000e+00 -0.0000000000e+00 -4.5593999997e+01 4.5594000000e+01 5.1100000000e-04 0.0000e+00 1.0000e+00
       23  2    1    2    0    0 +0.0000000000e+00 +0.0000000000e+00 +0.0000000000e+00 9.1188000000e+01 9.1188000000e+01 1.3929e-13 0.0000e+00
  9900012  1    3    3    0    0 -2.4026186044e+01 -3.8005101960e+00 -2.0615990685e+01 5.9301944028e+01 5.0000000000e+01 8.3112e-04 1.0000e+00
       12  1    3    3    0    0 +2.4026186044e+01 +3.8005101960e+00 +2.0615990685e+01 3.1886055972e+01 0.0000000000e+00 0.0000e+00 -1.0000e+00
</event>
<event>
 5      6 +1.7896800e-02 9.11880000e+01 7.81616400e-03 1.18400000e-01
      -11 -1    0    0    0    0 +0.0000000000e+00 +0.0000000000e+00 +4.5593999997e+01 4.5594000000e+01 5.1100000000e-04 0.0000e+00 -1.0000e+00
       11 -1    0    0    0    0 -0.0000000000e+00 -0.0000000000e+00 -4.5593999997e+01 4.5594000000e+01 5.1100000000e-04 0.0000e+00 1.0000e+00
       23  2    1    2    0    0 +0.0000000000e+00 +0.0000000000e+00 +0.0000000000e+00 9.1188000000e+01 9.1188000000e+01 2.8729e-14 0.0000e+00
  9900012  1    3    3    0    0 -6.9459794772e+00 -2.9126271229e+01 +1.0960577488e+01 5.9301944028e+01 5.0000000000e+01 1.4457e-03 -1.0000e+00
      -12  1    3    3    0    0 +6.9459794772e+00 +2.9126271229e+01 -1.0960577488e+01 3.1886055972e+01 0.0000000000e+00 0.0000e+00 1.0000e+00
</event>
<event>
 5      6 +1.7896800e-02 9.11880000e+01 7.81616400e-03 1.18400000e-01
      -11 -1    0    0    0    0 +0.0000000000e+00 +0.0000000000e+00 +4.5593999997e+01 4.5594000000e+01 5.1100000000e-04 0.0000e+00 1.0000e+00
       11 -1    0    0    0    0 -0.0000000000e+00 -0.0000000000e+00 -4.5593999997e+01 4.5594000000e+01 5.1100000000e-04 0.0000e+00 -1.0000e+00
       23  2    1    2    0    0 +0.0000000000e+00 +0.0000000000e+00 +0.0000000000e+00 9.1188000000e+01 9.1188000000e+01 2.4732e-14 0.0000e+00
  9900012  1    3    3    0    0 +2.6102939041e+01 -1.8291511153e+01 +8.8190623871e-01 5.9301944028e+01 5.0000000000e+01 6.3445e-04 -1.0000e+00
      -12  1    3    3    0    0 -2.6102939041e+01 +1.8291511153e+01 -8.8190623871e-01 3.1886055972e+01 0.0000000000e+00 0.0000e+00 1.0000e+00
</event>
<event>
 5      4 +1.7896800e-02 9.11880000e+01 7.81616400e-03 1.18400000e-01
      -11 -1    0    0    0    0 +0.0000000000e+00 +0.0000000000e+00 +4.5593999997e+01 4.5594000000e+01 5.1100000000e-04 0.0000e+00 -1.0000e+00
       11 -1    0    0    0    0 -0.0000000000e+00 -0.0000000000e+00 -4.5593999997e+01 4.5594000000e+01 5.1100000000e-04 0.0000e+00 1.0000e+00
       23  2    1    2    0    0 +0.0000000000e+00 +0.0000000000e+00 +0.0000000000e+00 9.1188000000e+01 9.1188000000e+01 3.0168e-14 0.0000e+00
  9900012  1    3    3    0    0 +2.0194011724e+01 +2.2629739422e+01 +9.8395807655e+00 5.9301944028e+01 5.0000000000e+01 1.1235e-03 -1.0000e+00
      -12  1    3    3    0    0 -2.0194011724e+01 -2.2629739422e+01 -9.8395807655e+00 3.1886055972e+01 0.0000000000e+00 0.0000e+00 1.0000e+00
</event>
<event>
 5      3 +1.7896800e-02 9.11880000e+01 7.81616400e-03 1.18400000e-01
      -11 -1    0    0    0    0 +0.0000000000e+00 +0.0000000000e+00 +4.5593999997e+01 4.5594000000e+01 5.1100000000e-04 0.0000e+00 1.0000e+00
       11 -1    0    0    0    0 -0.0000000000e+00 -0.0000000000e+00 -4.5593999997e+01 4.5594000000e+01 5.1100000000e-04 0.0000e+00 -1.0000e+00
       23  2    1    2    0    0 +0.0000000000e+00 +0.0000000000e+00 +0.0000000000e+00 9.1188000000e+01 9.1188000000e+01 7.9352e-14 0.0000e+00
  9900012  1    3    3    0    0 -1.1970368737e+01 -2.1041937661e+00 +2.9478860330e+01 5.9301944028e+01 5.0000000000e+01 2.3259e-04 1.0000e+00
       12  1    3    3    0    0 +1.1970368737e+01 +2.1041937661e+00 -2.9478860330e+01 3.1886055972e+01 0.0000000000e+00 0.0000e+00 -1.0000e+00
</event>
<event>
 5      3 +1.7896800e-02 9.11880000e+01 7.81616400e-03 1.18400000e-01
      -11 -1    0    0    0    0 +0.0000000000e+00 +0.0000000000e+00 +4.5593999997e+01 4.5594000000e+01 5.1100000000e-04 0.0000e+00 -1.0000e+00
       11 -1    0    0    0    0 -0.0000000000e+00 -0.0000000000e+00 -4.5593999997e+01 4.5594000000e+01 5.1100000000e-04 0.0000e+00 1.0000e+00
       23  2    1    2    0    0 +0.0000000000e+00 +0.0000000000e+00 +0.0000000000e+00 9.1188000000e+01 9.1188000000e+01 2.6177e-14 0.0000e+00
  9900012  1    3    3    0    0 +1.3628814445e+01 +2.7100675917e+01 -9.8249349685e+00 5.9301944028e+01 5.0000000000e+01 5.8627e-04 1.0000e+00
       12  1    3    3    0    0 -1.3628814445e+01 -2.7100675917e+01 +9.8249349685e+00 3.1886055972e+01 0.0000000000e+00 0.0000e+00 -1.0000e+00
</event>
<event>
 5      3 +1.7896800e-02 9.11880000e+01 7.81616400e-03 1.18400000e-01
      -11 -1    0    0    0    0 +0.0000000000e+00 +0.0000000000e+00 +4.5593999997e+01 4.5594000000e+01 5.1100000000e-04 0.0000e+00 1.0000e+00
       11 -1    0    0    0    0 -0.0000000000e+00 -0.0000000000e+00 -4.5593999997e+01 4.5594000000e+01 5.1100000000e-04 0.0000e+00 -1.0000e+00
       23  2    1    2    0    0 +0.0000000000e+00 +0.0000000000e+00 +0.0000000000e+00 9.1188000000e+01 9.1188000000e+01 9.5222e-14 0.0000e+00
  9900012  1    3    3    0    0 -1.5877945050e+01 +2.7491397433e+01 -2.9722876092e+00 5.9301944028e+01 5.0000000000e+01 1.0695e-03 -1.0000e+00
       12  1    3    3    0    0 +1.5877945050e+01 -2.7491397433e+01 +2.9722876092e+00 3.1886055972e+01 0.0000000000e+00 0.0000e+00 -1.0000e+00
</event>
<event>
 5      1 +1.7896800e-02 9.11880000e+01 7.81616400e-03 1.18400000e-01
      -11 -1    0    0    0    0 +0.0000000000e+00 +0.0000000000e+00 +4.5593999997e+01 4.5594000000e+01 5.1100000000e-04 0.0000e+00 -1.0000e+00
       11 -1    0    0    0    0 -0.0000000000e+00 -0.0000000000e+00 -4.5593999997e+01 4.5594000000e+01 5.1100000000e-04 0.0000e+00 1.0000e+00
       23  2    1    2    0    0 +0.0000000000e+00 +0.0000000000e+00 +0.0000000000e+00 9.1188000000e+01 9.1188000000e+01 1.3041e-13 0.0000e+00
  9900012  1    3    3    0    0 +1.4719718440e+00 +2.0767347134e+01 -2.4151007378e+01 5.9301944028e+01 5.0000000000e+01 4.3926e-03 1.0000e+00
       12  1    3    3    0    0 -1.4719718440e+00 -2.0767347134e+01 +2.4151007378e+01 3.1886055972e+01 0.0000000000e+00 0.0000e+00 -1.0000e+00
</event>
<event>
 5      1 +1.7896800e-02 9.11880000e+01 7.81616400e-03 1.18400000e-01
      -11 -1    0    0    0    0 +0.0000000000e+00 +0.0000000000e+00 +4.5593999997e+01 4.5594000000e+01 5.1100000000e-04 0.0000e+00 1.0000e+00
       11 -1    0    0    0    0 -0.0000000000e+00 -0.0000000000e+00 -4.5593999997e+01 4.5594000000e+01 5.1100000000e-04 0.0000e+00 -1.0000e+00
       23  2    1    2    0    0 +0.0000000000e+00 +0.0000000000e+00 +0.0000000000e+00 9.1188000000e+01 9.1188000000e+01 3.2568e-14 0.0000e+00
  9900012  1    3    3    0    0 -9.0812361895e-01 +2.8490302287e+01 -1.4289805896e+01 5.9301944028e+01 5.0000000000e+01 1.4151e-03 -1.0000e+00
       12  1    3    3    0    0 +9.0812361895e-01 -2.8490302287e+01 +1.4289805896e+01 3.1886055972e+01 0.0000000000e+00 0.0000e+00 -1.0000e+00
</event>
<event>
 5      4 +1.7896800e-02 9.11880000e+01 7.81616400e-03 1.18400000e-01
      -11 -1    0    0    0    0 +0.0000000000e+00 +0.0000000000e+00 +4.5593999997e+01 4.5594000000e+01 5.1100000000e-04 0.0000e+00 1.0000e+00
       11 -1    0    0    0    0 -0.0000000000e+00 -0.0000000000e+00 -4.5593999997e+01 4.5594000000e+01 5.1100000000e-04 0.0000e+00 -1.0000e+00
       23  2    1    2    0    0 +0.0000000000e+00 +0.0000000000e+00 +0.0000000000e+00 9.1188000000e+01 9.1188000000e+01 2.5601e-14 0.0000e+00
  9900012  1    3    3    0    0 -7.5785230868e-01 +2.2451452655e+01 -2.2629151531e+01 5.9301944028e+01 5.0000000000e+01 1.1204e-03 -1.0000e+00
      -12  1    3    3    0    0 +7.5785230868e-01 -2.2451452655e+01 +2.2629151531e+01 3.1886055972e+01 0.0000000000e+00 0.0000e+00 1.0000e+00
</event>
<event>
 5      4 +1.7896800e-02 9.11880000e+01 7.81616400e-03 1.18400000e-01
      -11 -1    0    0    0    0 +0.0000000000e+00 +0.0000000000e+00 +4.5593999997e+01 4.5594000000e+01 5.1100000000e-04 0.0000e+00 -1.0000e+00
       11 -1    0    0    0    0 -0.0000000000e+00 -0.0000000000e+00 -4.5593999997e+01 4.5594000000e+01 5.1100000000e-04 0.0000e+00 1.0000e+00
       23  2    1    2    0    0 +0.0000000000e+00 +0.0000000000e+00 +0.0000000000e+00 9.1188000000e+01 9.1188000000e+01 1.4707e-13 0.0000e+00
  9900012  1    3    3    0    0 +3.0400140900e+01 -9.1639813062e+00 -2.9280446286e+00 5.9301944028e+01 5.0000000000e+01 7.0926e-04 -1.0000e+00
      -12  1    3    3    0    0 -3.0400140900e+01 +9.1639813062e+00 +2.9280446286e+00 3.1886055972e+01 0.0000000000e+00 0.0000e+00 1.0000e+00
</event>
<event>
 5      6 +1.7896800e-02 9.11880000e+01 7.81616400e-03 1.18400000e-01
      -11 -1    0    0    0    0 +0.0000000000e+00 +0.0000000000e+00 +4.5593999997e+01 4.5594000000e+01 5.1100000000e-04 0.0000e+00 1.0000e+00
       11 -1    0    0    0    0 -0.0000000000e+00 -0.0000000000e+00 -4.5593999997e+01 4.5594000000e+01 5.1100000000e-04 0.0000e+00 -1.0000e+00
       23  2    1    2    0    0 +0.0000000000e+00 +0.0000000000e+00 +0.0000000000e+00 9.1188000000e+01 9.1188000000e+01 1.3557e-13 0.0000e+00
  9900012  1    3    3    0    0 +2.2537490245e+01 -1.5421521713e+00 -2.2503418976e+01 5.9301944028e+01 5.0000000000e+01 1.3895e-03 -1.0000e+00
      -12  1    3    3    0    0 -2.2537490245e+01 +1.5421521713e+00 +2.2503418976e+01 3.1886055972e+01 0.0000000000e+00 0.0000e+00 1.0000e+00
</event>
<event>
 5      6 +1.7896800e-02 9.11880000e+01 7.81616400e-03 1.18400000e-01
      -11 -1    0    0    0    0 +0.0000000000e+00 +0.0000000000e+00 +4.5593999997e+01 4.5594000000e+01 5.1100000000e-04 0.0000e+00 1.0000e+00
       11 -1    0    0    0    0 -0.0000000000e+00 -0.0000000000e+00 -4.5593999997e+01 4.5594000000e+01 5.1100000000e-04 0.0000e+00 -1.0000e+00
       23  2    1    2    0    0 +0.0000000000e+00 +0.0000000000e+00 +0.0000000000e+00 9.1188000000e+01 9.1188000000e+01 1.3656e-13 0.0000e+00
  9900012  1    3    3    0    0 +7.5770824637e+00 -1.3039751434e+01 -2.8094007712e+01 5.9301944028e+01 5.0000000000e+01 1.0852e-04 -1.0000e+00
      -12  1    3    3    0    0 -7.5770824637e+00 +1.3039751434e+01 +2.8094007712e+01 3.1886055972e+01 0.0000000000e+00 0.0000e+00 1.0000e+00
</event>
<event>
 5      7 +1.7896800e-02 9.11880000e+01 7.81616400e-03 1.18400000e-01
      -11 -1    0    0    0    0 +0.0000000000e+00 +0.0000000000e+00 +4.5593999997e+01 4.5594000000e+01 5.1100000000e-04 0.0000e+00 -1.0000e+00
       11 -1    0    0    0    0 -0.0000000000e+00 -0.0000000000e+00 -4.5593999997e+01 4.5594000000e+01 5.1100000000e-04 0.0000e+00 1.0000e+00
       23  2    1    2    0    0 +0.0000000000e+00 +0.0000000000e+00 +0.0000000000e+00 9.1188000000e+01 9.1188000000e+01 1.3417e-13 0.0000e+00
  9900012  1    3    3    0    0 +2.3877998744e+01 -2.1112122466e+01 -9.1652955962e-01 5.9301944028e+01 5.0000000000e+01 2.1641e-04 1.0000e+00
       12  1    3    3    0    0 -2.3877998744e+01 +2.1112122466e+01 +9.1652955962e-01 3.1886055972e+01 0.0000000000e+00 0.0000e+00 -1.0000e+00
</event>
<event>
 5      4 +1.7896800e-02 9.11880000e+01 7.81616400e-03 1.18400000e-01
      -11 -1    0    0    0    0 +0.0000000000e+00 +0.0000000000e+00 +4.5593999997e+01 4.5594000000e+01 5.1100000000e-04 0.0000e+00 1.0000e+00
       11 -1    0    0    0    0 -0.0000000000e+00 -0.0000000000e+00 -4.5593999997e+01 4.5594000000e+01 5.1100000000e-04 0.0000e+00 -1.0000e+00
       23  2    1    2    0    0 +0.0000000000e+00 +0.0000000000e+00 +0.0000000000e+00 9.1188000000e+01 9.1188000000e+01 5.6994e-14 0.0000e+00
  9900012  1    3    3    0    0 -2.4917193240e+01 -4.9318031734e+00 -1.9275148870e+01 5.9301944028e+01 5.0000000000e+01 1.2038e-03 -1.0000e+00
      -12  1    3    3    0    0 +2.4917193240e+01 +4.9318031734e+00 +1.9275148870e+01 3.1886055972e+01 0.0000000000e+00 0.0000e+00 1.0000e+00
</event>
<event>
 5      2 +1.7896800e-02 9.11880000e+01 7.81616400e-03 1.18400000e-01
      -11 -1    0    0    0    0 +0.0000000000e+00 +0.0000000000e+00 +4.5593999997e+01 4.5594000000e+01 5.1100000000e-04 0.0000e+00 -1.0000e+00
       11 -1    0    0    0    0 -0.0000000000e+00 -0.0000000000e+00 -4.5593999997e+01 4.5594000000e+01 5.1100000000e-04 0.0000e+00 1.0000e+00
       23  2    1    2    0    0 +0.0000000000e+00 +0.0000000000e+00 +0.0000000000e+00 9.1188000000e+01 9.1188000000e+01 3.2657e-14 0.0000e+00
  9900012  1    3    3    0    0 -1.1257207492e+01 -1.6635827754e+01 +2.4763785653e+01 5.9301944028e+01 5.0000000000e+01 4.9341e-05 -1.0000e+00
      -12  1    3    3    0    0 +1.1257207492e+01 +1.6635827754e+01 -2.4763785653e+01 3.1886055972e+01 0.0000000000e+00 0.0000e+00 1.0000e+00
</event>
<event>
 5      8 +1.7896800e-02 9.11880000e+01 7.81616400e-03 1.18400000e-01
      -11 -1    0    0    0    0 +0.0000000000e+00 +0.0000000000e+00 +4.5593999997e+01 4.5594000000e+01 5.1100000000e-04 0.0000e+00 -1.0000e+00
       11 -1    0    0    0    0 -0.0000000000e+00 -0.0000000000e+00 -4.5593999997e+01 4.5594000000e+01 5.1100000000e-04 0.0000e+00 1.0000e+00
       23  2    1    2    0    0 +0.0000000000e+00 +0.0000000000e+00 +0.0000000000e+00 9.1188000000e+01 9.1188000000e+01 1.0876e-13 0.0000e+00
  9900012  1    3    3    0    0 +1.9738207463e+01 +3.7826888560e+00 +2.4755100416e+01 5.9301944028e+01 5.0000000000e+01 9.5729e-04 -1.0000e+00
      -12  1    3    3    0    0 -1.9738207463e+01 -3.7826888560e+00 -2.4755100416e+01 3.1886055972e+01 0.0000000000e+00 0.0000e+00 1.0000e+00
</event>
<event>
 5      5 +1.7896800e-02 9.11880000e+01 7.81616400e-03 1.18400000e-01
      -11 -1    0    0    0    0 +0.0000000000e+00 +0.0000000000e+00 +4.5593999997e+01 4.5594000000e+01 5.1100000000e-04 0.0000e+00 -1.0000e+00
       11 -1    0    0    0    0 -0.0000000000e+00 -0.0000000000e+00 -4.5593999997e+01 4.5594000000e+01 5.1100000000e-04 0.0000e+00 1.0000e+00
       23  2    1    2    0    0 +0.0000000000e+00 +0.0000000000e+00 +0.0000000000e+00 9.1188000000e+01 9.1188000000e+01 1.0087e-13 0.0000e+00
  9900012  1    3    3    0    0 -2.3326707827e+01 +9.8196674308e+00 +1.9394829181e+01 5.9301944028e+01 5.0000000000e+01 6.1510e-04 1.0000e+00
       12  1    3    3    0    0 +2.3326707827e+01 -9.8196674308e+00 -1.9394829181e+01 3.1886055972e+01 0.0000000000e+00 0.0000e+00 -1.0000e+00
</event>
<event>
 5      4 +1.7896800e-02 9.11880000e+01 7.81616400e-03 1.18400000e-01
      -11 -1    0    0    0    0 +0.0000000000e+00 +0.0000000000e+00 +4.5593999997e+01 4.5594000000e+01 5.1100000000e-04 0.0000e+00 1.0000e+00
       11 -1    0    0    0    0 -0.0000000000e+00 -0.0000000000e+00 -4.5593999997e+01 4.5594000000e+01 5.1100000000e-04 0.0000e+00 -1.0000e+00
       23  2    1    2    0    0 +0.0000000000e+00 +0.0000000000e+00 +0.0000000000e+00 9.1188000000e+01 9.1188000000e+01 3.0048e-14 0.0000e+00
  9900012  1    3    3    0    0 -7.7388680998e+00 -2.1055235361e+01 -2.2660704973e+01 5.9301944028e+01 5.0000000000e+01 3.8964e-04 -1.0000e+00
      -12  1    3    3    0    0 +7.7388680998e+00 +2.1055235361e+01 +2.2660704973e+01 3.1886055972e+01 0.0000000000e+00 0.0000e+00 1.0000e+00
</event>
<event>
 5      4 +1.7896800e-02 9.11880000e+01 7.81616400e-03 1.18400000e-01
      -11 -1    0    0    0    0 +0.0000000000e+00 +0.0000000000e+00 +4.5593999997e+01 4.5594000000e+01 5.1100000000e-04 0.0000e+00 -1.0000e+00
       11 -1    0    0    0    0 -0.0000000000e+00 -0.0000000000e+00 -4.5593999997e+01 4.5594000000e+01 5.1100000000e-04 0.0000e+00 1.0000e+00
       23  2    1    2    0    0 +0.0000000000e+00 +0.0000000000e+00 +0.0000000000e+00 9.1188000000e+01 9.1188000000e+01 5.6787e-14 0.0000e+00
  9900012  1    3    3    0    0 +3.1042735751e+00 -1.5319754671e+00 +3.1697588271e+01 5.9301944028e+01 5.0000000000e+01 1.4038e-04 -1.0000e+00
      -12  1    3    3    0    0 -3.1042735751e+00 +1.5319754671e+00 -3.1697588271e+01 3.1886055972e+01 0.0000000000e+00 0.0000e+00 1.0000e+00
</event>
<event>
 5      3 +1.7896800e-02 9.11880000e+01 7.81616400e-03 1.18400000e-01
      -11 -1    0    0    0    0 +0.0000000000e+00 +0.0000000000e+00 +4.5593999997e+01 4.5594000000e+01 5.1100000000e-04 0.0000e+00 -1.0000e+00
       11 -1    0    0    0    0 -0.0000000000e+00 -0.0000000000e+00 -4.5593999997e+01 4.5594000000e+01 5.1100000000e-04 0.0000e+00 1.0000e+00
       23  2    1    2    0    0 +0.0000000000e+00 +0.0000000000e+00 +0.0000000000e+00 9.1188000000e+01 9.1188000000e+01 5.5601e-14 0.0000e+00
  9900012  1    3    3    0    0 -2.9349705142e+01 -1.2353228277e+01 -1.6471565482e+00 5.9301944028e+01 5.0000000000e+01 3.2077e-06 1.0000e+00
       12  1    3    3    0    0 +2.9349705142e+01 +1.2353228277e+01 +1.6471565482e+00 3.1886055972e+01 0.0000000000e+00 0.0000e+00 -1.0000e+00
</event>
<event>
 5      3 +1.7896800e-02 9.11880000e+01 7.81616400e-03 1.18400000e-01
      -11 -1    0    0    0    0 +0.0000000000e+00 +0.0000000000e+00 +4.5593999997e+01 4.5594000000e+01 5.1100000000e-04 0.0000e+00 1.0000e+00
       11 -1    0    0    0    0 -0.0000000000e+00 -0.0000000000e+00 -4.5593999997e+01 4.5594000000e+01 5.1100000000e-04 0.0000e+00 -1.0000e+00
       23  2    1    2    0    0 +0.0000000000e+00 +0.0000000000e+00 +0.0000000000e+00 9.1188000000e+01 9.1188000000e+01 1.6687e-14 0.0000e+00
  9900012  1    3    3    0    0 +1.0343806571e+01 -2.2598790419e+01 +1.9975507570e+01 5.9301944028e+01 5.0000000000e+01 6.3466e-04 1.0000e+00
       12  1    3    3    0    0 -1.0343806571e+01 +2.2598790419e+01 -1.9975507570e+01 3.1886055972e+01 0.0000000000e+00 0.0000e+00 -1.0000e+00
</event>
<event>
 5      5 +1.7896800e-02 9.11880000e+01 7.81616400e-03 1.18400000e-01
      -11 -1    0    0    0    0 +0.0000000000e+00 +0.0000000000e+00 +4.5593999997e+01 4.5594000000e+01 5.1100000000e-04 0.0000e+00 1.0000e+00
       11 -1    0    0    0    0 -0.0000000000e+00 -0.0000000000e+00 -4.5593999997e+01 4.5594000000e+01 5.1100000000e-04 0.0000e+00 -1.0000e+00
       23  2    1    2    0    0 +0.0000000000e+00 +0.0000000000e+00 +0.0000000000e+00 9.1188000000e+01 9.1188000000e+01 5.3539e-14 0.0000e+00
  9900012  1    3    3    0    0 -1.2186113969e+01 +2.1196047292e+01 +2.0468189245e+01 5.9301944028e+01 5.0000000000e+01 2.8708e-04 1.0000e+00
       12  1    3    3    0    0 +1.2186113969e+01 -2.1196047292e+01 -2.0468189245e+01 3.1886055972e+01 0.0000000000e+00 0.0000e+00 -1.0000e+00
</event>
<event>
 5      6 +1.7896800e-02 9.11880000e+01 7.81616400e-03 1.18400000e-01
      -11 -1    0    0    0    0 +0.0000000000e+00 +0.0000000000e+00 +4.5593999997e+01 4.5594000000e+01 5.1100000000e-04 0.0000e+00 1.0000e+00
       11 -1    0    0    0    0 -0.0000000000e+00 -0.0000000000e+00 -4.5593999997e+01 4.5594000000e+01 5.1100000000e-04 0.0000e+00 -1.0000e+00
       23  2    1    2    0    0 +0.0000000000e+00 +0.0000000000e+00 +0.0000000000e+00 9.1188000000e+01 9.1188000000e+01 2.5012e-14 0.0000e+00
  9900012  1    3    3    0    0 +2.0528402457e+00 -1.5622758801e+01 -2.7720674953e+01 5.9301944028e+01 5.0000000000e+01 3.4051e-04 -1.0000e+00
      -12  1    3    3    0    0 -2.0528402457e+00 +1.5622758801e+01 +2.7720674953e+01 3.1886055972e+01 0.0000000000e+00 0.0000e+00 1.0000e+00
</event>
<event>
 5      5 +1.7896800e-02 9.11880000e+01 7.81616400e-03 1.18400000e-01
      -11 -1    0    0    0    0 +0.0000000000e+00 +0.0000000000e+00 +4.5593999997e+01 4.5594000000e+01 5.1100000000e-04 0.0000e+00 1.0000e+00
       11 -1    0    0    0    0 -0.0000000000e+00 -0.0000000000e+00 -4.5593999997e+01 4.5594000000e+01 5.1100000000e-04 0.0000e+00 -1.0000e+00
       23  2    1    2    0    0 +0.0000000000e+00 +0.0000000000e+00 +0.0000000000e+00 9.1188000000e+01 9.1188000000e+01 3.7829e-14 0.0000e+00
  9900012  1    3    3    0    0 -1.5630890543e+01 +1.9192350655e+01 +2.0100982629e+01 5.9301944028e+01 5.0000000000e+01 2.6144e-03 1.0000e+00
       12  1    3    3    0    0 +1.5630890543e+01 -1.9192350655e+01 -2.0100982629e+01 3.1886055972e+01 0.0000000000e+00 0.0000e+00 -1.0000e+00
</event>
<event>
 5      1 +1.7896800e-02 9.11880000e+01 7.81616400e-03 1.18400000e-01
      -11 -1    0    0    0    0 +0.0000000000e+00 +0.0000000000e+00 +4.5593999997e+01 4.5594000000e+01 5.1100000000e-04 0.0000e+00 1.0000e+00
       11 -1    0    0    0    0 -0.0000000000e+00 -0.0000000000e+00 -4.5593999997e+01 4.5594000000e+01 5.1100000000e-04 0.0000e+00 -1.0000e+00
       23  2    1    2    0    0 +0.0000000000e+00 +0.0000000000e+00 +0.0000000000e+00 9.1188000000e+01 9.1188000000e+01 1.4409e-14 0.0000e+00
  9900012  1    3    3    0    0 +4.3661171662e-02 +2.4051286042e+01 +2.0934524091e+01 5.9301944028e+01 5.0000000000e+01 6.2846e-04 1.0000e+00
       12  1    3    3    0    0 -4.3661171662e-02 -2.4051286042e+01 -2.0934524091e+01 3.1886055972e+01 0.0000000000e+00 0.0000e+00 -1.0000e+00
</event>
<event>
 5      6 +1.7896800e-02 9.11880000e+01 7.81616400e-03 1.18400000e-01
      -11 -1    0    0    0    0 +0.0000000000e+00 +0.0000000000e+00 +4.5593999997e+01 4.5594000000e+01 5.1100000000e-04 0.0000e+00 1.0000e+00
       11 -1    0    0    0    0 -0.0000000000e+00 -0.0000000000e+00 -4.5593999997e+01 4.5594000000e+01 5.1100000000e-04 0.0000e+00 -1.0000e+00
       23  2    1    2    0    0 +0.0000000000e+00 +0.0000000000e+00 +0.0000000000e+00 9.1188000000e+01 9.1188000000e+01 2.3094e-13 0.0000e+00
  9900012  1    3    3    0    0 +2.2364206078e+01 +2.2645514172e+01 +1.9348229464e+00 5.9301944028e+01 5.0000000000e+01 1.4369e-04 -1.0000e+00
      -12  1    3    3    0    0 -2.2364206078e+01 -2.2645514172e+01 -1.9348229464e+00 3.1886055972e+01 0.0000000000e+00 0.0000e+00 1.0000e+00
</event>
<event>
 5      3 +1.7896800e-02 9.11880000e+01 7.81616400e-03 1.18400000e-01
      -11 -1    0    0    0    0 +0.0000000000e+00 +0.0000000000e+00 +4.5593999997e+01 4.5594000000e+01 5.1100000000e-04 0.0000e+00 -1.0000e+00
       11 -1    0    0    0    0 -0.0000000000e+00 -0.0000000000e+00 -4.5593999997e+01 4.5594000000e+01 5.1100000000e-04 0.0000e+00 1.0000e+00
       23  2    1    2    0    0 +0.0000000000e+00 +0.0000000000e+00 +0.0000000000e+00 9.1188000000e+01 9.1188000000e+01 3.4870e-14 0.0000e+00
  9900012  1    3    3    0    0 -8.7163449781e+00 -2.9129906246e+00 -3.0532939284e+01 5.9301944028e+01 5.0000000000e+01 1.0439e-03 1.0000e+00
       12  1    3    3    0    0 +8.7163449781e+00 +2.9129906246e+00 +3.0532939284e+01 3.1886055972e+01 0.0000000000e+00 0.0000e+00 -1.0000e+00
</event>
<event>
 5      6 +1.7896800e-02 9.11880000e+01 7.81616400e-03 1.18400000e-01
      -11 -1    0    0    0    0 +0.0000000000e+00 +0.0000000000e+00 +4.5593999997e+01 4.5594000000e+01 5.1100000000e-04 0.0000e+00 1.0000e+00
       11 -1    0    0    0    0 -0.0000000000e+00 -0.0000000000e+00 -4.5593999997e+01 4.5594000000e+01 5.1100000000e-04 0.0000e+00 -1.0000e+00
       23  2    1    2    0    0 +0.0000000000e+00 +0.0000000000e+00 +0.0000000000e+00 9.1188000000e+01 9.1188000000e+01 1.1314e-14 0.0000e+00
  9900012  1    3    3    0    0 +5.5234652044e+00 -4.4029511209e+00 -3.1093824452e+01 5.9301944028e+01 5.0000000000e+01 3.6218e-04 -1.0000e+00
      -12  1    3    3    0    0 -5.5234652044e+00 +4.4029511209e+00 +3.1093824452e+01 3.1886055972e+01 0.0000000000e+00 0.0000e+00 1.0000e+00
</event>
<event>
 5      3 +1.7896800e-02 9.11880000e+01 7.81616400e-03 1.18400000e-01
      -11 -1    0    0    0    0 +0.0000000000e+00 +0.0000000000e+00 +4.5593999997e+01 4.5594000000e+01 5.1100000000e-04 0.0000e+00 1.0000e+00
       11 -1    0    0    0    0 -0.0000000000e+00 -0.0000000000e+00 -4.5593999997e+01 4.5594000000e+01 5.1100000000e-04 0.0000e+00 -1.0000e+00
       23  2    1    2    0    0 +0.0000000000e+00 +0.0000000000e+00 +0.0000000000e+00 9.1188000000e+01 9.1188000000e+01 2.5429e-13 0.0000e+00
  9900012  1    3    3    0    0 +2.1415381283e+01 -2.3445649926e+01 +2.8988807312e+00 5.9301944028e+01 5.0000000000e+01 2.2688e-03 1.0000e+00
       12  1    3    3    0    0 -2.1415381283e+01 +2.3445649926e+01 -2.8988807312e+00 3.1886055972e+01 0.0000000000e+00 0.0000e+00 -1.0000e+00
</event>
<event>
 5      1 +1.7896800e-02 9.11880000e+01 7.81616400e-03 1.18400000e-01
      -11 -1    0    0    0    0 +0.0000000000e+00 +0.0000000000e+00 +4.5593999997e+01 4.5594000000e+01 5.1100000000e-04 0.0000e+00 1.0000e+00
       11 -1    0    0    0    0 -0.0000000000e+00 -0.0000000000e+00 -4.5593999997e+01 4.5594000000e+01 5.1100000000e-04 0.0000e+00 -1.0000e+00
       23  2    1    2    0    0 +0.0000000000e+00 +0.0000000000e+00 +0.0000000000e+00 9.1188000000e+01 9.1188000000e+01 3.9456e-14 0.0000e+00
  9900012  1    3    3    0    0 +9.9265543583e+00 +2.2602676883e+01 +2.0181751207e+01 5.9301944028e+01 5.0000000000e+01 8.2076e-04 1.0000e+00
       12  1    3    3    0    0 -9.9265543583e+00 -2.2602676883e+01 -2.0181751207e+01 3.1886055972e+01 0.0000000000e+00 0.0000e+00 -1.0000e+00
</event>
<event>
 5      6 +1.7896800e-02 9.11880000e+01 7.81616400e-03 1.18400000e-01
      -11 -1    0    0    0    0 +0.0000000000e+00 +0.0000000000e+00 +4.5593999997e+01 4.5594000000e+01 5.1100000000e-04 0.0000e+00 1.0000e+00
       11 -1    0    0    0    0 -0.0000000000e+00 -0.0000000000e+00 -4.5593999997e+01 4.5594000000e+01 5.1100000000e-04 0.0000e+00 -1.0000e+00
       23  2    1    2    0    0 +0.0000000000e+00 +0.0000000000e+00 +0.0000000000e+00 9.1188000000e+01 9.1188000000e+01 2.3531e-14 0.0000e+00
  9900012  1    3    3    0    0 -6.9152082915e+00 +2.3069453505e+01 -2.0897386792e+01 5.9301944028e+01 5.0000000000e+01 6.1113e-04 -1.0000e+00
      -12  1    3    3    0    0 +6.9152082915e+00 -2.3069453505e+01 +2.0897386792e+01 3.1886055972e+01 0.0000000000e+00 0.0000e+00 1.0000e+00
</event>
<event>
 5      2 +1.7896800e-02 9.11880000e+01 7.81616400e-03 1.18400000e-01
      -11 -1    0    0    0    0 +0.0000000000e+00 +0.0000000000e+00 +4.5593999997e+01 4.5594000000e+01 5.1100000000e-04 0.0000e+00 -1.0000e+00
       11 -1    0    0    0    0 -0.0000000000e+00 -0.0000000000e+00 -4.5593999997e+01 4.5594000000e+01 5.1100000000e-04 0.0000e+00 1.0000e+00
       23  2    1    2    0    0 +0.0000000000e+00 +0.0000000000e+00 +0.0000000000e+00 9.1188000000e+01 9.1188000000e+01 1.1567e-14 0.0000e+00
  9900012  1    3    3    0    0 -2.0113272029e+01 -1.0859797293e+01 +2.2231546426e+01 5.9301944028e+01 5.0000000000e+01 1.5700e-03 -1.0000e+00
      -12  1    3    3    0    0 +2.0113272029e+01 +1.0859797293e+01 -2.2231546426e+01 3.1886055972e+01 0.0000000000e+00 0.0000e+00 1.0000e+00
</event>
<event>
 5      4 +1.7896800e-02 9.11880000e+01 7.81616400e-03 1.18400000e-01
      -11 -1    0    0    0    0 +0.0000000000e+00 +0.0000000000e+00 +4.5593999997e+01 4.5594000000e+01 5.1100000000e-04 0.0000e+00 1.0000e+00
       11 -1    0    0    0    0 -0.0000000000e+00 -0.0000000000e+00 -4.5593999997e+01 4.5594000000e+01 5.1100000000e-04 0.0000e+00 -1.0000e+00
       23  2    1    2    0    0 +0.0000000000e+00 +0.0000000000e+00 +0.0000000000e+00 9.1188000000e+01 9.1188000000e+01 7.1084e-14 0.0000e+00
  9900012  1    3    3    0    0 -9.4105307563e+00 +2.2459773825e+01 -2.0584485324e+01 5.9301944028e+01 5.0000000000e+01 1.9687e-03 -1.0000e+00
      -12  1    3    3    0    0 +9.4105307563e+00 -2.2459773825e+01 +2.0584485324e+01 3.1886055972e+01 0.0000000000e+00 0.0000e+00 1.0000e+00
</event>
<event>
 5      2 +1.7896800e-02 9.11880000e+01 7.81616400e-03 1.18400000e-01
      -11 -1    0    0    0    0 +0.0000000000e+00 +0.0000000000e+00 +4.5593999997e+01 4.5594000000e+01 5.1100000000e-04 0.0000e+00 1.0000e+00
       11 -1    0    0    0    0 -0.0000000000e+00 -0.0000000000e+00 -4.5593999997e+01 4.5594000000e+01 5.1100000000e-04 0.0000e+00 -1.0000e+00
       23  2    1    2    0    0 +0.0000000000e+00 +0.0000000000e+00 +0.0000000000e+00 9.1188000000e+01 9.1188000000e+01 3.6971e-14 0.0000e+00
  9900012  1    3    3    0    0 +2.5203221543e+01 -1.9191653581e+01 -3.6329908005e+00 5.9301944028e+01 5.0000000000e+01 1.1279e-03 -1.0000e+00
      -12  1    3    3    0    0 -2.5203221543e+01 +1.9191653581e+01 +3.6329908005e+00 3.1886055972e+01 0.0000000000e+00 0.0000e+00 1.0000e+00
</event>
<event>
 5      5 +1.7896800e-02 9.11880000e+01 7.81616400e-03 1.18400000e-01
      -11 -1    0    0    0    0 +0.0000000000e+00 +0.0000000000e+00 +4.5593999997e+01 4.5594000000e+01 5.1100000000e-04 0.0000e+00 1.0000e+00
       11 -1    0    0    0    0 -0.0000000000e+00 -0.0000000000e+00 -4.5593999997e+01 4.5594000000e+01 5.1100000000e-04 0.0000e+00 -1.0000e+00
       23  2    1    2    0    0 +0.0000000000e+00 +0.0000000000e+00 +0.0000000000e+00 9.1188000000e+01 9.1188000000e+01 1.8060e-14 0.0000e+00
  9900012  1    3    3    0    0 -3.8432822224e+00 +3.1650826983e+01 +4.1820870748e-01 5.9301944028e+01 5.0000000000e+01 4.6732e-04 1.0000e+00
       12  1    3    3    0    0 +3.8432822224e+00 -3.1650826983e+01 -4.1820870748e-01 3.1886055972e+01 0.0000000000e+00 0.0000e+00 -1.0000e+00
</event>
<event>
 5      8 +1.7896800e-02 9.11880000e+01 7.81616400e-03 1.18400000e-01
      -11 -1    0    0    0    0 +0.0000000000e+00 +0.0000000000e+00 +4.5593999997e+01 4.5594000000e+01 5.1100000000e-04 0.0000e+00 1.0000e+00
       11 -1    0    0    0    0 -0.0000000000e+00 -0.0000000000e+00 -4.5593999997e+01 4.5594000000e+01 5.1100000000e-04 0.0000e+00 -1.0000e+00
       23  2    1    2    0    0 +0.0000000000e+00 +0.0000000000e+00 +0.0000000000e+00 9.1188000000e+01 9.1188000000e+01 1.4632e-13 0.0000e+00
  9900012  1    3    3    0    0 -1.2706244003e+01 -1.2590747748e+01 -2.6395927715e+01 5.9301944028e+01 5.0000000000e+01 2.9294e-04 1.0000e+00
      -12  1    3    3    0    0 +1.2706244003e+01 +1.2590747748e+01 +2.6395927715e+01 3.1886055972e+01 0.0000000000e+00 0.0000e+00 1.0000e+00
</event>
<event>
 5      4 +1.7896800e-02 9.11880000e+01 7.81616400e-03 1.18400000e-01
      -11 -1    0    0    0    0 +0.0000000000e+00 +0.0000000000e+00 +4.5593999997e+01 4.5594000000e+01 5.1100000000e-04 0.0000e+00 -1.0000e+00
       11 -1    0    0    0    0 -0.0000000000e+00 -0.0000000000e+00 -4.5593999997e+01 4.5594000000e+01 5.1100000000e-04 0.0000e+00 1.0000e+00
       23  2    1    2    0    0 +0.0000000000e+00 +0.0000000000e+00 +0.0000000000e+00 9.1188000000e+01 9.1188000000e+01 4.7979e-15 0.0000e+00
  9900012  1    3    3    0    0 -2.2846546990e+01 -2.0295400001e+01 +9.1023400789e+00 5.9301944028e+01 5.0000000000e+01 2.3338e-03 -1.0000e+00
      -12  1    3    3    0    0 +2.2846546990e+01 +2.0295400001e+01 -9.1023400789e+00 3.1886055972e+01 0.0000000000e+00 0.0000e+00 1.0000e+00
</event>
<event>
 5      5 +1.7896800e-02 9.11880000e+01 7.81616400e-03 1.18400000e-01
      -11 -1    0    0    0    0 +0.0000000000e+00 +0.0000000000e+00 +4.5593999997e+01 4.5594000000e+01 5.1100000000e-04 0.0000e+00 1.0000e+00
       11 -1    0    0    0    0 -0.0000000000e+00 -0.0000000000e+00 -4.5593999997e+01 4.5594000000e+01 5.1100000000e-04 0.0000e+00 -1.0000e+00
       23  2    1    2    0    0 +0.0000000000e+00 +0.0000000000e+00 +0.0000000000e+00 9.1188000000e+01 9.1188000000e+01 4.9081e-14 0.0000e+00
  9900012  1    3    3    0    0 -2.4659491491e+01 -1.2925402659e+01 +1.5542329650e+01 5.9301944028e+01 5.0000000000e+01 4.0024e-04 -1.0000e+00
       12  1    3    3    0    0 +2.4659491491e+01 +1.2925402659e+01 -1.5542329650e+01 3.1886055972e+01 0.0000000000e+00 0.0000e+00 -1.0000e+00
</event>
<event>
 5      4 +1.7896800e-02 9.11880000e+01 7.81616400e-03 1.18400000e-01
      -11 -1    0    0    0    0 +0.0000000000e+00 +0.0000000000e+00 +4.5593999997e+01 4.5594000000e+01 5.1100000000e-04 0.0000e+00 1.0000e+00
       11 -1    0    0    0    0 -0.0000000000e+00 -0.0000000000e+00 -4.5593999997e+01 4.5594000000e+01 5.1100000000e-04 0.0000e+00 -1.0000e+00
       23  2    1    2    0    0 +0.0000000000e+00 +0.0000000000e+00 +0.0000000000e+00 9.1188000000e+01 9.1188000000e+01 3.7408e-15 0.0000e+00
  9900012  1    3    3    0    0 -2.0958120605e+01 -1.4217145192e+01 -1.9373965230e+01 5.9301944028e+01 5.0000000000e+01 2.6738e-04 1.0000e+00
      -12  1    3    3    0    0 +2.0958120605e+01 +1.4217145192e+01 +1.9373965230e+01 3.1886055972e+01 0.0000000000e+00 0.0000e+00 1.0000e+00
</event>
<event>
 5      3 +1.7896800e-02 9.11880000e+01 7.81616400e-03 1.18400000e-01
      -11 -1    0    0    0    0 +0.0000000000e+00 +0.0000000000e+00 +4.5593999997e+01 4.5594000000e+01 5.1100000000e-04 0.0000e+00 1.0000e+00
       11 -1    0    0    0    0 -0.0000000000e+00 -0.0000000000e+00 -4.5593999997e+01 4.5594000000e+01 5.1100000000e-04 0.0000e+00 -1.0000e+00
       23  2    1    2    0    0 +0.0000000000e+00 +0.0000000000e+00 +0.0000000000e+00 9.1188000000e+01 9.1188000000e+01 6.1373e-14 0.0000e+00
  9900012  1    3    3    0    0 -2.1540957898e+01 -2.0595253644e+01 +1.1337690489e+01 5.9301944028e+01 5.0000000000e+01 3.3811e-04 1.0000e+00
       12  1    3    3    0    0 +2.1540957898e+01 +2.0595253644e+01 -1.1337690489e+01 3.1886055972e+01 0.0000000000e+00 0.0000e+00 -1.0000e+00
</event>
<event>
 5      7 +1.7896800e-02 9.11880000e+01 7.81616400e-03 1.18400000e-01
      -11 -1    0    0    0    0 +0.0000000000e+00 +0.0000000000e+00 +4.5593999997e+01 4.5594000000e+01 5.1100000000e-04 0.0000e+00 1.0000e+00
       11 -1    0    0    0    0 -0.0000000000e+00 -0.0000000000e+00 -4.5593999997e+01 4.5594000000e+01 5.1100000000e-04 0.0000e+00 -1.0000e+00
       23  2    1    2    0    0 +0.0000000000e+00 +0.0000000000e+00 +0.0000000000e+00 9.1188000000e+01 9.1188000000e+01 3.4644e-15 0.0000e+00
  9900012  1    3    3    0    0 -2.5659353645e+01 +1.0551820383e+01 +1.5715508983e+01 5.9301944028e+01 5.0000000000e+01 1.2404e-03 1.0000e+00
       12  1    3    3    0    0 +2.5659353645e+01 -1.0551820383e+01 -1.5715508983e+01 3.1886055972e+01 0.0000000000e+00 0.0000e+00 -1.0000e+00
</event>
<event>
 5      8 +1.7896800e-02 9.11880000e+01 7.81616400e-03 1.18400000e-01
      -11 -1    0    0    0    0 +0.0000000000e+00 +0.0000000000e+00 +4.5593999997e+01 4.5594000000e+01 5.1100000000e-04 0.0000e+00 1.0000e+00
       11 -1    0    0    0    0 -0.0000000000e+00 -0.0000000000e+00 -4.5593999997e+01 4.5594000000e+01 5.1100000000e-04 0.0000e+00 -1.0000e+00
       23  2    1    2    0    0 +0.0000000000e+00 +0.0000000000e+00 +0.0000000000e+00 9.1188000000e+01 9.1188000000e+01 3.1578e-14 0.0000e+00
  9900012  1    3    3    0    0 -5.5082359188e+00 +1.6214628524e+01 -2.6897318163e+01 5.9301944028e+01 5.0000000000e+01 8.3850e-04 -1.0000e+00
      -12  1    3    3    0    0 +5.5082359188e+00 -1.6214628524e+01 +2.6897318163e+01 3.1886055972e+01 0.0000000000e+00 0.0000e+00 1.0000e+00
</event>
<event>
 5      6 +1.7896800e-02 9.11880000e+01 7.81616400e-03 1.18400000e-01
      -11 -1    0    0    0    0 +0.0000000000e+00 +0.0000000000e+00 +4.5593999997e+01 4.5594000000e+01 5.1100000000e-04 0.0000e+00 1.0000e+00
       11 -1    0    0    0    0 -0.0000000000e+00 -0.0000000000e+00 -4.5593999997e+01 4.5594000000e+01 5.1100000000e-04 0.0000e+00 -1.0000e+00
       23  2    1    2    0    0 +0.0000000000e+00 +0.0000000000e+00 +0.0000000000e+00 9.1188000000e+01 9.1188000000e+01 4.0924e-14 0.0000e+00
  9900012  1    3    3    0    0 -6.2547131656e+00 +1.7770893583e+01 -2.5725366274e+01 5.9301944028e+01 5.0000000000e+01 1.7595e-04 -1.0000e+00
      -12  1    3    3    0    0 +6.2547131656e+00 -1.7770893583e+01 +2.5725366274e+01 3.1886055972e+01 0.0000000000e+00 0.0000e+00 1.0000e+00
</event>
<event>
 5      3 +1.7896800e-02 9.11880000e+01 7.81616400e-03 1.18400000e-01
      -11 -1    0    0    0    0 +0.0000000000e+00 +0.0000000000e+00 +4.5593999997e+01 4.5594000000e+01 5.1100000000e-04 0.0000e+00 1.0000e+00
       11 -1    0    0    0    0 -0.0000000000e+00 -0.0000000000e+00 -4.5593999997e+01 4.5594000000e+01 5.1100000000e-04 0.0000e+00 -1.0000e+00
       23  2    1    2    0    0 +0.0000000000e+00 +0.0000000000e+00 +0.0000000000e+00 9.1188000000e+01 9.1188000000e+01 2.5735e-15 0.0000e+00
  9900012  1    3    3    0    0 +3.3418270605e+00 +2.3375276662e+01 +2.1427766994e+01 5.9301944028e+01 5.0000000000e+01 8.1706e-04 1.0000e+00
       12  1    3    3    0    0 -3.3418270605e+00 -2.3375276662e+01 -2.1427766994e+01 3.1886055972e+01 0.0000000000e+00 0.0000e+00 -1.0000e+00
</event>
<event>
 5      3 +1.7896800e-02 9.11880000e+01 7.81616400e-03 1.18400000e-01
      -11 -1    0    0    0    0 +0.0000000000e+00 +0.0000000000e+00 +4.5593999997e+01 4.5594000000e+01 5.1100000000e-04 0.0000e+00 -1.0000e+00
       11 -1    0    0    0    0 -0.0000000000e+00 -0.0000000000e+00 -4.5593999997e+01 4.5594000000e+01 5.1100000000e-04 0.0000e+00 1.0000e+00
       23  2    1    2    0    0 +0.0000000000e+00 +0.0000000000e+00 +0.0000000000e+00 9.1188000000e+01 9.1188000000e+01 1.4161e-14 0.0000e+00
  9900012  1    3    3    0    0 -1.0610108779e+01 -2.9685593807e+01 +4.7866144079e+00 5.9301944028e+01 5.0000000000e+01 7.7038e-05 1.0000e+00
       12  1    3    3    0    0 +1.0610108779e+01 +2.9685593807e+01 -4.7866144079e+00 3.1886055972e+01 0.0000000000e+00 0.0000e+00 -1.0000e+00
</event>
<event>
 5      5 +1.7896800e-02 9.11880000e+01 7.81616400e-03 1.18400000e-01
      -11 -1    0    0    0    0 +0.0000000000e+00 +0.0000000000e+00 +4.5593999997e+01 4.5594000000e+01 5.1100000000e-04 0.0000e+00 1.0000e+00
       11 -1    0    0    0    0 -0.0000000000e+00 -0.0000000000e+00 -4.5593999997e+01 4.5594000000e+01 5.1100000000e-04 0.0000e+00 -1.0000e+00
       23  2    1    2    0    0 +0.0000000000e+00 +0.0000000000e+00 +0.0000000000e+00 9.1188000000e+01 9.1188000000e+01 6.2464e-14 0.0000e+00
  9900012  1    3    3    0    0 +2.0124078885e+01 +2.4076822823e+01 -5.6611498155e+00 5.9301944028e+01 5.0000000000e+01 2.3815e-04 1.0000e+00
       12  1    3    3    0    0 -2.0124078885e+01 -2.4076822823e+01 +5.6611498155e+00 3.1886055972e+01 0.0000000000e+00 0.0000e+00 -1.0000e+00
</event>
<event>
 5      7 +1.7896800e-02 9.11880000e+01 7.81616400e-03 1.18400000e-01
      -11 -1    0    0    0    0 +0.0000000000e+00 +0.0000000000e+00 +4.5593999997e+01 4.5594000000e+01 5.1100000000e-04 0.0000e+00 1.0000e+00
       11 -1    0    0    0    0 -0.0000000000e+00 -0.0000000000e+00 -4.5593999997e+01 4.5594000000e+01 5.1100000000e-04 0.0000e+00 -1.0000e+00
       23  2    1    2    0    0 +0.0000000000e+00 +0.0000000000e+00 +0.0000000000e+00 9.1188000000e+01 9.1188000000e+01 6.7544e-14 0.0000e+00
  9900012  1    3    3    0    0 -5.9271577405e+00 -1.0422936994e+01 +2.9545756904e+01 5.9301944028e+01 5.0000000000e+01 3.1711e-04 1.0000e+00
       12  1    3    3    0    0 +5.9271577405e+00 +1.0422936994e+01 -2.9545756904e+01 3.1886055972e+01 0.0000000000e+00 0.0000e+00 -1.0000e+00
</event>
<event>
 5      3 +1.7896800e-02 9.11880000e+01 7.81616400e-03 1.18400000e-01
      -11 -1    0    0    0    0 +0.0000000000e+00 +0.0000000000e+00 +4.5593999997e+01 4.5594000000e+01 5.1100000000e-04 0.0000e+00 1.0000e+00
       11 -1    0    0    0    0 -0.0000000000e+00 -0.0000000000e+00 -4.5593999997e+01 4.5594000000e+01 5.1100000000e-04 0.0000e+00 -1.0000e+00
       23  2    1    2    0    0 +0.0000000000e+00 +0.0000000000e+00 +0.0000000000e+00 9.1188000000e+01 9.1188000000e+01 1.1524e-13 0.0000e+00
  9900012  1    3    3    0    0 +9.5777022698e+00 -2.7174822283e+01 +1.3657130686e+01 5.9301944028e+01 5.0000000000e+01 3.4876e-05 -1.0000e+00
       12  1    3    3    0    0 -9.5777022698e+00 +2.7174822283e+01 -1.3657130686e+01 3.1886055972e+01 0.0000000000e+00 0.0000e+00 -1.0000e+00
</event>
<event>
 5      7 +1.7896800e-02 9.11880000e+01 7.81616400e-03 1.18400000e-01
      -11 -1    0    0    0    0 +0.0000000000e+00 +0.0000000000e+00 +4.5593999997e+01 4.5594000000e+01 5.1100000000e-04 0.0000e+00 -1.0000e+00
       11 -1    0    0    0    0 -0.0000000000e+00 -0.0000000000e+00 -4.5593999997e+01 4.5594000000e+01 5.1100000000e-04 0.0000e+00 1.0000e+00
       23  2    1    2    0    0 +0.0000000000e+00 +0.0000000000e+00 +0.0000000000e+00 9.1188000000e+01 9.1188000000e+01 5.4073e-14 0.0000e+00
  9900012  1    3    3    0    0 -1.0155259000e+01 +2.6785655885e+01 -1.4004282163e+01 5.9301944028e+01 5.0000000000e+01 1.3379e-03 1.0000e+00
       12  1    3    3    0    0 +1.0155259000e+01 -2.6785655885e+01 +1.4004282163e+01 3.1886055972e+01 0.0000000000e+00 0.0000e+00 -1.0000e+00
</event>
<event>
 5      7 +1.7896800e-02 9.11880000e+01 7.81616400e-03 1.18400000e-01
      -11 -1    0    0    0    0 +0.0000000000e+00 +0.0000000000e+00 +4.5593999997e+01 4.5594000000e+01 5.1100000000e-04 0.0000e+00 -1.0000e+00
       11 -1    0    0    0    0 -0.0000000000e+00 -0.0000000000e+00 -4.5593999997e+01 4.5594000000e+01 5.1100000000e-04 0.0000e+00 1.0000e+00
       23  2    1    2    0    0 +0.0000000000e+00 +0.0000000000e+00 +0.0000000000e+00 9.1188000000e+01 9.1188000000e+01 4.8929e-14 0.0000e+00
  9900012  1    3    3    0    0 +2.4110267349e+01 +2.0842194283e+01 +1.0092132225e+00 5.9301944028e+01 5.0000000000e+01 1.0677e-03 -1.0000e+00
       12  1    3    3    0    0 -2.4110267349e+01 -2.0842194283e+01 -1.0092132225e+00 3.1886055972e+01 0.0000000000e+00 0.0000e+00 -1.0000e+00
</event>
<event>
 5      2 +1.7896800e-02 9.11880000e+01 7.81616400e-03 1.18400000e-01
      -11 -1    0    0    0    0 +0.0000000000e+00 +0.0000000000e+00 +4.5593999997e+01 4.5594000000e+01 5.1100000000e-04 0.0000e+00 1.0000e+00
       11 -1    0    0    0    0 -0.0000000000e+00 -0.0000000000e+00 -4.5593999997e+01 4.5594000000e+01 5.1100000000e-04 0.0000e+00 -1.0000e+00
       23  2    1    2    0    0 +0.0000000000e+00 +0.0000000000e+00 +0.0000000000e+00 9.1188000000e+01 9.1188000000e+01 1.2101e-13 0.0000e+00
  9900012  1    3    3    0    0 -5.1847731631e+00 -1.1930633816e+01 -2.9111830404e+01 5.9301944028e+01 5.0000000000e+01 8.0818e-04 -1.0000e+00
      -12  1    3    3    0    0 +5.1847731631e+00 +1.1930633816e+01 +2.9111830404e+01 3.1886055972e+01 0.0000000000e+00 0.0000e+00 1.0000e+00
</event>
<event>
 5      4 +1.7896800e-02 9.11880000e+01 7.81616400e-03 1.18400000e-01
      -11 -1    0    0    0    0 +0.0000000000e+00 +0.0000000000e+00 +4.5593999997e+01 4.5594000000e+01 5.1100000000e-04 0.0000e+00 -1.0000e+00
       11 -1    0    0    0    0 -0.0000000000e+00 -0.0000000000e+00 -4.5593999997e+01 4.5594000000e+01 5.1100000000e-04 0.0000e+00 1.0000e+00
       23  2    1    2    0    0 +0.0000000000e+00 +0.0000000000e+00 +0.0000000000e+00 9.1188000000e+01 9.1188000000e+01 7.3960e-14 0.0000e+00
  9900012  1    3    3    0    0 -1.9365825414e+01 -1.9658762791e+01 +1.5975556861e+01 5.9301944028e+01 5.0000000000e+01 6.3428e-04 1.0000e+00
      -12  1    3    3    0    0 +1.9365825414e+01 +1.9658762791e+01 -1.5975556861e+01 3.1886055972e+01 0.0000000000e+00 0.0000e+00 1.0000e+00
</event>
<event>
 5      7 +1.7896800e-02 9.11880000e+01 7.81616400e-03 1.18400000e-01
      -11 -1    0    0    0    0 +0.0000000000e+00 +0.0000000000e+00 +4.5593999997e+01 4.5594000000e+01 5.1100000000e-04 0.0000e+00 -1.0000e+00
       11 -1    0    0    0    0 -0.0000000000e+00 -0.0000000000e+00 -4.5593999997e+01 4.5594000000e+01 5.1100000000e-04 0.0000e+00 1.0000e+00
       23  2    1    2    0    0 +0.0000000000e+00 +0.0000000000e+00 +0.0000000000e+00 9.1188000000e+01 9.1188000000e+01 2.1000e-13 0.0000e+00
  9900012  1    3    3    0    0 -2.5034140013e+01 +1.6408441364e+01 -1.0989788500e+01 5.9301944028e+01 5.0000000000e+01 2.1658e-03 1.0000e+00
       12  1    3    3    0    0 +2.5034140013e+01 -1.6408441364e+01 +1.0989788500e+01 3.1886055972e+01 0.0000000000e+00 0.0000e+00 -1.0000e+00
</event>
<event>
 5      4 +1.7896800e-02 9.11880000e+01 7.81616400e-03 1.18400000e-01
      -11 -1    0    0    0    0 +0.0000000000e+00 +0.0000000000e+00 +4.5593999997e+01 4.5594000000e+01 5.1100000000e-04 0.0000e+00 -1.0000e+00
       11 -1    0    0    0    0 -0.0000000000e+00 -0.0000000000e+00 -4.5593999997e+01 4.5594000000e+01 5.1100000000e-04 0.0000e+00 1.0000e+00
       23  2    1    2    0    0 +0.0000000000e+00 +0.0000000000e+00 +0.0000000000e+00 9.1188000000e+01 9.1188000000e+01 3.9458e-14 0.0000e+00
  9900012  1    3    3    0    0 +2.3721917194e+01 +1.6650838641e+01 +1.3294389143e+01 5.9301944028e+01 5.0000000000e+01 9.6804e-05 -1.0000e+00
      -12  1    3    3    0    0 -2.3721917194e+01 -1.6650838641e+01 -1.3294389143e+01 3.1886055972e+01 0.0000000000e+00 0.0000e+00 1.0000e+00
</event>
<event>
 5      2 +1.7896800e-02 9.11880000e+01 7.81616400e-03 1.18400000e-01
      -11 -1    0    0    0    0 +0.0000000000e+00 +0.0000000000e+00 +4.5593999997e+01 4.5594000000e+01 5.1100000000e-04 0.0000e+00 1.0000e+00
       11 -1    0    0    0    0 -0.0000000000e+00 -0.0000000000e+00 -4.5593999997e+01 4.5594000000e+01 5.1100000000e-04 0.0000e+00 -1.0000e+00
       23  2    1    2    0    0 +0.0000000000e+00 +0.0000000000e+00 +0.0000000000e+00 9.1188000000e+01 9.1188000000e+01 7.0663e-14 0.0000e+00
  9900012  1    3    3    0    0 +3.2609931375e+00 +1.9706088876e+01 -2.4854708818e+01 5.9301944028e+01 5.0000000000e+01 1.3934e-03 -1.0000e+00
      -12  1    3    3    0    0 -3.2609931375e+00 -1.9706088876e+01 +2.4854708818e+01 3.1886055972e+01 0.0000000000e+00 0.0000e+00 1.0000e+00
</event>
<event>
 5      2 +1.7896800e-02 9.11880000e+01 7.81616400e-03 1.18400000e-01
      -11 -1    0    0    0    0 +0.0000000000e+00 +0.0000000000e+00 +4.5593999997e+01 4.5594000000e+01 5.1100000000e-04 0.0000e+00 1.0000e+00
       11 -1    0    0    0    0 -0.0000000000e+00 -0.0000000000e+00 -4.5593999997e+01 4.5594000000e+01 5.1100000000e-04 0.0000e+00 -1.0000e+00
       23  2    1    2    0    0 +0.0000000000e+00 +0.0000000000e+00 +0.0000000000e+00 9.1188000000e+01 9.1188000000e+01 4.2909e-14 0.0000e+00
  9900012  1    3    3    0    0 +1.3565303322e+00 -2.3485913730e+01 -2.1524224660e+01 5.9301944028e+01 5.0000000000e+01 2.7291e-03 -1.0000e+00
      -12  1    3    3    0    0 -1.3565303322e+00 +2.3485913730e+01 +2.1524224660e+01 3.1886055972e+01 0.0000000000e+00 0.0000e+00 1.0000e+00
</event>
<event>
 5      2 +1.7896800e-02 9.11880000e+01 7.81616400e-03 1.18400000e-01
      -11 -1    0    0    0    0 +0.0000000000e+00 +0.0000000000e+00 +4.5593999997e+01 4.5594000000e+01 5.1100000000e-04 0.0000e+00 -1.0000e+00
       11 -1    0    0    0    0 -0.0000000000e+00 -0.0000000000e+00 -4.5593999997e+01 4.5594000000e+01 5.1100000000e-04 0.0000e+00 1.0000e+00
       23  2    1    2    0    0 +0.0000000000e+00 +0.0000000000e+00 +0.0000000000e+00 9.1188000000e+01 9.1188000000e+01 3.6291e-14 0.0000e+00
  9900012  1    3    3    0    0 -2.2405224715e+01 +9.9197653213e-01 +2.2665887441e+01 5.9301944028e+01 5.0000000000e+01 4.0819e-03 -1.0000e+00
      -12  1    3    3    0    0 +2.2405224715e+01 -9.9197653213e-01 -2.2665887441e+01 3.1886055972e+01 0.0000000000e+00 0.0000e+00 1.0000e+00
</event>
<event>
 5      5 +1.7896800e-02 9.11880000e+01 7.81616400e-03 1.18400000e-01
      -11 -1    0    0    0    0 +0.0000000000e+00 +0.0000000000e+00 +4.5593999997e+01 4.5594000000e+01 5.1100000000e-04 0.0000e+00 -1.0000e+00
       11 -1    0    0    0    0 -0.0000000000e+00 -0.0000000000e+00 -4.5593999997e+01 4.5594000000e+01 5.1100000000e-04 0.0000e+00 1.0000e+00
       23  2    1    2    0    0 +0.0000000000e+00 +0.0000000000e+00 +0.0000000000e+00 9.1188000000e+01 9.1188000000e+01 4.5123e-14 0.0000e+00
  9900012  1    3    3    0    0 +1.6708661817e+01 -1.1236580723e+01 -2.4724086220e+01 5.9301944028e+01 5.0000000000e+01 6.2258e-03 1.0000e+00
       12  1    3    3    0    0 -1.6708661817e+01 +1.1236580723e+01 +2.4724086220e+01 3.1886055972e+01 0.0000000000e+00 0.0000e+00 -1.0000e+00
</event>
<event>
 5      6 +1.7896800e-02 9.11880000e+01 7.81616400e-03 1.18400000e-01
      -11 -1    0    0    0    0 +0.0000000000e+00 +0.0000000000e+00 +4.5593999997e+01 4.5594000000e+01 5.1100000000e-04 0.0000e+00 -1.0000e+00
       11 -1    0    0    0    0 -0.0000000000e+00 -0.0000000000e+00 -4.5593999997e+01 4.5594000000e+01 5.1100000000e-04 0.0000e+00 1.0000e+00
       23  2    1    2    0    0 +0.0000000000e+00 +0.0000000000e+00 +0.0000000000e+00 9.1188000000e+01 9.1188000000e+01 1.4617e-13 0.0000e+00
  9900012  1    3    3    0    0 +1.1707518428e+01 +1.8697973094e+01 +2.3022605846e+01 5.9301944028e+01 5.0000000000e+01 7.5091e-04 -1.0000e+00
      -12  1    3    3    0    0 -1.1707518428e+01 -1.8697973094e+01 -2.3022605846e+01 3.1886055972e+01 0.0000000000e+00 0.0000e+00 1.0000e+00
</event>
<event>
 5      5 +1.7896800e-02 9.11880000e+01 7.81616400e-03 1.18400000e-01
      -11 -1    0    0    0    0 +0.0000000000e+00 +0.0000000000e+00 +4.5593999997e+01 4.5594000000e+01 5.1100000000e-04 0.0000e+00 1.0000e+00
       11 -1    0    0    0    0 -0.0000000000e+00 -0.0000000000e+00 -4.5593999997e+01 4.5594000000e+01 5.1100000000e-04 0.0000e+00 -1.0000e+00
       23  2    1    2    0    0 +0.0000000000e+00 +0.0000000000e+00 +0.0000000000e+00 9.1188000000e+01 9.1188000000e+01 6.2614e-14 0.0000e+00
  9900012  1    3    3    0    0 -1.1096519046e+01 -8.0937514655e+00 +2.8776362135e+01 5.9301944028e+01 5.0000000000e+01 1.1588e-03 1.0000e+00
       12  1    3    3    0    0 +1.1096519046e+01 +8.0937514655e+00 -2.8776362135e+01 3.1886055972e+01 0.0000000000e+00 0.0000e+00 -1.0000e+00
</event>
<event>
 5      4 +1.7896800e-02 9.11880000e+01 7.81616400e-03 1.18400000e-01
      -11 -1    0    0    0    0 +0.0000000000e+00 +0.0000000000e+00 +4.5593999997e+01 4.5594000000e+01 5.1100000000e-04 0.0000e+00 1.0000e+00
       11 -1    0    0    0    0 -0.0000000000e+00 -0.0000000000e+00 -4.5593999997e+01 4.5594000000e+01 5.1100000000e-04 0.0000e+00 -1.0000e+00
       23  2    1    2    0    0 +0.0000000000e+00 +0.0000000000e+00 +0.0000000000e+00 9.1188000000e+01 9.1188000000e+01 1.6493e-14 0.0000e+00
  9900012  1    3    3    0    0 -2.8950295543e+01 -1.0698368110e+01 +8.0091118862e+00 5.9301944028e+01 5.0000000000e+01 3.3808e-05 -1.0000e+00
      -12  1    3    3    0    0 +2.8950295543e+01 +1.0698368110e+01 -8.0091118862e+00 3.1886055972e+01 0.0000000000e+00 0.0000e+00 1.0000e+00
</event>
<event>
 5      8 +1.7896800e-02 9.11880000e+01 7.81616400e-03 1.18400000e-01
      -11 -1    0    0    0    0 +0.0000000000e+00 +0.0000000000e+00 +4.5593999997e+01 4.5594000000e+01 5.1100000000e-04 0.0000e+00 1.0000e+00
       11 -1    0    0    0    0 -0.0000000000e+00 -0.0000000000e+00 -4.5593999997e+01 4.5594000000e+01 5.1100000000e-04 0.0000e+00 -1.0000e+00
       23  2    1    2    0    0 +0.0000000000e+00 +0.0000000000e+00 +0.0000000000e+00 9.1188000000e+01 9.1188000000e+01 1.4597e-13 0.0000e+00
  9900012  1    3    3    0    0 +1.1670033456e+01 +2.7726245891e+01 -1.0572898060e+01 5.9301944028e+01 5.0000000000e+01 4.6815e-03 -1.0000e+00
      -12  1    3    3    0    0 -1.1670033456e+01 -2.7726245891e+01 +1.0572898060e+01 3.1886055972e+01 0.0000000000e+00 0.0000e+00 1.0000e+00
</event>
<event>
 5      3 +1.7896800e-02 9.11880000e+01 7.81616400e-03 1.18400000e-01
      -11 -1    0    0    0    0 +0.0000000000e+00 +0.0000000000e+00 +4.5593999997e+01 4.5594000000e+01 5.1100000000e-04 0.0000e+00 -1.0000e+00
       11 -1    0    0    0    0 -0.0000000000e+00 -0.0000000000e+00 -4.5593999997e+01 4.5594000000e+01 5.1100000000e-04 0.0000e+00 1.0000e+00
       23  2    1    2    0    0 +0.0000000000e+00 +0.0000000000e+00 +0.0000000000e+00 9.1188000000e+01 9.1188000000e+01 8.8462e-15 0.0000e+00
  9900012  1    3    3    0    0 -1.4730344631e-01 -3.1638928891e+01 +3.9594249304e+00 5.9301944028e+01 5.0000000000e+01 3.0467e-04 1.0000e+00
       12  1    3    3    0    0 +1.4730344631e-01 +3.1638928891e+01 -3.9594249304e+00 3.1886055972e+01 0.0000000000e+00 0.0000e+00 -1.0000e+00
</event>
<event>
 5      2 +1.7896800e-02 9.11880000e+01 7.81616400e-03 1.18400000e-01
      -11 -1    0    0    0    0 +0.0000000000e+00 +0.0000000000e+00 +4.5593999997e+01 4.5594000000e+01 5.1100000000e-04 0.0000e+00 -1.0000e+00
       11 -1    0    0    0    0 -0.0000000000e+00 -0.0000000000e+00 -4.5593999997e+01 4.5594000000e+01 5.1100000000e-04 0.0000e+00 1.0000e+00
       23  2    1    2    0    0 +0.0000000000e+00 +0.0000000000e+00 +0.0000000000e+00 9.1188000000e+01 9.1188000000e+01 2.8033e-13 0.0000e+00
  9900012  1    3    3    0    0 +2.9774038397e+01 -4.0480264595e+00 +1.0669615027e+01 5.9301944028e+01 5.0000000000e+01 1.2406e-03 -1.0000e+00
      -12  1    3    3    0    0 -2.9774038397e+01 +4.0480264595e+00 -1.0669615027e+01 3.1886055972e+01 0.0000000000e+00 0.0000e+00 1.0000e+00
</event>
<event>
 5      3 +1.7896800e-02 9.11880000e+01 7.81616400e-03 1.18400000e-01
      -11 -1    0    0    0    0 +0.0000000000e+00 +0.0000000000e+00 +4.5593999997e+01 4.5594000000e+01 5.1100000000e-04 0.0000e+00 1.0000e+00
       11 -1    0    0    0    0 -0.0000000000e+00 -0.0000000000e+00 -4.5593999997e+01 4.5594000000e+01 5.1100000000e-04 0.0000e+00 -1.0000e+00
       23  2    1    2    0    0 +0.0000000000e+00 +0.0000000000e+00 +0.0000000000e+00 9.1188000000e+01 9.1188000000e+01 6.7693e-15 0.0000e+00
  9900012  1    3    3    0    0 +2.8564130347e+01 +1.8168195970e+00 +1.4053831845e+01 5.9301944028e+01 5.0000000000e+01 4.4998e-03 1.0000e+00
       12  1    3    3    0    0 -2.8564130347e+01 -1.8168195970e+00 -1.4053831845e+01 3.1886055972e+01 0.0000000000e+00 0.0000e+00 -1.0000e+00
</event>
<event>
 5      8 +1.7896800e-02 9.11880000e+01 7.81616400e-03 1.18400000e-01
      -11 -1    0    0    0    0 +0.0000000000e+00 +0.0000000000e+00 +4.5593999997e+01 4.5594000000e+01 5.1100000000e-04 0.0000e+00 1.0000e+00
       11 -1    0    0    0    0 -0.0000000000e+00 -0.0000000000e+00 -4.5593999997e+01 4.5594000000e+01 5.1100000000e-04 0.0000e+00 -1.0000e+00
       23  2    1    2    0    0 +0.0000000000e+00 +0.0000000000e+00 +0.0000000000e+00 9.1188000000e+01 9.1188000000e+01 9.2373e-14 0.0000e+00
  9900012  1    3    3    0    0 -2.7284256747e+01 +4.2465919698e+00 -1.5945418022e+01 5.9301944028e+01 5.0000000000e+01 9.5540e-05 -1.0000e+00
      -12  1    3    3    0    0 +2.7284256747e+01 -4.2465919698e+00 +1.5945418022e+01 3.1886055972e+01 0.0000000000e+00 0.0000e+00 1.0000e+00
</event>
<event>
 5      1 +1.7896800e-02 9.11880000e+01 7.81616400e-03 1.18400000e-01
      -11 -1    0    0    0    0 +0.0000000000e+00 +0.0000000000e+00 +4.5593999997e+01 4.5594000000e+01 5.1100000000e-04 0.0000e+00 1.0000e+00
       11 -1    0    0    0    0 -0.0000000000e+00 -0.0000000000e+00 -4.5593999997e+01 4.5594000000e+01 5.1100000000e-04 0.0000e+00 -1.0000e+00
       23  2    1    2    0    0 +0.0000000000e+00 +0.0000000000e+00 +0.0000000000e+00 9.1188000000e+01 9.1188000000e+01 9.3900e-14 0.0000e+00
  9900012  1    3    3    0    0 -1.1402080979e+01 +2.0883018865e+01 +2.1227638538e+01 5.9301944028e+01 5.0000000000e+01 3.2196e-04 -1.0000e+00
       12  1    3    3    0    0 +1.1402080979e+01 -2.0883018865e+01 -2.1227638538e+01 3.1886055972e+01 0.0000000000e+00 0.0000e+00 -1.0000e+00
</event>
<event>
 5      6 +1.7896800e-02 9.11880000e+01 7.81616400e-03 1.18400000e-01
      -11 -1    0    0    0    0 +0.0000000000e+00 +0.0000000000e+00 +4.5593999997e+01 4.5594000000e+01 5.1100000000e-04 0.0000e+00 -1.0000e+00
       11 -1    0    0    0    0 -0.0000000000e+00 -0.0000000000e+00 -4.5593999997e+01 4.5594000000e+01 5.1100000000e-04 0.0000e+00 1.0000e+00
       23  2    1    2    0    0 +0.0000000000e+00 +0.0000000000e+00 +0.0000000000e+00 9.1188000000e+01 9.1188000000e+01 8.5702e-14 0.0000e+00
  9900012  1    3    3    0    0 +1.6719255994e+01 -1.3616694092e+01 +2.3489842198e+01 5.9301944028e+01 5.0000000000e+01 3.7907e-04 -1.0000e+00
      -12  1    3    3    0    0 -1.6719255994e+01 +1.3616694092e+01 -2.3489842198e+01 3.1886055972e+01 0.0000000000e+00 0.0000e+00 1.0000e+00
</event>
<event>
 5      4 +1.7896800e-02 9.11880000e+01 7.81616400e-03 1.18400000e-01
      -11 -1    0    0    0    0 +0.0000000000e+00 +0.0000000000e+00 +4.5593999997e+01 4.5594000000e+01 5.1100000000e-04 0.0000e+00 -1.0000e+00
       11 -1    0    0    0    0 -0.0000000000e+00 -0.0000000000e+00 -4.5593999997e+01 4.5594000000e+01 5.1100000000e-04 0.0000e+00 1.0000e+00
       23  2    1    2    0    0 +0.0000000000e+00 +0.0000000000e+00 +0.0000000000e+00 9.1188000000e+01 9.1188000000e+01 5.2001e-14 0.0000e+00
  9900012  1    3    3    0    0 +2.4944813430e+01 -1.7516645702e+01 +9.3618359200e+00 5.9301944028e+01 5.0000000000e+01 3.7971e-04 -1.0000e+00
      -12  1    3    3    0    0 -2.4944813430e+01 +1.7516645702e+01 -9.3618359200e+00 3.1886055972e+01 0.0000000000e+00 0.0000e+00 1.0000e+00
</event>
<event>
 5      3 +1.7896800e-02 9.11880000e+01 7.81616400e-03 1.18400000e-01
      -11 -1    0    0    0    0 +0.0000000000e+00 +0.0000000000e+00 +4.5593999997e+01 4.5594000000e+01 5.1100000000e-04 0.0000e+00 -1.0000e+00
       11 -1    0    0    0    0 -0.0000000000e+00 -0.0000000000e+00 -4.5593999997e+01 4.5594000000e+01 5.1100000000e-04 0.0000e+00 1.0000e+00
       23  2    1    2    0    0 +0.0000000000e+00 +0.0000000000e+00 +0.0000000000e+00 9.1188000000e+01 9.1188000000e+01 3.5417e-13 0.0000e+00
  9900012  1    3    3    0    0 -1.0441502543e+01 +3.0104296420e+01 +1.1945405709e+00 5.9301944028e+01 5.0000000000e+01 3.1597e-04 1.0000e+00
       12  1    3    3    0    0 +1.0441502543e+01 -3.0104296420e+01 -1.1945405709e+00 3.1886055972e+01 0.0000000000e+00 0.0000e+00 -1.0000e+00
</event>
<event>
 5      6 +1.7896800e-02 9.11880000e+01 7.81616400e-03 1.18400000e-01
      -11 -1    0    0    0    0 +0.0000000000e+00 +0.0000000000e+00 +4.5593999997e+01 4.5594000000e+01 5.1100000000e-04 0.0000e+00 -1.0000e+00
       11 -1    0    0    0    0 -0.0000000000e+00 -0.0000000000e+00 -4.5593999997e+01 4.5594000000e+01 5.1100000000e-04 0.0000e+00 1.0000e+00
       23  2    1    2    0    0 +0.0000000000e+00 +0.0000000000e+00 +0.0000000000e+00 9.1188000000e+01 9.1188000000e+01 5.8261e-15 0.0000e+00
  9900012  1    3    3    0    0 +2.7571124586e+01 -9.4338548379e+00 +1.2944343839e+01 5.9301944028e+01 5.0000000000e+01 4.0982e-04 -1.0000e+00
      -12  1    3    3    0    0 -2.7571124586e+01 +9.4338548379e+00 -1.2944343839e+01 3.1886055972e+01 0.0000000000e+00 0.0000e+00 1.0000e+00
</event>
<event>
 5      2 +1.7896800e-02 9.11880000e+01 7.81616400e-03 1.18400000e-01
      -11 -1    0    0    0    0 +0.0000000000e+00 +0.0000000000e+00 +4.5593999997e+01 4.5594000000e+01 5.1100000000e-04 0.0000e+00 1.0000e+00
       11 -1    0    0    0    0 -0.0000000000e+00 -0.0000000000e+00 -4.5593999997e+01 4.5594000000e+01 5.1100000000e-04 0.0000e+00 -1.0000e+00
       23  2    1    2    0    0 +0.0000000000e+00 +0.0000000000e+00 +0.0000000000e+00 9.1188000000e+01 9.1188000000e+01 6.7908e-14 0.0000e+00
  9900012  1    3    3    0    0 -1.1327651782e+01 -2.1077734508e+01 -2.1074486437e+01 5.9301944028e+01 5.0000000000e+01 1.3294e-04 -1.0000e+00
      -12  1    3    3    0    0 +1.1327651782e+01 +2.1077734508e+01 +2.1074486437e+01 3.1886055972e+01 0.0000000000e+00 0.0000e+00 1.0000e+00
</event>
<event>
 5      7 +1.7896800e-02 9.11880000e+01 7.81616400e-03 1.18400000e-01
      -11 -1    0    0    0    0 +0.0000000000e+00 +0.0000000000e+00 +4.5593999997e+01 4.5594000000e+01 5.1100000000e-04 0.0000e+00 1.0000e+00
       11 -1    0    0    0    0 -0.0000000000e+00 -0.0000000000e+00 -4.5593999997e+01 4.5594000000e+01 5.1100000000e-04 0.0000e+00 -1.0000e+00
       23  2    1    2    0    0 +0.0000000000e+00 +0.0000000000e+00 +0.0000000000e+00 9.1188000000e+01 9.1188000000e+01 6.2776e-15 0.0000e+00
  9900012  1    3    3    0    0 +1.6429337348e+01 +2.2534239835e+01 +1.5459801902e+01 5.9301944028e+01 5.0000000000e+01 9.5151e-05 1.0000e+00
       12  1    3    3    0    0 -1.6429337348e+01 -2.2534239835e+01 -1.5459801902e+01 3.1886055972e+01 0.0000000000e+00 0.0000e+00 -1.0000e+00
</event>
<event>
 5      6 +1.7896800e-02 9.11880000e+01 7.81616400e-03 1.18400000e-01
      -11 -1    0    0    0    0 +0.0000000000e+00 +0.0000000000e+00 +4.5593999997e+01 4.5594000000e+01 5.1100000000e-04 0.0000e+00 1.0000e+00
       11 -1    0    0    0    0 -0.0000000000e+00 -0.0000000000e+00 -4.5593999997e+01 4.5594000000e+01 5.1100000000e-04 0.0000e+00 -1.0000e+00
       23  2    1    2    0    0 +0.0000000000e+00 +0.0000000000e+00 +0.0000000000e+00 9.1188000000e+01 9.1188000000e+01 4.0589e-14 0.0000e+00
  9900012  1    3    3    0    0 -9.5948820267e+00 +3.0405811995e+01 -3.8131517399e-01 5.9301944028e+01 5.0000000000e+01 1.6371e-03 1.0000e+00
      -12  1    3    3    0    0 +9.5948820267e+00 -3.0405811995e+01 +3.8131517399e-01 3.1886055972e+01 0.0000000000e+00 0.0000e+00 1.0000e+00
</event>
<event>
 5      3 +1.7896800e-02 9.11880000e+01 7.81616400e-03 1.18400000e-01
      -11 -1    0    0    0    0 +0.0000000000e+00 +0.0000000000e+00 +4.5593999997e+01 4.5594000000e+01 5.1100000000e-04 0.0000e+00 1.0000e+00
       11 -1    0    0    0    0 -0.0000000000e+00 -0.0000000000e+00 -4.5593999997e+01 4.5594000000e+01 5.1100000000e-04 0.0000e+00 -1.0000e+00
       23  2    1    2    0    0 +0.0000000000e+00 +0.0000000000e+00 +0.0000000000e+00 9.1188000000e+01 9.1188000000e+01 1.4696e-13 0.0000e+00
  9900012  1    3    3    0    0 -2.1081152294e+00 +2.7458324795e+01 +1.6072237402e+01 5.9301944028e+01 5.0000000000e+01 1.3490e-03 1.0000e+00
       12  1    3    3    0    0 +2.1081152294e+00 -2.7458324795e+01 -1.6072237402e+01 3.1886055972e+01 0.0000000000e+00 0.0000e+00 -1.0000e+00
</event>
<event>
 5      3 +1.7896800e-02 9.11880000e+01 7.81616400e-03 1.18400000e-01
      -11 -1    0    0    0    0 +0.0000000000e+00 +0.0000000000e+00 +4.5593999997e+01 4.5594000000e+01 5.1100000000e-04 0.0000e+00 1.0000e+00
       11 -1    0    0    0    0 -0.0000000000e+00 -0.0000000000e+00 -4.5593999997e+01 4.5594000000e+01 5.1100000000e-04 0.0000e+00 -1.0000e+00
       23  2    1    2    0    0 +0.0000000000e+00 +0.0000000000e+00 +0.0000000000e+00 9.1188000000e+01 9.1188000000e+01 2.3101e-13 0.0000e+00
  9900012  1    3    3    0    0 -2.1757372200e+01 +1.3241072755e+01 -1.9183620949e+01 5.9301944028e+01 5.0000000000e+01 1.7187e-04 1.0000e+00
       12  1    3    3    0    0 +2.1757372200e+01 -1.3241072755e+01 +1.9183620949e+01 3.1886055972e+01 0.0000000000e+00 0.0000e+00 -1.0000e+00
</event>
<event>
 5      6 +1.7896800e-02 9.11880000e+01 7.81616400e-03 1.18400000e-01
      -11 -1    0    0    0    0 +0.0000000000e+00 +0.0000000000e+00 +4.5593999997e+01 4.5594000000e+01 5.1100000000e-04 0.0000e+00 1.0000e+00
       11 -1    0    0    0    0 -0.0000000000e+00 -0.0000000000e+00 -4.5593999997e+01 4.5594000000e+01 5.1100000000e-04 0.0000e+00 -1.0000e+00
       23  2    1    2    0    0 +0.0000000000e+00 +0.0000000000e+00 +0.0000000000e+00 9.1188000000e+01 9.1188000000e+01 1.5074e-14 0.0000e+00
  9900012  1    3    3    0    0 -2.7845873739e+01 -1.5175633520e+01 -3.3208475479e+00 5.9301944028e+01 5.0000000000e+01 5.0921e-04 -1.0000e+00
      -12  1    3    3    0    0 +2.7845873739e+01 +1.5175633520e+01 +3.3208475479e+00 3.1886055972e+01 0.0000000000e+00 0.0000e+00 1.0000e+00
</event>
<event>
 5      4 +1.7896800e-02 9.11880000e+01 7.81616400e-03 1.18400000e-01
      -11 -1    0    0    0    0 +0.0000000000e+00 +0.0000000000e+00 +4.5593999997e+01 4.5594000000e+01 5.1100000000e-04 0.0000e+00 1.0000e+00
       11 -1    0    0    0    0 -0.0000000000e+00 -0.0000000000e+00 -4.5593999997e+01 4.5594000000e+01 5.1100000000e-04 0.0000e+00 -1.0000e+00
       23  2    1    2    0    0 +0.0000000000e+00 +0.0000000000e+00 +0.0000000000e+00 9.1188000000e+01 9.1188000000e+01 3.0655e-14 0.0000e+00
  9900012  1    3    3    0    0 +9.3746293708e+00 +3.0444604746e+01 -1.4010465616e+00 5.9301944028e+01 5.0000000000e+01 4.6644e-04 1.0000e+00
      -12  1    3    3    0    0 -9.3746293708e+00 -3.0444604746e+01 +1.4010465616e+00 3.1886055972e+01 0.0000000000e+00 0.0000e+00 1.0000e+00
</event>
<event>
 5      7 +1.7896800e-02 9.11880000e+01 7.81616400e-03 1.18400000e-01
      -11 -1    0    0    0    0 +0.0000000000e+00 +0.0000000000e+00 +4.5593999997e+01 4.5594000000e+01 5.1100000000e-04 0.0000e+00 -1.0000e+00
       11 -1    0    0    0    0 -0.0000000000e+00 -0.0000000000e+00 -4.5593999997e+01 4.5594000000e+01 5.1100000000e-04 0.0000e+00 1.0000e+00
       23  2    1    2    0    0 +0.0000000000e+00 +0.0000000000e+00 +0.0000000000e+00 9.1188000000e+01 9.1188000000e+01 5.5814e-14 0.0000e+00
  9900012  1    3    3    0    0 -3.1264862229e+01 +6.1961904057e+00 -9.1442864348e-01 5.9301944028e+01 5.0000000000e+01 3.8604e-04 1.0000e+00
       12  1    3    3    0    0 +3.1264862229e+01 -6.1961904057e+00 +9.1442864348e-01 3.1886055972e+01 0.0000000000e+00 0.0000e+00 -1.0000e+00
</event>
<event>
 5      8 +1.7896800e-02 9.11880000e+01 7.81616400e-03 1.18400000e-01
      -11 -1    0    0    0    0 +0.0000000000e+00 +0.0000000000e+00 +4.5593999997e+01 4.5594000000e+01 5.1100000000e-04 0.0000e+00 1.0000e+00
       11 -1    0    0    0    0 -0.0000000000e+00 -0.0000000000e+00 -4.5593999997e+01 4.5594000000e+01 5.1100000000e-04 0.0000e+00 -1.0000e+00
       23  2    1    2    0    0 +0.0000000000e+00 +0.0000000000e+00 +0.0000000000e+00 9.1188000000e+01 9.1188000000e+01 3.5356e-13 0.0000e+00
  9900012  1    3    3    0    0 +2.2865170237e+01 -2.8213741111e+00 -2.2044146698e+01 5.9301944028e+01 5.0000000000e+01 4.5203e-04 -1.0000e+00
      -12  1    3    3    0    0 -2.2865170237e+01 +2.8213741111e+00 +2.2044146698e+01 3.1886055972e+01 0.0000000000e+00 0.0000e+00 1.0000e+00
</event>
<event>
 5      2 +1.7896800e-02 9.11880000e+01 7.81616400e-03 1.18400000e-01
      -11 -1    0    0    0    0 +0.0000000000e+00 +0.0000000000e+00 +4.5593999997e+01 4.5594000000e+01 5.1100000000e-04 0.0000e+00 1.0000e+00
       11 -1    0    0    0    0 -0.0000000000e+00 -0.0000000000e+00 -4.5593999997e+01 4.5594000000e+01 5.1100000000e-04 0.0000e+00 -1.0000e+00
       23  2    1    2    0    0 +0.0000000000e+00 +0.0000000000e+00 +0.0000000000e+00 9.1188000000e+01 9.1188000000e+01 2.4051e-14 0.0000e+00
  9900012  1    3    3    0    0 -2.9439335195e+00 +2.5191508361e+01 -1.9324640421e+01 5.9301944028e+01 5.0000000000e+01 9.5460e-04 -1.0000e+00
      -12  1    3    3    0    0 +2.9439335195e+00 -2.5191508361e+01 +1.9324640421e+01 3.1886055972e+01 0.0000000000e+00 0.0000e+00 1.0000e+00
</event>
<event>
 5      6 +1.7896800e-02 9.11880000e+01 7.81616400e-03 1.18400000e-01
      -11 -1    0    0    0    0 +0.0000000000e+00 +0.0000000000e+00 +4.5593999997e+01 4.5594000000e+01 5.1100000000e-04 0.0000e+00 1.0000e+00
       11 -1    0    0    0    0 -0.0000000000e+00 -0.0000000000e+00 -4.5593999997e+01 4.5594000000e+01 5.1100000000e-04 0.0000e+00 -1.0000e+00
       23  2    1    2    0    0 +0.0000000000e+00 +0.0000000000e+00 +0.0000000000e+00 9.1188000000e+01 9.1188000000e+01 6.0553e-14 0.0000e+00
  9900012  1    3    3    0    0 -2.3667036563e+01 +1.7840853157e+01 -1.1759927908e+01 5.9301944028e+01 5.0000000000e+01 3.4080e-04 -1.0000e+00
      -12  1    3    3    0    0 +2.3667036563e+01 -1.7840853157e+01 +1.1759927908e+01 3.1886055972e+01 0.0000000000e+00 0.0000e+00 1.0000e+00
</event>
<event>
 5      4 +1.7896800e-02 9.11880000e+01 7.81616400e-03 1.18400000e-01
      -11 -1    0    0    0    0 +0.0000000000e+00 +0.0000000000e+00 +4.5593999997e+01 4.5594000000e+01 5.1100000000e-04 0.0000e+00 -1.0000e+00
       11 -1    0    0    0    0 -0.0000000000e+00 -0.0000000000e+00 -4.5593999997e+01 4.5594000000e+01 5.1100000000e-04 0.0000e+00 1.0000e+00
       23  2    1    2    0    0 +0.0000000000e+00 +0.0000000000e+00 +0.0000000000e+00 9.1188000000e+01 9.1188000000e+01 1.5306e-13 0.0000e+00
  9900012  1    3    3    0    0 +2.7614552085e+01 -5.1133915737e+00 +1.5100010107e+01 5.9301944028e+01 5.0000000000e+01 2.2480e-04 -1.0000e+00
      -12  1    3    3    0    0 -2.7614552085e+01 +5.1133915737e+00 -1.5100010107e+01 3.1886055972e+01 0.0000000000e+00 0.0000e+00 1.0000e+00
</event>
<event>
 5      4 +1.7896800e-02 9.11880000e+01 7.81616400e-03 1.18400000e-01
      -11 -1    0    0    0    0 +0.0000000000e+00 +0.0000000000e+00 +4.5593999997e+01 4.5594000000e+01 5.1100000000e-04 0.0000e+00 1.0000e+00
       11 -1    0    0    0    0 -0.0000000000e+00 -0.0000000000e+00 -4.5593999997e+01 4.5594000000e+01 5.1100000000e-04 0.0000e+00 -1.0000e+00
       23  2    1    2    0    0 +0.0000000000e+00 +0.0000000000e+00 +0.0000000000e+00 9.1188000000e+01 9.1188000000e+01 7.9808e-15 0.0000e+00
  9900012  1    3    3    0    0 -2.8156094863e+00 -3.1760401166e+01 +2.6424699401e-01 5.9301944028e+01 5.0000000000e+01 5.0079e-04 -1.0000e+00
      -12  1    3    3    0    0 +2.8156094863e+00 +3.1760401166e+01 -2.6424699401e-01 3.1886055972e+01 0.0000000000e+00 0.0000e+00 1.0000e+00
</event>
<event>
 5      7 +1.7896800e-02 9.11880000e+01 7.81616400e-03 1.18400000e-01
      -11 -1    0    0    0    0 +0.0000000000e+00 +0.0000000000e+00 +4.5593999997e+01 4.5594000000e+01 5.1100000000e-04 0.0000e+00 1.0000e+00
       11 -1    0    0    0    0 -0.0000000000e+00 -0.0000000000e+00 -4.5593999997e+01 4.5594000000e+01 5.1100000000e-04 0.0000e+00 -1.0000e+00
       23  2    1    2    0    0 +0.0000000000e+00 +0.0000000000e+00 +0.0000000000e+00 9.1188000000e+01 9.1188000000e+01 5.4869e-14 0.0000e+00
  9900012  1    3    3    0    0 -1.0022389071e+00 -1.8843495212e+01 +2.5702894211e+01 5.9301944028e+01 5.0000000000e+01 2.3016e-03 1.0000e+00
       12  1    3    3    0    0 +1.0022389071e+00 +1.8843495212e+01 -2.5702894211e+01 3.1886055972e+01 0.0000000000e+00 0.0000e+00 -1.0000e+00
</event>
<event>
 5      5 +1.7896800e-02 9.11880000e+01 7.81616400e-03 1.18400000e-01
      -11 -1    0    0    0    0 +0.0000000000e+00 +0.0000000000e+00 +4.5593999997e+01 4.5594000000e+01 5.1100000000e-04 0.0000e+00 1.0000e+00
       11 -1    0    0    0    0 -0.0000000000e+00 -0.0000000000e+00 -4.5593999997e+01 4.5594000000e+01 5.1100000000e-04 0.0000e+00 -1.0000e+00
       23  2    1    2    0    0 +0.0000000000e+00 +0.0000000000e+00 +0.0000000000e+00 9.1188000000e+01 9.1188000000e+01 7.2055e-14 0.0000e+00
  9900012  1    3    3    0    0 -1.9325326448e+01 -2.3656975911e+01 +9.1432933818e+00 5.9301944028e+01 5.0000000000e+01 1.6229e-03 1.0000e+00
       12  1    3    3    0    0 +1.9325326448e+01 +2.3656975911e+01 -9.1432933818e+00 3.1886055972e+01 0.0000000000e+00 0.0000e+00 -1.0000e+00
</event>
<event>
 5      8 +1.7896800e-02 9.11880000e+01 7.81616400e-03 1.18400000e-01
      -11 -1    0    0    0    0 +0.0000000000e+00 +0.0000000000e+00 +4.5593999997e+01 4.5594000000e+01 5.1100000000e-04 0.0000e+00 1.0000e+00
       11 -1    0    0    0    0 -0.0000000000e+00 -0.0000000000e+00 -4.5593999997e+01 4.5594000000e+01 5.1100000000e-04 0.0000e+00 -1.0000e+00
       23  2    1    2    0    0 +0.0000000000e+00 +0.0000000000e+00 +0.0000000000e+00 9.1188000000e+01 9.1188000000e+01 1.2398e-14 0.0000e+00
  9900012  1    3    3    0    0 -6.2668052361e+00 -2.3927846519e+01 -2.0122273195e+01 5.9301944028e+01 5.0000000000e+01 1.8405e-03 -1.0000e+00
      -12  1    3    3    0    0 +6.2668052361e+00 +2.3927846519e+01 +2.0122273195e+01 3.1886055972e+01 0.0000000000e+00 0.0000e+00 1.0000e+00
</event>
<event>
 5      4 +1.7896800e-02 9.11880000e+01 7.81616400e-03 1.18400000e-01
      -11 -1    0    0    0    0 +0.0000000000e+00 +0.0000000000e+00 +4.5593999997e+01 4.5594000000e+01 5.1100000000e-04 0.0000e+00 -1.0000e+00
       11 -1    0    0    0    0 -0.0000000000e+00 -0.0000000000e+00 -4.5593999997e+01 4.5594000000e+01 5.1100000000e-04 0.0000e+00 1.0000e+00
       23  2    1    2    0    0 +0.0000000000e+00 +0.0000000000e+00 +0.0000000000e+00 9.1188000000e+01 9.1188000000e+01 1.4581e-13 0.0000e+00
  9900012  1    3    3    0    0 -1.6993286859e+01 -2.6980330221e+01 +1.0270536037e-01 5.9301944028e+01 5.0000000000e+01 3.3236e-04 -1.0000e+00
      -12  1    3    3    0    0 +1.6993286859e+01 +2.6980330221e+01 -1.0270536037e-01 3.1886055972e+01 0.0000000000e+00 0.0000e+00 1.0000e+00
</event>
<event>
 5      6 +1.7896800e-02 9.11880000e+01 7.81616400e-03 1.18400000e-01
      -11 -1    0    0    0    0 +0.0000000000e+00 +0.0000000000e+00 +4.5593999997e+01 4.5594000000e+01 5.1100000000e-04 0.0000e+00 -1.0000e+00
       11 -1    0    0    0    0 -0.0000000000e+00 -0.0000000000e+00 -4.5593999997e+01 4.5594000000e+01 5.1100000000e-04 0.0000e+00 1.0000e+00
       23  2    1    2    0    0 +0.0000000000e+00 +0.0000000000e+00 +0.0000000000e+00 9.1188000000e+01 9.1188000000e+01 9.3428e-14 0.0000e+00
  9900012  1    3    3    0    0 +3.0189146583e+01 -9.4681652093e-01 +1.0219566163e+01 5.9301944028e+01 5.0000000000e+01 8.5610e-04 -1.0000e+00
      -12  1    3    3    0    0 -3.0189146583e+01 +9.4681652093e-01 -1.0219566163e+01 3.1886055972e+01 0.0000000000e+00 0.0000e+00 1.0000e+00
</event>
<event>
 5      2 +1.7896800e-02 9.11880000e+01 7.81616400e-03 1.18400000e-01
      -11 -1    0    0    0    0 +0.0000000000e+00 +0.0000000000e+00 +4.5593999997e+01 4.5594000000e+01 5.1100000000e-04 0.0000e+00 1.0000e+00
       11 -1    0    0    0    0 -0.0000000000e+00 -0.0000000000e+00 -4.5593999997e+01 4.5594000000e+01 5.1100000000e-04 0.0000e+00 -1.0000e+00
       23  2    1    2    0    0 +0.0000000000e+00 +0.0000000000e+00 +0.0000000000e+00 9.1188000000e+01 9.1188000000e+01 7.8073e-14 0.0000e+00
  9900012  1    3    3    0    0 +2.8003110148e+01 +1.5036750440e+01 -2.5382127024e+00 5.9301944028e+01 5.0000000000e+01 1.2329e-03 -1.0000e+00
      -12  1    3    3    0    0 -2.8003110148e+01 -1.5036750440e+01 +2.5382127024e+00 3.1886055972e+01 0.0000000000e+00 0.0000e+00 1.0000e+00
</event>
<event>
 5      2 +1.7896800e-02 9.11880000e+01 7.81616400e-03 1.18400000e-01
      -11 -1    0    0    0    0 +0.0000000000e+00 +0.0000000000e+00 +4.5593999997e+01 4.5594000000e+01 5.1100000000e-04 0.0000e+00 1.0000e+00
       11 -1    0    0    0    0 -0.0000000000e+00 -0.0000000000e+00 -4.5593999997e+01 4.5594000000e+01 5.1100000000e-04 0.0000e+00 -1.0000e+00
       23  2    1    2    0    0 +0.0000000000e+00 +0.0000000000e+00 +0.0000000000e+00 9.1188000000e+01 9.1188000000e+01 7.2649e-14 0.0000e+00
  9900012  1    3    3    0    0 -1.2681158108e+01 -2.4239062892e+01 -1.6382204511e+01 5.9301944028e+01 5.0000000000e+01 9.3828e-04 -1.0000e+00
      -12  1    3    3    0    0 +1.2681158108e+01 +2.4239062892e+01 +1.6382204511e+01 3.1886055972e+01 0.0000000000e+00 0.0000e+00 1.0000e+00
</event>
<event>
 5      4 +1.7896800e-02 9.11880000e+01 7.81616400e-03 1.18400000e-01
      -11 -1    0    0    0    0 +0.0000000000e+00 +0.0000000000e+00 +4.5593999997e+01 4.5594000000e+01 5.1100000000e-04 0.0000e+00 1.0000e+00
       11 -1    0    0    0    0 -0.0000000000e+00 -0.0000000000e+00 -4.5593999997e+01 4.5594000000e+01 5.1100000000e-04 0.0000e+00 -1.0000e+00
       23  2    1    2    0    0 +0.0000000000e+00 +0.0000000000e+00 +0.0000000000e+00 9.1188000000e+01 9.1188000000e+01 5.0625e-15 0.0000e+00
  9900012  1    3    3    0    0 -2.5596844521e+00 -2.3196947484e+01 +2.1727176724e+01 5.9301944028e+01 5.0000000000e+01 2.1977e-03 1.0000e+00
      -12  1    3    3    0    0 +2.5596844521e+00 +2.3196947484e+01 -2.1727176724e+01 3.1886055972e+01 0.0000000000e+00 0.0000e+00 1.0000e+00
</event>
<event>
 5      7 +1.7896800e-02 9.11880000e+01 7.81616400e-03 1.18400000e-01
      -11 -1    0    0    0    0 +0.0000000000e+00 +0.0000000000e+00 +4.5593999997e+01 4.5594000000e+01 5.1100000000e-04 0.0000e+00 1.0000e+00
       11 -1    0    0    0    0 -0.0000000000e+00 -0.0000000000e+00 -4.5593999997e+01 4.5594000000e+01 5.1100000000e-04 0.0000e+00 -1.0000e+00
       23  2    1    2    0    0 +0.0000000000e+00 +0.0000000000e+00 +0.0000000000e+00 9.1188000000e+01 9.1188000000e+01 1.4883e-13 0.0000e+00
  9900012  1    3    3    0    0 +1.3194690435e+01 -2.1811954402e+01 +1.9153572904e+01 5.9301944028e+01 5.0000000000e+01 4.2658e-04 1.0000e+00
       12  1    3    3    0    0 -1.3194690435e+01 +2.1811954402e+01 -1.9153572904e+01 3.1886055972e+01 0.0000000000e+00 0.0000e+00 -1.0000e+00
</event>
<event>
 5      8 +1.7896800e-02 9.11880000e+01 7.81616400e-03 1.18400000e-01
      -11 -1    0    0    0    0 +0.0000000000e+00 +0.0000000000e+00 +4.5593999997e+01 4.5594000000e+01 5.1100000000e-04 0.0000e+00 -1.0000e+00
       11 -1    0    0    0    0 -0.0000000000e+00 -0.0000000000e+00 -4.5593999997e+01 4.5594000000e+01 5.1100000000e-04 0.0000e+00 1.0000e+00
       23  2    1    2    0    0 +0.0000000000e+00 +0.0000000000e+00 +0.0000000000e+00 9.1188000000e+01 9.1188000000e+01 8.2156e-14 0.0000e+00
  9900012  1    3    3    0    0 -2.2409216062e+01 +2.1780841435e+01 +6.3358146528e+00 5.9301944028e+01 5.0000000000e+01 1.4995e-03 -1.0000e+00
      -12  1    3    3    0    0 +2.2409216062e+01 -2.1780841435e+01 -6.3358146528e+00 3.1886055972e+01 0.0000000000e+00 0.0000e+00 1.0000e+00
</event>
<event>
 5      7 +1.7896800e-02 9.11880000e+01 7.81616400e-03 1.18400000e-01
      -11 -1    0    0    0    0 +0.0000000000e+00 +0.0000000000e+00 +4.5593999997e+01 4.5594000000e+01 5.1100000000e-04 0.0000e+00 1.0000e+00
       11 -1    0    0    0    0 -0.0000000000e+00 -0.0000000000e+00 -4.5593999997e+01 4.5594000000e+01 5.1100000000e-04 0.0000e+00 -1.0000e+00
       23  2    1    2    0    0 +0.0000000000e+00 +0.0000000000e+00 +0.0000000000e+00 9.1188000000e+01 9.1188000000e+01 8.3901e-15 0.0000e+00
  9900012  1    3    3    0    0 +6.3055213762e+00 +2.0756920306e+01 +2.3369022766e+01 5.9301944028e+01 5.0000000000e+01 2.2009e-03 -1.0000e+00
       12  1    3    3    0    0 -6.3055213762e+00 -2.0756920306e+01 -2.3369022766e+01 3.1886055972e+01 0.0000000000e+00 0.0000e+00 -1.0000e+00
</event>
<event>
 5      6 +1.7896800e-02 9.11880000e+01 7.81616400e-03 1.18400000e-01
      -11 -1    0    0    0    0 +0.0000000000e+00 +0.0000000000e+00 +4.5593999997e+01 4.5594000000e+01 5.1100000000e-04 0.0000e+00 1.0000e+00
       11 -1    0    0    0    0 -0.0000000000e+00 -0.0000000000e+00 -4.5593999997e+01 4.5594000000e+01 5.1100000000e-04 0.0000e+00 -1.0000e+00
       23  2    1    2    0    0 +0.0000000000e+00 +0.0000000000e+00 +0.0000000000e+00 9.1188000000e+01 9.1188000000e+01 2.5131e-13 0.0000e+00
  9900012  1    3    3    0    0 -2.1289954734e+01 +8.3531777931e+00 -2.2218974181e+01 5.9301944028e+01 5.0000000000e+01 4.2051e-04 -1.0000e+00
      -12  1    3    3    0    0 +2.1289954734e+01 -8.3531777931e+00 +2.2218974181e+01 3.1886055972e+01 0.0000000000e+00 0.0000e+00 1.0000e+00
</event>
<event>
 5      5 +1.7896800e-02 9.11880000e+01 7.81616400e-03 1.18400000e-01
      -11 -1    0    0    0    0 +0.0000000000e+00 +0.0000000000e+00 +4.5593999997e+01 4.5594000000e+01 5.1100000000e-04 0.0000e+00 1.0000e+00
       11 -1    0    0    0    0 -0.0000000000e+00 -0.0000000000e+00 -4.5593999997e+01 4.5594000000e+01 5.1100000000e-04 0.0000e+00 -1.0000e+00
       23  2    1    2    0    0 +0.0000000000e+00 +0.0000000000e+00 +0.0000000000e+00 9.1188000000e+01 9.1188000000e+01 8.1906e-14 0.0000e+00
  9900012  1    3    3    0    0 -4.5300253530e+00 +1.6107450471e+01 +2.7143129427e+01 5.9301944028e+01 5.0000000000e+01 8.3921e-04 1.0000e+00
       12  1    3    3    0    0 +4.5300253530e+00 -1.6107450471e+01 -2.7143129427e+01 3.1886055972e+01 0.0000000000e+00 0.0000e+00 -1.0000e+00
</event>
<event>
 5      6 +1.7896800e-02 9.11880000e+01 7.81616400e-03 1.18400000e-01
      -11 -1    0    0    0    0 +0.0000000000e+00 +0.0000000000e+00 +4.5593999997e+01 4.5594000000e+01 5.1100000000e-04 0.0000e+00 1.0000e+00
       11 -1    0    0    0    0 -0.0000000000e+00 -0.0000000000e+00 -4.5593999997e+01 4.5594000000e+01 5.1100000000e-04 0.0000e+00 -1.0000e+00
       23  2    1    2    0    0 +0.0000000000e+00 +0.0000000000e+00 +0.0000000000e+00 9.1188000000e+01 9.1188000000e+01 1.7079e-13 0.0000e+00
  9900012  1    3    3    0    0 +1.0839904126e+01 -2.0124655155e+01 -2.2230953621e+01 5.9301944028e+01 5.0000000000e+01 2.8656e-04 -1.0000e+00
      -12  1    3    3    0    0 -1.0839904126e+01 +2.0124655155e+01 +2.2230953621e+01 3.1886055972e+01 0.0000000000e+00 0.0000e+00 1.0000e+00
</event>
<event>
 5      5 +1.7896800e-02 9.11880000e+01 7.81616400e-03 1.18400000e-01
      -11 -1    0    0    0    0 +0.0000000000e+00 +0.0000000000e+00 +4.5593999997e+01 4.5594000000e+01 5.1100000000e-04 0.0000e+00 -1.0000e+00
       11 -1    0    0    0    0 -0.0000000000e+00 -0.0000000000e+00 -4.5593999997e+01 4.5594000000e+01 5.1100000000e-04 0.0000e+00 1.0000e+00
       23  2    1    2    0    0 +0.0000000000e+00 +0.0000000000e+00 +0.0000000000e+00 9.1188000000e+01 9.1188000000e+01 5.0812e-14 0.0000e+00
  9900012  1    3    3    0    0 -1.6876441282e+01 +3.8640742816e+00 -2.6776393055e+01 5.9301944028e+01 5.0000000000e+01 4.4617e-04 1.0000e+00
       12  1    3    3    0    0 +1.6876441282e+01 -3.8640742816e+00 +2.6776393055e+01 3.1886055972e+01 0.0000000000e+00 0.0000e+00 -1.0000e+00
</event>
<event>
 5      3 +1.7896800e-02 9.11880000e+01 7.81616400e-03 1.18400000e-01
      -11 -1    0    0    0    0 +0.0000000000e+00 +0.0000000000e+00 +4.5593999997e+01 4.5594000000e+01 5.1100000000e-04 0.0000e+00 -1.0000e+00
       11 -1    0    0    0    0 -0.0000000000e+00 -0.0000000000e+00 -4.5593999997e+01 4.5594000000e+01 5.1100000000e-04 0.0000e+00 1.0000e+00
       23  2    1    2    0    0 +0.0000000000e+00 +0.0000000000e+00 +0.0000000000e+00 9.1188000000e+01 9.1188000000e+01 3.5611e-14 0.0000e+00
  9900012  1    3    3    0    0 -6.9248288370e+00 -3.0904722562e+01 -3.6966788389e+00 5.9301944028e+01 5.0000000000e+01 2.8241e-04 1.0000e+00
       12  1    3    3    0    0 +6.9248288370e+00 +3.0904722562e+01 +3.6966788389e+00 3.1886055972e+01 0.0000000000e+00 0.0000e+00 -1.0000e+00
</event>
<event>
 5      7 +1.7896800e-02 9.11880000e+01 7.81616400e-03 1.18400000e-01
      -11 -1    0    0    0    0 +0.0000000000e+00 +0.0000000000e+00 +4.5593999997e+01 4.5594000000e+01 5.1100000000e-04 0.0000e+00 -1.0000e+00
       11 -1    0    0    0    0 -0.0000000000e+00 -0.0000000000e+00 -4.5593999997e+01 4.5594000000e+01 5.1100000000e-04 0.0000e+00 1.0000e+00
       23  2    1    2    0    0 +0.0000000000e+00 +0.0000000000e+00 +0.0000000000e+00 9.1188000000e+01 9.1188000000e+01 4.5254e-14 0.0000e+00
  9900012  1    3    3    0    0 +2.6549858617e+01 -1.7613092053e+01 -1.2667127591e+00 5.9301944028e+01 5.0000000000e+01 6.8107e-04 1.0000e+00
       12  1    3    3    0    0 -2.6549858617e+01 +1.7613092053e+01 +1.2667127591e+00 3.1886055972e+01 0.0000000000e+00 0.0000e+00 -1.0000e+00
</event>
<event>
 5      5 +1.7896800e-02 9.11880000e+01 7.81616400e-03 1.18400000e-01
      -11 -1    0    0    0    0 +0.0000000000e+00 +0.0000000000e+00 +4.5593999997e+01 4.5594000000e+01 5.1100000000e-04 0.0000e+00 1.0000e+00
       11 -1    0    0    0    0 -0.0000000000e+00 -0.0000000000e+00 -4.5593999997e+01 4.5594000000e+01 5.1100000000e-04 0.0000e+00 -1.0000e+00
       23  2    1    2    0    0 +0.0000000000e+00 +0.0000000000e+00 +0.0000000000e+00 9.1188000000e+01 9.1188000000e+01 1.8208e-13 0.0000e+00
  9900012  1    3    3    0    0 +2.9489832231e+01 +9.4248336432e+00 -7.6317017277e+00 5.9301944028e+01 5.0000000000e+01 1.0681e-03 -1.0000e+00
       12  1    3    3    0    0 -2.9489832231e+01 -9.4248336432e+00 +7.6317017277e+00 3.1886055972e+01 0.0000000000e+00 0.0000e+00 -1.0000e+00
</event>
<event>
 5      6 +1.7896800e-02 9.11880000e+01 7.81616400e-03 1.18400000e-01
      -11 -1    0    0    0    0 +0.0000000000e+00 +0.0000000000e+00 +4.5593999997e+01 4.5594000000e+01 5.1100000000e-04 0.0000e+00 -1.0000e+00
       11 -1    0    0    0    0 -0.0000000000e+00 -0.0000000000e+00 -4.5593999997e+01 4.5594000000e+01 5.1100000000e-04 0.0000e+00 1.0000e+00
       23  2    1    2    0    0 +0.0000000000e+00 +0.0000000000e+00 +0.0000000000e+00 9.1188000000e+01 9.1188000000e+01 1.1885e-13 0.0000e+00
  9900012  1    3    3    0    0 -1.5044333931e+01 -2.3406887058e+01 +1.5572611223e+01 5.9301944028e+01 5.0000000000e+01 8.1260e-04 -1.0000e+00
      -12  1    3    3    0    0 +1.5044333931e+01 +2.3406887058e+01 -1.5572611223e+01 3.1886055972e+01 0.0000000000e+00 0.0000e+00 1.0000e+00
</event>
<event>
 5      7 +1.7896800e-02 9.11880000e+01 7.81616400e-03 1.18400000e-01
      -11 -1    0    0    0    0 +0.0000000000e+00 +0.0000000000e+00 +4.5593999997e+01 4.5594000000e+01 5.1100000000e-04 0.0000e+00 -1.0000e+00
       11 -1    0    0    0    0 -0.0000000000e+00 -0.0000000000e+00 -4.5593999997e+01 4.5594000000e+01 5.1100000000e-04 0.0000e+00 1.0000e+00
       23  2    1    2    0    0 +0.0000000000e+00 +0.0000000000e+00 +0.0000000000e+00 9.1188000000e+01 9.1188000000e+01 1.3695e-13 0.0000e+00
  9900012  1    3    3    0    0 -1.2089131324e+01 +2.3710537635e+00 -2.9410059050e+01 5.9301944028e+01 5.0000000000e+01 3.2833e-03 1.0000e+00
       12  1    3    3    0    0 +1.2089131324e+01 -2.3710537635e+00 +2.9410059050e+01 3.1886055972e+01 0.0000000000e+00 0.0000e+00 -1.0000e+00
</event>
<event>
 5      3 +1.7896800e-02 9.11880000e+01 7.81616400e-03 1.18400000e-01
      -11 -1    0    0    0    0 +0.0000000000e+00 +0.0000000000e+00 +4.5593999997e+01 4.5594000000e+01 5.1100000000e-04 0.0000e+00 1.0000e+00
       11 -1    0    0    0    0 -0.0000000000e+00 -0.0000000000e+00 -4.5593999997e+01 4.5594000000e+01 5.1100000000e-04 0.0000e+00 -1.0000e+00
       23  2    1    2    0    0 +0.0000000000e+00 +0.0000000000e+00 +0.0000000000e+00 9.1188000000e+01 9.1188000000e+01 1.4873e-14 0.0000e+00
  9900012  1    3    3    0    0 +1.1597103693e+01 -2.2126194265e+01 -1.9815632181e+01 5.9301944028e+01 5.0000000000e+01 1.5187e-03 -1.0000e+00
       12  1    3    3    0    0 -1.1597103693e+01 +2.2126194265e+01 +1.9815632181e+01 3.1886055972e+01 0.0000000000e+00 0.0000e+00 -1.0000e+00
</event>
<event>
 5      7 +1.7896800e-02 9.11880000e+01 7.81616400e-03 1.18400000e-01
      -11 -1    0    0    0    0 +0.0000000000e+00 +0.0000000000e+00 +4.5593999997e+01 4.5594000000e+01 5.1100000000e-04 0.0000e+00 1.0000e+00
       11 -1    0    0    0    0 -0.0000000000e+00 -0.0000000000e+00 -4.5593999997e+01 4.5594000000e+01 5.1100000000e-04 0.0000e+00 -1.0000e+00
       23  2    1    2    0    0 +0.0000000000e+00 +0.0000000000e+00 +0.0000000000e+00 9.1188000000e+01 9.1188000000e+01 2.2095e-13 0.0000e+00
  9900012  1    3    3    0    0 +1.0117594763e+01 -2.3947222732e+01 +1.8463081138e+01 5.9301944028e+01 5.0000000000e+01 4.7082e-04 1.0000e+00
       12  1    3    3    0    0 -1.0117594763e+01 +2.3947222732e+01 -1.8463081138e+01 3.1886055972e+01 0.0000000000e+00 0.0000e+00 -1.0000e+00
</event>
<event>
 5      5 +1.7896800e-02 9.11880000e+01 7.81616400e-03 1.18400000e-01
      -11 -1    0    0    0    0 +0.0000000000e+00 +0.0000000000e+00 +4.5593999997e+01 4.5594000000e+01 5.1100000000e-04 0.0000e+00 -1.0000e+00
       11 -1    0    0    0    0 -0.0000000000e+00 -0.0000000000e+00 -4.5593999997e+01 4.5594000000e+01 5.1100000000e-04 0.0000e+00 1.0000e+00
       23  2    1    2    0    0 +0.0000000000e+00 +0.0000000000e+00 +0.0000000000e+00 9.1188000000e+01 9.1188000000e+01 2.4456e-14 0.0000e+00
  9900012  1    3    3    0    0 +1.5269476425e+01 -1.4409076869e+01 -2.3998794948e+01 5.9301944028e+01 5.0000000000e+01 1.2700e-04 1.0000e+00
       12  1    3    3    0    0 -1.5269476425e+01 +1.4409076869e+01 +2.3998794948e+01 3.1886055972e+01 0.0000000000e+00 0.0000e+00 -1.0000e+00
</event>
<event>
 5      2 +1.7896800e-02 9.11880000e+01 7.81616400e-03 1.18400000e-01
      -11 -1    0    0    0    0 +0.0000000000e+00 +0.0000000000e+00 +4.5593999997e+01 4.5594000000e+01 5.1100000000e-04 0.0000e+00 1.0000e+00
       11 -1    0    0    0    0 -0.0000000000e+00 -0.0000000000e+00 -4.5593999997e+01 4.5594000000e+01 5.1100000000e-04 0.0000e+00 -1.0000e+00
       23  2    1    2    0    0 +0.0000000000e+00 +0.0000000000e+00 +0.0000000000e+00 9.1188000000e+01 9.1188000000e+01 2.3456e-13 0.0000e+00
  9900012  1    3    3    0    0 +1.3312832586e+01 -2.6942129442e+01 -1.0658832728e+01 5.9301944028e+01 5.0000000000e+01 3.1001e-04 1.0000e+00
      -12  1    3    3    0    0 -1.3312832586e+01 +2.6942129442e+01 +1.0658832728e+01 3.1886055972e+01 0.0000000000e+00 0.0000e+00 1.0000e+00
</event>
<event>
 5      8 +1.7896800e-02 9.11880000e+01 7.81616400e-03 1.18400000e-01
      -11 -1    0    0    0    0 +0.0000000000e+00 +0.0000000000e+00 +4.5593999997e+01 4.5594000000e+01 5.1100000000e-04 0.0000e+00 -1.0000e+00
       11 -1    0    0    0    0 -0.0000000000e+00 -0.0000000000e+00 -4.5593999997e+01 4.5594000000e+01 5.1100000000e-04 0.0000e+00 1.0000e+00
       23  2    1    2    0    0 +0.0000000000e+00 +0.0000000000e+00 +0.0000000000e+00 9.1188000000e+01 9.1188000000e+01 2.3285e-13 0.0000e+00
  9900012  1    3    3    0    0 +2.6269857644e+01 -1.7285094796e+01 +5.2764232901e+00 5.9301944028e+01 5.0000000000e+01 5.1929e-04 -1.0000e+00
      -12  1    3    3    0    0 -2.6269857644e+01 +1.7285094796e+01 -5.2764232901e+00 3.1886055972e+01 0.0000000000e+00 0.0000e+00 1.0000e+00
</event>
<event>
 5      1 +1.7896800e-02 9.11880000e+01 7.81616400e-03 1.18400000e-01
      -11 -1    0    0    0    0 +0.0000000000e+00 +0.0000000000e+00 +4.5593999997e+01 4.5594000000e+01 5.1100000000e-04 0.0000e+00 -1.0000e+00
       11 -1    0    0    0    0 -0.0000000000e+00 -0.0000000000e+00 -4.5593999997e+01 4.5594000000e+01 5.1100000000e-04 0.0000e+00 1.0000e+00
       23  2    1    2    0    0 +0.0000000000e+00 +0.0000000000e+00 +0.0000000000e+00 9.1188000000e+01 9.1188000000e+01 8.6367e-14 0.0000e+00
  9900012  1    3    3    0    0 +1.7744200559e+00 -1.8777052205e+01 -2.5709809595e+01 5.9301944028e+01 5.0000000000e+01 3.1160e-04 1.0000e+00
       12  1    3    3    0    0 -1.7744200559e+00 +1.8777052205e+01 +2.5709809595e+01 3.1886055972e+01 0.0000000000e+00 0.0000e+00 -1.0000e+00
</event>
<event>
 5      6 +1.7896800e-02 9.11880000e+01 7.81616400e-03 1.18400000e-01
      -11 -1    0    0    0    0 +0.0000000000e+00 +0.0000000000e+00 +4.5593999997e+01 4.5594000000e+01 5.1100000000e-04 0.0000e+00 1.0000e+00
       11 -1    0    0    0    0 -0.0000000000e+00 -0.0000000000e+00 -4.5593999997e+01 4.5594000000e+01 5.1100000000e-04 0.0000e+00 -1.0000e+00
       23  2    1    2    0    0 +0.0000000000e+00 +0.0000000000e+00 +0.0000000000e+00 9.1188000000e+01 9.1188000000e+01 1.3471e-13 0.0000e+00
  9900012  1    3    3    0    0 -1.1786120121e+01 -2.7209078337e+01 -1.1724930447e+01 5.9301944028e+01 5.0000000000e+01 8.6851e-04 -1.0000e+00
      -12  1    3    3    0    0 +1.1786120121e+01 +2.7209078337e+01 +1.1724930447e+01 3.1886055972e+01 0.0000000000e+00 0.0000e+00 1.0000e+00
</event>
<event>
 5      8 +1.7896800e-02 9.11880000e+01 7.81616400e-03 1.18400000e-01
      -11 -1    0    0    0    0 +0.0000000000e+00 +0.0000000000e+00 +4.5593999997e+01 4.5594000000e+01 5.1100000000e-04 0.0000e+00 -1.0000e+00
       11 -1    0    0    0    0 -0.0000000000e+00 -0.0000000000e+00 -4.5593999997e+01 4.5594000000e+01 5.1100000000e-04 0.0000e+00 1.0000e+00
       23  2    1    2    0    0 +0.0000000000e+00 +0.0000000000e+00 +0.0000000000e+00 9.1188000000e+01 9.1188000000e+01 6.7845e-14 0.0000e+00
  9900012  1    3    3    0    0 -1.6433777888e+01 +1.1722462749e+01 +2.4682693874e+01 5.9301944028e+01 5.0000000000e+01 3.3670e-04 -1.0000e+00
      -12  1    3    3    0    0 +1.6433777888e+01 -1.1722462749e+01 -2.4682693874e+01 3.1886055972e+01 0.0000000000e+00 0.0000e+00 1.0000e+00
</event>
<event>
 5      1 +1.7896800e-02 9.11880000e+01 7.81616400e-03 1.18400000e-01
      -11 -1    0    0    0    0 +0.0000000000e+00 +0.0000000000e+00 +4.5593999997e+01 4.5594000000e+01 5.1100000000e-04 0.0000e+00 -1.0000e+00
       11 -1    0    0    0    0 -0.0000000000e+00 -0.0000000000e+00 -4.5593999997e+01 4.5594000000e+01 5.1100000000e-04 0.0000e+00 1.0000e+00
       23  2    1    2    0    0 +0.0000000000e+00 +0.0000000000e+00 +0.0000000000e+00 9.1188000000e+01 9.1188000000e+01 7.3819e-14 0.0000e+00
  9900012  1    3    3    0    0 -2.4290251611e+01 +1.0393699371e+01 -1.7851477684e+01 5.9301944028e+01 5.0000000000e+01 9.1796e-04 -1.0000e+00
       12  1    3    3    0    0 +2.4290251611e+01 -1.0393699371e+01 +1.7851477684e+01 3.1886055972e+01 0.0000000000e+00 0.0000e+00 -1.0000e+00
</event>
<event>
 5      2 +1.7896800e-02 9.11880000e+01 7.81616400e-03 1.18400000e-01
      -11 -1    0    0    0    0 +0.0000000000e+00 +0.0000000000e+00 +4.5593999997e+01 4.5594000000e+01 5.1100000000e-04 0.0000e+00 -1.0000e+00
       11 -1    0    0    0    0 -0.0000000000e+00 -0.0000000000e+00 -4.5593999997e+01 4.5594000000e+01 5.1100000000e-04 0.0000e+00 1.0000e+00
       23  2    1    2    0    0 +0.0000000000e+00 +0.0000000000e+00 +0.0000000000e+00 9.1188000000e+01 9.1188000000e+01 4.2666e-14 0.0000e+00
  9900012  1    3    3    0    0 -8.8956738200e-01 -1.6023339582e+01 +2.7553254327e+01 5.9301944028e+01 5.0000000000e+01 1.2036e-03 -1.0000e+00
      -12  1    3    3    0    0 +8.8956738200e-01 +1.6023339582e+01 -2.7553254327e+01 3.1886055972e+01 0.0000000000e+00 0.0000e+00 1.0000e+00
</event>
<event>
 5      3 +1.7896800e-02 9.11880000e+01 7.81616400e-03 1.18400000e-01
      -11 -1    0    0    0    0 +0.0000000000e+00 +0.0000000000e+00 +4.5593999997e+01 4.5594000000e+01 5.1100000000e-04 0.0000e+00 1.0000e+00
       11 -1    0    0    0    0 -0.0000000000e+00 -0.0000000000e+00 -4.5593999997e+01 4.5594000000e+01 5.1100000000e-04 0.0000e+00 -1.0000e+00
       23  2    1    2    0    0 +0.0000000000e+00 +0.0000000000e+00 +0.0000000000e+00 9.1188000000e+01 9.1188000000e+01 1.3102e-14 0.0000e+00
  9900012  1    3    3    0    0 +9.1504052104e+00 -2.7797293536e+01 -1.2661007938e+01 5.9301944028e+01 5.0000000000e+01 4.6696e-04 1.0000e+00
       12  1    3    3    0    0 -9.1504052104e+00 +2.7797293536e+01 +1.2661007938e+01 3.1886055972e+01 0.0000000000e+00 0.0000e+00 -1.0000e+00
</event>
<event>
 5      4 +1.7896800e-02 9.11880000e+01 7.81616400e-03 1.18400000e-01
      -11 -1    0    0    0    0 +0.0000000000e+00 +0.0000000000e+00 +4.5593999997e+01 4.5594000000e+01 5.1100000000e-04 0.0000e+00 -1.0000e+00
       11 -1    0    0    0    0 -0.0000000000e+00 -0.0000000000e+00 -4.5593999997e+01 4.5594000000e+01 5.1100000000e-04 0.0000e+00 1.0000e+00
       23  2    1    2    0    0 +0.0000000000e+00 +0.0000000000e+00 +0.0000000000e+00 9.1188000000e+01 9.1188000000e+01 9.8848e-14 0.0000e+00
  9900012  1    3    3    0    0 +1.8175794801e+01 +2.6098185860e+01 +2.2903588469e+00 5.9301944028e+01 5.0000000000e+01 1.4183e-04 -1.0000e+00
      -12  1    3    3    0    0 -1.8175794801e+01 -2.6098185860e+01 -2.2903588469e+00 3.1886055972e+01 0.0000000000e+00 0.0000e+00 1.0000e+00
</event>
<event>
 5      4 +1.7896800e-02 9.11880000e+01 7.81616400e-03 1.18400000e-01
      -11 -1    0    0    0    0 +0.0000000000e+00 +0.0000000000e+00 +4.5593999997e+01 4.5594000000e+01 5.1100000000e-04 0.0000e+00 -1.0000e+00
       11 -1    0    0    0    0 -0.0000000000e+00 -0.0000000000e+00 -4.5593999997e+01 4.5594000000e+01 5.1100000000e-04 0.0000e+00 1.0000e+00
       23  2    1    2    0    0 +0.0000000000e+00 +0.0000000000e+00 +0.0000000000e+00 9.1188000000e+01 9.1188000000e+01 1.5962e-14 0.0000e+00
  9900012  1    3    3    0    0 +6.3626118178e+00 +1.8977823707e+01 +2.4820957750e+01 5.9301944028e+01 5.0000000000e+01 7.3068e-04 -1.0000e+00
      -12  1    3    3    0    0 -6.3626118178e+00 -1.8977823707e+01 -2.4820957750e+01 3.1886055972e+01 0.0000000000e+00 0.0000e+00 1.0000e+00
</event>
<event>
 5      2 +1.7896800e-02 9.11880000e+01 7.81616400e-03 1.18400000e-01
      -11 -1    0    0    0    0 +0.0000000000e+00 +0.0000000000e+00 +4.5593999997e+01 4.5594000000e+01 5.1100000000e-04 0.0000e+00 1.0000e+00
       11 -1    0    0    0    0 -0.0000000000e+00 -0.0000000000e+00 -4.5593999997e+01 4.5594000000e+01 5.1100000000e-04 0.0000e+00 -1.0000e+00
       23  2    1    2    0    0 +0.0000000000e+00 +0.0000000000e+00 +0.0000000000e+00 9.1188000000e+01 9.1188000000e+01 1.7707e-14 0.0000e+00
  9900012  1    3    3    0    0 +2.6734558446e+01 +1.2375586732e+01 -1.2199541107e+01 5.9301944028e+01 5.0000000000e+01 2.4961e-04 1.0000e+00
      -12  1    3    3    0    0 -2.6734558446e+01 -1.2375586732e+01 +1.2199541107e+01 3.1886055972e+01 0.0000000000e+00 0.0000e+00 1.0000e+00
</event>
<event>
 5      4 +1.7896800e-02 9.11880000e+01 7.81616400e-03 1.18400000e-01
      -11 -1    0    0    0    0 +0.0000000000e+00 +0.0000000000e+00 +4.5593999997e+01 4.5594000000e+01 5.1100000000e-04 0.0000e+00 -1.0000e+00
       11 -1    0    0    0    0 -0.0000000000e+00 -0.0000000000e+00 -4.5593999997e+01 4.5594000000e+01 5.1100000000e-04 0.0000e+00 1.0000e+00
       23  2    1    2    0    0 +0.0000000000e+00 +0.0000000000e+00 +0.0000000000e+00 9.1188000000e+01 9.1188000000e+01 1.1225e-13 0.0000e+00
  9900012  1    3    3    0    0 -1.5924537021e+00 -1.4459985113e+01 +2.8374169366e+01 5.9301944028e+01 5.0000000000e+01 1.5138e-04 -1.0000e+00
      -12  1    3    3    0    0 +1.5924537021e+00 +1.4459985113e+01 -2.8374169366e+01 3.1886055972e+01 0.0000000000e+00 0.0000e+00 1.0000e+00
</event>
<event>
 5      1 +1.7896800e-02 9.11880000e+01 7.81616400e-03 1.18400000e-01
      -11 -1    0    0    0    0 +0.0000000000e+00 +0.0000000000e+00 +4.5593999997e+01 4.5594000000e+01 5.1100000000e-04 0.0000e+00 1.0000e+00
       11 -1    0    0    0    0 -0.0000000000e+00 -0.0000000000e+00 -4.5593999997e+01 4.5594000000e+01 5.1100000000e-04 0.0000e+00 -1.0000e+00
       23  2    1    2    0    0 +0.0000000000e+00 +0.0000000000e+00 +0.0000000000e+00 9.1188000000e+01 9.1188000000e+01 3.0139e-14 0.0000e+00
  9900012  1    3    3    0    0 -2.2623751345e+01 -1.9993390749e+01 +1.0254304800e+01 5.9301944028e+01 5.0000000000e+01 9.3806e-04 1.0000e+00
       12  1    3    3    0    0 +2.2623751345e+01 +1.9993390749e+01 -1.0254304800e+01 3.1886055972e+01 0.0000000000e+00 0.0000e+00 -1.0000e+00
</event>
<event>
 5      2 +1.7896800e-02 9.11880000e+01 7.81616400e-03 1.18400000e-01
      -11 -1    0    0    0    0 +0.0000000000e+00 +0.0000000000e+00 +4.5593999997e+01 4.5594000000e+01 5.1100000000e-04 0.0000e+00 1.0000e+00
       11 -1    0    0    0    0 -0.0000000000e+00 -0.0000000000e+00 -4.5593999997e+01 4.5594000000e+01 5.1100000000e-04 0.0000e+00 -1.0000e+00
       23  2    1    2    0    0 +0.0000000000e+00 +0.0000000000e+00 +0.0000000000e+00 9.1188000000e+01 9.1188000000e+01 3.5630e-14 0.0000e+00
  9900012  1    3    3    0    0 +2.4698701078e+01 -1.8849740257e+01 -7.1681254719e+00 5.9301944028e+01 5.0000000000e+01 1.4383e-04 -1.0000e+00
      -12  1    3    3    0    0 -2.4698701078e+01 +1.8849740257e+01 +7.1681254719e+00 3.1886055972e+01 0.0000000000e+00 0.0000e+00 1.0000e+00
</event>
<event>
 5      3 +1.7896800e-02 9.11880000e+01 7.81616400e-03 1.18400000e-01
      -11 -1    0    0    0    0 +0.0000000000e+00 +0.0000000000e+00 +4.5593999997e+01 4.5594000000e+01 5.1100000000e-04 0.0000e+00 1.0000e+00
       11 -1    0    0    0    0 -0.0000000000e+00 -0.0000000000e+00 -4.5593999997e+01 4.5594000000e+01 5.1100000000e-04 0.0000e+00 -1.0000e+00
       23  2    1    2    0    0 +0.0000000000e+00 +0.0000000000e+00 +0.0000000000e+00 9.1188000000e+01 9.1188000000e+01 1.4157e-15 0.0000e+00
  9900012  1    3    3    0    0 +1.1848793905e+01 +1.9724067199e+01 +2.2074596748e+01 5.9301944028e+01 5.0000000000e+01 1.5216e-05 1.0000e+00
       12  1    3    3    0    0 -1.1848793905e+01 -1.9724067199e+01 -2.2074596748e+01 3.1886055972e+01 0.0000000000e+00 0.0000e+00 -1.0000e+00
</event>
<event>
 5      8 +1.7896800e-02 9.11880000e+01 7.81616400e-03 1.18400000e-01
      -11 -1    0    0    0    0 +0.0000000000e+00 +0.0000000000e+00 +4.5593999997e+01 4.5594000000e+01 5.1100000000e-04 0.0000e+00 1.0000e+00
       11 -1    0    0    0    0 -0.0000000000e+00 -0.0000000000e+00 -4.5593999997e+01 4.5594000000e+01 5.1100000000e-04 0.0000e+00 -1.0000e+00
       23  2    1    2    0    0 +0.0000000000e+00 +0.0000000000e+00 +0.0000000000e+00 9.1188000000e+01 9.1188000000e+01 6.1628e-15 0.0000e+00
  9900012  1    3    3    0    0 +1.4156999767e+00 -1.9800319189e+01 -2.4953230634e+01 5.9301944028e+01 5.0000000000e+01 1.3059e-03 -1.0000e+00
      -12  1    3    3    0    0 -1.4156999767e+00 +1.9800319189e+01 +2.4953230634e+01 3.1886055972e+01 0.0000000000e+00 0.0000e+00 1.0000e+00
</event>
<event>
 5      6 +1.7896800e-02 9.11880000e+01 7.81616400e-03 1.18400000e-01
      -11 -1    0    0    0    0 +0.0000000000e+00 +0.0000000000e+00 +4.5593999997e+01 4.5594000000e+01 5.1100000000e-04 0.0000e+00 -1.0000e+00
       11 -1    0    0    0    0 -0.0000000000e+00 -0.0000000000e+00 -4.5593999997e+01 4.5594000000e+01 5.1100000000e-04 0.0000e+00 1.0000e+00
       23  2    1    2    0    0 +0.0000000000e+00 +0.0000000000e+00 +0.0000000000e+00 9.1188000000e+01 9.1188000000e+01 8.0671e-14 0.0000e+00
  9900012  1    3    3    0    0 -6.8031705552e+00 +3.1150816869e+01 +2.5306966321e-01 5.9301944028e+01 5.0000000000e+01 1.9063e-03 -1.0000e+00
      -12  1    3    3    0    0 +6.8031705552e+00 -3.1150816869e+01 -2.5306966321e-01 3.1886055972e+01 0.0000000000e+00 0.0000e+00 1.0000e+00
</event>
<event>
 5      5 +1.7896800e-02 9.11880000e+01 7.81616400e-03 1.18400000e-01
      -11 -1    0    0    0    0 +0.0000000000e+00 +0.0000000000e+00 +4.5593999997e+01 4.5594000000e+01 5.1100000000e-04 0.0000e+00 -1.0000e+00
       11 -1    0    0    0    0 -0.0000000000e+00 -0.0000000000e+00 -4.5593999997e+01 4.5594000000e+01 5.1100000000e-04 0.0000e+00 1.0000e+00
       23  2    1    2    0    0 +0.0000000000e+00 +0.0000000000e+00 +0.0000000000e+00 9.1188000000e+01 9.1188000000e+01 1.7339e-14 0.0000e+00
  9900012  1    3    3    0    0 +3.7670830780e+00 -1.1412875458e+01 -2.9534317739e+01 5.9301944028e+01 5.0000000000e+01 3.4267e-04 1.0000e+00
       12  1    3    3    0    0 -3.7670830780e+00 +1.1412875458e+01 +2.9534317739e+01 3.1886055972e+01 0.0000000000e+00 0.0000e+00 -1.0000e+00
</event>
<event>
 5      5 +1.7896800e-02 9.11880000e+01 7.81616400e-03 1.18400000e-01
      -11 -1    0    0    0    0 +0.0000000000e+00 +0.0000000000e+00 +4.5593999997e+01 4.5594000000e+01 5.1100000000e-04 0.0000e+00 -1.0000e+00
       11 -1    0    0    0    0 -0.0000000000e+00 -0.0000000000e+00 -4.5593999997e+01 4.5594000000e+01 5.1100000000e-04 0.0000e+00 1.0000e+00
       23  2    1    2    0    0 +0.0000000000e+00 +0.0000000000e+00 +0.0000000000e+00 9.1188000000e+01 9.1188000000e+01 3.9441e-13 0.0000e+00
  9900012  1    3    3    0    0 +2.3900270362e+01 +1.9992559244e+01 +6.7672163389e+00 5.9301944028e+01 5.0000000000e+01 1.6028e-04 1.0000e+00
       12  1    3    3    0    0 -2.3900270362e+01 -1.9992559244e+01 -6.7672163389e+00 3.1886055972e+01 0.0000000000e+00 0.0000e+00 -1.0000e+00
</event>
<event>
 5      6 +1.7896800e-02 9.11880000e+01 7.81616400e-03 1.18400000e-01
      -11 -1    0    0    0    0 +0.0000000000e+00 +0.0000000000e+00 +4.5593999997e+01 4.5594000000e+01 5.1100000000e-04 0.0000e+00 -1.0000e+00
       11 -1    0    0    0    0 -0.0000000000e+00 -0.0000000000e+00 -4.5593999997e+01 4.5594000000e+01 5.1100000000e-04 0.0000e+00 1.0000e+00
       23  2    1    2    0    0 +0.0000000000e+00 +0.0000000000e+00 +0.0000000000e+00 9.1188000000e+01 9.1188000000e+01 6.2043e-14 0.0000e+00
  9900012  1    3    3    0    0 +9.5791067281e+00 +2.1437805937e+01 +2.1572708601e+01 5.9301944028e+01 5.0000000000e+01 1.2511e-03 1.0000e+00
      -12  1    3    3    0    0 -9.5791067281e+00 -2.1437805937e+01 -2.1572708601e+01 3.1886055972e+01 0.0000000000e+00 0.0000e+00 1.0000e+00
</event>
<event>
 5      1 +1.7896800e-02 9.11880000e+01 7.81616400e-03 1.18400000e-01
      -11 -1    0    0    0    0 +0.0000000000e+00 +0.0000000000e+00 +4.5593999997e+01 4.5594000000e+01 5.1100000000e-04 0.0000e+00 -1.0000e+00
       11 -1    0    0    0    0 -0.0000000000e+00 -0.0000000000e+00 -4.5593999997e+01 4.5594000000e+01 5.1100000000e-04 0.0000e+00 1.0000e+00
       23  2    1    2    0    0 +0.0000000000e+00 +0.0000000000e+00 +0.0000000000e+00 9.1188000000e+01 9.1188000000e+01 1.1828e-13 0.0000e+00
  9900012  1    3    3    0    0 +6.5974755300e+00 +1.8446392714e+00 -3.1141470551e+01 5.9301944028e+01 5.0000000000e+01 8.8251e-05 1.0000e+00
       12  1    3    3    0    0 -6.5974755300e+00 -1.8446392714e+00 +3.1141470551e+01 3.1886055972e+01 0.0000000000e+00 0.0000e+00 -1.0000e+00
</event>
<event>
 5      6 +1.7896800e-02 9.11880000e+01 7.81616400e-03 1.18400000e-01
      -11 -1    0    0    0    0 +0.0000000000e+00 +0.0000000000e+00 +4.5593999997e+01 4.5594000000e+01 5.1100000000e-04 0.0000e+00 -1.0000e+00
       11 -1    0    0    0    0 -0.0000000000e+00 -0.0000000000e+00 -4.5593999997e+01 4.5594000000e+01 5.1100000000e-04 0.0000e+00 1.0000e+00
       23  2    1    2    0    0 +0.0000000000e+00 +0.0000000000e+00 +0.0000000000e+00 9.1188000000e+01 9.1188000000e+01 4.8520e-15 0.0000e+00
  9900012  1    3    3    0    0 -2.3772821397e+01 +2.0820790361e+01 +4.2506725421e+00 5.9301944028e+01 5.0000000000e+01 1.7945e-04 -1.0000e+00
      -12  1    3    3    0    0 +2.3772821397e+01 -2.0820790361e+01 -4.2506725421e+00 3.1886055972e+01 0.0000000000e+00 0.0000e+00 1.0000e+00
</event>
<event>
 5      4 +1.7896800e-02 9.11880000e+01 7.81616400e-03 1.18400000e-01
      -11 -1    0    0    0    0 +0.0000000000e+00 +0.0000000000e+00 +4.5593999997e+01 4.5594000000e+01 5.1100000000e-04 0.0000e+00 1.0000e+00
       11 -1    0    0    0    0 -0.0000000000e+00 -0.0000000000e+00 -4.5593999997e+01 4.5594000000e+01 5.1100000000e-04 0.0000e+00 -1.0000e+00
       23  2    1    2    0    0 +0.0000000000e+00 +0.0000000000e+00 +0.0000000000e+00 9.1188000000e+01 9.1188000000e+01 7.8873e-14 0.0000e+00
  9900012  1    3    3    0    0 -3.7653360646e+00 -1.5044374221e+01 -2.7860538654e+01 5.9301944028e+01 5.0000000000e+01 4.4429e-04 -1.0000e+00
      -12  1    3    3    0    0 +3.7653360646e+00 +1.5044374221e+01 +2.7860538654e+01 3.1886055972e+01 0.0000000000e+00 0.0000e+00 1.0000e+00
</event>
<event>
 5      6 +1.7896800e-02 9.11880000e+01 7.81616400e-03 1.18400000e-01
      -11 -1    0    0    0    0 +0.0000000000e+00 +0.0000000000e+00 +4.5593999997e+01 4.5594000000e+01 5.1100000000e-04 0.0000e+00 -1.0000e+00
       11 -1    0    0    0    0 -0.0000000000e+00 -0.0000000000e+00 -4.5593999997e+01 4.5594000000e+01 5.1100000000e-04 0.0000e+00 1.0000e+00
       23  2    1    2    0    0 +0.0000000000e+00 +0.0000000000e+00 +0.0000000000e+00 9.1188000000e+01 9.1188000000e+01 4.7662e-14 0.0000e+00
  9900012  1    3    3    0    0 -1.5668511012e+01 -1.7764914102e+01 +2.1345401264e+01 5.9301944028e+01 5.0000000000e+01 2.7411e-03 -1.0000e+00
      -12  1    3    3    0    0 +1.5668511012e+01 +1.7764914102e+01 -2.1345401264e+01 3.1886055972e+01 0.0000000000e+00 0.0000e+00 1.0000e+00
</event>
<event>
 5      3 +1.7896800e-02 9.11880000e+01 7.81616400e-03 1.18400000e-01
      -11 -1    0    0    0    0 +0.0000000000e+00 +0.0000000000e+00 +4.5593999997e+01 4.5594000000e+01 5.1100000000e-04 0.0000e+00 1.0000e+00
       11 -1    0    0    0    0 -0.0000000000e+00 -0.0000000000e+00 -4.5593999997e+01 4.5594000000e+01 5.1100000000e-04 0.0000e+00 -1.0000e+00
       23  2    1    2    0    0 +0.0000000000e+00 +0.0000000000e+00 +0.0000000000e+00 9.1188000000e+01 9.1188000000e+01 5.3998e-14 0.0000e+00
  9900012  1    3    3    0    0 -2.4154903057e+01 +5.3159452361e+00 -2.0124660246e+01 5.9301944028e+01 5.0000000000e+01 2.4169e-04 -1.0000e+00
       12  1    3    3    0    0 +2.4154903057e+01 -5.3159452361e+00 +2.0124660246e+01 3.1886055972e+01 0.0000000000e+00 0.0000e+00 -1.0000e+00
</event>
<event>
 5      4 +1.7896800e-02 9.11880000e+01 7.81616400e-03 1.18400000e-01
      -11 -1    0    0    0    0 +0.0000000000e+00 +0.0000000000e+00 +4.5593999997e+01 4.5594000000e+01 5.1100000000e-04 0.0000e+00 1.0000e+00
       11 -1    0    0    0    0 -0.0000000000e+00 -0.0000000000e+00 -4.5593999997e+01 4.5594000000e+01 5.1100000000e-04 0.0000e+00 -1.0000e+00
       23  2    1    2    0    0 +0.0000000000e+00 +0.0000000000e+00 +0.0000000000e+00 9.1188000000e+01 9.1188000000e+01 5.8753e-14 0.0000e+00
  9900012  1    3    3    0    0 +3.5396067529e-01 -2.9662475540e+01 -1.1693281069e+01 5.9301944028e+01 5.0000000000e+01 1.7263e-03 -1.0000e+00
      -12  1    3    3    0    0 -3.5396067529e-01 +2.9662475540e+01 +1.1693281069e+01 3.1886055972e+01 0.0000000000e+00 0.0000e+00 1.0000e+00
</event>
<event>
 5      5 +1.7896800e-02 9.11880000e+01 7.81616400e-03 1.18400000e-01
      -11 -1    0    0    0    0 +0.0000000000e+00 +0.0000000000e+00 +4.5593999997e+01 4.5594000000e+01 5.1100000000e-04 0.0000e+00 1.0000e+00
       11 -1    0    0    0    0 -0.0000000000e+00 -0.0000000000e+00 -4.5593999997e+01 4.5594000000e+01 5.1100000000e-04 0.0000e+00 -1.0000e+00
       23  2    1    2    0    0 +0.0000000000e+00 +0.0000000000e+00 +0.0000000000e+00 9.1188000000e+01 9.1188000000e+01 9.7181e-14 0.0000e+00
  9900012  1    3    3    0    0 -5.5166279171e+00 -2.7813954915e+01 +1.4583253886e+01 5.9301944028e+01 5.0000000000e+01 1.0227e-03 -1.0000e+00
       12  1    3    3    0    0 +5.5166279171e+00 +2.7813954915e+01 -1.4583253886e+01 3.1886055972e+01 0.0000000000e+00 0.0000e+00 -1.0000e+00
</event>
<event>
 5      7 +1.7896800e-02 9.11880000e+01 7.81616400e-03 1.18400000e-01
      -11 -1    0    0    0    0 +0.0000000000e+00 +0.0000000000e+00 +4.5593999997e+01 4.5594000000e+01 5.1100000000e-04 0.0000e+00 -1.0000e+00
       11 -1    0    0    0    0 -0.0000000000e+00 -0.0000000000e+00 -4.5593999997e+01 4.5594000000e+01 5.1100000000e-04 0.0000e+00 1.0000e+00
       23  2    1    2    0    0 +0.0000000000e+00 +0.0000000000e+00 +0.0000000000e+00 9.1188000000e+01 9.1188000000e+01 2.0459e-13 0.0000e+00
  9900012  1    3    3    0    0 -1.5038169567e+01 +1.7713339732e+01 -2.1836016511e+01 5.9301944028e+01 5.0000000000e+01 1.9857e-04 1.0000e+00
       12  1    3    3    0    0 +1.5038169567e+01 -1.7713339732e+01 +2.1836016511e+01 3.1886055972e+01 0.0000000000e+00 0.0000e+00 -1.0000e+00
</event>
<event>
 5      3 +1.7896800e-02 9.11880000e+01 7.81616400e-03 1.18400000e-01
      -11 -1    0    0    0    0 +0.0000000000e+00 +0.0000000000e+00 +4.5593999997e+01 4.5594000000e+01 5.1100000000e-04 0.0000e+00 1.0000e+00
       11 -1    0    0    0    0 -0.0000000000e+00 -0.0000000000e+00 -4.5593999997e+01 4.5594000000e+01 5.1100000000e-04 0.0000e+00 -1.0000e+00
       23  2    1    2    0    0 +0.0000000000e+00 +0.0000000000e+00 +0.0000000000e+00 9.1188000000e+01 9.1188000000e+01 9.6394e-15 0.0000e+00
  9900012  1    3    3    0    0 -2.1562533645e+01 -2.0734779371e+01 -1.1038416222e+01 5.9301944028e+01 5.0000000000e+01 2.1686e-03 1.0000e+00
       12  1    3    3    0    0 +2.1562533645e+01 +2.0734779371e+01 +1.1038416222e+01 3.1886055972e+01 0.0000000000e+00 0.0000e+00 -1.0000e+00
</event>
<event>
 5      3 +1.7896800e-02 9.11880000e+01 7.81616400e-03 1.18400000e-01
      -11 -1    0    0    0    0 +0.0000000000e+00 +0.0000000000e+00 +4.5593999997e+01 4.5594000000e+01 5.1100000000e-04 0.0000e+00 1.0000e+00
       11 -1    0    0    0    0 -0.0000000000e+00 -0.0000000000e+00 -4.5593999997e+01 4.5594000000e+01 5.1100000000e-04 0.0000e+00 -1.0000e+00
       23  2    1    2    0    0 +0.0000000000e+00 +0.0000000000e+00 +0.0000000000e+00 9.1188000000e+01 9.1188000000e+01 2.4210e-13 0.0000e+00
  9900012  1    3    3    0    0 -1.9927926136e+01 -1.7314786640e+01 +1.7882854609e+01 5.9301944028e+01 5.0000000000e+01 8.0976e-04 1.0000e+00
       12  1    3    3    0    0 +1.9927926136e+01 +1.7314786640e+01 -1.7882854609e+01 3.1886055972e+01 0.0000000000e+00 0.0000e+00 -1.0000e+00
</event>
<event>
 5      8 +1.7896800e-02 9.11880000e+01 7.81616400e-03 1.18400000e-01
      -11 -1    0    0    0    0 +0.0000000000e+00 +0.0000000000e+00 +4.5593999997e+01 4.5594000000e+01 5.1100000000e-04 0.0000e+00 -1.0000e+00
       11 -1    0    0    0    0 -0.0000000000e+00 -0.0000000000e+00 -4.5593999997e+01 4.5594000000e+01 5.1100000000e-04 0.0000e+00 1.0000e+00
       23  2    1    2    0    0 +0.0000000000e+00 +0.0000000000e+00 +0.0000000000e+00 9.1188000000e+01 9.1188000000e+01 4.0728e-15 0.0000e+00
  9900012  1    3    3    0    0 +2.3052663217e+00 -1.2877374108e+01 +2.9078850540e+01 5.9301944028e+01 5.0000000000e+01 2.3453e-03 -1.0000e+00
      -12  1    3    3    0    0 -2.3052663217e+00 +1.2877374108e+01 -2.9078850540e+01 3.1886055972e+01 0.0000000000e+00 0.0000e+00 1.0000e+00
</event>
<event>
 5      1 +1.7896800e-02 9.11880000e+01 7.81616400e-03 1.18400000e-01
      -11 -1    0    0    0    0 +0.0000000000e+00 +0.0000000000e+00 +4.5593999997e+01 4.5594000000e+01 5.1100000000e-04 0.0000e+00 -1.0000e+00
       11 -1    0    0    0    0 -0.0000000000e+00 -0.0000000000e+00 -4.5593999997e+01 4.5594000000e+01 5.1100000000e-04 0.0000e+00 1.0000e+00
       23  2    1    2    0    0 +0.0000000000e+00 +0.0000000000e+00 +0.0000000000e+00 9.1188000000e+01 9.1188000000e+01 1.7070e-14 0.0000e+00
  9900012  1    3    3    0    0 +1.7321810466e+01 -2.6250827560e+01 -5.2506666299e+00 5.9301944028e+01 5.0000000000e+01 8.9168e-04 1.0000e+00
       12  1    3    3    0    0 -1.7321810466e+01 +2.6250827560e+01 +5.2506666299e+00 3.1886055972e+01 0.0000000000e+00 0.0000e+00 -1.0000e+00
</event>
<event>
 5      3 +1.7896800e-02 9.11880000e+01 7.81616400e-03 1.18400000e-01
      -11 -1    0    0    0    0 +0.0000000000e+00 +0.0000000000e+00 +4.5593999997e+01 4.5594000000e+01 5.1100000000e-04 0.0000e+00 1.0000e+00
       11 -1    0    0    0    0 -0.0000000000e+00 -0.0000000000e+00 -4.5593999997e+01 4.5594000000e+01 5.1100000000e-04 0.0000e+00 -1.0000e+00
       23  2    1    2    0    0 +0.0000000000e+00 +0.0000000000e+00 +0.0000000000e+00 9.1188000000e+01 9.1188000000e+01 4.6862e-14 0.0000e+00
  9900012  1    3    3    0    0 +1.3065085089e+01 +1.5937620453e+01 -2.4331386548e+01 5.9301944028e+01 5.0000000000e+01 2.0825e-03 1.0000e+00
       12  1    3    3    0    0 -1.3065085089e+01 -1.5937620453e+01 +2.4331386548e+01 3.1886055972e+01 0.0000000000e+00 0.0000e+00 -1.0000e+00
</event>
<event>
 5      7 +1.7896800e-02 9.11880000e+01 7.81616400e-03 1.18400000e-01
      -11 -1    0    0    0    0 +0.0000000000e+00 +0.0000000000e+00 +4.5593999997e+01 4.5594000000e+01 5.1100000000e-04 0.0000e+00 1.0000e+00
       11 -1    0    0    0    0 -0.0000000000e+00 -0.0000000000e+00 -4.5593999997e+01 4.5594000000e+01 5.1100000000e-04 0.0000e+00 -1.0000e+00
       23  2    1    2    0    0 +0.0000000000e+00 +0.0000000000e+00 +0.0000000000e+00 9.1188000000e+01 9.1188000000e+01 3.5834e-13 0.0000e+00
  9900012  1    3    3    0    0 -2.6760471194e+01 -9.2992640527e+00 +1.4632888814e+01 5.9301944028e+01 5.0000000000e+01 1.7301e-04 1.0000e+00
       12  1    3    3    0    0 +2.6760471194e+01 +9.2992640527e+00 -1.4632888814e+01 3.1886055972e+01 0.0000000000e+00 0.0000e+00 -1.0000e+00
</event>
<event>
 5      3 +1.7896800e-02 9.11880000e+01 7.81616400e-03 1.18400000e-01
      -11 -1    0    0    0    0 +0.0000000000e+00 +0.0000000000e+00 +4.5593999997e+01 4.5594000000e+01 5.1100000000e-04 0.0000e+00 -1.0000e+00
       11 -1    0    0    0    0 -0.0000000000e+00 -0.0000000000e+00 -4.5593999997e+01 4.5594000000e+01 5.1100000000e-04 0.0000e+00 1.0000e+00
       23  2    1    2    0    0 +0.0000000000e+00 +0.0000000000e+00 +0.0000000000e+00 9.1188000000e+01 9.1188000000e+01 2.7191e-13 0.0000e+00
  9900012  1    3    3    0    0 -2.4317686288e+01 -1.8344516981e+01 +9.4259957477e+00 5.9301944028e+01 5.0000000000e+01 6.1418e-04 1.0000e+00
       12  1    3    3    0    0 +2.4317686288e+01 +1.8344516981e+01 -9.4259957477e+00 3.1886055972e+01 0.0000000000e+00 0.0000e+00 -1.0000e+00
</event>
<event>
 5      4 +1.7896800e-02 9.11880000e+01 7.81616400e-03 1.18400000e-01
      -11 -1    0    0    0    0 +0.0000000000e+00 +0.0000000000e+00 +4.5593999997e+01 4.5594000000e+01 5.1100000000e-04 0.0000e+00 -1.0000e+00
       11 -1    0    0    0    0 -0.0000000000e+00 -0.0000000000e+00 -4.5593999997e+01 4.5594000000e+01 5.1100000000e-04 0.0000e+00 1.0000e+00
       23  2    1    2    0    0 +0.0000000000e+00 +0.0000000000e+00 +0.0000000000e+00 9.1188000000e+01 9.1188000000e+01 2.6491e-15 0.0000e+00
  9900012  1    3    3    0    0 -1.1387140442e+01 -1.9957262437e+01 +2.2107945948e+01 5.9301944028e+01 5.0000000000e+01 1.4569e-05 -1.0000e+00
      -12  1    3    3    0    0 +1.1387140442e+01 +1.9957262437e+01 -2.2107945948e+01 3.1886055972e+01 0.0000000000e+00 0.0000e+00 1.0000e+00
</event>
<event>
 5      8 +1.7896800e-02 9.11880000e+01 7.81616400e-03 1.18400000e-01
      -11 -1    0    0    0    0 +0.0000000000e+00 +0.0000000000e+00 +4.5593999997e+01 4.5594000000e+01 5.1100000000e-04 0.0000e+00 1.0000e+00
       11 -1    0    0    0    0 -0.0000000000e+00 -0.0000000000e+00 -4.5593999997e+01 4.5594000000e+01 5.1100000000e-04 0.0000e+00 -1.0000e+00
       23  2    1    2    0    0 +0.0000000000e+00 +0.0000000000e+00 +0.0000000000e+00 9.1188000000e+01 9.1188000000e+01 2.5077e-14 0.0000e+00
  9900012  1    3    3    0    0 +2.5210825829e+00 -1.9572899094e+01 -2.5045285567e+01 5.9301944028e+01 5.0000000000e+01 8.1766e-04 -1.0000e+00
      -12  1    3    3    0    0 -2.5210825829e+00 +1.9572899094e+01 +2.5045285567e+01 3.1886055972e+01 0.0000000000e+00 0.0000e+00 1.0000e+00
</event>
<event>
 5      3 +1.7896800e-02 9.11880000e+01 7.81616400e-03 1.18400000e-01
      -11 -1    0    0    0    0 +0.0000000000e+00 +0.0000000000e+00 +4.5593999997e+01 4.5594000000e+01 5.1100000000e-04 0.0000e+00 1.0000e+00
       11 -1    0    0    0    0 -0.0000000000e+00 -0.0000000000e+00 -4.5593999997e+01 4.5594000000e+01 5.1100000000e-04 0.0000e+00 -1.0000e+00
       23  2    1    2    0    0 +0.0000000000e+00 +0.0000000000e+00 +0.0000000000e+00 9.1188000000e+01 9.1188000000e+01 1.0227e-14 0.0000e+00
  9900012  1    3    3    0    0 -1.8603143252e+01 -1.5647497315e+01 +2.0634908635e+01 5.9301944028e+01 5.0000000000e+01 9.4394e-04 1.0000e+00
       12  1    3    3    0    0 +1.8603143252e+01 +1.5647497315e+01 -2.0634908635e+01 3.1886055972e+01 0.0000000000e+00 0.0000e+00 -1.0000e+00
</event>
<event>
 5      8 +1.7896800e-02 9.11880000e+01 7.81616400e-03 1.18400000e-01
      -11 -1    0    0    0    0 +0.0000000000e+00 +0.0000000000e+00 +4.5593999997e+01 4.5594000000e+01 5.1100000000e-04 0.0000e+00 1.0000e+00
       11 -1    0    0    0    0 -0.0000000000e+00 -0.0000000000e+00 -4.5593999997e+01 4.5594000000e+01 5.1100000000e-04 0.0000e+00 -1.0000e+00
       23  2    1    2    0    0 +0.0000000000e+00 +0.0000000000e+00 +0.0000000000e+00 9.1188000000e+01 9.1188000000e+01 1.2936e-13 0.0000e+00
  9900012  1    3    3    0    0 -1.3639532213e+00 -9.5560401547e+00 -3.0389838658e+01 5.9301944028e+01 5.0000000000e+01 1.0936e-04 -1.0000e+00
      -12  1    3    3    0    0 +1.3639532213e+00 +9.5560401547e+00 +3.0389838658e+01 3.1886055972e+01 0.0000000000e+00 0.0000e+00 1.0000e+00
</event>
<event>
 5      2 +1.7896800e-02 9.11880000e+01 7.81616400e-03 1.18400000e-01
      -11 -1    0    0    0    0 +0.0000000000e+00 +0.0000000000e+00 +4.5593999997e+01 4.5594000000e+01 5.1100000000e-04 0.0000e+00 -1.0000e+00
       11 -1    0    0    0    0 -0.0000000000e+00 -0.0000000000e+00 -4.5593999997e+01 4.5594000000e+01 5.1100000000e-04 0.0000e+00 1.0000e+00
       23  2    1    2    0    0 +0.0000000000e+00 +0.0000000000e+00 +0.0000000000e+00 9.1188000000e+01 9.1188000000e+01 3.8921e-14 0.0000e+00
  9900012  1    3    3    0    0 +1.3946432337e+01 -6.9533558096e-01 +2.8665904817e+01 5.9301944028e+01 5.0000000000e+01 5.8548e-04 -1.0000e+00
      -12  1    3    3    0    0 -1.3946432337e+01 +6.9533558096e-01 -2.8665904817e+01 3.1886055972e+01 0.0000000000e+00 0.0000e+00 1.0000e+00
</event>
<event>
 5      5 +1.7896800e-02 9.11880000e+01 7.81616400e-03 1.18400000e-01
      -11 -1    0    0    0    0 +0.0000000000e+00 +0.0000000000e+00 +4.5593999997e+01 4.5594000000e+01 5.1100000000e-04 0.0000e+00 1.0000e+00
       11 -1    0    0    0    0 -0.0000000000e+00 -0.0000000000e+00 -4.5593999997e+01 4.5594000000e+01 5.1100000000e-04 0.0000e+00 -1.0000e+00
       23  2    1    2    0    0 +0.0000000000e+00 +0.0000000000e+00 +0.0000000000e+00 9.1188000000e+01 9.1188000000e+01 2.4243e-13 0.0000e+00
  9900012  1    3    3    0    0 -1.1609579252e+01 -1.3122932919e+01 +2.6640699440e+01 5.9301944028e+01 5.0000000000e+01 2.0032e-03 1.0000e+00
       12  1    3    3    0    0 +1.1609579252e+01 +1.3122932919e+01 -2.6640699440e+01 3.1886055972e+01 0.0000000000e+00 0.0000e+00 -1.0000e+00
</event>
<event>
 5      2 +1.7896800e-02 9.11880000e+01 7.81616400e-03 1.18400000e-01
      -11 -1    0    0    0    0 +0.0000000000e+00 +0.0000000000e+00 +4.5593999997e+01 4.5594000000e+01 5.1100000000e-04 0.0000e+00 -1.0000e+00
       11 -1    0    0    0    0 -0.0000000000e+00 -0.0000000000e+00 -4.5593999997e+01 4.5594000000e+01 5.1100000000e-04 0.0000e+00 1.0000e+00
       23  2    1    2    0    0 +0.0000000000e+00 +0.0000000000e+00 +0.0000000000e+00 9.1188000000e+01 9.1188000000e+01 4.7809e-15 0.0000e+00
  9900012  1    3    3    0    0 +3.5881179287e+00 +1.6235155062e+01 +2.7207824524e+01 5.9301944028e+01 5.0000000000e+01 9.5859e-05 -1.0000e+00
      -12  1    3    3    0    0 -3.5881179287e+00 -1.6235155062e+01 -2.7207824524e+01 3.1886055972e+01 0.0000000000e+00 0.0000e+00 1.0000e+00
</event>
<event>
 5      5 +1.7896800e-02 9.11880000e+01 7.81616400e-03 1.18400000e-01
      -11 -1    0    0    0    0 +0.0000000000e+00 +0.0000000000e+00 +4.5593999997e+01 4.5594000000e+01 5.1100000000e-04 0.0000e+00 -1.0000e+00
       11 -1    0    0    0    0 -0.0000000000e+00 -0.0000000000e+00 -4.5593999997e+01 4.5594000000e+01 5.1100000000e-04 0.0000e+00 1.0000e+00
       23  2    1    2    0    0 +0.0000000000e+00 +0.0000000000e+00 +0.0000000000e+00 9.1188000000e+01 9.1188000000e+01 2.8869e-14 0.0000e+00
  9900012  1    3    3    0    0 +1.4546226811e+00 +3.0897452149e+01 +7.7428734333e+00 5.9301944028e+01 5.0000000000e+01 1.1455e-04 1.0000e+00
       12  1    3    3    0    0 -1.4546226811e+00 -3.0897452149e+01 -7.7428734333e+00 3.1886055972e+01 0.0000000000e+00 0.0000e+00 -1.0000e+00
</event>
<event>
 5      4 +1.7896800e-02 9.11880000e+01 7.81616400e-03 1.18400000e-01
      -11 -1    0    0    0    0 +0.0000000000e+00 +0.0000000000e+00 +4.5593999997e+01 4.5594000000e+01 5.1100000000e-04 0.0000e+00 1.0000e+00
       11 -1    0    0    0    0 -0.0000000000e+00 -0.0000000000e+00 -4.5593999997e+01 4.5594000000e+01 5.1100000000e-04 0.0000e+00 -1.0000e+00
       23  2    1    2    0    0 +0.0000000000e+00 +0.0000000000e+00 +0.0000000000e+00 9.1188000000e+01 9.1188000000e+01 2.0189e-14 0.0000e+00
  9900012  1    3    3    0    0 -1.9571698141e+00 -1.4414913538e+01 -2.8374289762e+01 5.9301944028e+01 5.0000000000e+01 1.5742e-03 -1.0000e+00
      -12  1    3    3    0    0 +1.9571698141e+00 +1.4414913538e+01 +2.8374289762e+01 3.1886055972e+01 0.0000000000e+00 0.0000e+00 1.0000e+00
</event>
<event>
 5      3 +1.7896800e-02 9.11880000e+01 7.81616400e-03 1.18400000e-01
      -11 -1    0    0    0    0 +0.0000000000e+00 +0.0000000000e+00 +4.5593999997e+01 4.5594000000e+01 5.1100000000e-04 0.0000e+00 -1.0000e+00
       11 -1    0    0    0    0 -0.0000000000e+00 -0.0000000000e+00 -4.5593999997e+01 4.5594000000e+01 5.1100000000e-04 0.0000e+00 1.0000e+00
       23  2    1    2    0    0 +0.0000000000e+00 +0.0000000000e+00 +0.0000000000e+00 9.1188000000e+01 9.1188000000e+01 1.2152e-14 0.0000e+00
  9900012  1    3    3    0    0 -2.7823308220e+01 +9.3786835348e+00 +1.2434805198e+01 5.9301944028e+01 5.0000000000e+01 7.7922e-05 -1.0000e+00
       12  1    3    3    0    0 +2.7823308220e+01 -9.3786835348e+00 -1.2434805198e+01 3.1886055972e+01 0.0000000000e+00 0.0000e+00 -1.0000e+00
</event>
<event>
 5      7 +1.7896800e-02 9.11880000e+01 7.81616400e-03 1.18400000e-01
      -11 -1    0    0    0    0 +0.0000000000e+00 +0.0000000000e+00 +4.5593999997e+01 4.5594000000e+01 5.1100000000e-04 0.0000e+00 1.0000e+00
       11 -1    0    0    0    0 -0.0000000000e+00 -0.0000000000e+00 -4.5593999997e+01 4.5594000000e+01 5.1100000000e-04 0.0000e+00 -1.0000e+00
       23  2    1    2    0    0 +0.0000000000e+00 +0.0000000000e+00 +0.0000000000e+00 9.1188000000e+01 9.1188000000e+01 1.8594e-14 0.0000e+00
  9900012  1    3    3    0    0 +1.8766071715e+01 -1.4212849162e+01 +2.1506976462e+01 5.9301944028e+01 5.0000000000e+01 2.5340e-03 1.0000e+00
       12  1    3    3    0    0 -1.8766071715e+01 +1.4212849162e+01 -2.1506976462e+01 3.1886055972e+01 0.0000000000e+00 0.0000e+00 -1.0000e+00
</event>
<event>
 5      6 +1.7896800e-02 9.11880000e+01 7.81616400e-03 1.18400000e-01
      -11 -1    0    0    0    0 +0.0000000000e+00 +0.0000000000e+00 +4.5593999997e+01 4.5594000000e+01 5.1100000000e-04 0.0000e+00 1.0000e+00
       11 -1    0    0    0    0 -0.0000000000e+00 -0.0000000000e+00 -4.5593999997e+01 4.5594000000e+01 5.1100000000e-04 0.0000e+00 -1.0000e+00
       23  2    1    2    0    0 +0.0000000000e+00 +0.0000000000e+00 +0.0000000000e+00 9.1188000000e+01 9.1188000000e+01 7.8479e-15 0.0000e+00
  9900012  1    3    3    0    0 +2.1040717792e+01 -1.3732068571e+01 -1.9632601790e+01 5.9301944028e+01 5.0000000000e+01 2.0405e-03 -1.0000e+00
      -12  1    3    3    0    0 -2.1040717792e+01 +1.3732068571e+01 +1.9632601790e+01 3.1886055972e+01 0.0000000000e+00 0.0000e+00 1.0000e+00
</event>
<event>
 5      5 +1.7896800e-02 9.11880000e+01 7.81616400e-03 1.18400000e-01
      -11 -1    0    0    0    0 +0.0000000000e+00 +0.0000000000e+00 +4.5593999997e+01 4.5594000000e+01 5.1100000000e-04 0.0000e+00 1.0000e+00
       11 -1    0    0    0    0 -0.0000000000e+00 -0.0000000000e+00 -4.5593999997e+01 4.5594000000e+01 5.1100000000e-04 0.0000e+00 -1.0000e+00
       23  2    1    2    0    0 +0.0000000000e+00 +0.0000000000e+00 +0.0000000000e+00 9.1188000000e+01 9.1188000000e+01 3.0621e-14 0.0000e+00
  9900012  1    3    3    0    0 -3.4435269453e+00 +2.7743782517e+01 -1.5334445516e+01 5.9301944028e+01 5.0000000000e+01 1.9115e-04 -1.0000e+00
       12  1    3    3    0    0 +3.4435269453e+00 -2.7743782517e+01 +1.5334445516e+01 3.1886055972e+01 0.0000000000e+00 0.0000e+00 -1.0000e+00
</event>
<event>
 5      1 +1.7896800e-02 9.11880000e+01 7.81616400e-03 1.18400000e-01
      -11 -1    0    0    0    0 +0.0000000000e+00 +0.0000000000e+00 +4.5593999997e+01 4.5594000000e+01 5.1100000000e-04 0.0000e+00 1.0000e+00
       11 -1    0    0    0    0 -0.0000000000e+00 -0.0000000000e+00 -4.5593999997e+01 4.5594000000e+01 5.1100000000e-04 0.0000e+00 -1.0000e+00
       23  2    1    2    0    0 +0.0000000000e+00 +0.0000000000e+00 +0.0000000000e+00 9.1188000000e+01 9.1188000000e+01 6.5381e-14 0.0000e+00
  9900012  1    3    3    0    0 +6.8896312103e+00 -3.1074363907e+01 +1.9072113251e+00 5.9301944028e+01 5.0000000000e+01 9.1237e-05 1.0000e+00
       12  1    3    3    0    0 -6.8896312103e+00 +3.1074363907e+01 -1.9072113251e+00 3.1886055972e+01 0.0000000000e+00 0.0000e+00 -1.0000e+00
</event>
<event>
 5      7 +1.7896800e-02 9.11880000e+01 7.81616400e-03 1.18400000e-01
      -11 -1    0    0    0    0 +0.0000000000e+00 +0.0000000000e+00 +4.5593999997e+01 4.5594000000e+01 5.1100000000e-04 0.0000e+00 1.0000e+00
       11 -1    0    0    0    0 -0.0000000000e+00 -0.0000000000e+00 -4.5593999997e+01 4.5594000000e+01 5.1100000000e-04 0.0000e+00 -1.0000e+00
       23  2    1    2    0    0 +0.0000000000e+00 +0.0000000000e+00 +0.0000000000e+00 9.1188000000e+01 9.1188000000e+01 6.4684e-15 0.0000e+00
  9900012  1    3    3    0    0 +1.1864691880e+01 +2.5624537304e+01 +1.4809886563e+01 5.9301944028e+01 5.0000000000e+01 2.1044e-04 1.0000e+00
       12  1    3    3    0    0 -1.1864691880e+01 -2.5624537304e+01 -1.4809886563e+01 3.1886055972e+01 0.0000000000e+00 0.0000e+00 -1.0000e+00
</event>
<event>
 5      2 +1.7896800e-02 9.11880000e+01 7.81616400e-03 1.18400000e-01
      -11 -1    0    0    0    0 +0.0000000000e+00 +0.0000000000e+00 +4.5593999997e+01 4.5594000000e+01 5.1100000000e-04 0.0000e+00 -1.0000e+00
       11 -1    0    0    0    0 -0.0000000000e+00 -0.0000000000e+00 -4.5593999997e+01 4.5594000000e+01 5.1100000000e-04 0.0000e+00 1.0000e+00
       23  2    1    2    0    0 +0.0000000000e+00 +0.0000000000e+00 +0.0000000000e+00 9.1188000000e+01 9.1188000000e+01 2.8615e-15 0.0000e+00
  9900012  1    3    3    0    0 +1.1080261258e+01 -1.2371108482e+01 +2.7219552731e+01 5.9301944028e+01 5.0000000000e+01 1.1307e-05 -1.0000e+00
      -12  1    3    3    0    0 -1.1080261258e+01 +1.2371108482e+01 -2.7219552731e+01 3.1886055972e+01 0.0000000000e+00 0.0000e+00 1.0000e+00
</event>
<event>
 5      6 +1.7896800e-02 9.11880000e+01 7.81616400e-03 1.18400000e-01
      -11 -1    0    0    0    0 +0.0000000000e+00 +0.0000000000e+00 +4.5593999997e+01 4.5594000000e+01 5.1100000000e-04 0.0000e+00 1.0000e+00
       11 -1    0    0    0    0 -0.0000000000e+00 -0.0000000000e+00 -4.5593999997e+01 4.5594000000e+01 5.1100000000e-04 0.0000e+00 -1.0000e+00
       23  2    1    2    0    0 +0.0000000000e+00 +0.0000000000e+00 +0.0000000000e+00 9.1188000000e+01 9.1188000000e+01 6.0921e-14 0.0000e+00
  9900012  1    3    3    0    0 -3.5121436154e+00 +1.1411535157e+01 -2.9566235439e+01 5.9301944028e+01 5.0000000000e+01 1.3305e-03 -1.0000e+00
      -12  1    3    3    0    0 +3.5121436154e+00 -1.1411535157e+01 +2.9566235439e+01 3.1886055972e+01 0.0000000000e+00 0.0000e+00 1.0000e+00
</event>
<event>
 5      1 +1.7896800e-02 9.11880000e+01 7.81616400e-03 1.18400000e-01
      -11 -1    0    0    0    0 +0.0000000000e+00 +0.0000000000e+00 +4.5593999997e+01 4.5594000000e+01 5.1100000000e-04 0.0000e+00 1.0000e+00
       11 -1    0    0    0    0 -0.0000000000e+00 -0.0000000000e+00 -4.5593999997e+01 4.5594000000e+01 5.1100000000e-04 0.0000e+00 -1.0000e+00
       23  2    1    2    0    0 +0.0000000000e+00 +0.0000000000e+00 +0.0000000000e+00 9.1188000000e+01 9.1188000000e+01 1.7181e-16 0.0000e+00
  9900012  1    3    3    0    0 -1.6259570331e+00 -2.5422046557e+01 +1.9178018094e+01 5.9301944028e+01 5.0000000000e+01 1.4171e-03 1.0000e+00
       12  1    3    3    0    0 +1.6259570331e+00 +2.5422046557e+01 -1.9178018094e+01 3.1886055972e+01 0.0000000000e+00 0.0000e+00 -1.0000e+00
</event>
<event>
 5      7 +1.7896800e-02 9.11880000e+01 7.81616400e-03 1.18400000e-01
      -11 -1    0    0    0    0 +0.0000000000e+00 +0.0000000000e+00 +4.5593999997e+01 4.5594000000e+01 5.1100000000e-04 0.0000e+00 1.0000e+00
       11 -1    0    0    0    0 -0.0000000000e+00 -0.0000000000e+00 -4.5593999997e+01 4.5594000000e+01 5.1100000000e-04 0.0000e+00 -1.0000e+00
       23  2    1    2    0    0 +0.0000000000e+00 +0.0000000000e+00 +0.0000000000e+00 9.1188000000e+01 9.1188000000e+01 1.5727e-14 0.0000e+00
  9900012  1    3    3    0    0 +1.0445570379e+01 -2.9860289582e+01 -3.9967150233e+00 5.9301944028e+01 5.0000000000e+01 7.4992e-04 1.0000e+00
       12  1    3    3    0    0 -1.0445570379e+01 +2.9860289582e+01 +3.9967150233e+00 3.1886055972e+01 0.0000000000e+00 0.0000e+00 -1.0000e+00
</event>
<event>
 5      5 +1.7896800e-02 9.11880000e+01 7.81616400e-03 1.18400000e-01
      -11 -1    0    0    0    0 +0.0000000000e+00 +0.0000000000e+00 +4.5593999997e+01 4.5594000000e+01 5.1100000000e-04 0.0000e+00 1.0000e+00
       11 -1    0    0    0    0 -0.0000000000e+00 -0.0000000000e+00 -4.5593999997e+01 4.5594000000e+01 5.1100000000e-04 0.0000e+00 -1.0000e+00
       23  2    1    2    0    0 +0.0000000000e+00 +0.0000000000e+00 +0.0000000000e+00 9.1188000000e+01 9.1188000000e+01 2.2154e-13 0.0000e+00
  9900012  1    3    3    0    0 +7.5776537489e+00 -3.0539209411e+01 -5.1629853431e+00 5.9301944028e+01 5.0000000000e+01 1.6771e-03 -1.0000e+00
       12  1    3    3    0    0 -7.5776537489e+00 +3.0539209411e+01 +5.1629853431e+00 3.1886055972e+01 0.0000000000e+00 0.0000e+00 -1.0000e+00
</event>
<event>
 5      4 +1.7896800e-02 9.11880000e+01 7.81616400e-03 1.18400000e-01
      -11 -1    0    0    0    0 +0.0000000000e+00 +0.0000000000e+00 +4.5593999997e+01 4.5594000000e+01 5.1100000000e-04 0.0000e+00 -1.0000e+00
       11 -1    0    0    0    0 -0.0000000000e+00 -0.0000000000e+00 -4.5593999997e+01 4.5594000000e+01 5.1100000000e-04 0.0000e+00 1.0000e+00
       23  2    1    2    0    0 +0.0000000000e+00 +0.0000000000e+00 +0.0000000000e+00 9.1188000000e+01 9.1188000000e+01 2.1071e-15 0.0000e+00
  9900012  1    3    3    0    0 -1.6653189374e+00 -1.4422502524e+01 +2.8389059499e+01 5.9301944028e+01 5.0000000000e+01 4.9530e-04 -1.0000e+00
      -12  1    3    3    0    0 +1.6653189374e+00 +1.4422502524e+01 -2.8389059499e+01 3.1886055972e+01 0.0000000000e+00 0.0000e+00 1.0000e+00
</event>
<event>
 5      6 +1.7896800e-02 9.11880000e+01 7.81616400e-03 1.18400000e-01
      -11 -1    0    0    0    0 +0.0000000000e+00 +0.0000000000e+00 +4.5593999997e+01 4.5594000000e+01 5.1100000000e-04 0.0000e+00 1.0000e+00
       11 -1    0    0    0    0 -0.0000000000e+00 -0.0000000000e+00 -4.5593999997e+01 4.5594000000e+01 5.1100000000e-04 0.0000e+00 -1.0000e+00
       23  2    1    2    0    0 +0.0000000000e+00 +0.0000000000e+00 +0.0000000000e+00 9.1188000000e+01 9.1188000000e+01 2.7560e-14 0.0000e+00
  9900012  1    3    3    0    0 +1.0899267741e+01 -6.7634615261e+00 -2.9192158474e+01 5.9301944028e+01 5.0000000000e+01 9.7779e-04 -1.0000e+00
      -12  1    3    3    0    0 -1.0899267741e+01 +6.7634615261e+00 +2.9192158474e+01 3.1886055972e+01 0.0000000000e+00 0.0000e+00 1.0000e+00
</event>
<event>
 5      4 +1.7896800e-02 9.11880000e+01 7.81616400e-03 1.18400000e-01
      -11 -1    0    0    0    0 +0.0000000000e+00 +0.0000000000e+00 +4.5593999997e+01 4.5594000000e+01 5.1100000000e-04 0.0000e+00 1.0000e+00
       11 -1    0    0    0    0 -0.0000000000e+00 -0.0000000000e+00 -4.5593999997e+01 4.5594000000e+01 5.1100000000e-04 0.0000e+00 -1.0000e+00
       23  2    1    2    0    0 +0.0000000000e+00 +0.0000000000e+00 +0.0000000000e+00 9.1188000000e+01 9.1188000000e+01 6.1219e-14 0.0000e+00
  9900012  1    3    3    0    0 -2.0839552476e+01 +1.1076956441e+01 -2.1441423789e+01 5.9301944028e+01 5.0000000000e+01 1.3868e-03 -1.0000e+00
      -12  1    3    3    0    0 +2.0839552476e+01 -1.1076956441e+01 +2.1441423789e+01 3.1886055972e+01 0.0000000000e+00 0.0000e+00 1.0000e+00
</event>
<event>
 5      7 +1.7896800e-02 9.11880000e+01 7.81616400e-03 1.18400000e-01
      -11 -1    0    0    0    0 +0.0000000000e+00 +0.0000000000e+00 +4.5593999997e+01 4.5594000000e+01 5.1100000000e-04 0.0000e+00 -1.0000e+00
       11 -1    0    0    0    0 -0.0000000000e+00 -0.0000000000e+00 -4.5593999997e+01 4.5594000000e+01 5.1100000000e-04 0.0000e+00 1.0000e+00
       23  2    1    2    0    0 +0.0000000000e+00 +0.0000000000e+00 +0.0000000000e+00 9.1188000000e+01 9.1188000000e+01 1.2401e-14 0.0000e+00
  9900012  1    3    3    0    0 -2.5518457254e+01 +1.8611961627e+01 +4.3730754886e+00 5.9301944028e+01 5.0000000000e+01 6.9991e-05 -1.0000e+00
       12  1    3    3    0    0 +2.5518457254e+01 -1.8611961627e+01 -4.3730754886e+00 3.1886055972e+01 0.0000000000e+00 0.0000e+00 -1.0000e+00
</event>
<event>
 5      7 +1.7896800e-02 9.11880000e+01 7.81616400e-03 1.18400000e-01
      -11 -1    0    0    0    0 +0.0000000000e+00 +0.0000000000e+00 +4.5593999997e+01 4.5594000000e+01 5.1100000000e-04 0.0000e+00 1.0000e+00
       11 -1    0    0    0    0 -0.0000000000e+00 -0.0000000000e+00 -4.5593999997e+01 4.5594000000e+01 5.1100000000e-04 0.0000e+00 -1.0000e+00
       23  2    1    2    0    0 +0.0000000000e+00 +0.0000000000e+00 +0.0000000000e+00 9.1188000000e+01 9.1188000000e+01 8.9420e-14 0.0000e+00
  9900012  1    3    3    0    0 -2.0144863001e+01 +6.7336124327e+00 +2.3781579505e+01 5.9301944028e+01 5.0000000000e+01 6.7732e-04 -1.0000e+00
       12  1    3    3    0    0 +2.0144863001e+01 -6.7336124327e+00 -2.3781579505e+01 3.1886055972e+01 0.0000000000e+00 0.0000e+00 -1.0000e+00
</event>
<event>
 5      4 +1.7896800e-02 9.11880000e+01 7.81616400e-03 1.18400000e-01
      -11 -1    0    0    0    0 +0.0000000000e+00 +0.0000000000e+00 +4.5593999997e+01 4.5594000000e+01 5.1100000000e-04 0.0000e+00 -1.0000e+00
       11 -1    0    0    0    0 -0.0000000000e+00 -0.0000000000e+00 -4.5593999997e+01 4.5594000000e+01 5.1100000000e-04 0.0000e+00 1.0000e+00
       23  2    1    2    0    0 +0.0000000000e+00 +0.0000000000e+00 +0.0000000000e+00 9.1188000000e+01 9.1188000000e+01 2.3081e-16 0.0000e+00
  9900012  1    3    3    0    0 +9.5771794409e-01 -3.1589608633e+01 +4.2308354082e+00 5.9301944028e+01 5.0000000000e+01 8.1508e-04 -1.0000e+00
      -12  1    3    3    0    0 -9.5771794409e-01 +3.1589608633e+01 -4.2308354082e+00 3.1886055972e+01 0.0000000000e+00 0.0000e+00 1.0000e+00
</event>
<event>
 5      7 +1.7896800e-02 9.11880000e+01 7.81616400e-03 1.18400000e-01
      -11 -1    0    0    0    0 +0.0000000000e+00 +0.0000000000e+00 +4.5593999997e+01 4.5594000000e+01 5.1100000000e-04 0.0000e+00 1.0000e+00
       11 -1    0    0    0    0 -0.0000000000e+00 -0.0000000000e+00 -4.5593999997e+01 4.5594000000e+01 5.1100000000e-04 0.0000e+00 -1.0000e+00
       23  2    1    2    0    0 +0.0000000000e+00 +0.0000000000e+00 +0.0000000000e+00 9.1188000000e+01 9.1188000000e+01 1.3747e-13 0.0000e+00
  9900012  1    3    3    0    0 -2.5787379334e+01 -1.5549558907e+01 +1.0485363625e+01 5.9301944028e+01 5.0000000000e+01 3.7611e-04 1.0000e+00
       12  1    3    3    0    0 +2.5787379334e+01 +1.5549558907e+01 -1.0485363625e+01 3.1886055972e+01 0.0000000000e+00 0.0000e+00 -1.0000e+00
</event>
<event>
 5      6 +1.7896800e-02 9.11880000e+01 7.81616400e-03 1.18400000e-01
      -11 -1    0    0    0    0 +0.0000000000e+00 +0.0000000000e+00 +4.5593999997e+01 4.5594000000e+01 5.1100000000e-04 0.0000e+00 1.0000e+00
       11 -1    0    0    0    0 -0.0000000000e+00 -0.0000000000e+00 -4.5593999997e+01 4.5594000000e+01 5.1100000000e-04 0.0000e+00 -1.0000e+00
       23  2    1    2    0    0 +0.0000000000e+00 +0.0000000000e+00 +0.0000000000e+00 9.1188000000e+01 9.1188000000e+01 5.3690e-14 0.0000e+00
  9900012  1    3    3    0    0 +9.1781877111e+00 +2.5595705278e+01 -1.6653567400e+01 5.9301944028e+01 5.0000000000e+01 1.4797e-03 -1.0000e+00
      -12  1    3    3    0    0 -9.1781877111e+00 -2.5595705278e+01 +1.6653567400e+01 3.1886055972e+01 0.0000000000e+00 0.0000e+00 1.0000e+00
</event>
<event>
 5      3 +1.7896800e-02 9.11880000e+01 7.81616400e-03 1.18400000e-01
      -11 -1    0    0    0    0 +0.0000000000e+00 +0.0000000000e+00 +4.5593999997e+01 4.5594000000e+01 5.1100000000e-04 0.0000e+00 1.0000e+00
       11 -1    0    0    0    0 -0.0000000000e+00 -0.0000000000e+00 -4.5593999997e+01 4.5594000000e+01 5.1100000000e-04 0.0000e+00 -1.0000e+00
       23  2    1    2    0    0 +0.0000000000e+00 +0.0000000000e+00 +0.0000000000e+00 9.1188000000e+01 9.1188000000e+01 3.1908e-14 0.0000e+00
  9900012  1    3    3    0    0 +2.2509612810e+01 +4.3368403286e+00 +2.2163702592e+01 5.9301944028e+01 5.0000000000e+01 2.6676e-03 1.0000e+00
       12  1    3    3    0    0 -2.2509612810e+01 -4.3368403286e+00 -2.2163702592e+01 3.1886055972e+01 0.0000000000e+00 0.0000e+00 -1.0000e+00
</event>
<event>
 5      3 +1.7896800e-02 9.11880000e+01 7.81616400e-03 1.18400000e-01
      -11 -1    0    0    0    0 +0.0000000000e+00 +0.0000000000e+00 +4.5593999997e+01 4.5594000000e+01 5.1100000000e-04 0.0000e+00 -1.0000e+00
       11 -1    0    0    0    0 -0.0000000000e+00 -0.0000000000e+00 -4.5593999997e+01 4.5594000000e+01 5.1100000000e-04 0.0000e+00 1.0000e+00
       23  2    1    2    0    0 +0.0000000000e+00 +0.0000000000e+00 +0.0000000000e+00 9.1188000000e+01 9.1188000000e+01 2.3691e-14 0.0000e+00
  9900012  1    3    3    0    0 -3.3183230871e+00 -1.9675496130e+01 -2.4871351982e+01 5.9301944028e+01 5.0000000000e+01 3.6842e-04 1.0000e+00
       12  1    3    3    0    0 +3.3183230871e+00 +1.9675496130e+01 +2.4871351982e+01 3.1886055972e+01 0.0000000000e+00 0.0000e+00 -1.0000e+00
</event>
<event>
 5      3 +1.7896800e-02 9.11880000e+01 7.81616400e-03 1.18400000e-01
      -11 -1    0    0    0    0 +0.0000000000e+00 +0.0000000000e+00 +4.5593999997e+01 4.5594000000e+01 5.1100000000e-04 0.0000e+00 -1.0000e+00
       11 -1    0    0    0    0 -0.0000000000e+00 -0.0000000000e+00 -4.5593999997e+01 4.5594000000e+01 5.1100000000e-04 0.0000e+00 1.0000e+00
       23  2    1    2    0    0 +0.0000000000e+00 +0.0000000000e+00 +0.0000000000e+00 9.1188000000e+01 9.1188000000e+01 2.7828e-13 0.0000e+00
  9900012  1    3    3    0    0 -3.1708267673e+01 +6.4464043543e-01 -3.3001159617e+00 5.9301944028e+01 5.0000000000e+01 1.5703e-03 1.0000e+00
       12  1    3    3    0    0 +3.1708267673e+01 -6.4464043543e-01 +3.3001159617e+00 3.1886055972e+01 0.0000000000e+00 0.0000e+00 -1.0000e+00
</event>
<event>
 5      1 +1.7896800e-02 9.11880000e+01 7.81616400e-03 1.18400000e-01
      -11 -1    0    0    0    0 +0.0000000000e+00 +0.0000000000e+00 +4.5593999997e+01 4.5594000000e+01 5.1100000000e-04 0.0000e+00 1.0000e+00
       11 -1    0    0    0    0 -0.0000000000e+00 -0.0000000000e+00 -4.5593999997e+01 4.5594000000e+01 5.1100000000e-04 0.0000e+00 -1.0000e+00
       23  2    1    2    0    0 +0.0000000000e+00 +0.0000000000e+00 +0.0000000000e+00 9.1188000000e+01 9.1188000000e+01 5.6826e-14 0.0000e+00
  9900012  1    3    3    0    0 +1.8979211053e+01 +2.3215532816e+01 +1.0842008547e+01 5.9301944028e+01 5.0000000000e+01 1.1684e-03 1.0000e+00
       12  1    3    3    0    0 -1.8979211053e+01 -2.3215532816e+01 -1.0842008547e+01 3.1886055972e+01 0.0000000000e+00 0.0000e+00 -1.0000e+00
</event>
<event>
 5      7 +1.7896800e-02 9.11880000e+01 7.81616400e-03 1.18400000e-01
      -11 -1    0    0    0    0 +0.0000000000e+00 +0.0000000000e+00 +4.5593999997e+01 4.5594000000e+01 5.1100000000e-04 0.0000e+00 -1.0000e+00
       11 -1    0    0    0    0 -0.0000000000e+00 -0.0000000000e+00 -4.5593999997e+01 4.5594000000e+01 5.1100000000e-04 0.0000e+00 1.0000e+00
       23  2    1    2    0    0 +0.0000000000e+00 +0.0000000000e+00 +0.0000000000e+00 9.1188000000e+01 9.1188000000e+01 6.9316e-14 0.0000e+00
  9900012  1    3    3    0    0 -8.6066552820e+00 +3.0543622561e+01 -3.1198030659e+00 5.9301944028e+01 5.0000000000e+01 1.0117e-04 1.0000e+00
       12  1    3    3    0    0 +8.6066552820e+00 -3.0543622561e+01 +3.1198030659e+00 3.1886055972e+01 0.0000000000e+00 0.0000e+00 -1.0000e+00
</event>
<event>
 5      3 +1.7896800e-02 9.11880000e+01 7.81616400e-03 1.18400000e-01
      -11 -1    0    0    0    0 +0.0000000000e+00 +0.0000000000e+00 +4.5593999997e+01 4.5594000000e+01 5.1100000000e-04 0.0000e+00 1.0000e+00
       11 -1    0    0    0    0 -0.0000000000e+00 -0.0000000000e+00 -4.5593999997e+01 4.5594000000e+01 5.1100000000e-04 0.0000e+00 -1.0000e+00
       23  2    1    2    0    0 +0.0000000000e+00 +0.0000000000e+00 +0.0000000000e+00 9.1188000000e+01 9.1188000000e+01 7.8987e-15 0.0000e+00
  9900012  1    3    3    0    0 +8.9061365398e-02 -9.0320144527e+00 +3.0579982807e+01 5.9301944028e+01 5.0000000000e+01 7.4048e-04 1.0000e+00
       12  1    3    3    0    0 -8.9061365398e-02 +9.0320144527e+00 -3.0579982807e+01 3.1886055972e+01 0.0000000000e+00 0.0000e+00 -1.0000e+00
</event>
<event>
 5      6 +1.7896800e-02 9.11880000e+01 7.81616400e-03 1.18400000e-01
      -11 -1    0    0    0    0 +0.0000000000e+00 +0.0000000000e+00 +4.5593999997e+01 4.5594000000e+01 5.1100000000e-04 0.0000e+00 1.0000e+00
       11 -1    0    0    0    0 -0.0000000000e+00 -0.0000000000e+00 -4.5593999997e+01 4.5594000000e+01 5.1100000000e-04 0.0000e+00 -1.0000e+00
       23  2    1    2    0    0 +0.0000000000e+00 +0.0000000000e+00 +0.0000000000e+00 9.1188000000e+01 9.1188000000e+01 1.2958e-13 0.0000e+00
  9900012  1    3    3    0    0 +2.7199897450e+01 -7.7499578508e+00 -1.4724954924e+01 5.9301944028e+01 5.0000000000e+01 2.3316e-03 -1.0000e+00
      -12  1    3    3    0    0 -2.7199897450e+01 +7.7499578508e+00 +1.4724954924e+01 3.1886055972e+01 0.0000000000e+00 0.0000e+00 1.0000e+00
</event>
<event>
 5      5 +1.7896800e-02 9.11880000e+01 7.81616400e-03 1.18400000e-01
      -11 -1    0    0    0    0 +0.0000000000e+00 +0.0000000000e+00 +4.5593999997e+01 4.5594000000e+01 5.1100000000e-04 0.0000e+00 -1.0000e+00
       11 -1    0    0    0    0 -0.0000000000e+00 -0.0000000000e+00 -4.5593999997e+01 4.5594000000e+01 5.1100000000e-04 0.0000e+00 1.0000e+00
       23  2    1    2    0    0 +0.0000000000e+00 +0.0000000000e+00 +0.0000000000e+00 9.1188000000e+01 9.1188000000e+01 6.9918e-14 0.0000e+00
  9900012  1    3    3    0    0 +5.7396257532e+00 +3.1359218802e+01 -6.1372455895e-01 5.9301944028e+01 5.0000000000e+01 3.6195e-04 1.0000e+00
       12  1    3    3    0    0 -5.7396257532e+00 -3.1359218802e+01 +6.1372455895e-01 3.1886055972e+01 0.0000000000e+00 0.0000e+00 -1.0000e+00
</event>
<event>
 5      2 +1.7896800e-02 9.11880000e+01 7.81616400e-03 1.18400000e-01
      -11 -1    0    0    0    0 +0.0000000000e+00 +0.0000000000e+00 +4.5593999997e+01 4.5594000000e+01 5.1100000000e-04 0.0000e+00 -1.0000e+00
       11 -1    0    0    0    0 -0.0000000000e+00 -0.0000000000e+00 -4.5593999997e+01 4.5594000000e+01 5.1100000000e-04 0.0000e+00 1.0000e+00
       23  2    1    2    0    0 +0.0000000000e+00 +0.0000000000e+00 +0.0000000000e+00 9.1188000000e+01 9.1188000000e+01 3.0145e-14 0.0000e+00
  9900012  1    3    3    0    0 +2.8331083709e+01 -1.3466837030e+01 +5.7196644792e+00 5.9301944028e+01 5.0000000000e+01 6.2588e-04 -1.0000e+00
      -12  1    3    3    0    0 -2.8331083709e+01 +1.3466837030e+01 -5.7196644792e+00 3.1886055972e+01 0.0000000000e+00 0.0000e+00 1.0000e+00
</event>
<event>
 5      4 +1.7896800e-02 9.11880000e+01 7.81616400e-03 1.18400000e-01
      -11 -1    0    0    0    0 +0.0000000000e+00 +0.0000000000e+00 +4.5593999997e+01 4.5594000000e+01 5.1100000000e-04 0.0000e+00 1.0000e+00
       11 -1    0    0    0    0 -0.0000000000e+00 -0.0000000000e+00 -4.5593999997e+01 4.5594000000e+01 5.1100000000e-04 0.0000e+00 -1.0000e+00
       23  2    1    2    0    0 +0.0000000000e+00 +0.0000000000e+00 +0.0000000000e+00 9.1188000000e+01 9.1188000000e+01 1.0661e-13 0.0000e+00
  9900012  1    3    3    0    0 +7.9231737799e+00 +1.8349757276e+01 -2.4844119840e+01 5.9301944028e+01 5.0000000000e+01 2.3939e-04 -1.0000e+00
      -12  1    3    3    0    0 -7.9231737799e+00 -1.8349757276e+01 +2.4844119840e+01 3.1886055972e+01 0.0000000000e+00 0.0000e+00 1.0000e+00
</event>
<event>
 5      6 +1.7896800e-02 9.11880000e+01 7.81616400e-03 1.18400000e-01
      -11 -1    0    0    0    0 +0.0000000000e+00 +0.0000000000e+00 +4.5593999997e+01 4.5594000000e+01 5.1100000000e-04 0.0000e+00 -1.0000e+00
       11 -1    0    0    0    0 -0.0000000000e+00 -0.0000000000e+00 -4.5593999997e+01 4.5594000000e+01 5.1100000000e-04 0.0000e+00 1.0000e+00
       23  2    1    2    0    0 +0.0000000000e+00 +0.0000000000e+00 +0.0000000000e+00 9.1188000000e+01 9.1188000000e+01 5.8164e-14 0.0000e+00
  9900012  1    3    3    0    0 -1.1985191257e+01 +6.8175337188e+00 +2.8750599820e+01 5.9301944028e+01 5.0000000000e+01 5.6091e-04 -1.0000e+00
      -12  1    3    3    0    0 +1.1985191257e+01 -6.8175337188e+00 -2.8750599820e+01 3.1886055972e+01 0.0000000000e+00 0.0000e+00 1.0000e+00
</event>
<event>
 5      1 +1.7896800e-02 9.11880000e+01 7.81616400e-03 1.18400000e-01
      -11 -1    0    0    0    0 +0.0000000000e+00 +0.0000000000e+00 +4.5593999997e+01 4.5594000000e+01 5.1100000000e-04 0.0000e+00 -1.0000e+00
       11 -1    0    0    0    0 -0.0000000000e+00 -0.0000000000e+00 -4.5593999997e+01 4.5594000000e+01 5.1100000000e-04 0.0000e+00 1.0000e+00
       23  2    1    2    0    0 +0.0000000000e+00 +0.0000000000e+00 +0.0000000000e+00 9.1188000000e+01 9.1188000000e+01 1.5736e-14 0.0000e+00
  9900012  1    3    3    0    0 +1.2868812105e+01 +2.5658314167e+01 +1.3883989144e+01 5.9301944028e+01 5.0000000000e+01 5.1323e-04 -1.0000e+00
       12  1    3    3    0    0 -1.2868812105e+01 -2.5658314167e+01 -1.3883989144e+01 3.1886055972e+01 0.0000000000e+00 0.0000e+00 -1.0000e+00
</event>
<event>
 5      3 +1.7896800e-02 9.11880000e+01 7.81616400e-03 1.18400000e-01
      -11 -1    0    0    0    0 +0.0000000000e+00 +0.0000000000e+00 +4.5593999997e+01 4.5594000000e+01 5.1100000000e-04 0.0000e+00 1.0000e+00
       11 -1    0    0    0    0 -0.0000000000e+00 -0.0000000000e+00 -4.5593999997e+01 4.5594000000e+01 5.1100000000e-04 0.0000e+00 -1.0000e+00
       23  2    1    2    0    0 +0.0000000000e+00 +0.0000000000e+00 +0.0000000000e+00 9.1188000000e+01 9.1188000000e+01 4.5165e-14 0.0000e+00
  9900012  1    3    3    0    0 +2.7483473209e+01 -1.4046235292e+01 +8.0051570834e+00 5.9301944028e+01 5.0000000000e+01 6.8535e-04 1.0000e+00
       12  1    3    3    0    0 -2.7483473209e+01 +1.4046235292e+01 -8.0051570834e+00 3.1886055972e+01 0.0000000000e+00 0.0000e+00 -1.0000e+00
</event>
<event>
 5      2 +1.7896800e-02 9.11880000e+01 7.81616400e-03 1.18400000e-01
      -11 -1    0    0    0    0 +0.0000000000e+00 +0.0000000000e+00 +4.5593999997e+01 4.5594000000e+01 5.1100000000e-04 0.0000e+00 -1.0000e+00
       11 -1    0    0    0    0 -0.0000000000e+00 -0.0000000000e+00 -4.5593999997e+01 4.5594000000e+01 5.1100000000e-04 0.0000e+00 1.0000e+00
       23  2    1    2    0    0 +0.0000000000e+00 +0.0000000000e+00 +0.0000000000e+00 9.1188000000e+01 9.1188000000e+01 2.0331e-14 0.0000e+00
  9900012  1    3    3    0    0 -1.8011315886e+00 -9.8135160861e-01 +3.1820016334e+01 5.9301944028e+01 5.0000000000e+01 2.2705e-03 -1.0000e+00
      -12  1    3    3    0    0 +1.8011315886e+00 +9.8135160861e-01 -3.1820016334e+01 3.1886055972e+01 0.0000000000e+00 0.0000e+00 1.0000e+00
</event>
<event>
 5      6 +1.7896800e-02 9.11880000e+01 7.81616400e-03 1.18400000e-01
      -11 -1    0    0    0    0 +0.0000000000e+00 +0.0000000000e+00 +4.5593999997e+01 4.5594000000e+01 5.1100000000e-04 0.0000e+00 -1.0000e+00
       11 -1    0    0    0    0 -0.0000000000e+00 -0.0000000000e+00 -4.5593999997e+01 4.5594000000e+01 5.1100000000e-04 0.0000e+00 1.0000e+00
       23  2    1    2    0    0 +0.0000000000e+00 +0.0000000000e+00 +0.0000000000e+00 9.1188000000e+01 9.1188000000e+01 7.6181e-14 0.0000e+00
  9900012  1    3    3    0    0 +2.7215567844e+01 +1.2027822165e+01 -1.1461453938e+01 5.9301944028e+01 5.0000000000e+01 2.6649e-04 -1.0000e+00
      -12  1    3    3    0    0 -2.7215567844e+01 -1.2027822165e+01 +1.1461453938e+01 3.1886055972e+01 0.0000000000e+00 0.0000e+00 1.0000e+00
</event>
<event>
 5      2 +1.7896800e-02 9.11880000e+01 7.81616400e-03 1.18400000e-01
      -11 -1    0    0    0    0 +0.0000000000e+00 +0.0000000000e+00 +4.5593999997e+01 4.5594000000e+01 5.1100000000e-04 0.0000e+00 1.0000e+00
       11 -1    0    0    0    0 -0.0000000000e+00 -0.0000000000e+00 -4.5593999997e+01 4.5594000000e+01 5.1100000000e-04 0.0000e+00 -1.0000e+00
       23  2    1    2    0    0 +0.0000000000e+00 +0.0000000000e+00 +0.0000000000e+00 9.1188000000e+01 9.1188000000e+01 3.5273e-14 0.0000e+00
  9900012  1    3    3    0    0 -2.2494166747e+01 +1.3158581648e+01 -1.8373479715e+01 5.9301944028e+01 5.0000000000e+01 2.0110e-05 -1.0000e+00
      -12  1    3    3    0    0 +2.2494166747e+01 -1.3158581648e+01 +1.8373479715e+01 3.1886055972e+01 0.0000000000e+00 0.0000e+00 1.0000e+00
</event>
<event>
 5      1 +1.7896800e-02 9.11880000e+01 7.81616400e-03 1.18400000e-01
      -11 -1    0    0    0    0 +0.0000000000e+00 +0.0000000000e+00 +4.5593999997e+01 4.5594000000e+01 5.1100000000e-04 0.0000e+00 -1.0000e+00
       11 -1    0    0    0    0 -0.0000000000e+00 -0.0000000000e+00 -4.5593999997e+01 4.5594000000e+01 5.1100000000e-04 0.0000e+00 1.0000e+00
       23  2    1    2    0    0 +0.0000000000e+00 +0.0000000000e+00 +0.0000000000e+00 9.1188000000e+01 9.1188000000e+01 7.9557e-14 0.0000e+00
  9900012  1    3    3    0    0 +2.8126033204e+01 -1.5013398890e+01 -4.9464679949e-01 5.9301944028e+01 5.0000000000e+01 6.1454e-04 1.0000e+00
       12  1    3    3    0    0 -2.8126033204e+01 +1.5013398890e+01 +4.9464679949e-01 3.1886055972e+01 0.0000000000e+00 0.0000e+00 -1.0000e+00
</event>
<event>
 5      8 +1.7896800e-02 9.11880000e+01 7.81616400e-03 1.18400000e-01
      -11 -1    0    0    0    0 +0.0000000000e+00 +0.0000000000e+00 +4.5593999997e+01 4.5594000000e+01 5.1100000000e-04 0.0000e+00 1.0000e+00
       11 -1    0    0    0    0 -0.0000000000e+00 -0.0000000000e+00 -4.5593999997e+01 4.5594000000e+01 5.1100000000e-04 0.0000e+00 -1.0000e+00
       23  2    1    2    0    0 +0.0000000000e+00 +0.0000000000e+00 +0.0000000000e+00 9.1188000000e+01 9.1188000000e+01 3.2135e-15 0.0000e+00
  9900012  1    3    3    0    0 -1.1785418775e+01 -1.7061560234e+00 -2.9578936786e+01 5.9301944028e+01 5.0000000000e+01 2.8599e-03 -1.0000e+00
      -12  1    3    3    0    0 +1.1785418775e+01 +1.7061560234e+00 +2.9578936786e+01 3.1886055972e+01 0.0000000000e+00 0.0000e+00 1.0000e+00
</event>
<event>
 5      5 +1.7896800e-02 9.11880000e+01 7.81616400e-03 1.18400000e-01
      -11 -1    0    0    0    0 +0.0000000000e+00 +0.0000000000e+00 +4.5593999997e+01 4.5594000000e+01 5.1100000000e-04 0.0000e+00 1.0000e+00
       11 -1    0    0    0    0 -0.0000000000e+00 -0.0000000000e+00 -4.5593999997e+01 4.5594000000e+01 5.1100000000e-04 0.0000e+00 -1.0000e+00
       23  2    1    2    0    0 +0.0000000000e+00 +0.0000000000e+00 +0.0000000000e+00 9.1188000000e+01 9.1188000000e+01 1.9923e-13 0.0000e+00
  9900012  1    3    3    0    0 +1.5751554438e-01 -2.6364048991e+01 +1.7934120417e+01 5.9301944028e+01 5.0000000000e+01 1.4465e-03 1.0000e+00
       12  1    3    3    0    0 -1.5751554438e-01 +2.6364048991e+01 -1.7934120417e+01 3.1886055972e+01 0.0000000000e+00 0.0000e+00 -1.0000e+00
</event>
<event>
 5      3 +1.7896800e-02 9.11880000e+01 7.81616400e-03 1.18400000e-01
      -11 -1    0    0    0    0 +0.0000000000e+00 +0.0000000000e+00 +4.5593999997e+01 4.5594000000e+01 5.1100000000e-04 0.0000e+00 1.0000e+00
       11 -1    0    0    0    0 -0.0000000000e+00 -0.0000000000e+00 -4.5593999997e+01 4.5594000000e+01 5.1100000000e-04 0.0000e+00 -1.0000e+00
       23  2    1    2    0    0 +0.0000000000e+00 +0.0000000000e+00 +0.0000000000e+00 9.1188000000e+01 9.1188000000e+01 2.8907e-15 0.0000e+00
  9900012  1    3    3    0    0 +2.8210029743e+01 +8.3710023098e+00 +1.2281738790e+01 5.9301944028e+01 5.0000000000e+01 6.5578e-04 -1.0000e+00
       12  1    3    3    0    0 -2.8210029743e+01 -8.3710023098e+00 -1.2281738790e+01 3.1886055972e+01 0.0000000000e+00 0.0000e+00 -1.0000e+00
</event>
<event>
 5      6 +1.7896800e-02 9.11880000e+01 7.81616400e-03 1.18400000e-01
      -11 -1    0    0    0    0 +0.0000000000e+00 +0.0000000000e+00 +4.5593999997e+01 4.5594000000e+01 5.1100000000e-04 0.0000e+00 1.0000e+00
       11 -1    0    0    0    0 -0.0000000000e+00 -0.0000000000e+00 -4.5593999997e+01 4.5594000000e+01 5.1100000000e-04 0.0000e+00 -1.0000e+00
       23  2    1    2    0    0 +0.0000000000e+00 +0.0000000000e+00 +0.0000000000e+00 9.1188000000e+01 9.1188000000e+01 7.5204e-15 0.0000e+00
  9900012  1    3    3    0    0 +1.7289735492e+01 -7.2634133859e+00 -2.5788145301e+01 5.9301944028e+01 5.0000000000e+01 2.0830e-03 -1.0000e+00
      -12  1    3    3    0    0 -1.7289735492e+01 +7.2634133859e+00 +2.5788145301e+01 3.1886055972e+01 0.0000000000e+00 0.0000e+00 1.0000e+00
</event>
<event>
 5      4 +1.7896800e-02 9.11880000e+01 7.81616400e-03 1.18400000e-01
      -11 -1    0    0    0    0 +0.0000000000e+00 +0.0000000000e+00 +4.5593999997e+01 4.5594000000e+01 5.1100000000e-04 0.0000e+00 1.0000e+00
       11 -1    0    0    0    0 -0.0000000000e+00 -0.0000000000e+00 -4.5593999997e+01 4.5594000000e+01 5.1100000000e-04 0.0000e+00 -1.0000e+00
       23  2    1    2    0    0 +0.0000000000e+00 +0.0000000000e+00 +0.0000000000e+00 9.1188000000e+01 9.1188000000e+01 9.7867e-14 0.0000e+00
  9900012  1    3    3    0    0 +2.7799349552e+01 +8.1165018127e+00 -1.3343130377e+01 5.9301944028e+01 5.0000000000e+01 1.3520e-03 1.0000e+00
      -12  1    3    3    0    0 -2.7799349552e+01 -8.1165018127e+00 +1.3343130377e+01 3.1886055972e+01 0.0000000000e+00 0.0000e+00 1.0000e+00
</event>
<event>
 5      1 +1.7896800e-02 9.11880000e+01 7.81616400e-03 1.18400000e-01
      -11 -1    0    0    0    0 +0.0000000000e+00 +0.0000000000e+00 +4.5593999997e+01 4.5594000000e+01 5.1100000000e-04 0.0000e+00 -1.0000e+00
       11 -1    0    0    0    0 -0.0000000000e+00 -0.0000000000e+00 -4.5593999997e+01 4.5594000000e+01 5.1100000000e-04 0.0000e+00 1.0000e+00
       23  2    1    2    0    0 +0.0000000000e+00 +0.0000000000e+00 +0.0000000000e+00 9.1188000000e+01 9.1188000000e+01 8.2877e-15 0.0000e+00
  9900012  1    3    3    0    0 -1.5617520569e+01 +2.1033971924e+01 -1.8176513468e+01 5.9301944028e+01 5.0000000000e+01 1.6033e-03 1.0000e+00
       12  1    3    3    0    0 +1.5617520569e+01 -2.1033971924e+01 +1.8176513468e+01 3.1886055972e+01 0.0000000000e+00 0.0000e+00 -1.0000e+00
</event>
<event>
 5      3 +1.7896800e-02 9.11880000e+01 7.81616400e-03 1.18400000e-01
      -11 -1    0    0    0    0 +0.0000000000e+00 +0.0000000000e+00 +4.5593999997e+01 4.5594000000e+01 5.1100000000e-04 0.0000e+00 -1.0000e+00
       11 -1    0    0    0    0 -0.0000000000e+00 -0.0000000000e+00 -4.5593999997e+01 4.5594000000e+01 5.1100000000e-04 0.0000e+00 1.0000e+00
       23  2    1    2    0    0 +0.0000000000e+00 +0.0000000000e+00 +0.0000000000e+00 9.1188000000e+01 9.1188000000e+01 7.5614e-14 0.0000e+00
  9900012  1    3    3    0    0 +2.1802474141e+01 +2.2461634139e+00 -2.3158744282e+01 5.9301944028e+01 5.0000000000e+01 1.1294e-03 1.0000e+00
       12  1    3    3    0    0 -2.1802474141e+01 -2.2461634139e+00 +2.3158744282e+01 3.1886055972e+01 0.0000000000e+00 0.0000e+00 -1.0000e+00
</event>
<event>
 5      3 +1.7896800e-02 9.11880000e+01 7.81616400e-03 1.18400000e-01
      -11 -1    0    0    0    0 +0.0000000000e+00 +0.0000000000e+00 +4.5593999997e+01 4.5594000000e+01 5.1100000000e-04 0.0000e+00 1.0000e+00
       11 -1    0    0    0    0 -0.0000000000e+00 -0.0000000000e+00 -4.5593999997e+01 4.5594000000e+01 5.1100000000e-04 0.0000e+00 -1.0000e+00
       23  2    1    2    0    0 +0.0000000000e+00 +0.0000000000e+00 +0.0000000000e+00 9.1188000000e+01 9.1188000000e+01 3.4084e-14 0.0000e+00
  9900012  1    3    3    0    0 -2.1895095941e+01 -2.2921724099e+01 +3.4525213265e+00 5.9301944028e+01 5.0000000000e+01 2.4296e-04 -1.0000e+00
       12  1    3    3    0    0 +2.1895095941e+01 +2.2921724099e+01 -3.4525213265e+00 3.1886055972e+01 0.0000000000e+00 0.0000e+00 -1.0000e+00
</event>
<event>
 5      7 +1.7896800e-02 9.11880000e+01 7.81616400e-03 1.18400000e-01
      -11 -1    0    0    0    0 +0.0000000000e+00 +0.0000000000e+00 +4.5593999997e+01 4.5594000000e+01 5.1100000000e-04 0.0000e+00 -1.0000e+00
       11 -1    0    0    0    0 -0.0000000000e+00 -0.0000000000e+00 -4.5593999997e+01 4.5594000000e+01 5.1100000000e-04 0.0000e+00 1.0000e+00
       23  2    1    2    0    0 +0.0000000000e+00 +0.0000000000e+00 +0.0000000000e+00 9.1188000000e+01 9.1188000000e+01 1.8835e-14 0.0000e+00
  9900012  1    3    3    0    0 -4.1608948547e+00 +2.6099902423e+01 -1.7838234582e+01 5.9301944028e+01 5.0000000000e+01 1.3127e-03 1.0000e+00
       12  1    3    3    0    0 +4.1608948547e+00 -2.6099902423e+01 +1.7838234582e+01 3.1886055972e+01 0.0000000000e+00 0.0000e+00 -1.0000e+00
</event>
<event>
 5      1 +1.7896800e-02 9.11880000e+01 7.81616400e-03 1.18400000e-01
      -11 -1    0    0    0    0 +0.0000000000e+00 +0.0000000000e+00 +4.5593999997e+01 4.5594000000e+01 5.1100000000e-04 0.0000e+00 1.0000e+00
       11 -1    0    0    0    0 -0.0000000000e+00 -0.0000000000e+00 -4.5593999997e+01 4.5594000000e+01 5.1100000000e-04 0.0000e+00 -1.0000e+00
       23  2    1    2    0    0 +0.0000000000e+00 +0.0000000000e+00 +0.0000000000e+00 9.1188000000e+01 9.1188000000e+01 1.2556e-13 0.0000e+00
  9900012  1    3    3    0    0 +2.9911734050e+01 -1.0835129252e+01 -2.1467896285e+00 5.9301944028e+01 5.0000000000e+01 1.1154e-03 1.0000e+00
       12  1    3    3    0    0 -2.9911734050e+01 +1.0835129252e+01 +2.1467896285e+00 3.1886055972e+01 0.0000000000e+00 0.0000e+00 -1.0000e+00
</event>
<event>
 5      4 +1.7896800e-02 9.11880000e+01 7.81616400e-03 1.18400000e-01
      -11 -1    0    0    0    0 +0.0000000000e+00 +0.0000000000e+00 +4.5593999997e+01 4.5594000000e+01 5.1100000000e-04 0.0000e+00 1.0000e+00
       11 -1    0    0    0    0 -0.0000000000e+00 -0.0000000000e+00 -4.5593999997e+01 4.5594000000e+01 5.1100000000e-04 0.0000e+00 -1.0000e+00
       23  2    1    2    0    0 +0.0000000000e+00 +0.0000000000e+00 +0.0000000000e+00 9.1188000000e+01 9.1188000000e+01 3.1973e-14 0.0000e+00
  9900012  1    3    3    0    0 -3.9552297381e+00 +1.6102149490e+01 -2.7235959777e+01 5.9301944028e+01 5.0000000000e+01 2.9694e-03 -1.0000e+00
      -12  1    3    3    0    0 +3.9552297381e+00 -1.6102149490e+01 +2.7235959777e+01 3.1886055972e+01 0.0000000000e+00 0.0000e+00 1.0000e+00
</event>
<event>
 5      2 +1.7896800e-02 9.11880000e+01 7.81616400e-03 1.18400000e-01
      -11 -1    0    0    0    0 +0.0000000000e+00 +0.0000000000e+00 +4.5593999997e+01 4.5594000000e+01 5.1100000000e-04 0.0000e+00 1.0000e+00
       11 -1    0    0    0    0 -0.0000000000e+00 -0.0000000000e+00 -4.5593999997e+01 4.5594000000e+01 5.1100000000e-04 0.0000e+00 -1.0000e+00
       23  2    1    2    0    0 +0.0000000000e+00 +0.0000000000e+00 +0.0000000000e+00 9.1188000000e+01 9.1188000000e+01 1.0095e-13 0.0000e+00
  9900012  1    3    3    0    0 -1.0064474596e+00 -2.6905996563e+01 +1.7081422012e+01 5.9301944028e+01 5.0000000000e+01 4.3110e-04 1.0000e+00
      -12  1    3    3    0    0 +1.0064474596e+00 +2.6905996563e+01 -1.7081422012e+01 3.1886055972e+01 0.0000000000e+00 0.0000e+00 1.0000e+00
</event>
<event>
 5      4 +1.7896800e-02 9.11880000e+01 7.81616400e-03 1.18400000e-01
      -11 -1    0    0    0    0 +0.0000000000e+00 +0.0000000000e+00 +4.5593999997e+01 4.5594000000e+01 5.1100000000e-04 0.0000e+00 1.0000e+00
       11 -1    0    0    0    0 -0.0000000000e+00 -0.0000000000e+00 -4.5593999997e+01 4.5594000000e+01 5.1100000000e-04 0.0000e+00 -1.0000e+00
       23  2    1    2    0    0 +0.0000000000e+00 +0.0000000000e+00 +0.0000000000e+00 9.1188000000e+01 9.1188000000e+01 2.6147e-14 0.0000e+00
  9900012  1    3    3    0    0 +2.0843464207e+01 -1.9264823188e+01 +1.4530559275e+01 5.9301944028e+01 5.0000000000e+01 1.0738e-03 1.0000e+00
      -12  1    3    3    0    0 -2.0843464207e+01 +1.9264823188e+01 -1.4530559275e+01 3.1886055972e+01 0.0000000000e+00 0.0000e+00 1.0000e+00
</event>
<event>
 5      7 +1.7896800e-02 9.11880000e+01 7.81616400e-03 1.18400000e-01
      -11 -1    0    0    0    0 +0.0000000000e+00 +0.0000000000e+00 +4.5593999997e+01 4.5594000000e+01 5.1100000000e-04 0.0000e+00 1.0000e+00
       11 -1    0    0    0    0 -0.0000000000e+00 -0.0000000000e+00 -4.5593999997e+01 4.5594000000e+01 5.1100000000e-04 0.0000e+00 -1.0000e+00
       23  2    1    2    0    0 +0.0000000000e+00 +0.0000000000e+00 +0.0000000000e+00 9.1188000000e+01 9.1188000000e+01 2.4387e-14 0.0000e+00
  9900012  1    3    3    0    0 +4.2534199864e+00 -2.3889855375e+01 +2.0685835590e+01 5.9301944028e+01 5.0000000000e+01 2.6519e-04 1.0000e+00
       12  1    3    3    0    0 -4.2534199864e+00 +2.3889855375e+01 -2.0685835590e+01 3.1886055972e+01 0.0000000000e+00 0.0000e+00 -1.0000e+00
</event>
<event>
 5      7 +1.7896800e-02 9.11880000e+01 7.81616400e-03 1.18400000e-01
      -11 -1    0    0    0    0 +0.0000000000e+00 +0.0000000000e+00 +4.5593999997e+01 4.5594000000e+01 5.1100000000e-04 0.0000e+00 1.0000e+00
       11 -1    0    0    0    0 -0.0000000000e+00 -0.0000000000e+00 -4.5593999997e+01 4.5594000000e+01 5.1100000000e-04 0.0000e+00 -1.0000e+00
       23  2    1    2    0    0 +0.0000000000e+00 +0.0000000000e+00 +0.0000000000e+00 9.1188000000e+01 9.1188000000e+01 4.0848e-14 0.0000e+00
  9900012  1    3    3    0    0 +1.7485357442e+00 +3.1284488539e+01 +5.9113420708e+00 5.9301944028e+01 5.0000000000e+01 1.7941e-03 1.0000e+00
       12  1    3    3    0    0 -1.7485357442e+00 -3.1284488539e+01 -5.9113420708e+00 3.1886055972e+01 0.0000000000e+00 0.0000e+00 -1.0000e+00
</event>
<event>
 5      8 +1.7896800e-02 9.11880000e+01 7.81616400e-03 1.18400000e-01
      -11 -1    0    0    0    0 +0.0000000000e+00 +0.0000000000e+00 +4.5593999997e+01 4.5594000000e+01 5.1100000000e-04 0.0000e+00 1.0000e+00
       11 -1    0    0    0    0 -0.0000000000e+00 -0.0000000000e+00 -4.5593999997e+01 4.5594000000e+01 5.1100000000e-04 0.0000e+00 -1.0000e+00
       23  2    1    2    0    0 +0.0000000000e+00 +0.0000000000e+00 +0.0000000000e+00 9.1188000000e+01 9.1188000000e+01 4.2493e-14 0.0000e+00
  9900012  1    3    3    0    0 +8.4397884153e+00 -2.6674041857e+01 -1.5296601844e+01 5.9301944028e+01 5.0000000000e+01 6.6706e-04 -1.0000e+00
      -12  1    3    3    0    0 -8.4397884153e+00 +2.6674041857e+01 +1.5296601844e+01 3.1886055972e+01 0.0000000000e+00 0.0000e+00 1.0000e+00
</event>
<event>
 5      3 +1.7896800e-02 9.11880000e+01 7.81616400e-03 1.18400000e-01
      -11 -1    0    0    0    0 +0.0000000000e+00 +0.0000000000e+00 +4.5593999997e+01 4.5594000000e+01 5.1100000000e-04 0.0000e+00 1.0000e+00
       11 -1    0    0    0    0 -0.0000000000e+00 -0.0000000000e+00 -4.5593999997e+01 4.5594000000e+01 5.1100000000e-04 0.0000e+00 -1.0000e+00
       23  2    1    2    0    0 +0.0000000000e+00 +0.0000000000e+00 +0.0000000000e+00 9.1188000000e+01 9.1188000000e+01 1.3565e-13 0.0000e+00
  9900012  1    3    3    0    0 +3.0390449923e+00 +2.5801904454e+01 -1.8486386817e+01 5.9301944028e+01 5.0000000000e+01 2.2075e-03 -1.0000e+00
       12  1    3    3    0    0 -3.0390449923e+00 -2.5801904454e+01 +1.8486386817e+01 3.1886055972e+01 0.0000000000e+00 0.0000e+00 -1.0000e+00
</event>
<event>
 5      3 +1.7896800e-02 9.11880000e+01 7.81616400e-03 1.18400000e-01
      -11 -1    0    0    0    0 +0.0000000000e+00 +0.0000000000e+00 +4.5593999997e+01 4.5594000000e+01 5.1100000000e-04 0.0000e+00 1.0000e+00
       11 -1    0    0    0    0 -0.0000000000e+00 -0.0000000000e+00 -4.5593999997e+01 4.5594000000e+01 5.1100000000e-04 0.0000e+00 -1.0000e+00
       23  2    1    2    0    0 +0.0000000000e+00 +0.0000000000e+00 +0.0000000000e+00 9.1188000000e+01 9.1188000000e+01 4.6604e-14 0.0000e+00
  9900012  1    3    3    0    0 -7.5572743156e-01 +2.2234465144e+01 +2.2842460491e+01 5.9301944028e+01 5.0000000000e+01 3.2329e-03 1.0000e+00
       12  1    3    3    0    0 +7.5572743156e-01 -2.2234465144e+01 -2.2842460491e+01 3.1886055972e+01 0.0000000000e+00 0.0000e+00 -1.0000e+00
</event>
<event>
 5      5 +1.7896800e-02 9.11880000e+01 7.81616400e-03 1.18400000e-01
      -11 -1    0    0    0    0 +0.0000000000e+00 +0.0000000000e+00 +4.5593999997e+01 4.5594000000e+01 5.1100000000e-04 0.0000e+00 1.0000e+00
       11 -1    0    0    0    0 -0.0000000000e+00 -0.0000000000e+00 -4.5593999997e+01 4.5594000000e+01 5.1100000000e-04 0.0000e+00 -1.0000e+00
       23  2    1    2    0    0 +0.0000000000e+00 +0.0000000000e+00 +0.0000000000e+00 9.1188000000e+01 9.1188000000e+01 5.3651e-14 0.0000e+00
  9900012  1    3    3    0    0 -3.0291887574e+01 +9.7416826506e+00 +2.0546853354e+00 5.9301944028e+01 5.0000000000e+01 2.6283e-03 1.0000e+00
       12  1    3    3    0    0 +3.0291887574e+01 -9.7416826506e+00 -2.0546853354e+00 3.1886055972e+01 0.0000000000e+00 0.0000e+00 -1.0000e+00
</event>
<event>
 5      5 +1.7896800e-02 9.11880000e+01 7.81616400e-03 1.18400000e-01
      -11 -1    0    0    0    0 +0.0000000000e+00 +0.0000000000e+00 +4.5593999997e+01 4.5594000000e+01 5.1100000000e-04 0.0000e+00 1.0000e+00
       11 -1    0    0    0    0 -0.0000000000e+00 -0.0000000000e+00 -4.5593999997e+01 4.5594000000e+01 5.1100000000e-04 0.0000e+00 -1.0000e+00
       23  2    1    2    0    0 +0.0000000000e+00 +0.0000000000e+00 +0.0000000000e+00 9.1188000000e+01 9.1188000000e+01 2.9219e-14 0.0000e+00
  9900012  1    3    3    0    0 +3.3785057150e-02 -2.5686830872e+01 +1.8891959766e+01 5.9301944028e+01 5.0000000000e+01 2.1178e-03 1.0000e+00
       12  1    3    3    0    0 -3.3785057150e-02 +2.5686830872e+01 -1.8891959766e+01 3.1886055972e+01 0.0000000000e+00 0.0000e+00 -1.0000e+00
</event>
<event>
 5      1 +1.7896800e-02 9.11880000e+01 7.81616400e-03 1.18400000e-01
      -11 -1    0    0    0    0 +0.0000000000e+00 +0.0000000000e+00 +4.5593999997e+01 4.5594000000e+01 5.1100000000e-04 0.0000e+00 1.0000e+00
       11 -1    0    0    0    0 -0.0000000000e+00 -0.0000000000e+00 -4.5593999997e+01 4.5594000000e+01 5.1100000000e-04 0.0000e+00 -1.0000e+00
       23  2    1    2    0    0 +0.0000000000e+00 +0.0000000000e+00 +0.0000000000e+00 9.1188000000e+01 9.1188000000e+01 5.9384e-14 0.0000e+00
  9900012  1    3    3    0    0 -1.8956696160e+01 +1.7445747100e+01 +1.8788564189e+01 5.9301944028e+01 5.0000000000e+01 3.7215e-04 1.0000e+00
       12  1    3    3    0    0 +1.8956696160e+01 -1.7445747100e+01 -1.8788564189e+01 3.1886055972e+01 0.0000000000e+00 0.0000e+00 -1.0000e+00
</event>
<event>
 5      1 +1.7896800e-02 9.11880000e+01 7.81616400e-03 1.18400000e-01
      -11 -1    0    0    0    0 +0.0000000000e+00 +0.0000000000e+00 +4.5593999997e+01 4.5594000000e+01 5.1100000000e-04 0.0000e+00 1.0000e+00
       11 -1    0    0    0    0 -0.0000000000e+00 -0.0000000000e+00 -4.5593999997e+01 4.5594000000e+01 5.1100000000e-04 0.0000e+00 -1.0000e+00
       23  2    1    2    0    0 +0.0000000000e+00 +0.0000000000e+00 +0.0000000000e+00 9.1188000000e+01 9.1188000000e+01 7.0125e-16 0.0000e+00
  9900012  1    3    3    0    0 -1.3184812171e+00 +8.0144094682e+00 +3.0834257144e+01 5.9301944028e+01 5.0000000000e+01 1.6706e-04 1.0000e+00
       12  1    3    3    0    0 +1.3184812171e+00 -8.0144094682e+00 -3.0834257144e+01 3.1886055972e+01 0.0000000000e+00 0.0000e+00 -1.0000e+00
</event>
<event>
 5      4 +1.7896800e-02 9.11880000e+01 7.81616400e-03 1.18400000e-01
      -11 -1    0    0    0    0 +0.0000000000e+00 +0.0000000000e+00 +4.5593999997e+01 4.5594000000e+01 5.1100000000e-04 0.0000e+00 1.0000e+00
       11 -1    0    0    0    0 -0.0000000000e+00 -0.0000000000e+00 -4.5593999997e+01 4.5594000000e+01 5.1100000000e-04 0.0000e+00 -1.0000e+00
       23  2    1    2    0    0 +0.0000000000e+00 +0.0000000000e+00 +0.0000000000e+00 9.1188000000e+01 9.1188000000e+01 1.8304e-13 0.0000e+00
  9900012  1    3    3    0    0 +1.9694451302e+01 +2.0768527766e+00 -2.4990714994e+01 5.9301944028e+01 5.0000000000e+01 2.9518e-05 -1.0000e+00
      -12  1    3    3    0    0 -1.9694451302e+01 -2.0768527766e+00 +2.4990714994e+01 3.1886055972e+01 0.0000000000e+00 0.0000e+00 1.0000e+00
</event>
<event>
 5      8 +1.7896800e-02 9.11880000e+01 7.81616400e-03 1.18400000e-01
      -11 -1    0    0    0    0 +0.0000000000e+00 +0.0000000000e+00 +4.5593999997e+01 4.5594000000e+01 5.1100000000e-04 0.0000e+00 1.0000e+00
       11 -1    0    0    0    0 -0.0000000000e+00 -0.0000000000e+00 -4.5593999997e+01 4.5594000000e+01 5.1100000000e-04 0.0000e+00 -1.0000e+00
       23  2    1    2    0    0 +0.0000000000e+00 +0.0000000000e+00 +0.0000000000e+00 9.1188000000e+01 9.1188000000e+01 1.0734e-13 0.0000e+00
  9900012  1    3    3    0    0 +8.4903235413e+00 -3.0702918844e+01 +1.4020506831e+00 5.9301944028e+01 5.0000000000e+01 2.2377e-03 -1.0000e+00
      -12  1    3    3    0    0 -8.4903235413e+00 +3.0702918844e+01 -1.4020506831e+00 3.1886055972e+01 0.0000000000e+00 0.0000e+00 1.0000e+00
</event>
<event>
 5      5 +1.7896800e-02 9.11880000e+01 7.81616400e-03 1.18400000e-01
      -11 -1    0    0    0    0 +0.0000000000e+00 +0.0000000000e+00 +4.5593999997e+01 4.5594000000e+01 5.1100000000e-04 0.0000e+00 1.0000e+00
       11 -1    0    0    0    0 -0.0000000000e+00 -0.0000000000e+00 -4.5593999997e+01 4.5594000000e+01 5.1100000000e-04 0.0000e+00 -1.0000e+00
       23  2    1    2    0    0 +0.0000000000e+00 +0.0000000000e+00 +0.0000000000e+00 9.1188000000e+01 9.1188000000e+01 3.8551e-14 0.0000e+00
  9900012  1    3    3    0    0 +2.6289400373e+01 +9.9414663667e+00 -1.5058394336e+01 5.9301944028e+01 5.0000000000e+01 2.0668e-04 1.0000e+00
       12  1    3    3    0    0 -2.6289400373e+01 -9.9414663667e+00 +1.5058394336e+01 3.1886055972e+01 0.0000000000e+00 0.0000e+00 -1.0000e+00
</event>
<event>
 5      4 +1.7896800e-02 9.11880000e+01 7.81616400e-03 1.18400000e-01
      -11 -1    0    0    0    0 +0.0000000000e+00 +0.0000000000e+00 +4.5593999997e+01 4.5594000000e+01 5.1100000000e-04 0.0000e+00 1.0000e+00
       11 -1    0    0    0    0 -0.0000000000e+00 -0.0000000000e+00 -4.5593999997e+01 4.5594000000e+01 5.1100000000e-04 0.0000e+00 -1.0000e+00
       23  2    1    2    0    0 +0.0000000000e+00 +0.0000000000e+00 +0.0000000000e+00 9.1188000000e+01 9.1188000000e+01 1.0119e-13 0.0000e+00
  9900012  1    3    3    0    0 -1.2392699235e+01 +2.3494469219e+01 +1.7639486592e+01 5.9301944028e+01 5.0000000000e+01 1.2953e-03 1.0000e+00
      -12  1    3    3    0    0 +1.2392699235e+01 -2.3494469219e+01 -1.7639486592e+01 3.1886055972e+01 0.0000000000e+00 0.0000e+00 1.0000e+00
</event>
<event>
 5      7 +1.7896800e-02 9.11880000e+01 7.81616400e-03 1.18400000e-01
      -11 -1    0    0    0    0 +0.0000000000e+00 +0.0000000000e+00 +4.5593999997e+01 4.5594000000e+01 5.1100000000e-04 0.0000e+00 -1.0000e+00
       11 -1    0    0    0    0 -0.0000000000e+00 -0.0000000000e+00 -4.5593999997e+01 4.5594000000e+01 5.1100000000e-04 0.0000e+00 1.0000e+00
       23  2    1    2    0    0 +0.0000000000e+00 +0.0000000000e+00 +0.0000000000e+00 9.1188000000e+01 9.1188000000e+01 3.7291e-14 0.0000e+00
  9900012  1    3    3    0    0 -1.7414444126e+01 +1.1160299898e+01 -2.4267373311e+01 5.9301944028e+01 5.0000000000e+01 1.7159e-03 1.0000e+00
       12  1    3    3    0    0 +1.7414444126e+01 -1.1160299898e+01 +2.4267373311e+01 3.1886055972e+01 0.0000000000e+00 0.0000e+00 -1.0000e+00
</event>
<event>
 5      6 +1.7896800e-02 9.11880000e+01 7.81616400e-03 1.18400000e-01
      -11 -1    0    0    0    0 +0.0000000000e+00 +0.0000000000e+00 +4.5593999997e+01 4.5594000000e+01 5.1100000000e-04 0.0000e+00 1.0000e+00
       11 -1    0    0    0    0 -0.0000000000e+00 -0.0000000000e+00 -4.5593999997e+01 4.5594000000e+01 5.1100000000e-04 0.0000e+00 -1.0000e+00
       23  2    1    2    0    0 +0.0000000000e+00 +0.0000000000e+00 +0.0000000000e+00 9.1188000000e+01 9.1188000000e+01 1.9067e-14 0.0000e+00
  9900012  1    3    3    0    0 -3.9656774659e+00 +2.2386246740e+01 -2.2357323735e+01 5.9301944028e+01 5.0000000000e+01 2.0552e-04 -1.0000e+00
      -12  1    3    3    0    0 +3.9656774659e+00 -2.2386246740e+01 +2.2357323735e+01 3.1886055972e+01 0.0000000000e+00 0.0000e+00 1.0000e+00
</event>
<event>
 5      6 +1.7896800e-02 9.11880000e+01 7.81616400e-03 1.18400000e-01
      -11 -1    0    0    0    0 +0.0000000000e+00 +0.0000000000e+00 +4.5593999997e+01 4.5594000000e+01 5.1100000000e-04 0.0000e+00 1.0000e+00
       11 -1    0    0    0    0 -0.0000000000e+00 -0.0000000000e+00 -4.5593999997e+01 4.5594000000e+01 5.1100000000e-04 0.0000e+00 -1.0000e+00
       23  2    1    2    0    0 +0.0000000000e+00 +0.0000000000e+00 +0.0000000000e+00 9.1188000000e+01 9.1188000000e+01 8.8629e-15 0.0000e+00
  9900012  1    3    3    0    0 -1.8323053606e+01 -1.8082867596e+00 -2.6032986210e+01 5.9301944028e+01 5.0000000000e+01 1.0357e-04 -1.0000e+00
      -12  1    3    3    0    0 +1.8323053606e+01 +1.8082867596e+00 +2.6032986210e+01 3.1886055972e+01 0.0000000000e+00 0.0000e+00 1.0000e+00
</event>
<event>
 5      5 +1.7896800e-02 9.11880000e+01 7.81616400e-03 1.18400000e-01
      -11 -1    0    0    0    0 +0.0000000000e+00 +0.0000000000e+00 +4.5593999997e+01 4.5594000000e+01 5.1100000000e-04 0.0000e+00 1.0000e+00
       11 -1    0    0    0    0 -0.0000000000e+00 -0.0000000000e+00 -4.5593999997e+01 4.5594000000e+01 5.1100000000e-04 0.0000e+00 -1.0000e+00
       23  2    1    2    0    0 +0.0000000000e+00 +0.0000000000e+00 +0.0000000000e+00 9.1188000000e+01 9.1188000000e+01 1.2934e-13 0.0000e+00
  9900012  1    3    3    0    0 -2.1895217338e+01 -1.4532280501e+01 -1.8059148558e+01 5.9301944028e+01 5.0000000000e+01 1.0102e-03 -1.0000e+00
       12  1    3    3    0    0 +2.1895217338e+01 +1.4532280501e+01 +1.8059148558e+01 3.1886055972e+01 0.0000000000e+00 0.0000e+00 -1.0000e+00
</event>
<event>
 5      4 +1.7896800e-02 9.11880000e+01 7.81616400e-03 1.18400000e-01
      -11 -1    0    0    0    0 +0.0000000000e+00 +0.0000000000e+00 +4.5593999997e+01 4.5594000000e+01 5.1100000000e-04 0.0000e+00 -1.0000e+00
       11 -1    0    0    0    0 -0.0000000000e+00 -0.0000000000e+00 -4.5593999997e+01 4.5594000000e+01 5.1100000000e-04 0.0000e+00 1.0000e+00
       23  2    1    2    0    0 +0.0000000000e+00 +0.0000000000e+00 +0.0000000000e+00 9.1188000000e+01 9.1188000000e+01 1.1081e-13 0.0000e+00
  9900012  1    3    3    0    0 -1.6593627489e+01 +8.7671765971e-02 +2.7228007747e+01 5.9301944028e+01 5.0000000000e+01 1.0404e-04 -1.0000e+00
      -12  1    3    3    0    0 +1.6593627489e+01 -8.7671765971e-02 -2.7228007747e+01 3.1886055972e+01 0.0000000000e+00 0.0000e+00 1.0000e+00
</event>
<event>
 5      1 +1.7896800e-02 9.11880000e+01 7.81616400e-03 1.18400000e-01
      -11 -1    0    0    0    0 +0.0000000000e+00 +0.0000000000e+00 +4.5593999997e+01 4.5594000000e+01 5.1100000000e-04 0.0000e+00 1.0000e+00
       11 -1    0    0    0    0 -0.0000000000e+00 -0.0000000000e+00 -4.5593999997e+01 4.5594000000e+01 5.1100000000e-04 0.0000e+00 -1.0000e+00
       23  2    1    2    0    0 +0.0000000000e+00 +0.0000000000e+00 +0.0000000000e+00 9.1188000000e+01 9.1188000000e+01 5.2523e-14 0.0000e+00
  9900012  1    3    3    0    0 -3.1456029054e+01 +4.4828090527e-01 +5.1997928655e+00 5.9301944028e+01 5.0000000000e+01 2.2659e-05 1.0000e+00
       12  1    3    3    0    0 +3.1456029054e+01 -4.4828090527e-01 -5.1997928655e+00 3.1886055972e+01 0.0000000000e+00 0.0000e+00 -1.0000e+00
</event>
<event>
 5      7 +1.7896800e-02 9.11880000e+01 7.81616400e-03 1.18400000e-01
      -11 -1    0    0    0    0 +0.0000000000e+00 +0.0000000000e+00 +4.5593999997e+01 4.5594000000e+01 5.1100000000e-04 0.0000e+00 1.0000e+00
       11 -1    0    0    0    0 -0.0000000000e+00 -0.0000000000e+00 -4.5593999997e+01 4.5594000000e+01 5.1100000000e-04 0.0000e+00 -1.0000e+00
       23  2    1    2    0    0 +0.0000000000e+00 +0.0000000000e+00 +0.0000000000e+00 9.1188000000e+01 9.1188000000e+01 2.0366e-13 0.0000e+00
  9900012  1    3    3    0    0 +2.3837378431e+01 -2.0877069226e+01 +3.5563936134e+00 5.9301944028e+01 5.0000000000e+01 3.2114e-03 -1.0000e+00
       12  1    3    3    0    0 -2.3837378431e+01 +2.0877069226e+01 -3.5563936134e+00 3.1886055972e+01 0.0000000000e+00 0.0000e+00 -1.0000e+00
</event>
<event>
 5      7 +1.7896800e-02 9.11880000e+01 7.81616400e-03 1.18400000e-01
      -11 -1    0    0    0    0 +0.0000000000e+00 +0.0000000000e+00 +4.5593999997e+01 4.5594000000e+01 5.1100000000e-04 0.0000e+00 -1.0000e+00
       11 -1    0    0    0    0 -0.0000000000e+00 -0.0000000000e+00 -4.5593999997e+01 4.5594000000e+01 5.1100000000e-04 0.0000e+00 1.0000e+00
       23  2    1    2    0    0 +0.0000000000e+00 +0.0000000000e+00 +0.0000000000e+00 9.1188000000e+01 9.1188000000e+01 1.2058e-13 0.0000e+00
  9900012  1    3    3    0    0 -1.3137545907e+01 +1.5880181488e+01 -2.4329925790e+01 5.9301944028e+01 5.0000000000e+01 9.4666e-05 1.0000e+00
       12  1    3    3    0    0 +1.3137545907e+01 -1.5880181488e+01 +2.4329925790e+01 3.1886055972e+01 0.0000000000e+00 0.0000e+00 -1.0000e+00
</event>
<event>
 5      7 +1.7896800e-02 9.11880000e+01 7.81616400e-03 1.18400000e-01
      -11 -1    0    0    0    0 +0.0000000000e+00 +0.0000000000e+00 +4.5593999997e+01 4.5594000000e+01 5.1100000000e-04 0.0000e+00 1.0000e+00
       11 -1    0    0    0    0 -0.0000000000e+00 -0.0000000000e+00 -4.5593999997e+01 4.5594000000e+01 5.1100000000e-04 0.0000e+00 -1.0000e+00
       23  2    1    2    0    0 +0.0000000000e+00 +0.0000000000e+00 +0.0000000000e+00 9.1188000000e+01 9.1188000000e+01 1.7331e-14 0.0000e+00
  9900012  1    3    3    0    0 +3.4724927212e+00 +2.7291261757e+01 +1.6119844648e+01 5.9301944028e+01 5.0000000000e+01 1.3377e-03 1.0000e+00
       12  1    3    3    0    0 -3.4724927212e+00 -2.7291261757e+01 -1.6119844648e+01 3.1886055972e+01 0.0000000000e+00 0.0000e+00 -1.0000e+00
</event>
<event>
 5      7 +1.7896800e-02 9.11880000e+01 7.81616400e-03 1.18400000e-01
      -11 -1    0    0    0    0 +0.0000000000e+00 +0.0000000000e+00 +4.5593999997e+01 4.5594000000e+01 5.1100000000e-04 0.0000e+00 1.0000e+00
       11 -1    0    0    0    0 -0.0000000000e+00 -0.0000000000e+00 -4.5593999997e+01 4.5594000000e+01 5.1100000000e-04 0.0000e+00 -1.0000e+00
       23  2    1    2    0    0 +0.0000000000e+00 +0.0000000000e+00 +0.0000000000e+00 9.1188000000e+01 9.1188000000e+01 1.2809e-13 0.0000e+00
  9900012  1    3    3    0    0 -1.2439233473e+01 +2.7275399318e+01 +1.0864558348e+01 5.9301944028e+01 5.0000000000e+01 2.4868e-04 1.0000e+00
       12  1    3    3    0    0 +1.2439233473e+01 -2.7275399318e+01 -1.0864558348e+01 3.1886055972e+01 0.0000000000e+00 0.0000e+00 -1.0000e+00
</event>
<event>
 5      1 +1.7896800e-02 9.11880000e+01 7.81616400e-03 1.18400000e-01
      -11 -1    0    0    0    0 +0.0000000000e+00 +0.0000000000e+00 +4.5593999997e+01 4.5594000000e+01 5.1100000000e-04 0.0000e+00 -1.0000e+00
       11 -1    0    0    0    0 -0.0000000000e+00 -0.0000000000e+00 -4.5593999997e+01 4.5594000000e+01 5.1100000000e-04 0.0000e+00 1.0000e+00
       23  2    1    2    0    0 +0.0000000000e+00 +0.0000000000e+00 +0.0000000000e+00 9.1188000000e+01 9.1188000000e+01 7.1101e-14 0.0000e+00
  9900012  1    3    3    0    0 +1.4514167343e+01 -2.7946867348e+01 +5.0032106916e+00 5.9301944028e+01 5.0000000000e+01 2.0670e-04 1.0000e+00
       12  1    3    3    0    0 -1.4514167343e+01 +2.7946867348e+01 -5.0032106916e+00 3.1886055972e+01 0.0000000000e+00 0.0000e+00 -1.0000e+00
</event>
<event>
 5      3 +1.7896800e-02 9.11880000e+01 7.81616400e-03 1.18400000e-01
      -11 -1    0    0    0    0 +0.0000000000e+00 +0.0000000000e+00 +4.5593999997e+01 4.5594000000e+01 5.1100000000e-04 0.0000e+00 -1.0000e+00
       11 -1    0    0    0    0 -0.0000000000e+00 -0.0000000000e+00 -4.5593999997e+01 4.5594000000e+01 5.1100000000e-04 0.0000e+00 1.0000e+00
       23  2    1    2    0    0 +0.0000000000e+00 +0.0000000000e+00 +0.0000000000e+00 9.1188000000e+01 9.1188000000e+01 1.3218e-14 0.0000e+00
  9900012  1    3    3    0    0 -2.5588290651e+01 -1.7932884852e+01 -6.3538640154e+00 5.9301944028e+01 5.0000000000e+01 3.8786e-05 1.0000e+00
       12  1    3    3    0    0 +2.5588290651e+01 +1.7932884852e+01 +6.3538640154e+00 3.1886055972e+01 0.0000000000e+00 0.0000e+00 -1.0000e+00
</event>
<event>
 5      8 +1.7896800e-02 9.11880000e+01 7.81616400e-03 1.18400000e-01
      -11 -1    0    0    0    0 +0.0000000000e+00 +0.0000000000e+00 +4.5593999997e+01 4.5594000000e+01 5.1100000000e-04 0.0000e+00 1.0000e+00
       11 -1    0    0    0    0 -0.0000000000e+00 -0.0000000000e+00 -4.5593999997e+01 4.5594000000e+01 5.1100000000e-04 0.0000e+00 -1.0000e+00
       23  2    1    2    0    0 +0.0000000000e+00 +0.0000000000e+00 +0.0000000000e+00 9.1188000000e+01 9.1188000000e+01 9.8331e-16 0.0000e+00
  9900012  1    3    3    0    0 -6.4594329913e+00 -2.7522770861e+01 -1.4747656594e+01 5.9301944028e+01 5.0000000000e+01 2.0151e-04 -1.0000e+00
      -12  1    3    3    0    0 +6.4594329913e+00 +2.7522770861e+01 +1.4747656594e+01 3.1886055972e+01 0.0000000000e+00 0.0000e+00 1.0000e+00
</event>
<event>
 5      5 +1.7896800e-02 9.11880000e+01 7.81616400e-03 1.18400000e-01
      -11 -1    0    0    0    0 +0.0000000000e+00 +0.0000000000e+00 +4.5593999997e+01 4.5594000000e+01 5.1100000000e-04 0.0000e+00 -1.0000e+00
       11 -1    0    0    0    0 -0.0000000000e+00 -0.0000000000e+00 -4.5593999997e+01 4.5594000000e+01 5.1100000000e-04 0.0000e+00 1.0000e+00
       23  2    1    2    0    0 +0.0000000000e+00 +0.0000000000e+00 +0.0000000000e+00 9.1188000000e+01 9.1188000000e+01 1.8185e-13 0.0000e+00
  9900012  1    3    3    0    0 +2.5283499613e+01 +1.0581595713e+01 -1.6294018686e+01 5.9301944028e+01 5.0000000000e+01 1.9095e-03 -1.0000e+00
       12  1    3    3    0    0 -2.5283499613e+01 -1.0581595713e+01 +1.6294018686e+01 3.1886055972e+01 0.0000000000e+00 0.0000e+00 -1.0000e+00
</event>
<event>
 5      1 +1.7896800e-02 9.11880000e+01 7.81616400e-03 1.18400000e-01
      -11 -1    0    0    0    0 +0.0000000000e+00 +0.0000000000e+00 +4.5593999997e+01 4.5594000000e+01 5.1100000000e-04 0.0000e+00 1.0000e+00
       11 -1    0    0    0    0 -0.0000000000e+00 -0.0000000000e+00 -4.5593999997e+01 4.5594000000e+01 5.1100000000e-04 0.0000e+00 -1.0000e+00
       23  2    1    2    0    0 +0.0000000000e+00 +0.0000000000e+00 +0.0000000000e+00 9.1188000000e+01 9.1188000000e+01 1.6460e-14 0.0000e+00
  9900012  1    3    3    0    0 +2.2051640893e+00 +3.1741075875e+01 +2.0885207903e+00 5.9301944028e+01 5.0000000000e+01 2.0312e-03 1.0000e+00
       12  1    3    3    0    0 -2.2051640893e+00 -3.1741075875e+01 -2.0885207903e+00 3.1886055972e+01 0.0000000000e+00 0.0000e+00 -1.0000e+00
</event>
<event>
 5      3 +1.7896800e-02 9.11880000e+01 7.81616400e-03 1.18400000e-01
      -11 -1    0    0    0    0 +0.0000000000e+00 +0.0000000000e+00 +4.5593999997e+01 4.5594000000e+01 5.1100000000e-04 0.0000e+00 -1.0000e+00
       11 -1    0    0    0    0 -0.0000000000e+00 -0.0000000000e+00 -4.5593999997e+01 4.5594000000e+01 5.1100000000e-04 0.0000e+00 1.0000e+00
       23  2    1    2    0    0 +0.0000000000e+00 +0.0000000000e+00 +0.0000000000e+00 9.1188000000e+01 9.1188000000e+01 1.6956e-13 0.0000e+00
  9900012  1    3    3    0    0 +1.3984636743e+01 +1.5620332649e+01 -2.4024065197e+01 5.9301944028e+01 5.0000000000e+01 3.5662e-04 1.0000e+00
       12  1    3    3    0    0 -1.3984636743e+01 -1.5620332649e+01 +2.4024065197e+01 3.1886055972e+01 0.0000000000e+00 0.0000e+00 -1.0000e+00
</event>
<event>
 5      6 +1.7896800e-02 9.11880000e+01 7.81616400e-03 1.18400000e-01
      -11 -1    0    0    0    0 +0.0000000000e+00 +0.0000000000e+00 +4.5593999997e+01 4.5594000000e+01 5.1100000000e-04 0.0000e+00 -1.0000e+00
       11 -1    0    0    0    0 -0.0000000000e+00 -0.0000000000e+00 -4.5593999997e+01 4.5594000000e+01 5.1100000000e-04 0.0000e+00 1.0000e+00
       23  2    1    2    0    0 +0.0000000000e+00 +0.0000000000e+00 +0.0000000000e+00 9.1188000000e+01 9.1188000000e+01 8.2561e-14 0.0000e+00
  9900012  1    3    3    0    0 +1.3503656238e+01 +5.2129152721e+00 +2.8411218700e+01 5.9301944028e+01 5.0000000000e+01 2.5660e-03 -1.0000e+00
      -12  1    3    3    0    0 -1.3503656238e+01 -5.2129152721e+00 -2.8411218700e+01 3.1886055972e+01 0.0000000000e+00 0.0000e+00 1.0000e+00
</event>
<event>
 5      8 +1.7896800e-02 9.11880000e+01 7.81616400e-03 1.18400000e-01
      -11 -1    0    0    0    0 +0.0000000000e+00 +0.0000000000e+00 +4.5593999997e+01 4.5594000000e+01 5.1100000000e-04 0.0000e+00 1.0000e+00
       11 -1    0    0    0    0 -0.0000000000e+00 -0.0000000000e+00 -4.5593999997e+01 4.5594000000e+01 5.1100000000e-04 0.0000e+00 -1.0000e+00
       23  2    1    2    0    0 +0.0000000000e+00 +0.0000000000e+00 +0.0000000000e+00 9.1188000000e+01 9.1188000000e+01 1.4839e-15 0.0000e+00
  9900012  1    3    3    0    0 +1.8029411282e+01 -2.6299261998e+01 -9.8552885154e-02 5.9301944028e+01 5.0000000000e+01 4.0683e-04 -1.0000e+00
      -12  1    3    3    0    0 -1.8029411282e+01 +2.6299261998e+01 +9.8552885154e-02 3.1886055972e+01 0.0000000000e+00 0.0000e+00 1.0000e+00
</event>
<event>
 5      7 +1.7896800e-02 9.11880000e+01 7.81616400e-03 1.18400000e-01
      -11 -1    0    0    0    0 +0.0000000000e+00 +0.0000000000e+00 +4.5593999997e+01 4.5594000000e+01 5.1100000000e-04 0.0000e+00 -1.0000e+00
       11 -1    0    0    0    0 -0.0000000000e+00 -0.0000000000e+00 -4.5593999997e+01 4.5594000000e+01 5.1100000000e-04 0.0000e+00 1.0000e+00
       23  2    1    2    0    0 +0.0000000000e+00 +0.0000000000e+00 +0.0000000000e+00 9.1188000000e+01 9.1188000000e+01 9.6785e-15 0.0000e+00
  9900012  1    3    3    0    0 +1.4266123932e+01 +2.6676606774e+01 +1.0077545558e+01 5.9301944028e+01 5.0000000000e+01 7.8987e-04 1.0000e+00
       12  1    3    3    0    0 -1.4266123932e+01 -2.6676606774e+01 -1.0077545558e+01 3.1886055972e+01 0.0000000000e+00 0.0000e+00 -1.0000e+00
</event>
<event>
 5      2 +1.7896800e-02 9.11880000e+01 7.81616400e-03 1.18400000e-01
      -11 -1    0    0    0    0 +0.0000000000e+00 +0.0000000000e+00 +4.5593999997e+01 4.5594000000e+01 5.1100000000e-04 0.0000e+00 -1.0000e+00
       11 -1    0    0    0    0 -0.0000000000e+00 -0.0000000000e+00 -4.5593999997e+01 4.5594000000e+01 5.1100000000e-04 0.0000e+00 1.0000e+00
       23  2    1    2    0    0 +0.0000000000e+00 +0.0000000000e+00 +0.0000000000e+00 9.1188000000e+01 9.1188000000e+01 1.8636e-13 0.0000e+00
  9900012  1    3    3    0    0 +6.7348805302e+00 -2.9444767653e+01 +1.0216046572e+01 5.9301944028e+01 5.0000000000e+01 9.5152e-04 1.0000e+00
      -12  1    3    3    0    0 -6.7348805302e+00 +2.9444767653e+01 -1.0216046572e+01 3.1886055972e+01 0.0000000000e+00 0.0000e+00 1.0000e+00
</event>
<event>
 5      8 +1.7896800e-02 9.11880000e+01 7.81616400e-03 1.18400000e-01
      -11 -1    0    0    0    0 +0.0000000000e+00 +0.0000000000e+00 +4.5593999997e+01 4.5594000000e+01 5.1100000000e-04 0.0000e+00 1.0000e+00
       11 -1    0    0    0    0 -0.0000000000e+00 -0.0000000000e+00 -4.5593999997e+01 4.5594000000e+01 5.1100000000e-04 0.0000e+00 -1.0000e+00
       23  2    1    2    0    0 +0.0000000000e+00 +0.0000000000e+00 +0.0000000000e+00 9.1188000000e+01 9.1188000000e+01 9.1316e-15 0.0000e+00
  9900012  1    3    3    0    0 -9.9475829165e+00 +7.7310307310e+00 -2.9291591343e+01 5.9301944028e+01 5.0000000000e+01 3.2044e-04 -1.0000e+00
      -12  1    3    3    0    0 +9.9475829165e+00 -7.7310307310e+00 +2.9291591343e+01 3.1886055972e+01 0.0000000000e+00 0.0000e+00 1.0000e+00
</event>
<event>
 5      5 +1.7896800e-02 9.11880000e+01 7.81616400e-03 1.18400000e-01
      -11 -1    0    0    0    0 +0.0000000000e+00 +0.0000000000e+00 +4.5593999997e+01 4.5594000000e+01 5.1100000000e-04 0.0000e+00 -1.0000e+00
       11 -1    0    0    0    0 -0.0000000000e+00 -0.0000000000e+00 -4.5593999997e+01 4.5594000000e+01 5.1100000000e-04 0.0000e+00 1.0000e+00
       23  2    1    2    0    0 +0.0000000000e+00 +0.0000000000e+00 +0.0000000000e+00 9.1188000000e+01 9.1188000000e+01 7.0139e-14 0.0000e+00
  9900012  1    3    3    0    0 +1.1298272651e+01 -2.6967688849e+01 -1.2720587985e+01 5.9301944028e+01 5.0000000000e+01 8.1632e-04 1.0000e+00
       12  1    3    3    0    0 -1.1298272651e+01 +2.6967688849e+01 +1.2720587985e+01 3.1886055972e+01 0.0000000000e+00 0.0000e+00 -1.0000e+00
</event>
<event>
 5      3 +1.7896800e-02 9.11880000e+01 7.81616400e-03 1.18400000e-01
      -11 -1    0    0    0    0 +0.0000000000e+00 +0.0000000000e+00 +4.5593999997e+01 4.5594000000e+01 5.1100000000e-04 0.0000e+00 -1.0000e+00
       11 -1    0    0    0    0 -0.0000000000e+00 -0.0000000000e+00 -4.5593999997e+01 4.5594000000e+01 5.1100000000e-04 0.0000e+00 1.0000e+00
       23  2    1    2    0    0 +0.0000000000e+00 +0.0000000000e+00 +0.0000000000e+00 9.1188000000e+01 9.1188000000e+01 3.7968e-14 0.0000e+00
  9900012  1    3    3    0    0 -2.4972120780e+01 +1.5279528049e+01 +1.2635259071e+01 5.9301944028e+01 5.0000000000e+01 4.3650e-04 1.0000e+00
       12  1    3    3    0    0 +2.4972120780e+01 -1.5279528049e+01 -1.2635259071e+01 3.1886055972e+01 0.0000000000e+00 0.0000e+00 -1.0000e+00
</event>
<event>
 5      4 +1.7896800e-02 9.11880000e+01 7.81616400e-03 1.18400000e-01
      -11 -1    0    0    0    0 +0.0000000000e+00 +0.0000000000e+00 +4.5593999997e+01 4.5594000000e+01 5.1100000000e-04 0.0000e+00 -1.0000e+00
       11 -1    0    0    0    0 -0.0000000000e+00 -0.0000000000e+00 -4.5593999997e+01 4.5594000000e+01 5.1100000000e-04 0.0000e+00 1.0000e+00
       23  2    1    2    0    0 +0.0000000000e+00 +0.0000000000e+00 +0.0000000000e+00 9.1188000000e+01 9.1188000000e+01 1.8142e-14 0.0000e+00
  9900012  1    3    3    0    0 -7.1735998247e-01 +3.1376967140e+01 +5.6295553299e+00 5.9301944028e+01 5.0000000000e+01 2.4732e-03 -1.0000e+00
      -12  1    3    3    0    0 +7.1735998247e-01 -3.1376967140e+01 -5.6295553299e+00 3.1886055972e+01 0.0000000000e+00 0.0000e+00 1.0000e+00
</event>
<event>
 5      8 +1.7896800e-02 9.11880000e+01 7.81616400e-03 1.18400000e-01
      -11 -1    0    0    0    0 +0.0000000000e+00 +0.0000000000e+00 +4.5593999997e+01 4.5594000000e+01 5.1100000000e-04 0.0000e+00 -1.0000e+00
       11 -1    0    0    0    0 -0.0000000000e+00 -0.0000000000e+00 -4.5593999997e+01 4.5594000000e+01 5.1100000000e-04 0.0000e+00 1.0000e+00
       23  2    1    2    0    0 +0.0000000000e+00 +0.0000000000e+00 +0.0000000000e+00 9.1188000000e+01 9.1188000000e+01 4.1746e-15 0.0000e+00
  9900012  1    3    3    0    0 -2.5046836442e+01 +1.9477768264e+01 +3.1611853998e+00 5.9301944028e+01 5.0000000000e+01 1.3005e-03 -1.0000e+00
      -12  1    3    3    0    0 +2.5046836442e+01 -1.9477768264e+01 -3.1611853998e+00 3.1886055972e+01 0.0000000000e+00 0.0000e+00 1.0000e+00
</event>
<event>
 5      7 +1.7896800e-02 9.11880000e+01 7.81616400e-03 1.18400000e-01
      -11 -1    0    0    0    0 +0.0000000000e+00 +0.0000000000e+00 +4.5593999997e+01 4.5594000000e+01 5.1100000000e-04 0.0000e+00 1.0000e+00
       11 -1    0    0    0    0 -0.0000000000e+00 -0.0000000000e+00 -4.5593999997e+01 4.5594000000e+01 5.1100000000e-04 0.0000e+00 -1.0000e+00
       23  2    1    2    0    0 +0.0000000000e+00 +0.0000000000e+00 +0.0000000000e+00 9.1188000000e+01 9.1188000000e+01 1.8444e-15 0.0000e+00
  9900012  1    3    3    0    0 +1.1907612539e+01 +1.1478767861e+01 +2.7261093476e+01 5.9301944028e+01 5.0000000000e+01 1.5205e-04 1.0000e+00
       12  1    3    3    0    0 -1.1907612539e+01 -1.1478767861e+01 -2.7261093476e+01 3.1886055972e+01 0.0000000000e+00 0.0000e+00 -1.0000e+00
</event>
<event>
 5      8 +1.7896800e-02 9.11880000e+01 7.81616400e-03 1.18400000e-01
      -11 -1    0    0    0    0 +0.0000000000e+00 +0.0000000000e+00 +4.5593999997e+01 4.5594000000e+01 5.1100000000e-04 0.0000e+00 -1.0000e+00
       11 -1    0    0    0    0 -0.0000000000e+00 -0.0000000000e+00 -4.5593999997e+01 4.5594000000e+01 5.1100000000e-04 0.0000e+00 1.0000e+00
       23  2    1    2    0    0 +0.0000000000e+00 +0.0000000000e+00 +0.0000000000e+00 9.1188000000e+01 9.1188000000e+01 4.1467e-14 0.0000e+00
  9900012  1    3    3    0    0 -9.7975492126e+00 -9.4380879542e+00 +2.8838361442e+01 5.9301944028e+01 5.0000000000e+01 1.0857e-04 -1.0000e+00
      -12  1    3    3    0    0 +9.7975492126e+00 +9.4380879542e+00 -2.8838361442e+01 3.1886055972e+01 0.0000000000e+00 0.0000e+00 1.0000e+00
</event>
<event>
 5      7 +1.7896800e-02 9.11880000e+01 7.81616400e-03 1.18400000e-01
      -11 -1    0    0    0    0 +0.0000000000e+00 +0.0000000000e+00 +4.5593999997e+01 4.5594000000e+01 5.1100000000e-04 0.0000e+00 1.0000e+00
       11 -1    0    0    0    0 -0.0000000000e+00 -0.0000000000e+00 -4.5593999997e+01 4.5594000000e+01 5.1100000000e-04 0.0000e+00 -1.0000e+00
       23  2    1    2    0    0 +0.0000000000e+00 +0.0000000000e+00 +0.0000000000e+00 9.1188000000e+01 9.1188000000e+01 2.2013e-14 0.0000e+00
  9900012  1    3    3    0    0 +1.5918865444e+01 +2.7589067950e+01 +1.4675210800e+00 5.9301944028e+01 5.0000000000e+01 3.6238e-04 1.0000e+00
       12  1    3    3    0    0 -1.5918865444e+01 -2.7589067950e+01 -1.4675210800e+00 3.1886055972e+01 0.0000000000e+00 0.0000e+00 -1.0000e+00
</event>
<event>
 5      3 +1.7896800e-02 9.11880000e+01 7.81616400e-03 1.18400000e-01
      -11 -1    0    0    0    0 +0.0000000000e+00 +0.0000000000e+00 +4.5593999997e+01 4.5594000000e+01 5.1100000000e-04 0.0000e+00 1.0000e+00
       11 -1    0    0    0    0 -0.0000000000e+00 -0.0000000000e+00 -4.5593999997e+01 4.5594000000e+01 5.1100000000e-04 0.0000e+00 -1.0000e+00
       23  2    1    2    0    0 +0.0000000000e+00 +0.0000000000e+00 +0.0000000000e+00 9.1188000000e+01 9.1188000000e+01 2.4099e-14 0.0000e+00
  9900012  1    3    3    0    0 +3.0650530804e+01 +8.7734954005e+00 +5.3972712606e-01 5.9301944028e+01 5.0000000000e+01 1.4679e-03 1.0000e+00
       12  1    3    3    0    0 -3.0650530804e+01 -8.7734954005e+00 -5.3972712606e-01 3.1886055972e+01 0.0000000000e+00 0.0000e+00 -1.0000e+00
</event>
<event>
 5      8 +1.7896800e-02 9.11880000e+01 7.81616400e-03 1.18400000e-01
      -11 -1    0    0    0    0 +0.0000000000e+00 +0.0000000000e+00 +4.5593999997e+01 4.5594000000e+01 5.1100000000e-04 0.0000e+00 1.0000e+00
       11 -1    0    0    0    0 -0.0000000000e+00 -0.0000000000e+00 -4.5593999997e+01 4.5594000000e+01 5.1100000000e-04 0.0000e+00 -1.0000e+00
       23  2    1    2    0    0 +0.0000000000e+00 +0.0000000000e+00 +0.0000000000e+00 9.1188000000e+01 9.1188000000e+01 1.2708e-14 0.0000e+00
  9900012  1    3    3    0    0 -1.9239645136e+01 +1.9098083023e+01 -1.6787490741e+01 5.9301944028e+01 5.0000000000e+01 4.3161e-05 -1.0000e+00
      -12  1    3    3    0    0 +1.9239645136e+01 -1.9098083023e+01 +1.6787490741e+01 3.1886055972e+01 0.0000000000e+00 0.0000e+00 1.0000e+00
</event>
<event>
 5      1 +1.7896800e-02 9.11880000e+01 7.81616400e-03 1.18400000e-01
      -11 -1    0    0    0    0 +0.0000000000e+00 +0.0000000000e+00 +4.5593999997e+01 4.5594000000e+01 5.1100000000e-04 0.0000e+00 -1.0000e+00
       11 -1    0    0    0    0 -0.0000000000e+00 -0.0000000000e+00 -4.5593999997e+01 4.5594000000e+01 5.1100000000e-04 0.0000e+00 1.0000e+00
       23  2    1    2    0    0 +0.0000000000e+00 +0.0000000000e+00 +0.0000000000e+00 9.1188000000e+01 9.1188000000e+01 2.1165e-14 0.0000e+00
  9900012  1    3    3    0    0 +2.5988573176e+01 -2.8643167346e+00 -1.8251310073e+01 5.9301944028e+01 5.0000000000e+01 1.6575e-03 1.0000e+00
       12  1    3    3    0    0 -2.5988573176e+01 +2.8643167346e+00 +1.8251310073e+01 3.1886055972e+01 0.0000000000e+00 0.0000e+00 -1.0000e+00
</event>
<event>
 5      3 +1.7896800e-02 9.11880000e+01 7.81616400e-03 1.18400000e-01
      -11 -1    0    0    0    0 +0.0000000000e+00 +0.0000000000e+00 +4.5593999997e+01 4.5594000000e+01 5.1100000000e-04 0.0000e+00 1.0000e+00
       11 -1    0    0    0    0 -0.0000000000e+00 -0.0000000000e+00 -4.5593999997e+01 4.5594000000e+01 5.1100000000e-04 0.0000e+00 -1.0000e+00
       23  2    1    2    0    0 +0.0000000000e+00 +0.0000000000e+00 +0.0000000000e+00 9.1188000000e+01 9.1188000000e+01 8.3604e-15 0.0000e+00
  9900012  1    3    3    0    0 +1.0232669417e+01 -2.9159295618e+01 +7.8580227225e+00 5.9301944028e+01 5.0000000000e+01 4.6422e-05 1.0000e+00
       12  1    3    3    0    0 -1.0232669417e+01 +2.9159295618e+01 -7.8580227225e+00 3.1886055972e+01 0.0000000000e+00 0.0000e+00 -1.0000e+00
</event>
<event>
 5      6 +1.7896800e-02 9.11880000e+01 7.81616400e-03 1.18400000e-01
      -11 -1    0    0    0    0 +0.0000000000e+00 +0.0000000000e+00 +4.5593999997e+01 4.5594000000e+01 5.1100000000e-04 0.0000e+00 1.0000e+00
       11 -1    0    0    0    0 -0.0000000000e+00 -0.0000000000e+00 -4.5593999997e+01 4.5594000000e+01 5.1100000000e-04 0.0000e+00 -1.0000e+00
       23  2    1    2    0    0 +0.0000000000e+00 +0.0000000000e+00 +0.0000000000e+00 9.1188000000e+01 9.1188000000e+01 1.1253e-13 0.0000e+00
  9900012  1    3    3    0    0 -2.6493908305e+01 -1.6595163218e+01 -6.2764596699e+00 5.9301944028e+01 5.0000000000e+01 1.5452e-03 -1.0000e+00
      -12  1    3    3    0    0 +2.6493908305e+01 +1.6595163218e+01 +6.2764596699e+00 3.1886055972e+01 0.0000000000e+00 0.0000e+00 1.0000e+00
</event>
<event>
 5      3 +1.7896800e-02 9.11880000e+01 7.81616400e-03 1.18400000e-01
      -11 -1    0    0    0    0 +0.0000000000e+00 +0.0000000000e+00 +4.5593999997e+01 4.5594000000e+01 5.1100000000e-04 0.0000e+00 -1.0000e+00
       11 -1    0    0    0    0 -0.0000000000e+00 -0.0000000000e+00 -4.5593999997e+01 4.5594000000e+01 5.1100000000e-04 0.0000e+00 1.0000e+00
       23  2    1    2    0    0 +0.0000000000e+00 +0.0000000000e+00 +0.0000000000e+00 9.1188000000e+01 9.1188000000e+01 2.2781e-14 0.0000e+00
  9900012  1    3    3    0    0 +1.7962727258e+01 +2.6320711562e+01 -1.1318735697e+00 5.9301944028e+01 5.0000000000e+01 1.1158e-03 1.0000e+00
       12  1    3    3    0    0 -1.7962727258e+01 -2.6320711562e+01 +1.1318735697e+00 3.1886055972e+01 0.0000000000e+00 0.0000e+00 -1.0000e+00
</event>
<event>
 5      4 +1.7896800e-02 9.11880000e+01 7.81616400e-03 1.18400000e-01
      -11 -1    0    0    0    0 +0.0000000000e+00 +0.0000000000e+00 +4.5593999997e+01 4.5594000000e+01 5.1100000000e-04 0.0000e+00 1.0000e+00
       11 -1    0    0    0    0 -0.0000000000e+00 -0.0000000000e+00 -4.5593999997e+01 4.5594000000e+01 5.1100000000e-04 0.0000e+00 -1.0000e+00
       23  2    1    2    0    0 +0.0000000000e+00 +0.0000000000e+00 +0.0000000000e+00 9.1188000000e+01 9.1188000000e+01 1.4540e-13 0.0000e+00
  9900012  1    3    3    0    0 +1.5388511315e+01 -2.6427518647e+01 +9.0277651239e+00 5.9301944028e+01 5.0000000000e+01 2.0158e-03 -1.0000e+00
      -12  1    3    3    0    0 -1.5388511315e+01 +2.6427518647e+01 -9.0277651239e+00 3.1886055972e+01 0.0000000000e+00 0.0000e+00 1.0000e+00
</event>
<event>
 5      5 +1.7896800e-02 9.11880000e+01 7.81616400e-03 1.18400000e-01
      -11 -1    0    0    0    0 +0.0000000000e+00 +0.0000000000e+00 +4.5593999997e+01 4.5594000000e+01 5.1100000000e-04 0.0000e+00 -1.0000e+00
       11 -1    0    0    0    0 -0.0000000000e+00 -0.0000000000e+00 -4.5593999997e+01 4.5594000000e+01 5.1100000000e-04 0.0000e+00 1.0000e+00
       23  2    1    2    0    0 +0.0000000000e+00 +0.0000000000e+00 +0.0000000000e+00 9.1188000000e+01 9.1188000000e+01 1.0901e-13 0.0000e+00
  9900012  1    3    3    0    0 -2.9281882976e+01 -1.2327956160e+01 -2.7043283424e+00 5.9301944028e+01 5.0000000000e+01 3.9038e-04 -1.0000e+00
       12  1    3    3    0    0 +2.9281882976e+01 +1.2327956160e+01 +2.7043283424e+00 3.1886055972e+01 0.0000000000e+00 0.0000e+00 -1.0000e+00
</event>
<event>
 5      7 +1.7896800e-02 9.11880000e+01 7.81616400e-03 1.18400000e-01
      -11 -1    0    0    0    0 +0.0000000000e+00 +0.0000000000e+00 +4.5593999997e+01 4.5594000000e+01 5.1100000000e-04 0.0000e+00 1.0000e+00
       11 -1    0    0    0    0 -0.0000000000e+00 -0.0000000000e+00 -4.5593999997e+01 4.5594000000e+01 5.1100000000e-04 0.0000e+00 -1.0000e+00
       23  2    1    2    0    0 +0.0000000000e+00 +0.0000000000e+00 +0.0000000000e+00 9.1188000000e+01 9.1188000000e+01 9.3908e-14 0.0000e+00
  9900012  1    3    3    0    0 +7.4247152371e+00 -2.8957035469e+01 +1.1094334860e+01 5.9301944028e+01 5.0000000000e+01 3.1165e-04 -1.0000e+00
       12  1    3    3    0    0 -7.4247152371e+00 +2.8957035469e+01 -1.1094334860e+01 3.1886055972e+01 0.0000000000e+00 0.0000e+00 -1.0000e+00
</event>
<event>
 5      6 +1.7896800e-02 9.11880000e+01 7.81616400e-03 1.18400000e-01
      -11 -1    0    0    0    0 +0.0000000000e+00 +0.0000000000e+00 +4.5593999997e+01 4.5594000000e+01 5.1100000000e-04 0.0000e+00 -1.0000e+00
       11 -1    0    0    0    0 -0.0000000000e+00 -0.0000000000e+00 -4.5593999997e+01 4.5594000000e+01 5.1100000000e-04 0.0000e+00 1.0000e+00
       23  2    1    2    0    0 +0.0000000000e+00 +0.0000000000e+00 +0.0000000000e+00 9.1188000000e+01 9.1188000000e+01 4.2560e-14 0.0000e+00
  9900012  1    3    3    0    0 +2.7913073891e+00 +2.9673258136e+01 -1.1332560174e+01 5.9301944028e+01 5.0000000000e+01 3.4823e-04 1.0000e+00
      -12  1    3    3    0    0 -2.7913073891e+00 -2.9673258136e+01 +1.1332560174e+01 3.1886055972e+01 0.0000000000e+00 0.0000e+00 1.0000e+00
</event>
<event>
 5      7 +1.7896800e-02 9.11880000e+01 7.81616400e-03 1.18400000e-01
      -11 -1    0    0    0    0 +0.0000000000e+00 +0.0000000000e+00 +4.5593999997e+01 4.5594000000e+01 5.1100000000e-04 0.0000e+00 -1.0000e+00
       11 -1    0    0    0    0 -0.0000000000e+00 -0.0000000000e+00 -4.5593999997e+01 4.5594000000e+01 5.1100000000e-04 0.0000e+00 1.0000e+00
       23  2    1    2    0    0 +0.0000000000e+00 +0.0000000000e+00 +0.0000000000e+00 9.1188000000e+01 9.1188000000e+01 2.2825e-14 0.0000e+00
  9900012  1    3    3    0    0 -2.3913733639e+00 -1.5129268491e+01 -2.7966178392e+01 5.9301944028e+01 5.0000000000e+01 4.7665e-05 1.0000e+00
       12  1    3    3    0    0 +2.3913733639e+00 +1.5129268491e+01 +2.7966178392e+01 3.1886055972e+01 0.0000000000e+00 0.0000e+00 -1.0000e+00
</event>
<event>
 5      6 +1.7896800e-02 9.11880000e+01 7.81616400e-03 1.18400000e-01
      -11 -1    0    0    0    0 +0.0000000000e+00 +0.0000000000e+00 +4.5593999997e+01 4.5594000000e+01 5.1100000000e-04 0.0000e+00 1.0000e+00
       11 -1    0    0    0    0 -0.0000000000e+00 -0.0000000000e+00 -4.5593999997e+01 4.5594000000e+01 5.1100000000e-04 0.0000e+00 -1.0000e+00
       23  2    1    2    0    0 +0.0000000000e+00 +0.0000000000e+00 +0.0000000000e+00 9.1188000000e+01 9.1188000000e+01 1.0866e-13 0.0000e+00
  9900012  1    3    3    0    0 +2.8390782441e+01 +1.2436258281e+01 -7.4848859605e+00 5.9301944028e+01 5.0000000000e+01 1.7782e-03 -1.0000e+00
      -12  1    3    3    0    0 -2.8390782441e+01 -1.2436258281e+01 +7.4848859605e+00 3.1886055972e+01 0.0000000000e+00 0.0000e+00 1.0000e+00
</event>
<event>
 5      1 +1.7896800e-02 9.11880000e+01 7.81616400e-03 1.18400000e-01
      -11 -1    0    0    0    0 +0.0000000000e+00 +0.0000000000e+00 +4.5593999997e+01 4.5594000000e+01 5.1100000000e-04 0.0000e+00 -1.0000e+00
       11 -1    0    0    0    0 -0.0000000000e+00 -0.0000000000e+00 -4.5593999997e+01 4.5594000000e+01 5.1100000000e-04 0.0000e+00 1.0000e+00
       23  2    1    2    0    0 +0.0000000000e+00 +0.0000000000e+00 +0.0000000000e+00 9.1188000000e+01 9.1188000000e+01 6.5847e-14 0.0000e+00
  9900012  1    3    3    0    0 +3.6045941343e+00 +3.1647700695e+01 -1.4664608048e+00 5.9301944028e+01 5.0000000000e+01 6.2971e-04 1.0000e+00
       12  1    3    3    0    0 -3.6045941343e+00 -3.1647700695e+01 +1.4664608048e+00 3.1886055972e+01 0.0000000000e+00 0.0000e+00 -1.0000e+00
</event>
<event>
 5      6 +1.7896800e-02 9.11880000e+01 7.81616400e-03 1.18400000e-01
      -11 -1    0    0    0    0 +0.0000000000e+00 +0.0000000000e+00 +4.5593999997e+01 4.5594000000e+01 5.1100000000e-04 0.0000e+00 1.0000e+00
       11 -1    0    0    0    0 -0.0000000000e+00 -0.0000000000e+00 -4.5593999997e+01 4.5594000000e+01 5.1100000000e-04 0.0000e+00 -1.0000e+00
       23  2    1    2    0    0 +0.0000000000e+00 +0.0000000000e+00 +0.0000000000e+00 9.1188000000e+01 9.1188000000e+01 1.1137e-14 0.0000e+00
  9900012  1    3    3    0    0 -1.3276895980e+01 +2.8660172254e+01 -4.3633845793e+00 5.9301944028e+01 5.0000000000e+01 1.2237e-03 1.0000e+00
      -12  1    3    3    0    0 +1.3276895980e+01 -2.8660172254e+01 +4.3633845793e+00 3.1886055972e+01 0.0000000000e+00 0.0000e+00 1.0000e+00
</event>
<event>
 5      8 +1.7896800e-02 9.11880000e+01 7.81616400e-03 1.18400000e-01
      -11 -1    0    0    0    0 +0.0000000000e+00 +0.0000000000e+00 +4.5593999997e+01 4.5594000000e+01 5.1100000000e-04 0.0000e+00 1.0000e+00
       11 -1    0    0    0    0 -0.0000000000e+00 -0.0000000000e+00 -4.5593999997e+01 4.5594000000e+01 5.1100000000e-04 0.0000e+00 -1.0000e+00
       23  2    1    2    0    0 +0.0000000000e+00 +0.0000000000e+00 +0.0000000000e+00 9.1188000000e+01 9.1188000000e+01 5.1320e-14 0.0000e+00
  9900012  1    3    3    0    0 +4.1685409715e+00 -2.1990449622e+01 -2.2710437183e+01 5.9301944028e+01 5.0000000000e+01 2.3845e-03 -1.0000e+00
      -12  1    3    3    0    0 -4.1685409715e+00 +2.1990449622e+01 +2.2710437183e+01 3.1886055972e+01 0.0000000000e+00 0.0000e+00 1.0000e+00
</event>
<event>
 5      8 +1.7896800e-02 9.11880000e+01 7.81616400e-03 1.18400000e-01
      -11 -1    0    0    0    0 +0.0000000000e+00 +0.0000000000e+00 +4.5593999997e+01 4.5594000000e+01 5.1100000000e-04 0.0000e+00 1.0000e+00
       11 -1    0    0    0    0 -0.0000000000e+00 -0.0000000000e+00 -4.5593999997e+01 4.5594000000e+01 5.1100000000e-04 0.0000e+00 -1.0000e+00
       23  2    1    2    0    0 +0.0000000000e+00 +0.0000000000e+00 +0.0000000000e+00 9.1188000000e+01 9.1188000000e+01 4.4000e-14 0.0000e+00
  9900012  1    3    3    0    0 -1.2607977535e+01 +1.7032016558e+01 -2.3825823803e+01 5.9301944028e+01 5.0000000000e+01 3.9894e-03 -1.0000e+00
      -12  1    3    3    0    0 +1.2607977535e+01 -1.7032016558e+01 +2.3825823803e+01 3.1886055972e+01 0.0000000000e+00 0.0000e+00 1.0000e+00
</event>
<event>
 5      3 +1.7896800e-02 9.11880000e+01 7.81616400e-03 1.18400000e-01
      -11 -1    0    0    0    0 +0.0000000000e+00 +0.0000000000e+00 +4.5593999997e+01 4.5594000000e+01 5.1100000000e-04 0.0000e+00 1.0000e+00
       11 -1    0    0    0    0 -0.0000000000e+00 -0.0000000000e+00 -4.5593999997e+01 4.5594000000e+01 5.1100000000e-04 0.0000e+00 -1.0000e+00
       23  2    1    2    0    0 +0.0000000000e+00 +0.0000000000e+00 +0.0000000000e+00 9.1188000000e+01 9.1188000000e+01 2.5419e-14 0.0000e+00
  9900012  1    3    3    0    0 +5.1765595886e+00 -2.7328132535e+01 -1.5591567223e+01 5.9301944028e+01 5.0000000000e+01 1.9252e-03 -1.0000e+00
       12  1    3    3    0    0 -5.1765595886e+00 +2.7328132535e+01 +1.5591567223e+01 3.1886055972e+01 0.0000000000e+00 0.0000e+00 -1.0000e+00
</event>
<event>
 5      4 +1.7896800e-02 9.11880000e+01 7.81616400e-03 1.18400000e-01
      -11 -1    0    0    0    0 +0.0000000000e+00 +0.0000000000e+00 +4.5593999997e+01 4.5594000000e+01 5.1100000000e-04 0.0000e+00 1.0000e+00
       11 -1    0    0    0    0 -0.0000000000e+00 -0.0000000000e+00 -4.5593999997e+01 4.5594000000e+01 5.1100000000e-04 0.0000e+00 -1.0000e+00
       23  2    1    2    0    0 +0.0000000000e+00 +0.0000000000e+00 +0.0000000000e+00 9.1188000000e+01 9.1188000000e+01 1.0324e-13 0.0000e+00
  9900012  1    3    3    0    0 +3.0349340831e+01 +4.7424793404e-01 -9.7679662923e+00 5.9301944028e+01 5.0000000000e+01 1.0492e-03 -1.0000e+00
      -12  1    3    3    0    0 -3.0349340831e+01 -4.7424793404e-01 +9.7679662923e+00 3.1886055972e+01 0.0000000000e+00 0.0000e+00 1.0000e+00
</event>
<event>
 5      4 +1.7896800e-02 9.11880000e+01 7.81616400e-03 1.18400000e-01
      -11 -1    0    0    0    0 +0.0000000000e+00 +0.0000000000e+00 +4.5593999997e+01 4.5594000000e+01 5.1100000000e-04 0.0000e+00 -1.0000e+00
       11 -1    0    0    0    0 -0.0000000000e+00 -0.0000000000e+00 -4.5593999997e+01 4.5594000000e+01 5.1100000000e-04 0.0000e+00 1.0000e+00
       23  2    1    2    0    0 +0.0000000000e+00 +0.0000000000e+00 +0.0000000000e+00 9.1188000000e+01 9.1188000000e+01 8.8373e-14 0.0000e+00
  9900012  1    3    3    0    0 +1.8358440873e+01 -7.9108709636e+00 +2.4841625043e+01 5.9301944028e+01 5.0000000000e+01 3.0184e-04 -1.0000e+00
      -12  1    3    3    0    0 -1.8358440873e+01 +7.9108709636e+00 -2.4841625043e+01 3.1886055972e+01 0.0000000000e+00 0.0000e+00 1.0000e+00
</event>
<event>
 5      1 +1.7896800e-02 9.11880000e+01 7.81616400e-03 1.18400000e-01
      -11 -1    0    0    0    0 +0.0000000000e+00 +0.0000000000e+00 +4.5593999997e+01 4.5594000000e+01 5.1100000000e-04 0.0000e+00 1.0000e+00
       11 -1    0    0    0    0 -0.0000000000e+00 -0.0000000000e+00 -4.5593999997e+01 4.5594000000e+01 5.1100000000e-04 0.0000e+00 -1.0000e+00
       23  2    1    2    0    0 +0.0000000000e+00 +0.0000000000e+00 +0.0000000000e+00 9.1188000000e+01 9.1188000000e+01 3.9841e-14 0.0000e+00
  9900012  1    3    3    0    0 -1.2653533233e+01 +2.0382751858e+01 +2.1003620851e+01 5.9301944028e+01 5.0000000000e+01 2.0892e-03 -1.0000e+00
       12  1    3    3    0    0 +1.2653533233e+01 -2.0382751858e+01 -2.1003620851e+01 3.1886055972e+01 0.0000000000e+00 0.0000e+00 -1.0000e+00
</event>
<event>
 5      8 +1.7896800e-02 9.11880000e+01 7.81616400e-03 1.18400000e-01
      -11 -1    0    0    0    0 +0.0000000000e+00 +0.0000000000e+00 +4.5593999997e+01 4.5594000000e+01 5.1100000000e-04 0.0000e+00 -1.0000e+00
       11 -1    0    0    0    0 -0.0000000000e+00 -0.0000000000e+00 -4.5593999997e+01 4.5594000000e+01 5.1100000000e-04 0.0000e+00 1.0000e+00
       23  2    1    2    0    0 +0.0000000000e+00 +0.0000000000e+00 +0.0000000000e+00 9.1188000000e+01 9.1188000000e+01 8.1833e-14 0.0000e+00
  9900012  1    3    3    0    0 -1.9844569590e+01 -2.9882710697e+00 +2.4778697691e+01 5.9301944028e+01 5.0000000000e+01 1.6414e-05 -1.0000e+00
      -12  1    3    3    0    0 +1.9844569590e+01 +2.9882710697e+00 -2.4778697691e+01 3.1886055972e+01 0.0000000000e+00 0.0000e+00 1.0000e+00
</event>
<event>
 5      1 +1.7896800e-02 9.11880000e+01 7.81616400e-03 1.18400000e-01
      -11 -1    0    0    0    0 +0.0000000000e+00 +0.0000000000e+00 +4.5593999997e+01 4.5594000000e+01 5.1100000000e-04 0.0000e+00 1.0000e+00
       11 -1    0    0    0    0 -0.0000000000e+00 -0.0000000000e+00 -4.5593999997e+01 4.5594000000e+01 5.1100000000e-04 0.0000e+00 -1.0000e+00
       23  2    1    2    0    0 +0.0000000000e+00 +0.0000000000e+00 +0.0000000000e+00 9.1188000000e+01 9.1188000000e+01 1.0455e-13 0.0000e+00
  9900012  1    3    3    0    0 +3.0825666324e+01 -6.5858969358e+00 +4.8088275799e+00 5.9301944028e+01 5.0000000000e+01 2.3727e-04 1.0000e+00
       12  1    3    3    0    0 -3.0825666324e+01 +6.5858969358e+00 -4.8088275799e+00 3.1886055972e+01 0.0000000000e+00 0.0000e+00 -1.0000e+00
</event>
<event>
 5      4 +1.7896800e-02 9.11880000e+01 7.81616400e-03 1.18400000e-01
      -11 -1    0    0    0    0 +0.0000000000e+00 +0.0000000000e+00 +4.5593999997e+01 4.5594000000e+01 5.1100000000e-04 0.0000e+00 1.0000e+00
       11 -1    0    0    0    0 -0.0000000000e+00 -0.0000000000e+00 -4.5593999997e+01 4.5594000000e+01 5.1100000000e-04 0.0000e+00 -1.0000e+00
       23  2    1    2    0    0 +0.0000000000e+00 +0.0000000000e+00 +0.0000000000e+00 9.1188000000e+01 9.1188000000e+01 4.4741e-13 0.0000e+00
  9900012  1    3    3    0    0 -2.6568899083e+01 -1.3274073130e+01 -1.1602290703e+01 5.9301944028e+01 5.0000000000e+01 8.7262e-04 -1.0000e+00
      -12  1    3    3    0    0 +2.6568899083e+01 +1.3274073130e+01 +1.1602290703e+01 3.1886055972e+01 0.0000000000e+00 0.0000e+00 1.0000e+00
</event>
<event>
 5      2 +1.7896800e-02 9.11880000e+01 7.81616400e-03 1.18400000e-01
      -11 -1    0    0    0    0 +0.0000000000e+00 +0.0000000000e+00 +4.5593999997e+01 4.5594000000e+01 5.1100000000e-04 0.0000e+00 1.0000e+00
       11 -1    0    0    0    0 -0.0000000000e+00 -0.0000000000e+00 -4.5593999997e+01 4.5594000000e+01 5.1100000000e-04 0.0000e+00 -1.0000e+00
       23  2    1    2    0    0 +0.0000000000e+00 +0.0000000000e+00 +0.0000000000e+00 9.1188000000e+01 9.1188000000e+01 8.5663e-15 0.0000e+00
  9900012  1    3    3    0    0 -1.6834430807e+01 -3.3871309922e+00 -2.6867263510e+01 5.9301944028e+01 5.0000000000e+01 1.6087e-03 -1.0000e+00
      -12  1    3    3    0    0 +1.6834430807e+01 +3.3871309922e+00 +2.6867263510e+01 3.1886055972e+01 0.0000000000e+00 0.0000e+00 1.0000e+00
</event>
<event>
 5      3 +1.7896800e-02 9.11880000e+01 7.81616400e-03 1.18400000e-01
      -11 -1    0    0    0    0 +0.0000000000e+00 +0.0000000000e+00 +4.5593999997e+01 4.5594000000e+01 5.1100000000e-04 0.0000e+00 -1.0000e+00
       11 -1    0    0    0    0 -0.0000000000e+00 -0.0000000000e+00 -4.5593999997e+01 4.5594000000e+01 5.1100000000e-04 0.0000e+00 1.0000e+00
       23  2    1    2    0    0 +0.0000000000e+00 +0.0000000000e+00 +0.0000000000e+00 9.1188000000e+01 9.1188000000e+01 1.7736e-14 0.0000e+00
  9900012  1    3    3    0    0 -4.1643627815e-01 -6.5512234721e+00 -3.1203022567e+01 5.9301944028e+01 5.0000000000e+01 8.6270e-04 1.0000e+00
       12  1    3    3    0    0 +4.1643627815e-01 +6.5512234721e+00 +3.1203022567e+01 3.1886055972e+01 0.0000000000e+00 0.0000e+00 -1.0000e+00
</event>
<event>
 5      4 +1.7896800e-02 9.11880000e+01 7.81616400e-03 1.18400000e-01
      -11 -1    0    0    0    0 +0.0000000000e+00 +0.0000000000e+00 +4.5593999997e+01 4.5594000000e+01 5.1100000000e-04 0.0000e+00 -1.0000e+00
       11 -1    0    0    0    0 -0.0000000000e+00 -0.0000000000e+00 -4.5593999997e+01 4.5594000000e+01 5.1100000000e-04 0.0000e+00 1.0000e+00
       23  2    1    2    0    0 +0.0000000000e+00 +0.0000000000e+00 +0.0000000000e+00 9.1188000000e+01 9.1188000000e+01 5.1784e-14 0.0000e+00
  9900012  1    3    3    0    0 -3.6788274408e+00 +3.1648270478e+01 -1.2544998529e+00 5.9301944028e+01 5.0000000000e+01 1.8975e-03 -1.0000e+00
      -12  1    3    3    0    0 +3.6788274408e+00 -3.1648270478e+01 +1.2544998529e+00 3.1886055972e+01 0.0000000000e+00 0.0000e+00 1.0000e+00
</event>
<event>
 5      7 +1.7896800e-02 9.11880000e+01 7.81616400e-03 1.18400000e-01
      -11 -1    0    0    0    0 +0.0000000000e+00 +0.0000000000e+00 +4.5593999997e+01 4.5594000000e+01 5.1100000000e-04 0.0000e+00 -1.0000e+00
       11 -1    0    0    0    0 -0.0000000000e+00 -0.0000000000e+00 -4.5593999997e+01 4.5594000000e+01 5.1100000000e-04 0.0000e+00 1.0000e+00
       23  2    1    2    0    0 +0.0000000000e+00 +0.0000000000e+00 +0.0000000000e+00 9.1188000000e+01 9.1188000000e+01 1.3381e-14 0.0000e+00
  9900012  1    3    3    0    0 -7.0716138980e+00 -1.9297828082e+01 -2.4378405889e+01 5.9301944028e+01 5.0000000000e+01 1.3642e-03 1.0000e+00
       12  1    3    3    0    0 +7.0716138980e+00 +1.9297828082e+01 +2.4378405889e+01 3.1886055972e+01 0.0000000000e+00 0.0000e+00 -1.0000e+00
</event>
<event>
 5      1 +1.7896800e-02 9.11880000e+01 7.81616400e-03 1.18400000e-01
      -11 -1    0    0    0    0 +0.0000000000e+00 +0.0000000000e+00 +4.5593999997e+01 4.5594000000e+01 5.1100000000e-04 0.0000e+00 1.0000e+00
       11 -1    0    0    0    0 -0.0000000000e+00 -0.0000000000e+00 -4.5593999997e+01 4.5594000000e+01 5.1100000000e-04 0.0000e+00 -1.0000e+00
       23  2    1    2    0    0 +0.0000000000e+00 +0.0000000000e+00 +0.0000000000e+00 9.1188000000e+01 9.1188000000e+01 3.4928e-14 0.0000e+00
  9900012  1    3    3    0    0 -2.4403431932e+01 -2.0379840535e+01 +2.4197469237e+00 5.9301944028e+01 5.0000000000e+01 1.7821e-03 -1.0000e+00
       12  1    3    3    0    0 +2.4403431932e+01 +2.0379840535e+01 -2.4197469237e+00 3.1886055972e+01 0.0000000000e+00 0.0000e+00 -1.0000e+00
</event>
<event>
 5      1 +1.7896800e-02 9.11880000e+01 7.81616400e-03 1.18400000e-01
      -11 -1    0    0    0    0 +0.0000000000e+00 +0.0000000000e+00 +4.5593999997e+01 4.5594000000e+01 5.1100000000e-04 0.0000e+00 -1.0000e+00
       11 -1    0    0    0    0 -0.0000000000e+00 -0.0000000000e+00 -4.5593999997e+01 4.5594000000e+01 5.1100000000e-04 0.0000e+00 1.0000e+00
       23  2    1    2    0    0 +0.0000000000e+00 +0.0000000000e+00 +0.0000000000e+00 9.1188000000e+01 9.1188000000e+01 5.6162e-15 0.0000e+00
  9900012  1    3    3    0    0 +1.2952662182e+01 +2.9029339531e+01 -2.4993107599e+00 5.9301944028e+01 5.0000000000e+01 4.5266e-04 1.0000e+00
       12  1    3    3    0    0 -1.2952662182e+01 -2.9029339531e+01 +2.4993107599e+00 3.1886055972e+01 0.0000000000e+00 0.0000e+00 -1.0000e+00
</event>
<event>
 5      8 +1.7896800e-02 9.11880000e+01 7.81616400e-03 1.18400000e-01
      -11 -1    0    0    0    0 +0.0000000000e+00 +0.0000000000e+00 +4.5593999997e+01 4.5594000000e+01 5.1100000000e-04 0.0000e+00 1.0000e+00
       11 -1    0    0    0    0 -0.0000000000e+00 -0.0000000000e+00 -4.5593999997e+01 4.5594000000e+01 5.1100000000e-04 0.0000e+00 -1.0000e+00
       23  2    1    2    0    0 +0.0000000000e+00 +0.0000000000e+00 +0.0000000000e+00 9.1188000000e+01 9.1188000000e+01 3.3173e-13 0.0000e+00
  9900012  1    3    3    0    0 +2.3175630746e+01 +2.0223637595e+01 +8.4032843229e+00 5.9301944028e+01 5.0000000000e+01 3.4926e-03 1.0000e+00
      -12  1    3    3    0    0 -2.3175630746e+01 -2.0223637595e+01 -8.4032843229e+00 3.1886055972e+01 0.0000000000e+00 0.0000e+00 1.0000e+00
</event>
<event>
 5      2 +1.7896800e-02 9.11880000e+01 7.81616400e-03 1.18400000e-01
      -11 -1    0    0    0    0 +0.0000000000e+00 +0.0000000000e+00 +4.5593999997e+01 4.5594000000e+01 5.1100000000e-04 0.0000e+00 -1.0000e+00
       11 -1    0    0    0    0 -0.0000000000e+00 -0.0000000000e+00 -4.5593999997e+01 4.5594000000e+01 5.1100000000e-04 0.0000e+00 1.0000e+00
       23  2    1    2    0    0 +0.0000000000e+00 +0.0000000000e+00 +0.0000000000e+00 9.1188000000e+01 9.1188000000e+01 2.2378e-14 0.0000e+00
  9900012  1    3    3    0    0 -1.6195767163e+01 -2.0012634686e+01 +1.8812552841e+01 5.9301944028e+01 5.0000000000e+01 2.2513e-03 -1.0000e+00
      -12  1    3    3    0    0 +1.6195767163e+01 +2.0012634686e+01 -1.8812552841e+01 3.1886055972e+01 0.0000000000e+00 0.0000e+00 1.0000e+00
</event>
<event>
 5      6 +1.7896800e-02 9.11880000e+01 7.81616400e-03 1.18400000e-01
      -11 -1    0    0    0    0 +0.0000000000e+00 +0.0000000000e+00 +4.5593999997e+01 4.5594000000e+01 5.1100000000e-04 0.0000e+00 -1.0000e+00
       11 -1    0    0    0    0 -0.0000000000e+00 -0.0000000000e+00 -4.5593999997e+01 4.5594000000e+01 5.1100000000e-04 0.0000e+00 1.0000e+00
       23  2    1    2    0    0 +0.0000000000e+00 +0.0000000000e+00 +0.0000000000e+00 9.1188000000e+01 9.1188000000e+01 1.2986e-13 0.0000e+00
  9900012  1    3    3    0    0 -2.8055833315e+01 -5.6805126052e+00 +1.4047154837e+01 5.9301944028e+01 5.0000000000e+01 1.6647e-04 -1.0000e+00
      -12  1    3    3    0    0 +2.8055833315e+01 +5.6805126052e+00 -1.4047154837e+01 3.1886055972e+01 0.0000000000e+00 0.0000e+00 1.0000e+00
</event>
<event>
 5      3 +1.7896800e-02 9.11880000e+01 7.81616400e-03 1.18400000e-01
      -11 -1    0    0    0    0 +0.0000000000e+00 +0.0000000000e+00 +4.5593999997e+01 4.5594000000e+01 5.1100000000e-04 0.0000e+00 -1.0000e+00
       11 -1    0    0    0    0 -0.0000000000e+00 -0.0000000000e+00 -4.5593999997e+01 4.5594000000e+01 5.1100000000e-04 0.0000e+00 1.0000e+00
       23  2    1    2    0    0 +0.0000000000e+00 +0.0000000000e+00 +0.0000000000e+00 9.1188000000e+01 9.1188000000e+01 1.2808e-13 0.0000e+00
  9900012  1    3    3    0    0 -2.1324661473e+01 +1.7101271899e+01 -1.6417243311e+01 5.9301944028e+01 5.0000000000e+01 1.8652e-04 -1.0000e+00
       12  1    3    3    0    0 +2.1324661473e+01 -1.7101271899e+01 +1.6417243311e+01 3.1886055972e+01 0.0000000000e+00 0.0000e+00 -1.0000e+00
</event>
<event>
 5      8 +1.7896800e-02 9.11880000e+01 7.81616400e-03 1.18400000e-01
      -11 -1    0    0    0    0 +0.0000000000e+00 +0.0000000000e+00 +4.5593999997e+01 4.5594000000e+01 5.1100000000e-04 0.0000e+00 1.0000e+00
       11 -1    0    0    0    0 -0.0000000000e+00 -0.0000000000e+00 -4.5593999997e+01 4.5594000000e+01 5.1100000000e-04 0.0000e+00 -1.0000e+00
       23  2    1    2    0    0 +0.0000000000e+00 +0.0000000000e+00 +0.0000000000e+00 9.1188000000e+01 9.1188000000e+01 1.2077e-14 0.0000e+00
  9900012  1    3    3    0    0 +7.6547127826e-01 -3.1860412771e+01 -1.0240689691e+00 5.9301944028e+01 5.0000000000e+01 2.3726e-04 1.0000e+00
      -12  1    3    3    0    0 -7.6547127826e-01 +3.1860412771e+01 +1.0240689691e+00 3.1886055972e+01 0.0000000000e+00 0.0000e+00 1.0000e+00
</event>
<event>
 5      1 +1.7896800e-02 9.11880000e+01 7.81616400e-03 1.18400000e-01
      -11 -1    0    0    0    0 +0.0000000000e+00 +0.0000000000e+00 +4.5593999997e+01 4.5594000000e+01 5.1100000000e-04 0.0000e+00 1.0000e+00
       11 -1    0    0    0    0 -0.0000000000e+00 -0.0000000000e+00 -4.5593999997e+01 4.5594000000e+01 5.1100000000e-04 0.0000e+00 -1.0000e+00
       23  2    1    2    0    0 +0.0000000000e+00 +0.0000000000e+00 +0.0000000000e+00 9.1188000000e+01 9.1188000000e+01 4.7609e-14 0.0000e+00
  9900012  1    3    3    0    0 -2.8159892499e+01 -4.6110085903e+00 +1.4229533361e+01 5.9301944028e+01 5.0000000000e+01 1.0805e-05 1.0000e+00
       12  1    3    3    0    0 +2.8159892499e+01 +4.6110085903e+00 -1.4229533361e+01 3.1886055972e+01 0.0000000000e+00 0.0000e+00 -1.0000e+00
</event>
<event>
 5      2 +1.7896800e-02 9.11880000e+01 7.81616400e-03 1.18400000e-01
      -11 -1    0    0    0    0 +0.0000000000e+00 +0.0000000000e+00 +4.5593999997e+01 4.5594000000e+01 5.1100000000e-04 0.0000e+00 1.0000e+00
       11 -1    0    0    0    0 -0.0000000000e+00 -0.0000000000e+00 -4.5593999997e+01 4.5594000000e+01 5.1100000000e-04 0.0000e+00 -1.0000e+00
       23  2    1    2    0    0 +0.0000000000e+00 +0.0000000000e+00 +0.0000000000e+00 9.1188000000e+01 9.1188000000e+01 3.2741e-15 0.0000e+00
  9900012  1    3    3    0    0 -1.0438493542e+01 -8.0477952649e+00 -2.9034314344e+01 5.9301944028e+01 5.0000000000e+01 2.5866e-03 -1.0000e+00
      -12  1    3    3    0    0 +1.0438493542e+01 +8.0477952649e+00 +2.9034314344e+01 3.1886055972e+01 0.0000000000e+00 0.0000e+00 1.0000e+00
</event>
<event>
 5      1 +1.7896800e-02 9.11880000e+01 7.81616400e-03 1.18400000e-01
      -11 -1    0    0    0    0 +0.0000000000e+00 +0.0000000000e+00 +4.5593999997e+01 4.5594000000e+01 5.1100000000e-04 0.0000e+00 1.0000e+00
       11 -1    0    0    0    0 -0.0000000000e+00 -0.0000000000e+00 -4.5593999997e+01 4.5594000000e+01 5.1100000000e-04 0.0000e+00 -1.0000e+00
       23  2    1    2    0    0 +0.0000000000e+00 +0.0000000000e+00 +0.0000000000e+00 9.1188000000e+01 9.1188000000e+01 3.6195e-14 0.0000e+00
  9900012  1    3    3    0    0 -7.8633416161e+00 -1.6786415218e+01 +2.5944261181e+01 5.9301944028e+01 5.0000000000e+01 4.0174e-04 1.0000e+00
       12  1    3    3    0    0 +7.8633416161e+00 +1.6786415218e+01 -2.5944261181e+01 3.1886055972e+01 0.0000000000e+00 0.0000e+00 -1.0000e+00
</event>
<event>
 5      2 +1.7896800e-02 9.11880000e+01 7.81616400e-03 1.18400000e-01
      -11 -1    0    0    0    0 +0.0000000000e+00 +0.0000000000e+00 +4.5593999997e+01 4.5594000000e+01 5.1100000000e-04 0.0000e+00 1.0000e+00
       11 -1    0    0    0    0 -0.0000000000e+00 -0.0000000000e+00 -4.5593999997e+01 4.5594000000e+01 5.1100000000e-04 0.0000e+00 -1.0000e+00
       23  2    1    2    0    0 +0.0000000000e+00 +0.0000000000e+00 +0.0000000000e+00 9.1188000000e+01 9.1188000000e+01 2.4790e-14 0.0000e+00
  9900012  1    3    3    0    0 +5.6886442279e+00 +1.4822194639e+01 -2.7652530416e+01 5.9301944028e+01 5.0000000000e+01 4.4687e-04 -1.0000e+00
      -12  1    3    3    0    0 -5.6886442279e+00 -1.4822194639e+01 +2.7652530416e+01 3.1886055972e+01 0.0000000000e+00 0.0000e+00 1.0000e+00
</event>
<event>
 5      5 +1.7896800e-02 9.11880000e+01 7.81616400e-03 1.18400000e-01
      -11 -1    0    0    0    0 +0.0000000000e+00 +0.0000000000e+00 +4.5593999997e+01 4.5594000000e+01 5.1100000000e-04 0.0000e+00 1.0000e+00
       11 -1    0    0    0    0 -0.0000000000e+00 -0.0000000000e+00 -4.5593999997e+01 4.5594000000e+01 5.1100000000e-04 0.0000e+00 -1.0000e+00
       23  2    1    2    0    0 +0.0000000000e+00 +0.0000000000e+00 +0.0000000000e+00 9.1188000000e+01 9.1188000000e+01 1.4908e-13 0.0000e+00
  9900012  1    3    3    0    0 +2.4830351082e+01 -1.4697059045e+01 +1.3570950079e+01 5.9301944028e+01 5.0000000000e+01 2.4267e-04 1.0000e+00
       12  1    3    3    0    0 -2.4830351082e+01 +1.4697059045e+01 -1.3570950079e+01 3.1886055972e+01 0.0000000000e+00 0.0000e+00 -1.0000e+00
</event>
<event>
 5      6 +1.7896800e-02 9.11880000e+01 7.81616400e-03 1.18400000e-01
      -11 -1    0    0    0    0 +0.0000000000e+00 +0.0000000000e+00 +4.5593999997e+01 4.5594000000e+01 5.1100000000e-04 0.0000e+00 1.0000e+00
       11 -1    0    0    0    0 -0.0000000000e+00 -0.0000000000e+00 -4.5593999997e+01 4.5594000000e+01 5.1100000000e-04 0.0000e+00 -1.0000e+00
       23  2    1    2    0    0 +0.0000000000e+00 +0.0000000000e+00 +0.0000000000e+00 9.1188000000e+01 9.1188000000e+01 2.3426e-14 0.0000e+00
  9900012  1    3    3    0    0 -1.2373220453e+01 +9.6429342038e+00 -2.7760363849e+01 5.9301944028e+01 5.0000000000e+01 1.3822e-04 -1.0000e+00
      -12  1    3    3    0    0 +1.2373220453e+01 -9.6429342038e+00 +2.7760363849e+01 3.1886055972e+01 0.0000000000e+00 0.0000e+00 1.0000e+00
</event>
<event>
 5      8 +1.7896800e-02 9.11880000e+01 7.81616400e-03 1.18400000e-01
      -11 -1    0    0    0    0 +0.0000000000e+00 +0.0000000000e+00 +4.5593999997e+01 4.5594000000e+01 5.1100000000e-04 0.0000e+00 1.0000e+00
       11 -1    0    0    0    0 -0.0000000000e+00 -0.0000000000e+00 -4.5593999997e+01 4.5594000000e+01 5.1100000000e-04 0.0000e+00 -1.0000e+00
       23  2    1    2    0    0 +0.0000000000e+00 +0.0000000000e+00 +0.0000000000e+00 9.1188000000e+01 9.1188000000e+01 1.4102e-13 0.0000e+00
  9900012  1    3    3    0    0 +4.4423392848e+00 +1.3917204935e+01 -2.8342505076e+01 5.9301944028e+01 5.0000000000e+01 2.4993e-03 -1.0000e+00
      -12  1    3    3    0    0 -4.4423392848e+00 -1.3917204935e+01 +2.8342505076e+01 3.1886055972e+01 0.0000000000e+00 0.0000e+00 1.0000e+00
</event>
<event>
 5      1 +1.7896800e-02 9.11880000e+01 7.81616400e-03 1.18400000e-01
      -11 -1    0    0    0    0 +0.0000000000e+00 +0.0000000000e+00 +4.5593999997e+01 4.5594000000e+01 5.1100000000e-04 0.0000e+00 -1.0000e+00
       11 -1    0    0    0    0 -0.0000000000e+00 -0.0000000000e+00 -4.5593999997e+01 4.5594000000e+01 5.1100000000e-04 0.0000e+00 1.0000e+00
       23  2    1    2    0    0 +0.0000000000e+00 +0.0000000000e+00 +0.0000000000e+00 9.1188000000e+01 9.1188000000e+01 7.3991e-14 0.0000e+00
  9900012  1    3    3    0    0 +2.2955422949e+01 +9.3872992945e+00 -2.0041151031e+01 5.9301944028e+01 5.0000000000e+01 1.5264e-05 1.0000e+00
       12  1    3    3    0    0 -2.2955422949e+01 -9.3872992945e+00 +2.0041151031e+01 3.1886055972e+01 0.0000000000e+00 0.0000e+00 -1.0000e+00
</event>
<event>
 5      6 +1.7896800e-02 9.11880000e+01 7.81616400e-03 1.18400000e-01
      -11 -1    0    0    0    0 +0.0000000000e+00 +0.0000000000e+00 +4.5593999997e+01 4.5594000000e+01 5.1100000000e-04 0.0000e+00 1.0000e+00
       11 -1    0    0    0    0 -0.0000000000e+00 -0.0000000000e+00 -4.5593999997e+01 4.5594000000e+01 5.1100000000e-04 0.0000e+00 -1.0000e+00
       23  2    1    2    0    0 +0.0000000000e+00 +0.0000000000e+00 +0.0000000000e+00 9.1188000000e+01 9.1188000000e+01 1.9561e-14 0.0000e+00
  9900012  1    3    3    0    0 +1.1147803844e+01 -1.2552825769e+01 -2.7108552159e+01 5.9301944028e+01 5.0000000000e+01 4.7286e-04 -1.0000e+00
      -12  1    3    3    0    0 -1.1147803844e+01 +1.2552825769e+01 +2.7108552159e+01 3.1886055972e+01 0.0000000000e+00 0.0000e+00 1.0000e+00
</event>
<event>
 5      7 +1.7896800e-02 9.11880000e+01 7.81616400e-03 1.18400000e-01
      -11 -1    0    0    0    0 +0.0000000000e+00 +0.0000000000e+00 +4.5593999997e+01 4.5594000000e+01 5.1100000000e-04 0.0000e+00 -1.0000e+00
       11 -1    0    0    0    0 -0.0000000000e+00 -0.0000000000e+00 -4.5593999997e+01 4.5594000000e+01 5.1100000000e-04 0.0000e+00 1.0000e+00
       23  2    1    2    0    0 +0.0000000000e+00 +0.0000000000e+00 +0.0000000000e+00 9.1188000000e+01 9.1188000000e+01 3.4846e-14 0.0000e+00
  9900012  1    3    3    0    0 +1.2648749317e+01 -2.7975814054e+01 -8.6071792236e+00 5.9301944028e+01 5.0000000000e+01 1.7896e-03 1.0000e+00
       12  1    3    3    0    0 -1.2648749317e+01 +2.7975814054e+01 +8.6071792236e+00 3.1886055972e+01 0.0000000000e+00 0.0000e+00 -1.0000e+00
</event>
<event>
 5      7 +1.7896800e-02 9.11880000e+01 7.81616400e-03 1.18400000e-01
      -11 -1    0    0    0    0 +0.0000000000e+00 +0.0000000000e+00 +4.5593999997e+01 4.5594000000e+01 5.1100000000e-04 0.0000e+00 1.0000e+00
       11 -1    0    0    0    0 -0.0000000000e+00 -0.0000000000e+00 -4.5593999997e+01 4.5594000000e+01 5.1100000000e-04 0.0000e+00 -1.0000e+00
       23  2    1    2    0    0 +0.0000000000e+00 +0.0000000000e+00 +0.0000000000e+00 9.1188000000e+01 9.1188000000e+01 6.8166e-14 0.0000e+00
  9900012  1    3    3    0    0 -2.1927750871e+01 -8.4902928899e+00 +2.1536230725e+01 5.9301944028e+01 5.0000000000e+01 5.3217e-04 1.0000e+00
       12  1    3    3    0    0 +2.1927750871e+01 +8.4902928899e+00 -2.1536230725e+01 3.1886055972e+01 0.0000000000e+00 0.0000e+00 -1.0000e+00
</event>
<event>
 5      2 +1.7896800e-02 9.11880000e+01 7.81616400e-03 1.18400000e-01
      -11 -1    0    0    0    0 +0.0000000000e+00 +0.0000000000e+00 +4.5593999997e+01 4.5594000000e+01 5.1100000000e-04 0.0000e+00 -1.0000e+00
       11 -1    0    0    0    0 -0.0000000000e+00 -0.0000000000e+00 -4.5593999997e+01 4.5594000000e+01 5.1100000000e-04 0.0000e+00 1.0000e+00
       23  2    1    2    0    0 +0.0000000000e+00 +0.0000000000e+00 +0.0000000000e+00 9.1188000000e+01 9.1188000000e+01 7.3079e-14 0.0000e+00
  9900012  1    3    3    0    0 -1.2256613403e+01 -3.7060958878e+00 +2.9202069218e+01 5.9301944028e+01 5.0000000000e+01 1.4378e-03 -1.0000e+00
      -12  1    3    3    0    0 +1.2256613403e+01 +3.7060958878e+00 -2.9202069218e+01 3.1886055972e+01 0.0000000000e+00 0.0000e+00 1.0000e+00
</event>
<event>
 5      8 +1.7896800e-02 9.11880000e+01 7.81616400e-03 1.18400000e-01
      -11 -1    0    0    0    0 +0.0000000000e+00 +0.0000000000e+00 +4.5593999997e+01 4.5594000000e+01 5.1100000000e-04 0.0000e+00 -1.0000e+00
       11 -1    0    0    0    0 -0.0000000000e+00 -0.0000000000e+00 -4.5593999997e+01 4.5594000000e+01 5.1100000000e-04 0.0000e+00 1.0000e+00
       23  2    1    2    0    0 +0.0000000000e+00 +0.0000000000e+00 +0.0000000000e+00 9.1188000000e+01 9.1188000000e+01 4.7097e-13 0.0000e+00
  9900012  1    3    3    0    0 -4.5515552553e+00 +1.4989525324e+01 +2.7772613143e+01 5.9301944028e+01 5.0000000000e+01 1.5313e-03 -1.0000e+00
      -12  1    3    3    0    0 +4.5515552553e+00 -1.4989525324e+01 -2.7772613143e+01 3.1886055972e+01 0.0000000000e+00 0.0000e+00 1.0000e+00
</event>
<event>
 5      8 +1.7896800e-02 9.11880000e+01 7.81616400e-03 1.18400000e-01
      -11 -1    0    0    0    0 +0.0000000000e+00 +0.0000000000e+00 +4.5593999997e+01 4.5594000000e+01 5.1100000000e-04 0.0000e+00 1.0000e+00
       11 -1    0    0    0    0 -0.0000000000e+00 -0.0000000000e+00 -4.5593999997e+01 4.5594000000e+01 5.1100000000e-04 0.0000e+00 -1.0000e+00
       23  2    1    2    0    0 +0.0000000000e+00 +0.0000000000e+00 +0.0000000000e+00 9.1188000000e+01 9.1188000000e+01 7.3320e-14 0.0000e+00
  9900012  1    3    3    0    0 -2.6263009837e+01 +1.1267723510e+01 -1.4142605370e+01 5.9301944028e+01 5.0000000000e+01 2.1409e-03 -1.0000e+00
      -12  1    3    3    0    0 +2.6263009837e+01 -1.1267723510e+01 +1.4142605370e+01 3.1886055972e+01 0.0000000000e+00 0.0000e+00 1.0000e+00
</event>
<event>
 5      8 +1.7896800e-02 9.11880000e+01 7.81616400e-03 1.18400000e-01
      -11 -1    0    0    0    0 +0.0000000000e+00 +0.0000000000e+00 +4.5593999997e+01 4.5594000000e+01 5.1100000000e-04 0.0000e+00 -1.0000e+00
       11 -1    0    0    0    0 -0.0000000000e+00 -0.0000000000e+00 -4.5593999997e+01 4.5594000000e+01 5.1100000000e-04 0.0000e+00 1.0000e+00
       23  2    1    2    0    0 +0.0000000000e+00 +0.0000000000e+00 +0.0000000000e+00 9.1188000000e+01 9.1188000000e+01 8.0421e-14 0.0000e+00
  9900012  1    3    3    0    0 -2.3702234568e+01 +1.2753528394e+01 -1.7095968982e+01 5.9301944028e+01 5.0000000000e+01 9.3512e-04 -1.0000e+00
      -12  1    3    3    0    0 +2.3702234568e+01 -1.2753528394e+01 +1.7095968982e+01 3.1886055972e+01 0.0000000000e+00 0.0000e+00 1.0000e+00
</event>
<event>
 5      6 +1.7896800e-02 9.11880000e+01 7.81616400e-03 1.18400000e-01
      -11 -1    0    0    0    0 +0.0000000000e+00 +0.0000000000e+00 +4.5593999997e+01 4.5594000000e+01 5.1100000000e-04 0.0000e+00 -1.0000e+00
       11 -1    0    0    0    0 -0.0000000000e+00 -0.0000000000e+00 -4.5593999997e+01 4.5594000000e+01 5.1100000000e-04 0.0000e+00 1.0000e+00
       23  2    1    2    0    0 +0.0000000000e+00 +0.0000000000e+00 +0.0000000000e+00 9.1188000000e+01 9.1188000000e+01 2.8825e-14 0.0000e+00
  9900012  1    3    3    0    0 +2.9716613531e+01 -2.3917936736e+00 +1.1310294813e+01 5.9301944028e+01 5.0000000000e+01 2.9861e-03 -1.0000e+00
      -12  1    3    3    0    0 -2.9716613531e+01 +2.3917936736e+00 -1.1310294813e+01 3.1886055972e+01 0.0000000000e+00 0.0000e+00 1.0000e+00
</event>
<event>
 5      7 +1.7896800e-02 9.11880000e+01 7.81616400e-03 1.18400000e-01
      -11 -1    0    0    0    0 +0.0000000000e+00 +0.0000000000e+00 +4.5593999997e+01 4.5594000000e+01 5.1100000000e-04 0.0000e+00 1.0000e+00
       11 -1    0    0    0    0 -0.0000000000e+00 -0.0000000000e+00 -4.5593999997e+01 4.5594000000e+01 5.1100000000e-04 0.0000e+00 -1.0000e+00
       23  2    1    2    0    0 +0.0000000000e+00 +0.0000000000e+00 +0.0000000000e+00 9.1188000000e+01 9.1188000000e+01 1.2075e-13 0.0000e+00
  9900012  1    3    3    0    0 -2.3144954044e+01 -5.7747209858e+00 +2.1158550643e+01 5.9301944028e+01 5.0000000000e+01 5.2808e-04 1.0000e+00
       12  1    3    3    0    0 +2.3144954044e+01 +5.7747209858e+00 -2.1158550643e+01 3.1886055972e+01 0.0000000000e+00 0.0000e+00 -1.0000e+00
</event>
<event>
 5      6 +1.7896800e-02 9.11880000e+01 7.81616400e-03 1.18400000e-01
      -11 -1    0    0    0    0 +0.0000000000e+00 +0.0000000000e+00 +4.5593999997e+01 4.5594000000e+01 5.1100000000e-04 0.0000e+00 -1.0000e+00
       11 -1    0    0    0    0 -0.0000000000e+00 -0.0000000000e+00 -4.5593999997e+01 4.5594000000e+01 5.1100000000e-04 0.0000e+00 1.0000e+00
       23  2    1    2    0    0 +0.0000000000e+00 +0.0000000000e+00 +0.0000000000e+00 9.1188000000e+01 9.1188000000e+01 1.7659e-14 0.0000e+00
  9900012  1    3    3    0    0 +2.3592461803e+01 +2.1329817322e+01 -2.2705075517e+00 5.9301944028e+01 5.0000000000e+01 7.4968e-04 -1.0000e+00
      -12  1    3    3    0    0 -2.3592461803e+01 -2.1329817322e+01 +2.2705075517e+00 3.1886055972e+01 0.0000000000e+00 0.0000e+00 1.0000e+00
</event>
<event>
 5      4 +1.7896800e-02 9.11880000e+01 7.81616400e-03 1.18400000e-01
      -11 -1    0    0    0    0 +0.0000000000e+00 +0.0000000000e+00 +4.5593999997e+01 4.5594000000e+01 5.1100000000e-04 0.0000e+00 -1.0000e+00
       11 -1    0    0    0    0 -0.0000000000e+00 -0.0000000000e+00 -4.5593999997e+01 4.5594000000e+01 5.1100000000e-04 0.0000e+00 1.0000e+00
       23  2    1    2    0    0 +0.0000000000e+00 +0.0000000000e+00 +0.0000000000e+00 9.1188000000e+01 9.1188000000e+01 1.0377e-13 0.0000e+00
  9900012  1    3    3    0    0 -2.9410509600e+01 -2.7060090269e+00 +1.2017487495e+01 5.9301944028e+01 5.0000000000e+01 1.7097e-03 -1.0000e+00
      -12  1    3    3    0    0 +2.9410509600e+01 +2.7060090269e+00 -1.2017487495e+01 3.1886055972e+01 0.0000000000e+00 0.0000e+00 1.0000e+00
</event>
<event>
 5      6 +1.7896800e-02 9.11880000e+01 7.81616400e-03 1.18400000e-01
      -11 -1    0    0    0    0 +0.0000000000e+00 +0.0000000000e+00 +4.5593999997e+01 4.5594000000e+01 5.1100000000e-04 0.0000e+00 1.0000e+00
       11 -1    0    0    0    0 -0.0000000000e+00 -0.0000000000e+00 -4.5593999997e+01 4.5594000000e+01 5.1100000000e-04 0.0000e+00 -1.0000e+00
       23  2    1    2    0    0 +0.0000000000e+00 +0.0000000000e+00 +0.0000000000e+00 9.1188000000e+01 9.1188000000e+01 7.9633e-15 0.0000e+00
  9900012  1    3    3    0    0 -2.2049193681e+01 -2.2871184861e+01 +2.7317625363e+00 5.9301944028e+01 5.0000000000e+01 7.2844e-04 -1.0000e+00
      -12  1    3    3    0    0 +2.2049193681e+01 +2.2871184861e+01 -2.7317625363e+00 3.1886055972e+01 0.0000000000e+00 0.0000e+00 1.0000e+00
</event>
<event>
 5      2 +1.7896800e-02 9.11880000e+01 7.81616400e-03 1.18400000e-01
      -11 -1    0    0    0    0 +0.0000000000e+00 +0.0000000000e+00 +4.5593999997e+01 4.5594000000e+01 5.1100000000e-04 0.0000e+00 1.0000e+00
       11 -1    0    0    0    0 -0.0000000000e+00 -0.0000000000e+00 -4.5593999997e+01 4.5594000000e+01 5.1100000000e-04 0.0000e+00 -1.0000e+00
       23  2    1    2    0    0 +0.0000000000e+00 +0.0000000000e+00 +0.0000000000e+00 9.1188000000e+01 9.1188000000e+01 4.7634e-13 0.0000e+00
  9900012  1    3    3    0    0 -3.6390993516e-01 +1.7160388040e+01 -2.6872089933e+01 5.9301944028e+01 5.0000000000e+01 4.0290e-04 -1.0000e+00
      -12  1    3    3    0    0 +3.6390993516e-01 -1.7160388040e+01 +2.6872089933e+01 3.1886055972e+01 0.0000000000e+00 0.0000e+00 1.0000e+00
</event>
<event>
 5      1 +1.7896800e-02 9.11880000e+01 7.81616400e-03 1.18400000e-01
      -11 -1    0    0    0    0 +0.0000000000e+00 +0.0000000000e+00 +4.5593999997e+01 4.5594000000e+01 5.1100000000e-04 0.0000e+00 1.0000e+00
       11 -1    0    0    0    0 -0.0000000000e+00 -0.0000000000e+00 -4.5593999997e+01 4.5594000000e+01 5.1100000000e-04 0.0000e+00 -1.0000e+00
       23  2    1    2    0    0 +0.0000000000e+00 +0.0000000000e+00 +0.0000000000e+00 9.1188000000e+01 9.1188000000e+01 4.5626e-14 0.0000e+00
  9900012  1    3    3    0    0 +8.2888782307e+00 +2.8598875320e+01 +1.1406988805e+01 5.9301944028e+01 5.0000000000e+01 1.5450e-03 1.0000e+00
       12  1    3    3    0    0 -8.2888782307e+00 -2.8598875320e+01 -1.1406988805e+01 3.1886055972e+01 0.0000000000e+00 0.0000e+00 -1.0000e+00
</event>
<event>
 5      3 +1.7896800e-02 9.11880000e+01 7.81616400e-03 1.18400000e-01
      -11 -1    0    0    0    0 +0.0000000000e+00 +0.0000000000e+00 +4.5593999997e+01 4.5594000000e+01 5.1100000000e-04 0.0000e+00 -1.0000e+00
       11 -1    0    0    0    0 -0.0000000000e+00 -0.0000000000e+00 -4.5593999997e+01 4.5594000000e+01 5.1100000000e-04 0.0000e+00 1.0000e+00
       23  2    1    2    0    0 +0.0000000000e+00 +0.0000000000e+00 +0.0000000000e+00 9.1188000000e+01 9.1188000000e+01 5.2571e-14 0.0000e+00
  9900012  1    3    3    0    0 -1.4228129433e+01 +2.2899410164e+01 -1.7026388708e+01 5.9301944028e+01 5.0000000000e+01 2.9454e-04 1.0000e+00
       12  1    3    3    0    0 +1.4228129433e+01 -2.2899410164e+01 +1.7026388708e+01 3.1886055972e+01 0.0000000000e+00 0.0000e+00 -1.0000e+00
</event>
<event>
 5      1 +1.7896800e-02 9.11880000e+01 7.81616400e-03 1.18400000e-01
      -11 -1    0    0    0    0 +0.0000000000e+00 +0.0000000000e+00 +4.5593999997e+01 4.5594000000e+01 5.1100000000e-04 0.0000e+00 1.0000e+00
       11 -1    0    0    0    0 -0.0000000000e+00 -0.0000000000e+00 -4.5593999997e+01 4.5594000000e+01 5.1100000000e-04 0.0000e+00 -1.0000e+00
       23  2    1    2    0    0 +0.0000000000e+00 +0.0000000000e+00 +0.0000000000e+00 9.1188000000e+01 9.1188000000e+01 4.8730e-14 0.0000e+00
  9900012  1    3    3    0    0 +8.7502017175e+00 +2.8536009474e+01 +1.1218319780e+01 5.9301944028e+01 5.0000000000e+01 2.8440e-04 1.0000e+00
       12  1    3    3    0    0 -8.7502017175e+00 -2.8536009474e+01 -1.1218319780e+01 3.1886055972e+01 0.0000000000e+00 0.0000e+00 -1.0000e+00
</event>
<event>
 5      7 +1.7896800e-02 9.11880000e+01 7.81616400e-03 1.18400000e-01
      -11 -1    0    0    0    0 +0.0000000000e+00 +0.0000000000e+00 +4.5593999997e+01 4.5594000000e+01 5.1100000000e-04 0.0000e+00 -1.0000e+00
       11 -1    0    0    0    0 -0.0000000000e+00 -0.0000000000e+00 -4.5593999997e+01 4.5594000000e+01 5.1100000000e-04 0.0000e+00 1.0000e+00
       23  2    1    2    0    0 +0.0000000000e+00 +0.0000000000e+00 +0.0000000000e+00 9.1188000000e+01 9.1188000000e+01 4.2088e-14 0.0000e+00
  9900012  1    3    3    0    0 +3.1870066143e+01 -3.1779601012e-01 +9.5836068127e-01 5.9301944028e+01 5.0000000000e+01 1.1005e-03 1.0000e+00
       12  1    3    3    0    0 -3.1870066143e+01 +3.1779601012e-01 -9.5836068127e-01 3.1886055972e+01 0.0000000000e+00 0.0000e+00 -1.0000e+00
</event>
<event>
 5      8 +1.7896800e-02 9.11880000e+01 7.81616400e-03 1.18400000e-01
      -11 -1    0    0    0    0 +0.0000000000e+00 +0.0000000000e+00 +4.5593999997e+01 4.5594000000e+01 5.1100000000e-04 0.0000e+00 1.0000e+00
       11 -1    0    0    0    0 -0.0000000000e+00 -0.0000000000e+00 -4.5593999997e+01 4.5594000000e+01 5.1100000000e-04 0.0000e+00 -1.0000e+00
       23  2    1    2    0    0 +0.0000000000e+00 +0.0000000000e+00 +0.0000000000e+00 9.1188000000e+01 9.1188000000e+01 3.6851e-14 0.0000e+00
  9900012  1    3    3    0    0 -5.8621804747e+00 -2.9724527276e+00 -3.1201280909e+01 5.9301944028e+01 5.0000000000e+01 3.7692e-04 -1.0000e+00
      -12  1    3    3    0    0 +5.8621804747e+00 +2.9724527276e+00 +3.1201280909e+01 3.1886055972e+01 0.0000000000e+00 0.0000e+00 1.0000e+00
</event>
<event>
 5      3 +1.7896800e-02 9.11880000e+01 7.81616400e-03 1.18400000e-01
      -11 -1    0    0    0    0 +0.0000000000e+00 +0.0000000000e+00 +4.5593999997e+01 4.5594000000e+01 5.1100000000e-04 0.0000e+00 -1.0000e+00
       11 -1    0    0    0    0 -0.0000000000e+00 -0.0000000000e+00 -4.5593999997e+01 4.5594000000e+01 5.1100000000e-04 0.0000e+00 1.0000e+00
       23  2    1    2    0    0 +0.0000000000e+00 +0.0000000000e+00 +0.0000000000e+00 9.1188000000e+01 9.1188000000e+01 1.9134e-14 0.0000e+00
  9900012  1    3    3    0    0 -8.1188162384e+00 -2.6959001762e+01 -1.4967217923e+01 5.9301944028e+01 5.0000000000e+01 3.1225e-05 1.0000e+00
       12  1    3    3    0    0 +8.1188162384e+00 +2.6959001762e+01 +1.4967217923e+01 3.1886055972e+01 0.0000000000e+00 0.0000e+00 -1.0000e+00
</event>
<event>
 5      1 +1.7896800e-02 9.11880000e+01 7.81616400e-03 1.18400000e-01
      -11 -1    0    0    0    0 +0.0000000000e+00 +0.0000000000e+00 +4.5593999997e+01 4.5594000000e+01 5.1100000000e-04 0.0000e+00 -1.0000e+00
       11 -1    0    0    0    0 -0.0000000000e+00 -0.0000000000e+00 -4.5593999997e+01 4.5594000000e+01 5.1100000000e-04 0.0000e+00 1.0000e+00
       23  2    1    2    0    0 +0.0000000000e+00 +0.0000000000e+00 +0.0000000000e+00 9.1188000000e+01 9.1188000000e+01 4.3606e-14 0.0000e+00
  9900012  1    3    3    0    0 -1.5347372655e+01 +2.3738166191e+01 -1.4753920969e+01 5.9301944028e+01 5.0000000000e+01 1.2351e-03 1.0000e+00
       12  1    3    3    0    0 +1.5347372655e+01 -2.3738166191e+01 +1.4753920969e+01 3.1886055972e+01 0.0000000000e+00 0.0000e+00 -1.0000e+00
</event>
<event>
 5      2 +1.7896800e-02 9.11880000e+01 7.81616400e-03 1.18400000e-01
      -11 -1    0    0    0    0 +0.0000000000e+00 +0.0000000000e+00 +4.5593999997e+01 4.5594000000e+01 5.1100000000e-04 0.0000e+00 1.0000e+00
       11 -1    0    0    0    0 -0.0000000000e+00 -0.0000000000e+00 -4.5593999997e+01 4.5594000000e+01 5.1100000000e-04 0.0000e+00 -1.0000e+00
       23  2    1    2    0    0 +0.0000000000e+00 +0.0000000000e+00 +0.0000000000e+00 9.1188000000e+01 9.1188000000e+01 7.0924e-14 0.0000e+00
  9900012  1    3    3    0    0 +1.0488071696e+01 +2.1194743521e+01 -2.1389337640e+01 5.9301944028e+01 5.0000000000e+01 1.0694e-03 -1.0000e+00
      -12  1    3    3    0    0 -1.0488071696e+01 -2.1194743521e+01 +2.1389337640e+01 3.1886055972e+01 0.0000000000e+00 0.0000e+00 1.0000e+00
</event>
<event>
 5      8 +1.7896800e-02 9.11880000e+01 7.81616400e-03 1.18400000e-01
      -11 -1    0    0    0    0 +0.0000000000e+00 +0.0000000000e+00 +4.5593999997e+01 4.5594000000e+01 5.1100000000e-04 0.0000e+00 -1.0000e+00
       11 -1    0    0    0    0 -0.0000000000e+00 -0.0000000000e+00 -4.5593999997e+01 4.5594000000e+01 5.1100000000e-04 0.0000e+00 1.0000e+00
       23  2    1    2    0    0 +0.0000000000e+00 +0.0000000000e+00 +0.0000000000e+00 9.1188000000e+01 9.1188000000e+01 2.9788e-15 0.0000e+00
  9900012  1    3    3    0    0 +1.2511214959e+01 +2.9326240210e+00 +2.9182011275e+01 5.9301944028e+01 5.0000000000e+01 4.4804e-04 -1.0000e+00
      -12  1    3    3    0    0 -1.2511214959e+01 -2.9326240210e+00 -2.9182011275e+01 3.1886055972e+01 0.0000000000e+00 0.0000e+00 1.0000e+00
</event>
<event>
 5      7 +1.7896800e-02 9.11880000e+01 7.81616400e-03 1.18400000e-01
      -11 -1    0    0    0    0 +0.0000000000e+00 +0.0000000000e+00 +4.5593999997e+01 4.5594000000e+01 5.1100000000e-04 0.0000e+00 1.0000e+00
       11 -1    0    0    0    0 -0.0000000000e+00 -0.0000000000e+00 -4.5593999997e+01 4.5594000000e+01 5.1100000000e-04 0.0000e+00 -1.0000e+00
       23  2    1    2    0    0 +0.0000000000e+00 +0.0000000000e+00 +0.0000000000e+00 9.1188000000e+01 9.1188000000e+01 4.3378e-14 0.0000e+00
  9900012  1    3    3    0    0 -7.5414011751e+00 +2.4792984133e+01 +1.8578368377e+01 5.9301944028e+01 5.0000000000e+01 7.6679e-04 1.0000e+00
       12  1    3    3    0    0 +7.5414011751e+00 -2.4792984133e+01 -1.8578368377e+01 3.1886055972e+01 0.0000000000e+00 0.0000e+00 -1.0000e+00
</event>
<event>
 5      8 +1.7896800e-02 9.11880000e+01 7.81616400e-03 1.18400000e-01
      -11 -1    0    0    0    0 +0.0000000000e+00 +0.0000000000e+00 +4.5593999997e+01 4.5594000000e+01 5.1100000000e-04 0.0000e+00 1.0000e+00
       11 -1    0    0    0    0 -0.0000000000e+00 -0.0000000000e+00 -4.5593999997e+01 4.5594000000e+01 5.1100000000e-04 0.0000e+00 -1.0000e+00
       23  2    1    2    0    0 +0.0000000000e+00 +0.0000000000e+00 +0.0000000000e+00 9.1188000000e+01 9.1188000000e+01 1.4416e-13 0.0000e+00
  9900012  1    3    3    0    0 -2.2332467592e+01 +1.3866536070e+00 -2.2716924275e+01 5.9301944028e+01 5.0000000000e+01 2.9772e-05 -1.0000e+00
      -12  1    3    3    0    0 +2.2332467592e+01 -1.3866536070e+00 +2.2716924275e+01 3.1886055972e+01 0.0000000000e+00 0.0000e+00 1.0000e+00
</event>
<event>
 5      5 +1.7896800e-02 9.11880000e+01 7.81616400e-03 1.18400000e-01
      -11 -1    0    0    0    0 +0.0000000000e+00 +0.0000000000e+00 +4.5593999997e+01 4.5594000000e+01 5.1100000000e-04 0.0000e+00 1.0000e+00
       11 -1    0    0    0    0 -0.0000000000e+00 -0.0000000000e+00 -4.5593999997e+01 4.5594000000e+01 5.1100000000e-04 0.0000e+00 -1.0000e+00
       23  2    1    2    0    0 +0.0000000000e+00 +0.0000000000e+00 +0.0000000000e+00 9.1188000000e+01 9.1188000000e+01 7.5186e-14 0.0000e+00
  9900012  1    3    3    0    0 +1.1670700521e+01 -1.2071971017e+01 +2.7106877920e+01 5.9301944028e+01 5.0000000000e+01 2.8790e-04 1.0000e+00
       12  1    3    3    0    0 -1.1670700521e+01 +1.2071971017e+01 -2.7106877920e+01 3.1886055972e+01 0.0000000000e+00 0.0000e+00 -1.0000e+00
</event>
<event>
 5      6 +1.7896800e-02 9.11880000e+01 7.81616400e-03 1.18400000e-01
      -11 -1    0    0    0    0 +0.0000000000e+00 +0.0000000000e+00 +4.5593999997e+01 4.5594000000e+01 5.1100000000e-04 0.0000e+00 -1.0000e+00
       11 -1    0    0    0    0 -0.0000000000e+00 -0.0000000000e+00 -4.5593999997e+01 4.5594000000e+01 5.1100000000e-04 0.0000e+00 1.0000e+00
       23  2    1    2    0    0 +0.0000000000e+00 +0.0000000000e+00 +0.0000000000e+00 9.1188000000e+01 9.1188000000e+01 1.7634e-15 0.0000e+00
  9900012  1    3    3    0    0 +1.0045995087e+00 +2.2894358088e+01 +2.2171145956e+01 5.9301944028e+01 5.0000000000e+01 2.8438e-04 -1.0000e+00
      -12  1    3    3    0    0 -1.0045995087e+00 -2.2894358088e+01 -2.2171145956e+01 3.1886055972e+01 0.0000000000e+00 0.0000e+00 1.0000e+00
</event>
<event>
 5      6 +1.7896800e-02 9.11880000e+01 7.81616400e-03 1.18400000e-01
      -11 -1    0    0    0    0 +0.0000000000e+00 +0.0000000000e+00 +4.5593999997e+01 4.5594000000e+01 5.1100000000e-04 0.0000e+00 -1.0000e+00
       11 -1    0    0    0    0 -0.0000000000e+00 -0.0000000000e+00 -4.5593999997e+01 4.5594000000e+01 5.1100000000e-04 0.0000e+00 1.0000e+00
       23  2    1    2    0    0 +0.0000000000e+00 +0.0000000000e+00 +0.0000000000e+00 9.1188000000e+01 9.1188000000e+01 5.2345e-14 0.0000e+00
  9900012  1    3    3    0    0 -1.8689569878e+01 -1.7089113631e+01 +1.9374796478e+01 5.9301944028e+01 5.0000000000e+01 5.9642e-04 -1.0000e+00
      -12  1    3    3    0    0 +1.8689569878e+01 +1.7089113631e+01 -1.9374796478e+01 3.1886055972e+01 0.0000000000e+00 0.0000e+00 1.0000e+00
</event>
<event>
 5      4 +1.7896800e-02 9.11880000e+01 7.81616400e-03 1.18400000e-01
      -11 -1    0    0    0    0 +0.0000000000e+00 +0.0000000000e+00 +4.5593999997e+01 4.5594000000e+01 5.1100000000e-04 0.0000e+00 -1.0000e+00
       11 -1    0    0    0    0 -0.0000000000e+00 -0.0000000000e+00 -4.5593999997e+01 4.5594000000e+01 5.1100000000e-04 0.0000e+00 1.0000e+00
       23  2    1    2    0    0 +0.0000000000e+00 +0.0000000000e+00 +0.0000000000e+00 9.1188000000e+01 9.1188000000e+01 4.0463e-15 0.0000e+00
  9900012  1    3    3    0    0 -7.5246597009e+00 +1.4430675513e+01 +2.7419986617e+01 5.9301944028e+01 5.0000000000e+01 5.7434e-05 -1.0000e+00
      -12  1    3    3    0    0 +7.5246597009e+00 -1.4430675513e+01 -2.7419986617e+01 3.1886055972e+01 0.0000000000e+00 0.0000e+00 1.0000e+00
</event>
<event>
 5      6 +1.7896800e-02 9.11880000e+01 7.81616400e-03 1.18400000e-01
      -11 -1    0    0    0    0 +0.0000000000e+00 +0.0000000000e+00 +4.5593999997e+01 4.5594000000e+01 5.1100000000e-04 0.0000e+00 -1.0000e+00
       11 -1    0    0    0    0 -0.0000000000e+00 -0.0000000000e+00 -4.5593999997e+01 4.5594000000e+01 5.1100000000e-04 0.0000e+00 1.0000e+00
       23  2    1    2    0    0 +0.0000000000e+00 +0.0000000000e+00 +0.0000000000e+00 9.1188000000e+01 9.1188000000e+01 9.8493e-14 0.0000e+00
  9900012  1    3    3    0    0 +4.0724289050e+00 -3.9554834394e+00 +3.1376584248e+01 5.9301944028e+01 5.0000000000e+01 1.8864e-03 -1.0000e+00
      -12  1    3    3    0    0 -4.0724289050e+00 +3.9554834394e+00 -3.1376584248e+01 3.1886055972e+01 0.0000000000e+00 0.0000e+00 1.0000e+00
</event>
<event>
 5      7 +1.7896800e-02 9.11880000e+01 7.81616400e-03 1.18400000e-01
      -11 -1    0    0    0    0 +0.0000000000e+00 +0.0000000000e+00 +4.5593999997e+01 4.5594000000e+01 5.1100000000e-04 0.0000e+00 1.0000e+00
       11 -1    0    0    0    0 -0.0000000000e+00 -0.0000000000e+00 -4.5593999997e+01 4.5594000000e+01 5.1100000000e-04 0.0000e+00 -1.0000e+00
       23  2    1    2    0    0 +0.0000000000e+00 +0.0000000000e+00 +0.0000000000e+00 9.1188000000e+01 9.1188000000e+01 3.6274e-14 0.0000e+00
  9900012  1    3    3    0    0 +1.6540839966e+01 -1.8269339752e+01 +2.0232459161e+01 5.9301944028e+01 5.0000000000e+01 2.1784e-03 1.0000e+00
       12  1    3    3    0    0 -1.6540839966e+01 +1.8269339752e+01 -2.0232459161e+01 3.1886055972e+01 0.0000000000e+00 0.0000e+00 -1.0000e+00
</event>
<event>
 5      4 +1.7896800e-02 9.11880000e+01 7.81616400e-03 1.18400000e-01
      -11 -1    0    0    0    0 +0.0000000000e+00 +0.0000000000e+00 +4.5593999997e+01 4.5594000000e+01 5.1100000000e-04 0.0000e+00 -1.0000e+00
       11 -1    0    0    0    0 -0.0000000000e+00 -0.0000000000e+00 -4.5593999997e+01 4.5594000000e+01 5.1100000000e-04 0.0000e+00 1.0000e+00
       23  2    1    2    0    0 +0.0000000000e+00 +0.0000000000e+00 +0.0000000000e+00 9.1188000000e+01 9.1188000000e+01 1.6492e-14 0.0000e+00
  9900012  1    3    3    0    0 +1.8634983977e+01 -1.9905138275e+01 +1.6530075858e+01 5.9301944028e+01 5.0000000000e+01 8.3358e-05 -1.0000e+00
      -12  1    3    3    0    0 -1.8634983977e+01 +1.9905138275e+01 -1.6530075858e+01 3.1886055972e+01 0.0000000000e+00 0.0000e+00 1.0000e+00
</event>
<event>
 5      8 +1.7896800e-02 9.11880000e+01 7.81616400e-03 1.18400000e-01
      -11 -1    0    0    0    0 +0.0000000000e+00 +0.0000000000e+00 +4.5593999997e+01 4.5594000000e+01 5.1100000000e-04 0.0000e+00 1.0000e+00
       11 -1    0    0    0    0 -0.0000000000e+00 -0.0000000000e+00 -4.5593999997e+01 4.5594000000e+01 5.1100000000e-04 0.0000e+00 -1.0000e+00
       23  2    1    2    0    0 +0.0000000000e+00 +0.0000000000e+00 +0.0000000000e+00 9.1188000000e+01 9.1188000000e+01 1.0179e-13 0.0000e+00
  9900012  1    3    3    0    0 +2.7319728345e+01 -1.5978129087e+01 -3.8797421971e+00 5.9301944028e+01 5.0000000000e+01 2.9937e-04 -1.0000e+00
      -12  1    3    3    0    0 -2.7319728345e+01 +1.5978129087e+01 +3.8797421971e+00 3.1886055972e+01 0.0000000000e+00 0.0000e+00 1.0000e+00
</event>
<event>
 5      7 +1.7896800e-02 9.11880000e+01 7.81616400e-03 1.18400000e-01
      -11 -1    0    0    0    0 +0.0000000000e+00 +0.0000000000e+00 +4.5593999997e+01 4.5594000000e+01 5.1100000000e-04 0.0000e+00 1.0000e+00
       11 -1    0    0    0    0 -0.0000000000e+00 -0.0000000000e+00 -4.5593999997e+01 4.5594000000e+01 5.1100000000e-04 0.0000e+00 -1.0000e+00
       23  2    1    2    0    0 +0.0000000000e+00 +0.0000000000e+00 +0.0000000000e+00 9.1188000000e+01 9.1188000000e+01 1.2092e-14 0.0000e+00
  9900012  1    3    3    0    0 -3.2460572717e+00 +2.7390052222e+01 +1.5999022374e+01 5.9301944028e+01 5.0000000000e+01 9.4963e-04 1.0000e+00
       12  1    3    3    0    0 +3.2460572717e+00 -2.7390052222e+01 -1.5999022374e+01 3.1886055972e+01 0.0000000000e+00 0.0000e+00 -1.0000e+00
</event>
<event>
 5      8 +1.7896800e-02 9.11880000e+01 7.81616400e-03 1.18400000e-01
      -11 -1    0    0    0    0 +0.0000000000e+00 +0.0000000000e+00 +4.5593999997e+01 4.5594000000e+01 5.1100000000e-04 0.0000e+00 1.0000e+00
       11 -1    0    0    0    0 -0.0000000000e+00 -0.0000000000e+00 -4.5593999997e+01 4.5594000000e+01 5.1100000000e-04 0.0000e+00 -1.0000e+00
       23  2    1    2    0    0 +0.0000000000e+00 +0.0000000000e+00 +0.0000000000e+00 9.1188000000e+01 9.1188000000e+01 4.7892e-14 0.0000e+00
  9900012  1    3    3    0    0 -4.9266529124e+00 +8.6608216000e-02 -3.1503034069e+01 5.9301944028e+01 5.0000000000e+01 4.0396e-04 -1.0000e+00
      -12  1    3    3    0    0 +4.9266529124e+00 -8.6608216000e-02 +3.1503034069e+01 3.1886055972e+01 0.0000000000e+00 0.0000e+00 1.0000e+00
</event>
<event>
 5      2 +1.7896800e-02 9.11880000e+01 7.81616400e-03 1.18400000e-01
      -11 -1    0    0    0    0 +0.0000000000e+00 +0.0000000000e+00 +4.5593999997e+01 4.5594000000e+01 5.1100000000e-04 0.0000e+00 -1.0000e+00
       11 -1    0    0    0    0 -0.0000000000e+00 -0.0000000000e+00 -4.5593999997e+01 4.5594000000e+01 5.1100000000e-04 0.0000e+00 1.0000e+00
       23  2    1    2    0    0 +0.0000000000e+00 +0.0000000000e+00 +0.0000000000e+00 9.1188000000e+01 9.1188000000e+01 5.8858e-14 0.0000e+00
  9900012  1    3    3    0    0 -3.0372215677e+01 +5.3578646206e+00 +8.0958240482e+00 5.9301944028e+01 5.0000000000e+01 4.3136e-03 -1.0000e+00
      -12  1    3    3    0    0 +3.0372215677e+01 -5.3578646206e+00 -8.0958240482e+00 3.1886055972e+01 0.0000000000e+00 0.0000e+00 1.0000e+00
</event>
<event>
 5      3 +1.7896800e-02 9.11880000e+01 7.81616400e-03 1.18400000e-01
      -11 -1    0    0    0    0 +0.0000000000e+00 +0.0000000000e+00 +4.5593999997e+01 4.5594000000e+01 5.1100000000e-04 0.0000e+00 -1.0000e+00
       11 -1    0    0    0    0 -0.0000000000e+00 -0.0000000000e+00 -4.5593999997e+01 4.5594000000e+01 5.1100000000e-04 0.0000e+00 1.0000e+00
       23  2    1    2    0    0 +0.0000000000e+00 +0.0000000000e+00 +0.0000000000e+00 9.1188000000e+01 9.1188000000e+01 6.1723e-14 0.0000e+00
  9900012  1    3    3    0    0 +1.1215423953e+01 +2.7602881863e+01 +1.1358509757e+01 5.9301944028e+01 5.0000000000e+01 1.0574e-03 -1.0000e+00
       12  1    3    3    0    0 -1.1215423953e+01 -2.7602881863e+01 -1.1358509757e+01 3.1886055972e+01 0.0000000000e+00 0.0000e+00 -1.0000e+00
</event>
<event>
 5      2 +1.7896800e-02 9.11880000e+01 7.81616400e-03 1.18400000e-01
      -11 -1    0    0    0    0 +0.0000000000e+00 +0.0000000000e+00 +4.5593999997e+01 4.5594000000e+01 5.1100000000e-04 0.0000e+00 1.0000e+00
       11 -1    0    0    0    0 -0.0000000000e+00 -0.0000000000e+00 -4.5593999997e+01 4.5594000000e+01 5.1100000000e-04 0.0000e+00 -1.0000e+00
       23  2    1    2    0    0 +0.0000000000e+00 +0.0000000000e+00 +0.0000000000e+00 9.1188000000e+01 9.1188000000e+01 1.0006e-14 0.0000e+00
  9900012  1    3    3    0    0 +2.1485267118e+01 +2.3547845596e+01 -7.7642136296e-01 5.9301944028e+01 5.0000000000e+01 4.8280e-04 -1.0000e+00
      -12  1    3    3    0    0 -2.1485267118e+01 -2.3547845596e+01 +7.7642136296e-01 3.1886055972e+01 0.0000000000e+00 0.0000e+00 1.0000e+00
</event>
<event>
 5      4 +1.7896800e-02 9.11880000e+01 7.81616400e-03 1.18400000e-01
      -11 -1    0    0    0    0 +0.0000000000e+00 +0.0000000000e+00 +4.5593999997e+01 4.5594000000e+01 5.1100000000e-04 0.0000e+00 -1.0000e+00
       11 -1    0    0    0    0 -0.0000000000e+00 -0.0000000000e+00 -4.5593999997e+01 4.5594000000e+01 5.1100000000e-04 0.0000e+00 1.0000e+00
       23  2    1    2    0    0 +0.0000000000e+00 +0.0000000000e+00 +0.0000000000e+00 9.1188000000e+01 9.1188000000e+01 1.7199e-13 0.0000e+00
  9900012  1    3    3    0    0 +5.7811225502e+00 +2.8681726800e+01 +1.2675083245e+01 5.9301944028e+01 5.0000000000e+01 3.6686e-04 -1.0000e+00
      -12  1    3    3    0    0 -5.7811225502e+00 -2.8681726800e+01 -1.2675083245e+01 3.1886055972e+01 0.0000000000e+00 0.0000e+00 1.0000e+00
</event>
<event>
 5      6 +1.7896800e-02 9.11880000e+01 7.81616400e-03 1.18400000e-01
      -11 -1    0    0    0    0 +0.0000000000e+00 +0.0000000000e+00 +4.5593999997e+01 4.5594000000e+01 5.1100000000e-04 0.0000e+00 -1.0000e+00
       11 -1    0    0    0    0 -0.0000000000e+00 -0.0000000000e+00 -4.5593999997e+01 4.5594000000e+01 5.1100000000e-04 0.0000e+00 1.0000e+00
       23  2    1    2    0    0 +0.0000000000e+00 +0.0000000000e+00 +0.0000000000e+00 9.1188000000e+01 9.1188000000e+01 4.9746e-14 0.0000e+00
  9900012  1    3    3    0    0 -3.0256468285e+01 -3.0075037448e+00 -9.6032085071e+00 5.9301944028e+01 5.0000000000e+01 1.5748e-03 -1.0000e+00
      -12  1    3    3    0    0 +3.0256468285e+01 +3.0075037448e+00 +9.6032085071e+00 3.1886055972e+01 0.0000000000e+00 0.0000e+00 1.0000e+00
</event>
<event>
 5      3 +1.7896800e-02 9.11880000e+01 7.81616400e-03 1.18400000e-01
      -11 -1    0    0    0    0 +0.0000000000e+00 +0.0000000000e+00 +4.5593999997e+01 4.5594000000e+01 5.1100000000e-04 0.0000e+00 -1.0000e+00
       11 -1    0    0    0    0 -0.0000000000e+00 -0.0000000000e+00 -4.5593999997e+01 4.5594000000e+01 5.1100000000e-04 0.0000e+00 1.0000e+00
       23  2    1    2    0    0 +0.0000000000e+00 +0.0000000000e+00 +0.0000000000e+00 9.1188000000e+01 9.1188000000e+01 8.0918e-14 0.0000e+00
  9900012  1    3    3    0    0 -3.0892966808e+01 -3.9090254060e+00 -6.8603708072e+00 5.9301944028e+01 5.0000000000e+01 8.7931e-05 1.0000e+00
       12  1    3    3    0    0 +3.0892966808e+01 +3.9090254060e+00 +6.8603708072e+00 3.1886055972e+01 0.0000000000e+00 0.0000e+00 -1.0000e+00
</event>
<event>
 5      7 +1.7896800e-02 9.11880000e+01 7.81616400e-03 1.18400000e-01
      -11 -1    0    0    0    0 +0.0000000000e+00 +0.0000000000e+00 +4.5593999997e+01 4.5594000000e+01 5.1100000000e-04 0.0000e+00 1.0000e+00
       11 -1    0    0    0    0 -0.0000000000e+00 -0.0000000000e+00 -4.5593999997e+01 4.5594000000e+01 5.1100000000e-04 0.0000e+00 -1.0000e+00
       23  2    1    2    0    0 +0.0000000000e+00 +0.0000000000e+00 +0.0000000000e+00 9.1188000000e+01 9.1188000000e+01 4.4273e-14 0.0000e+00
  9900012  1    3    3    0    0 -8.2619671557e+00 +2.5220902958e+01 +1.7673893690e+01 5.9301944028e+01 5.0000000000e+01 5.9917e-04 1.0000e+00
       12  1    3    3    0    0 +8.2619671557e+00 -2.5220902958e+01 -1.7673893690e+01 3.1886055972e+01 0.0000000000e+00 0.0000e+00 -1.0000e+00
</event>
<event>
 5      2 +1.7896800e-02 9.11880000e+01 7.81616400e-03 1.18400000e-01
      -11 -1    0    0    0    0 +0.0000000000e+00 +0.0000000000e+00 +4.5593999997e+01 4.5594000000e+01 5.1100000000e-04 0.0000e+00 1.0000e+00
       11 -1    0    0    0    0 -0.0000000000e+00 -0.0000000000e+00 -4.5593999997e+01 4.5594000000e+01 5.1100000000e-04 0.0000e+00 -1.0000e+00
       23  2    1    2    0    0 +0.0000000000e+00 +0.0000000000e+00 +0.0000000000e+00 9.1188000000e+01 9.1188000000e+01 3.2627e-14 0.0000e+00
  9900012  1    3    3    0    0 -1.1965933734e+01 +2.2166697192e+01 +1.9549284666e+01 5.9301944028e+01 5.0000000000e+01 3.7638e-04 -1.0000e+00
      -12  1    3    3    0    0 +1.1965933734e+01 -2.2166697192e+01 -1.9549284666e+01 3.1886055972e+01 0.0000000000e+00 0.0000e+00 1.0000e+00
</event>
<event>
 5      1 +1.7896800e-02 9.11880000e+01 7.81616400e-03 1.18400000e-01
      -11 -1    0    0    0    0 +0.0000000000e+00 +0.0000000000e+00 +4.5593999997e+01 4.5594000000e+01 5.1100000000e-04 0.0000e+00 1.0000e+00
       11 -1    0    0    0    0 -0.0000000000e+00 -0.0000000000e+00 -4.5593999997e+01 4.5594000000e+01 5.1100000000e-04 0.0000e+00 -1.0000e+00
       23  2    1    2    0    0 +0.0000000000e+00 +0.0000000000e+00 +0.0000000000e+00 9.1188000000e+01 9.1188000000e+01 9.8224e-14 0.0000e+00
  9900012  1    3    3    0    0 +1.6619243313e+01 -2.2339811507e+01 -1.5538794644e+01 5.9301944028e+01 5.0000000000e+01 6.5787e-04 1.0000e+00
       12  1    3    3    0    0 -1.6619243313e+01 +2.2339811507e+01 +1.5538794644e+01 3.1886055972e+01 0.0000000000e+00 0.0000e+00 -1.0000e+00
</event>
<event>
 5      6 +1.7896800e-02 9.11880000e+01 7.81616400e-03 1.18400000e-01
      -11 -1    0    0    0    0 +0.0000000000e+00 +0.0000000000e+00 +4.5593999997e+01 4.5594000000e+01 5.1100000000e-04 0.0000e+00 -1.0000e+00
       11 -1    0    0    0    0 -0.0000000000e+00 -0.0000000000e+00 -4.5593999997e+01 4.5594000000e+01 5.1100000000e-04 0.0000e+00 1.0000e+00
       23  2    1    2    0    0 +0.0000000000e+00 +0.0000000000e+00 +0.0000000000e+00 9.1188000000e+01 9.1188000000e+01 1.6786e-14 0.0000e+00
  9900012  1    3    3    0    0 +1.6183095097e+01 +1.9744558490e+01 +1.9104460437e+01 5.9301944028e+01 5.0000000000e+01 2.2741e-03 -1.0000e+00
      -12  1    3    3    0    0 -1.6183095097e+01 -1.9744558490e+01 -1.9104460437e+01 3.1886055972e+01 0.0000000000e+00 0.0000e+00 1.0000e+00
</event>
<event>
 5      4 +1.7896800e-02 9.11880000e+01 7.81616400e-03 1.18400000e-01
      -11 -1    0    0    0    0 +0.0000000000e+00 +0.0000000000e+00 +4.5593999997e+01 4.5594000000e+01 5.1100000000e-04 0.0000e+00 1.0000e+00
       11 -1    0    0    0    0 -0.0000000000e+00 -0.0000000000e+00 -4.5593999997e+01 4.5594000000e+01 5.1100000000e-04 0.0000e+00 -1.0000e+00
       23  2    1    2    0    0 +0.0000000000e+00 +0.0000000000e+00 +0.0000000000e+00 9.1188000000e+01 9.1188000000e+01 9.7245e-14 0.0000e+00
  9900012  1    3    3    0    0 -1.1003021559e+00 -9.5856302921e+00 -3.0391209133e+01 5.9301944028e+01 5.0000000000e+01 1.1558e-03 -1.0000e+00
      -12  1    3    3    0    0 +1.1003021559e+00 +9.5856302921e+00 +3.0391209133e+01 3.1886055972e+01 0.0000000000e+00 0.0000e+00 1.0000e+00
</event>
<event>
 5      5 +1.7896800e-02 9.11880000e+01 7.81616400e-03 1.18400000e-01
      -11 -1    0    0    0    0 +0.0000000000e+00 +0.0000000000e+00 +4.5593999997e+01 4.5594000000e+01 5.1100000000e-04 0.0000e+00 -1.0000e+00
       11 -1    0    0    0    0 -0.0000000000e+00 -0.0000000000e+00 -4.5593999997e+01 4.5594000000e+01 5.1100000000e-04 0.0000e+00 1.0000e+00
       23  2    1    2    0    0 +0.0000000000e+00 +0.0000000000e+00 +0.0000000000e+00 9.1188000000e+01 9.1188000000e+01 4.8666e-15 0.0000e+00
  9900012  1    3    3    0    0 +2.2569812225e+01 +3.8093294588e+00 +2.2199395278e+01 5.9301944028e+01 5.0000000000e+01 4.6745e-04 1.0000e+00
       12  1    3    3    0    0 -2.2569812225e+01 -3.8093294588e+00 -2.2199395278e+01 3.1886055972e+01 0.0000000000e+00 0.0000e+00 -1.0000e+00
</event>
<event>
 5      6 +1.7896800e-02 9.11880000e+01 7.81616400e-03 1.18400000e-01
      -11 -1    0    0    0    0 +0.0000000000e+00 +0.0000000000e+00 +4.5593999997e+01 4.5594000000e+01 5.1100000000e-04 0.0000e+00 1.0000e+00
       11 -1    0    0    0    0 -0.0000000000e+00 -0.0000000000e+00 -4.5593999997e+01 4.5594000000e+01 5.1100000000e-04 0.0000e+00 -1.0000e+00
       23  2    1    2    0    0 +0.0000000000e+00 +0.0000000000e+00 +0.0000000000e+00 9.1188000000e+01 9.1188000000e+01 1.6347e-15 0.0000e+00
  9900012  1    3    3    0    0 -6.0343337356e+00 +2.8379118648e+01 -1.3226224200e+01 5.9301944028e+01 5.0000000000e+01 7.8922e-05 -1.0000e+00
      -12  1    3    3    0    0 +6.0343337356e+00 -2.8379118648e+01 +1.3226224200e+01 3.1886055972e+01 0.0000000000e+00 0.0000e+00 1.0000e+00
</event>
<event>
 5      8 +1.7896800e-02 9.11880000e+01 7.81616400e-03 1.18400000e-01
      -11 -1    0    0    0    0 +0.0000000000e+00 +0.0000000000e+00 +4.5593999997e+01 4.5594000000e+01 5.1100000000e-04 0.0000e+00 -1.0000e+00
       11 -1    0    0    0    0 -0.0000000000e+00 -0.0000000000e+00 -4.5593999997e+01 4.5594000000e+01 5.1100000000e-04 0.0000e+00 1.0000e+00
       23  2    1    2    0    0 +0.0000000000e+00 +0.0000000000e+00 +0.0000000000e+00 9.1188000000e+01 9.1188000000e+01 7.2003e-13 0.0000e+00
  9900012  1    3    3    0    0 -2.4950331603e+01 +1.9847894750e+01 -5.1243767492e-01 5.9301944028e+01 5.0000000000e+01 2.2995e-03 -1.0000e+00
      -12  1    3    3    0    0 +2.4950331603e+01 -1.9847894750e+01 +5.1243767492e-01 3.1886055972e+01 0.0000000000e+00 0.0000e+00 1.0000e+00
</event>
<event>
 5      8 +1.7896800e-02 9.11880000e+01 7.81616400e-03 1.18400000e-01
      -11 -1    0    0    0    0 +0.0000000000e+00 +0.0000000000e+00 +4.5593999997e+01 4.5594000000e+01 5.1100000000e-04 0.0000e+00 -1.0000e+00
       11 -1    0    0    0    0 -0.0000000000e+00 -0.0000000000e+00 -4.5593999997e+01 4.5594000000e+01 5.1100000000e-04 0.0000e+00 1.0000e+00
       23  2    1    2    0    0 +0.0000000000e+00 +0.0000000000e+00 +0.0000000000e+00 9.1188000000e+01 9.1188000000e+01 3.1550e-14 0.0000e+00
  9900012  1    3    3    0    0 -2.8413335691e+01 +1.2942542612e-01 +1.4470182080e+01 5.9301944028e+01 5.0000000000e+01 4.7476e-04 -1.0000e+00
      -12  1    3    3    0    0 +2.8413335691e+01 -1.2942542612e-01 -1.4470182080e+01 3.1886055972e+01 0.0000000000e+00 0.0000e+00 1.0000e+00
</event>
<event>
 5      8 +1.7896800e-02 9.11880000e+01 7.81616400e-03 1.18400000e-01
      -11 -1    0    0    0    0 +0.0000000000e+00 +0.0000000000e+00 +4.5593999997e+01 4.5594000000e+01 5.1100000000e-04 0.0000e+00 1.0000e+00
       11 -1    0    0    0    0 -0.0000000000e+00 -0.0000000000e+00 -4.5593999997e+01 4.5594000000e+01 5.1100000000e-04 0.0000e+00 -1.0000e+00
       23  2    1    2    0    0 +0.0000000000e+00 +0.0000000000e+00 +0.0000000000e+00 9.1188000000e+01 9.1188000000e+01 5.2343e-14 0.0000e+00
  9900012  1    3    3    0    0 +3.1579014005e+01 +1.1478421684e+00 -4.2624990650e+00 5.9301944028e+01 5.0000000000e+01 1.4750e-04 -1.0000e+00
      -12  1    3    3    0    0 -3.1579014005e+01 -1.1478421684e+00 +4.2624990650e+00 3.1886055972e+01 0.0000000000e+00 0.0000e+00 1.0000e+00
</event>
<event>
 5      8 +1.7896800e-02 9.11880000e+01 7.81616400e-03 1.18400000e-01
      -11 -1    0    0    0    0 +0.0000000000e+00 +0.0000000000e+00 +4.5593999997e+01 4.5594000000e+01 5.1100000000e-04 0.0000e+00 -1.0000e+00
       11 -1    0    0    0    0 -0.0000000000e+00 -0.0000000000e+00 -4.5593999997e+01 4.5594000000e+01 5.1100000000e-04 0.0000e+00 1.0000e+00
       23  2    1    2    0    0 +0.0000000000e+00 +0.0000000000e+00 +0.0000000000e+00 9.1188000000e+01 9.1188000000e+01 6.9815e-15 0.0000e+00
  9900012  1    3    3    0    0 -2.0942181949e+01 +1.3484172661e+01 +1.9907854438e+01 5.9301944028e+01 5.0000000000e+01 1.9110e-04 -1.0000e+00
      -12  1    3    3    0    0 +2.0942181949e+01 -1.3484172661e+01 -1.9907854438e+01 3.1886055972e+01 0.0000000000e+00 0.0000e+00 1.0000e+00
</event>
<event>
 5      4 +1.7896800e-02 9.11880000e+01 7.81616400e-03 1.18400000e-01
      -11 -1    0    0    0    0 +0.0000000000e+00 +0.0000000000e+00 +4.5593999997e+01 4.5594000000e+01 5.1100000000e-04 0.0000e+00 1.0000e+00
       11 -1    0    0    0    0 -0.0000000000e+00 -0.0000000000e+00 -4.5593999997e+01 4.5594000000e+01 5.1100000000e-04 0.0000e+00 -1.0000e+00
       23  2    1    2    0    0 +0.0000000000e+00 +0.0000000000e+00 +0.0000000000e+00 9.1188000000e+01 9.1188000000e+01 2.8378e-14 0.0000e+00
  9900012  1    3    3    0    0 -2.5799647842e+01 -3.5111697731e+00 -1.8405717142e+01 5.9301944028e+01 5.0000000000e+01 1.5553e-03 -1.0000e+00
      -12  1    3    3    0    0 +2.5799647842e+01 +3.5111697731e+00 +1.8405717142e+01 3.1886055972e+01 0.0000000000e+00 0.0000e+00 1.0000e+00
</event>
<event>
 5      1 +1.7896800e-02 9.11880000e+01 7.81616400e-03 1.18400000e-01
      -11 -1    0    0    0    0 +0.0000000000e+00 +0.0000000000e+00 +4.5593999997e+01 4.5594000000e+01 5.1100000000e-04 0.0000e+00 -1.0000e+00
       11 -1    0    0    0    0 -0.0000000000e+00 -0.0000000000e+00 -4.5593999997e+01 4.5594000000e+01 5.1100000000e-04 0.0000e+00 1.0000e+00
       23  2    1    2    0    0 +0.0000000000e+00 +0.0000000000e+00 +0.0000000000e+00 9.1188000000e+01 9.1188000000e+01 2.0715e-14 0.0000e+00
  9900012  1    3    3    0    0 +2.5774743207e+01 +1.4892184026e+01 -1.1428299656e+01 5.9301944028e+01 5.0000000000e+01 3.9136e-03 1.0000e+00
       12  1    3    3    0    0 -2.5774743207e+01 -1.4892184026e+01 +1.1428299656e+01 3.1886055972e+01 0.0000000000e+00 0.0000e+00 -1.0000e+00
</event>
<event>
 5      1 +1.7896800e-02 9.11880000e+01 7.81616400e-03 1.18400000e-01
      -11 -1    0    0    0    0 +0.0000000000e+00 +0.0000000000e+00 +4.5593999997e+01 4.5594000000e+01 5.1100000000e-04 0.0000e+00 -1.0000e+00
       11 -1    0    0    0    0 -0.0000000000e+00 -0.0000000000e+00 -4.5593999997e+01 4.5594000000e+01 5.1100000000e-04 0.0000e+00 1.0000e+00
       23  2    1    2    0    0 +0.0000000000e+00 +0.0000000000e+00 +0.0000000000e+00 9.1188000000e+01 9.1188000000e+01 2.0979e-14 0.0000e+00
  9900012  1    3    3    0    0 +1.8394647592e+01 +1.5937707749e+01 -2.0599683909e+01 5.9301944028e+01 5.0000000000e+01 1.4185e-04 1.0000e+00
       12  1    3    3    0    0 -1.8394647592e+01 -1.5937707749e+01 +2.0599683909e+01 3.1886055972e+01 0.0000000000e+00 0.0000e+00 -1.0000e+00
</event>
<event>
 5      4 +1.7896800e-02 9.11880000e+01 7.81616400e-03 1.18400000e-01
      -11 -1    0    0    0    0 +0.0000000000e+00 +0.0000000000e+00 +4.5593999997e+01 4.5594000000e+01 5.1100000000e-04 0.0000e+00 1.0000e+00
       11 -1    0    0    0    0 -0.0000000000e+00 -0.0000000000e+00 -4.5593999997e+01 4.5594000000e+01 5.1100000000e-04 0.0000e+00 -1.0000e+00
       23  2    1    2    0    0 +0.0000000000e+00 +0.0000000000e+00 +0.0000000000e+00 9.1188000000e+01 9.1188000000e+01 2.8085e-14 0.0000e+00
  9900012  1    3    3    0    0 -1.6731994525e+01 +3.4853120190e+00 -2.6918646415e+01 5.9301944028e+01 5.0000000000e+01 1.0256e-03 -1.0000e+00
      -12  1    3    3    0    0 +1.6731994525e+01 -3.4853120190e+00 +2.6918646415e+01 3.1886055972e+01 0.0000000000e+00 0.0000e+00 1.0000e+00
</event>
<event>
 5      4 +1.7896800e-02 9.11880000e+01 7.81616400e-03 1.18400000e-01
      -11 -1    0    0    0    0 +0.0000000000e+00 +0.0000000000e+00 +4.5593999997e+01 4.5594000000e+01 5.1100000000e-04 0.0000e+00 1.0000e+00
       11 -1    0    0    0    0 -0.0000000000e+00 -0.0000000000e+00 -4.5593999997e+01 4.5594000000e+01 5.1100000000e-04 0.0000e+00 -1.0000e+00
       23  2    1    2    0    0 +0.0000000000e+00 +0.0000000000e+00 +0.0000000000e+00 9.1188000000e+01 9.1188000000e+01 3.6942e-15 0.0000e+00
  9900012  1    3    3    0    0 -1.3881915273e+01 +1.1625103907e+00 -2.8682077390e+01 5.9301944028e+01 5.0000000000e+01 1.0219e-03 -1.0000e+00
      -12  1    3    3    0    0 +1.3881915273e+01 -1.1625103907e+00 +2.8682077390e+01 3.1886055972e+01 0.0000000000e+00 0.0000e+00 1.0000e+00
</event>
<event>
 5      8 +1.7896800e-02 9.11880000e+01 7.81616400e-03 1.18400000e-01
      -11 -1    0    0    0    0 +0.0000000000e+00 +0.0000000000e+00 +4.5593999997e+01 4.5594000000e+01 5.1100000000e-04 0.0000e+00 1.0000e+00
       11 -1    0    0    0    0 -0.0000000000e+00 -0.0000000000e+00 -4.5593999997e+01 4.5594000000e+01 5.1100000000e-04 0.0000e+00 -1.0000e+00
       23  2    1    2    0    0 +0.0000000000e+00 +0.0000000000e+00 +0.0000000000e+00 9.1188000000e+01 9.1188000000e+01 1.5570e-13 0.0000e+00
  9900012  1    3    3    0    0 +1.5345422650e+00 +1.1791367995e+01 -2.9585966036e+01 5.9301944028e+01 5.0000000000e+01 3.3869e-05 -1.0000e+00
      -12  1    3    3    0    0 -1.5345422650e+00 -1.1791367995e+01 +2.9585966036e+01 3.1886055972e+01 0.0000000000e+00 0.0000e+00 1.0000e+00
</event>
<event>
 5      6 +1.7896800e-02 9.11880000e+01 7.81616400e-03 1.18400000e-01
      -11 -1    0    0    0    0 +0.0000000000e+00 +0.0000000000e+00 +4.5593999997e+01 4.5594000000e+01 5.1100000000e-04 0.0000e+00 -1.0000e+00
       11 -1    0    0    0    0 -0.0000000000e+00 -0.0000000000e+00 -4.5593999997e+01 4.5594000000e+01 5.1100000000e-04 0.0000e+00 1.0000e+00
       23  2    1    2    0    0 +0.0000000000e+00 +0.0000000000e+00 +0.0000000000e+00 9.1188000000e+01 9.1188000000e+01 1.3319e-13 0.0000e+00
  9900012  1    3    3    0    0 -1.6644047315e+01 -2.0588123722e+01 +1.7771477599e+01 5.9301944028e+01 5.0000000000e+01 9.8931e-04 -1.0000e+00
      -12  1    3    3    0    0 +1.6644047315e+01 +2.0588123722e+01 -1.7771477599e+01 3.1886055972e+01 0.0000000000e+00 0.0000e+00 1.0000e+00
</event>
<event>
 5      1 +1.7896800e-02 9.11880000e+01 7.81616400e-03 1.18400000e-01
      -11 -1    0    0    0    0 +0.0000000000e+00 +0.0000000000e+00 +4.5593999997e+01 4.5594000000e+01 5.1100000000e-04 0.0000e+00 -1.0000e+00
       11 -1    0    0    0    0 -0.0000000000e+00 -0.0000000000e+00 -4.5593999997e+01 4.5594000000e+01 5.1100000000e-04 0.0000e+00 1.0000e+00
       23  2    1    2    0    0 +0.0000000000e+00 +0.0000000000e+00 +0.0000000000e+00 9.1188000000e+01 9.1188000000e+01 1.4209e-13 0.0000e+00
  9900012  1    3    3    0    0 -2.6807114573e+00 -1.7223937513e+00 -3.1726451288e+01 5.9301944028e+01 5.0000000000e+01 1.4680e-03 1.0000e+00
       12  1    3    3    0    0 +2.6807114573e+00 +1.7223937513e+00 +3.1726451288e+01 3.1886055972e+01 0.0000000000e+00 0.0000e+00 -1.0000e+00
</event>
<event>
 5      2 +1.7896800e-02 9.11880000e+01 7.81616400e-03 1.18400000e-01
      -11 -1    0    0    0    0 +0.0000000000e+00 +0.0000000000e+00 +4.5593999997e+01 4.5594000000e+01 5.1100000000e-04 0.0000e+00 1.0000e+00
       11 -1    0    0    0    0 -0.0000000000e+00 -0.0000000000e+00 -4.5593999997e+01 4.5594000000e+01 5.1100000000e-04 0.0000e+00 -1.0000e+00
       23  2    1    2    0    0 +0.0000000000e+00 +0.0000000000e+00 +0.0000000000e+00 9.1188000000e+01 9.1188000000e+01 8.5168e-15 0.0000e+00
  9900012  1    3    3    0    0 +2.1850601754e+01 -6.2446843931e+00 -2.2366843436e+01 5.9301944028e+01 5.0000000000e+01 2.5753e-04 -1.0000e+00
      -12  1    3    3    0    0 -2.1850601754e+01 +6.2446843931e+00 +2.2366843436e+01 3.1886055972e+01 0.0000000000e+00 0.0000e+00 1.0000e+00
</event>
<event>
 5      1 +1.7896800e-02 9.11880000e+01 7.81616400e-03 1.18400000e-01
      -11 -1    0    0    0    0 +0.0000000000e+00 +0.0000000000e+00 +4.5593999997e+01 4.5594000000e+01 5.1100000000e-04 0.0000e+00 1.0000e+00
       11 -1    0    0    0    0 -0.0000000000e+00 -0.0000000000e+00 -4.5593999997e+01 4.5594000000e+01 5.1100000000e-04 0.0000e+00 -1.0000e+00
       23  2    1    2    0    0 +0.0000000000e+00 +0.0000000000e+00 +0.0000000000e+00 9.1188000000e+01 9.1188000000e+01 1.3889e-13 0.0000e+00
  9900012  1    3    3    0    0 -2.6538930421e+01 -2.3108111089e+00 +1.7523295626e+01 5.9301944028e+01 5.0000000000e+01 4.4772e-03 1.0000e+00
       12  1    3    3    0    0 +2.6538930421e+01 +2.3108111089e+00 -1.7523295626e+01 3.1886055972e+01 0.0000000000e+00 0.0000e+00 -1.0000e+00
</event>
<event>
 5      2 +1.7896800e-02 9.11880000e+01 7.81616400e-03 1.18400000e-01
      -11 -1    0    0    0    0 +0.0000000000e+00 +0.0000000000e+00 +4.5593999997e+01 4.5594000000e+01 5.1100000000e-04 0.0000e+00 1.0000e+00
       11 -1    0    0    0    0 -0.0000000000e+00 -0.0000000000e+00 -4.5593999997e+01 4.5594000000e+01 5.1100000000e-04 0.0000e+00 -1.0000e+00
       23  2    1    2    0    0 +0.0000000000e+00 +0.0000000000e+00 +0.0000000000e+00 9.1188000000e+01 9.1188000000e+01 3.8074e-15 0.0000e+00
  9900012  1    3    3    0    0 -1.0130950532e+01 -2.5843753283e+01 -1.5690277977e+01 5.9301944028e+01 5.0000000000e+01 3.3925e-05 -1.0000e+00
      -12  1    3    3    0    0 +1.0130950532e+01 +2.5843753283e+01 +1.5690277977e+01 3.1886055972e+01 0.0000000000e+00 0.0000e+00 1.0000e+00
</event>
<event>
 5      2 +1.7896800e-02 9.11880000e+01 7.81616400e-03 1.18400000e-01
      -11 -1    0    0    0    0 +0.0000000000e+00 +0.0000000000e+00 +4.5593999997e+01 4.5594000000e+01 5.1100000000e-04 0.0000e+00 -1.0000e+00
       11 -1    0    0    0    0 -0.0000000000e+00 -0.0000000000e+00 -4.5593999997e+01 4.5594000000e+01 5.1100000000e-04 0.0000e+00 1.0000e+00
       23  2    1    2    0    0 +0.0000000000e+00 +0.0000000000e+00 +0.0000000000e+00 9.1188000000e+01 9.1188000000e+01 6.9472e-14 0.0000e+00
  9900012  1    3    3    0    0 +2.2056997496e+01 +2.1595754962e+01 +7.9895428252e+00 5.9301944028e+01 5.0000000000e+01 1.4524e-03 1.0000e+00
      -12  1    3    3    0    0 -2.2056997496e+01 -2.1595754962e+01 -7.9895428252e+00 3.1886055972e+01 0.0000000000e+00 0.0000e+00 1.0000e+00
</event>
<event>
 5      5 +1.7896800e-02 9.11880000e+01 7.81616400e-03 1.18400000e-01
      -11 -1    0    0    0    0 +0.0000000000e+00 +0.0000000000e+00 +4.5593999997e+01 4.5594000000e+01 5.1100000000e-04 0.0000e+00 1.0000e+00
       11 -1    0    0    0    0 -0.0000000000e+00 -0.0000000000e+00 -4.5593999997e+01 4.5594000000e+01 5.1100000000e-04 0.0000e+00 -1.0000e+00
       23  2    1    2    0    0 +0.0000000000e+00 +0.0000000000e+00 +0.0000000000e+00 9.1188000000e+01 9.1188000000e+01 1.8584e-13 0.0000e+00
  9900012  1    3    3    0    0 -1.9040333741e+00 -5.6657184789e+00 +3.1320837417e+01 5.9301944028e+01 5.0000000000e+01 2.2677e-05 1.0000e+00
       12  1    3    3    0    0 +1.9040333741e+00 +5.6657184789e+00 -3.1320837417e+01 3.1886055972e+01 0.0000000000e+00 0.0000e+00 -1.0000e+00
</event>
<event>
 5      7 +1.7896800e-02 9.11880000e+01 7.81616400e-03 1.18400000e-01
      -11 -1    0    0    0    0 +0.0000000000e+00 +0.0000000000e+00 +4.5593999997e+01 4.5594000000e+01 5.1100000000e-04 0.0000e+00 1.0000e+00
       11 -1    0    0    0    0 -0.0000000000e+00 -0.0000000000e+00 -4.5593999997e+01 4.5594000000e+01 5.1100000000e-04 0.0000e+00 -1.0000e+00
       23  2    1    2    0    0 +0.0000000000e+00 +0.0000000000e+00 +0.0000000000e+00 9.1188000000e+01 9.1188000000e+01 4.0746e-14 0.0000e+00
  9900012  1    3    3    0    0 -2.9803106194e+01 -5.3948261352e+00 -9.9695174234e+00 5.9301944028e+01 5.0000000000e+01 3.0763e-04 1.0000e+00
       12  1    3    3    0    0 +2.9803106194e+01 +5.3948261352e+00 +9.9695174234e+00 3.1886055972e+01 0.0000000000e+00 0.0000e+00 -1.0000e+00
</event>
<event>
 5      4 +1.7896800e-02 9.11880000e+01 7.81616400e-03 1.18400000e-01
      -11 -1    0    0    0    0 +0.0000000000e+00 +0.0000000000e+00 +4.5593999997e+01 4.5594000000e+01 5.1100000000e-04 0.0000e+00 -1.0000e+00
       11 -1    0    0    0    0 -0.0000000000e+00 -0.0000000000e+00 -4.5593999997e+01 4.5594000000e+01 5.1100000000e-04 0.0000e+00 1.0000e+00
       23  2    1    2    0    0 +0.0000000000e+00 +0.0000000000e+00 +0.0000000000e+00 9.1188000000e+01 9.1188000000e+01 3.5838e-16 0.0000e+00
  9900012  1    3    3    0    0 +9.5809277018e+00 +2.5678538242e+01 +1.6295369392e+01 5.9301944028e+01 5.0000000000e+01 4.7172e-04 1.0000e+00
      -12  1    3    3    0    0 -9.5809277018e+00 -2.5678538242e+01 -1.6295369392e+01 3.1886055972e+01 0.0000000000e+00 0.0000e+00 1.0000e+00
</event>
<event>
 5      4 +1.7896800e-02 9.11880000e+01 7.81616400e-03 1.18400000e-01
      -11 -1    0    0    0    0 +0.0000000000e+00 +0.0000000000e+00 +4.5593999997e+01 4.5594000000e+01 5.1100000000e-04 0.0000e+00 -1.0000e+00
       11 -1    0    0    0    0 -0.0000000000e+00 -0.0000000000e+00 -4.5593999997e+01 4.5594000000e+01 5.1100000000e-04 0.0000e+00 1.0000e+00
       23  2    1    2    0    0 +0.0000000000e+00 +0.0000000000e+00 +0.0000000000e+00 9.1188000000e+01 9.1188000000e+01 1.1459e-13 0.0000e+00
  9900012  1    3    3    0    0 -2.1461912815e+00 -2.6271376476e+01 +1.7942385753e+01 5.9301944028e+01 5.0000000000e+01 2.1516e-04 -1.0000e+00
      -12  1    3    3    0    0 +2.1461912815e+00 +2.6271376476e+01 -1.7942385753e+01 3.1886055972e+01 0.0000000000e+00 0.0000e+00 1.0000e+00
</event>
<event>
 5      8 +1.7896800e-02 9.11880000e+01 7.81616400e-03 1.18400000e-01
      -11 -1    0    0    0    0 +0.0000000000e+00 +0.0000000000e+00 +4.5593999997e+01 4.5594000000e+01 5.1100000000e-04 0.0000e+00 1.0000e+00
       11 -1    0    0    0    0 -0.0000000000e+00 -0.0000000000e+00 -4.5593999997e+01 4.5594000000e+01 5.1100000000e-04 0.0000e+00 -1.0000e+00
       23  2    1    2    0    0 +0.0000000000e+00 +0.0000000000e+00 +0.0000000000e+00 9.1188000000e+01 9.1188000000e+01 1.2556e-13 0.0000e+00
  9900012  1    3    3    0    0 +1.7656319565e+01 +2.5676148497e+01 +6.7609424806e+00 5.9301944028e+01 5.0000000000e+01 2.8722e-04 -1.0000e+00
      -12  1    3    3    0    0 -1.7656319565e+01 -2.5676148497e+01 -6.7609424806e+00 3.1886055972e+01 0.0000000000e+00 0.0000e+00 1.0000e+00
</event>
<event>
 5      2 +1.7896800e-02 9.11880000e+01 7.81616400e-03 1.18400000e-01
      -11 -1    0    0    0    0 +0.0000000000e+00 +0.0000000000e+00 +4.5593999997e+01 4.5594000000e+01 5.1100000000e-04 0.0000e+00 1.0000e+00
       11 -1    0    0    0    0 -0.0000000000e+00 -0.0000000000e+00 -4.5593999997e+01 4.5594000000e+01 5.1100000000e-04 0.0000e+00 -1.0000e+00
       23  2    1    2    0    0 +0.0000000000e+00 +0.0000000000e+00 +0.0000000000e+00 9.1188000000e+01 9.1188000000e+01 5.2024e-14 0.0000e+00
  9900012  1    3    3    0    0 +9.3397933616e+00 +1.0740668630e+01 -2.8532908418e+01 5.9301944028e+01 5.0000000000e+01 1.5165e-04 -1.0000e+00
      -12  1    3    3    0    0 -9.3397933616e+00 -1.0740668630e+01 +2.8532908418e+01 3.1886055972e+01 0.0000000000e+00 0.0000e+00 1.0000e+00
</event>
<event>
 5      1 +1.7896800e-02 9.11880000e+01 7.81616400e-03 1.18400000e-01
      -11 -1    0    0    0    0 +0.0000000000e+00 +0.0000000000e+00 +4.5593999997e+01 4.5594000000e+01 5.1100000000e-04 0.0000e+00 -1.0000e+00
       11 -1    0    0    0    0 -0.0000000000e+00 -0.0000000000e+00 -4.5593999997e+01 4.5594000000e+01 5.1100000000e-04 0.0000e+00 1.0000e+00
       23  2    1    2    0    0 +0.0000000000e+00 +0.0000000000e+00 +0.0000000000e+00 9.1188000000e+01 9.1188000000e+01 6.3319e-14 0.0000e+00
  9900012  1    3    3    0    0 +2.4851491023e+01 -8.3408607739e+00 -1.8153622254e+01 5.9301944028e+01 5.0000000000e+01 1.8617e-03 1.0000e+00
       12  1    3    3    0    0 -2.4851491023e+01 +8.3408607739e+00 +1.8153622254e+01 3.1886055972e+01 0.0000000000e+00 0.0000e+00 -1.0000e+00
</event>
<event>
 5      7 +1.7896800e-02 9.11880000e+01 7.81616400e-03 1.18400000e-01
      -11 -1    0    0    0    0 +0.0000000000e+00 +0.0000000000e+00 +4.5593999997e+01 4.5594000000e+01 5.1100000000e-04 0.0000e+00 -1.0000e+00
       11 -1    0    0    0    0 -0.0000000000e+00 -0.0000000000e+00 -4.5593999997e+01 4.5594000000e+01 5.1100000000e-04 0.0000e+00 1.0000e+00
       23  2    1    2    0    0 +0.0000000000e+00 +0.0000000000e+00 +0.0000000000e+00 9.1188000000e+01 9.1188000000e+01 1.7100e-13 0.0000e+00
  9900012  1    3    3    0    0 -2.9453605261e+01 -9.4380710669e+00 -7.7542580001e+00 5.9301944028e+01 5.0000000000e+01 1.5867e-04 1.0000e+00
       12  1    3    3    0    0 +2.9453605261e+01 +9.4380710669e+00 +7.7542580001e+00 3.1886055972e+01 0.0000000000e+00 0.0000e+00 -1.0000e+00
</event>
<event>
 5      5 +1.7896800e-02 9.11880000e+01 7.81616400e-03 1.18400000e-01
      -11 -1    0    0    0    0 +0.0000000000e+00 +0.0000000000e+00 +4.5593999997e+01 4.5594000000e+01 5.1100000000e-04 0.0000e+00 -1.0000e+00
       11 -1    0    0    0    0 -0.0000000000e+00 -0.0000000000e+00 -4.5593999997e+01 4.5594000000e+01 5.1100000000e-04 0.0000e+00 1.0000e+00
       23  2    1    2    0    0 +0.0000000000e+00 +0.0000000000e+00 +0.0000000000e+00 9.1188000000e+01 9.1188000000e+01 1.2703e-13 0.0000e+00
  9900012  1    3    3    0    0 -7.8964093897e+00 +4.5192251488e-01 -3.0889529784e+01 5.9301944028e+01 5.0000000000e+01 6.1256e-05 1.0000e+00
       12  1    3    3    0    0 +7.8964093897e+00 -4.5192251488e-01 +3.0889529784e+01 3.1886055972e+01 0.0000000000e+00 0.0000e+00 -1.0000e+00
</event>
<event>
 5      4 +1.7896800e-02 9.11880000e+01 7.81616400e-03 1.18400000e-01
      -11 -1    0    0    0    0 +0.0000000000e+00 +0.0000000000e+00 +4.5593999997e+01 4.5594000000e+01 5.1100000000e-04 0.0000e+00 1.0000e+00
       11 -1    0    0    0    0 -0.0000000000e+00 -0.0000000000e+00 -4.5593999997e+01 4.5594000000e+01 5.1100000000e-04 0.0000e+00 -1.0000e+00
       23  2    1    2    0    0 +0.0000000000e+00 +0.0000000000e+00 +0.0000000000e+00 9.1188000000e+01 9.1188000000e+01 1.0128e-13 0.0000e+00
  9900012  1    3    3    0    0 +1.5892837015e+01 -8.4995500981e+00 -2.6303915017e+01 5.9301944028e+01 5.0000000000e+01 9.9552e-04 -1.0000e+00
      -12  1    3    3    0    0 -1.5892837015e+01 +8.4995500981e+00 +2.6303915017e+01 3.1886055972e+01 0.0000000000e+00 0.0000e+00 1.0000e+00
</event>
<event>
 5      5 +1.7896800e-02 9.11880000e+01 7.81616400e-03 1.18400000e-01
      -11 -1    0    0    0    0 +0.0000000000e+00 +0.0000000000e+00 +4.5593999997e+01 4.5594000000e+01 5.1100000000e-04 0.0000e+00 1.0000e+00
       11 -1    0    0    0    0 -0.0000000000e+00 -0.0000000000e+00 -4.5593999997e+01 4.5594000000e+01 5.1100000000e-04 0.0000e+00 -1.0000e+00
       23  2    1    2    0    0 +0.0000000000e+00 +0.0000000000e+00 +0.0000000000e+00 9.1188000000e+01 9.1188000000e+01 3.5052e-14 0.0000e+00
  9900012  1    3    3    0    0 -6.5183017227e+00 +2.9548044816e+01 +1.0057104736e+01 5.9301944028e+01 5.0000000000e+01 3.5844e-04 1.0000e+00
       12  1    3    3    0    0 +6.5183017227e+00 -2.9548044816e+01 -1.0057104736e+01 3.1886055972e+01 0.0000000000e+00 0.0000e+00 -1.0000e+00
</event>
<event>
 5      2 +1.7896800e-02 9.11880000e+01 7.81616400e-03 1.18400000e-01
      -11 -1    0    0    0    0 +0.0000000000e+00 +0.0000000000e+00 +4.5593999997e+01 4.5594000000e+01 5.1100000000e-04 0.0000e+00 -1.0000e+00
       11 -1    0    0    0    0 -0.0000000000e+00 -0.0000000000e+00 -4.5593999997e+01 4.5594000000e+01 5.1100000000e-04 0.0000e+00 1.0000e+00
       23  2    1    2    0    0 +0.0000000000e+00 +0.0000000000e+00 +0.0000000000e+00 9.1188000000e+01 9.1188000000e+01 2.7830e-14 0.0000e+00
  9900012  1    3    3    0    0 -2.9962904802e+01 -7.6612000999e+00 +7.7621462448e+00 5.9301944028e+01 5.0000000000e+01 2.8777e-04 -1.0000e+00
      -12  1    3    3    0    0 +2.9962904802e+01 +7.6612000999e+00 -7.7621462448e+00 3.1886055972e+01 0.0000000000e+00 0.0000e+00 1.0000e+00
</event>
<event>
 5      2 +1.7896800e-02 9.11880000e+01 7.81616400e-03 1.18400000e-01
      -11 -1    0    0    0    0 +0.0000000000e+00 +0.0000000000e+00 +4.5593999997e+01 4.5594000000e+01 5.1100000000e-04 0.0000e+00 1.0000e+00
       11 -1    0    0    0    0 -0.0000000000e+00 -0.0000000000e+00 -4.5593999997e+01 4.5594000000e+01 5.1100000000e-04 0.0000e+00 -1.0000e+00
       23  2    1    2    0    0 +0.0000000000e+00 +0.0000000000e+00 +0.0000000000e+00 9.1188000000e+01 9.1188000000e+01 5.1076e-14 0.0000e+00
  9900012  1    3    3    0    0 +2.8370604357e+01 -1.4245162335e+01 -2.9840784013e+00 5.9301944028e+01 5.0000000000e+01 3.2445e-03 -1.0000e+00
      -12  1    3    3    0    0 -2.8370604357e+01 +1.4245162335e+01 +2.9840784013e+00 3.1886055972e+01 0.0000000000e+00 0.0000e+00 1.0000e+00
</event>
<event>
 5      1 +1.7896800e-02 9.11880000e+01 7.81616400e-03 1.18400000e-01
      -11 -1    0    0    0    0 +0.0000000000e+00 +0.0000000000e+00 +4.5593999997e+01 4.5594000000e+01 5.1100000000e-04 0.0000e+00 -1.0000e+00
       11 -1    0    0    0    0 -0.0000000000e+00 -0.0000000000e+00 -4.5593999997e+01 4.5594000000e+01 5.1100000000e-04 0.0000e+00 1.0000e+00
       23  2    1    2    0    0 +0.0000000000e+00 +0.0000000000e+00 +0.0000000000e+00 9.1188000000e+01 9.1188000000e+01 3.1038e-14 0.0000e+00
  9900012  1    3    3    0    0 -7.2055745031e+00 +2.4622895882e+01 -1.8934446385e+01 5.9301944028e+01 5.0000000000e+01 2.7114e-03 1.0000e+00
       12  1    3    3    0    0 +7.2055745031e+00 -2.4622895882e+01 +1.8934446385e+01 3.1886055972e+01 0.0000000000e+00 0.0000e+00 -1.0000e+00
</event>
<event>
 5      8 +1.7896800e-02 9.11880000e+01 7.81616400e-03 1.18400000e-01
      -11 -1    0    0    0    0 +0.0000000000e+00 +0.0000000000e+00 +4.5593999997e+01 4.5594000000e+01 5.1100000000e-04 0.0000e+00 1.0000e+00
       11 -1    0    0    0    0 -0.0000000000e+00 -0.0000000000e+00 -4.5593999997e+01 4.5594000000e+01 5.1100000000e-04 0.0000e+00 -1.0000e+00
       23  2    1    2    0    0 +0.0000000000e+00 +0.0000000000e+00 +0.0000000000e+00 9.1188000000e+01 9.1188000000e+01 7.9166e-15 0.0000e+00
  9900012  1    3    3    0    0 -1.9503368148e+01 +2.0449532810e-01 -2.5224935640e+01 5.9301944028e+01 5.0000000000e+01 1.4881e-04 -1.0000e+00
      -12  1    3    3    0    0 +1.9503368148e+01 -2.0449532810e-01 +2.5224935640e+01 3.1886055972e+01 0.0000000000e+00 0.0000e+00 1.0000e+00
</event>
<event>
 5      2 +1.7896800e-02 9.11880000e+01 7.81616400e-03 1.18400000e-01
      -11 -1    0    0    0    0 +0.0000000000e+00 +0.0000000000e+00 +4.5593999997e+01 4.5594000000e+01 5.1100000000e-04 0.0000e+00 -1.0000e+00
       11 -1    0    0    0    0 -0.0000000000e+00 -0.0000000000e+00 -4.5593999997e+01 4.5594000000e+01 5.1100000000e-04 0.0000e+00 1.0000e+00
       23  2    1    2    0    0 +0.0000000000e+00 +0.0000000000e+00 +0.0000000000e+00 9.1188000000e+01 9.1188000000e+01 3.7400e-14 0.0000e+00
  9900012  1    3    3    0    0 +1.8676793099e+00 +1.8233072065e+01 +2.6091903391e+01 5.9301944028e+01 5.0000000000e+01 2.9421e-04 -1.0000e+00
      -12  1    3    3    0    0 -1.8676793099e+00 -1.8233072065e+01 -2.6091903391e+01 3.1886055972e+01 0.0000000000e+00 0.0000e+00 1.0000e+00
</event>
<event>
 5      2 +1.7896800e-02 9.11880000e+01 7.81616400e-03 1.18400000e-01
      -11 -1    0    0    0    0 +0.0000000000e+00 +0.0000000000e+00 +4.5593999997e+01 4.5594000000e+01 5.1100000000e-04 0.0000e+00 -1.0000e+00
       11 -1    0    0    0    0 -0.0000000000e+00 -0.0000000000e+00 -4.5593999997e+01 4.5594000000e+01 5.1100000000e-04 0.0000e+00 1.0000e+00
       23  2    1    2    0    0 +0.0000000000e+00 +0.0000000000e+00 +0.0000000000e+00 9.1188000000e+01 9.1188000000e+01 9.0785e-14 0.0000e+00
  9900012  1    3    3    0    0 -2.1486048491e+01 +1.5883187959e+01 +1.7400994970e+01 5.9301944028e+01 5.0000000000e+01 1.0699e-03 -1.0000e+00
      -12  1    3    3    0    0 +2.1486048491e+01 -1.5883187959e+01 -1.7400994970e+01 3.1886055972e+01 0.0000000000e+00 0.0000e+00 1.0000e+00
</event>
<event>
 5      6 +1.7896800e-02 9.11880000e+01 7.81616400e-03 1.18400000e-01
      -11 -1    0    0    0    0 +0.0000000000e+00 +0.0000000000e+00 +4.5593999997e+01 4.5594000000e+01 5.1100000000e-04 0.0000e+00 -1.0000e+00
       11 -1    0    0    0    0 -0.0000000000e+00 -0.0000000000e+00 -4.5593999997e+01 4.5594000000e+01 5.1100000000e-04 0.0000e+00 1.0000e+00
       23  2    1    2    0    0 +0.0000000000e+00 +0.0000000000e+00 +0.0000000000e+00 9.1188000000e+01 9.1188000000e+01 7.4748e-14 0.0000e+00
  9900012  1    3    3    0    0 +2.5062076826e+01 -4.5467851700e+00 +1.9181752142e+01 5.9301944028e+01 5.0000000000e+01 7.4155e-04 -1.0000e+00
      -12  1    3    3    0    0 -2.5062076826e+01 +4.5467851700e+00 -1.9181752142e+01 3.1886055972e+01 0.0000000000e+00 0.0000e+00 1.0000e+00
</event>
<event>
 5      4 +1.7896800e-02 9.11880000e+01 7.81616400e-03 1.18400000e-01
      -11 -1    0    0    0    0 +0.0000000000e+00 +0.0000000000e+00 +4.5593999997e+01 4.5594000000e+01 5.1100000000e-04 0.0000e+00 -1.0000e+00
       11 -1    0    0    0    0 -0.0000000000e+00 -0.0000000000e+00 -4.5593999997e+01 4.5594000000e+01 5.1100000000e-04 0.0000e+00 1.0000e+00
       23  2    1    2    0    0 +0.0000000000e+00 +0.0000000000e+00 +0.0000000000e+00 9.1188000000e+01 9.1188000000e+01 1.5602e-13 0.0000e+00
  9900012  1    3    3    0    0 -2.7681669610e+00 -2.7665104735e+01 +1.5610887135e+01 5.9301944028e+01 5.0000000000e+01 1.0307e-03 -1.0000e+00
      -12  1    3    3    0    0 +2.7681669610e+00 +2.7665104735e+01 -1.5610887135e+01 3.1886055972e+01 0.0000000000e+00 0.0000e+00 1.0000e+00
</event>
<event>
 5      2 +1.7896800e-02 9.11880000e+01 7.81616400e-03 1.18400000e-01
      -11 -1    0    0    0    0 +0.0000000000e+00 +0.0000000000e+00 +4.5593999997e+01 4.5594000000e+01 5.1100000000e-04 0.0000e+00 1.0000e+00
       11 -1    0    0    0    0 -0.0000000000e+00 -0.0000000000e+00 -4.5593999997e+01 4.5594000000e+01 5.1100000000e-04 0.0000e+00 -1.0000e+00
       23  2    1    2    0    0 +0.0000000000e+00 +0.0000000000e+00 +0.0000000000e+00 9.1188000000e+01 9.1188000000e+01 4.9078e-14 0.0000e+00
  9900012  1    3    3    0    0 -5.2650283093e+00 -3.0718203883e+01 +6.7373579807e+00 5.9301944028e+01 5.0000000000e+01 4.2394e-03 -1.0000e+00
      -12  1    3    3    0    0 +5.2650283093e+00 +3.0718203883e+01 -6.7373579807e+00 3.1886055972e+01 0.0000000000e+00 0.0000e+00 1.0000e+00
</event>
<event>
 5      2 +1.7896800e-02 9.11880000e+01 7.81616400e-03 1.18400000e-01
      -11 -1    0    0    0    0 +0.0000000000e+00 +0.0000000000e+00 +4.5593999997e+01 4.5594000000e+01 5.1100000000e-04 0.0000e+00 1.0000e+00
       11 -1    0    0    0    0 -0.0000000000e+00 -0.0000000000e+00 -4.5593999997e+01 4.5594000000e+01 5.1100000000e-04 0.0000e+00 -1.0000e+00
       23  2    1    2    0    0 +0.0000000000e+00 +0.0000000000e+00 +0.0000000000e+00 9.1188000000e+01 9.1188000000e+01 1.2014e-14 0.0000e+00
  9900012  1    3    3    0    0 -3.1562699141e+01 +1.5022814623e+00 +4.2731415626e+00 5.9301944028e+01 5.0000000000e+01 1.4416e-04 1.0000e+00
      -12  1    3    3    0    0 +3.1562699141e+01 -1.5022814623e+00 -4.2731415626e+00 3.1886055972e+01 0.0000000000e+00 0.0000e+00 1.0000e+00
</event>
<event>
 5      6 +1.7896800e-02 9.11880000e+01 7.81616400e-03 1.18400000e-01
      -11 -1    0    0    0    0 +0.0000000000e+00 +0.0000000000e+00 +4.5593999997e+01 4.5594000000e+01 5.1100000000e-04 0.0000e+00 -1.0000e+00
       11 -1    0    0    0    0 -0.0000000000e+00 -0.0000000000e+00 -4.5593999997e+01 4.5594000000e+01 5.1100000000e-04 0.0000e+00 1.0000e+00
       23  2    1    2    0    0 +0.0000000000e+00 +0.0000000000e+00 +0.0000000000e+00 9.1188000000e+01 9.1188000000e+01 1.9014e-13 0.0000e+00
  9900012  1    3    3    0    0 +1.3143999524e+01 +4.0834078546e+00 +2.8762503755e+01 5.9301944028e+01 5.0000000000e+01 1.0850e-03 -1.0000e+00
      -12  1    3    3    0    0 -1.3143999524e+01 -4.0834078546e+00 -2.8762503755e+01 3.1886055972e+01 0.0000000000e+00 0.0000e+00 1.0000e+00
</event>
<event>
 5      1 +1.7896800e-02 9.11880000e+01 7.81616400e-03 1.18400000e-01
      -11 -1    0    0    0    0 +0.0000000000e+00 +0.0000000000e+00 +4.5593999997e+01 4.5594000000e+01 5.1100000000e-04 0.0000e+00 1.0000e+00
       11 -1    0    0    0    0 -0.0000000000e+00 -0.0000000000e+00 -4.5593999997e+01 4.5594000000e+01 5.1100000000e-04 0.0000e+00 -1.0000e+00
       23  2    1    2    0    0 +0.0000000000e+00 +0.0000000000e+00 +0.0000000000e+00 9.1188000000e+01 9.1188000000e+01 1.6952e-13 0.0000e+00
  9900012  1    3    3    0    0 -6.4599776663e+00 +1.3203519974e+01 +2.8295870976e+01 5.9301944028e+01 5.0000000000e+01 7.4371e-04 1.0000e+00
       12  1    3    3    0    0 +6.4599776663e+00 -1.3203519974e+01 -2.8295870976e+01 3.1886055972e+01 0.0000000000e+00 0.0000e+00 -1.0000e+00
</event>
<event>
 5      1 +1.7896800e-02 9.11880000e+01 7.81616400e-03 1.18400000e-01
      -11 -1    0    0    0    0 +0.0000000000e+00 +0.0000000000e+00 +4.5593999997e+01 4.5594000000e+01 5.1100000000e-04 0.0000e+00 1.0000e+00
       11 -1    0    0    0    0 -0.0000000000e+00 -0.0000000000e+00 -4.5593999997e+01 4.5594000000e+01 5.1100000000e-04 0.0000e+00 -1.0000e+00
       23  2    1    2    0    0 +0.0000000000e+00 +0.0000000000e+00 +0.0000000000e+00 9.1188000000e+01 9.1188000000e+01 4.3519e-14 0.0000e+00
  9900012  1    3    3    0    0 -6.0842183662e+00 -8.1053108423e-01 +3.1289709038e+01 5.9301944028e+01 5.0000000000e+01 4.3417e-05 1.0000e+00
       12  1    3    3    0    0 +6.0842183662e+00 +8.1053108423e-01 -3.1289709038e+01 3.1886055972e+01 0.0000000000e+00 0.0000e+00 -1.0000e+00
</event>
<event>
 5      8 +1.7896800e-02 9.11880000e+01 7.81616400e-03 1.18400000e-01
      -11 -1    0    0    0    0 +0.0000000000e+00 +0.0000000000e+00 +4.5593999997e+01 4.5594000000e+01 5.1100000000e-04 0.0000e+00 1.0000e+00
       11 -1    0    0    0    0 -0.0000000000e+00 -0.0000000000e+00 -4.5593999997e+01 4.5594000000e+01 5.1100000000e-04 0.0000e+00 -1.0000e+00
       23  2    1    2    0    0 +0.0000000000e+00 +0.0000000000e+00 +0.0000000000e+00 9.1188000000e+01 9.1188000000e+01 1.1906e-13 0.0000e+00
  9900012  1    3    3    0    0 +1.5943041515e+01 -1.9831892085e+01 -1.9215515840e+01 5.9301944028e+01 5.0000000000e+01 1.4623e-03 -1.0000e+00
      -12  1    3    3    0    0 -1.5943041515e+01 +1.9831892085e+01 +1.9215515840e+01 3.1886055972e+01 0.0000000000e+00 0.0000e+00 1.0000e+00
</event>
<event>
 5      7 +1.7896800e-02 9.11880000e+01 7.81616400e-03 1.18400000e-01
      -11 -1    0    0    0    0 +0.0000000000e+00 +0.0000000000e+00 +4.5593999997e+01 4.5594000000e+01 5.1100000000e-04 0.0000e+00 1.0000e+00
       11 -1    0    0    0    0 -0.0000000000e+00 -0.0000000000e+00 -4.5593999997e+01 4.5594000000e+01 5.1100000000e-04 0.0000e+00 -1.0000e+00
       23  2    1    2    0    0 +0.0000000000e+00 +0.0000000000e+00 +0.0000000000e+00 9.1188000000e+01 9.1188000000e+01 7.5831e-14 0.0000e+00
  9900012  1    3    3    0    0 +1.2378011238e+01 +1.8711585805e+01 +2.2657933708e+01 5.9301944028e+01 5.0000000000e+01 8.2891e-05 1.0000e+00
       12  1    3    3    0    0 -1.2378011238e+01 -1.8711585805e+01 -2.2657933708e+01 3.1886055972e+01 0.0000000000e+00 0.0000e+00 -1.0000e+00
</event>
<event>
 5      7 +1.7896800e-02 9.11880000e+01 7.81616400e-03 1.18400000e-01
      -11 -1    0    0    0    0 +0.0000000000e+00 +0.0000000000e+00 +4.5593999997e+01 4.5594000000e+01 5.1100000000e-04 0.0000e+00 1.0000e+00
       11 -1    0    0    0    0 -0.0000000000e+00 -0.0000000000e+00 -4.5593999997e+01 4.5594000000e+01 5.1100000000e-04 0.0000e+00 -1.0000e+00
       23  2    1    2    0    0 +0.0000000000e+00 +0.0000000000e+00 +0.0000000000e+00 9.1188000000e+01 9.1188000000e+01 5.3598e-14 0.0000e+00
  9900012  1    3    3    0    0 +2.2051958369e+01 -2.0486987084e-01 +2.3030191616e+01 5.9301944028e+01 5.0000000000e+01 9.6401e-04 -1.0000e+00
       12  1    3    3    0    0 -2.2051958369e+01 +2.0486987084e-01 -2.3030191616e+01 3.1886055972e+01 0.0000000000e+00 0.0000e+00 -1.0000e+00
</event>
<event>
 5      7 +1.7896800e-02 9.11880000e+01 7.81616400e-03 1.18400000e-01
      -11 -1    0    0    0    0 +0.0000000000e+00 +0.0000000000e+00 +4.5593999997e+01 4.5594000000e+01 5.1100000000e-04 0.0000e+00 -1.0000e+00
       11 -1    0    0    0    0 -0.0000000000e+00 -0.0000000000e+00 -4.5593999997e+01 4.5594000000e+01 5.1100000000e-04 0.0000e+00 1.0000e+00
       23  2    1    2    0    0 +0.0000000000e+00 +0.0000000000e+00 +0.0000000000e+00 9.1188000000e+01 9.1188000000e+01 1.3328e-13 0.0000e+00
  9900012  1    3    3    0    0 -1.1740018873e+01 +2.8946481742e+01 +6.4026336032e+00 5.9301944028e+01 5.0000000000e+01 2.5409e-03 -1.0000e+00
       12  1    3    3    0    0 +1.1740018873e+01 -2.8946481742e+01 -6.4026336032e+00 3.1886055972e+01 0.0000000000e+00 0.0000e+00 -1.0000e+00
</event>
<event>
 5      6 +1.7896800e-02 9.11880000e+01 7.81616400e-03 1.18400000e-01
      -11 -1    0    0    0    0 +0.0000000000e+00 +0.0000000000e+00 +4.5593999997e+01 4.5594000000e+01 5.1100000000e-04 0.0000e+00 1.0000e+00
       11 -1    0    0    0    0 -0.0000000000e+00 -0.0000000000e+00 -4.5593999997e+01 4.5594000000e+01 5.1100000000e-04 0.0000e+00 -1.0000e+00
       23  2    1    2    0    0 +0.0000000000e+00 +0.0000000000e+00 +0.0000000000e+00 9.1188000000e+01 9.1188000000e+01 6.1477e-14 0.0000e+00
  9900012  1    3    3    0    0 +1.9523985858e+01 +1.1225950114e+01 -2.2572385468e+01 5.9301944028e+01 5.0000000000e+01 4.6407e-05 1.0000e+00
      -12  1    3    3    0    0 -1.9523985858e+01 -1.1225950114e+01 +2.2572385468e+01 3.1886055972e+01 0.0000000000e+00 0.0000e+00 1.0000e+00
</event>
<event>
 5      4 +1.7896800e-02 9.11880000e+01 7.81616400e-03 1.18400000e-01
      -11 -1    0    0    0    0 +0.0000000000e+00 +0.0000000000e+00 +4.5593999997e+01 4.5594000000e+01 5.1100000000e-04 0.0000e+00 1.0000e+00
       11 -1    0    0    0    0 -0.0000000000e+00 -0.0000000000e+00 -4.5593999997e+01 4.5594000000e+01 5.1100000000e-04 0.0000e+00 -1.0000e+00
       23  2    1    2    0    0 +0.0000000000e+00 +0.0000000000e+00 +0.0000000000e+00 9.1188000000e+01 9.1188000000e+01 6.1864e-14 0.0000e+00
  9900012  1    3    3    0    0 +1.4670626612e+01 -1.3903894706e+01 -2.4661204194e+01 5.9301944028e+01 5.0000000000e+01 1.6822e-04 -1.0000e+00
      -12  1    3    3    0    0 -1.4670626612e+01 +1.3903894706e+01 +2.4661204194e+01 3.1886055972e+01 0.0000000000e+00 0.0000e+00 1.0000e+00
</event>
<event>
 5      4 +1.7896800e-02 9.11880000e+01 7.81616400e-03 1.18400000e-01
      -11 -1    0    0    0    0 +0.0000000000e+00 +0.0000000000e+00 +4.5593999997e+01 4.5594000000e+01 5.1100000000e-04 0.0000e+00 1.0000e+00
       11 -1    0    0    0    0 -0.0000000000e+00 -0.0000000000e+00 -4.5593999997e+01 4.5594000000e+01 5.1100000000e-04 0.0000e+00 -1.0000e+00
       23  2    1    2    0    0 +0.0000000000e+00 +0.0000000000e+00 +0.0000000000e+00 9.1188000000e+01 9.1188000000e+01 6.4140e-14 0.0000e+00
  9900012  1    3    3    0    0 +5.5134699552e+00 +4.5367850713e+00 -3.1076354286e+01 5.9301944028e+01 5.0000000000e+01 4.8223e-05 -1.0000e+00
      -12  1    3    3    0    0 -5.5134699552e+00 -4.5367850713e+00 +3.1076354286e+01 3.1886055972e+01 0.0000000000e+00 0.0000e+00 1.0000e+00
</event>
<event>
 5      3 +1.7896800e-02 9.11880000e+01 7.81616400e-03 1.18400000e-01
      -11 -1    0    0    0    0 +0.0000000000e+00 +0.0000000000e+00 +4.5593999997e+01 4.5594000000e+01 5.1100000000e-04 0.0000e+00 -1.0000e+00
       11 -1    0    0    0    0 -0.0000000000e+00 -0.0000000000e+00 -4.5593999997e+01 4.5594000000e+01 5.1100000000e-04 0.0000e+00 1.0000e+00
       23  2    1    2    0    0 +0.0000000000e+00 +0.0000000000e+00 +0.0000000000e+00 9.1188000000e+01 9.1188000000e+01 1.7488e-14 0.0000e+00
  9900012  1    3    3    0    0 -3.0134164277e+01 -1.0004769801e+01 -2.9252846088e+00 5.9301944028e+01 5.0000000000e+01 6.0055e-04 1.0000e+00
       12  1    3    3    0    0 +3.0134164277e+01 +1.0004769801e+01 +2.9252846088e+00 3.1886055972e+01 0.0000000000e+00 0.0000e+00 -1.0000e+00
</event>
<event>
 5      5 +1.7896800e-02 9.11880000e+01 7.81616400e-03 1.18400000e-01
      -11 -1    0    0    0    0 +0.0000000000e+00 +0.0000000000e+00 +4.5593999997e+01 4.5594000000e+01 5.1100000000e-04 0.0000e+00 -1.0000e+00
       11 -1    0    0    0    0 -0.0000000000e+00 -0.0000000000e+00 -4.5593999997e+01 4.5594000000e+01 5.1100000000e-04 0.0000e+00 1.0000e+00
       23  2    1    2    0    0 +0.0000000000e+00 +0.0000000000e+00 +0.0000000000e+00 9.1188000000e+01 9.1188000000e+01 4.0779e-15 0.0000e+00
  9900012  1    3    3    0    0 -6.4541531769e+00 -2.4228951062e+00 -3.1131881593e+01 5.9301944028e+01 5.0000000000e+01 4.2762e-04 1.0000e+00
       12  1    3    3    0    0 +6.4541531769e+00 +2.4228951062e+00 +3.1131881593e+01 3.1886055972e+01 0.0000000000e+00 0.0000e+00 -1.0000e+00
</event>
<event>
 5      3 +1.7896800e-02 9.11880000e+01 7.81616400e-03 1.18400000e-01
      -11 -1    0    0    0    0 +0.0000000000e+00 +0.0000000000e+00 +4.5593999997e+01 4.5594000000e+01 5.1100000000e-04 0.0000e+00 1.0000e+00
       11 -1    0    0    0    0 -0.0000000000e+00 -0.0000000000e+00 -4.5593999997e+01 4.5594000000e+01 5.1100000000e-04 0.0000e+00 -1.0000e+00
       23  2    1    2    0    0 +0.0000000000e+00 +0.0000000000e+00 +0.0000000000e+00 9.1188000000e+01 9.1188000000e+01 1.7468e-13 0.0000e+00
  9900012  1    3    3    0    0 +2.4284892439e+01 +2.0054425187e+01 -4.9784129124e+00 5.9301944028e+01 5.0000000000e+01 3.7420e-04 1.0000e+00
       12  1    3    3    0    0 -2.4284892439e+01 -2.0054425187e+01 +4.9784129124e+00 3.1886055972e+01 0.0000000000e+00 0.0000e+00 -1.0000e+00
</event>
<event>
 5      1 +1.7896800e-02 9.11880000e+01 7.81616400e-03 1.18400000e-01
      -11 -1    0    0    0    0 +0.0000000000e+00 +0.0000000000e+00 +4.5593999997e+01 4.5594000000e+01 5.1100000000e-04 0.0000e+00 1.0000e+00
       11 -1    0    0    0    0 -0.0000000000e+00 -0.0000000000e+00 -4.5593999997e+01 4.5594000000e+01 5.1100000000e-04 0.0000e+00 -1.0000e+00
       23  2    1    2    0    0 +0.0000000000e+00 +0.0000000000e+00 +0.0000000000e+00 9.1188000000e+01 9.1188000000e+01 8.6989e-16 0.0000e+00
  9900012  1    3    3    0    0 -2.3222075112e+01 +1.5955431175e+01 -1.4929166386e+01 5.9301944028e+01 5.0000000000e+01 1.5293e-04 -1.0000e+00
       12  1    3    3    0    0 +2.3222075112e+01 -1.5955431175e+01 +1.4929166386e+01 3.1886055972e+01 0.0000000000e+00 0.0000e+00 -1.0000e+00
</event>
<event>
 5      5 +1.7896800e-02 9.11880000e+01 7.81616400e-03 1.18400000e-01
      -11 -1    0    0    0    0 +0.0000000000e+00 +0.0000000000e+00 +4.5593999997e+01 4.5594000000e+01 5.1100000000e-04 0.0000e+00 -1.0000e+00
       11 -1    0    0    0    0 -0.0000000000e+00 -0.0000000000e+00 -4.5593999997e+01 4.5594000000e+01 5.1100000000e-04 0.0000e+00 1.0000e+00
       23  2    1    2    0    0 +0.0000000000e+00 +0.0000000000e+00 +0.0000000000e+00 9.1188000000e+01 9.1188000000e+01 7.3270e-14 0.0000e+00
  9900012  1    3    3    0    0 -1.0948010571e+01 +2.5592994184e+01 -1.5551857726e+01 5.9301944028e+01 5.0000000000e+01 5.5598e-05 -1.0000e+00
       12  1    3    3    0    0 +1.0948010571e+01 -2.5592994184e+01 +1.5551857726e+01 3.1886055972e+01 0.0000000000e+00 0.0000e+00 -1.0000e+00
</event>
<event>
 5      4 +1.7896800e-02 9.11880000e+01 7.81616400e-03 1.18400000e-01
      -11 -1    0    0    0    0 +0.0000000000e+00 +0.0000000000e+00 +4.5593999997e+01 4.5594000000e+01 5.1100000000e-04 0.0000e+00 1.0000e+00
       11 -1    0    0    0    0 -0.0000000000e+00 -0.0000000000e+00 -4.5593999997e+01 4.5594000000e+01 5.1100000000e-04 0.0000e+00 -1.0000e+00
       23  2    1    2    0    0 +0.0000000000e+00 +0.0000000000e+00 +0.0000000000e+00 9.1188000000e+01 9.1188000000e+01 4.6630e-14 0.0000e+00
  9900012  1    3    3    0    0 +2.2736120197e+00 +3.1739772847e+01 -2.0342255249e+00 5.9301944028e+01 5.0000000000e+01 7.0825e-04 -1.0000e+00
      -12  1    3    3    0    0 -2.2736120197e+00 -3.1739772847e+01 +2.0342255249e+00 3.1886055972e+01 0.0000000000e+00 0.0000e+00 1.0000e+00
</event>
<event>
 5      1 +1.7896800e-02 9.11880000e+01 7.81616400e-03 1.18400000e-01
      -11 -1    0    0    0    0 +0.0000000000e+00 +0.0000000000e+00 +4.5593999997e+01 4.5594000000e+01 5.1100000000e-04 0.0000e+00 1.0000e+00
       11 -1    0    0    0    0 -0.0000000000e+00 -0.0000000000e+00 -4.5593999997e+01 4.5594000000e+01 5.1100000000e-04 0.0000e+00 -1.0000e+00
       23  2    1    2    0    0 +0.0000000000e+00 +0.0000000000e+00 +0.0000000000e+00 9.1188000000e+01 9.1188000000e+01 1.7829e-13 0.0000e+00
  9900012  1    3    3    0    0 -2.3954309127e+01 +1.2799765819e+01 +1.6705616861e+01 5.9301944028e+01 5.0000000000e+01 4.1778e-05 1.0000e+00
       12  1    3    3    0    0 +2.3954309127e+01 -1.2799765819e+01 -1.6705616861e+01 3.1886055972e+01 0.0000000000e+00 0.0000e+00 -1.0000e+00
</event>
<event>
 5      4 +1.7896800e-02 9.11880000e+01 7.81616400e-03 1.18400000e-01
      -11 -1    0    0    0    0 +0.0000000000e+00 +0.0000000000e+00 +4.5593999997e+01 4.5594000000e+01 5.1100000000e-04 0.0000e+00 1.0000e+00
       11 -1    0    0    0    0 -0.0000000000e+00 -0.0000000000e+00 -4.5593999997e+01 4.5594000000e+01 5.1100000000e-04 0.0000e+00 -1.0000e+00
       23  2    1    2    0    0 +0.0000000000e+00 +0.0000000000e+00 +0.0000000000e+00 9.1188000000e+01 9.1188000000e+01 9.5417e-15 0.0000e+00
  9900012  1    3    3    0    0 -1.6895932420e+01 +2.1963596050e+01 -1.5774932066e+01 5.9301944028e+01 5.0000000000e+01 7.3484e-04 -1.0000e+00
      -12  1    3    3    0    0 +1.6895932420e+01 -2.1963596050e+01 +1.5774932066e+01 3.1886055972e+01 0.0000000000e+00 0.0000e+00 1.0000e+00
</event>
<event>
 5      6 +1.7896800e-02 9.11880000e+01 7.81616400e-03 1.18400000e-01
      -11 -1    0    0    0    0 +0.0000000000e+00 +0.0000000000e+00 +4.5593999997e+01 4.5594000000e+01 5.1100000000e-04 0.0000e+00 -1.0000e+00
       11 -1    0    0    0    0 -0.0000000000e+00 -0.0000000000e+00 -4.5593999997e+01 4.5594000000e+01 5.1100000000e-04 0.0000e+00 1.0000e+00
       23  2    1    2    0    0 +0.0000000000e+00 +0.0000000000e+00 +0.0000000000e+00 9.1188000000e+01 9.1188000000e+01 1.3091e-13 0.0000e+00
  9900012  1    3    3    0    0 +1.3552842616e+01 +7.7726568111e+00 +2.7796165717e+01 5.9301944028e+01 5.0000000000e+01 3.1699e-04 -1.0000e+00
      -12  1    3    3    0    0 -1.3552842616e+01 -7.7726568111e+00 -2.7796165717e+01 3.1886055972e+01 0.0000000000e+00 0.0000e+00 1.0000e+00
</event>
<event>
 5      1 +1.7896800e-02 9.11880000e+01 7.81616400e-03 1.18400000e-01
      -11 -1    0    0    0    0 +0.0000000000e+00 +0.0000000000e+00 +4.5593999997e+01 4.5594000000e+01 5.1100000000e-04 0.0000e+00 -1.0000e+00
       11 -1    0    0    0    0 -0.0000000000e+00 -0.0000000000e+00 -4.5593999997e+01 4.5594000000e+01 5.1100000000e-04 0.0000e+00 1.0000e+00
       23  2    1    2    0    0 +0.0000000000e+00 +0.0000000000e+00 +0.0000000000e+00 9.1188000000e+01 9.1188000000e+01 1.0132e-13 0.0000e+00
  9900012  1    3    3    0    0 -2.9089834503e+01 -5.3006583329e+00 +1.1933361442e+01 5.9301944028e+01 5.0000000000e+01 3.3760e-04 1.0000e+00
       12  1    3    3    0    0 +2.9089834503e+01 +5.3006583329e+00 -1.1933361442e+01 3.1886055972e+01 0.0000000000e+00 0.0000e+00 -1.0000e+00
</event>
<event>
 5      4 +1.7896800e-02 9.11880000e+01 7.81616400e-03 1.18400000e-01
      -11 -1    0    0    0    0 +0.0000000000e+00 +0.0000000000e+00 +4.5593999997e+01 4.5594000000e+01 5.1100000000e-04 0.0000e+00 -1.0000e+00
       11 -1    0    0    0    0 -0.0000000000e+00 -0.0000000000e+00 -4.5593999997e+01 4.5594000000e+01 5.1100000000e-04 0.0000e+00 1.0000e+00
       23  2    1    2    0    0 +0.0000000000e+00 +0.0000000000e+00 +0.0000000000e+00 9.1188000000e+01 9.1188000000e+01 4.2997e-14 0.0000e+00
  9900012  1    3    3    0    0 -2.1849967578e+01 -2.1109054850e+01 -9.6802523537e+00 5.9301944028e+01 5.0000000000e+01 1.0590e-04 -1.0000e+00
      -12  1    3    3    0    0 +2.1849967578e+01 +2.1109054850e+01 +9.6802523537e+00 3.1886055972e+01 0.0000000000e+00 0.0000e+00 1.0000e+00
</event>
<event>
 5      1 +1.7896800e-02 9.11880000e+01 7.81616400e-03 1.18400000e-01
      -11 -1    0    0    0    0 +0.0000000000e+00 +0.0000000000e+00 +4.5593999997e+01 4.5594000000e+01 5.1100000000e-04 0.0000e+00 1.0000e+00
       11 -1    0    0    0    0 -0.0000000000e+00 -0.0000000000e+00 -4.5593999997e+01 4.5594000000e+01 5.1100000000e-04 0.0000e+00 -1.0000e+00
       23  2    1    2    0    0 +0.0000000000e+00 +0.0000000000e+00 +0.0000000000e+00 9.1188000000e+01 9.1188000000e+01 2.6531e-14 0.0000e+00
  9900012  1    3    3    0    0 -2.1623894596e+01 +6.2275818218e+00 +2.2590816112e+01 5.9301944028e+01 5.0000000000e+01 1.2068e-04 1.0000e+00
       12  1    3    3    0    0 +2.1623894596e+01 -6.2275818218e+00 -2.2590816112e+01 3.1886055972e+01 0.0000000000e+00 0.0000e+00 -1.0000e+00
</event>
<event>
 5      1 +1.7896800e-02 9.11880000e+01 7.81616400e-03 1.18400000e-01
      -11 -1    0    0    0    0 +0.0000000000e+00 +0.0000000000e+00 +4.5593999997e+01 4.5594000000e+01 5.1100000000e-04 0.0000e+00 -1.0000e+00
       11 -1    0    0    0    0 -0.0000000000e+00 -0.0000000000e+00 -4.5593999997e+01 4.5594000000e+01 5.1100000000e-04 0.0000e+00 1.0000e+00
       23  2    1    2    0    0 +0.0000000000e+00 +0.0000000000e+00 +0.0000000000e+00 9.1188000000e+01 9.1188000000e+01 1.2987e-14 0.0000e+00
  9900012  1    3    3    0    0 -2.7466639470e+01 -1.4117147319e+01 +7.9379111391e+00 5.9301944028e+01 5.0000000000e+01 3.2474e-03 1.0000e+00
       12  1    3    3    0    0 +2.7466639470e+01 +1.4117147319e+01 -7.9379111391e+00 3.1886055972e+01 0.0000000000e+00 0.0000e+00 -1.0000e+00
</event>
<event>
 5      8 +1.7896800e-02 9.11880000e+01 7.81616400e-03 1.18400000e-01
      -11 -1    0    0    0    0 +0.0000000000e+00 +0.0000000000e+00 +4.5593999997e+01 4.5594000000e+01 5.1100000000e-04 0.0000e+00 1.0000e+00
       11 -1    0    0    0    0 -0.0000000000e+00 -0.0000000000e+00 -4.5593999997e+01 4.5594000000e+01 5.1100000000e-04 0.0000e+00 -1.0000e+00
       23  2    1    2    0    0 +0.0000000000e+00 +0.0000000000e+00 +0.0000000000e+00 9.1188000000e+01 9.1188000000e+01 1.9546e-14 0.0000e+00
  9900012  1    3    3    0    0 -8.1907995577e+00 +2.8809424569e+01 +1.0938392206e+01 5.9301944028e+01 5.0000000000e+01 7.0438e-06 -1.0000e+00
      -12  1    3    3    0    0 +8.1907995577e+00 -2.8809424569e+01 -1.0938392206e+01 3.1886055972e+01 0.0000000000e+00 0.0000e+00 1.0000e+00
</event>
<event>
 5      2 +1.7896800e-02 9.11880000e+01 7.81616400e-03 1.18400000e-01
      -11 -1    0    0    0    0 +0.0000000000e+00 +0.0000000000e+00 +4.5593999997e+01 4.5594000000e+01 5.1100000000e-04 0.0000e+00 1.0000e+00
       11 -1    0    0    0    0 -0.0000000000e+00 -0.0000000000e+00 -4.5593999997e+01 4.5594000000e+01 5.1100000000e-04 0.0000e+00 -1.0000e+00
       23  2    1    2    0    0 +0.0000000000e+00 +0.0000000000e+00 +0.0000000000e+00 9.1188000000e+01 9.1188000000e+01 2.9878e-14 0.0000e+00
  9900012  1    3    3    0    0 -3.0339854120e+01 +5.8858084776e+00 -7.8467239035e+00 5.9301944028e+01 5.0000000000e+01 4.6168e-05 1.0000e+00
      -12  1    3    3    0    0 +3.0339854120e+01 -5.8858084776e+00 +7.8467239035e+00 3.1886055972e+01 0.0000000000e+00 0.0000e+00 1.0000e+00
</event>
<event>
 5      1 +1.7896800e-02 9.11880000e+01 7.81616400e-03 1.18400000e-01
      -11 -1    0    0    0    0 +0.0000000000e+00 +0.0000000000e+00 +4.5593999997e+01 4.5594000000e+01 5.1100000000e-04 0.0000e+00 -1.0000e+00
       11 -1    0    0    0    0 -0.0000000000e+00 -0.0000000000e+00 -4.5593999997e+01 4.5594000000e+01 5.1100000000e-04 0.0000e+00 1.0000e+00
       23  2    1    2    0    0 +0.0000000000e+00 +0.0000000000e+00 +0.0000000000e+00 9.1188000000e+01 9.1188000000e+01 7.8552e-15 0.0000e+00
  9900012  1    3    3    0    0 -6.5352175802e+00 -1.0357004896e+01 -2.9440515387e+01 5.9301944028e+01 5.0000000000e+01 2.6751e-04 1.0000e+00
       12  1    3    3    0    0 +6.5352175802e+00 +1.0357004896e+01 +2.9440515387e+01 3.1886055972e+01 0.0000000000e+00 0.0000e+00 -1.0000e+00
</event>
<event>
 5      8 +1.7896800e-02 9.11880000e+01 7.81616400e-03 1.18400000e-01
      -11 -1    0    0    0    0 +0.0000000000e+00 +0.0000000000e+00 +4.5593999997e+01 4.5594000000e+01 5.1100000000e-04 0.0000e+00 1.0000e+00
       11 -1    0    0    0    0 -0.0000000000e+00 -0.0000000000e+00 -4.5593999997e+01 4.5594000000e+01 5.1100000000e-04 0.0000e+00 -1.0000e+00
       23  2    1    2    0    0 +0.0000000000e+00 +0.0000000000e+00 +0.0000000000e+00 9.1188000000e+01 9.1188000000e+01 1.8289e-13 0.0000e+00
  9900012  1    3    3    0    0 +1.6005212046e+01 +1.1571382056e+01 -2.5033115470e+01 5.9301944028e+01 5.0000000000e+01 5.9400e-04 -1.0000e+00
      -12  1    3    3    0    0 -1.6005212046e+01 -1.1571382056e+01 +2.5033115470e+01 3.1886055972e+01 0.0000000000e+00 0.0000e+00 1.0000e+00
</event>
<event>
 5      3 +1.7896800e-02 9.11880000e+01 7.81616400e-03 1.18400000e-01
      -11 -1    0    0    0    0 +0.0000000000e+00 +0.0000000000e+00 +4.5593999997e+01 4.5594000000e+01 5.1100000000e-04 0.0000e+00 1.0000e+00
       11 -1    0    0    0    0 -0.0000000000e+00 -0.0000000000e+00 -4.5593999997e+01 4.5594000000e+01 5.1100000000e-04 0.0000e+00 -1.0000e+00
       23  2    1    2    0    0 +0.0000000000e+00 +0.0000000000e+00 +0.0000000000e+00 9.1188000000e+01 9.1188000000e+01 4.8994e-14 0.0000e+00
  9900012  1    3    3    0    0 +2.3994847568e+01 +9.5031998813e+00 +1.8725839038e+01 5.9301944028e+01 5.0000000000e+01 2.1583e-04 1.0000e+00
       12  1    3    3    0    0 -2.3994847568e+01 -9.5031998813e+00 -1.8725839038e+01 3.1886055972e+01 0.0000000000e+00 0.0000e+00 -1.0000e+00
</event>
<event>
 5      1 +1.7896800e-02 9.11880000e+01 7.81616400e-03 1.18400000e-01
      -11 -1    0    0    0    0 +0.0000000000e+00 +0.0000000000e+00 +4.5593999997e+01 4.5594000000e+01 5.1100000000e-04 0.0000e+00 -1.0000e+00
       11 -1    0    0    0    0 -0.0000000000e+00 -0.0000000000e+00 -4.5593999997e+01 4.5594000000e+01 5.1100000000e-04 0.0000e+00 1.0000e+00
       23  2    1    2    0    0 +0.0000000000e+00 +0.0000000000e+00 +0.0000000000e+00 9.1188000000e+01 9.1188000000e+01 1.1841e-13 0.0000e+00
  9900012  1    3    3    0    0 +2.4610762199e+01 +1.0643733007e+01 -1.7255199133e+01 5.9301944028e+01 5.0000000000e+01 6.0695e-06 1.0000e+00
       12  1    3    3    0    0 -2.4610762199e+01 -1.0643733007e+01 +1.7255199133e+01 3.1886055972e+01 0.0000000000e+00 0.0000e+00 -1.0000e+00
</event>
<event>
 5      4 +1.7896800e-02 9.11880000e+01 7.81616400e-03 1.18400000e-01
      -11 -1    0    0    0    0 +0.0000000000e+00 +0.0000000000e+00 +4.5593999997e+01 4.5594000000e+01 5.1100000000e-04 0.0000e+00 1.0000e+00
       11 -1    0    0    0    0 -0.0000000000e+00 -0.0000000000e+00 -4.5593999997e+01 4.5594000000e+01 5.1100000000e-04 0.0000e+00 -1.0000e+00
       23  2    1    2    0    0 +0.0000000000e+00 +0.0000000000e+00 +0.0000000000e+00 9.1188000000e+01 9.1188000000e+01 7.8557e-15 0.0000e+00
  9900012  1    3    3    0    0 +1.0072052699e+01 +2.7939953824e+01 -1.1603159063e+01 5.9301944028e+01 5.0000000000e+01 1.5539e-04 -1.0000e+00
      -12  1    3    3    0    0 -1.0072052699e+01 -2.7939953824e+01 +1.1603159063e+01 3.1886055972e+01 0.0000000000e+00 0.0000e+00 1.0000e+00
</event>
<event>
 5      8 +1.7896800e-02 9.11880000e+01 7.81616400e-03 1.18400000e-01
      -11 -1    0    0    0    0 +0.0000000000e+00 +0.0000000000e+00 +4.5593999997e+01 4.5594000000e+01 5.1100000000e-04 0.0000e+00 1.0000e+00
       11 -1    0    0    0    0 -0.0000000000e+00 -0.0000000000e+00 -4.5593999997e+01 4.5594000000e+01 5.1100000000e-04 0.0000e+00 -1.0000e+00
       23  2    1    2    0    0 +0.0000000000e+00 +0.0000000000e+00 +0.0000000000e+00 9.1188000000e+01 9.1188000000e+01 3.3763e-14 0.0000e+00
  9900012  1    3    3    0    0 -5.0119098814e+00 -2.3472632569e+01 -2.0991351673e+01 5.9301944028e+01 5.0000000000e+01 2.4906e-05 -1.0000e+00
      -12  1    3    3    0    0 +5.0119098814e+00 +2.3472632569e+01 +2.0991351673e+01 3.1886055972e+01 0.0000000000e+00 0.0000e+00 1.0000e+00
</event>
<event>
 5      6 +1.7896800e-02 9.11880000e+01 7.81616400e-03 1.18400000e-01
      -11 -1    0    0    0    0 +0.0000000000e+00 +0.0000000000e+00 +4.5593999997e+01 4.5594000000e+01 5.1100000000e-04 0.0000e+00 1.0000e+00
       11 -1    0    0    0    0 -0.0000000000e+00 -0.0000000000e+00 -4.5593999997e+01 4.5594000000e+01 5.1100000000e-04 0.0000e+00 -1.0000e+00
       23  2    1    2    0    0 +0.0000000000e+00 +0.0000000000e+00 +0.0000000000e+00 9.1188000000e+01 9.1188000000e+01 7.8990e-14 0.0000e+00
  9900012  1    3    3    0    0 +1.2963327901e+01 -2.0373939774e+01 -2.0822470393e+01 5.9301944028e+01 5.0000000000e+01 1.3667e-03 1.0000e+00
      -12  1    3    3    0    0 -1.2963327901e+01 +2.0373939774e+01 +2.0822470393e+01 3.1886055972e+01 0.0000000000e+00 0.0000e+00 1.0000e+00
</event>
<event>
 5      1 +1.7896800e-02 9.11880000e+01 7.81616400e-03 1.18400000e-01
      -11 -1    0    0    0    0 +0.0000000000e+00 +0.0000000000e+00 +4.5593999997e+01 4.5594000000e+01 5.1100000000e-04 0.0000e+00 1.0000e+00
       11 -1    0    0    0    0 -0.0000000000e+00 -0.0000000000e+00 -4.5593999997e+01 4.5594000000e+01 5.1100000000e-04 0.0000e+00 -1.0000e+00
       23  2    1    2    0    0 +0.0000000000e+00 +0.0000000000e+00 +0.0000000000e+00 9.1188000000e+01 9.1188000000e+01 1.6271e-14 0.0000e+00
  9900012  1    3    3    0    0 +5.4319296570e+00 +5.8343172584e+00 +3.0873539606e+01 5.9301944028e+01 5.0000000000e+01 7.4653e-04 1.0000e+00
       12  1    3    3    0    0 -5.4319296570e+00 -5.8343172584e+00 -3.0873539606e+01 3.1886055972e+01 0.0000000000e+00 0.0000e+00 -1.0000e+00
</event>
<event>
 5      8 +1.7896800e-02 9.11880000e+01 7.81616400e-03 1.18400000e-01
      -11 -1    0    0    0    0 +0.0000000000e+00 +0.0000000000e+00 +4.5593999997e+01 4.5594000000e+01 5.1100000000e-04 0.0000e+00 -1.0000e+00
       11 -1    0    0    0    0 -0.0000000000e+00 -0.0000000000e+00 -4.5593999997e+01 4.5594000000e+01 5.1100000000e-04 0.0000e+00 1.0000e+00
       23  2    1    2    0    0 +0.0000000000e+00 +0.0000000000e+00 +0.0000000000e+00 9.1188000000e+01 9.1188000000e+01 1.9469e-14 0.0000e+00
  9900012  1    3    3    0    0 +8.4075686537e+00 +2.9062161426e+01 +1.0070954674e+01 5.9301944028e+01 5.0000000000e+01 1.1343e-03 -1.0000e+00
      -12  1    3    3    0    0 -8.4075686537e+00 -2.9062161426e+01 -1.0070954674e+01 3.1886055972e+01 0.0000000000e+00 0.0000e+00 1.0000e+00
</event>
<event>
 5      3 +1.7896800e-02 9.11880000e+01 7.81616400e-03 1.18400000e-01
      -11 -1    0    0    0    0 +0.0000000000e+00 +0.0000000000e+00 +4.5593999997e+01 4.5594000000e+01 5.1100000000e-04 0.0000e+00 -1.0000e+00
       11 -1    0    0    0    0 -0.0000000000e+00 -0.0000000000e+00 -4.5593999997e+01 4.5594000000e+01 5.1100000000e-04 0.0000e+00 1.0000e+00
       23  2    1    2    0    0 +0.0000000000e+00 +0.0000000000e+00 +0.0000000000e+00 9.1188000000e+01 9.1188000000e+01 5.1524e-14 0.0000e+00
  9900012  1    3    3    0    0 +5.5407413467e+00 +2.4964849494e+00 -3.1301570467e+01 5.9301944028e+01 5.0000000000e+01 2.8812e-03 1.0000e+00
       12  1    3    3    0    0 -5.5407413467e+00 -2.4964849494e+00 +3.1301570467e+01 3.1886055972e+01 0.0000000000e+00 0.0000e+00 -1.0000e+00
</event>
<event>
 5      4 +1.7896800e-02 9.11880000e+01 7.81616400e-03 1.18400000e-01
      -11 -1    0    0    0    0 +0.0000000000e+00 +0.0000000000e+00 +4.5593999997e+01 4.5594000000e+01 5.1100000000e-04 0.0000e+00 -1.0000e+00
       11 -1    0    0    0    0 -0.0000000000e+00 -0.0000000000e+00 -4.5593999997e+01 4.5594000000e+01 5.1100000000e-04 0.0000e+00 1.0000e+00
       23  2    1    2    0    0 +0.0000000000e+00 +0.0000000000e+00 +0.0000000000e+00 9.1188000000e+01 9.1188000000e+01 1.8115e-14 0.0000e+00
  9900012  1    3    3    0    0 +5.9953802464e-01 +2.2687626093e+01 +2.2397159237e+01 5.9301944028e+01 5.0000000000e+01 1.1525e-03 -1.0000e+00
      -12  1    3    3    0    0 -5.9953802464e-01 -2.2687626093e+01 -2.2397159237e+01 3.1886055972e+01 0.0000000000e+00 0.0000e+00 1.0000e+00
</event>
<event>
 5      3 +1.7896800e-02 9.11880000e+01 7.81616400e-03 1.18400000e-01
      -11 -1    0    0    0    0 +0.0000000000e+00 +0.0000000000e+00 +4.5593999997e+01 4.5594000000e+01 5.1100000000e-04 0.0000e+00 1.0000e+00
       11 -1    0    0    0    0 -0.0000000000e+00 -0.0000000000e+00 -4.5593999997e+01 4.5594000000e+01 5.1100000000e-04 0.0000e+00 -1.0000e+00
       23  2    1    2    0    0 +0.0000000000e+00 +0.0000000000e+00 +0.0000000000e+00 9.1188000000e+01 9.1188000000e+01 9.0918e-14 0.0000e+00
  9900012  1    3    3    0    0 -1.7371168223e+01 -1.5885603815e+01 +2.1508386073e+01 5.9301944028e+01 5.0000000000e+01 3.0675e-03 1.0000e+00
       12  1    3    3    0    0 +1.7371168223e+01 +1.5885603815e+01 -2.1508386073e+01 3.1886055972e+01 0.0000000000e+00 0.0000e+00 -1.0000e+00
</event>
<event>
 5      3 +1.7896800e-02 9.11880000e+01 7.81616400e-03 1.18400000e-01
      -11 -1    0    0    0    0 +0.0000000000e+00 +0.0000000000e+00 +4.5593999997e+01 4.5594000000e+01 5.1100000000e-04 0.0000e+00 -1.0000e+00
       11 -1    0    0    0    0 -0.0000000000e+00 -0.0000000000e+00 -4.5593999997e+01 4.5594000000e+01 5.1100000000e-04 0.0000e+00 1.0000e+00
       23  2    1    2    0    0 +0.0000000000e+00 +0.0000000000e+00 +0.0000000000e+00 9.1188000000e+01 9.1188000000e+01 1.0601e-13 0.0000e+00
  9900012  1    3    3    0    0 +2.2024577173e+01 -2.3055192511e+01 +3.1090846904e-01 5.9301944028e+01 5.0000000000e+01 1.3792e-03 -1.0000e+00
       12  1    3    3    0    0 -2.2024577173e+01 +2.3055192511e+01 -3.1090846904e-01 3.1886055972e+01 0.0000000000e+00 0.0000e+00 -1.0000e+00
</event>
<event>
 5      6 +1.7896800e-02 9.11880000e+01 7.81616400e-03 1.18400000e-01
      -11 -1    0    0    0    0 +0.0000000000e+00 +0.0000000000e+00 +4.5593999997e+01 4.5594000000e+01 5.1100000000e-04 0.0000e+00 1.0000e+00
       11 -1    0    0    0    0 -0.0000000000e+00 -0.0000000000e+00 -4.5593999997e+01 4.5594000000e+01 5.1100000000e-04 0.0000e+00 -1.0000e+00
       23  2    1    2    0    0 +0.0000000000e+00 +0.0000000000e+00 +0.0000000000e+00 9.1188000000e+01 9.1188000000e+01 2.2960e-14 0.0000e+00
  9900012  1    3    3    0    0 +3.1717777513e+01 -3.0108195764e+00 +1.2798908551e+00 5.9301944028e+01 5.0000000000e+01 5.1373e-04 1.0000e+00
      -12  1    3    3    0    0 -3.1717777513e+01 +3.0108195764e+00 -1.2798908551e+00 3.1886055972e+01 0.0000000000e+00 0.0000e+00 1.0000e+00
</event>
<event>
 5      4 +1.7896800e-02 9.11880000e+01 7.81616400e-03 1.18400000e-01
      -11 -1    0    0    0    0 +0.0000000000e+00 +0.0000000000e+00 +4.5593999997e+01 4.5594000000e+01 5.1100000000e-04 0.0000e+00 1.0000e+00
       11 -1    0    0    0    0 -0.0000000000e+00 -0.0000000000e+00 -4.5593999997e+01 4.5594000000e+01 5.1100000000e-04 0.0000e+00 -1.0000e+00
       23  2    1    2    0    0 +0.0000000000e+00 +0.0000000000e+00 +0.0000000000e+00 9.1188000000e+01 9.1188000000e+01 1.4446e-14 0.0000e+00
  9900012  1    3    3    0    0 -4.6890791494e+00 +2.9907801650e+01 -1.0012816920e+01 5.9301944028e+01 5.0000000000e+01 1.1130e-04 -1.0000e+00
      -12  1    3    3    0    0 +4.6890791494e+00 -2.9907801650e+01 +1.0012816920e+01 3.1886055972e+01 0.0000000000e+00 0.0000e+00 1.0000e+00
</event>
<event>
 5      5 +1.7896800e-02 9.11880000e+01 7.81616400e-03 1.18400000e-01
      -11 -1    0    0    0    0 +0.0000000000e+00 +0.0000000000e+00 +4.5593999997e+01 4.5594000000e+01 5.1100000000e-04 0.0000e+00 1.0000e+00
       11 -1    0    0    0    0 -0.0000000000e+00 -0.0000000000e+00 -4.5593999997e+01 4.5594000000e+01 5.1100000000e-04 0.0000e+00 -1.0000e+00
       23  2    1    2    0    0 +0.0000000000e+00 +0.0000000000e+00 +0.0000000000e+00 9.1188000000e+01 9.1188000000e+01 1.0023e-13 0.0000e+00
  9900012  1    3    3    0    0 +2.6549483201e+01 +3.3398098801e+00 +1.7340449163e+01 5.9301944028e+01 5.0000000000e+01 3.3720e-04 1.0000e+00
       12  1    3    3    0    0 -2.6549483201e+01 -3.3398098801e+00 -1.7340449163e+01 3.1886055972e+01 0.0000000000e+00 0.0000e+00 -1.0000e+00
</event>
<event>
 5      7 +1.7896800e-02 9.11880000e+01 7.81616400e-03 1.18400000e-01
      -11 -1    0    0    0    0 +0.0000000000e+00 +0.0000000000e+00 +4.5593999997e+01 4.5594000000e+01 5.1100000000e-04 0.0000e+00 -1.0000e+00
       11 -1    0    0    0    0 -0.0000000000e+00 -0.0000000000e+00 -4.5593999997e+01 4.5594000000e+01 5.1100000000e-04 0.0000e+00 1.0000e+00
       23  2    1    2    0    0 +0.0000000000e+00 +0.0000000000e+00 +0.0000000000e+00 9.1188000000e+01 9.1188000000e+01 4.4900e-14 0.0000e+00
  9900012  1    3    3    0    0 +2.9714028541e+01 +8.3920443167e-03 -1.1567065441e+01 5.9301944028e+01 5.0000000000e+01 1.7828e-04 -1.0000e+00
       12  1    3    3    0    0 -2.9714028541e+01 -8.3920443167e-03 +1.1567065441e+01 3.1886055972e+01 0.0000000000e+00 0.0000e+00 -1.0000e+00
</event>
<event>
 5      4 +1.7896800e-02 9.11880000e+01 7.81616400e-03 1.18400000e-01
      -11 -1    0    0    0    0 +0.0000000000e+00 +0.0000000000e+00 +4.5593999997e+01 4.5594000000e+01 5.1100000000e-04 0.0000e+00 -1.0000e+00
       11 -1    0    0    0    0 -0.0000000000e+00 -0.0000000000e+00 -4.5593999997e+01 4.5594000000e+01 5.1100000000e-04 0.0000e+00 1.0000e+00
       23  2    1    2    0    0 +0.0000000000e+00 +0.0000000000e+00 +0.0000000000e+00 9.1188000000e+01 9.1188000000e+01 1.0395e-13 0.0000e+00
  9900012  1    3    3    0    0 -8.4397874504e+00 +2.7336673242e+01 +1.4078240278e+01 5.9301944028e+01 5.0000000000e+01 1.4189e-03 -1.0000e+00
      -12  1    3    3    0    0 +8.4397874504e+00 -2.7336673242e+01 -1.4078240278e+01 3.1886055972e+01 0.0000000000e+00 0.0000e+00 1.0000e+00
</event>
<event>
 5      5 +1.7896800e-02 9.11880000e+01 7.81616400e-03 1.18400000e-01
      -11 -1    0    0    0    0 +0.0000000000e+00 +0.0000000000e+00 +4.5593999997e+01 4.5594000000e+01 5.1100000000e-04 0.0000e+00 -1.0000e+00
       11 -1    0    0    0    0 -0.0000000000e+00 -0.0000000000e+00 -4.5593999997e+01 4.5594000000e+01 5.1100000000e-04 0.0000e+00 1.0000e+00
       23  2    1    2    0    0 +0.0000000000e+00 +0.0000000000e+00 +0.0000000000e+00 9.1188000000e+01 9.1188000000e+01 6.7419e-14 0.0000e+00
  9900012  1    3    3    0    0 +1.4972064718e+01 +1.6377755237e+01 -2.2898187198e+01 5.9301944028e+01 5.0000000000e+01 1.4407e-03 1.0000e+00
       12  1    3    3    0    0 -1.4972064718e+01 -1.6377755237e+01 +2.2898187198e+01 3.1886055972e+01 0.0000000000e+00 0.0000e+00 -1.0000e+00
</event>
<event>
 5      3 +1.7896800e-02 9.11880000e+01 7.81616400e-03 1.18400000e-01
      -11 -1    0    0    0    0 +0.0000000000e+00 +0.0000000000e+00 +4.5593999997e+01 4.5594000000e+01 5.1100000000e-04 0.0000e+00 1.0000e+00
       11 -1    0    0    0    0 -0.0000000000e+00 -0.0000000000e+00 -4.5593999997e+01 4.5594000000e+01 5.1100000000e-04 0.0000e+00 -1.0000e+00
       23  2    1    2    0    0 +0.0000000000e+00 +0.0000000000e+00 +0.0000000000e+00 9.1188000000e+01 9.1188000000e+01 8.0238e-14 0.0000e+00
  9900012  1    3    3    0    0 +2.4142769960e+01 -1.7218325950e+01 +1.1720771118e+01 5.9301944028e+01 5.0000000000e+01 6.9447e-04 1.0000e+00
       12  1    3    3    0    0 -2.4142769960e+01 +1.7218325950e+01 -1.1720771118e+01 3.1886055972e+01 0.0000000000e+00 0.0000e+00 -1.0000e+00
</event>
<event>
 5      5 +1.7896800e-02 9.11880000e+01 7.81616400e-03 1.18400000e-01
      -11 -1    0    0    0    0 +0.0000000000e+00 +0.0000000000e+00 +4.5593999997e+01 4.5594000000e+01 5.1100000000e-04 0.0000e+00 1.0000e+00
       11 -1    0    0    0    0 -0.0000000000e+00 -0.0000000000e+00 -4.5593999997e+01 4.5594000000e+01 5.1100000000e-04 0.0000e+00 -1.0000e+00
       23  2    1    2    0    0 +0.0000000000e+00 +0.0000000000e+00 +0.0000000000e+00 9.1188000000e+01 9.1188000000e+01 4.3131e-14 0.0000e+00
  9900012  1    3    3    0    0 -2.2601231296e+01 +1.9833880614e+01 +1.0607642960e+01 5.9301944028e+01 5.0000000000e+01 5.4448e-05 1.0000e+00
       12  1    3    3    0    0 +2.2601231296e+01 -1.9833880614e+01 -1.0607642960e+01 3.1886055972e+01 0.0000000000e+00 0.0000e+00 -1.0000e+00
</event>
<event>
 5      6 +1.7896800e-02 9.11880000e+01 7.81616400e-03 1.18400000e-01
      -11 -1    0    0    0    0 +0.0000000000e+00 +0.0000000000e+00 +4.5593999997e+01 4.5594000000e+01 5.1100000000e-04 0.0000e+00 1.0000e+00
       11 -1    0    0    0    0 -0.0000000000e+00 -0.0000000000e+00 -4.5593999997e+01 4.5594000000e+01 5.1100000000e-04 0.0000e+00 -1.0000e+00
       23  2    1    2    0    0 +0.0000000000e+00 +0.0000000000e+00 +0.0000000000e+00 9.1188000000e+01 9.1188000000e+01 2.2422e-15 0.0000e+00
  9900012  1    3    3    0    0 +8.3185096445e+00 -1.0042569894e+01 -2.9097590153e+01 5.9301944028e+01 5.0000000000e+01 5.2577e-04 -1.0000e+00
      -12  1    3    3    0    0 -8.3185096445e+00 +1.0042569894e+01 +2.9097590153e+01 3.1886055972e+01 0.0000000000e+00 0.0000e+00 1.0000e+00
</event>
<event>
 5      8 +1.7896800e-02 9.11880000e+01 7.81616400e-03 1.18400000e-01
      -11 -1    0    0    0    0 +0.0000000000e+00 +0.0000000000e+00 +4.5593999997e+01 4.5594000000e+01 5.1100000000e-04 0.0000e+00 1.0000e+00
       11 -1    0    0    0    0 -0.0000000000e+00 -0.0000000000e+00 -4.5593999997e+01 4.5594000000e+01 5.1100000000e-04 0.0000e+00 -1.0000e+00
       23  2    1    2    0    0 +0.0000000000e+00 +0.0000000000e+00 +0.0000000000e+00 9.1188000000e+01 9.1188000000e+01 2.6749e-15 0.0000e+00
  9900012  1    3    3    0    0 -2.6025002364e+01 +8.4117419054e+00 -1.6390924792e+01 5.9301944028e+01 5.0000000000e+01 1.9524e-04 -1.0000e+00
      -12  1    3    3    0    0 +2.6025002364e+01 -8.4117419054e+00 +1.6390924792e+01 3.1886055972e+01 0.0000000000e+00 0.0000e+00 1.0000e+00
</event>
<event>
 5      6 +1.7896800e-02 9.11880000e+01 7.81616400e-03 1.18400000e-01
      -11 -1    0    0    0    0 +0.0000000000e+00 +0.0000000000e+00 +4.5593999997e+01 4.5594000000e+01 5.1100000000e-04 0.0000e+00 1.0000e+00
       11 -1    0    0    0    0 -0.0000000000e+00 -0.0000000000e+00 -4.5593999997e+01 4.5594000000e+01 5.1100000000e-04 0.0000e+00 -1.0000e+00
       23  2    1    2    0    0 +0.0000000000e+00 +0.0000000000e+00 +0.0000000000e+00 9.1188000000e+01 9.1188000000e+01 1.3322e-14 0.0000e+00
  9900012  1    3    3    0    0 -1.5036209430e+01 +2.8095142004e+01 -1.1384055579e+00 5.9301944028e+01 5.0000000000e+01 6.7584e-05 -1.0000e+00
      -12  1    3    3    0    0 +1.5036209430e+01 -2.8095142004e+01 +1.1384055579e+00 3.1886055972e+01 0.0000000000e+00 0.0000e+00 1.0000e+00
</event>
<event>
 5      5 +1.7896800e-02 9.11880000e+01 7.81616400e-03 1.18400000e-01
      -11 -1    0    0    0    0 +0.0000000000e+00 +0.0000000000e+00 +4.5593999997e+01 4.5594000000e+01 5.1100000000e-04 0.0000e+00 1.0000e+00
       11 -1    0    0    0    0 -0.0000000000e+00 -0.0000000000e+00 -4.5593999997e+01 4.5594000000e+01 5.1100000000e-04 0.0000e+00 -1.0000e+00
       23  2    1    2    0    0 +0.0000000000e+00 +0.0000000000e+00 +0.0000000000e+00 9.1188000000e+01 9.1188000000e+01 7.9870e-14 0.0000e+00
  9900012  1    3    3    0    0 -5.6920295410e+00 +1.9279795828e+01 +2.4750976506e+01 5.9301944028e+01 5.0000000000e+01 2.8460e-05 1.0000e+00
       12  1    3    3    0    0 +5.6920295410e+00 -1.9279795828e+01 -2.4750976506e+01 3.1886055972e+01 0.0000000000e+00 0.0000e+00 -1.0000e+00
</event>
<event>
 5      2 +1.7896800e-02 9.11880000e+01 7.81616400e-03 1.18400000e-01
      -11 -1    0    0    0    0 +0.0000000000e+00 +0.0000000000e+00 +4.5593999997e+01 4.5594000000e+01 5.1100000000e-04 0.0000e+00 -1.0000e+00
       11 -1    0    0    0    0 -0.0000000000e+00 -0.0000000000e+00 -4.5593999997e+01 4.5594000000e+01 5.1100000000e-04 0.0000e+00 1.0000e+00
       23  2    1    2    0    0 +0.0000000000e+00 +0.0000000000e+00 +0.0000000000e+00 9.1188000000e+01 9.1188000000e+01 8.5437e-14 0.0000e+00
  9900012  1    3    3    0    0 -9.7344620670e+00 +3.0520997774e+00 +3.0210023182e+01 5.9301944028e+01 5.0000000000e+01 2.4678e-04 -1.0000e+00
      -12  1    3    3    0    0 +9.7344620670e+00 -3.0520997774e+00 -3.0210023182e+01 3.1886055972e+01 0.0000000000e+00 0.0000e+00 1.0000e+00
</event>
<event>
 5      2 +1.7896800e-02 9.11880000e+01 7.81616400e-03 1.18400000e-01
      -11 -1    0    0    0    0 +0.0000000000e+00 +0.0000000000e+00 +4.5593999997e+01 4.5594000000e+01 5.1100000000e-04 0.0000e+00 1.0000e+00
       11 -1    0    0    0    0 -0.0000000000e+00 -0.0000000000e+00 -4.5593999997e+01 4.5594000000e+01 5.1100000000e-04 0.0000e+00 -1.0000e+00
       23  2    1    2    0    0 +0.0000000000e+00 +0.0000000000e+00 +0.0000000000e+00 9.1188000000e+01 9.1188000000e+01 1.6646e-14 0.0000e+00
  9900012  1    3    3    0    0 -1.2443454577e+01 +2.9157118978e+01 +3.4268668735e+00 5.9301944028e+01 5.0000000000e+01 1.0683e-03 -1.0000e+00
      -12  1    3    3    0    0 +1.2443454577e+01 -2.9157118978e+01 -3.4268668735e+00 3.1886055972e+01 0.0000000000e+00 0.0000e+00 1.0000e+00
</event>
<event>
 5      7 +1.7896800e-02 9.11880000e+01 7.81616400e-03 1.18400000e-01
      -11 -1    0    0    0    0 +0.0000000000e+00 +0.0000000000e+00 +4.5593999997e+01 4.5594000000e+01 5.1100000000e-04 0.0000e+00 1.0000e+00
       11 -1    0    0    0    0 -0.0000000000e+00 -0.0000000000e+00 -4.5593999997e+01 4.5594000000e+01 5.1100000000e-04 0.0000e+00 -1.0000e+00
       23  2    1    2    0    0 +0.0000000000e+00 +0.0000000000e+00 +0.0000000000e+00 9.1188000000e+01 9.1188000000e+01 2.2587e-14 0.0000e+00
  9900012  1    3    3    0    0 +7.4594181203e+00 +1.2877034896e+01 +2.8200347853e+01 5.9301944028e+01 5.0000000000e+01 1.0303e-03 1.0000e+00
       12  1    3    3    0    0 -7.4594181203e+00 -1.2877034896e+01 -2.8200347853e+01 3.1886055972e+01 0.0000000000e+00 0.0000e+00 -1.0000e+00
</event>
<event>
 5      8 +1.7896800e-02 9.11880000e+01 7.81616400e-03 1.18400000e-01
      -11 -1    0    0    0    0 +0.0000000000e+00 +0.0000000000e+00 +4.5593999997e+01 4.5594000000e+01 5.1100000000e-04 0.0000e+00 1.0000e+00
       11 -1    0    0    0    0 -0.0000000000e+00 -0.0000000000e+00 -4.5593999997e+01 4.5594000000e+01 5.1100000000e-04 0.0000e+00 -1.0000e+00
       23  2    1    2    0    0 +0.0000000000e+00 +0.0000000000e+00 +0.0000000000e+00 9.1188000000e+01 9.1188000000e+01 2.2141e-14 0.0000e+00
  9900012  1    3    3    0    0 +1.8893765840e+01 -2.5680352674e+01 -5.1542640129e-01 5.9301944028e+01 5.0000000000e+01 9.7563e-04 -1.0000e+00
      -12  1    3    3    0    0 -1.8893765840e+01 +2.5680352674e+01 +5.1542640129e-01 3.1886055972e+01 0.0000000000e+00 0.0000e+00 1.0000e+00
</event>
<event>
 5      2 +1.7896800e-02 9.11880000e+01 7.81616400e-03 1.18400000e-01
      -11 -1    0    0    0    0 +0.0000000000e+00 +0.0000000000e+00 +4.5593999997e+01 4.5594000000e+01 5.1100000000e-04 0.0000e+00 -1.0000e+00
       11 -1    0    0    0    0 -0.0000000000e+00 -0.0000000000e+00 -4.5593999997e+01 4.5594000000e+01 5.1100000000e-04 0.0000e+00 1.0000e+00
       23  2    1    2    0    0 +0.0000000000e+00 +0.0000000000e+00 +0.0000000000e+00 9.1188000000e+01 9.1188000000e+01 2.2899e-15 0.0000e+00
  9900012  1    3    3    0    0 +2.8926358123e+01 +1.2725602128e+01 +4.2479903086e+00 5.9301944028e+01 5.0000000000e+01 8.3725e-05 -1.0000e+00
      -12  1    3    3    0    0 -2.8926358123e+01 -1.2725602128e+01 -4.2479903086e+00 3.1886055972e+01 0.0000000000e+00 0.0000e+00 1.0000e+00
</event>
<event>
 5      2 +1.7896800e-02 9.11880000e+01 7.81616400e-03 1.18400000e-01
      -11 -1    0    0    0    0 +0.0000000000e+00 +0.0000000000e+00 +4.5593999997e+01 4.5594000000e+01 5.1100000000e-04 0.0000e+00 -1.0000e+00
       11 -1    0    0    0    0 -0.0000000000e+00 -0.0000000000e+00 -4.5593999997e+01 4.5594000000e+01 5.1100000000e-04 0.0000e+00 1.0000e+00
       23  2    1    2    0    0 +0.0000000000e+00 +0.0000000000e+00 +0.0000000000e+00 9.1188000000e+01 9.1188000000e+01 1.4582e-13 0.0000e+00
  9900012  1    3    3    0    0 +1.2301487412e+01 -2.5392463704e+01 +1.4853173397e+01 5.9301944028e+01 5.0000000000e+01 2.7373e-05 -1.0000e+00
      -12  1    3    3    0    0 -1.2301487412e+01 +2.5392463704e+01 -1.4853173397e+01 3.1886055972e+01 0.0000000000e+00 0.0000e+00 1.0000e+00
</event>
<event>
 5      8 +1.7896800e-02 9.11880000e+01 7.81616400e-03 1.18400000e-01
      -11 -1    0    0    0    0 +0.0000000000e+00 +0.0000000000e+00 +4.5593999997e+01 4.5594000000e+01 5.1100000000e-04 0.0000e+00 -1.0000e+00
       11 -1    0    0    0    0 -0.0000000000e+00 -0.0000000000e+00 -4.5593999997e+01 4.5594000000e+01 5.1100000000e-04 0.0000e+00 1.0000e+00
       23  2    1    2    0    0 +0.0000000000e+00 +0.0000000000e+00 +0.0000000000e+00 9.1188000000e+01 9.1188000000e+01 3.0041e-14 0.0000e+00
  9900012  1    3    3    0    0 +2.1666905923e+00 -2.3441686486e+01 +2.1506123594e+01 5.9301944028e+01 5.0000000000e+01 2.6752e-04 -1.0000e+00
      -12  1    3    3    0    0 -2.1666905923e+00 +2.3441686486e+01 -2.1506123594e+01 3.1886055972e+01 0.0000000000e+00 0.0000e+00 1.0000e+00
</event>
<event>
 5      1 +1.7896800e-02 9.11880000e+01 7.81616400e-03 1.18400000e-01
      -11 -1    0    0    0    0 +0.0000000000e+00 +0.0000000000e+00 +4.5593999997e+01 4.5594000000e+01 5.1100000000e-04 0.0000e+00 1.0000e+00
       11 -1    0    0    0    0 -0.0000000000e+00 -0.0000000000e+00 -4.5593999997e+01 4.5594000000e+01 5.1100000000e-04 0.0000e+00 -1.0000e+00
       23  2    1    2    0    0 +0.0000000000e+00 +0.0000000000e+00 +0.0000000000e+00 9.1188000000e+01 9.1188000000e+01 4.9396e-15 0.0000e+00
  9900012  1    3    3    0    0 +2.7567326548e+01 -4.6637467686e+00 +1.5330118674e+01 5.9301944028e+01 5.0000000000e+01 1.9909e-03 1.0000e+00
       12  1    3    3    0    0 -2.7567326548e+01 +4.6637467686e+00 -1.5330118674e+01 3.1886055972e+01 0.0000000000e+00 0.0000e+00 -1.0000e+00
</event>
<event>
 5      2 +1.7896800e-02 9.11880000e+01 7.81616400e-03 1.18400000e-01
      -11 -1    0    0    0    0 +0.0000000000e+00 +0.0000000000e+00 +4.5593999997e+01 4.5594000000e+01 5.1100000000e-04 0.0000e+00 -1.0000e+00
       11 -1    0    0    0    0 -0.0000000000e+00 -0.0000000000e+00 -4.5593999997e+01 4.5594000000e+01 5.1100000000e-04 0.0000e+00 1.0000e+00
       23  2    1    2    0    0 +0.0000000000e+00 +0.0000000000e+00 +0.0000000000e+00 9.1188000000e+01 9.1188000000e+01 9.7850e-14 0.0000e+00
  9900012  1    3    3    0    0 -5.9108798795e+00 +1.9939568515e+01 +2.4170140089e+01 5.9301944028e+01 5.0000000000e+01 4.5930e-04 -1.0000e+00
      -12  1    3    3    0    0 +5.9108798795e+00 -1.9939568515e+01 -2.4170140089e+01 3.1886055972e+01 0.0000000000e+00 0.0000e+00 1.0000e+00
</event>
<event>
 5      3 +1.7896800e-02 9.11880000e+01 7.81616400e-03 1.18400000e-01
      -11 -1    0    0    0    0 +0.0000000000e+00 +0.0000000000e+00 +4.5593999997e+01 4.5594000000e+01 5.1100000000e-04 0.0000e+00 -1.0000e+00
       11 -1    0    0    0    0 -0.0000000000e+00 -0.0000000000e+00 -4.5593999997e+01 4.5594000000e+01 5.1100000000e-04 0.0000e+00 1.0000e+00
       23  2    1    2    0    0 +0.0000000000e+00 +0.0000000000e+00 +0.0000000000e+00 9.1188000000e+01 9.1188000000e+01 1.4380e-13 0.0000e+00
  9900012  1    3    3    0    0 -7.6617958319e+00 -2.8791647236e+01 -1.1360391699e+01 5.9301944028e+01 5.0000000000e+01 5.8768e-05 1.0000e+00
       12  1    3    3    0    0 +7.6617958319e+00 +2.8791647236e+01 +1.1360391699e+01 3.1886055972e+01 0.0000000000e+00 0.0000e+00 -1.0000e+00
</event>
<event>
 5      6 +1.7896800e-02 9.11880000e+01 7.81616400e-03 1.18400000e-01
      -11 -1    0    0    0    0 +0.0000000000e+00 +0.0000000000e+00 +4.5593999997e+01 4.5594000000e+01 5.1100000000e-04 0.0000e+00 1.0000e+00
       11 -1    0    0    0    0 -0.0000000000e+00 -0.0000000000e+00 -4.5593999997e+01 4.5594000000e+01 5.1100000000e-04 0.0000e+00 -1.0000e+00
       23  2    1    2    0    0 +0.0000000000e+00 +0.0000000000e+00 +0.0000000000e+00 9.1188000000e+01 9.1188000000e+01 1.0905e-14 0.0000e+00
  9900012  1    3    3    0    0 +1.8959346635e+01 -1.0492513989e+01 -2.3391684224e+01 5.9301944028e+01 5.0000000000e+01 2.1534e-04 -1.0000e+00
      -12  1    3    3    0    0 -1.8959346635e+01 +1.0492513989e+01 +2.3391684224e+01 3.1886055972e+01 0.0000000000e+00 0.0000e+00 1.0000e+00
</event>
<event>
 5      7 +1.7896800e-02 9.11880000e+01 7.81616400e-03 1.18400000e-01
      -11 -1    0    0    0    0 +0.0000000000e+00 +0.0000000000e+00 +4.5593999997e+01 4.5594000000e+01 5.1100000000e-04 0.0000e+00 -1.0000e+00
       11 -1    0    0    0    0 -0.0000000000e+00 -0.0000000000e+00 -4.5593999997e+01 4.5594000000e+01 5.1100000000e-04 0.0000e+00 1.0000e+00
       23  2    1    2    0    0 +0.0000000000e+00 +0.0000000000e+00 +0.0000000000e+00 9.1188000000e+01 9.1188000000e+01 5.6283e-14 0.0000e+00
  9900012  1    3    3    0    0 -2.5300002159e+01 -9.5792939019e+00 -1.6878020753e+01 5.9301944028e+01 5.0000000000e+01 1.1730e-03 1.0000e+00
       12  1    3    3    0    0 +2.5300002159e+01 +9.5792939019e+00 +1.6878020753e+01 3.1886055972e+01 0.0000000000e+00 0.0000e+00 -1.0000e+00
</event>
<event>
 5      2 +1.7896800e-02 9.11880000e+01 7.81616400e-03 1.18400000e-01
      -11 -1    0    0    0    0 +0.0000000000e+00 +0.0000000000e+00 +4.5593999997e+01 4.5594000000e+01 5.1100000000e-04 0.0000e+00 1.0000e+00
       11 -1    0    0    0    0 -0.0000000000e+00 -0.0000000000e+00 -4.5593999997e+01 4.5594000000e+01 5.1100000000e-04 0.0000e+00 -1.0000e+00
       23  2    1    2    0    0 +0.0000000000e+00 +0.0000000000e+00 +0.0000000000e+00 9.1188000000e+01 9.1188000000e+01 9.3890e-14 0.0000e+00
  9900012  1    3    3    0    0 +2.1596861517e+01 -2.0152493952e+01 +1.2007211401e+01 5.9301944028e+01 5.0000000000e+01 6.9996e-04 1.0000e+00
      -12  1    3    3    0    0 -2.1596861517e+01 +2.0152493952e+01 -1.2007211401e+01 3.1886055972e+01 0.0000000000e+00 0.0000e+00 1.0000e+00
</event>
<event>
 5      5 +1.7896800e-02 9.11880000e+01 7.81616400e-03 1.18400000e-01
      -11 -1    0    0    0    0 +0.0000000000e+00 +0.0000000000e+00 +4.5593999997e+01 4.5594000000e+01 5.1100000000e-04 0.0000e+00 1.0000e+00
       11 -1    0    0    0    0 -0.0000000000e+00 -0.0000000000e+00 -4.5593999997e+01 4.5594000000e+01 5.1100000000e-04 0.0000e+00 -1.0000e+00
       23  2    1    2    0    0 +0.0000000000e+00 +0.0000000000e+00 +0.0000000000e+00 9.1188000000e+01 9.1188000000e+01 1.8983e-16 0.0000e+00
  9900012  1    3    3    0    0 +8.6713853692e+00 -2.8987904323e+01 -1.0061264543e+01 5.9301944028e+01 5.0000000000e+01 1.8665e-04 1.0000e+00
       12  1    3    3    0    0 -8.6713853692e+00 +2.8987904323e+01 +1.0061264543e+01 3.1886055972e+01 0.0000000000e+00 0.0000e+00 -1.0000e+00
</event>
<event>
 5      7 +1.7896800e-02 9.11880000e+01 7.81616400e-03 1.18400000e-01
      -11 -1    0    0    0    0 +0.0000000000e+00 +0.0000000000e+00 +4.5593999997e+01 4.5594000000e+01 5.1100000000e-04 0.0000e+00 1.0000e+00
       11 -1    0    0    0    0 -0.0000000000e+00 -0.0000000000e+00 -4.5593999997e+01 4.5594000000e+01 5.1100000000e-04 0.0000e+00 -1.0000e+00
       23  2    1    2    0    0 +0.0000000000e+00 +0.0000000000e+00 +0.0000000000e+00 9.1188000000e+01 9.1188000000e+01 2.3211e-15 0.0000e+00
  9900012  1    3    3    0    0 +2.0844349041e+00 +2.5011805386e+01 +1.9666857602e+01 5.9301944028e+01 5.0000000000e+01 2.2893e-05 1.0000e+00
       12  1    3    3    0    0 -2.0844349041e+00 -2.5011805386e+01 -1.9666857602e+01 3.1886055972e+01 0.0000000000e+00 0.0000e+00 -1.0000e+00
</event>
<event>
 5      3 +1.7896800e-02 9.11880000e+01 7.81616400e-03 1.18400000e-01
      -11 -1    0    0    0    0 +0.0000000000e+00 +0.0000000000e+00 +4.5593999997e+01 4.5594000000e+01 5.1100000000e-04 0.0000e+00 -1.0000e+00
       11 -1    0    0    0    0 -0.0000000000e+00 -0.0000000000e+00 -4.5593999997e+01 4.5594000000e+01 5.1100000000e-04 0.0000e+00 1.0000e+00
       23  2    1    2    0    0 +0.0000000000e+00 +0.0000000000e+00 +0.0000000000e+00 9.1188000000e+01 9.1188000000e+01 1.2926e-14 0.0000e+00
  9900012  1    3    3    0    0 -2.1998076539e+01 +4.4461279648e-01 -2.3078290958e+01 5.9301944028e+01 5.0000000000e+01 1.8598e-03 1.0000e+00
       12  1    3    3    0    0 +2.1998076539e+01 -4.4461279648e-01 +2.3078290958e+01 3.1886055972e+01 0.0000000000e+00 0.0000e+00 -1.0000e+00
</event>
<event>
 5      5 +1.7896800e-02 9.11880000e+01 7.81616400e-03 1.18400000e-01
      -11 -1    0    0    0    0 +0.0000000000e+00 +0.0000000000e+00 +4.5593999997e+01 4.5594000000e+01 5.1100000000e-04 0.0000e+00 -1.0000e+00
       11 -1    0    0    0    0 -0.0000000000e+00 -0.0000000000e+00 -4.5593999997e+01 4.5594000000e+01 5.1100000000e-04 0.0000e+00 1.0000e+00
       23  2    1    2    0    0 +0.0000000000e+00 +0.0000000000e+00 +0.0000000000e+00 9.1188000000e+01 9.1188000000e+01 1.0025e-13 0.0000e+00
  9900012  1    3    3    0    0 +1.0652205862e+01 -8.7066759596e+00 -2.8765341463e+01 5.9301944028e+01 5.0000000000e+01 1.6057e-04 1.0000e+00
       12  1    3    3    0    0 -1.0652205862e+01 +8.7066759596e+00 +2.8765341463e+01 3.1886055972e+01 0.0000000000e+00 0.0000e+00 -1.0000e+00
</event>
<event>
 5      3 +1.7896800e-02 9.11880000e+01 7.81616400e-03 1.18400000e-01
      -11 -1    0    0    0    0 +0.0000000000e+00 +0.0000000000e+00 +4.5593999997e+01 4.5594000000e+01 5.1100000000e-04 0.0000e+00 1.0000e+00
       11 -1    0    0    0    0 -0.0000000000e+00 -0.0000000000e+00 -4.5593999997e+01 4.5594000000e+01 5.1100000000e-04 0.0000e+00 -1.0000e+00
       23  2    1    2    0    0 +0.0000000000e+00 +0.0000000000e+00 +0.0000000000e+00 9.1188000000e+01 9.1188000000e+01 4.6544e-14 0.0000e+00
  9900012  1    3    3    0    0 -4.5549444096e+00 +7.1301207373e-01 +3.1550985098e+01 5.9301944028e+01 5.0000000000e+01 1.5915e-03 1.0000e+00
       12  1    3    3    0    0 +4.5549444096e+00 -7.1301207373e-01 -3.1550985098e+01 3.1886055972e+01 0.0000000000e+00 0.0000e+00 -1.0000e+00
</event>
<event>
 5      6 +1.7896800e-02 9.11880000e+01 7.81616400e-03 1.18400000e-01
      -11 -1    0    0    0    0 +0.0000000000e+00 +0.0000000000e+00 +4.5593999997e+01 4.5594000000e+01 5.1100000000e-04 0.0000e+00 -1.0000e+00
       11 -1    0    0    0    0 -0.0000000000e+00 -0.0000000000e+00 -4.5593999997e+01 4.5594000000e+01 5.1100000000e-04 0.0000e+00 1.0000e+00
       23  2    1    2    0    0 +0.0000000000e+00 +0.0000000000e+00 +0.0000000000e+00 9.1188000000e+01 9.1188000000e+01 7.0374e-14 0.0000e+00
  9900012  1    3    3    0    0 +3.1219814083e+01 -8.0690957586e-01 +6.4337136288e+00 5.9301944028e+01 5.0000000000e+01 4.3427e-04 1.0000e+00
      -12  1    3    3    0    0 -3.1219814083e+01 +8.0690957586e-01 -6.4337136288e+00 3.1886055972e+01 0.0000000000e+00 0.0000e+00 1.0000e+00
</event>
<event>
 5      2 +1.7896800e-02 9.11880000e+01 7.81616400e-03 1.18400000e-01
      -11 -1    0    0    0    0 +0.0000000000e+00 +0.0000000000e+00 +4.5593999997e+01 4.5594000000e+01 5.1100000000e-04 0.0000e+00 -1.0000e+00
       11 -1    0    0    0    0 -0.0000000000e+00 -0.0000000000e+00 -4.5593999997e+01 4.5594000000e+01 5.1100000000e-04 0.0000e+00 1.0000e+00
       23  2    1    2    0    0 +0.0000000000e+00 +0.0000000000e+00 +0.0000000000e+00 9.1188000000e+01 9.1188000000e+01 1.5673e-14 0.0000e+00
  9900012  1    3    3    0    0 -1.9851349243e+01 -2.2307541077e+01 +1.1181149752e+01 5.9301944028e+01 5.0000000000e+01 1.9000e-03 -1.0000e+00
      -12  1    3    3    0    0 +1.9851349243e+01 +2.2307541077e+01 -1.1181149752e+01 3.1886055972e+01 0.0000000000e+00 0.0000e+00 1.0000e+00
</event>
<event>
 5      4 +1.7896800e-02 9.11880000e+01 7.81616400e-03 1.18400000e-01
      -11 -1    0    0    0    0 +0.0000000000e+00 +0.0000000000e+00 +4.5593999997e+01 4.5594000000e+01 5.1100000000e-04 0.0000e+00 1.0000e+00
       11 -1    0    0    0    0 -0.0000000000e+00 -0.0000000000e+00 -4.5593999997e+01 4.5594000000e+01 5.1100000000e-04 0.0000e+00 -1.0000e+00
       23  2    1    2    0    0 +0.0000000000e+00 +0.0000000000e+00 +0.0000000000e+00 9.1188000000e+01 9.1188000000e+01 4.2232e-14 0.0000e+00
  9900012  1    3    3    0    0 +2.6064737157e+01 +1.0181056467e+01 -1.5287123066e+01 5.9301944028e+01 5.0000000000e+01 6.2124e-05 -1.0000e+00
      -12  1    3    3    0    0 -2.6064737157e+01 -1.0181056467e+01 +1.5287123066e+01 3.1886055972e+01 0.0000000000e+00 0.0000e+00 1.0000e+00
</event>
<event>
 5      4 +1.7896800e-02 9.11880000e+01 7.81616400e-03 1.18400000e-01
      -11 -1    0    0    0    0 +0.0000000000e+00 +0.0000000000e+00 +4.5593999997e+01 4.5594000000e+01 5.1100000000e-04 0.0000e+00 -1.0000e+00
       11 -1    0    0    0    0 -0.0000000000e+00 -0.0000000000e+00 -4.5593999997e+01 4.5594000000e+01 5.1100000000e-04 0.0000e+00 1.0000e+00
       23  2    1    2    0    0 +0.0000000000e+00 +0.0000000000e+00 +0.0000000000e+00 9.1188000000e+01 9.1188000000e+01 2.6744e-14 0.0000e+00
  9900012  1    3    3    0    0 -1.0684665940e+01 -2.1388786093e+01 +2.1096879122e+01 5.9301944028e+01 5.0000000000e+01 9.3295e-04 -1.0000e+00
      -12  1    3    3    0    0 +1.0684665940e+01 +2.1388786093e+01 -2.1096879122e+01 3.1886055972e+01 0.0000000000e+00 0.0000e+00 1.0000e+00
</event>
<event>
 5      8 +1.7896800e-02 9.11880000e+01 7.81616400e-03 1.18400000e-01
      -11 -1    0    0    0    0 +0.0000000000e+00 +0.0000000000e+00 +4.5593999997e+01 4.5594000000e+01 5.1100000000e-04 0.0000e+00 -1.0000e+00
       11 -1    0    0    0    0 -0.0000000000e+00 -0.0000000000e+00 -4.5593999997e+01 4.5594000000e+01 5.1100000000e-04 0.0000e+00 1.0000e+00
       23  2    1    2    0    0 +0.0000000000e+00 +0.0000000000e+00 +0.0000000000e+00 9.1188000000e+01 9.1188000000e+01 3.0352e-14 0.0000e+00
  9900012  1    3    3    0    0 -8.2778132651e+00 -2.7679154981e+01 -1.3493063127e+01 5.9301944028e+01 5.0000000000e+01 3.5041e-04 1.0000e+00
      -12  1    3    3    0    0 +8.2778132651e+00 +2.7679154981e+01 +1.3493063127e+01 3.1886055972e+01 0.0000000000e+00 0.0000e+00 1.0000e+00
</event>
<event>
 5      2 +1.7896800e-02 9.11880000e+01 7.81616400e-03 1.18400000e-01
      -11 -1    0    0    0    0 +0.0000000000e+00 +0.0000000000e+00 +4.5593999997e+01 4.5594000000e+01 5.1100000000e-04 0.0000e+00 1.0000e+00
       11 -1    0    0    0    0 -0.0000000000e+00 -0.0000000000e+00 -4.5593999997e+01 4.5594000000e+01 5.1100000000e-04 0.0000e+00 -1.0000e+00
       23  2    1    2    0    0 +0.0000000000e+00 +0.0000000000e+00 +0.0000000000e+00 9.1188000000e+01 9.1188000000e+01 6.7389e-14 0.0000e+00
  9900012  1    3    3    0    0 +1.3225460569e+01 +1.1407090229e+01 -2.6677444606e+01 5.9301944028e+01 5.0000000000e+01 2.4585e-03 -1.0000e+00
      -12  1    3    3    0    0 -1.3225460569e+01 -1.1407090229e+01 +2.6677444606e+01 3.1886055972e+01 0.0000000000e+00 0.0000e+00 1.0000e+00
</event>
<event>
 5      8 +1.7896800e-02 9.11880000e+01 7.81616400e-03 1.18400000e-01
      -11 -1    0    0    0    0 +0.0000000000e+00 +0.0000000000e+00 +4.5593999997e+01 4.5594000000e+01 5.1100000000e-04 0.0000e+00 -1.0000e+00
       11 -1    0    0    0    0 -0.0000000000e+00 -0.0000000000e+00 -4.5593999997e+01 4.5594000000e+01 5.1100000000e-04 0.0000e+00 1.0000e+00
       23  2    1    2    0    0 +0.0000000000e+00 +0.0000000000e+00 +0.0000000000e+00 9.1188000000e+01 9.1188000000e+01 4.3224e-13 0.0000e+00
  9900012  1    3    3    0    0 +1.7929552647e+01 -2.2770211163e+01 +1.3295457529e+01 5.9301944028e+01 5.0000000000e+01 4.3464e-03 -1.0000e+00
      -12  1    3    3    0    0 -1.7929552647e+01 +2.2770211163e+01 -1.3295457529e+01 3.1886055972e+01 0.0000000000e+00 0.0000e+00 1.0000e+00
</event>
<event>
 5      6 +1.7896800e-02 9.11880000e+01 7.81616400e-03 1.18400000e-01
      -11 -1    0    0    0    0 +0.0000000000e+00 +0.0000000000e+00 +4.5593999997e+01 4.5594000000e+01 5.1100000000e-04 0.0000e+00 1.0000e+00
       11 -1    0    0    0    0 -0.0000000000e+00 -0.0000000000e+00 -4.5593999997e+01 4.5594000000e+01 5.1100000000e-04 0.0000e+00 -1.0000e+00
       23  2    1    2    0    0 +0.0000000000e+00 +0.0000000000e+00 +0.0000000000e+00 9.1188000000e+01 9.1188000000e+01 4.0662e-14 0.0000e+00
  9900012  1    3    3    0    0 -6.5157995423e+00 +2.2321215519e+01 -2.1818071856e+01 5.9301944028e+01 5.0000000000e+01 7.9821e-05 -1.0000e+00
      -12  1    3    3    0    0 +6.5157995423e+00 -2.2321215519e+01 +2.1818071856e+01 3.1886055972e+01 0.0000000000e+00 0.0000e+00 1.0000e+00
</event>
</LesHouchesEvents>
