<event>
 8    1  0.2509489E-006  0.9118800E+02  0.7816164E-02  0.1184000E+00
        -11   -1    0    0    0    0  0.00000000000E+00  0.00000000000E+00  0.45593999997E+02  0.45594000000E+02  0.51100000000E-03 0.  1.
         11   -1    0    0    0    0 -0.00000000000E+00 -0.00000000000E+00 -0.45593999997E+02  0.45594000000E+02  0.51100000000E-03 0. -1.
         23    2    1    2    0    0 -0.17763568394E-14  0.35527136788E-14  0.00000000000E+00  0.91188000000E+02  0.91188000000E+02 0.  0.
    9900012    2    3    3    0    0 -0.40469203588E+01  0.21748311590E+02 -0.29434898957E+02  0.54367083417E+02  0.39999998266E+02 0.  0.
        -12    1    3    3    0    0  0.40469203588E+01 -0.21748311590E+02  0.29434898957E+02  0.36820916583E+02  0.00000000000E+00 0.  1.
         11    1    4    4    0    0  0.15138375420E+01  0.60845888793E+01 -0.29609268966E+02  0.30265867489E+02  0.51100000000E-03 0. -1.
        -11    1    4    4    0    0 -0.11009102718E+02  0.10219770706E+02 -0.37133424002E+01  0.15473621683E+02  0.51100000000E-03 0.  1.
        -12    1    4    4    0    0  0.54483448174E+01  0.54439520053E+01  0.38877124090E+01  0.86275942453E+01  0.00000000000E+00 0.  1.
</event>
<event>
 8    1  0.2509489E-006  0.9118800E+02  0.7816164E-02  0.1184000E+00
        -11   -1    0    0    0    0  0.00000000000E+00  0.00000000000E+00  0.45593999997E+02  0.45594000000E+02  0.51100000000E-03 0.  1.
         11   -1    0    0    0    0 -0.00000000000E+00 -0.00000000000E+00 -0.45593999997E+02  0.45594000000E+02  0.51100000000E-03 0. -1.
         23    2    1    2    0    0  0.00000000000E+00 -0.44408920985E-15  0.00000000000E+00  0.91188000000E+02  0.91188000000E+02 0.  0.
    9900012    2    3    3    0    0  0.36392757294E+02  0.25063648668E+01  0.50064607617E+01  0.54367091570E+02  0.40000016852E+02 0.  0.
         12    1    3    3    0    0 -0.36392757294E+02 -0.25063648668E+01 -0.50064607617E+01  0.36820908430E+02  0.00000000000E+00 0. -1.
         11    1    4    4    0    0 -0.44831894623E+01  0.38286148807E+01 -0.25294097214E+01  0.64152313644E+01  0.51100000000E-03 0. -1.
        -11    1    4    4    0    0  0.60861500617E+01 -0.88608867957E+01  0.60240426202E+01  0.12322565769E+02  0.51100000000E-03 0.  1.
        -12    1    4    4    0    0  0.34789796694E+02  0.75386367818E+01  0.15118278628E+01  0.35629294436E+02  0.00000000000E+00 0.  1.
</event>
<event>
 8    1  0.2509489E-006  0.9118800E+02  0.7816164E-02  0.1184000E+00
        -11   -1    0    0    0    0  0.00000000000E+00  0.00000000000E+00  0.45593999997E+02  0.45594000000E+02  0.51100000000E-03 0. -1.
         11   -1    0    0    0    0 -0.00000000000E+00 -0.00000000000E+00 -0.45593999997E+02  0.45594000000E+02  0.51100000000E-03 0.  1.
         23    2    1    2    0    0 -0.35527136788E-14 -0.35527136788E-14  0.00000000000E+00  0.91188000000E+02  0.91188000000E+02 0.  0.
    9900012    2    3    3    0    0  0.26745116544E+02  0.23198531782E+02  0.10114700777E+02  0.54367077855E+02  0.39999985587E+02 0.  0.
        -12    1    3    3    0    0 -0.26745116544E+02 -0.23198531782E+02 -0.10114700777E+02  0.36820922145E+02  0.00000000000E+00 0.  1.
         11    1    4    4    0    0 -0.17069117054E+01  0.84309352924E+01  0.92085890974E+01  0.12601282907E+02  0.51100000000E-03 0. -1.
        -11    1    4    4    0    0  0.54202375046E+01  0.15841760713E+02 -0.58558765452E+01  0.17737859156E+02  0.51100000000E-03 0.  1.
         12    1    4    4    0    0  0.23031790744E+02 -0.10741642230E+01  0.67619882247E+01  0.24027935792E+02  0.00000000000E+00 0. -1.
</event>
<event>
 8    1  0.2509489E-006  0.9118800E+02  0.7816164E-02  0.1184000E+00
        -11   -1    0    0    0    0  0.00000000000E+00  0.00000000000E+00  0.45593999997E+02  0.45594000000E+02  0.51100000000E-03 0. -1.
         11   -1    0    0    0    0 -0.00000000000E+00 -0.00000000000E+00 -0.45593999997E+02  0.45594000000E+02  0.51100000000E-03 0.  1.
         23    2    1    2    0    0  0.00000000000E+00 -0.88817841970E-15 -0.35527136788E-14  0.91188000000E+02  0.91188000000E+02 0.  0.
    9900012    2    3    3    0    0  0.16971609216E+02 -0.78896337353E+01  0.31709578491E+02  0.54367092788E+02  0.40000019628E+02 0.  0.
        -12    1    3    3    0    0 -0.16971609216E+02  0.78896337353E+01 -0.31709578491E+02  0.36820907212E+02  0.00000000000E+00 0.  1.
         11    1    4    4    0    0  0.10805544279E+02 -0.94541877171E+01 -0.23166493317E+00  0.14359495863E+02  0.51100000000E-03 0. -1.
        -11    1    4    4    0    0  0.42600543039E+01  0.11013091611E+02  0.81774613597E+01  0.14363395283E+02  0.51100000000E-03 0.  1.
        -12    1    4    4    0    0  0.19060106339E+01 -0.94485376287E+01  0.23763782064E+02  0.25644201642E+02  0.00000000000E+00 0.  1.
</event>
<event>
 8    1  0.2509489E-006  0.9118800E+02  0.7816164E-02  0.1184000E+00
        -11   -1    0    0    0    0  0.00000000000E+00  0.00000000000E+00  0.45593999997E+02  0.45594000000E+02  0.51100000000E-03 0.  1.
         11   -1    0    0    0    0 -0.00000000000E+00 -0.00000000000E+00 -0.45593999997E+02  0.45594000000E+02  0.51100000000E-03 0. -1.
         23    2    1    2    0    0  0.00000000000E+00  0.00000000000E+00  0.88817841970E-15  0.91188000000E+02  0.91188000000E+02 0.  0.
    9900012    2    3    3    0    0 -0.12765736968E+02 -0.34406463610E+02 -0.30017361718E+01  0.54367092915E+02  0.40000019919E+02 0.  0.
         12    1    3    3    0    0  0.12765736968E+02  0.34406463610E+02  0.30017361718E+01  0.36820907085E+02  0.00000000000E+00 0. -1.
         11    1    4    4    0    0  0.12163203051E+01  0.49247259913E+01 -0.31266833814E+01  0.59589017782E+01  0.51100000000E-03 0. -1.
        -11    1    4    4    0    0 -0.78931770219E+01 -0.27543557386E+02 -0.11397384767E+02  0.30835858619E+02  0.51100000000E-03 0.  1.
        -12    1    4    4    0    0 -0.60888802516E+01 -0.11787632215E+02  0.11522331976E+02  0.17572332518E+02  0.00000000000E+00 0.  1.
</event>
<event>
 8    1  0.2509489E-006  0.9118800E+02  0.7816164E-02  0.1184000E+00
        -11   -1    0    0    0    0  0.00000000000E+00  0.00000000000E+00  0.45593999997E+02  0.45594000000E+02  0.51100000000E-03 0.  1.
         11   -1    0    0    0    0 -0.00000000000E+00 -0.00000000000E+00 -0.45593999997E+02  0.45594000000E+02  0.51100000000E-03 0. -1.
         23    2    1    2    0    0  0.00000000000E+00  0.35527136788E-14  0.35527136788E-14  0.91188000000E+02  0.91188000000E+02 0.  0.
    9900012    2    3    3    0    0  0.18201131703E+02  0.20823211475E+02  0.24308196039E+02  0.54367140069E+02  0.40000127414E+02 0.  0.
         12    1    3    3    0    0 -0.18201131703E+02 -0.20823211475E+02 -0.24308196039E+02  0.36820859931E+02  0.00000000000E+00 0. -1.
         11    1    4    4    0    0  0.40098306557E+01 -0.73007323665E+01  0.37959197663E+01  0.91536026847E+01  0.51100000000E-03 0. -1.
        -11    1    4    4    0    0  0.10442753847E+02  0.16135516979E+02 -0.21126731446E+01  0.19335702836E+02  0.51100000000E-03 0.  1.
        -12    1    4    4    0    0  0.37485472006E+01  0.11988426862E+02  0.22624949417E+02  0.25877834548E+02  0.00000000000E+00 0.  1.
</event>
<event>
 8    1  0.2509489E-006  0.9118800E+02  0.7816164E-02  0.1184000E+00
        -11   -1    0    0    0    0  0.00000000000E+00  0.00000000000E+00  0.45593999997E+02  0.45594000000E+02  0.51100000000E-03 0.  1.
         11   -1    0    0    0    0 -0.00000000000E+00 -0.00000000000E+00 -0.45593999997E+02  0.45594000000E+02  0.51100000000E-03 0. -1.
         23    2    1    2    0    0  0.00000000000E+00 -0.44408920985E-15 -0.44408920985E-15  0.91188000000E+02  0.91188000000E+02 0.  0.
    9900012    2    3    3    0    0  0.36595850504E+02  0.37034973406E+01  0.16753242695E+01  0.54367097267E+02  0.40000029839E+02 0.  0.
         12    1    3    3    0    0 -0.36595850504E+02 -0.37034973406E+01 -0.16753242695E+01  0.36820902733E+02  0.00000000000E+00 0. -1.
         11    1    4    4    0    0  0.38408946694E+00 -0.42875589590E+01  0.92790985914E+01  0.10228995917E+02  0.51100000000E-03 0.  1.
        -11    1    4    4    0    0  0.31780783910E+02  0.33276450812E+01  0.26169543257E+01  0.32061501803E+02  0.51100000000E-03 0. -1.
         12    1    4    4    0    0  0.44309771279E+01  0.46634112184E+01 -0.10220728648E+02  0.12076599546E+02  0.00000000000E+00 0. -1.
</event>
<event>
 8    1  0.2509489E-006  0.9118800E+02  0.7816164E-02  0.1184000E+00
        -11   -1    0    0    0    0  0.00000000000E+00  0.00000000000E+00  0.45593999997E+02  0.45594000000E+02  0.51100000000E-03 0. -1.
         11   -1    0    0    0    0 -0.00000000000E+00 -0.00000000000E+00 -0.45593999997E+02  0.45594000000E+02  0.51100000000E-03 0.  1.
         23    2    1    2    0    0  0.17763568394E-14 -0.35527136788E-14 -0.17763568394E-14  0.91188000000E+02  0.91188000000E+02 0.  0.
    9900012    2    3    3    0    0 -0.15499019754E+02  0.29432578864E+02  0.15788641249E+02  0.54367115920E+02  0.40000072363E+02 0.  0.
        -12    1    3    3    0    0  0.15499019754E+02 -0.29432578864E+02 -0.15788641249E+02  0.36820884080E+02  0.00000000000E+00 0.  1.
         11    1    4    4    0    0 -0.67705845089E+01  0.15132668556E+02  0.36854918689E+01  0.16982971554E+02  0.51100000000E-03 0. -1.
        -11    1    4    4    0    0 -0.33600901859E+01  0.54994287350E+01 -0.10625389029E+02  0.12427100014E+02  0.51100000000E-03 0.  1.
        -12    1    4    4    0    0 -0.53683450589E+01  0.88004815730E+01  0.22728538409E+02  0.24957044352E+02  0.00000000000E+00 0.  1.
</event>
<event>
 8    1  0.2509489E-006  0.9118800E+02  0.7816164E-02  0.1184000E+00
        -11   -1    0    0    0    0  0.00000000000E+00  0.00000000000E+00  0.45593999997E+02  0.45594000000E+02  0.51100000000E-03 0. -1.
         11   -1    0    0    0    0 -0.00000000000E+00 -0.00000000000E+00 -0.45593999997E+02  0.45594000000E+02  0.51100000000E-03 0.  1.
         23    2    1    2    0    0  0.17763568394E-14  0.35527136788E-14  0.00000000000E+00  0.91188000000E+02  0.91188000000E+02 0.  0.
    9900012    2    3    3    0    0  0.12861303534E+02 -0.28156056887E+02 -0.19939985300E+02  0.54367086353E+02  0.40000004959E+02 0.  0.
         12    1    3    3    0    0 -0.12861303534E+02  0.28156056887E+02  0.19939985300E+02  0.36820913647E+02  0.00000000000E+00 0. -1.
         11    1    4    4    0    0 -0.73239188392E+01  0.20489864866E+01 -0.51225804771E+01  0.91694582060E+01  0.51100000000E-03 0. -1.
        -11    1    4    4    0    0  0.24610137497E+01  0.36927229629E+01 -0.12410036954E+01  0.46079151457E+01  0.51100000000E-03 0.  1.
        -12    1    4    4    0    0  0.17724208623E+02 -0.33897766337E+02 -0.13576401128E+02  0.40589713001E+02  0.00000000000E+00 0.  1.
</event>
<event>
 8    1  0.2509489E-006  0.9118800E+02  0.7816164E-02  0.1184000E+00
        -11   -1    0    0    0    0  0.00000000000E+00  0.00000000000E+00  0.45593999997E+02  0.45594000000E+02  0.51100000000E-03 0.  1.
         11   -1    0    0    0    0 -0.00000000000E+00 -0.00000000000E+00 -0.45593999997E+02  0.45594000000E+02  0.51100000000E-03 0. -1.
         23    2    1    2    0    0  0.44408920985E-15 -0.35527136788E-14  0.35527136788E-14  0.91188000000E+02  0.91188000000E+02 0.  0.
    9900012    2    3    3    0    0  0.24954217860E+01 -0.25549445539E+02 -0.26396567509E+02  0.54367081034E+02  0.39999992834E+02 0.  0.
        -12    1    3    3    0    0 -0.24954217860E+01  0.25549445539E+02  0.26396567509E+02  0.36820918966E+02  0.00000000000E+00 0.  1.
         11    1    4    4    0    0  0.48216354579E+01 -0.14992495650E+02 -0.15844099401E+02  0.22339619075E+02  0.51100000000E-03 0. -1.
        -11    1    4    4    0    0 -0.60656897474E+01 -0.17382953546E+02 -0.14373268089E+02  0.23357022539E+02  0.51100000000E-03 0.  1.
        -12    1    4    4    0    0  0.37394760755E+01  0.68260036571E+01  0.38207999809E+01  0.86704394203E+01  0.00000000000E+00 0.  1.
</event>
<event>
 8    1  0.2509489E-006  0.9118800E+02  0.7816164E-02  0.1184000E+00
        -11   -1    0    0    0    0  0.00000000000E+00  0.00000000000E+00  0.45593999997E+02  0.45594000000E+02  0.51100000000E-03 0. -1.
         11   -1    0    0    0    0 -0.00000000000E+00 -0.00000000000E+00 -0.45593999997E+02  0.45594000000E+02  0.51100000000E-03 0.  1.
         23    2    1    2    0    0  0.00000000000E+00  0.00000000000E+00  0.00000000000E+00  0.91188000000E+02  0.91188000000E+02 0.  0.
    9900012    2    3    3    0    0 -0.10774630042E+02 -0.96253292261E+01  0.33867977331E+02  0.54367088771E+02  0.40000010471E+02 0.  0.
        -12    1    3    3    0    0  0.10774630042E+02  0.96253292261E+01 -0.33867977331E+02  0.36820911229E+02  0.00000000000E+00 0.  1.
         11    1    4    4    0    0  0.77164690690E+01  0.23801084210E+01  0.25010841305E+01  0.84536520556E+01  0.51100000000E-03 0. -1.
        -11    1    4    4    0    0  0.30913776834E+01 -0.16983039602E+01 -0.25921500150E+01  0.43772244955E+01  0.51100000000E-03 0.  1.
         12    1    4    4    0    0 -0.21582476795E+02 -0.10307133687E+02  0.33959043215E+02  0.41536212220E+02  0.00000000000E+00 0. -1.
</event>
<event>
 8    1  0.2509489E-006  0.9118800E+02  0.7816164E-02  0.1184000E+00
        -11   -1    0    0    0    0  0.00000000000E+00  0.00000000000E+00  0.45593999997E+02  0.45594000000E+02  0.51100000000E-03 0. -1.
         11   -1    0    0    0    0 -0.00000000000E+00 -0.00000000000E+00 -0.45593999997E+02  0.45594000000E+02  0.51100000000E-03 0.  1.
         23    2    1    2    0    0  0.00000000000E+00  0.00000000000E+00  0.00000000000E+00  0.91188000000E+02  0.91188000000E+02 0.  0.
    9900012    2    3    3    0    0  0.17913212428E+02  0.13080798906E+02  0.29390168735E+02  0.54367183907E+02  0.40000227352E+02 0.  0.
        -12    1    3    3    0    0 -0.17913212428E+02 -0.13080798906E+02 -0.29390168735E+02  0.36820816093E+02  0.00000000000E+00 0.  1.
         11    1    4    4    0    0  0.94273522593E+01  0.25354120347E+01 -0.23813275013E+01  0.10048582275E+02  0.51100000000E-03 0. -1.
        -11    1    4    4    0    0  0.43609239606E+01  0.74946033806E+01  0.36394069878E+02  0.37412766005E+02  0.51100000000E-03 0.  1.
        -12    1    4    4    0    0  0.41249362078E+01  0.30507834909E+01 -0.46225736421E+01  0.69058356268E+01  0.00000000000E+00 0.  1.
</event>
<event>
 8    1  0.2509489E-006  0.9118800E+02  0.7816164E-02  0.1184000E+00
        -11   -1    0    0    0    0  0.00000000000E+00  0.00000000000E+00  0.45593999997E+02  0.45594000000E+02  0.51100000000E-03 0.  1.
         11   -1    0    0    0    0 -0.00000000000E+00 -0.00000000000E+00 -0.45593999997E+02  0.45594000000E+02  0.51100000000E-03 0. -1.
         23    2    1    2    0    0 -0.17763568394E-14  0.00000000000E+00  0.44408920985E-15  0.91188000000E+02  0.91188000000E+02 0.  0.
    9900012    2    3    3    0    0  0.12914075778E+02  0.34452175743E+02  0.14331065827E+01  0.54367087992E+02  0.40000008696E+02 0.  0.
         12    1    3    3    0    0 -0.12914075778E+02 -0.34452175743E+02 -0.14331065827E+01  0.36820912008E+02  0.00000000000E+00 0. -1.
         11    1    4    4    0    0  0.19996312484E+02  0.32967644250E+02  0.10504787827E+02  0.39963341300E+02  0.51100000000E-03 0. -1.
        -11    1    4    4    0    0 -0.17365300676E+01 -0.15285652753E+01  0.10709289626E+01  0.25493013907E+01  0.51100000000E-03 0.  1.
         12    1    4    4    0    0 -0.53457066382E+01  0.30130967681E+01 -0.10142610207E+02  0.11854445301E+02  0.00000000000E+00 0. -1.
</event>
<event>
 8    1  0.2509489E-006  0.9118800E+02  0.7816164E-02  0.1184000E+00
        -11   -1    0    0    0    0  0.00000000000E+00  0.00000000000E+00  0.45593999997E+02  0.45594000000E+02  0.51100000000E-03 0.  1.
         11   -1    0    0    0    0 -0.00000000000E+00 -0.00000000000E+00 -0.45593999997E+02  0.45594000000E+02  0.51100000000E-03 0. -1.
         23    2    1    2    0    0  0.44408920985E-15 -0.35527136788E-14 -0.35527136788E-14  0.91188000000E+02  0.91188000000E+02 0.  0.
    9900012    2    3    3    0    0 -0.20538030694E+01 -0.23971096428E+02  0.27873789530E+02  0.54367085919E+02  0.40000003970E+02 0.  0.
         12    1    3    3    0    0  0.20538030694E+01  0.23971096428E+02 -0.27873789530E+02  0.36820914081E+02  0.00000000000E+00 0. -1.
         11    1    4    4    0    0 -0.30922696864E+01 -0.42324069359E+01 -0.73367733530E+01  0.90168533191E+01  0.51100000000E-03 0. -1.
        -11    1    4    4    0    0 -0.47991321066E+01 -0.10234491495E+02  0.31702963398E+02  0.33657902098E+02  0.51100000000E-03 0.  1.
         12    1    4    4    0    0  0.58375987237E+01 -0.95041979971E+01  0.35075994847E+01  0.11692330502E+02  0.00000000000E+00 0. -1.
</event>
<event>
 8    1  0.2509489E-006  0.9118800E+02  0.7816164E-02  0.1184000E+00
        -11   -1    0    0    0    0  0.00000000000E+00  0.00000000000E+00  0.45593999997E+02  0.45594000000E+02  0.51100000000E-03 0. -1.
         11   -1    0    0    0    0 -0.00000000000E+00 -0.00000000000E+00 -0.45593999997E+02  0.45594000000E+02  0.51100000000E-03 0.  1.
         23    2    1    2    0    0  0.88817841970E-15  0.17763568394E-14 -0.71054273576E-14  0.91188000000E+02  0.91188000000E+02 0.  0.
    9900012    2    3    3    0    0 -0.25215929069E+01  0.14357578611E+02 -0.33812445626E+02  0.54367082391E+02  0.39999995926E+02 0.  0.
         12    1    3    3    0    0  0.25215929069E+01 -0.14357578611E+02  0.33812445626E+02  0.36820917609E+02  0.00000000000E+00 0. -1.
         11    1    4    4    0    0  0.66681989772E+01  0.13350447338E+02 -0.78142647115E+00  0.14943558790E+02  0.51100000000E-03 0. -1.
        -11    1    4    4    0    0  0.10926560501E+01 -0.75889023611E+01 -0.16079606545E+02  0.17814013674E+02  0.51100000000E-03 0.  1.
         12    1    4    4    0    0 -0.10282447934E+02  0.85960336343E+01 -0.16951412610E+02  0.21609509926E+02  0.00000000000E+00 0. -1.
</event>
<event>
 8    1  0.2509489E-006  0.9118800E+02  0.7816164E-02  0.1184000E+00
        -11   -1    0    0    0    0  0.00000000000E+00  0.00000000000E+00  0.45593999997E+02  0.45594000000E+02  0.51100000000E-03 0.  1.
         11   -1    0    0    0    0 -0.00000000000E+00 -0.00000000000E+00 -0.45593999997E+02  0.45594000000E+02  0.51100000000E-03 0. -1.
         23    2    1    2    0    0 -0.22204460493E-15 -0.13322676296E-14  0.00000000000E+00  0.91188000000E+02  0.91188000000E+02 0.  0.
    9900012    2    3    3    0    0 -0.16010968531E+01 -0.29165327161E+01  0.36670312870E+02  0.54367061389E+02  0.39999948049E+02 0.  0.
         12    1    3    3    0    0  0.16010968531E+01  0.29165327161E+01 -0.36670312870E+02  0.36820938611E+02  0.00000000000E+00 0. -1.
         11    1    4    4    0    0  0.52173390317E+01  0.10801607217E+02  0.14596613136E+00  0.11996526640E+02  0.51100000000E-03 0. -1.
        -11    1    4    4    0    0 -0.53566372985E+01 -0.31733697679E+00  0.21612797246E+02  0.22268975526E+02  0.51100000000E-03 0.  1.
        -12    1    4    4    0    0 -0.14617985863E+01 -0.13400802956E+02  0.14911549492E+02  0.20101559224E+02  0.00000000000E+00 0.  1.
</event>
<event>
 8    1  0.2509489E-006  0.9118800E+02  0.7816164E-02  0.1184000E+00
        -11   -1    0    0    0    0  0.00000000000E+00  0.00000000000E+00  0.45593999997E+02  0.45594000000E+02  0.51100000000E-03 0.  1.
         11   -1    0    0    0    0 -0.00000000000E+00 -0.00000000000E+00 -0.45593999997E+02  0.45594000000E+02  0.51100000000E-03 0. -1.
         23    2    1    2    0    0 -0.35527136788E-14  0.35527136788E-14  0.00000000000E+00  0.91188000000E+02  0.91188000000E+02 0.  0.
    9900012    2    3    3    0    0 -0.29030981609E+02  0.21722424732E+02  0.64119301690E+01  0.54367157018E+02  0.40000166054E+02 0.  0.
         12    1    3    3    0    0  0.29030981609E+02 -0.21722424732E+02 -0.64119301690E+01  0.36820842982E+02  0.00000000000E+00 0. -1.
         11    1    4    4    0    0  0.56352248714E+01  0.12253557414E+01  0.56125335797E+01  0.80472224704E+01  0.51100000000E-03 0. -1.
        -11    1    4    4    0    0 -0.31358565989E+02  0.17750318008E+02  0.89288687118E+01  0.37123552457E+02  0.51100000000E-03 0.  1.
         12    1    4    4    0    0 -0.33076404910E+01  0.27467509823E+01 -0.81294721225E+01  0.91963820912E+01  0.00000000000E+00 0. -1.
</event>
<event>
 8    1  0.2509489E-006  0.9118800E+02  0.7816164E-02  0.1184000E+00
        -11   -1    0    0    0    0  0.00000000000E+00  0.00000000000E+00  0.45593999997E+02  0.45594000000E+02  0.51100000000E-03 0. -1.
         11   -1    0    0    0    0 -0.00000000000E+00 -0.00000000000E+00 -0.45593999997E+02  0.45594000000E+02  0.51100000000E-03 0.  1.
         23    2    1    2    0    0 -0.17763568394E-14  0.00000000000E+00 -0.17763568394E-14  0.91188000000E+02  0.91188000000E+02 0.  0.
    9900012    2    3    3    0    0  0.11717106670E+02 -0.33739893723E+02  0.89503078684E+01  0.54367095230E+02  0.40000025196E+02 0.  0.
        -12    1    3    3    0    0 -0.11717106670E+02  0.33739893723E+02 -0.89503078684E+01  0.36820904770E+02  0.00000000000E+00 0.  1.
         11    1    4    4    0    0 -0.12417766918E+02 -0.11123065301E+02 -0.17396718763E+01  0.16761562439E+02  0.51100000000E-03 0. -1.
        -11    1    4    4    0    0  0.22293913063E+02 -0.17330604072E+02  0.13549030607E+02  0.31320035565E+02  0.51100000000E-03 0.  1.
        -12    1    4    4    0    0  0.18409605253E+01 -0.52862243500E+01 -0.28590508628E+01  0.62854972254E+01  0.00000000000E+00 0.  1.
</event>
<event>
 8    1  0.2509489E-006  0.9118800E+02  0.7816164E-02  0.1184000E+00
        -11   -1    0    0    0    0  0.00000000000E+00  0.00000000000E+00  0.45593999997E+02  0.45594000000E+02  0.51100000000E-03 0. -1.
         11   -1    0    0    0    0 -0.00000000000E+00 -0.00000000000E+00 -0.45593999997E+02  0.45594000000E+02  0.51100000000E-03 0.  1.
         23    2    1    2    0    0  0.00000000000E+00 -0.88817841970E-15  0.00000000000E+00  0.91188000000E+02  0.91188000000E+02 0.  0.
    9900012    2    3    3    0    0 -0.12587156645E+02  0.14588950493E+01  0.34571881289E+02  0.54367083892E+02  0.39999999349E+02 0.  0.
        -12    1    3    3    0    0  0.12587156645E+02 -0.14588950493E+01 -0.34571881289E+02  0.36820916108E+02  0.00000000000E+00 0.  1.
         11    1    4    4    0    0  0.34646581395E+01 -0.55753532970E+01  0.24016855570E+02  0.24897746326E+02  0.51100000000E-03 0. -1.
        -11    1    4    4    0    0 -0.12269701681E+02 -0.60936819244E+01  0.37340963156E+01  0.14199366687E+02  0.51100000000E-03 0.  1.
        -12    1    4    4    0    0 -0.37821131030E+01  0.13127930271E+02  0.68209294039E+01  0.15269970879E+02  0.00000000000E+00 0.  1.
</event>
<event>
 8    1  0.2509489E-006  0.9118800E+02  0.7816164E-02  0.1184000E+00
        -11   -1    0    0    0    0  0.00000000000E+00  0.00000000000E+00  0.45593999997E+02  0.45594000000E+02  0.51100000000E-03 0. -1.
         11   -1    0    0    0    0 -0.00000000000E+00 -0.00000000000E+00 -0.45593999997E+02  0.45594000000E+02  0.51100000000E-03 0.  1.
         23    2    1    2    0    0  0.00000000000E+00  0.00000000000E+00  0.00000000000E+00  0.91188000000E+02  0.91188000000E+02 0.  0.
    9900012    2    3    3    0    0  0.40364058845E+01 -0.29312076359E+02  0.21915512610E+02  0.54367080865E+02  0.39999992449E+02 0.  0.
        -12    1    3    3    0    0 -0.40364058845E+01  0.29312076359E+02 -0.21915512610E+02  0.36820919135E+02  0.00000000000E+00 0.  1.
         11    1    4    4    0    0 -0.12461388742E+02 -0.75649716430E+01  0.69614483414E+01  0.16154775412E+02  0.51100000000E-03 0. -1.
        -11    1    4    4    0    0  0.12395394543E+02 -0.23258466272E+02  0.18812896632E+02  0.32380968780E+02  0.51100000000E-03 0.  1.
        -12    1    4    4    0    0  0.41024000834E+01  0.15113615556E+01 -0.38588323626E+01  0.58313366735E+01  0.00000000000E+00 0.  1.
</event>
<event>
 8    1  0.2509489E-006  0.9118800E+02  0.7816164E-02  0.1184000E+00
        -11   -1    0    0    0    0  0.00000000000E+00  0.00000000000E+00  0.45593999997E+02  0.45594000000E+02  0.51100000000E-03 0. -1.
         11   -1    0    0    0    0 -0.00000000000E+00 -0.00000000000E+00 -0.45593999997E+02  0.45594000000E+02  0.51100000000E-03 0.  1.
         23    2    1    2    0    0  0.00000000000E+00  0.00000000000E+00 -0.17763568394E-14  0.91188000000E+02  0.91188000000E+02 0.  0.
    9900012    2    3    3    0    0  0.33347082082E+02  0.14810238509E+02 -0.49404688522E+01  0.54367091802E+02  0.40000017380E+02 0.  0.
        -12    1    3    3    0    0 -0.33347082082E+02 -0.14810238509E+02  0.49404688522E+01  0.36820908198E+02  0.00000000000E+00 0.  1.
         11    1    4    4    0    0  0.25599162552E+02 -0.11630041951E+01 -0.81997328458E+00  0.25638682856E+02  0.51100000000E-03 0. -1.
        -11    1    4    4    0    0  0.93129994359E+01  0.67582643079E+01  0.75603147434E+01  0.13768240782E+02  0.51100000000E-03 0.  1.
        -12    1    4    4    0    0 -0.15650799066E+01  0.92149783965E+01 -0.11680810311E+02  0.14960168164E+02  0.00000000000E+00 0.  1.
</event>
<event>
 8    1  0.2509489E-006  0.9118800E+02  0.7816164E-02  0.1184000E+00
        -11   -1    0    0    0    0  0.00000000000E+00  0.00000000000E+00  0.45593999997E+02  0.45594000000E+02  0.51100000000E-03 0.  1.
         11   -1    0    0    0    0 -0.00000000000E+00 -0.00000000000E+00 -0.45593999997E+02  0.45594000000E+02  0.51100000000E-03 0. -1.
         23    2    1    2    0    0  0.17763568394E-14  0.00000000000E+00 -0.17763568394E-14  0.91188000000E+02  0.91188000000E+02 0.  0.
    9900012    2    3    3    0    0  0.97552265328E+01 -0.32766245767E+02 -0.13674181092E+02  0.54367156244E+02  0.40000164289E+02 0.  0.
        -12    1    3    3    0    0 -0.97552265328E+01  0.32766245767E+02  0.13674181092E+02  0.36820843756E+02  0.00000000000E+00 0.  1.
         11    1    4    4    0    0  0.56280203171E+00 -0.15129724866E+02 -0.10618418120E+02  0.18492596472E+02  0.51100000000E-03 0. -1.
        -11    1    4    4    0    0  0.20058912205E+02 -0.96779788298E+01 -0.21444159684E+01  0.22374578280E+02  0.51100000000E-03 0.  1.
        -12    1    4    4    0    0 -0.10866487704E+02 -0.79585420712E+01 -0.91134700331E+00  0.13499981492E+02  0.00000000000E+00 0.  1.
</event>
<event>
 8    1  0.2509489E-006  0.9118800E+02  0.7816164E-02  0.1184000E+00
        -11   -1    0    0    0    0  0.00000000000E+00  0.00000000000E+00  0.45593999997E+02  0.45594000000E+02  0.51100000000E-03 0.  1.
         11   -1    0    0    0    0 -0.00000000000E+00 -0.00000000000E+00 -0.45593999997E+02  0.45594000000E+02  0.51100000000E-03 0. -1.
         23    2    1    2    0    0  0.00000000000E+00  0.35527136788E-14  0.00000000000E+00  0.91188000000E+02  0.91188000000E+02 0.  0.
    9900012    2    3    3    0    0  0.78016977017E+01 -0.31896075915E+02  0.16659468455E+02  0.54367298825E+02  0.40000489328E+02 0.  0.
         12    1    3    3    0    0 -0.78016977017E+01  0.31896075915E+02 -0.16659468455E+02  0.36820701175E+02  0.00000000000E+00 0. -1.
         11    1    4    4    0    0  0.48062312295E+01 -0.21448203017E+01 -0.79653670180E+00  0.53230239279E+01  0.51100000000E-03 0. -1.
        -11    1    4    4    0    0  0.24532919595E+00 -0.18370075207E+02  0.27865924337E+02  0.33377081792E+02  0.51100000000E-03 0.  1.
        -12    1    4    4    0    0  0.27501372763E+01 -0.11381180406E+02 -0.10409919180E+02  0.15667193106E+02  0.00000000000E+00 0.  1.
</event>
<event>
 8    1  0.2509489E-006  0.9118800E+02  0.7816164E-02  0.1184000E+00
        -11   -1    0    0    0    0  0.00000000000E+00  0.00000000000E+00  0.45593999997E+02  0.45594000000E+02  0.51100000000E-03 0. -1.
         11   -1    0    0    0    0 -0.00000000000E+00 -0.00000000000E+00 -0.45593999997E+02  0.45594000000E+02  0.51100000000E-03 0.  1.
         23    2    1    2    0    0  0.00000000000E+00 -0.35527136788E-14  0.17763568394E-14  0.91188000000E+02  0.91188000000E+02 0.  0.
    9900012    2    3    3    0    0 -0.22601958542E+02 -0.27722505567E+02 -0.87403680931E+01  0.54367083672E+02  0.39999998847E+02 0.  0.
        -12    1    3    3    0    0  0.22601958542E+02  0.27722505567E+02  0.87403680931E+01  0.36820916328E+02  0.00000000000E+00 0.  1.
         11    1    4    4    0    0 -0.27323656206E+01 -0.74744358643E+01  0.23428211294E+01  0.82958920244E+01  0.51100000000E-03 0. -1.
        -11    1    4    4    0    0  0.28252837244E+01 -0.16397410405E+01 -0.15985793173E+02  0.16316144227E+02  0.51100000000E-03 0.  1.
         12    1    4    4    0    0 -0.22694876645E+02 -0.18608328662E+02  0.49026039501E+01  0.29755047421E+02  0.00000000000E+00 0. -1.
</event>
<event>
 8    1  0.2509489E-006  0.9118800E+02  0.7816164E-02  0.1184000E+00
        -11   -1    0    0    0    0  0.00000000000E+00  0.00000000000E+00  0.45593999997E+02  0.45594000000E+02  0.51100000000E-03 0.  1.
         11   -1    0    0    0    0 -0.00000000000E+00 -0.00000000000E+00 -0.45593999997E+02  0.45594000000E+02  0.51100000000E-03 0. -1.
         23    2    1    2    0    0  0.00000000000E+00  0.00000000000E+00  0.00000000000E+00  0.91188000000E+02  0.91188000000E+02 0.  0.
    9900012    2    3    3    0    0  0.47161358942E+01 -0.34166075215E+02  0.12892764200E+02  0.54367000528E+02  0.39999809303E+02 0.  0.
         12    1    3    3    0    0 -0.47161358942E+01  0.34166075215E+02 -0.12892764200E+02  0.36820999472E+02  0.00000000000E+00 0. -1.
         11    1    4    4    0    0  0.55441038097E+01 -0.21559824651E+02  0.63895995229E+01  0.23160097331E+02  0.51100000000E-03 0. -1.
        -11    1    4    4    0    0 -0.42889391109E+01 -0.19307312607E+02  0.10791941684E+02  0.22530719570E+02  0.51100000000E-03 0.  1.
         12    1    4    4    0    0  0.34609711954E+01  0.67010620427E+01 -0.42887770062E+01  0.86761836267E+01  0.00000000000E+00 0. -1.
</event>
<event>
 8    1  0.2509489E-006  0.9118800E+02  0.7816164E-02  0.1184000E+00
        -11   -1    0    0    0    0  0.00000000000E+00  0.00000000000E+00  0.45593999997E+02  0.45594000000E+02  0.51100000000E-03 0. -1.
         11   -1    0    0    0    0 -0.00000000000E+00 -0.00000000000E+00 -0.45593999997E+02  0.45594000000E+02  0.51100000000E-03 0.  1.
         23    2    1    2    0    0 -0.17763568394E-14  0.00000000000E+00  0.00000000000E+00  0.91188000000E+02  0.91188000000E+02 0.  0.
    9900012    2    3    3    0    0  0.87457646733E+01  0.17491554736E+02  0.31198351831E+02  0.54367081437E+02  0.39999993752E+02 0.  0.
        -12    1    3    3    0    0 -0.87457646733E+01 -0.17491554736E+02 -0.31198351831E+02  0.36820918563E+02  0.00000000000E+00 0.  1.
         11    1    4    4    0    0  0.36727858190E+01 -0.56957802929E+01  0.28765454411E+02  0.29553047839E+02  0.51100000000E-03 0. -1.
        -11    1    4    4    0    0  0.65726949674E+01  0.15099983359E+02  0.15283769419E+01  0.16539218631E+02  0.51100000000E-03 0.  1.
         12    1    4    4    0    0 -0.14997161130E+01  0.80873516703E+01  0.90452047848E+00  0.82748149680E+01  0.00000000000E+00 0. -1.
</event>
<event>
 8    1  0.2509489E-006  0.9118800E+02  0.7816164E-02  0.1184000E+00
        -11   -1    0    0    0    0  0.00000000000E+00  0.00000000000E+00  0.45593999997E+02  0.45594000000E+02  0.51100000000E-03 0. -1.
         11   -1    0    0    0    0 -0.00000000000E+00 -0.00000000000E+00 -0.45593999997E+02  0.45594000000E+02  0.51100000000E-03 0.  1.
         23    2    1    2    0    0  0.44408920985E-15 -0.35527136788E-14 -0.35527136788E-14  0.91188000000E+02  0.91188000000E+02 0.  0.
    9900012    2    3    3    0    0  0.17738162351E+01 -0.21307861863E+02  0.29976777827E+02  0.54367100906E+02  0.40000038135E+02 0.  0.
        -12    1    3    3    0    0 -0.17738162351E+01  0.21307861863E+02 -0.29976777827E+02  0.36820899094E+02  0.00000000000E+00 0.  1.
         11    1    4    4    0    0  0.20750905178E+01 -0.19721179527E+02  0.97740113694E+01  0.22107967367E+02  0.51100000000E-03 0. -1.
        -11    1    4    4    0    0 -0.47194050654E+01 -0.12507742693E+02  0.10798651213E+02  0.17185088877E+02  0.51100000000E-03 0.  1.
        -12    1    4    4    0    0  0.44181307827E+01  0.10921060357E+02  0.94041152442E+01  0.15074044661E+02  0.00000000000E+00 0.  1.
</event>
<event>
 8    1  0.2509489E-006  0.9118800E+02  0.7816164E-02  0.1184000E+00
        -11   -1    0    0    0    0  0.00000000000E+00  0.00000000000E+00  0.45593999997E+02  0.45594000000E+02  0.51100000000E-03 0.  1.
         11   -1    0    0    0    0 -0.00000000000E+00 -0.00000000000E+00 -0.45593999997E+02  0.45594000000E+02  0.51100000000E-03 0. -1.
         23    2    1    2    0    0 -0.17763568394E-14  0.00000000000E+00  0.00000000000E+00  0.91188000000E+02  0.91188000000E+02 0.  0.
    9900012    2    3    3    0    0  0.82005796441E+01  0.33399252537E+02 -0.13153710817E+02  0.54367086313E+02  0.40000004867E+02 0.  0.
        -12    1    3    3    0    0 -0.82005796441E+01 -0.33399252537E+02  0.13153710817E+02  0.36820913687E+02  0.00000000000E+00 0.  1.
         11    1    4    4    0    0  0.18094447217E+02  0.11362388723E+02 -0.16995591381E+01  0.21433651091E+02  0.51100000000E-03 0. -1.
        -11    1    4    4    0    0 -0.35372920673E+01 -0.16396842785E+01  0.25898817142E+01  0.46806503028E+01  0.51100000000E-03 0.  1.
         12    1    4    4    0    0 -0.63565755053E+01  0.23676548092E+02 -0.14044033393E+02  0.28252784919E+02  0.00000000000E+00 0. -1.
</event>
<event>
 8    1  0.2509489E-006  0.9118800E+02  0.7816164E-02  0.1184000E+00
        -11   -1    0    0    0    0  0.00000000000E+00  0.00000000000E+00  0.45593999997E+02  0.45594000000E+02  0.51100000000E-03 0.  1.
         11   -1    0    0    0    0 -0.00000000000E+00 -0.00000000000E+00 -0.45593999997E+02  0.45594000000E+02  0.51100000000E-03 0. -1.
         23    2    1    2    0    0  0.00000000000E+00  0.00000000000E+00 -0.88817841970E-15  0.91188000000E+02  0.91188000000E+02 0.  0.
    9900012    2    3    3    0    0  0.80891824632E+01 -0.35327113230E+02  0.65059488571E+01  0.54367256219E+02  0.40000392200E+02 0.  0.
         12    1    3    3    0    0 -0.80891824632E+01  0.35327113230E+02 -0.65059488571E+01  0.36820743781E+02  0.00000000000E+00 0. -1.
         11    1    4    4    0    0 -0.33415785442E+01  0.29476581933E+01  0.94675092447E+01  0.10463678490E+02  0.51100000000E-03 0. -1.
        -11    1    4    4    0    0  0.81571334646E+01 -0.14565755975E+02 -0.93464691049E+01  0.19132604592E+02  0.51100000000E-03 0.  1.
        -12    1    4    4    0    0  0.32736275428E+01 -0.23709015448E+02  0.63849087173E+01  0.24770973136E+02  0.00000000000E+00 0.  1.
</event>
<event>
 8    1  0.2509489E-006  0.9118800E+02  0.7816164E-02  0.1184000E+00
        -11   -1    0    0    0    0  0.00000000000E+00  0.00000000000E+00  0.45593999997E+02  0.45594000000E+02  0.51100000000E-03 0. -1.
         11   -1    0    0    0    0 -0.00000000000E+00 -0.00000000000E+00 -0.45593999997E+02  0.45594000000E+02  0.51100000000E-03 0.  1.
         23    2    1    2    0    0  0.17763568394E-14 -0.35527136788E-14  0.00000000000E+00  0.91188000000E+02  0.91188000000E+02 0.  0.
    9900012    2    3    3    0    0  0.99410502748E+01  0.22611476502E+02  0.27307056936E+02  0.54367099567E+02  0.40000035083E+02 0.  0.
        -12    1    3    3    0    0 -0.99410502748E+01 -0.22611476502E+02 -0.27307056936E+02  0.36820900433E+02  0.00000000000E+00 0.  1.
         11    1    4    4    0    0 -0.36773776741E+00 -0.16966520686E+01  0.12902841656E+02  0.13019108356E+02  0.51100000000E-03 0. -1.
        -11    1    4    4    0    0  0.65001507214E+01 -0.13155998927E+01 -0.55505804227E+01  0.86482198034E+01  0.51100000000E-03 0.  1.
         12    1    4    4    0    0  0.38086373209E+01  0.25623728464E+02  0.19954795702E+02  0.32699771408E+02  0.00000000000E+00 0. -1.
</event>
<event>
 8    1  0.2509489E-006  0.9118800E+02  0.7816164E-02  0.1184000E+00
        -11   -1    0    0    0    0  0.00000000000E+00  0.00000000000E+00  0.45593999997E+02  0.45594000000E+02  0.51100000000E-03 0.  1.
         11   -1    0    0    0    0 -0.00000000000E+00 -0.00000000000E+00 -0.45593999997E+02  0.45594000000E+02  0.51100000000E-03 0. -1.
         23    2    1    2    0    0  0.00000000000E+00 -0.71054273576E-14  0.00000000000E+00  0.91188000000E+02  0.91188000000E+02 0.  0.
    9900012    2    3    3    0    0 -0.34634987908E+01  0.20346186013E+02  0.30492893936E+02  0.54367086245E+02  0.40000004713E+02 0.  0.
         12    1    3    3    0    0  0.34634987908E+01 -0.20346186013E+02 -0.30492893936E+02  0.36820913755E+02  0.00000000000E+00 0. -1.
         11    1    4    4    0    0 -0.79872305354E+01  0.15386980969E+02  0.22757873799E+02  0.28609017024E+02  0.51100000000E-03 0. -1.
        -11    1    4    4    0    0  0.80127539319E+01  0.47795399873E+01  0.15018178171E+02  0.17680325334E+02  0.51100000000E-03 0.  1.
         12    1    4    4    0    0 -0.34890221874E+01  0.17966505633E+00 -0.72831580341E+01  0.80777438871E+01  0.00000000000E+00 0. -1.
</event>
<event>
 8    1  0.2509489E-006  0.9118800E+02  0.7816164E-02  0.1184000E+00
        -11   -1    0    0    0    0  0.00000000000E+00  0.00000000000E+00  0.45593999997E+02  0.45594000000E+02  0.51100000000E-03 0.  1.
         11   -1    0    0    0    0 -0.00000000000E+00 -0.00000000000E+00 -0.45593999997E+02  0.45594000000E+02  0.51100000000E-03 0. -1.
         23    2    1    2    0    0 -0.35527136788E-14  0.35527136788E-14  0.35527136788E-14  0.91188000000E+02  0.91188000000E+02 0.  0.
    9900012    2    3    3    0    0 -0.18962550628E+02  0.22020826103E+02  0.22611603788E+02  0.54367085638E+02  0.40000003328E+02 0.  0.
         12    1    3    3    0    0  0.18962550628E+02 -0.22020826103E+02 -0.22611603788E+02  0.36820914362E+02  0.00000000000E+00 0. -1.
         11    1    4    4    0    0  0.25036499669E+01  0.70141820804E+01 -0.60338613235E+00  0.74720203760E+01  0.51100000000E-03 0. -1.
        -11    1    4    4    0    0 -0.57776639562E+01  0.14347748187E+02  0.26657447042E+02  0.30819778744E+02  0.51100000000E-03 0.  1.
         12    1    4    4    0    0 -0.15688536639E+02  0.65889583588E+00 -0.34424571207E+01  0.16075286517E+02  0.00000000000E+00 0. -1.
</event>
<event>
 8    1  0.2509489E-006  0.9118800E+02  0.7816164E-02  0.1184000E+00
        -11   -1    0    0    0    0  0.00000000000E+00  0.00000000000E+00  0.45593999997E+02  0.45594000000E+02  0.51100000000E-03 0. -1.
         11   -1    0    0    0    0 -0.00000000000E+00 -0.00000000000E+00 -0.45593999997E+02  0.45594000000E+02  0.51100000000E-03 0.  1.
         23    2    1    2    0    0 -0.35527136788E-14  0.00000000000E+00  0.71054273576E-14  0.91188000000E+02  0.91188000000E+02 0.  0.
    9900012    2    3    3    0    0  0.21850819309E+02 -0.21924241879E+02 -0.19941125516E+02  0.54367093258E+02  0.40000020700E+02 0.  0.
         12    1    3    3    0    0 -0.21850819309E+02  0.21924241879E+02  0.19941125516E+02  0.36820906742E+02  0.00000000000E+00 0. -1.
         11    1    4    4    0    0  0.25052654914E+01  0.34811942974E+01  0.94091321423E+00  0.43909437318E+01  0.51100000000E-03 0. -1.
        -11    1    4    4    0    0  0.83443592625E+01 -0.27813688596E+02 -0.34775215876E+01  0.29245901618E+02  0.51100000000E-03 0.  1.
        -12    1    4    4    0    0  0.11001194555E+02  0.24082524189E+01 -0.17404517143E+02  0.20730247908E+02  0.00000000000E+00 0.  1.
</event>
<event>
 8    1  0.2509489E-006  0.9118800E+02  0.7816164E-02  0.1184000E+00
        -11   -1    0    0    0    0  0.00000000000E+00  0.00000000000E+00  0.45593999997E+02  0.45594000000E+02  0.51100000000E-03 0. -1.
         11   -1    0    0    0    0 -0.00000000000E+00 -0.00000000000E+00 -0.45593999997E+02  0.45594000000E+02  0.51100000000E-03 0.  1.
         23    2    1    2    0    0  0.00000000000E+00  0.00000000000E+00  0.00000000000E+00  0.91188000000E+02  0.91188000000E+02 0.  0.
    9900012    2    3    3    0    0 -0.18030311740E+02 -0.10102285860E+02 -0.30473435749E+02  0.54367100943E+02  0.40000038219E+02 0.  0.
         12    1    3    3    0    0  0.18030311740E+02  0.10102285860E+02  0.30473435749E+02  0.36820899057E+02  0.00000000000E+00 0. -1.
         11    1    4    4    0    0  0.66398693243E+01  0.69026127023E+01 -0.19925543591E+02  0.22107944600E+02  0.51100000000E-03 0. -1.
        -11    1    4    4    0    0 -0.17167881143E+02 -0.85813707076E+01 -0.61914548842E+01  0.20167056801E+02  0.51100000000E-03 0.  1.
         12    1    4    4    0    0 -0.75022999209E+01 -0.84235278542E+01 -0.43564372738E+01  0.12092099542E+02  0.00000000000E+00 0. -1.
</event>
<event>
 8    1  0.2509489E-006  0.9118800E+02  0.7816164E-02  0.1184000E+00
        -11   -1    0    0    0    0  0.00000000000E+00  0.00000000000E+00  0.45593999997E+02  0.45594000000E+02  0.51100000000E-03 0.  1.
         11   -1    0    0    0    0 -0.00000000000E+00 -0.00000000000E+00 -0.45593999997E+02  0.45594000000E+02  0.51100000000E-03 0. -1.
         23    2    1    2    0    0 -0.88817841970E-15  0.71054273576E-14 -0.17763568394E-14  0.91188000000E+02  0.91188000000E+02 0.  0.
    9900012    2    3    3    0    0 -0.75785916759E+01  0.34830457425E+02 -0.92294724239E+01  0.54367095918E+02  0.40000026764E+02 0.  0.
         12    1    3    3    0    0  0.75785916759E+01 -0.34830457425E+02  0.92294724239E+01  0.36820904082E+02  0.00000000000E+00 0. -1.
         11    1    4    4    0    0 -0.94874901183E+01  0.19567544524E+01 -0.13268566494E+02  0.16428518308E+02  0.51100000000E-03 0. -1.
        -11    1    4    4    0    0 -0.24327716776E+01  0.49448184714E+01 -0.58095396556E+01  0.80075189055E+01  0.51100000000E-03 0.  1.
        -12    1    4    4    0    0  0.43416701199E+01  0.27928884501E+02  0.98486337258E+01  0.29931058704E+02  0.00000000000E+00 0.  1.
</event>
<event>
 8    1  0.2509489E-006  0.9118800E+02  0.7816164E-02  0.1184000E+00
        -11   -1    0    0    0    0  0.00000000000E+00  0.00000000000E+00  0.45593999997E+02  0.45594000000E+02  0.51100000000E-03 0.  1.
         11   -1    0    0    0    0 -0.00000000000E+00 -0.00000000000E+00 -0.45593999997E+02  0.45594000000E+02  0.51100000000E-03 0. -1.
         23    2    1    2    0    0  0.00000000000E+00  0.00000000000E+00  0.00000000000E+00  0.91188000000E+02  0.91188000000E+02 0.  0.
    9900012    2    3    3    0    0 -0.25151216375E+02 -0.21020538904E+02  0.16772974246E+02  0.54367090098E+02  0.40000013496E+02 0.  0.
         12    1    3    3    0    0  0.25151216375E+02  0.21020538904E+02 -0.16772974246E+02  0.36820909902E+02  0.00000000000E+00 0. -1.
         11    1    4    4    0    0 -0.11221515438E+02 -0.95850797585E+01 -0.30439080476E+01  0.15068561284E+02  0.51100000000E-03 0. -1.
        -11    1    4    4    0    0  0.45578137153E+01 -0.67197275960E+01 -0.37773433496E+01  0.89552625797E+01  0.51100000000E-03 0.  1.
         12    1    4    4    0    0 -0.18487514653E+02 -0.47157315495E+01  0.23594225643E+02  0.30343266235E+02  0.00000000000E+00 0. -1.
</event>
<event>
 8    1  0.2509489E-006  0.9118800E+02  0.7816164E-02  0.1184000E+00
        -11   -1    0    0    0    0  0.00000000000E+00  0.00000000000E+00  0.45593999997E+02  0.45594000000E+02  0.51100000000E-03 0.  1.
         11   -1    0    0    0    0 -0.00000000000E+00 -0.00000000000E+00 -0.45593999997E+02  0.45594000000E+02  0.51100000000E-03 0. -1.
         23    2    1    2    0    0  0.00000000000E+00  0.33306690739E-15  0.00000000000E+00  0.91188000000E+02  0.91188000000E+02 0.  0.
    9900012    2    3    3    0    0  0.32980451355E+02  0.84543927144E+00  0.16350998940E+02  0.54367080600E+02  0.39999991843E+02 0.  0.
         12    1    3    3    0    0 -0.32980451355E+02 -0.84543927144E+00 -0.16350998940E+02  0.36820919400E+02  0.00000000000E+00 0. -1.
         11    1    4    4    0    0  0.85544963272E+00 -0.12976128424E+02  0.58657726351E+01  0.14266008265E+02  0.51100000000E-03 0. -1.
        -11    1    4    4    0    0  0.19837633351E+02 -0.47068095806E+00  0.59313340108E+01  0.20710720918E+02  0.51100000000E-03 0.  1.
         12    1    4    4    0    0  0.12287368371E+02  0.14292248653E+02  0.45538922944E+01  0.19390351417E+02  0.00000000000E+00 0. -1.
</event>
<event>
 8    1  0.2509489E-006  0.9118800E+02  0.7816164E-02  0.1184000E+00
        -11   -1    0    0    0    0  0.00000000000E+00  0.00000000000E+00  0.45593999997E+02  0.45594000000E+02  0.51100000000E-03 0.  1.
         11   -1    0    0    0    0 -0.00000000000E+00 -0.00000000000E+00 -0.45593999997E+02  0.45594000000E+02  0.51100000000E-03 0. -1.
         23    2    1    2    0    0  0.35527136788E-14  0.00000000000E+00  0.35527136788E-14  0.91188000000E+02  0.91188000000E+02 0.  0.
    9900012    2    3    3    0    0 -0.20986341526E+02  0.28062206839E+02  0.11307799921E+02  0.54367077654E+02  0.39999985128E+02 0.  0.
         12    1    3    3    0    0  0.20986341526E+02 -0.28062206839E+02 -0.11307799921E+02  0.36820922346E+02  0.00000000000E+00 0. -1.
         11    1    4    4    0    0 -0.26179146356E+01  0.29078175115E+01 -0.11387774308E+02  0.12041191123E+02  0.51100000000E-03 0. -1.
        -11    1    4    4    0    0 -0.15398127021E+02  0.15257164366E+02  0.56637075807E+01  0.22404485356E+02  0.51100000000E-03 0.  1.
         12    1    4    4    0    0 -0.29702998696E+01  0.98972249614E+01  0.17031866648E+02  0.19921401175E+02  0.00000000000E+00 0. -1.
</event>
<event>
 8    1  0.2509489E-006  0.9118800E+02  0.7816164E-02  0.1184000E+00
        -11   -1    0    0    0    0  0.00000000000E+00  0.00000000000E+00  0.45593999997E+02  0.45594000000E+02  0.51100000000E-03 0. -1.
         11   -1    0    0    0    0 -0.00000000000E+00 -0.00000000000E+00 -0.45593999997E+02  0.45594000000E+02  0.51100000000E-03 0.  1.
         23    2    1    2    0    0 -0.35527136788E-14 -0.17763568394E-14  0.00000000000E+00  0.91188000000E+02  0.91188000000E+02 0.  0.
    9900012    2    3    3    0    0 -0.10497524782E+02 -0.83887194418E+01 -0.34281352176E+02  0.54367085461E+02  0.40000002926E+02 0.  0.
         12    1    3    3    0    0  0.10497524782E+02  0.83887194418E+01  0.34281352176E+02  0.36820914539E+02  0.00000000000E+00 0. -1.
         11    1    4    4    0    0 -0.20117049130E+01  0.98926304248E+01 -0.26931263972E+01  0.10448158854E+02  0.51100000000E-03 0. -1.
        -11    1    4    4    0    0  0.25116431430E+01  0.44867809016E+01 -0.66365930749E+01  0.83954703287E+01  0.51100000000E-03 0.  1.
        -12    1    4    4    0    0 -0.10997463012E+02 -0.22768130768E+02 -0.24951632704E+02  0.35523456279E+02  0.00000000000E+00 0.  1.
</event>
<event>
 8    1  0.2509489E-006  0.9118800E+02  0.7816164E-02  0.1184000E+00
        -11   -1    0    0    0    0  0.00000000000E+00  0.00000000000E+00  0.45593999997E+02  0.45594000000E+02  0.51100000000E-03 0. -1.
         11   -1    0    0    0    0 -0.00000000000E+00 -0.00000000000E+00 -0.45593999997E+02  0.45594000000E+02  0.51100000000E-03 0.  1.
         23    2    1    2    0    0  0.00000000000E+00  0.00000000000E+00  0.00000000000E+00  0.91188000000E+02  0.91188000000E+02 0.  0.
    9900012    2    3    3    0    0 -0.21496888742E+02 -0.29811303157E+02 -0.22248496010E+01  0.54367082341E+02  0.39999995813E+02 0.  0.
         12    1    3    3    0    0  0.21496888742E+02  0.29811303157E+02  0.22248496010E+01  0.36820917659E+02  0.00000000000E+00 0. -1.
         11    1    4    4    0    0  0.10219959914E+02 -0.12548925425E+02  0.30979068311E+01  0.16477868094E+02  0.51100000000E-03 0. -1.
        -11    1    4    4    0    0 -0.29118422826E+02 -0.13925671248E+02 -0.74935807682E+01  0.33135488839E+02  0.51100000000E-03 0.  1.
        -12    1    4    4    0    0 -0.25984258295E+01 -0.33367064844E+01  0.21708243361E+01  0.47537254078E+01  0.00000000000E+00 0.  1.
</event>
<event>
 8    1  0.2509489E-006  0.9118800E+02  0.7816164E-02  0.1184000E+00
        -11   -1    0    0    0    0  0.00000000000E+00  0.00000000000E+00  0.45593999997E+02  0.45594000000E+02  0.51100000000E-03 0.  1.
         11   -1    0    0    0    0 -0.00000000000E+00 -0.00000000000E+00 -0.45593999997E+02  0.45594000000E+02  0.51100000000E-03 0. -1.
         23    2    1    2    0    0  0.00000000000E+00  0.35527136788E-14  0.17763568394E-14  0.91188000000E+02  0.91188000000E+02 0.  0.
    9900012    2    3    3    0    0  0.16291272381E+02  0.29068073005E+02  0.15665923048E+02  0.54367087886E+02  0.40000008453E+02 0.  0.
         12    1    3    3    0    0 -0.16291272381E+02 -0.29068073005E+02 -0.15665923048E+02  0.36820912114E+02  0.00000000000E+00 0. -1.
         11    1    4    4    0    0 -0.22864622135E+01  0.19876596525E+02 -0.29546490509E+01  0.20224661929E+02  0.51100000000E-03 0. -1.
        -11    1    4    4    0    0  0.16949869342E+01 -0.33640708707E+01  0.11225923805E+02  0.11841086059E+02  0.51100000000E-03 0.  1.
        -12    1    4    4    0    0  0.16882747660E+02  0.12555547351E+02  0.73946482938E+01  0.22301339898E+02  0.00000000000E+00 0.  1.
</event>
<event>
 8    1  0.2509489E-006  0.9118800E+02  0.7816164E-02  0.1184000E+00
        -11   -1    0    0    0    0  0.00000000000E+00  0.00000000000E+00  0.45593999997E+02  0.45594000000E+02  0.51100000000E-03 0. -1.
         11   -1    0    0    0    0 -0.00000000000E+00 -0.00000000000E+00 -0.45593999997E+02  0.45594000000E+02  0.51100000000E-03 0.  1.
         23    2    1    2    0    0  0.00000000000E+00 -0.35527136788E-14  0.00000000000E+00  0.91188000000E+02  0.91188000000E+02 0.  0.
    9900012    2    3    3    0    0  0.20847821992E+02 -0.20634788075E+02  0.22256526972E+02  0.54367093526E+02  0.40000021311E+02 0.  0.
        -12    1    3    3    0    0 -0.20847821992E+02  0.20634788075E+02 -0.22256526972E+02  0.36820906474E+02  0.00000000000E+00 0.  1.
         11    1    4    4    0    0  0.27883265428E+02 -0.18871731774E+02  0.25896228612E+02  0.42476268759E+02  0.51100000000E-03 0. -1.
        -11    1    4    4    0    0 -0.59805523685E+01 -0.50602933512E+01 -0.28787698769E+01  0.83463100648E+01  0.51100000000E-03 0.  1.
         12    1    4    4    0    0 -0.10548910671E+01  0.32972370501E+01 -0.76093176362E+00  0.35445147026E+01  0.00000000000E+00 0. -1.
</event>
<event>
 8    1  0.2509489E-006  0.9118800E+02  0.7816164E-02  0.1184000E+00
        -11   -1    0    0    0    0  0.00000000000E+00  0.00000000000E+00  0.45593999997E+02  0.45594000000E+02  0.51100000000E-03 0.  1.
         11   -1    0    0    0    0 -0.00000000000E+00 -0.00000000000E+00 -0.45593999997E+02  0.45594000000E+02  0.51100000000E-03 0. -1.
         23    2    1    2    0    0  0.00000000000E+00  0.00000000000E+00  0.00000000000E+00  0.91188000000E+02  0.91188000000E+02 0.  0.
    9900012    2    3    3    0    0 -0.34885630481E+02 -0.51817509934E+01  0.10579121282E+02  0.54367142263E+02  0.40000132417E+02 0.  0.
         12    1    3    3    0    0  0.34885630481E+02  0.51817509934E+01 -0.10579121282E+02  0.36820857737E+02  0.00000000000E+00 0. -1.
         11    1    4    4    0    0 -0.26562203432E+01  0.53809444660E+01  0.87583199873E+01  0.10616884624E+02  0.51100000000E-03 0. -1.
        -11    1    4    4    0    0 -0.17505629951E+02  0.25981983751E+01  0.12147051396E+02  0.21465054686E+02  0.51100000000E-03 0.  1.
        -12    1    4    4    0    0 -0.14723780186E+02 -0.13160893835E+02 -0.10326250102E+02  0.22285202953E+02  0.00000000000E+00 0.  1.
</event>
<event>
 8    1  0.2509489E-006  0.9118800E+02  0.7816164E-02  0.1184000E+00
        -11   -1    0    0    0    0  0.00000000000E+00  0.00000000000E+00  0.45593999997E+02  0.45594000000E+02  0.51100000000E-03 0. -1.
         11   -1    0    0    0    0 -0.00000000000E+00 -0.00000000000E+00 -0.45593999997E+02  0.45594000000E+02  0.51100000000E-03 0.  1.
         23    2    1    2    0    0 -0.17763568394E-14  0.00000000000E+00  0.00000000000E+00  0.91188000000E+02  0.91188000000E+02 0.  0.
    9900012    2    3    3    0    0 -0.13194070100E+02  0.88655606058E+01 -0.33212916651E+02  0.54367089050E+02  0.40000011108E+02 0.  0.
         12    1    3    3    0    0  0.13194070100E+02 -0.88655606058E+01  0.33212916651E+02  0.36820910950E+02  0.00000000000E+00 0. -1.
         11    1    4    4    0    0 -0.13031973945E+01  0.85312163805E+00  0.69982274525E+00  0.17075983469E+01  0.51100000000E-03 0. -1.
        -11    1    4    4    0    0  0.32334467410E+01 -0.13157664340E+02 -0.16511224354E+02  0.21358835142E+02  0.51100000000E-03 0.  1.
        -12    1    4    4    0    0 -0.15124319447E+02  0.21170103308E+02 -0.17401515043E+02  0.31300655561E+02  0.00000000000E+00 0.  1.
</event>
<event>
 8    1  0.2509489E-006  0.9118800E+02  0.7816164E-02  0.1184000E+00
        -11   -1    0    0    0    0  0.00000000000E+00  0.00000000000E+00  0.45593999997E+02  0.45594000000E+02  0.51100000000E-03 0.  1.
         11   -1    0    0    0    0 -0.00000000000E+00 -0.00000000000E+00 -0.45593999997E+02  0.45594000000E+02  0.51100000000E-03 0. -1.
         23    2    1    2    0    0  0.17763568394E-14  0.00000000000E+00  0.00000000000E+00  0.91188000000E+02  0.91188000000E+02 0.  0.
    9900012    2    3    3    0    0 -0.96001645846E+01 -0.31634749363E+01  0.35406346349E+02  0.54367080735E+02  0.39999992153E+02 0.  0.
         12    1    3    3    0    0  0.96001645846E+01  0.31634749363E+01 -0.35406346349E+02  0.36820919265E+02  0.00000000000E+00 0. -1.
         11    1    4    4    0    0 -0.51111304937E+01  0.40478349026E+00 -0.54901164724E+01  0.75119161164E+01  0.51100000000E-03 0. -1.
        -11    1    4    4    0    0 -0.72034764488E+01 -0.49402565835E+01  0.36205906254E+01  0.94554156332E+01  0.51100000000E-03 0.  1.
        -12    1    4    4    0    0  0.27144423578E+01  0.13719981570E+01  0.37275872196E+02  0.37399748986E+02  0.00000000000E+00 0.  1.
</event>
<event>
 8    1  0.2509489E-006  0.9118800E+02  0.7816164E-02  0.1184000E+00
        -11   -1    0    0    0    0  0.00000000000E+00  0.00000000000E+00  0.45593999997E+02  0.45594000000E+02  0.51100000000E-03 0. -1.
         11   -1    0    0    0    0 -0.00000000000E+00 -0.00000000000E+00 -0.45593999997E+02  0.45594000000E+02  0.51100000000E-03 0.  1.
         23    2    1    2    0    0  0.00000000000E+00  0.00000000000E+00  0.00000000000E+00  0.91188000000E+02  0.91188000000E+02 0.  0.
    9900012    2    3    3    0    0  0.57531778065E+01 -0.14340601972E+02 -0.33421962386E+02  0.54367088964E+02  0.40000010911E+02 0.  0.
         12    1    3    3    0    0 -0.57531778065E+01  0.14340601972E+02  0.33421962386E+02  0.36820911036E+02  0.00000000000E+00 0. -1.
         11    1    4    4    0    0  0.11886236870E+02 -0.24158431004E+01 -0.28588090728E+01  0.12461609623E+02  0.51100000000E-03 0. -1.
        -11    1    4    4    0    0  0.66749203284E+01  0.37677653923E+01 -0.13020782944E+02  0.15109315212E+02  0.51100000000E-03 0.  1.
         12    1    4    4    0    0 -0.12807979392E+02 -0.15692524264E+02 -0.17542370369E+02  0.26796164129E+02  0.00000000000E+00 0. -1.
</event>
<event>
 8    1  0.2509489E-006  0.9118800E+02  0.7816164E-02  0.1184000E+00
        -11   -1    0    0    0    0  0.00000000000E+00  0.00000000000E+00  0.45593999997E+02  0.45594000000E+02  0.51100000000E-03 0.  1.
         11   -1    0    0    0    0 -0.00000000000E+00 -0.00000000000E+00 -0.45593999997E+02  0.45594000000E+02  0.51100000000E-03 0. -1.
         23    2    1    2    0    0  0.00000000000E+00  0.17763568394E-14  0.88817841970E-15  0.91188000000E+02  0.91188000000E+02 0.  0.
    9900012    2    3    3    0    0 -0.34642610255E+02 -0.11885790486E+02  0.37939747833E+01  0.54367126770E+02  0.40000097098E+02 0.  0.
         12    1    3    3    0    0  0.34642610255E+02  0.11885790486E+02 -0.37939747833E+01  0.36820873230E+02  0.00000000000E+00 0. -1.
         11    1    4    4    0    0 -0.25760746176E+02 -0.75961425940E+01 -0.28519288443E+01  0.27008349158E+02  0.51100000000E-03 0. -1.
        -11    1    4    4    0    0  0.19280647240E+01  0.50442277613E+01 -0.61490141714E+01  0.81836448377E+01  0.51100000000E-03 0.  1.
        -12    1    4    4    0    0 -0.10809928803E+02 -0.93338756533E+01  0.12794917799E+02  0.19175132775E+02  0.00000000000E+00 0.  1.
</event>
<event>
 8    1  0.2509489E-006  0.9118800E+02  0.7816164E-02  0.1184000E+00
        -11   -1    0    0    0    0  0.00000000000E+00  0.00000000000E+00  0.45593999997E+02  0.45594000000E+02  0.51100000000E-03 0.  1.
         11   -1    0    0    0    0 -0.00000000000E+00 -0.00000000000E+00 -0.45593999997E+02  0.45594000000E+02  0.51100000000E-03 0. -1.
         23    2    1    2    0    0 -0.35527136788E-14  0.35527136788E-14  0.17763568394E-14  0.91188000000E+02  0.91188000000E+02 0.  0.
    9900012    2    3    3    0    0  0.23802508917E+02 -0.27959586310E+02 -0.27352021372E+01  0.54367092513E+02  0.40000019003E+02 0.  0.
        -12    1    3    3    0    0 -0.23802508917E+02  0.27959586310E+02  0.27352021372E+01  0.36820907487E+02  0.00000000000E+00 0.  1.
         11    1    4    4    0    0  0.13256973715E+02 -0.19073564801E+02  0.32562981325E+01  0.23455312918E+02  0.51100000000E-03 0. -1.
        -11    1    4    4    0    0  0.11154954472E+02  0.40682293882E+00 -0.14498990950E+02  0.18298066920E+02  0.51100000000E-03 0.  1.
        -12    1    4    4    0    0 -0.60941927043E+00 -0.92928444484E+01  0.85074906799E+01  0.12613712675E+02  0.00000000000E+00 0.  1.
</event>
<event>
 8    1  0.2509489E-006  0.9118800E+02  0.7816164E-02  0.1184000E+00
        -11   -1    0    0    0    0  0.00000000000E+00  0.00000000000E+00  0.45593999997E+02  0.45594000000E+02  0.51100000000E-03 0. -1.
         11   -1    0    0    0    0 -0.00000000000E+00 -0.00000000000E+00 -0.45593999997E+02  0.45594000000E+02  0.51100000000E-03 0.  1.
         23    2    1    2    0    0  0.00000000000E+00  0.00000000000E+00  0.17763568394E-14  0.91188000000E+02  0.91188000000E+02 0.  0.
    9900012    2    3    3    0    0  0.33177581539E+02 -0.11636556117E+02  0.10937029519E+02  0.54367082443E+02  0.39999996046E+02 0.  0.
        -12    1    3    3    0    0 -0.33177581539E+02  0.11636556117E+02 -0.10937029519E+02  0.36820917557E+02  0.00000000000E+00 0.  1.
         11    1    4    4    0    0  0.22700821370E+02 -0.15824011191E+02  0.88721611788E+01  0.29059281913E+02  0.51100000000E-03 0. -1.
        -11    1    4    4    0    0  0.11238479938E+02 -0.65987479858E+01 -0.29906547167E+01  0.13371272273E+02  0.51100000000E-03 0.  1.
         12    1    4    4    0    0 -0.76171976977E+00  0.10786203060E+02  0.50555230571E+01  0.11936528257E+02  0.00000000000E+00 0. -1.
</event>
<event>
 8    1  0.2509489E-006  0.9118800E+02  0.7816164E-02  0.1184000E+00
        -11   -1    0    0    0    0  0.00000000000E+00  0.00000000000E+00  0.45593999997E+02  0.45594000000E+02  0.51100000000E-03 0. -1.
         11   -1    0    0    0    0 -0.00000000000E+00 -0.00000000000E+00 -0.45593999997E+02  0.45594000000E+02  0.51100000000E-03 0.  1.
         23    2    1    2    0    0  0.00000000000E+00  0.00000000000E+00 -0.17763568394E-14  0.91188000000E+02  0.91188000000E+02 0.  0.
    9900012    2    3    3    0    0 -0.17225543901E+02  0.28981046000E+02  0.14804043817E+02  0.54367080630E+02  0.39999991912E+02 0.  0.
        -12    1    3    3    0    0  0.17225543901E+02 -0.28981046000E+02 -0.14804043817E+02  0.36820919370E+02  0.00000000000E+00 0.  1.
         11    1    4    4    0    0 -0.91372882333E+01  0.10393674195E+02  0.50080183542E+01  0.14717294168E+02  0.51100000000E-03 0. -1.
        -11    1    4    4    0    0 -0.16207713849E+02  0.18278914990E+02 -0.28740590559E+01  0.24598149060E+02  0.51100000000E-03 0.  1.
        -12    1    4    4    0    0  0.81194581818E+01  0.30845681403E+00  0.12670084518E+02  0.15051637402E+02  0.00000000000E+00 0.  1.
</event>
<event>
 8    1  0.2509489E-006  0.9118800E+02  0.7816164E-02  0.1184000E+00
        -11   -1    0    0    0    0  0.00000000000E+00  0.00000000000E+00  0.45593999997E+02  0.45594000000E+02  0.51100000000E-03 0.  1.
         11   -1    0    0    0    0 -0.00000000000E+00 -0.00000000000E+00 -0.45593999997E+02  0.45594000000E+02  0.51100000000E-03 0. -1.
         23    2    1    2    0    0 -0.35527136788E-14  0.00000000000E+00  0.00000000000E+00  0.91188000000E+02  0.91188000000E+02 0.  0.
    9900012    2    3    3    0    0 -0.18279783924E+02  0.26469468659E+02  0.17916396698E+02  0.54367074671E+02  0.39999978328E+02 0.  0.
         12    1    3    3    0    0  0.18279783924E+02 -0.26469468659E+02 -0.17916396698E+02  0.36820925329E+02  0.00000000000E+00 0. -1.
         11    1    4    4    0    0  0.53486043541E+01  0.18831337251E+02  0.30665989323E+01  0.19814915102E+02  0.51100000000E-03 0.  1.
        -11    1    4    4    0    0 -0.63084358685E+00  0.70305879340E+01  0.77345338004E+01  0.10471396454E+02  0.51100000000E-03 0. -1.
         12    1    4    4    0    0 -0.22997544692E+02  0.60754347394E+00  0.71152639657E+01  0.24080763115E+02  0.00000000000E+00 0. -1.
</event>
<event>
 8    1  0.2509489E-006  0.9118800E+02  0.7816164E-02  0.1184000E+00
        -11   -1    0    0    0    0  0.00000000000E+00  0.00000000000E+00  0.45593999997E+02  0.45594000000E+02  0.51100000000E-03 0.  1.
         11   -1    0    0    0    0 -0.00000000000E+00 -0.00000000000E+00 -0.45593999997E+02  0.45594000000E+02  0.51100000000E-03 0. -1.
         23    2    1    2    0    0 -0.35527136788E-14  0.00000000000E+00 -0.17763568394E-14  0.91188000000E+02  0.91188000000E+02 0.  0.
    9900012    2    3    3    0    0 -0.23859718910E+02  0.27231288541E+02 -0.67045777045E+01  0.54367073555E+02  0.39999975784E+02 0.  0.
        -12    1    3    3    0    0  0.23859718910E+02 -0.27231288541E+02  0.67045777045E+01  0.36820926445E+02  0.00000000000E+00 0.  1.
         11    1    4    4    0    0 -0.82089587382E+01  0.83279229370E+01  0.84947780146E+01  0.14453461793E+02  0.51100000000E-03 0. -1.
        -11    1    4    4    0    0 -0.81330100317E+01 -0.63168678916E+01 -0.20720614426E+01  0.10504385323E+02  0.51100000000E-03 0.  1.
        -12    1    4    4    0    0 -0.75177501399E+01  0.25220233496E+02 -0.13127294276E+02  0.29409226439E+02  0.00000000000E+00 0.  1.
</event>
<event>
 8    1  0.2509489E-006  0.9118800E+02  0.7816164E-02  0.1184000E+00
        -11   -1    0    0    0    0  0.00000000000E+00  0.00000000000E+00  0.45593999997E+02  0.45594000000E+02  0.51100000000E-03 0. -1.
         11   -1    0    0    0    0 -0.00000000000E+00 -0.00000000000E+00 -0.45593999997E+02  0.45594000000E+02  0.51100000000E-03 0.  1.
         23    2    1    2    0    0  0.00000000000E+00  0.88817841970E-15  0.35527136788E-14  0.91188000000E+02  0.91188000000E+02 0.  0.
    9900012    2    3    3    0    0 -0.28888436673E+02 -0.61088479465E+01  0.21998181023E+02  0.54367085224E+02  0.40000002385E+02 0.  0.
        -12    1    3    3    0    0  0.28888436673E+02  0.61088479465E+01 -0.21998181023E+02  0.36820914776E+02  0.00000000000E+00 0.  1.
         11    1    4    4    0    0 -0.38290410783E+01  0.70642007955E+01 -0.20273690176E+01  0.82870208068E+01  0.51100000000E-03 0. -1.
        -11    1    4    4    0    0 -0.12637607438E+02 -0.11583996683E+02 -0.19395060032E+01  0.17252819616E+02  0.51100000000E-03 0.  1.
         12    1    4    4    0    0 -0.12421788157E+02 -0.15890520593E+01  0.25965056044E+02  0.28827244801E+02  0.00000000000E+00 0. -1.
</event>
<event>
 8    1  0.2509489E-006  0.9118800E+02  0.7816164E-02  0.1184000E+00
        -11   -1    0    0    0    0  0.00000000000E+00  0.00000000000E+00  0.45593999997E+02  0.45594000000E+02  0.51100000000E-03 0.  1.
         11   -1    0    0    0    0 -0.00000000000E+00 -0.00000000000E+00 -0.45593999997E+02  0.45594000000E+02  0.51100000000E-03 0. -1.
         23    2    1    2    0    0  0.00000000000E+00  0.00000000000E+00  0.00000000000E+00  0.91188000000E+02  0.91188000000E+02 0.  0.
    9900012    2    3    3    0    0 -0.23006127720E+02  0.21424727730E+02  0.19169504782E+02  0.54367207171E+02  0.40000280387E+02 0.  0.
         12    1    3    3    0    0  0.23006127720E+02 -0.21424727730E+02 -0.19169504782E+02  0.36820792829E+02  0.00000000000E+00 0. -1.
         11    1    4    4    0    0  0.11110171112E+01  0.10568436509E+02  0.87103527927E+01  0.13740322241E+02  0.51100000000E-03 0. -1.
        -11    1    4    4    0    0 -0.22052761836E+02  0.12855935857E+02  0.18866511724E+02  0.31741843932E+02  0.51100000000E-03 0.  1.
        -12    1    4    4    0    0 -0.20643829956E+01 -0.19996446351E+01 -0.84073597348E+01  0.88850409977E+01  0.00000000000E+00 0.  1.
</event>
<event>
 8    1  0.2509489E-006  0.9118800E+02  0.7816164E-02  0.1184000E+00
        -11   -1    0    0    0    0  0.00000000000E+00  0.00000000000E+00  0.45593999997E+02  0.45594000000E+02  0.51100000000E-03 0. -1.
         11   -1    0    0    0    0 -0.00000000000E+00 -0.00000000000E+00 -0.45593999997E+02  0.45594000000E+02  0.51100000000E-03 0.  1.
         23    2    1    2    0    0  0.55511151231E-15  0.35527136788E-14  0.35527136788E-14  0.91188000000E+02  0.91188000000E+02 0.  0.
    9900012    2    3    3    0    0  0.68307929807E+00 -0.29572352118E+02  0.21926920154E+02  0.54367076131E+02  0.39999981657E+02 0.  0.
        -12    1    3    3    0    0 -0.68307929807E+00  0.29572352118E+02 -0.21926920154E+02  0.36820923869E+02  0.00000000000E+00 0.  1.
         11    1    4    4    0    0 -0.18423011928E+01  0.57725638528E+01  0.87232359337E+00  0.61218882571E+01  0.51100000000E-03 0. -1.
        -11    1    4    4    0    0  0.13802065365E+02 -0.18059840107E+02  0.99967147815E+01  0.24831213013E+02  0.51100000000E-03 0.  1.
         12    1    4    4    0    0 -0.11276684874E+02 -0.17285075864E+02  0.11057881779E+02  0.23413974861E+02  0.00000000000E+00 0. -1.
</event>
<event>
 8    1  0.2509489E-006  0.9118800E+02  0.7816164E-02  0.1184000E+00
        -11   -1    0    0    0    0  0.00000000000E+00  0.00000000000E+00  0.45593999997E+02  0.45594000000E+02  0.51100000000E-03 0.  1.
         11   -1    0    0    0    0 -0.00000000000E+00 -0.00000000000E+00 -0.45593999997E+02  0.45594000000E+02  0.51100000000E-03 0. -1.
         23    2    1    2    0    0 -0.44408920985E-15  0.00000000000E+00 -0.71054273576E-14  0.91188000000E+02  0.91188000000E+02 0.  0.
    9900012    2    3    3    0    0  0.13814700323E+01  0.11496375892E+02  0.34952930583E+02  0.54367048431E+02  0.39999918508E+02 0.  0.
         12    1    3    3    0    0 -0.13814700323E+01 -0.11496375892E+02 -0.34952930583E+02  0.36820951569E+02  0.00000000000E+00 0. -1.
         11    1    4    4    0    0  0.62134982845E+01  0.11103285471E+02  0.63294987786E+01  0.14211019113E+02  0.51100000000E-03 0. -1.
        -11    1    4    4    0    0  0.29642412930E+01  0.12395562900E+02  0.19110746073E+02  0.22970792798E+02  0.51100000000E-03 0.  1.
         12    1    4    4    0    0 -0.77962695452E+01 -0.12002472479E+02  0.95126857316E+01  0.17185236520E+02  0.00000000000E+00 0. -1.
</event>
<event>
 8    1  0.2509489E-006  0.9118800E+02  0.7816164E-02  0.1184000E+00
        -11   -1    0    0    0    0  0.00000000000E+00  0.00000000000E+00  0.45593999997E+02  0.45594000000E+02  0.51100000000E-03 0.  1.
         11   -1    0    0    0    0 -0.00000000000E+00 -0.00000000000E+00 -0.45593999997E+02  0.45594000000E+02  0.51100000000E-03 0. -1.
         23    2    1    2    0    0 -0.35527136788E-14  0.00000000000E+00 -0.35527136788E-14  0.91188000000E+02  0.91188000000E+02 0.  0.
    9900012    2    3    3    0    0 -0.20786425135E+02  0.12159051930E+02 -0.27854366975E+02  0.54367030794E+02  0.39999878300E+02 0.  0.
        -12    1    3    3    0    0  0.20786425135E+02 -0.12159051930E+02  0.27854366975E+02  0.36820969206E+02  0.00000000000E+00 0.  1.
         11    1    4    4    0    0 -0.18445056134E+02 -0.41831917517E+01 -0.50890420546E+01  0.19586156803E+02  0.51100000000E-03 0. -1.
        -11    1    4    4    0    0 -0.92414906320E+01  0.13500848848E+02 -0.79451131740E+01  0.18187987583E+02  0.51100000000E-03 0.  1.
         12    1    4    4    0    0  0.69001216307E+01  0.28413948333E+01 -0.14820211746E+02  0.16592886407E+02  0.00000000000E+00 0. -1.
</event>
<event>
 8    1  0.2509489E-006  0.9118800E+02  0.7816164E-02  0.1184000E+00
        -11   -1    0    0    0    0  0.00000000000E+00  0.00000000000E+00  0.45593999997E+02  0.45594000000E+02  0.51100000000E-03 0.  1.
         11   -1    0    0    0    0 -0.00000000000E+00 -0.00000000000E+00 -0.45593999997E+02  0.45594000000E+02  0.51100000000E-03 0. -1.
         23    2    1    2    0    0  0.00000000000E+00  0.00000000000E+00  0.00000000000E+00  0.91188000000E+02  0.91188000000E+02 0.  0.
    9900012    2    3    3    0    0  0.10883334092E+02 -0.14442922963E+02 -0.32073884216E+02  0.54367095158E+02  0.40000025031E+02 0.  0.
        -12    1    3    3    0    0 -0.10883334092E+02  0.14442922963E+02  0.32073884216E+02  0.36820904842E+02  0.00000000000E+00 0.  1.
         11    1    4    4    0    0  0.16039588409E+02  0.43160826090E+01 -0.17014260797E+02  0.23777763480E+02  0.51100000000E-03 0. -1.
        -11    1    4    4    0    0  0.26188273892E+00  0.35607297755E+01 -0.12149975417E+01  0.37714186178E+01  0.51100000000E-03 0.  1.
         12    1    4    4    0    0 -0.54181370557E+01 -0.22319735348E+02 -0.13844625878E+02  0.26817913059E+02  0.00000000000E+00 0. -1.
</event>
<event>
 8    1  0.2509489E-006  0.9118800E+02  0.7816164E-02  0.1184000E+00
        -11   -1    0    0    0    0  0.00000000000E+00  0.00000000000E+00  0.45593999997E+02  0.45594000000E+02  0.51100000000E-03 0. -1.
         11   -1    0    0    0    0 -0.00000000000E+00 -0.00000000000E+00 -0.45593999997E+02  0.45594000000E+02  0.51100000000E-03 0.  1.
         23    2    1    2    0    0  0.00000000000E+00  0.00000000000E+00  0.00000000000E+00  0.91188000000E+02  0.91188000000E+02 0.  0.
    9900012    2    3    3    0    0 -0.30389458446E+02 -0.20094163179E+02 -0.53371723429E+01  0.54367082208E+02  0.39999995508E+02 0.  0.
        -12    1    3    3    0    0  0.30389458446E+02  0.20094163179E+02  0.53371723429E+01  0.36820917792E+02  0.00000000000E+00 0.  1.
         11    1    4    4    0    0 -0.10797266281E+02 -0.16957183711E+02  0.12630266837E+02  0.23741328505E+02  0.51100000000E-03 0. -1.
        -11    1    4    4    0    0 -0.94674908772E+01  0.55718836519E+01 -0.52159876616E+01  0.12160830502E+02  0.51100000000E-03 0.  1.
         12    1    4    4    0    0 -0.10124701287E+02 -0.87088631198E+01 -0.12751451518E+02  0.18464923201E+02  0.00000000000E+00 0. -1.
</event>
<event>
 8    1  0.2509489E-006  0.9118800E+02  0.7816164E-02  0.1184000E+00
        -11   -1    0    0    0    0  0.00000000000E+00  0.00000000000E+00  0.45593999997E+02  0.45594000000E+02  0.51100000000E-03 0.  1.
         11   -1    0    0    0    0 -0.00000000000E+00 -0.00000000000E+00 -0.45593999997E+02  0.45594000000E+02  0.51100000000E-03 0. -1.
         23    2    1    2    0    0  0.00000000000E+00  0.00000000000E+00  0.00000000000E+00  0.91188000000E+02  0.91188000000E+02 0.  0.
    9900012    2    3    3    0    0 -0.29981054286E+02 -0.13086337076E+02 -0.16901613014E+02  0.54367077190E+02  0.39999984070E+02 0.  0.
         12    1    3    3    0    0  0.29981054286E+02  0.13086337076E+02  0.16901613014E+02  0.36820922810E+02  0.00000000000E+00 0. -1.
         11    1    4    4    0    0 -0.38593863335E+00  0.90397910784E+01 -0.32388474415E+01  0.96102499645E+01  0.51100000000E-03 0. -1.
        -11    1    4    4    0    0 -0.24835308180E+02 -0.25584517938E+02 -0.15065669856E+02  0.38708325965E+02  0.51100000000E-03 0.  1.
        -12    1    4    4    0    0 -0.47598074721E+01  0.34583897838E+01  0.14029042843E+01  0.60485012606E+01  0.00000000000E+00 0.  1.
</event>
<event>
 8    1  0.2509489E-006  0.9118800E+02  0.7816164E-02  0.1184000E+00
        -11   -1    0    0    0    0  0.00000000000E+00  0.00000000000E+00  0.45593999997E+02  0.45594000000E+02  0.51100000000E-03 0.  1.
         11   -1    0    0    0    0 -0.00000000000E+00 -0.00000000000E+00 -0.45593999997E+02  0.45594000000E+02  0.51100000000E-03 0. -1.
         23    2    1    2    0    0  0.00000000000E+00 -0.35527136788E-14  0.00000000000E+00  0.91188000000E+02  0.91188000000E+02 0.  0.
    9900012    2    3    3    0    0  0.25455962707E+02  0.25898925312E+02  0.60843414436E+01  0.54367087729E+02  0.40000008095E+02 0.  0.
         12    1    3    3    0    0 -0.25455962707E+02 -0.25898925312E+02 -0.60843414436E+01  0.36820912271E+02  0.00000000000E+00 0. -1.
         11    1    4    4    0    0 -0.12218826435E+01 -0.10693901985E+01 -0.34321550362E+01  0.37968778022E+01  0.51100000000E-03 0. -1.
        -11    1    4    4    0    0  0.31064418399E+02  0.11827177969E+02  0.10265108920E+02  0.34788686244E+02  0.51100000000E-03 0.  1.
        -12    1    4    4    0    0 -0.43865730479E+01  0.15141137542E+02 -0.74861244043E+00  0.15781523683E+02  0.00000000000E+00 0.  1.
</event>
<event>
 8    1  0.2509489E-006  0.9118800E+02  0.7816164E-02  0.1184000E+00
        -11   -1    0    0    0    0  0.00000000000E+00  0.00000000000E+00  0.45593999997E+02  0.45594000000E+02  0.51100000000E-03 0. -1.
         11   -1    0    0    0    0 -0.00000000000E+00 -0.00000000000E+00 -0.45593999997E+02  0.45594000000E+02  0.51100000000E-03 0.  1.
         23    2    1    2    0    0  0.00000000000E+00  0.00000000000E+00  0.17763568394E-14  0.91188000000E+02  0.91188000000E+02 0.  0.
    9900012    2    3    3    0    0  0.25053762729E+02 -0.23231623539E+02  0.13725246465E+02  0.54367058273E+02  0.39999940945E+02 0.  0.
        -12    1    3    3    0    0 -0.25053762729E+02  0.23231623539E+02 -0.13725246465E+02  0.36820941727E+02  0.00000000000E+00 0.  1.
         11    1    4    4    0    0 -0.12201729029E+01 -0.10597181598E+02  0.92523250321E+01  0.14120715226E+02  0.51100000000E-03 0. -1.
        -11    1    4    4    0    0  0.96937357286E+01 -0.19162416411E+02 -0.13038098416E+01  0.21514335580E+02  0.51100000000E-03 0.  1.
        -12    1    4    4    0    0  0.16580199903E+02  0.65279744700E+01  0.57767312746E+01  0.18732007466E+02  0.00000000000E+00 0.  1.
</event>
<event>
 8    1  0.2509489E-006  0.9118800E+02  0.7816164E-02  0.1184000E+00
        -11   -1    0    0    0    0  0.00000000000E+00  0.00000000000E+00  0.45593999997E+02  0.45594000000E+02  0.51100000000E-03 0.  1.
         11   -1    0    0    0    0 -0.00000000000E+00 -0.00000000000E+00 -0.45593999997E+02  0.45594000000E+02  0.51100000000E-03 0. -1.
         23    2    1    2    0    0 -0.53290705182E-14 -0.17763568394E-14 -0.71054273576E-14  0.91188000000E+02  0.91188000000E+02 0.  0.
    9900012    2    3    3    0    0  0.10805114579E+02  0.11942599832E+02  0.33111984901E+02  0.54367085618E+02  0.40000003284E+02 0.  0.
         12    1    3    3    0    0 -0.10805114579E+02 -0.11942599832E+02 -0.33111984901E+02  0.36820914382E+02  0.00000000000E+00 0. -1.
         11    1    4    4    0    0 -0.63443102663E+01  0.32071815586E+00  0.99896940535E+01  0.11838374907E+02  0.51100000000E-03 0. -1.
        -11    1    4    4    0    0  0.90417224878E+00  0.16037421410E+02  0.19579454429E+02  0.25325312415E+02  0.51100000000E-03 0.  1.
         12    1    4    4    0    0  0.16245252596E+02 -0.44155397337E+01  0.35428364189E+01  0.17203398297E+02  0.00000000000E+00 0. -1.
</event>
<event>
 8    1  0.2509489E-006  0.9118800E+02  0.7816164E-02  0.1184000E+00
        -11   -1    0    0    0    0  0.00000000000E+00  0.00000000000E+00  0.45593999997E+02  0.45594000000E+02  0.51100000000E-03 0.  1.
         11   -1    0    0    0    0 -0.00000000000E+00 -0.00000000000E+00 -0.45593999997E+02  0.45594000000E+02  0.51100000000E-03 0. -1.
         23    2    1    2    0    0  0.00000000000E+00  0.00000000000E+00  0.17763568394E-14  0.91188000000E+02  0.91188000000E+02 0.  0.
    9900012    2    3    3    0    0  0.17222482712E+02 -0.32177373439E+02 -0.48767714291E+01  0.54367079699E+02  0.39999989791E+02 0.  0.
        -12    1    3    3    0    0 -0.17222482712E+02  0.32177373439E+02  0.48767714291E+01  0.36820920301E+02  0.00000000000E+00 0.  1.
         11    1    4    4    0    0  0.10476929015E+02 -0.28021193467E+02 -0.19376283623E+02  0.35642582569E+02  0.51100000000E-03 0. -1.
        -11    1    4    4    0    0  0.87375616503E+01 -0.25586162782E+01  0.12585049240E+02  0.15533028213E+02  0.51100000000E-03 0.  1.
         12    1    4    4    0    0 -0.19920079536E+01 -0.15975636941E+01  0.19144629540E+01  0.31914689167E+01  0.00000000000E+00 0. -1.
</event>
<event>
 8    1  0.2509489E-006  0.9118800E+02  0.7816164E-02  0.1184000E+00
        -11   -1    0    0    0    0  0.00000000000E+00  0.00000000000E+00  0.45593999997E+02  0.45594000000E+02  0.51100000000E-03 0.  1.
         11   -1    0    0    0    0 -0.00000000000E+00 -0.00000000000E+00 -0.45593999997E+02  0.45594000000E+02  0.51100000000E-03 0. -1.
         23    2    1    2    0    0  0.00000000000E+00  0.00000000000E+00  0.55511151231E-15  0.91188000000E+02  0.91188000000E+02 0.  0.
    9900012    2    3    3    0    0 -0.11759247392E+02 -0.34888433715E+02 -0.54437205245E+00  0.54367094970E+02  0.40000024604E+02 0.  0.
         12    1    3    3    0    0  0.11759247392E+02  0.34888433715E+02  0.54437205245E+00  0.36820905030E+02  0.00000000000E+00 0. -1.
         11    1    4    4    0    0 -0.11316498054E+02 -0.63853690150E+01 -0.10332237045E+02  0.16600939380E+02  0.51100000000E-03 0. -1.
        -11    1    4    4    0    0 -0.91008201727E+01 -0.18731123030E+02  0.12696675228E+02  0.24390273879E+02  0.51100000000E-03 0.  1.
         12    1    4    4    0    0  0.86580708347E+01 -0.97719416692E+01 -0.29088102354E+01  0.13375881711E+02  0.00000000000E+00 0. -1.
</event>
<event>
 8    1  0.2509489E-006  0.9118800E+02  0.7816164E-02  0.1184000E+00
        -11   -1    0    0    0    0  0.00000000000E+00  0.00000000000E+00  0.45593999997E+02  0.45594000000E+02  0.51100000000E-03 0. -1.
         11   -1    0    0    0    0 -0.00000000000E+00 -0.00000000000E+00 -0.45593999997E+02  0.45594000000E+02  0.51100000000E-03 0.  1.
         23    2    1    2    0    0  0.00000000000E+00  0.17763568394E-14  0.35527136788E-14  0.91188000000E+02  0.91188000000E+02 0.  0.
    9900012    2    3    3    0    0  0.16434997679E+02 -0.96343331675E+01 -0.31509526811E+02  0.54367084692E+02  0.40000001172E+02 0.  0.
         12    1    3    3    0    0 -0.16434997679E+02  0.96343331675E+01  0.31509526811E+02  0.36820915308E+02  0.00000000000E+00 0. -1.
         11    1    4    4    0    0  0.12425048361E+01 -0.59030661398E+00  0.45856266243E+00  0.14500207387E+01  0.51100000000E-03 0. -1.
        -11    1    4    4    0    0  0.20807216704E+02 -0.10109246357E+02 -0.29251995384E+01  0.23317245152E+02  0.51100000000E-03 0.  1.
         12    1    4    4    0    0 -0.56147238620E+01  0.10652198038E+01 -0.29042889935E+02  0.29599818801E+02  0.00000000000E+00 0. -1.
</event>
<event>
 8    1  0.2509489E-006  0.9118800E+02  0.7816164E-02  0.1184000E+00
        -11   -1    0    0    0    0  0.00000000000E+00  0.00000000000E+00  0.45593999997E+02  0.45594000000E+02  0.51100000000E-03 0. -1.
         11   -1    0    0    0    0 -0.00000000000E+00 -0.00000000000E+00 -0.45593999997E+02  0.45594000000E+02  0.51100000000E-03 0.  1.
         23    2    1    2    0    0  0.00000000000E+00  0.00000000000E+00 -0.88817841970E-15  0.91188000000E+02  0.91188000000E+02 0.  0.
    9900012    2    3    3    0    0 -0.12303351339E+02 -0.34486097743E+02  0.38879812160E+01  0.54367084889E+02  0.40000001621E+02 0.  0.
         12    1    3    3    0    0  0.12303351339E+02  0.34486097743E+02 -0.38879812160E+01  0.36820915111E+02  0.00000000000E+00 0. -1.
         11    1    4    4    0    0  0.68320553201E+01 -0.17546072691E+02  0.28849796115E+01  0.19049009276E+02  0.51100000000E-03 0. -1.
        -11    1    4    4    0    0 -0.97840686874E+01 -0.45794551098E+00 -0.95058605019E+01  0.13649142768E+02  0.51100000000E-03 0.  1.
        -12    1    4    4    0    0 -0.93513379718E+01 -0.16482079540E+02  0.10508862106E+02  0.21668932844E+02  0.00000000000E+00 0.  1.
</event>
<event>
 8    1  0.2509489E-006  0.9118800E+02  0.7816164E-02  0.1184000E+00
        -11   -1    0    0    0    0  0.00000000000E+00  0.00000000000E+00  0.45593999997E+02  0.45594000000E+02  0.51100000000E-03 0. -1.
         11   -1    0    0    0    0 -0.00000000000E+00 -0.00000000000E+00 -0.45593999997E+02  0.45594000000E+02  0.51100000000E-03 0.  1.
         23    2    1    2    0    0  0.00000000000E+00  0.44408920985E-15 -0.35527136788E-14  0.91188000000E+02  0.91188000000E+02 0.  0.
    9900012    2    3    3    0    0 -0.29751084676E+02  0.29367149207E+01 -0.21494843571E+02  0.54367087001E+02  0.40000006437E+02 0.  0.
         12    1    3    3    0    0  0.29751084676E+02 -0.29367149207E+01  0.21494843571E+02  0.36820912999E+02  0.00000000000E+00 0. -1.
         11    1    4    4    0    0 -0.16861848450E+02 -0.96245899657E+00 -0.12188209426E+02  0.20827882988E+02  0.51100000000E-03 0. -1.
        -11    1    4    4    0    0 -0.39130901436E+01 -0.90815856294E+01 -0.13939876964E+02  0.17091156837E+02  0.51100000000E-03 0.  1.
         12    1    4    4    0    0 -0.89761460822E+01  0.12980759547E+02  0.46332428189E+01  0.16448047176E+02  0.00000000000E+00 0. -1.
</event>
<event>
 8    1  0.2509489E-006  0.9118800E+02  0.7816164E-02  0.1184000E+00
        -11   -1    0    0    0    0  0.00000000000E+00  0.00000000000E+00  0.45593999997E+02  0.45594000000E+02  0.51100000000E-03 0.  1.
         11   -1    0    0    0    0 -0.00000000000E+00 -0.00000000000E+00 -0.45593999997E+02  0.45594000000E+02  0.51100000000E-03 0. -1.
         23    2    1    2    0    0  0.00000000000E+00 -0.16653345369E-14  0.00000000000E+00  0.91188000000E+02  0.91188000000E+02 0.  0.
    9900012    2    3    3    0    0  0.32629583464E+02 -0.24217873973E+00 -0.17059635277E+02  0.54367088504E+02  0.40000009863E+02 0.  0.
        -12    1    3    3    0    0 -0.32629583464E+02  0.24217873973E+00  0.17059635277E+02  0.36820911496E+02  0.00000000000E+00 0.  1.
         11    1    4    4    0    0  0.37112486664E+01 -0.11518697457E+02 -0.10312927655E+01  0.12145670949E+02  0.51100000000E-03 0. -1.
        -11    1    4    4    0    0  0.73361328513E+01  0.54847199982E+01  0.59144839120E+01  0.10903307704E+02  0.51100000000E-03 0.  1.
         12    1    4    4    0    0  0.21582201947E+02  0.57917987190E+01 -0.21942826423E+02  0.31318109852E+02  0.00000000000E+00 0. -1.
</event>
<event>
 8    1  0.2509489E-006  0.9118800E+02  0.7816164E-02  0.1184000E+00
        -11   -1    0    0    0    0  0.00000000000E+00  0.00000000000E+00  0.45593999997E+02  0.45594000000E+02  0.51100000000E-03 0.  1.
         11   -1    0    0    0    0 -0.00000000000E+00 -0.00000000000E+00 -0.45593999997E+02  0.45594000000E+02  0.51100000000E-03 0. -1.
         23    2    1    2    0    0  0.17763568394E-14  0.00000000000E+00 -0.17763568394E-14  0.91188000000E+02  0.91188000000E+02 0.  0.
    9900012    2    3    3    0    0 -0.14817344100E+02 -0.31496188813E+02 -0.12008899410E+02  0.54367119226E+02  0.40000079900E+02 0.  0.
        -12    1    3    3    0    0  0.14817344100E+02  0.31496188813E+02  0.12008899410E+02  0.36820880774E+02  0.00000000000E+00 0.  1.
         11    1    4    4    0    0 -0.62933665600E+01 -0.94517214314E+00  0.90313119252E+00  0.64277102650E+01  0.51100000000E-03 0. -1.
        -11    1    4    4    0    0 -0.16721051012E+02 -0.40633234183E+01  0.33374422539E+00  0.17210913097E+02  0.51100000000E-03 0.  1.
         12    1    4    4    0    0  0.81970734720E+01 -0.26487693251E+02 -0.13245774828E+02  0.30728495864E+02  0.00000000000E+00 0. -1.
</event>
<event>
 8    1  0.2509489E-006  0.9118800E+02  0.7816164E-02  0.1184000E+00
        -11   -1    0    0    0    0  0.00000000000E+00  0.00000000000E+00  0.45593999997E+02  0.45594000000E+02  0.51100000000E-03 0.  1.
         11   -1    0    0    0    0 -0.00000000000E+00 -0.00000000000E+00 -0.45593999997E+02  0.45594000000E+02  0.51100000000E-03 0. -1.
         23    2    1    2    0    0 -0.35527136788E-14  0.88817841970E-15  0.00000000000E+00  0.91188000000E+02  0.91188000000E+02 0.  0.
    9900012    2    3    3    0    0 -0.28071558285E+02  0.79796936717E+01  0.22451999604E+02  0.54367079563E+02  0.39999989479E+02 0.  0.
         12    1    3    3    0    0  0.28071558285E+02 -0.79796936717E+01 -0.22451999604E+02  0.36820920437E+02  0.00000000000E+00 0. -1.
         11    1    4    4    0    0 -0.20985761224E+01 -0.47288399511E+01  0.12448972065E+02  0.13481203758E+02  0.51100000000E-03 0. -1.
        -11    1    4    4    0    0 -0.15976127287E+02  0.21027970784E+02  0.46177372429E+01  0.26809246462E+02  0.51100000000E-03 0.  1.
        -12    1    4    4    0    0 -0.99968548760E+01 -0.83194371608E+01  0.53852902960E+01  0.14076629343E+02  0.00000000000E+00 0.  1.
</event>
<event>
 8    1  0.2509489E-006  0.9118800E+02  0.7816164E-02  0.1184000E+00
        -11   -1    0    0    0    0  0.00000000000E+00  0.00000000000E+00  0.45593999997E+02  0.45594000000E+02  0.51100000000E-03 0. -1.
         11   -1    0    0    0    0 -0.00000000000E+00 -0.00000000000E+00 -0.45593999997E+02  0.45594000000E+02  0.51100000000E-03 0.  1.
         23    2    1    2    0    0 -0.17763568394E-14  0.35527136788E-14  0.00000000000E+00  0.91188000000E+02  0.91188000000E+02 0.  0.
    9900012    2    3    3    0    0 -0.14916450176E+02  0.28057918727E+02  0.18601948502E+02  0.54367085057E+02  0.40000002005E+02 0.  0.
        -12    1    3    3    0    0  0.14916450176E+02 -0.28057918727E+02 -0.18601948502E+02  0.36820914943E+02  0.00000000000E+00 0.  1.
         11    1    4    4    0    0 -0.41022288860E+01 -0.40902351672E+01  0.72900863880E+01  0.93114802992E+01  0.51100000000E-03 0.  1.
        -11    1    4    4    0    0 -0.11975247972E+02  0.37999964565E+01 -0.35108198388E+01  0.13045014115E+02  0.51100000000E-03 0. -1.
        -12    1    4    4    0    0  0.11610266816E+01  0.28348157437E+02  0.14822681953E+02  0.32010590643E+02  0.00000000000E+00 0.  1.
</event>
<event>
 8    1  0.2509489E-006  0.9118800E+02  0.7816164E-02  0.1184000E+00
        -11   -1    0    0    0    0  0.00000000000E+00  0.00000000000E+00  0.45593999997E+02  0.45594000000E+02  0.51100000000E-03 0.  1.
         11   -1    0    0    0    0 -0.00000000000E+00 -0.00000000000E+00 -0.45593999997E+02  0.45594000000E+02  0.51100000000E-03 0. -1.
         23    2    1    2    0    0  0.00000000000E+00  0.00000000000E+00 -0.55511151231E-16  0.91188000000E+02  0.91188000000E+02 0.  0.
    9900012    2    3    3    0    0 -0.13693803758E+02 -0.34179104504E+02 -0.21974078098E+00  0.54367085671E+02  0.40000003404E+02 0.  0.
        -12    1    3    3    0    0  0.13693803758E+02  0.34179104504E+02  0.21974078098E+00  0.36820914329E+02  0.00000000000E+00 0.  1.
         11    1    4    4    0    0  0.43942420870E+01 -0.73336053402E+00  0.46131617756E+00  0.44788384732E+01  0.51100000000E-03 0. -1.
        -11    1    4    4    0    0 -0.14803100403E+02  0.13317643478E+01  0.11552087777E+01  0.14907712279E+02  0.51100000000E-03 0.  1.
         12    1    4    4    0    0 -0.32849454416E+01 -0.34777508317E+02 -0.18362657363E+01  0.34980534918E+02  0.00000000000E+00 0. -1.
</event>
<event>
 8    1  0.2509489E-006  0.9118800E+02  0.7816164E-02  0.1184000E+00
        -11   -1    0    0    0    0  0.00000000000E+00  0.00000000000E+00  0.45593999997E+02  0.45594000000E+02  0.51100000000E-03 0.  1.
         11   -1    0    0    0    0 -0.00000000000E+00 -0.00000000000E+00 -0.45593999997E+02  0.45594000000E+02  0.51100000000E-03 0. -1.
         23    2    1    2    0    0  0.17763568394E-14  0.00000000000E+00  0.35527136788E-14  0.91188000000E+02  0.91188000000E+02 0.  0.
    9900012    2    3    3    0    0  0.15859235513E+02 -0.15727516593E+02  0.29273025659E+02  0.54367079853E+02  0.39999990141E+02 0.  0.
         12    1    3    3    0    0 -0.15859235513E+02  0.15727516593E+02 -0.29273025659E+02  0.36820920147E+02  0.00000000000E+00 0. -1.
         11    1    4    4    0    0  0.12313065404E+01 -0.54000347766E+01 -0.95491621550E+00  0.56203520019E+01  0.51100000000E-03 0. -1.
        -11    1    4    4    0    0  0.24014871323E+02  0.15434610493E-02  0.16267395412E+02  0.29005899414E+02  0.51100000000E-03 0.  1.
        -12    1    4    4    0    0 -0.93869423503E+01 -0.10329025277E+02  0.13960546462E+02  0.19740828437E+02  0.00000000000E+00 0.  1.
</event>
<event>
 8    1  0.2509489E-006  0.9118800E+02  0.7816164E-02  0.1184000E+00
        -11   -1    0    0    0    0  0.00000000000E+00  0.00000000000E+00  0.45593999997E+02  0.45594000000E+02  0.51100000000E-03 0. -1.
         11   -1    0    0    0    0 -0.00000000000E+00 -0.00000000000E+00 -0.45593999997E+02  0.45594000000E+02  0.51100000000E-03 0.  1.
         23    2    1    2    0    0  0.00000000000E+00 -0.17763568394E-14  0.00000000000E+00  0.91188000000E+02  0.91188000000E+02 0.  0.
    9900012    2    3    3    0    0  0.82775759026E+01  0.43502552430E+01  0.35613716644E+02  0.54367084793E+02  0.40000001403E+02 0.  0.
        -12    1    3    3    0    0 -0.82775759026E+01 -0.43502552430E+01 -0.35613716644E+02  0.36820915207E+02  0.00000000000E+00 0.  1.
         11    1    4    4    0    0 -0.56840667555E+01 -0.42858678574E+01  0.20375534014E+01  0.74046540970E+01  0.51100000000E-03 0. -1.
        -11    1    4    4    0    0  0.13383129161E+02 -0.24453207303E+01  0.23279168908E+01  0.13802425038E+02  0.51100000000E-03 0.  1.
        -12    1    4    4    0    0  0.57851349724E+00  0.11081443831E+02  0.31248246351E+02  0.33160005659E+02  0.00000000000E+00 0.  1.
</event>
<event>
 8    1  0.2509489E-006  0.9118800E+02  0.7816164E-02  0.1184000E+00
        -11   -1    0    0    0    0  0.00000000000E+00  0.00000000000E+00  0.45593999997E+02  0.45594000000E+02  0.51100000000E-03 0. -1.
         11   -1    0    0    0    0 -0.00000000000E+00 -0.00000000000E+00 -0.45593999997E+02  0.45594000000E+02  0.51100000000E-03 0.  1.
         23    2    1    2    0    0  0.35527136788E-14  0.00000000000E+00 -0.17763568394E-14  0.91188000000E+02  0.91188000000E+02 0.  0.
    9900012    2    3    3    0    0  0.13534626338E+02 -0.31988803320E+02 -0.12219269167E+02  0.54367079494E+02  0.39999989322E+02 0.  0.
        -12    1    3    3    0    0 -0.13534626338E+02  0.31988803320E+02  0.12219269167E+02  0.36820920506E+02  0.00000000000E+00 0.  1.
         11    1    4    4    0    0 -0.89606645025E+01 -0.16440909548E+02 -0.93262970425E+01  0.20918337216E+02  0.51100000000E-03 0. -1.
        -11    1    4    4    0    0 -0.89579382075E-01 -0.92343639803E+01 -0.37866283144E+01  0.99809847630E+01  0.51100000000E-03 0.  1.
        -12    1    4    4    0    0  0.22584870223E+02 -0.63135297920E+01  0.89365619035E+00  0.23467757515E+02  0.00000000000E+00 0.  1.
</event>
<event>
 8    1  0.2509489E-006  0.9118800E+02  0.7816164E-02  0.1184000E+00
        -11   -1    0    0    0    0  0.00000000000E+00  0.00000000000E+00  0.45593999997E+02  0.45594000000E+02  0.51100000000E-03 0.  1.
         11   -1    0    0    0    0 -0.00000000000E+00 -0.00000000000E+00 -0.45593999997E+02  0.45594000000E+02  0.51100000000E-03 0. -1.
         23    2    1    2    0    0 -0.35527136788E-14  0.35527136788E-14  0.00000000000E+00  0.91188000000E+02  0.91188000000E+02 0.  0.
    9900012    2    3    3    0    0 -0.31613457428E+02  0.16741973269E+02  0.87220898757E+01  0.54367092742E+02  0.40000019524E+02 0.  0.
         12    1    3    3    0    0  0.31613457428E+02 -0.16741973269E+02 -0.87220898757E+01  0.36820907258E+02  0.00000000000E+00 0. -1.
         11    1    4    4    0    0 -0.46331893473E+01 -0.10641582376E+01  0.26121021331E+00  0.47609985633E+01  0.51100000000E-03 0. -1.
        -11    1    4    4    0    0 -0.35173422366E+02  0.12886018682E+02  0.12121678048E+02  0.39371997630E+02  0.51100000000E-03 0.  1.
        -12    1    4    4    0    0  0.81931542855E+01  0.49201128242E+01 -0.36607983853E+01  0.10234096549E+02  0.00000000000E+00 0.  1.
</event>
<event>
 8    1  0.2509489E-006  0.9118800E+02  0.7816164E-02  0.1184000E+00
        -11   -1    0    0    0    0  0.00000000000E+00  0.00000000000E+00  0.45593999997E+02  0.45594000000E+02  0.51100000000E-03 0.  1.
         11   -1    0    0    0    0 -0.00000000000E+00 -0.00000000000E+00 -0.45593999997E+02  0.45594000000E+02  0.51100000000E-03 0. -1.
         23    2    1    2    0    0  0.35527136788E-14  0.71054273576E-14  0.17763568394E-14  0.91188000000E+02  0.91188000000E+02 0.  0.
    9900012    2    3    3    0    0 -0.30806427389E+01 -0.34330929565E+02  0.12949069601E+02  0.54367061826E+02  0.39999949045E+02 0.  0.
         12    1    3    3    0    0  0.30806427389E+01  0.34330929565E+02 -0.12949069601E+02  0.36820938174E+02  0.00000000000E+00 0. -1.
         11    1    4    4    0    0  0.15206439535E+02 -0.15075783777E+02 -0.40196055693E+01  0.21786975214E+02  0.51100000000E-03 0. -1.
        -11    1    4    4    0    0 -0.81418764884E+01 -0.13341057187E+02  0.12508653748E+02  0.20018500904E+02  0.51100000000E-03 0.  1.
         12    1    4    4    0    0 -0.10145205785E+02 -0.59140886014E+01  0.44600214226E+01  0.12561585708E+02  0.00000000000E+00 0. -1.
</event>
<event>
 8    1  0.2509489E-006  0.9118800E+02  0.7816164E-02  0.1184000E+00
        -11   -1    0    0    0    0  0.00000000000E+00  0.00000000000E+00  0.45593999997E+02  0.45594000000E+02  0.51100000000E-03 0.  1.
         11   -1    0    0    0    0 -0.00000000000E+00 -0.00000000000E+00 -0.45593999997E+02  0.45594000000E+02  0.51100000000E-03 0. -1.
         23    2    1    2    0    0  0.88817841970E-15  0.35527136788E-14 -0.35527136788E-14  0.91188000000E+02  0.91188000000E+02 0.  0.
    9900012    2    3    3    0    0 -0.79428884614E+01  0.21221995706E+02 -0.29022662905E+02  0.54367115424E+02  0.40000071233E+02 0.  0.
        -12    1    3    3    0    0  0.79428884614E+01 -0.21221995706E+02  0.29022662905E+02  0.36820884576E+02  0.00000000000E+00 0.  1.
         11    1    4    4    0    0  0.30461863116E+01  0.22844949957E+01 -0.14101573523E+02  0.14606592502E+02  0.51100000000E-03 0. -1.
        -11    1    4    4    0    0  0.38258959480E+00  0.13859933827E+02 -0.21570808631E+02  0.25642619323E+02  0.51100000000E-03 0.  1.
        -12    1    4    4    0    0 -0.11371664368E+02  0.50775668830E+01  0.66497192492E+01  0.14117903599E+02  0.00000000000E+00 0.  1.
</event>
<event>
 8    1  0.2509489E-006  0.9118800E+02  0.7816164E-02  0.1184000E+00
        -11   -1    0    0    0    0  0.00000000000E+00  0.00000000000E+00  0.45593999997E+02  0.45594000000E+02  0.51100000000E-03 0.  1.
         11   -1    0    0    0    0 -0.00000000000E+00 -0.00000000000E+00 -0.45593999997E+02  0.45594000000E+02  0.51100000000E-03 0. -1.
         23    2    1    2    0    0  0.17763568394E-14 -0.35527136788E-14 -0.35527136788E-14  0.91188000000E+02  0.91188000000E+02 0.  0.
    9900012    2    3    3    0    0 -0.86557068963E+01 -0.16234305842E+02 -0.31895259072E+02  0.54367061673E+02  0.39999948695E+02 0.  0.
        -12    1    3    3    0    0  0.86557068963E+01  0.16234305842E+02  0.31895259072E+02  0.36820938327E+02  0.00000000000E+00 0.  1.
         11    1    4    4    0    0 -0.16475692374E+02 -0.74015270267E+01 -0.16821253655E+02  0.24681685848E+02  0.51100000000E-03 0. -1.
        -11    1    4    4    0    0  0.10338253408E+02 -0.12870970500E+02 -0.30960707326E+01  0.16796637145E+02  0.51100000000E-03 0.  1.
         12    1    4    4    0    0 -0.25182679303E+01  0.40381916848E+01 -0.11977934684E+02  0.12888738679E+02  0.00000000000E+00 0. -1.
</event>
<event>
 8    1  0.2509489E-006  0.9118800E+02  0.7816164E-02  0.1184000E+00
        -11   -1    0    0    0    0  0.00000000000E+00  0.00000000000E+00  0.45593999997E+02  0.45594000000E+02  0.51100000000E-03 0. -1.
         11   -1    0    0    0    0 -0.00000000000E+00 -0.00000000000E+00 -0.45593999997E+02  0.45594000000E+02  0.51100000000E-03 0.  1.
         23    2    1    2    0    0  0.00000000000E+00  0.00000000000E+00  0.00000000000E+00  0.91188000000E+02  0.91188000000E+02 0.  0.
    9900012    2    3    3    0    0 -0.33826595551E+02 -0.83524744352E+01 -0.11907049752E+02  0.54367078915E+02  0.39999988002E+02 0.  0.
         12    1    3    3    0    0  0.33826595551E+02  0.83524744352E+01  0.11907049752E+02  0.36820921085E+02  0.00000000000E+00 0. -1.
         11    1    4    4    0    0 -0.71051476156E+01  0.34098423540E+01 -0.47848446522E+01  0.92198094409E+01  0.51100000000E-03 0. -1.
        -11    1    4    4    0    0 -0.22408082061E+02  0.47876378723E+01 -0.13843671876E+02  0.26771082707E+02  0.51100000000E-03 0.  1.
         12    1    4    4    0    0 -0.43133658745E+01 -0.16549954662E+02  0.67214667763E+01  0.18376186767E+02  0.00000000000E+00 0. -1.
</event>
<event>
 8    1  0.2509489E-006  0.9118800E+02  0.7816164E-02  0.1184000E+00
        -11   -1    0    0    0    0  0.00000000000E+00  0.00000000000E+00  0.45593999997E+02  0.45594000000E+02  0.51100000000E-03 0.  1.
         11   -1    0    0    0    0 -0.00000000000E+00 -0.00000000000E+00 -0.45593999997E+02  0.45594000000E+02  0.51100000000E-03 0. -1.
         23    2    1    2    0    0  0.17763568394E-14  0.00000000000E+00 -0.35527136788E-14  0.91188000000E+02  0.91188000000E+02 0.  0.
    9900012    2    3    3    0    0 -0.58089317038E+01  0.18389601402E+02  0.31366502683E+02  0.54367100801E+02  0.40000037895E+02 0.  0.
         12    1    3    3    0    0  0.58089317038E+01 -0.18389601402E+02 -0.31366502683E+02  0.36820899199E+02  0.00000000000E+00 0. -1.
         11    1    4    4    0    0  0.75367476418E+01  0.80028469832E+01  0.76733301132E+01  0.13406271672E+02  0.51100000000E-03 0. -1.
        -11    1    4    4    0    0 -0.14189590006E+02 -0.49038064459E+01  0.20346110582E+02  0.25285489875E+02  0.51100000000E-03 0.  1.
         12    1    4    4    0    0  0.84391065998E+00  0.15290560865E+02  0.33470619887E+01  0.15675339253E+02  0.00000000000E+00 0. -1.
</event>
<event>
 8    1  0.2509489E-006  0.9118800E+02  0.7816164E-02  0.1184000E+00
        -11   -1    0    0    0    0  0.00000000000E+00  0.00000000000E+00  0.45593999997E+02  0.45594000000E+02  0.51100000000E-03 0.  1.
         11   -1    0    0    0    0 -0.00000000000E+00 -0.00000000000E+00 -0.45593999997E+02  0.45594000000E+02  0.51100000000E-03 0. -1.
         23    2    1    2    0    0 -0.26645352591E-14  0.00000000000E+00  0.00000000000E+00  0.91188000000E+02  0.91188000000E+02 0.  0.
    9900012    2    3    3    0    0 -0.67420670520E+01 -0.22200079795E+02  0.28591596471E+02  0.54367103762E+02  0.40000044646E+02 0.  0.
        -12    1    3    3    0    0  0.67420670520E+01  0.22200079795E+02 -0.28591596471E+02  0.36820896238E+02  0.00000000000E+00 0.  1.
         11    1    4    4    0    0  0.83383394821E+01 -0.10920093156E+02  0.71691105744E+01  0.15497499364E+02  0.51100000000E-03 0. -1.
        -11    1    4    4    0    0  0.34996379788E+01 -0.13131882416E+02  0.11010521778E+02  0.17490723023E+02  0.51100000000E-03 0.  1.
         12    1    4    4    0    0 -0.18580044513E+02  0.18518957767E+01  0.10411964118E+02  0.21378881376E+02  0.00000000000E+00 0. -1.
</event>
<event>
 8    1  0.2509489E-006  0.9118800E+02  0.7816164E-02  0.1184000E+00
        -11   -1    0    0    0    0  0.00000000000E+00  0.00000000000E+00  0.45593999997E+02  0.45594000000E+02  0.51100000000E-03 0.  1.
         11   -1    0    0    0    0 -0.00000000000E+00 -0.00000000000E+00 -0.45593999997E+02  0.45594000000E+02  0.51100000000E-03 0. -1.
         23    2    1    2    0    0  0.26645352591E-14  0.44408920985E-15  0.00000000000E+00  0.91188000000E+02  0.91188000000E+02 0.  0.
    9900012    2    3    3    0    0 -0.72429836870E+01 -0.24251215466E+01 -0.36020048326E+02  0.54367001798E+02  0.39999812199E+02 0.  0.
        -12    1    3    3    0    0  0.72429836870E+01  0.24251215466E+01  0.36020048326E+02  0.36820998202E+02  0.00000000000E+00 0.  1.
         11    1    4    4    0    0 -0.49562804655E+01 -0.50282057898E+00 -0.10475976443E+02  0.11600156348E+02  0.51100000000E-03 0. -1.
        -11    1    4    4    0    0  0.87268830197E+01 -0.14761570727E+02 -0.15362539159E+02  0.23023250579E+02  0.51100000000E-03 0.  1.
        -12    1    4    4    0    0 -0.11013586241E+02  0.12839269759E+02 -0.10181532723E+02  0.19743594871E+02  0.00000000000E+00 0.  1.
</event>
<event>
 8    1  0.2509489E-006  0.9118800E+02  0.7816164E-02  0.1184000E+00
        -11   -1    0    0    0    0  0.00000000000E+00  0.00000000000E+00  0.45593999997E+02  0.45594000000E+02  0.51100000000E-03 0.  1.
         11   -1    0    0    0    0 -0.00000000000E+00 -0.00000000000E+00 -0.45593999997E+02  0.45594000000E+02  0.51100000000E-03 0. -1.
         23    2    1    2    0    0  0.00000000000E+00  0.00000000000E+00  0.00000000000E+00  0.91188000000E+02  0.91188000000E+02 0.  0.
    9900012    2    3    3    0    0  0.17658892660E+02 -0.22593674001E+02 -0.23096952071E+02  0.54367084886E+02  0.40000001615E+02 0.  0.
        -12    1    3    3    0    0 -0.17658892660E+02  0.22593674001E+02  0.23096952071E+02  0.36820915114E+02  0.00000000000E+00 0.  1.
         11    1    4    4    0    0 -0.42855311720E+00  0.37128088739E+01 -0.57488203091E+01  0.68569339150E+01  0.51100000000E-03 0. -1.
        -11    1    4    4    0    0  0.18978323854E+02 -0.34994576561E+01 -0.15236833552E+02  0.24588291465E+02  0.51100000000E-03 0.  1.
        -12    1    4    4    0    0 -0.89087807729E+00 -0.22807025219E+02 -0.21112982103E+01  0.22921859506E+02  0.00000000000E+00 0.  1.
</event>
<event>
 8    1  0.2509489E-006  0.9118800E+02  0.7816164E-02  0.1184000E+00
        -11   -1    0    0    0    0  0.00000000000E+00  0.00000000000E+00  0.45593999997E+02  0.45594000000E+02  0.51100000000E-03 0.  1.
         11   -1    0    0    0    0 -0.00000000000E+00 -0.00000000000E+00 -0.45593999997E+02  0.45594000000E+02  0.51100000000E-03 0. -1.
         23    2    1    2    0    0 -0.88817841970E-15  0.35527136788E-14  0.00000000000E+00  0.91188000000E+02  0.91188000000E+02 0.  0.
    9900012    2    3    3    0    0 -0.43292369834E+01 -0.17432330633E+02  0.32142672124E+02  0.54367084538E+02  0.40000000822E+02 0.  0.
         12    1    3    3    0    0  0.43292369834E+01  0.17432330633E+02 -0.32142672124E+02  0.36820915462E+02  0.00000000000E+00 0. -1.
         11    1    4    4    0    0 -0.50033242533E-01 -0.20569592819E+02  0.17809833150E+02  0.27208469438E+02  0.51100000000E-03 0. -1.
        -11    1    4    4    0    0  0.66423408193E+01  0.73331096333E+01  0.11403807730E+02  0.15097748821E+02  0.51100000000E-03 0.  1.
        -12    1    4    4    0    0 -0.10921544560E+02 -0.41958474474E+01  0.29290312437E+01  0.12060866279E+02  0.00000000000E+00 0.  1.
</event>
<event>
 8    1  0.2509489E-006  0.9118800E+02  0.7816164E-02  0.1184000E+00
        -11   -1    0    0    0    0  0.00000000000E+00  0.00000000000E+00  0.45593999997E+02  0.45594000000E+02  0.51100000000E-03 0.  1.
         11   -1    0    0    0    0 -0.00000000000E+00 -0.00000000000E+00 -0.45593999997E+02  0.45594000000E+02  0.51100000000E-03 0. -1.
         23    2    1    2    0    0  0.00000000000E+00 -0.35527136788E-14 -0.35527136788E-14  0.91188000000E+02  0.91188000000E+02 0.  0.
    9900012    2    3    3    0    0 -0.19543463040E+02  0.23648893839E+02  0.20360759522E+02  0.54367113865E+02  0.40000067679E+02 0.  0.
         12    1    3    3    0    0  0.19543463040E+02 -0.23648893839E+02 -0.20360759522E+02  0.36820886135E+02  0.00000000000E+00 0. -1.
         11    1    4    4    0    0  0.29128766260E+01  0.75696030676E+00 -0.20128452998E+01  0.36206885542E+01  0.51100000000E-03 0. -1.
        -11    1    4    4    0    0 -0.11568848865E+01  0.30495021970E+01 -0.80220804021E+01  0.86597702354E+01  0.51100000000E-03 0.  1.
        -12    1    4    4    0    0 -0.21299454779E+02  0.19842431336E+02  0.30395685224E+02  0.42086655076E+02  0.00000000000E+00 0.  1.
</event>
<event>
 8    1  0.2509489E-006  0.9118800E+02  0.7816164E-02  0.1184000E+00
        -11   -1    0    0    0    0  0.00000000000E+00  0.00000000000E+00  0.45593999997E+02  0.45594000000E+02  0.51100000000E-03 0.  1.
         11   -1    0    0    0    0 -0.00000000000E+00 -0.00000000000E+00 -0.45593999997E+02  0.45594000000E+02  0.51100000000E-03 0. -1.
         23    2    1    2    0    0  0.00000000000E+00  0.00000000000E+00  0.71054273576E-14  0.91188000000E+02  0.91188000000E+02 0.  0.
    9900012    2    3    3    0    0 -0.12899359477E+02  0.15995919206E+02 -0.30553492785E+02  0.54367097953E+02  0.40000031405E+02 0.  0.
        -12    1    3    3    0    0  0.12899359477E+02 -0.15995919206E+02  0.30553492785E+02  0.36820902047E+02  0.00000000000E+00 0.  1.
         11    1    4    4    0    0 -0.14270976611E+02  0.15891633489E+02 -0.43428105090E+00  0.21363365574E+02  0.51100000000E-03 0. -1.
        -11    1    4    4    0    0 -0.24794944241E+01 -0.51025099576E+01 -0.70848435035E+01  0.90762606946E+01  0.51100000000E-03 0.  1.
         12    1    4    4    0    0  0.38511115581E+01  0.52067956746E+01 -0.23034368231E+02  0.23927471684E+02  0.00000000000E+00 0. -1.
</event>
<event>
 8    1  0.2509489E-006  0.9118800E+02  0.7816164E-02  0.1184000E+00
        -11   -1    0    0    0    0  0.00000000000E+00  0.00000000000E+00  0.45593999997E+02  0.45594000000E+02  0.51100000000E-03 0. -1.
         11   -1    0    0    0    0 -0.00000000000E+00 -0.00000000000E+00 -0.45593999997E+02  0.45594000000E+02  0.51100000000E-03 0.  1.
         23    2    1    2    0    0  0.00000000000E+00  0.00000000000E+00  0.88817841970E-15  0.91188000000E+02  0.91188000000E+02 0.  0.
    9900012    2    3    3    0    0 -0.22104244349E+02 -0.28739690157E+02  0.64197996279E+01  0.54367065251E+02  0.39999956852E+02 0.  0.
         12    1    3    3    0    0  0.22104244349E+02  0.28739690157E+02 -0.64197996279E+01  0.36820934749E+02  0.00000000000E+00 0. -1.
         11    1    4    4    0    0 -0.16229284751E+02 -0.54653809802E+01 -0.10666227023E+02  0.20174946641E+02  0.51100000000E-03 0. -1.
        -11    1    4    4    0    0 -0.92999917657E+01 -0.16129042649E+02  0.42336148130E+01  0.19093437570E+02  0.51100000000E-03 0.  1.
         12    1    4    4    0    0  0.34250321680E+01 -0.71452665280E+01  0.12852411838E+02  0.15098681040E+02  0.00000000000E+00 0. -1.
</event>
<event>
 8    1  0.2509489E-006  0.9118800E+02  0.7816164E-02  0.1184000E+00
        -11   -1    0    0    0    0  0.00000000000E+00  0.00000000000E+00  0.45593999997E+02  0.45594000000E+02  0.51100000000E-03 0. -1.
         11   -1    0    0    0    0 -0.00000000000E+00 -0.00000000000E+00 -0.45593999997E+02  0.45594000000E+02  0.51100000000E-03 0.  1.
         23    2    1    2    0    0  0.00000000000E+00  0.35527136788E-14 -0.17763568394E-14  0.91188000000E+02  0.91188000000E+02 0.  0.
    9900012    2    3    3    0    0  0.11917670420E+02  0.31146957268E+02  0.15608215244E+02  0.54367079338E+02  0.39999988966E+02 0.  0.
        -12    1    3    3    0    0 -0.11917670420E+02 -0.31146957268E+02 -0.15608215244E+02  0.36820920662E+02  0.00000000000E+00 0.  1.
         11    1    4    4    0    0  0.13595319237E+02  0.16598133381E+02 -0.94237494136E+01  0.23433689213E+02  0.51100000000E-03 0. -1.
        -11    1    4    4    0    0 -0.36977239313E+01  0.67412100394E+01  0.20001420865E+02  0.21428343659E+02  0.51100000000E-03 0.  1.
         12    1    4    4    0    0  0.20200751144E+01  0.78076138482E+01  0.50305437922E+01  0.95050464657E+01  0.00000000000E+00 0. -1.
</event>
<event>
 8    1  0.2509489E-006  0.9118800E+02  0.7816164E-02  0.1184000E+00
        -11   -1    0    0    0    0  0.00000000000E+00  0.00000000000E+00  0.45593999997E+02  0.45594000000E+02  0.51100000000E-03 0.  1.
         11   -1    0    0    0    0 -0.00000000000E+00 -0.00000000000E+00 -0.45593999997E+02  0.45594000000E+02  0.51100000000E-03 0. -1.
         23    2    1    2    0    0  0.00000000000E+00  0.00000000000E+00  0.00000000000E+00  0.91188000000E+02  0.91188000000E+02 0.  0.
    9900012    2    3    3    0    0  0.27495955100E+02  0.23132105387E+02 -0.80409747332E+01  0.54367093966E+02  0.40000022315E+02 0.  0.
         12    1    3    3    0    0 -0.27495955100E+02 -0.23132105387E+02  0.80409747332E+01  0.36820906034E+02  0.00000000000E+00 0. -1.
         11    1    4    4    0    0 -0.58189053751E+01  0.56873385099E+00 -0.10315813063E+01  0.59369418230E+01  0.51100000000E-03 0.  1.
        -11    1    4    4    0    0  0.25901095319E+01 -0.49151796673E+01 -0.44722570592E+01  0.71322326108E+01  0.51100000000E-03 0. -1.
        -12    1    4    4    0    0  0.30724750943E+02  0.27478551204E+02 -0.25371363676E+01  0.41297919532E+02  0.00000000000E+00 0.  1.
</event>
<event>
 8    1  0.2509489E-006  0.9118800E+02  0.7816164E-02  0.1184000E+00
        -11   -1    0    0    0    0  0.00000000000E+00  0.00000000000E+00  0.45593999997E+02  0.45594000000E+02  0.51100000000E-03 0.  1.
         11   -1    0    0    0    0 -0.00000000000E+00 -0.00000000000E+00 -0.45593999997E+02  0.45594000000E+02  0.51100000000E-03 0. -1.
         23    2    1    2    0    0  0.00000000000E+00  0.00000000000E+00  0.00000000000E+00  0.91188000000E+02  0.91188000000E+02 0.  0.
    9900012    2    3    3    0    0  0.18646535089E+02 -0.95648341967E+01  0.30275576628E+02  0.54366948084E+02  0.39999689745E+02 0.  0.
         12    1    3    3    0    0 -0.18646535089E+02  0.95648341967E+01 -0.30275576628E+02  0.36821051916E+02  0.00000000000E+00 0. -1.
         11    1    4    4    0    0  0.19305924974E+02 -0.35961672808E+01  0.80030262186E+01  0.21206121455E+02  0.51100000000E-03 0. -1.
        -11    1    4    4    0    0  0.10200869095E+02 -0.19779587392E+01  0.18082232042E+02  0.20855147253E+02  0.51100000000E-03 0.  1.
        -12    1    4    4    0    0 -0.10860258981E+02 -0.39907081768E+01  0.41903183684E+01  0.12305679376E+02  0.00000000000E+00 0.  1.
</event>
<event>
 8    1  0.2509489E-006  0.9118800E+02  0.7816164E-02  0.1184000E+00
        -11   -1    0    0    0    0  0.00000000000E+00  0.00000000000E+00  0.45593999997E+02  0.45594000000E+02  0.51100000000E-03 0.  1.
         11   -1    0    0    0    0 -0.00000000000E+00 -0.00000000000E+00 -0.45593999997E+02  0.45594000000E+02  0.51100000000E-03 0. -1.
         23    2    1    2    0    0  0.88817841970E-15 -0.35527136788E-14  0.35527136788E-14  0.91188000000E+02  0.91188000000E+02 0.  0.
    9900012    2    3    3    0    0  0.34518565801E+01 -0.27183846099E+02  0.24594804206E+02  0.54367065784E+02  0.39999958069E+02 0.  0.
         12    1    3    3    0    0 -0.34518565801E+01  0.27183846099E+02 -0.24594804206E+02  0.36820934216E+02  0.00000000000E+00 0. -1.
         11    1    4    4    0    0  0.79239208299E+01 -0.82572273286E+01  0.16771262612E+02  0.20303831519E+02  0.51100000000E-03 0.  1.
        -11    1    4    4    0    0  0.68895376478E+01 -0.17754169056E+02 -0.17981877789E+01  0.19128767013E+02  0.51100000000E-03 0. -1.
        -12    1    4    4    0    0 -0.11361601898E+02 -0.11724497146E+01  0.96217293723E+01  0.14934467253E+02  0.00000000000E+00 0.  1.
</event>
<event>
 8    1  0.2509489E-006  0.9118800E+02  0.7816164E-02  0.1184000E+00
        -11   -1    0    0    0    0  0.00000000000E+00  0.00000000000E+00  0.45593999997E+02  0.45594000000E+02  0.51100000000E-03 0.  1.
         11   -1    0    0    0    0 -0.00000000000E+00 -0.00000000000E+00 -0.45593999997E+02  0.45594000000E+02  0.51100000000E-03 0. -1.
         23    2    1    2    0    0  0.00000000000E+00  0.00000000000E+00  0.00000000000E+00  0.91188000000E+02  0.91188000000E+02 0.  0.
    9900012    2    3    3    0    0 -0.11737404446E+02 -0.12167135709E+02  0.32710451077E+02  0.54367089308E+02  0.40000011696E+02 0.  0.
         12    1    3    3    0    0  0.11737404446E+02  0.12167135709E+02 -0.32710451077E+02  0.36820910692E+02  0.00000000000E+00 0. -1.
         11    1    4    4    0    0 -0.11773247149E+02 -0.10738692486E+02  0.83624746361E+01  0.17996106441E+02  0.51100000000E-03 0. -1.
        -11    1    4    4    0    0 -0.42007901246E+01 -0.47482331293E+01  0.28735716984E+02  0.29426752902E+02  0.51100000000E-03 0.  1.
         12    1    4    4    0    0  0.42366328272E+01  0.33197899062E+01 -0.43877405433E+01  0.69442299652E+01  0.00000000000E+00 0. -1.
</event>
<event>
 8    1  0.2509489E-006  0.9118800E+02  0.7816164E-02  0.1184000E+00
        -11   -1    0    0    0    0  0.00000000000E+00  0.00000000000E+00  0.45593999997E+02  0.45594000000E+02  0.51100000000E-03 0.  1.
         11   -1    0    0    0    0 -0.00000000000E+00 -0.00000000000E+00 -0.45593999997E+02  0.45594000000E+02  0.51100000000E-03 0. -1.
         23    2    1    2    0    0  0.00000000000E+00  0.35527136788E-14  0.00000000000E+00  0.91188000000E+02  0.91188000000E+02 0.  0.
    9900012    2    3    3    0    0 -0.10524642828E+02 -0.25486318949E+02  0.24402084157E+02  0.54367051188E+02  0.39999924792E+02 0.  0.
         12    1    3    3    0    0  0.10524642828E+02  0.25486318949E+02 -0.24402084157E+02  0.36820948812E+02  0.00000000000E+00 0. -1.
         11    1    4    4    0    0  0.52579347029E+01  0.29592856242E+00  0.28619057750E+01  0.59936596484E+01  0.51100000000E-03 0. -1.
        -11    1    4    4    0    0 -0.48013287591E+01  0.31906603459E+01  0.15856945898E+02  0.16872338450E+02  0.51100000000E-03 0.  1.
         12    1    4    4    0    0 -0.10981248772E+02 -0.28972907857E+02  0.56832324846E+01  0.31501053090E+02  0.00000000000E+00 0. -1.
</event>
<event>
 8    1  0.2509489E-006  0.9118800E+02  0.7816164E-02  0.1184000E+00
        -11   -1    0    0    0    0  0.00000000000E+00  0.00000000000E+00  0.45593999997E+02  0.45594000000E+02  0.51100000000E-03 0.  1.
         11   -1    0    0    0    0 -0.00000000000E+00 -0.00000000000E+00 -0.45593999997E+02  0.45594000000E+02  0.51100000000E-03 0. -1.
         23    2    1    2    0    0  0.00000000000E+00  0.00000000000E+00 -0.17763568394E-14  0.91188000000E+02  0.91188000000E+02 0.  0.
    9900012    2    3    3    0    0  0.33466641384E+02 -0.13943346681E+02 -0.64300041747E+01  0.54367109790E+02  0.40000058387E+02 0.  0.
         12    1    3    3    0    0 -0.33466641384E+02  0.13943346681E+02  0.64300041747E+01  0.36820890210E+02  0.00000000000E+00 0. -1.
         11    1    4    4    0    0  0.44803971776E+01 -0.95361884511E+00  0.27161702370E+01  0.53254979850E+01  0.51100000000E-03 0. -1.
        -11    1    4    4    0    0  0.15031861957E+02 -0.18815839779E+02 -0.19270200999E+02  0.30843692180E+02  0.51100000000E-03 0.  1.
        -12    1    4    4    0    0  0.13954382249E+02  0.58261119426E+01  0.10124026588E+02  0.18197919625E+02  0.00000000000E+00 0.  1.
</event>
<event>
 8    1  0.2509489E-006  0.9118800E+02  0.7816164E-02  0.1184000E+00
        -11   -1    0    0    0    0  0.00000000000E+00  0.00000000000E+00  0.45593999997E+02  0.45594000000E+02  0.51100000000E-03 0. -1.
         11   -1    0    0    0    0 -0.00000000000E+00 -0.00000000000E+00 -0.45593999997E+02  0.45594000000E+02  0.51100000000E-03 0.  1.
         23    2    1    2    0    0  0.00000000000E+00  0.00000000000E+00  0.71054273576E-14  0.91188000000E+02  0.91188000000E+02 0.  0.
    9900012    2    3    3    0    0  0.97193434424E+01  0.13762203421E+02  0.32740128586E+02  0.54367083393E+02  0.39999998212E+02 0.  0.
        -12    1    3    3    0    0 -0.97193434424E+01 -0.13762203421E+02 -0.32740128586E+02  0.36820916607E+02  0.00000000000E+00 0.  1.
         11    1    4    4    0    0  0.47349202739E+01  0.55901705260E+01  0.21469616036E+02  0.22685102810E+02  0.51100000000E-03 0. -1.
        -11    1    4    4    0    0 -0.11365234456E+02  0.64363734321E+00  0.62914539497E+01  0.13006352922E+02  0.51100000000E-03 0.  1.
        -12    1    4    4    0    0  0.16349657624E+02  0.75283955521E+01  0.49790585999E+01  0.18675627662E+02  0.00000000000E+00 0.  1.
</event>
<event>
 8    1  0.2509489E-006  0.9118800E+02  0.7816164E-02  0.1184000E+00
        -11   -1    0    0    0    0  0.00000000000E+00  0.00000000000E+00  0.45593999997E+02  0.45594000000E+02  0.51100000000E-03 0.  1.
         11   -1    0    0    0    0 -0.00000000000E+00 -0.00000000000E+00 -0.45593999997E+02  0.45594000000E+02  0.51100000000E-03 0. -1.
         23    2    1    2    0    0  0.26645352591E-14  0.00000000000E+00  0.00000000000E+00  0.91188000000E+02  0.91188000000E+02 0.  0.
    9900012    2    3    3    0    0  0.53261596555E+01 -0.22098842162E+02 -0.28966424715E+02  0.54367074396E+02  0.39999977700E+02 0.  0.
        -12    1    3    3    0    0 -0.53261596555E+01  0.22098842162E+02  0.28966424715E+02  0.36820925604E+02  0.00000000000E+00 0.  1.
         11    1    4    4    0    0 -0.52641179712E+01  0.13565666498E+01 -0.13031394024E+02  0.14119789005E+02  0.51100000000E-03 0. -1.
        -11    1    4    4    0    0 -0.71860575433E+01 -0.15902943668E+02 -0.96192001851E+01  0.19926666876E+02  0.51100000000E-03 0.  1.
         12    1    4    4    0    0  0.17776335170E+02 -0.75524651439E+01 -0.63158305058E+01  0.20320618514E+02  0.00000000000E+00 0. -1.
</event>
<event>
 8    1  0.2509489E-006  0.9118800E+02  0.7816164E-02  0.1184000E+00
        -11   -1    0    0    0    0  0.00000000000E+00  0.00000000000E+00  0.45593999997E+02  0.45594000000E+02  0.51100000000E-03 0.  1.
         11   -1    0    0    0    0 -0.00000000000E+00 -0.00000000000E+00 -0.45593999997E+02  0.45594000000E+02  0.51100000000E-03 0. -1.
         23    2    1    2    0    0  0.00000000000E+00  0.35527136788E-14 -0.44408920985E-15  0.91188000000E+02  0.91188000000E+02 0.  0.
    9900012    2    3    3    0    0  0.31140518192E+02  0.19293765357E+02 -0.37146146849E+01  0.54367087230E+02  0.40000006959E+02 0.  0.
         12    1    3    3    0    0 -0.31140518192E+02 -0.19293765357E+02  0.37146146849E+01  0.36820912770E+02  0.00000000000E+00 0. -1.
         11    1    4    4    0    0 -0.60632583991E+00  0.19555727441E+02 -0.30795145529E+01  0.19805996993E+02  0.51100000000E-03 0. -1.
        -11    1    4    4    0    0  0.35419695580E+01 -0.32134202755E+01  0.34671954886E+01  0.59070350460E+01  0.51100000000E-03 0.  1.
        -12    1    4    4    0    0  0.28204874474E+02  0.29514581921E+01 -0.41022956206E+01  0.28654055191E+02  0.00000000000E+00 0.  1.
</event>
<event>
 8    1  0.2509489E-006  0.9118800E+02  0.7816164E-02  0.1184000E+00
        -11   -1    0    0    0    0  0.00000000000E+00  0.00000000000E+00  0.45593999997E+02  0.45594000000E+02  0.51100000000E-03 0.  1.
         11   -1    0    0    0    0 -0.00000000000E+00 -0.00000000000E+00 -0.45593999997E+02  0.45594000000E+02  0.51100000000E-03 0. -1.
         23    2    1    2    0    0 -0.17763568394E-14  0.00000000000E+00  0.00000000000E+00  0.91188000000E+02  0.91188000000E+02 0.  0.
    9900012    2    3    3    0    0  0.12187435351E+02  0.69277084531E+01  0.34047767697E+02  0.54367119918E+02  0.40000081477E+02 0.  0.
         12    1    3    3    0    0 -0.12187435351E+02 -0.69277084531E+01 -0.34047767697E+02  0.36820880082E+02  0.00000000000E+00 0. -1.
         11    1    4    4    0    0  0.79445512569E+01 -0.70234717372E+00  0.10211934584E+02  0.12957345192E+02  0.51100000000E-03 0. -1.
        -11    1    4    4    0    0  0.10995848964E+02  0.68610503077E+01  0.29717945506E+02  0.32421273743E+02  0.51100000000E-03 0.  1.
        -12    1    4    4    0    0 -0.67529648703E+01  0.76900531918E+00 -0.58821123922E+01  0.89885009827E+01  0.00000000000E+00 0.  1.
</event>
<event>
 8    1  0.2509489E-006  0.9118800E+02  0.7816164E-02  0.1184000E+00
        -11   -1    0    0    0    0  0.00000000000E+00  0.00000000000E+00  0.45593999997E+02  0.45594000000E+02  0.51100000000E-03 0.  1.
         11   -1    0    0    0    0 -0.00000000000E+00 -0.00000000000E+00 -0.45593999997E+02  0.45594000000E+02  0.51100000000E-03 0. -1.
         23    2    1    2    0    0 -0.71054273576E-14 -0.11102230246E-14 -0.17763568394E-14  0.91188000000E+02  0.91188000000E+02 0.  0.
    9900012    2    3    3    0    0 -0.35332939043E+02  0.12251194440E+01 -0.10288968775E+02  0.54367076905E+02  0.39999983421E+02 0.  0.
         12    1    3    3    0    0  0.35332939043E+02 -0.12251194440E+01  0.10288968775E+02  0.36820923095E+02  0.00000000000E+00 0. -1.
         11    1    4    4    0    0 -0.17737369768E+02  0.12111604865E+02 -0.16096781106E+02  0.26840484737E+02  0.51100000000E-03 0. -1.
        -11    1    4    4    0    0 -0.17136445277E+02 -0.38201243402E+01  0.90340689861E+01  0.19745012266E+02  0.51100000000E-03 0.  1.
        -12    1    4    4    0    0 -0.45912399920E+00 -0.70663610808E+01 -0.32262566548E+01  0.77815799021E+01  0.00000000000E+00 0.  1.
</event>
<event>
 8    1  0.2509489E-006  0.9118800E+02  0.7816164E-02  0.1184000E+00
        -11   -1    0    0    0    0  0.00000000000E+00  0.00000000000E+00  0.45593999997E+02  0.45594000000E+02  0.51100000000E-03 0.  1.
         11   -1    0    0    0    0 -0.00000000000E+00 -0.00000000000E+00 -0.45593999997E+02  0.45594000000E+02  0.51100000000E-03 0. -1.
         23    2    1    2    0    0  0.00000000000E+00  0.00000000000E+00  0.00000000000E+00  0.91188000000E+02  0.91188000000E+02 0.  0.
    9900012    2    3    3    0    0 -0.11874289574E+02 -0.12677879571E+02  0.32466209411E+02  0.54367053015E+02  0.39999928958E+02 0.  0.
         12    1    3    3    0    0  0.11874289574E+02  0.12677879571E+02 -0.32466209411E+02  0.36820946985E+02  0.00000000000E+00 0. -1.
         11    1    4    4    0    0 -0.11373141247E+01  0.54720125180E+01  0.96054361044E+01  0.11113091713E+02  0.51100000000E-03 0. -1.
        -11    1    4    4    0    0 -0.23947619164E+00 -0.13606026125E+02  0.27677913416E+02  0.30842311636E+02  0.51100000000E-03 0.  1.
         12    1    4    4    0    0 -0.10497499258E+02 -0.45438659647E+01 -0.48171401091E+01  0.12411649665E+02  0.00000000000E+00 0. -1.
</event>
<event>
 8    1  0.2509489E-006  0.9118800E+02  0.7816164E-02  0.1184000E+00
        -11   -1    0    0    0    0  0.00000000000E+00  0.00000000000E+00  0.45593999997E+02  0.45594000000E+02  0.51100000000E-03 0.  1.
         11   -1    0    0    0    0 -0.00000000000E+00 -0.00000000000E+00 -0.45593999997E+02  0.45594000000E+02  0.51100000000E-03 0. -1.
         23    2    1    2    0    0  0.71054273576E-14 -0.35527136788E-14  0.00000000000E+00  0.91188000000E+02  0.91188000000E+02 0.  0.
    9900012    2    3    3    0    0 -0.32216398858E+02  0.10295699500E+02  0.14556142447E+02  0.54367094708E+02  0.40000024006E+02 0.  0.
         12    1    3    3    0    0  0.32216398858E+02 -0.10295699500E+02 -0.14556142447E+02  0.36820905292E+02  0.00000000000E+00 0. -1.
         11    1    4    4    0    0 -0.40405763336E+01 -0.13088536699E+02  0.28779536947E+01  0.13997094975E+02  0.51100000000E-03 0. -1.
        -11    1    4    4    0    0 -0.90509669676E+01  0.10911131770E+02 -0.10745696568E+01  0.14217155122E+02  0.51100000000E-03 0.  1.
         12    1    4    4    0    0 -0.19124855557E+02  0.12473104429E+02  0.12752758409E+02  0.26152844610E+02  0.00000000000E+00 0. -1.
</event>
<event>
 8    1  0.2509489E-006  0.9118800E+02  0.7816164E-02  0.1184000E+00
        -11   -1    0    0    0    0  0.00000000000E+00  0.00000000000E+00  0.45593999997E+02  0.45594000000E+02  0.51100000000E-03 0.  1.
         11   -1    0    0    0    0 -0.00000000000E+00 -0.00000000000E+00 -0.45593999997E+02  0.45594000000E+02  0.51100000000E-03 0. -1.
         23    2    1    2    0    0  0.88817841970E-15  0.00000000000E+00  0.35527136788E-14  0.91188000000E+02  0.91188000000E+02 0.  0.
    9900012    2    3    3    0    0  0.28772183665E+01 -0.22374362983E+02  0.29101246385E+02  0.54367176468E+02  0.40000210393E+02 0.  0.
         12    1    3    3    0    0 -0.28772183665E+01  0.22374362983E+02 -0.29101246385E+02  0.36820823532E+02  0.00000000000E+00 0. -1.
         11    1    4    4    0    0 -0.34679126568E+01 -0.20313042677E+02  0.23885513500E+02  0.31546218100E+02  0.51100000000E-03 0. -1.
        -11    1    4    4    0    0  0.24266739114E+01 -0.90771164735E+01  0.97941280495E+01  0.13572314993E+02  0.51100000000E-03 0.  1.
         12    1    4    4    0    0  0.39184571120E+01  0.70157961682E+01 -0.45783951637E+01  0.92486433755E+01  0.00000000000E+00 0. -1.
</event>
<event>
 8    1  0.2509489E-006  0.9118800E+02  0.7816164E-02  0.1184000E+00
        -11   -1    0    0    0    0  0.00000000000E+00  0.00000000000E+00  0.45593999997E+02  0.45594000000E+02  0.51100000000E-03 0. -1.
         11   -1    0    0    0    0 -0.00000000000E+00 -0.00000000000E+00 -0.45593999997E+02  0.45594000000E+02  0.51100000000E-03 0.  1.
         23    2    1    2    0    0 -0.54123372450E-15  0.00000000000E+00 -0.35527136788E-14  0.91188000000E+02  0.91188000000E+02 0.  0.
    9900012    2    3    3    0    0  0.11520572638E+00  0.27922344201E+02  0.24002266150E+02  0.54367090745E+02  0.40000014970E+02 0.  0.
        -12    1    3    3    0    0 -0.11520572638E+00 -0.27922344201E+02 -0.24002266150E+02  0.36820909255E+02  0.00000000000E+00 0.  1.
         11    1    4    4    0    0 -0.21282739526E+01  0.23151341842E+02  0.26713503711E+01  0.23401929241E+02  0.51100000000E-03 0. -1.
        -11    1    4    4    0    0  0.45751090912E+01  0.57301618584E+01 -0.19185497073E+01  0.75793938650E+01  0.51100000000E-03 0.  1.
         12    1    4    4    0    0 -0.23316294123E+01 -0.95915949945E+00  0.23249465486E+02  0.23385767639E+02  0.00000000000E+00 0. -1.
</event>
<event>
 8    1  0.2509489E-006  0.9118800E+02  0.7816164E-02  0.1184000E+00
        -11   -1    0    0    0    0  0.00000000000E+00  0.00000000000E+00  0.45593999997E+02  0.45594000000E+02  0.51100000000E-03 0.  1.
         11   -1    0    0    0    0 -0.00000000000E+00 -0.00000000000E+00 -0.45593999997E+02  0.45594000000E+02  0.51100000000E-03 0. -1.
         23    2    1    2    0    0  0.00000000000E+00 -0.35527136788E-14  0.00000000000E+00  0.91188000000E+02  0.91188000000E+02 0.  0.
    9900012    2    3    3    0    0  0.32382941592E+02 -0.16855219487E+02 -0.47988089133E+01  0.54367056270E+02  0.39999936380E+02 0.  0.
        -12    1    3    3    0    0 -0.32382941592E+02  0.16855219487E+02  0.47988089133E+01  0.36820943730E+02  0.00000000000E+00 0.  1.
         11    1    4    4    0    0  0.35838052559E+01 -0.65084359964E+01 -0.14962089978E+02  0.16705314603E+02  0.51100000000E-03 0. -1.
        -11    1    4    4    0    0  0.25083788360E+01  0.47468981195E+01 -0.79319961833E+00  0.54271697999E+01  0.51100000000E-03 0.  1.
        -12    1    4    4    0    0  0.26290757501E+02 -0.15093681610E+02  0.10956480683E+02  0.32234571867E+02  0.00000000000E+00 0.  1.
</event>
<event>
 8    1  0.2509489E-006  0.9118800E+02  0.7816164E-02  0.1184000E+00
        -11   -1    0    0    0    0  0.00000000000E+00  0.00000000000E+00  0.45593999997E+02  0.45594000000E+02  0.51100000000E-03 0. -1.
         11   -1    0    0    0    0 -0.00000000000E+00 -0.00000000000E+00 -0.45593999997E+02  0.45594000000E+02  0.51100000000E-03 0.  1.
         23    2    1    2    0    0  0.00000000000E+00  0.17763568394E-14  0.00000000000E+00  0.91188000000E+02  0.91188000000E+02 0.  0.
    9900012    2    3    3    0    0  0.28769663175E+02  0.12007570123E+02 -0.19593581011E+02  0.54367032111E+02  0.39999881302E+02 0.  0.
         12    1    3    3    0    0 -0.28769663175E+02 -0.12007570123E+02  0.19593581011E+02  0.36820967889E+02  0.00000000000E+00 0. -1.
         11    1    4    4    0    0  0.12114360831E+02  0.17989790546E+02 -0.15728692240E+02  0.26791455020E+02  0.51100000000E-03 0. -1.
        -11    1    4    4    0    0  0.71303790504E+01 -0.40662029492E+01 -0.12247312183E+02  0.14743573780E+02  0.51100000000E-03 0.  1.
         12    1    4    4    0    0  0.95249232941E+01 -0.19160174733E+01  0.83824234124E+01  0.12832003311E+02  0.00000000000E+00 0. -1.
</event>
<event>
 8    1  0.2509489E-006  0.9118800E+02  0.7816164E-02  0.1184000E+00
        -11   -1    0    0    0    0  0.00000000000E+00  0.00000000000E+00  0.45593999997E+02  0.45594000000E+02  0.51100000000E-03 0. -1.
         11   -1    0    0    0    0 -0.00000000000E+00 -0.00000000000E+00 -0.45593999997E+02  0.45594000000E+02  0.51100000000E-03 0.  1.
         23    2    1    2    0    0  0.00000000000E+00  0.71054273576E-14  0.44408920985E-15  0.91188000000E+02  0.91188000000E+02 0.  0.
    9900012    2    3    3    0    0 -0.31598783613E+02  0.18692165545E+02  0.28087488577E+01  0.54367228027E+02  0.40000327932E+02 0.  0.
         12    1    3    3    0    0  0.31598783613E+02 -0.18692165545E+02 -0.28087488577E+01  0.36820771973E+02  0.00000000000E+00 0. -1.
         11    1    4    4    0    0 -0.15038381107E+02 -0.93193965896E+01  0.56417148949E+01  0.18569679759E+02  0.51100000000E-03 0. -1.
        -11    1    4    4    0    0 -0.91626036280E+01  0.68833367945E+01 -0.64048886110E+01  0.13128451129E+02  0.51100000000E-03 0.  1.
         12    1    4    4    0    0 -0.73977988770E+01  0.21128225340E+02  0.35719225738E+01  0.22669097139E+02  0.00000000000E+00 0. -1.
</event>
<event>
 8    1  0.2509489E-006  0.9118800E+02  0.7816164E-02  0.1184000E+00
        -11   -1    0    0    0    0  0.00000000000E+00  0.00000000000E+00  0.45593999997E+02  0.45594000000E+02  0.51100000000E-03 0. -1.
         11   -1    0    0    0    0 -0.00000000000E+00 -0.00000000000E+00 -0.45593999997E+02  0.45594000000E+02  0.51100000000E-03 0.  1.
         23    2    1    2    0    0  0.00000000000E+00 -0.35527136788E-14  0.00000000000E+00  0.91188000000E+02  0.91188000000E+02 0.  0.
    9900012    2    3    3    0    0  0.29528910623E+02 -0.17952593204E+02  0.12709380400E+02  0.54367075032E+02  0.39999979151E+02 0.  0.
        -12    1    3    3    0    0 -0.29528910623E+02  0.17952593204E+02 -0.12709380400E+02  0.36820924968E+02  0.00000000000E+00 0.  1.
         11    1    4    4    0    0  0.19329972538E+02  0.63162401619E+01  0.76796185958E+01  0.21737508370E+02  0.51100000000E-03 0. -1.
        -11    1    4    4    0    0  0.94642493425E+01 -0.11525248214E+02 -0.56888596149E+01  0.15961406141E+02  0.51100000000E-03 0.  1.
         12    1    4    4    0    0  0.73468874321E+00 -0.12743585151E+02  0.10718621419E+02  0.16668160522E+02  0.00000000000E+00 0. -1.
</event>
<event>
 8    1  0.2509489E-006  0.9118800E+02  0.7816164E-02  0.1184000E+00
        -11   -1    0    0    0    0  0.00000000000E+00  0.00000000000E+00  0.45593999997E+02  0.45594000000E+02  0.51100000000E-03 0. -1.
         11   -1    0    0    0    0 -0.00000000000E+00 -0.00000000000E+00 -0.45593999997E+02  0.45594000000E+02  0.51100000000E-03 0.  1.
         23    2    1    2    0    0 -0.88817841970E-15  0.00000000000E+00  0.00000000000E+00  0.91188000000E+02  0.91188000000E+02 0.  0.
    9900012    2    3    3    0    0  0.17878643393E+01 -0.24822436003E+02  0.27137256214E+02  0.54367075747E+02  0.39999980781E+02 0.  0.
        -12    1    3    3    0    0 -0.17878643393E+01  0.24822436003E+02 -0.27137256214E+02  0.36820924253E+02  0.00000000000E+00 0.  1.
         11    1    4    4    0    0  0.74477680942E+01 -0.13001831241E+02  0.55379140542E+01  0.15974522138E+02  0.51100000000E-03 0. -1.
        -11    1    4    4    0    0 -0.10977583601E+02 -0.14768458245E+02  0.27736192191E+01  0.18609343472E+02  0.51100000000E-03 0.  1.
         12    1    4    4    0    0  0.53176798456E+01  0.29478534824E+01  0.18825722940E+02  0.19783210137E+02  0.00000000000E+00 0. -1.
</event>
<event>
 8    1  0.2509489E-006  0.9118800E+02  0.7816164E-02  0.1184000E+00
        -11   -1    0    0    0    0  0.00000000000E+00  0.00000000000E+00  0.45593999997E+02  0.45594000000E+02  0.51100000000E-03 0. -1.
         11   -1    0    0    0    0 -0.00000000000E+00 -0.00000000000E+00 -0.45593999997E+02  0.45594000000E+02  0.51100000000E-03 0.  1.
         23    2    1    2    0    0  0.17763568394E-14  0.00000000000E+00  0.35527136788E-14  0.91188000000E+02  0.91188000000E+02 0.  0.
    9900012    2    3    3    0    0  0.91307923724E+01  0.33727165945E+02  0.11614103744E+02  0.54367075272E+02  0.39999979698E+02 0.  0.
        -12    1    3    3    0    0 -0.91307923724E+01 -0.33727165945E+02 -0.11614103744E+02  0.36820924728E+02  0.00000000000E+00 0.  1.
         11    1    4    4    0    0  0.36857414368E+01  0.33137068792E+02  0.18950490432E+02  0.38350633710E+02  0.51100000000E-03 0. -1.
        -11    1    4    4    0    0 -0.77649539080E+00  0.21671098381E+01  0.30413370221E+01  0.38143205535E+01  0.51100000000E-03 0.  1.
        -12    1    4    4    0    0  0.62215463264E+01 -0.15770126850E+01 -0.10377723710E+02  0.12202121009E+02  0.00000000000E+00 0.  1.
</event>
<event>
 8    1  0.2509489E-006  0.9118800E+02  0.7816164E-02  0.1184000E+00
        -11   -1    0    0    0    0  0.00000000000E+00  0.00000000000E+00  0.45593999997E+02  0.45594000000E+02  0.51100000000E-03 0. -1.
         11   -1    0    0    0    0 -0.00000000000E+00 -0.00000000000E+00 -0.45593999997E+02  0.45594000000E+02  0.51100000000E-03 0.  1.
         23    2    1    2    0    0 -0.71054273576E-14 -0.88817841970E-15  0.35527136788E-14  0.91188000000E+02  0.91188000000E+02 0.  0.
    9900012    2    3    3    0    0 -0.34165011602E+02 -0.61537768928E+01  0.12274528400E+02  0.54367067974E+02  0.39999963060E+02 0.  0.
        -12    1    3    3    0    0  0.34165011602E+02  0.61537768928E+01 -0.12274528400E+02  0.36820932026E+02  0.00000000000E+00 0.  1.
         11    1    4    4    0    0 -0.26408983502E+01 -0.53523804867E+01  0.55849024604E+01  0.81739498851E+01  0.51100000000E-03 0. -1.
        -11    1    4    4    0    0 -0.12131893640E+02  0.80274554363E+01 -0.11209711802E+02  0.18365198692E+02  0.51100000000E-03 0.  1.
        -12    1    4    4    0    0 -0.19392219613E+02 -0.88288518424E+01  0.17899337741E+02  0.27827919396E+02  0.00000000000E+00 0.  1.
</event>
<event>
 8    1  0.2509489E-006  0.9118800E+02  0.7816164E-02  0.1184000E+00
        -11   -1    0    0    0    0  0.00000000000E+00  0.00000000000E+00  0.45593999997E+02  0.45594000000E+02  0.51100000000E-03 0.  1.
         11   -1    0    0    0    0 -0.00000000000E+00 -0.00000000000E+00 -0.45593999997E+02  0.45594000000E+02  0.51100000000E-03 0. -1.
         23    2    1    2    0    0  0.00000000000E+00 -0.71054273576E-14  0.00000000000E+00  0.91188000000E+02  0.91188000000E+02 0.  0.
    9900012    2    3    3    0    0 -0.12222097787E+02 -0.32692696307E+02  0.11729882715E+02  0.54367051959E+02  0.39999926551E+02 0.  0.
         12    1    3    3    0    0  0.12222097787E+02  0.32692696307E+02 -0.11729882715E+02  0.36820948041E+02  0.00000000000E+00 0. -1.
         11    1    4    4    0    0  0.71413192155E+00 -0.38655506366E+01 -0.96616901547E+00  0.40479561452E+01  0.51100000000E-03 0.  1.
        -11    1    4    4    0    0 -0.21355376805E+02 -0.32974995087E+02  0.96832055872E+01  0.40461919012E+02  0.51100000000E-03 0. -1.
        -12    1    4    4    0    0  0.84191470962E+01  0.41478494167E+01  0.30128461431E+01  0.98571768014E+01  0.00000000000E+00 0.  1.
</event>
<event>
 8    1  0.2509489E-006  0.9118800E+02  0.7816164E-02  0.1184000E+00
        -11   -1    0    0    0    0  0.00000000000E+00  0.00000000000E+00  0.45593999997E+02  0.45594000000E+02  0.51100000000E-03 0. -1.
         11   -1    0    0    0    0 -0.00000000000E+00 -0.00000000000E+00 -0.45593999997E+02  0.45594000000E+02  0.51100000000E-03 0.  1.
         23    2    1    2    0    0  0.00000000000E+00  0.00000000000E+00  0.00000000000E+00  0.91188000000E+02  0.91188000000E+02 0.  0.
    9900012    2    3    3    0    0 -0.89560621364E+01 -0.35348650758E+02  0.51031553868E+01  0.54367077221E+02  0.39999984140E+02 0.  0.
        -12    1    3    3    0    0  0.89560621364E+01  0.35348650758E+02 -0.51031553868E+01  0.36820922779E+02  0.00000000000E+00 0.  1.
         11    1    4    4    0    0 -0.48116645452E+01  0.49779850067E+01 -0.96259075380E+00  0.69899235792E+01  0.51100000000E-03 0. -1.
        -11    1    4    4    0    0 -0.67926077900E-01  0.32047606679E+01 -0.18463521264E+00  0.32107935644E+01  0.51100000000E-03 0.  1.
        -12    1    4    4    0    0 -0.40764715133E+01 -0.43531396433E+02  0.62503813533E+01  0.44166360077E+02  0.00000000000E+00 0.  1.
</event>
<event>
 8    1  0.2509489E-006  0.9118800E+02  0.7816164E-02  0.1184000E+00
        -11   -1    0    0    0    0  0.00000000000E+00  0.00000000000E+00  0.45593999997E+02  0.45594000000E+02  0.51100000000E-03 0.  1.
         11   -1    0    0    0    0 -0.00000000000E+00 -0.00000000000E+00 -0.45593999997E+02  0.45594000000E+02  0.51100000000E-03 0. -1.
         23    2    1    2    0    0 -0.35527136788E-14  0.00000000000E+00  0.00000000000E+00  0.91188000000E+02  0.91188000000E+02 0.  0.
    9900012    2    3    3    0    0 -0.21162994416E+02  0.10376266894E+02 -0.28288540735E+02  0.54367071383E+02  0.39999970832E+02 0.  0.
        -12    1    3    3    0    0  0.21162994416E+02 -0.10376266894E+02  0.28288540735E+02  0.36820928617E+02  0.00000000000E+00 0.  1.
         11    1    4    4    0    0 -0.61538652195E+01  0.38737933598E+01 -0.32910697722E+01  0.79816961005E+01  0.51100000000E-03 0. -1.
        -11    1    4    4    0    0  0.88341111710E+01  0.62889786775E+01  0.12601128149E+01  0.10916989400E+02  0.51100000000E-03 0.  1.
        -12    1    4    4    0    0 -0.23843240367E+02  0.21349485644E+00 -0.26257583778E+02  0.35468385883E+02  0.00000000000E+00 0.  1.
</event>
<event>
 8    1  0.2509489E-006  0.9118800E+02  0.7816164E-02  0.1184000E+00
        -11   -1    0    0    0    0  0.00000000000E+00  0.00000000000E+00  0.45593999997E+02  0.45594000000E+02  0.51100000000E-03 0. -1.
         11   -1    0    0    0    0 -0.00000000000E+00 -0.00000000000E+00 -0.45593999997E+02  0.45594000000E+02  0.51100000000E-03 0.  1.
         23    2    1    2    0    0 -0.22204460493E-15 -0.35527136788E-14  0.00000000000E+00  0.91188000000E+02  0.91188000000E+02 0.  0.
    9900012    2    3    3    0    0  0.10527998076E+01  0.21030257981E+02 -0.30205946711E+02  0.54367090792E+02  0.40000015078E+02 0.  0.
         12    1    3    3    0    0 -0.10527998076E+01 -0.21030257981E+02  0.30205946711E+02  0.36820909208E+02  0.00000000000E+00 0. -1.
         11    1    4    4    0    0  0.39634862120E+01  0.18280642791E+02 -0.45038927942E+00  0.18710798341E+02  0.51100000000E-03 0. -1.
        -11    1    4    4    0    0 -0.52402122750E+01  0.73433250824E+01 -0.48870351285E+01  0.10259988331E+02  0.51100000000E-03 0.  1.
        -12    1    4    4    0    0  0.23295258706E+01 -0.45937098916E+01 -0.24868522303E+02  0.25396304119E+02  0.00000000000E+00 0.  1.
</event>
<event>
 8    1  0.2509489E-006  0.9118800E+02  0.7816164E-02  0.1184000E+00
        -11   -1    0    0    0    0  0.00000000000E+00  0.00000000000E+00  0.45593999997E+02  0.45594000000E+02  0.51100000000E-03 0.  1.
         11   -1    0    0    0    0 -0.00000000000E+00 -0.00000000000E+00 -0.45593999997E+02  0.45594000000E+02  0.51100000000E-03 0. -1.
         23    2    1    2    0    0  0.35527136788E-14  0.00000000000E+00  0.00000000000E+00  0.91188000000E+02  0.91188000000E+02 0.  0.
    9900012    2    3    3    0    0  0.70000215619E+01 -0.19325631608E+02 -0.30549964247E+02  0.54367073146E+02  0.39999974851E+02 0.  0.
        -12    1    3    3    0    0 -0.70000215619E+01  0.19325631608E+02  0.30549964247E+02  0.36820926854E+02  0.00000000000E+00 0.  1.
         11    1    4    4    0    0 -0.41945175906E+01 -0.17287547147E+01 -0.19649622159E+02  0.20166561976E+02  0.51100000000E-03 0. -1.
        -11    1    4    4    0    0 -0.27140856403E+01 -0.45660156344E+01  0.64991164638E+01  0.83936449000E+01  0.51100000000E-03 0.  1.
         12    1    4    4    0    0  0.13908624793E+02 -0.13030861259E+02 -0.17399458551E+02  0.25806866270E+02  0.00000000000E+00 0. -1.
</event>
<event>
 8    1  0.2509489E-006  0.9118800E+02  0.7816164E-02  0.1184000E+00
        -11   -1    0    0    0    0  0.00000000000E+00  0.00000000000E+00  0.45593999997E+02  0.45594000000E+02  0.51100000000E-03 0.  1.
         11   -1    0    0    0    0 -0.00000000000E+00 -0.00000000000E+00 -0.45593999997E+02  0.45594000000E+02  0.51100000000E-03 0. -1.
         23    2    1    2    0    0  0.00000000000E+00 -0.17763568394E-14  0.35527136788E-14  0.91188000000E+02  0.91188000000E+02 0.  0.
    9900012    2    3    3    0    0  0.26889840721E+02  0.99263141610E+01 -0.23112426503E+02  0.54367088745E+02  0.40000010412E+02 0.  0.
        -12    1    3    3    0    0 -0.26889840721E+02 -0.99263141610E+01  0.23112426503E+02  0.36820911255E+02  0.00000000000E+00 0.  1.
         11    1    4    4    0    0  0.24992970592E+02  0.15095150238E+01 -0.14409049372E+01  0.25079940629E+02  0.51100000000E-03 0. -1.
        -11    1    4    4    0    0  0.82821485979E+01  0.15527283720E+01 -0.16629266958E+02  0.18642356896E+02  0.51100000000E-03 0.  1.
        -12    1    4    4    0    0 -0.63852784698E+01  0.68640707652E+01 -0.50422546073E+01  0.10644791221E+02  0.00000000000E+00 0.  1.
</event>
<event>
 8    1  0.2509489E-006  0.9118800E+02  0.7816164E-02  0.1184000E+00
        -11   -1    0    0    0    0  0.00000000000E+00  0.00000000000E+00  0.45593999997E+02  0.45594000000E+02  0.51100000000E-03 0. -1.
         11   -1    0    0    0    0 -0.00000000000E+00 -0.00000000000E+00 -0.45593999997E+02  0.45594000000E+02  0.51100000000E-03 0.  1.
         23    2    1    2    0    0  0.17763568394E-14 -0.88817841970E-15  0.71054273576E-14  0.91188000000E+02  0.91188000000E+02 0.  0.
    9900012    2    3    3    0    0 -0.10082645828E+02  0.65687735096E+01 -0.34799047382E+02  0.54367051737E+02  0.39999926044E+02 0.  0.
         12    1    3    3    0    0  0.10082645828E+02 -0.65687735096E+01  0.34799047382E+02  0.36820948263E+02  0.00000000000E+00 0. -1.
         11    1    4    4    0    0  0.33981525107E+01 -0.22263480141E+01  0.23379141936E+01  0.46872069512E+01  0.51100000000E-03 0. -1.
        -11    1    4    4    0    0  0.52921797270E+01 -0.67676628746E+01 -0.10499369848E+02  0.13566325756E+02  0.51100000000E-03 0.  1.
        -12    1    4    4    0    0 -0.18772978065E+02  0.15562784398E+02 -0.26637591727E+02  0.36113519030E+02  0.00000000000E+00 0.  1.
</event>
<event>
 8    1  0.2509489E-006  0.9118800E+02  0.7816164E-02  0.1184000E+00
        -11   -1    0    0    0    0  0.00000000000E+00  0.00000000000E+00  0.45593999997E+02  0.45594000000E+02  0.51100000000E-03 0.  1.
         11   -1    0    0    0    0 -0.00000000000E+00 -0.00000000000E+00 -0.45593999997E+02  0.45594000000E+02  0.51100000000E-03 0. -1.
         23    2    1    2    0    0  0.35527136788E-14  0.00000000000E+00 -0.35527136788E-14  0.91188000000E+02  0.91188000000E+02 0.  0.
    9900012    2    3    3    0    0  0.23608319907E+02 -0.59938922155E+01 -0.27613397489E+02  0.54367092439E+02  0.40000018834E+02 0.  0.
        -12    1    3    3    0    0 -0.23608319907E+02  0.59938922155E+01  0.27613397489E+02  0.36820907561E+02  0.00000000000E+00 0.  1.
         11    1    4    4    0    0  0.12548027957E+02  0.61514667289E+00 -0.26201202044E+02  0.29057432782E+02  0.51100000000E-03 0. -1.
        -11    1    4    4    0    0  0.11179432075E+02 -0.51175456355E+01 -0.10457836441E+02  0.16141106472E+02  0.51100000000E-03 0.  1.
        -12    1    4    4    0    0 -0.11914012549E+00 -0.14914932529E+01  0.90456409960E+01  0.91685531859E+01  0.00000000000E+00 0.  1.
</event>
<event>
 8    1  0.2509489E-006  0.9118800E+02  0.7816164E-02  0.1184000E+00
        -11   -1    0    0    0    0  0.00000000000E+00  0.00000000000E+00  0.45593999997E+02  0.45594000000E+02  0.51100000000E-03 0.  1.
         11   -1    0    0    0    0 -0.00000000000E+00 -0.00000000000E+00 -0.45593999997E+02  0.45594000000E+02  0.51100000000E-03 0. -1.
         23    2    1    2    0    0  0.00000000000E+00  0.00000000000E+00  0.00000000000E+00  0.91188000000E+02  0.91188000000E+02 0.  0.
    9900012    2    3    3    0    0 -0.28088452427E+02  0.51599842756E+01  0.23242079190E+02  0.54367070591E+02  0.39999969026E+02 0.  0.
         12    1    3    3    0    0  0.28088452427E+02 -0.51599842756E+01 -0.23242079190E+02  0.36820929409E+02  0.00000000000E+00 0. -1.
         11    1    4    4    0    0  0.41623208614E+01 -0.51391203459E+01 -0.58415714955E+01  0.88237991071E+01  0.51100000000E-03 0. -1.
        -11    1    4    4    0    0 -0.96970309270E+01 -0.41903792817E+00  0.11247736675E+02  0.14856634281E+02  0.51100000000E-03 0.  1.
         12    1    4    4    0    0 -0.22553742361E+02  0.10718142550E+02  0.17835914011E+02  0.30686637203E+02  0.00000000000E+00 0. -1.
</event>
<event>
 8    1  0.2509489E-006  0.9118800E+02  0.7816164E-02  0.1184000E+00
        -11   -1    0    0    0    0  0.00000000000E+00  0.00000000000E+00  0.45593999997E+02  0.45594000000E+02  0.51100000000E-03 0.  1.
         11   -1    0    0    0    0 -0.00000000000E+00 -0.00000000000E+00 -0.45593999997E+02  0.45594000000E+02  0.51100000000E-03 0. -1.
         23    2    1    2    0    0  0.35527136788E-14 -0.35527136788E-14 -0.17763568394E-14  0.91188000000E+02  0.91188000000E+02 0.  0.
    9900012    2    3    3    0    0 -0.23792740363E+02 -0.26357784566E+02  0.97444111966E+01  0.54367070479E+02  0.39999968772E+02 0.  0.
         12    1    3    3    0    0  0.23792740363E+02  0.26357784566E+02 -0.97444111966E+01  0.36820929521E+02  0.00000000000E+00 0. -1.
         11    1    4    4    0    0 -0.18232305211E+01 -0.15765771801E+02 -0.53347353011E+01  0.16743450392E+02  0.51100000000E-03 0. -1.
        -11    1    4    4    0    0 -0.12765483031E+02  0.70178802956E+01  0.55783501344E+01  0.15598916352E+02  0.51100000000E-03 0.  1.
         12    1    4    4    0    0 -0.92040268109E+01 -0.17609893060E+02  0.95007963633E+01  0.22024703736E+02  0.00000000000E+00 0. -1.
</event>
<event>
 8    1  0.2509489E-006  0.9118800E+02  0.7816164E-02  0.1184000E+00
        -11   -1    0    0    0    0  0.00000000000E+00  0.00000000000E+00  0.45593999997E+02  0.45594000000E+02  0.51100000000E-03 0. -1.
         11   -1    0    0    0    0 -0.00000000000E+00 -0.00000000000E+00 -0.45593999997E+02  0.45594000000E+02  0.51100000000E-03 0.  1.
         23    2    1    2    0    0  0.35527136788E-14  0.00000000000E+00  0.00000000000E+00  0.91188000000E+02  0.91188000000E+02 0.  0.
    9900012    2    3    3    0    0 -0.24748222154E+02 -0.26753602825E+02  0.52488550692E+01  0.54367078726E+02  0.39999987572E+02 0.  0.
        -12    1    3    3    0    0  0.24748222154E+02  0.26753602825E+02 -0.52488550692E+01  0.36820921274E+02  0.00000000000E+00 0.  1.
         11    1    4    4    0    0 -0.34076185915E+02 -0.24787902897E+02 -0.64868456864E+00  0.42143177010E+02  0.51100000000E-03 0. -1.
        -11    1    4    4    0    0  0.43391712497E+01  0.14777864825E+01  0.31914687696E+01  0.55854931018E+01  0.51100000000E-03 0.  1.
         12    1    4    4    0    0  0.49887925116E+01 -0.34434864106E+01  0.27060708682E+01  0.66384086141E+01  0.00000000000E+00 0. -1.
</event>
<event>
 8    1  0.2509489E-006  0.9118800E+02  0.7816164E-02  0.1184000E+00
        -11   -1    0    0    0    0  0.00000000000E+00  0.00000000000E+00  0.45593999997E+02  0.45594000000E+02  0.51100000000E-03 0. -1.
         11   -1    0    0    0    0 -0.00000000000E+00 -0.00000000000E+00 -0.45593999997E+02  0.45594000000E+02  0.51100000000E-03 0.  1.
         23    2    1    2    0    0  0.00000000000E+00  0.00000000000E+00 -0.17763568394E-14  0.91188000000E+02  0.91188000000E+02 0.  0.
    9900012    2    3    3    0    0  0.26679475029E+02  0.24082319459E+02 -0.80015102245E+01  0.54367127330E+02  0.40000098374E+02 0.  0.
         12    1    3    3    0    0 -0.26679475029E+02 -0.24082319459E+02  0.80015102245E+01  0.36820872670E+02  0.00000000000E+00 0. -1.
         11    1    4    4    0    0  0.37575603793E+01  0.76223279479E+01  0.15331365254E+02  0.17529115898E+02  0.51100000000E-03 0. -1.
        -11    1    4    4    0    0  0.13337315673E+01 -0.31008007433E-01 -0.12581793730E+01  0.18337985129E+01  0.51100000000E-03 0.  1.
        -12    1    4    4    0    0  0.21588183082E+02  0.16490999518E+02 -0.22074696106E+02  0.35004212919E+02  0.00000000000E+00 0.  1.
</event>
<event>
 8    1  0.2509489E-006  0.9118800E+02  0.7816164E-02  0.1184000E+00
        -11   -1    0    0    0    0  0.00000000000E+00  0.00000000000E+00  0.45593999997E+02  0.45594000000E+02  0.51100000000E-03 0. -1.
         11   -1    0    0    0    0 -0.00000000000E+00 -0.00000000000E+00 -0.45593999997E+02  0.45594000000E+02  0.51100000000E-03 0.  1.
         23    2    1    2    0    0  0.13322676296E-14  0.17763568394E-14  0.00000000000E+00  0.91188000000E+02  0.91188000000E+02 0.  0.
    9900012    2    3    3    0    0  0.32261587324E+01  0.94532016359E+01  0.35440233483E+02  0.54367064777E+02  0.39999955773E+02 0.  0.
        -12    1    3    3    0    0 -0.32261587324E+01 -0.94532016359E+01 -0.35440233483E+02  0.36820935223E+02  0.00000000000E+00 0.  1.
         11    1    4    4    0    0 -0.78921071446E+01  0.13923612377E+02  0.21657679834E+02  0.26929675692E+02  0.51100000000E-03 0. -1.
        -11    1    4    4    0    0  0.16545832084E+02 -0.10351561946E+01  0.67136392792E+01  0.17886001798E+02  0.51100000000E-03 0.  1.
        -12    1    4    4    0    0 -0.54275662071E+01 -0.34352545468E+01  0.70689143698E+01  0.95513872867E+01  0.00000000000E+00 0.  1.
</event>
<event>
 8    1  0.2509489E-006  0.9118800E+02  0.7816164E-02  0.1184000E+00
        -11   -1    0    0    0    0  0.00000000000E+00  0.00000000000E+00  0.45593999997E+02  0.45594000000E+02  0.51100000000E-03 0. -1.
         11   -1    0    0    0    0 -0.00000000000E+00 -0.00000000000E+00 -0.45593999997E+02  0.45594000000E+02  0.51100000000E-03 0.  1.
         23    2    1    2    0    0  0.35527136788E-14  0.00000000000E+00 -0.35527136788E-14  0.91188000000E+02  0.91188000000E+02 0.  0.
    9900012    2    3    3    0    0 -0.31327316394E+02 -0.12202367213E+02  0.15016025688E+02  0.54367088204E+02  0.40000009178E+02 0.  0.
         12    1    3    3    0    0  0.31327316394E+02  0.12202367213E+02 -0.15016025688E+02  0.36820911796E+02  0.00000000000E+00 0. -1.
         11    1    4    4    0    0 -0.50422934454E+01 -0.50400373518E+01  0.17225618209E+02  0.18642655997E+02  0.51100000000E-03 0. -1.
        -11    1    4    4    0    0 -0.19918288525E+02 -0.13988060744E+02  0.37839164580E+01  0.24631729236E+02  0.51100000000E-03 0.  1.
        -12    1    4    4    0    0 -0.63667344238E+01  0.68257308829E+01 -0.59935089789E+01  0.11092702970E+02  0.00000000000E+00 0.  1.
</event>
<event>
 8    1  0.2509489E-006  0.9118800E+02  0.7816164E-02  0.1184000E+00
        -11   -1    0    0    0    0  0.00000000000E+00  0.00000000000E+00  0.45593999997E+02  0.45594000000E+02  0.51100000000E-03 0. -1.
         11   -1    0    0    0    0 -0.00000000000E+00 -0.00000000000E+00 -0.45593999997E+02  0.45594000000E+02  0.51100000000E-03 0.  1.
         23    2    1    2    0    0  0.00000000000E+00 -0.88817841970E-15  0.00000000000E+00  0.91188000000E+02  0.91188000000E+02 0.  0.
    9900012    2    3    3    0    0  0.23864185059E+02  0.22597793643E+01  0.27949702644E+02  0.54366921673E+02  0.39999629536E+02 0.  0.
        -12    1    3    3    0    0 -0.23864185059E+02 -0.22597793643E+01 -0.27949702644E+02  0.36821078327E+02  0.00000000000E+00 0.  1.
         11    1    4    4    0    0 -0.18377859494E+01 -0.31193197979E+01  0.17772837882E+02  0.18137843859E+02  0.51100000000E-03 0. -1.
        -11    1    4    4    0    0  0.19317551403E+01  0.46372424212E+01 -0.57281522037E+01  0.76188859504E+01  0.51100000000E-03 0.  1.
         12    1    4    4    0    0  0.23770215868E+02  0.74185674096E+00  0.15905016965E+02  0.28610191864E+02  0.00000000000E+00 0. -1.
</event>
<event>
 8    1  0.2509489E-006  0.9118800E+02  0.7816164E-02  0.1184000E+00
        -11   -1    0    0    0    0  0.00000000000E+00  0.00000000000E+00  0.45593999997E+02  0.45594000000E+02  0.51100000000E-03 0.  1.
         11   -1    0    0    0    0 -0.00000000000E+00 -0.00000000000E+00 -0.45593999997E+02  0.45594000000E+02  0.51100000000E-03 0. -1.
         23    2    1    2    0    0  0.00000000000E+00 -0.71054273576E-14 -0.88817841970E-15  0.91188000000E+02  0.91188000000E+02 0.  0.
    9900012    2    3    3    0    0 -0.19144988806E+02 -0.31372778373E+02 -0.22349291461E+01  0.54367126470E+02  0.40000096414E+02 0.  0.
         12    1    3    3    0    0  0.19144988806E+02  0.31372778373E+02  0.22349291461E+01  0.36820873530E+02  0.00000000000E+00 0. -1.
         11    1    4    4    0    0  0.23583759323E+01  0.17933122474E+01 -0.10575485624E+02  0.10982659163E+02  0.51100000000E-03 0. -1.
        -11    1    4    4    0    0 -0.33000284210E+00 -0.75320348825E-01 -0.25861510365E+01  0.26082086717E+01  0.51100000000E-03 0.  1.
        -12    1    4    4    0    0 -0.21173361896E+02 -0.33090770272E+02  0.10926707514E+02  0.40776258635E+02  0.00000000000E+00 0.  1.
</event>
<event>
 8    1  0.2509489E-006  0.9118800E+02  0.7816164E-02  0.1184000E+00
        -11   -1    0    0    0    0  0.00000000000E+00  0.00000000000E+00  0.45593999997E+02  0.45594000000E+02  0.51100000000E-03 0.  1.
         11   -1    0    0    0    0 -0.00000000000E+00 -0.00000000000E+00 -0.45593999997E+02  0.45594000000E+02  0.51100000000E-03 0. -1.
         23    2    1    2    0    0  0.00000000000E+00  0.00000000000E+00  0.17763568394E-14  0.91188000000E+02  0.91188000000E+02 0.  0.
    9900012    2    3    3    0    0 -0.32300595328E+02  0.13078168964E+02 -0.11891709003E+02  0.54367086038E+02  0.40000004240E+02 0.  0.
         12    1    3    3    0    0  0.32300595328E+02 -0.13078168964E+02  0.11891709003E+02  0.36820913962E+02  0.00000000000E+00 0. -1.
         11    1    4    4    0    0  0.78836583080E+00 -0.10767103738E+02 -0.26432086076E+01  0.11114791748E+02  0.51100000000E-03 0. -1.
        -11    1    4    4    0    0 -0.12180720947E+02  0.12001298841E+02  0.99842045754E+00  0.17128863953E+02  0.51100000000E-03 0.  1.
         12    1    4    4    0    0 -0.20908240212E+02  0.11843973861E+02 -0.10246920853E+02  0.26123430337E+02  0.00000000000E+00 0. -1.
</event>
<event>
 8    1  0.2509489E-006  0.9118800E+02  0.7816164E-02  0.1184000E+00
        -11   -1    0    0    0    0  0.00000000000E+00  0.00000000000E+00  0.45593999997E+02  0.45594000000E+02  0.51100000000E-03 0. -1.
         11   -1    0    0    0    0 -0.00000000000E+00 -0.00000000000E+00 -0.45593999997E+02  0.45594000000E+02  0.51100000000E-03 0.  1.
         23    2    1    2    0    0  0.88817841970E-15  0.35527136788E-14  0.00000000000E+00  0.91188000000E+02  0.91188000000E+02 0.  0.
    9900012    2    3    3    0    0 -0.76981962948E+01  0.29055410937E+02  0.21267399718E+02  0.54367062727E+02  0.39999951099E+02 0.  0.
        -12    1    3    3    0    0  0.76981962948E+01 -0.29055410937E+02 -0.21267399718E+02  0.36820937273E+02  0.00000000000E+00 0.  1.
         11    1    4    4    0    0  0.73400776739E+00  0.56993179107E+01  0.18613448475E+02  0.19480283788E+02  0.51100000000E-03 0. -1.
        -11    1    4    4    0    0 -0.14807636107E+01 -0.40142793352E+01  0.49635460385E+01  0.65531587032E+01  0.51100000000E-03 0.  1.
         12    1    4    4    0    0 -0.69514404515E+01  0.27370372362E+02 -0.23095947962E+01  0.28333620236E+02  0.00000000000E+00 0. -1.
</event>
<event>
 8    1  0.2509489E-006  0.9118800E+02  0.7816164E-02  0.1184000E+00
        -11   -1    0    0    0    0  0.00000000000E+00  0.00000000000E+00  0.45593999997E+02  0.45594000000E+02  0.51100000000E-03 0. -1.
         11   -1    0    0    0    0 -0.00000000000E+00 -0.00000000000E+00 -0.45593999997E+02  0.45594000000E+02  0.51100000000E-03 0.  1.
         23    2    1    2    0    0  0.00000000000E+00  0.00000000000E+00  0.00000000000E+00  0.91188000000E+02  0.91188000000E+02 0.  0.
    9900012    2    3    3    0    0 -0.35116211912E+02 -0.65539396371E+01 -0.89262213165E+01  0.54367083515E+02  0.39999998489E+02 0.  0.
        -12    1    3    3    0    0  0.35116211912E+02  0.65539396371E+01  0.89262213165E+01  0.36820916485E+02  0.00000000000E+00 0.  1.
         11    1    4    4    0    0  0.19870940029E+01 -0.21488422162E+01  0.10585672595E+02  0.10982828870E+02  0.51100000000E-03 0. -1.
        -11    1    4    4    0    0 -0.52740923721E+01  0.15990077417E+00  0.82100509683E+00  0.53400063892E+01  0.51100000000E-03 0.  1.
        -12    1    4    4    0    0 -0.31829213543E+02 -0.45649981951E+01 -0.20332899008E+02  0.38044248256E+02  0.00000000000E+00 0.  1.
</event>
<event>
 8    1  0.2509489E-006  0.9118800E+02  0.7816164E-02  0.1184000E+00
        -11   -1    0    0    0    0  0.00000000000E+00  0.00000000000E+00  0.45593999997E+02  0.45594000000E+02  0.51100000000E-03 0. -1.
         11   -1    0    0    0    0 -0.00000000000E+00 -0.00000000000E+00 -0.45593999997E+02  0.45594000000E+02  0.51100000000E-03 0.  1.
         23    2    1    2    0    0  0.66613381478E-15  0.00000000000E+00  0.35527136788E-14  0.91188000000E+02  0.91188000000E+02 0.  0.
    9900012    2    3    3    0    0 -0.14073626209E+01 -0.23683024874E+02 -0.28158864591E+02  0.54366973510E+02  0.39999747710E+02 0.  0.
         12    1    3    3    0    0  0.14073626209E+01  0.23683024874E+02  0.28158864591E+02  0.36821026490E+02  0.00000000000E+00 0. -1.
         11    1    4    4    0    0 -0.45141473982E+01 -0.68195302782E+01  0.23591949482E+01  0.85117166901E+01  0.51100000000E-03 0. -1.
        -11    1    4    4    0    0 -0.30782629817E+01  0.71019624580E+01 -0.18070370562E+01  0.79485191654E+01  0.51100000000E-03 0.  1.
         12    1    4    4    0    0  0.61850477590E+01 -0.23965457054E+02 -0.28711022483E+02  0.37906737654E+02  0.00000000000E+00 0. -1.
</event>
<event>
 8    1  0.2509489E-006  0.9118800E+02  0.7816164E-02  0.1184000E+00
        -11   -1    0    0    0    0  0.00000000000E+00  0.00000000000E+00  0.45593999997E+02  0.45594000000E+02  0.51100000000E-03 0.  1.
         11   -1    0    0    0    0 -0.00000000000E+00 -0.00000000000E+00 -0.45593999997E+02  0.45594000000E+02  0.51100000000E-03 0. -1.
         23    2    1    2    0    0  0.00000000000E+00 -0.35527136788E-14  0.00000000000E+00  0.91188000000E+02  0.91188000000E+02 0.  0.
    9900012    2    3    3    0    0 -0.16589289238E+02  0.20959697763E+02 -0.25323265063E+02  0.54367065720E+02  0.39999957923E+02 0.  0.
        -12    1    3    3    0    0  0.16589289238E+02 -0.20959697763E+02  0.25323265063E+02  0.36820934280E+02  0.00000000000E+00 0.  1.
         11    1    4    4    0    0 -0.18585244841E+02  0.51654291009E+01 -0.13604645950E+02  0.23604647324E+02  0.51100000000E-03 0. -1.
        -11    1    4    4    0    0  0.12750983007E+02  0.78967143166E+01 -0.49029152381E+01  0.15779234542E+02  0.51100000000E-03 0.  1.
        -12    1    4    4    0    0 -0.10755027403E+02  0.78975543460E+01 -0.68157038756E+01  0.14983183854E+02  0.00000000000E+00 0.  1.
</event>
<event>
 8    1  0.2509489E-006  0.9118800E+02  0.7816164E-02  0.1184000E+00
        -11   -1    0    0    0    0  0.00000000000E+00  0.00000000000E+00  0.45593999997E+02  0.45594000000E+02  0.51100000000E-03 0.  1.
         11   -1    0    0    0    0 -0.00000000000E+00 -0.00000000000E+00 -0.45593999997E+02  0.45594000000E+02  0.51100000000E-03 0. -1.
         23    2    1    2    0    0  0.00000000000E+00  0.00000000000E+00  0.88817841970E-15  0.91188000000E+02  0.91188000000E+02 0.  0.
    9900012    2    3    3    0    0  0.16276769082E+02 -0.32422240495E+02  0.62963899214E+01  0.54367089956E+02  0.40000013172E+02 0.  0.
         12    1    3    3    0    0 -0.16276769082E+02  0.32422240495E+02 -0.62963899214E+01  0.36820910044E+02  0.00000000000E+00 0. -1.
         11    1    4    4    0    0  0.80589757729E+01 -0.27206938532E+02 -0.91299909551E+01  0.29808074911E+02  0.51100000000E-03 0. -1.
        -11    1    4    4    0    0  0.12704018387E+02 -0.61027180508E+01  0.91890338526E+01  0.16824791059E+02  0.51100000000E-03 0.  1.
         12    1    4    4    0    0 -0.44862250782E+01  0.88741608774E+00  0.62373470239E+01  0.77342239858E+01  0.00000000000E+00 0. -1.
</event>
<event>
 8    1  0.2509489E-006  0.9118800E+02  0.7816164E-02  0.1184000E+00
        -11   -1    0    0    0    0  0.00000000000E+00  0.00000000000E+00  0.45593999997E+02  0.45594000000E+02  0.51100000000E-03 0.  1.
         11   -1    0    0    0    0 -0.00000000000E+00 -0.00000000000E+00 -0.45593999997E+02  0.45594000000E+02  0.51100000000E-03 0. -1.
         23    2    1    2    0    0  0.35527136788E-14  0.00000000000E+00  0.00000000000E+00  0.91188000000E+02  0.91188000000E+02 0.  0.
    9900012    2    3    3    0    0  0.21223250222E+02 -0.41380187048E+01 -0.29803200346E+02  0.54367077963E+02  0.39999985832E+02 0.  0.
        -12    1    3    3    0    0 -0.21223250222E+02  0.41380187048E+01  0.29803200346E+02  0.36820922037E+02  0.00000000000E+00 0.  1.
         11    1    4    4    0    0 -0.75516560367E+01 -0.36128795073E+01 -0.13846142125E+02  0.16180113079E+02  0.51100000000E-03 0. -1.
        -11    1    4    4    0    0  0.21467828618E+02 -0.14919192576E+01 -0.20340466914E+02  0.29611283039E+02  0.51100000000E-03 0.  1.
        -12    1    4    4    0    0  0.73070776407E+01  0.96678006015E+00  0.43834086934E+01  0.85756818449E+01  0.00000000000E+00 0.  1.
</event>
<event>
 8    1  0.2509489E-006  0.9118800E+02  0.7816164E-02  0.1184000E+00
        -11   -1    0    0    0    0  0.00000000000E+00  0.00000000000E+00  0.45593999997E+02  0.45594000000E+02  0.51100000000E-03 0.  1.
         11   -1    0    0    0    0 -0.00000000000E+00 -0.00000000000E+00 -0.45593999997E+02  0.45594000000E+02  0.51100000000E-03 0. -1.
         23    2    1    2    0    0  0.00000000000E+00  0.00000000000E+00 -0.35527136788E-14  0.91188000000E+02  0.91188000000E+02 0.  0.
    9900012    2    3    3    0    0  0.16140289340E+02  0.20205436026E+02  0.26210911080E+02  0.54367075994E+02  0.39999981344E+02 0.  0.
         12    1    3    3    0    0 -0.16140289340E+02 -0.20205436026E+02 -0.26210911080E+02  0.36820924006E+02  0.00000000000E+00 0. -1.
         11    1    4    4    0    0  0.10562358382E+02  0.10581505393E+02  0.15952880821E+01  0.15035844349E+02  0.51100000000E-03 0. -1.
        -11    1    4    4    0    0  0.84446324002E+01 -0.54388785710E+01  0.21434833876E+02  0.23671614225E+02  0.51100000000E-03 0.  1.
         12    1    4    4    0    0 -0.28667014427E+01  0.15062809204E+02  0.31807891222E+01  0.15659617419E+02  0.00000000000E+00 0. -1.
</event>
<event>
 8    1  0.2509489E-006  0.9118800E+02  0.7816164E-02  0.1184000E+00
        -11   -1    0    0    0    0  0.00000000000E+00  0.00000000000E+00  0.45593999997E+02  0.45594000000E+02  0.51100000000E-03 0.  1.
         11   -1    0    0    0    0 -0.00000000000E+00 -0.00000000000E+00 -0.45593999997E+02  0.45594000000E+02  0.51100000000E-03 0. -1.
         23    2    1    2    0    0 -0.88817841970E-15 -0.71054273576E-14  0.88817841970E-15  0.91188000000E+02  0.91188000000E+02 0.  0.
    9900012    2    3    3    0    0 -0.43900275513E+01 -0.35757983398E+02  0.76073216063E+01  0.54367121946E+02  0.40000086101E+02 0.  0.
         12    1    3    3    0    0  0.43900275513E+01  0.35757983398E+02 -0.76073216063E+01  0.36820878054E+02  0.00000000000E+00 0. -1.
         11    1    4    4    0    0 -0.92633342624E+01 -0.33453613002E+02  0.12564654569E+02  0.36916447950E+02  0.51100000000E-03 0.  1.
        -11    1    4    4    0    0  0.29850205417E+01  0.49256099749E+01  0.30341406730E+01  0.65098380275E+01  0.51100000000E-03 0. -1.
         12    1    4    4    0    0  0.18882861694E+01 -0.72299803713E+01 -0.79914736359E+01  0.10940835969E+02  0.00000000000E+00 0. -1.
</event>
<event>
 8    1  0.2509489E-006  0.9118800E+02  0.7816164E-02  0.1184000E+00
        -11   -1    0    0    0    0  0.00000000000E+00  0.00000000000E+00  0.45593999997E+02  0.45594000000E+02  0.51100000000E-03 0. -1.
         11   -1    0    0    0    0 -0.00000000000E+00 -0.00000000000E+00 -0.45593999997E+02  0.45594000000E+02  0.51100000000E-03 0.  1.
         23    2    1    2    0    0  0.00000000000E+00 -0.35527136788E-14  0.00000000000E+00  0.91188000000E+02  0.91188000000E+02 0.  0.
    9900012    2    3    3    0    0  0.10937185902E+02 -0.21738273629E+02 -0.27633426830E+02  0.54367070432E+02  0.39999968665E+02 0.  0.
         12    1    3    3    0    0 -0.10937185902E+02  0.21738273629E+02  0.27633426830E+02  0.36820929568E+02  0.00000000000E+00 0. -1.
         11    1    4    4    0    0  0.10796650149E+02 -0.23311791784E+02 -0.53572308974E+01  0.26243231771E+02  0.51100000000E-03 0. -1.
        -11    1    4    4    0    0  0.51664871909E+01 -0.60728222968E+01 -0.11380524754E+02  0.13895614577E+02  0.51100000000E-03 0.  1.
         12    1    4    4    0    0 -0.50259514381E+01  0.76463404516E+01 -0.10895671179E+02  0.14228224084E+02  0.00000000000E+00 0. -1.
</event>
<event>
 8    1  0.2509489E-006  0.9118800E+02  0.7816164E-02  0.1184000E+00
        -11   -1    0    0    0    0  0.00000000000E+00  0.00000000000E+00  0.45593999997E+02  0.45594000000E+02  0.51100000000E-03 0. -1.
         11   -1    0    0    0    0 -0.00000000000E+00 -0.00000000000E+00 -0.45593999997E+02  0.45594000000E+02  0.51100000000E-03 0.  1.
         23    2    1    2    0    0  0.53290705182E-14  0.00000000000E+00  0.00000000000E+00  0.91188000000E+02  0.91188000000E+02 0.  0.
    9900012    2    3    3    0    0  0.10576113617E+02 -0.34720353304E+02  0.61985688751E+01  0.54367090602E+02  0.40000014644E+02 0.  0.
         12    1    3    3    0    0 -0.10576113617E+02  0.34720353304E+02 -0.61985688751E+01  0.36820909398E+02  0.00000000000E+00 0. -1.
         11    1    4    4    0    0  0.17984418044E+02 -0.28453042721E+02  0.42893412890E+01  0.33932482689E+02  0.51100000000E-03 0.  1.
        -11    1    4    4    0    0  0.91930703239E+00 -0.12005762628E+01  0.85221871321E+01  0.86552979474E+01  0.51100000000E-03 0. -1.
        -12    1    4    4    0    0 -0.83276114596E+01 -0.50667343204E+01 -0.66129595460E+01  0.11779309965E+02  0.00000000000E+00 0.  1.
</event>
<event>
 8    1  0.2509489E-006  0.9118800E+02  0.7816164E-02  0.1184000E+00
        -11   -1    0    0    0    0  0.00000000000E+00  0.00000000000E+00  0.45593999997E+02  0.45594000000E+02  0.51100000000E-03 0.  1.
         11   -1    0    0    0    0 -0.00000000000E+00 -0.00000000000E+00 -0.45593999997E+02  0.45594000000E+02  0.51100000000E-03 0. -1.
         23    2    1    2    0    0  0.00000000000E+00 -0.35527136788E-14 -0.19984014443E-14  0.91188000000E+02  0.91188000000E+02 0.  0.
    9900012    2    3    3    0    0 -0.19263143075E+02 -0.31346509889E+02  0.14474645570E+01  0.54367251542E+02  0.40000381538E+02 0.  0.
        -12    1    3    3    0    0  0.19263143075E+02  0.31346509889E+02 -0.14474645570E+01  0.36820748458E+02  0.00000000000E+00 0.  1.
         11    1    4    4    0    0 -0.48374916282E-01  0.32005836008E+01 -0.11203453458E+01  0.33913492114E+01  0.51100000000E-03 0.  1.
        -11    1    4    4    0    0 -0.11695766065E+02 -0.29864502181E+02 -0.11734905710E+02  0.34152414946E+02  0.51100000000E-03 0. -1.
        -12    1    4    4    0    0 -0.75190020939E+01 -0.46825913091E+01  0.14302715613E+02  0.16823487384E+02  0.00000000000E+00 0.  1.
</event>
<event>
 8    1  0.2509489E-006  0.9118800E+02  0.7816164E-02  0.1184000E+00
        -11   -1    0    0    0    0  0.00000000000E+00  0.00000000000E+00  0.45593999997E+02  0.45594000000E+02  0.51100000000E-03 0. -1.
         11   -1    0    0    0    0 -0.00000000000E+00 -0.00000000000E+00 -0.45593999997E+02  0.45594000000E+02  0.51100000000E-03 0.  1.
         23    2    1    2    0    0  0.33306690739E-15  0.00000000000E+00  0.17763568394E-14  0.91188000000E+02  0.91188000000E+02 0.  0.
    9900012    2    3    3    0    0  0.50068873130E+00  0.35684829632E+02  0.90621406425E+01  0.54367080021E+02  0.39999990523E+02 0.  0.
         12    1    3    3    0    0 -0.50068873130E+00 -0.35684829632E+02 -0.90621406425E+01  0.36820919979E+02  0.00000000000E+00 0. -1.
         11    1    4    4    0    0  0.85691037098E+01  0.20451272710E+02  0.24753550586E+01  0.22311689241E+02  0.51100000000E-03 0. -1.
        -11    1    4    4    0    0  0.36018432166E+01  0.86853839633E+01 -0.79384075204E+01  0.12305587486E+02  0.51100000000E-03 0.  1.
         12    1    4    4    0    0 -0.11670258195E+02  0.65481729591E+01  0.14525193104E+02  0.19749803294E+02  0.00000000000E+00 0. -1.
</event>
<event>
 8    1  0.2509489E-006  0.9118800E+02  0.7816164E-02  0.1184000E+00
        -11   -1    0    0    0    0  0.00000000000E+00  0.00000000000E+00  0.45593999997E+02  0.45594000000E+02  0.51100000000E-03 0.  1.
         11   -1    0    0    0    0 -0.00000000000E+00 -0.00000000000E+00 -0.45593999997E+02  0.45594000000E+02  0.51100000000E-03 0. -1.
         23    2    1    2    0    0  0.00000000000E+00  0.00000000000E+00  0.00000000000E+00  0.91188000000E+02  0.91188000000E+02 0.  0.
    9900012    2    3    3    0    0 -0.19108901656E+02  0.30484083570E+02  0.78325386245E+01  0.54367107359E+02  0.40000052846E+02 0.  0.
        -12    1    3    3    0    0  0.19108901656E+02 -0.30484083570E+02 -0.78325386245E+01  0.36820892641E+02  0.00000000000E+00 0.  1.
         11    1    4    4    0    0  0.56761219568E+01  0.75095438079E+01 -0.91322833757E-01  0.94138169088E+01  0.51100000000E-03 0. -1.
        -11    1    4    4    0    0 -0.65920967830E+01 -0.66077329510E+01  0.79378991011E-02  0.93336990534E+01  0.51100000000E-03 0.  1.
         12    1    4    4    0    0 -0.18192926830E+02  0.29582272713E+02  0.79159235592E+01  0.35619591397E+02  0.00000000000E+00 0. -1.
</event>
<event>
 8    1  0.2509489E-006  0.9118800E+02  0.7816164E-02  0.1184000E+00
        -11   -1    0    0    0    0  0.00000000000E+00  0.00000000000E+00  0.45593999997E+02  0.45594000000E+02  0.51100000000E-03 0. -1.
         11   -1    0    0    0    0 -0.00000000000E+00 -0.00000000000E+00 -0.45593999997E+02  0.45594000000E+02  0.51100000000E-03 0.  1.
         23    2    1    2    0    0  0.00000000000E+00  0.00000000000E+00  0.00000000000E+00  0.91188000000E+02  0.91188000000E+02 0.  0.
    9900012    2    3    3    0    0  0.65116825553E+01 -0.17523982848E+02 -0.31722090348E+02  0.54367041286E+02  0.39999902220E+02 0.  0.
         12    1    3    3    0    0 -0.65116825553E+01  0.17523982848E+02  0.31722090348E+02  0.36820958714E+02  0.00000000000E+00 0. -1.
         11    1    4    4    0    0 -0.73990790698E+01 -0.67369648973E+01 -0.15527668435E+01  0.10126408655E+02  0.51100000000E-03 0. -1.
        -11    1    4    4    0    0  0.14853367239E+02 -0.17685146460E+02 -0.29171852439E+02  0.37207309747E+02  0.51100000000E-03 0.  1.
        -12    1    4    4    0    0 -0.94260561364E+00  0.68981285091E+01 -0.99747106544E+00  0.70333228845E+01  0.00000000000E+00 0.  1.
</event>
<event>
 8    1  0.2509489E-006  0.9118800E+02  0.7816164E-02  0.1184000E+00
        -11   -1    0    0    0    0  0.00000000000E+00  0.00000000000E+00  0.45593999997E+02  0.45594000000E+02  0.51100000000E-03 0. -1.
         11   -1    0    0    0    0 -0.00000000000E+00 -0.00000000000E+00 -0.45593999997E+02  0.45594000000E+02  0.51100000000E-03 0.  1.
         23    2    1    2    0    0  0.00000000000E+00  0.00000000000E+00  0.17763568394E-14  0.91188000000E+02  0.91188000000E+02 0.  0.
    9900012    2    3    3    0    0 -0.31464455764E+02 -0.17486890547E+02  0.77455553969E+01  0.54366851920E+02  0.39999470519E+02 0.  0.
        -12    1    3    3    0    0  0.31464455764E+02  0.17486890547E+02 -0.77455553969E+01  0.36821148080E+02  0.00000000000E+00 0.  1.
         11    1    4    4    0    0 -0.87420082378E+00  0.36721685206E+01  0.98799204724E+01  0.10576477558E+02  0.51100000000E-03 0. -1.
        -11    1    4    4    0    0 -0.32754296195E+02 -0.12906934578E+02 -0.15699668590E+01  0.35240568605E+02  0.51100000000E-03 0.  1.
        -12    1    4    4    0    0  0.21640412545E+01 -0.82521244896E+01 -0.56439821656E+00  0.85498057574E+01  0.00000000000E+00 0.  1.
</event>
<event>
 8    1  0.2509489E-006  0.9118800E+02  0.7816164E-02  0.1184000E+00
        -11   -1    0    0    0    0  0.00000000000E+00  0.00000000000E+00  0.45593999997E+02  0.45594000000E+02  0.51100000000E-03 0. -1.
         11   -1    0    0    0    0 -0.00000000000E+00 -0.00000000000E+00 -0.45593999997E+02  0.45594000000E+02  0.51100000000E-03 0.  1.
         23    2    1    2    0    0  0.00000000000E+00  0.35527136788E-14  0.00000000000E+00  0.91188000000E+02  0.91188000000E+02 0.  0.
    9900012    2    3    3    0    0  0.22716523073E+02 -0.22054686022E+02  0.18797112831E+02  0.54367067817E+02  0.39999962701E+02 0.  0.
        -12    1    3    3    0    0 -0.22716523073E+02  0.22054686022E+02 -0.18797112831E+02  0.36820932183E+02  0.00000000000E+00 0.  1.
         11    1    4    4    0    0  0.18778453454E+02 -0.28825778068E+02  0.65653778650E+01  0.35023706002E+02  0.51100000000E-03 0. -1.
        -11    1    4    4    0    0  0.61733106428E+01 -0.99232294739E+00  0.25987368249E+01  0.67711079204E+01  0.51100000000E-03 0.  1.
        -12    1    4    4    0    0 -0.22352410236E+01  0.77634149931E+01  0.96329981414E+01  0.12572253894E+02  0.00000000000E+00 0.  1.
</event>
<event>
 8    1  0.2509489E-006  0.9118800E+02  0.7816164E-02  0.1184000E+00
        -11   -1    0    0    0    0  0.00000000000E+00  0.00000000000E+00  0.45593999997E+02  0.45594000000E+02  0.51100000000E-03 0. -1.
         11   -1    0    0    0    0 -0.00000000000E+00 -0.00000000000E+00 -0.45593999997E+02  0.45594000000E+02  0.51100000000E-03 0.  1.
         23    2    1    2    0    0 -0.35527136788E-14  0.22204460493E-15 -0.35527136788E-14  0.91188000000E+02  0.91188000000E+02 0.  0.
    9900012    2    3    3    0    0  0.24336057665E+02 -0.50588365560E+00  0.27627496730E+02  0.54367106522E+02  0.40000050938E+02 0.  0.
        -12    1    3    3    0    0 -0.24336057665E+02  0.50588365560E+00 -0.27627496730E+02  0.36820893478E+02  0.00000000000E+00 0.  1.
         11    1    4    4    0    0  0.48174503794E+01  0.14442948360E+02  0.35705002851E+01  0.15638256234E+02  0.51100000000E-03 0. -1.
        -11    1    4    4    0    0  0.22891395906E+01 -0.27244387617E+01  0.15554640365E+02  0.15956489708E+02  0.51100000000E-03 0.  1.
         12    1    4    4    0    0  0.17229467695E+02 -0.12224393254E+02  0.85023560797E+01  0.22772360580E+02  0.00000000000E+00 0. -1.
</event>
<event>
 8    1  0.2509489E-006  0.9118800E+02  0.7816164E-02  0.1184000E+00
        -11   -1    0    0    0    0  0.00000000000E+00  0.00000000000E+00  0.45593999997E+02  0.45594000000E+02  0.51100000000E-03 0.  1.
         11   -1    0    0    0    0 -0.00000000000E+00 -0.00000000000E+00 -0.45593999997E+02  0.45594000000E+02  0.51100000000E-03 0. -1.
         23    2    1    2    0    0  0.00000000000E+00  0.00000000000E+00 -0.71054273576E-14  0.91188000000E+02  0.91188000000E+02 0.  0.
    9900012    2    3    3    0    0  0.12596684875E+02 -0.18655467696E+02 -0.29138914662E+02  0.54367091639E+02  0.40000017009E+02 0.  0.
        -12    1    3    3    0    0 -0.12596684875E+02  0.18655467696E+02  0.29138914662E+02  0.36820908361E+02  0.00000000000E+00 0.  1.
         11    1    4    4    0    0  0.37735524597E+01 -0.93948154048E+01 -0.11796346048E+02  0.15545289801E+02  0.51100000000E-03 0. -1.
        -11    1    4    4    0    0  0.14342678027E+02  0.64390499317E+01 -0.14133232689E+01  0.15785159484E+02  0.51100000000E-03 0.  1.
        -12    1    4    4    0    0 -0.55195456113E+01 -0.15699702223E+02 -0.15929245346E+02  0.23036642354E+02  0.00000000000E+00 0.  1.
</event>
<event>
 8    1  0.2509489E-006  0.9118800E+02  0.7816164E-02  0.1184000E+00
        -11   -1    0    0    0    0  0.00000000000E+00  0.00000000000E+00  0.45593999997E+02  0.45594000000E+02  0.51100000000E-03 0. -1.
         11   -1    0    0    0    0 -0.00000000000E+00 -0.00000000000E+00 -0.45593999997E+02  0.45594000000E+02  0.51100000000E-03 0.  1.
         23    2    1    2    0    0  0.00000000000E+00  0.00000000000E+00  0.17763568394E-14  0.91188000000E+02  0.91188000000E+02 0.  0.
    9900012    2    3    3    0    0  0.26183739804E+02  0.25022364405E+02 -0.66385992650E+01  0.54367109860E+02  0.40000058547E+02 0.  0.
         12    1    3    3    0    0 -0.26183739804E+02 -0.25022364405E+02  0.66385992650E+01  0.36820890140E+02  0.00000000000E+00 0. -1.
         11    1    4    4    0    0  0.28886870695E+01  0.12705126969E+02  0.12403980417E+02  0.17989538480E+02  0.51100000000E-03 0. -1.
        -11    1    4    4    0    0  0.13221963636E+02  0.15246998899E+01 -0.16818834953E+02  0.21448035844E+02  0.51100000000E-03 0.  1.
        -12    1    4    4    0    0  0.10073089099E+02  0.10792537546E+02 -0.22237447292E+01  0.14929535535E+02  0.00000000000E+00 0.  1.
</event>
<event>
 8    1  0.2509489E-006  0.9118800E+02  0.7816164E-02  0.1184000E+00
        -11   -1    0    0    0    0  0.00000000000E+00  0.00000000000E+00  0.45593999997E+02  0.45594000000E+02  0.51100000000E-03 0. -1.
         11   -1    0    0    0    0 -0.00000000000E+00 -0.00000000000E+00 -0.45593999997E+02  0.45594000000E+02  0.51100000000E-03 0.  1.
         23    2    1    2    0    0  0.00000000000E+00  0.00000000000E+00  0.00000000000E+00  0.91188000000E+02  0.91188000000E+02 0.  0.
    9900012    2    3    3    0    0  0.20280764207E+02 -0.13952266369E+02  0.27382564271E+02  0.54367082579E+02  0.39999996356E+02 0.  0.
        -12    1    3    3    0    0 -0.20280764207E+02  0.13952266369E+02 -0.27382564271E+02  0.36820917421E+02  0.00000000000E+00 0.  1.
         11    1    4    4    0    0  0.40335905296E+01 -0.20505985301E+02  0.13417002875E+02  0.24835081078E+02  0.51100000000E-03 0. -1.
        -11    1    4    4    0    0  0.88674993175E+01  0.31491421781E+01 -0.36805726380E+01  0.10104269187E+02  0.51100000000E-03 0.  1.
         12    1    4    4    0    0  0.73796743604E+01  0.34045767538E+01  0.17646134034E+02  0.19427732314E+02  0.00000000000E+00 0. -1.
</event>
<event>
 8    1  0.2509489E-006  0.9118800E+02  0.7816164E-02  0.1184000E+00
        -11   -1    0    0    0    0  0.00000000000E+00  0.00000000000E+00  0.45593999997E+02  0.45594000000E+02  0.51100000000E-03 0.  1.
         11   -1    0    0    0    0 -0.00000000000E+00 -0.00000000000E+00 -0.45593999997E+02  0.45594000000E+02  0.51100000000E-03 0. -1.
         23    2    1    2    0    0  0.35527136788E-14  0.53290705182E-14  0.00000000000E+00  0.91188000000E+02  0.91188000000E+02 0.  0.
    9900012    2    3    3    0    0  0.24191325614E+02  0.91522991174E+01 -0.26206747795E+02  0.54367103161E+02  0.40000043275E+02 0.  0.
        -12    1    3    3    0    0 -0.24191325614E+02 -0.91522991174E+01  0.26206747795E+02  0.36820896839E+02  0.00000000000E+00 0.  1.
         11    1    4    4    0    0  0.22296993118E+02  0.16349453890E+02 -0.20413602324E+02  0.34368236858E+02  0.51100000000E-03 0. -1.
        -11    1    4    4    0    0  0.37895623734E+01 -0.84784151835E+01 -0.10949725341E+02  0.14357603989E+02  0.51100000000E-03 0.  1.
        -12    1    4    4    0    0 -0.18952298779E+01  0.12812604109E+01  0.51565798703E+01  0.56412623135E+01  0.00000000000E+00 0.  1.
</event>
<event>
 8    1  0.2509489E-006  0.9118800E+02  0.7816164E-02  0.1184000E+00
        -11   -1    0    0    0    0  0.00000000000E+00  0.00000000000E+00  0.45593999997E+02  0.45594000000E+02  0.51100000000E-03 0.  1.
         11   -1    0    0    0    0 -0.00000000000E+00 -0.00000000000E+00 -0.45593999997E+02  0.45594000000E+02  0.51100000000E-03 0. -1.
         23    2    1    2    0    0  0.00000000000E+00  0.35527136788E-14  0.88817841970E-15  0.91188000000E+02  0.91188000000E+02 0.  0.
    9900012    2    3    3    0    0 -0.26516293420E+02 -0.25400565235E+02  0.27342026623E+01  0.54367103824E+02  0.40000044788E+02 0.  0.
        -12    1    3    3    0    0  0.26516293420E+02  0.25400565235E+02 -0.27342026623E+01  0.36820896176E+02  0.00000000000E+00 0.  1.
         11    1    4    4    0    0 -0.22535445778E+02 -0.12117339062E+02  0.83033026575E+01  0.26900205531E+02  0.51100000000E-03 0. -1.
        -11    1    4    4    0    0 -0.81441434246E+01 -0.18193664992E+02 -0.18181338505E+01  0.20016046785E+02  0.51100000000E-03 0.  1.
         12    1    4    4    0    0  0.41632957823E+01  0.49104388187E+01 -0.37509661448E+01  0.74508515072E+01  0.00000000000E+00 0. -1.
</event>
<event>
 8    1  0.2509489E-006  0.9118800E+02  0.7816164E-02  0.1184000E+00
        -11   -1    0    0    0    0  0.00000000000E+00  0.00000000000E+00  0.45593999997E+02  0.45594000000E+02  0.51100000000E-03 0. -1.
         11   -1    0    0    0    0 -0.00000000000E+00 -0.00000000000E+00 -0.45593999997E+02  0.45594000000E+02  0.51100000000E-03 0.  1.
         23    2    1    2    0    0  0.00000000000E+00  0.00000000000E+00  0.00000000000E+00  0.91188000000E+02  0.91188000000E+02 0.  0.
    9900012    2    3    3    0    0 -0.20448968502E+02 -0.58026295548E+01  0.30065769774E+02  0.54367063908E+02  0.39999953792E+02 0.  0.
        -12    1    3    3    0    0  0.20448968502E+02  0.58026295548E+01 -0.30065769774E+02  0.36820936092E+02  0.00000000000E+00 0.  1.
         11    1    4    4    0    0 -0.17185790062E+02  0.34446731511E+01  0.99116591117E+01  0.20135991155E+02  0.51100000000E-03 0. -1.
        -11    1    4    4    0    0  0.36618184600E+01  0.35787046548E+01  0.18922578342E+02  0.19603061312E+02  0.51100000000E-03 0.  1.
        -12    1    4    4    0    0 -0.69249968999E+01 -0.12826007361E+02  0.12315323207E+01  0.14628011442E+02  0.00000000000E+00 0.  1.
</event>
<event>
 8    1  0.2509489E-006  0.9118800E+02  0.7816164E-02  0.1184000E+00
        -11   -1    0    0    0    0  0.00000000000E+00  0.00000000000E+00  0.45593999997E+02  0.45594000000E+02  0.51100000000E-03 0. -1.
         11   -1    0    0    0    0 -0.00000000000E+00 -0.00000000000E+00 -0.45593999997E+02  0.45594000000E+02  0.51100000000E-03 0.  1.
         23    2    1    2    0    0  0.00000000000E+00  0.00000000000E+00  0.35527136788E-14  0.91188000000E+02  0.91188000000E+02 0.  0.
    9900012    2    3    3    0    0  0.31701229250E+02 -0.76509543547E+01 -0.17096125965E+02  0.54367047249E+02  0.39999915812E+02 0.  0.
         12    1    3    3    0    0 -0.31701229250E+02  0.76509543547E+01  0.17096125965E+02  0.36820952751E+02  0.00000000000E+00 0. -1.
         11    1    4    4    0    0  0.13303761970E+02 -0.17741781552E+02 -0.12017872676E+02  0.25222810294E+02  0.51100000000E-03 0. -1.
        -11    1    4    4    0    0  0.78172457941E+01  0.96125773240E+01  0.60444331673E+01  0.13785722585E+02  0.51100000000E-03 0.  1.
        -12    1    4    4    0    0  0.10580221486E+02  0.47824987356E+00 -0.11122686457E+02  0.15358514370E+02  0.00000000000E+00 0.  1.
</event>
<event>
 8    1  0.2509489E-006  0.9118800E+02  0.7816164E-02  0.1184000E+00
        -11   -1    0    0    0    0  0.00000000000E+00  0.00000000000E+00  0.45593999997E+02  0.45594000000E+02  0.51100000000E-03 0.  1.
         11   -1    0    0    0    0 -0.00000000000E+00 -0.00000000000E+00 -0.45593999997E+02  0.45594000000E+02  0.51100000000E-03 0. -1.
         23    2    1    2    0    0  0.17763568394E-14  0.00000000000E+00  0.35527136788E-14  0.91188000000E+02  0.91188000000E+02 0.  0.
    9900012    2    3    3    0    0  0.56724079174E+01  0.21348334187E+02 -0.29459352362E+02  0.54367068103E+02  0.39999963355E+02 0.  0.
        -12    1    3    3    0    0 -0.56724079174E+01 -0.21348334187E+02  0.29459352362E+02  0.36820931897E+02  0.00000000000E+00 0.  1.
         11    1    4    4    0    0  0.18410023662E+01  0.18869887411E+02 -0.11865794624E+02  0.22366470954E+02  0.51100000000E-03 0. -1.
        -11    1    4    4    0    0  0.11228706814E+02  0.59582685898E+01 -0.12320916141E+00  0.12712198946E+02  0.51100000000E-03 0.  1.
        -12    1    4    4    0    0 -0.73973012624E+01 -0.34798218139E+01 -0.17470348577E+02  0.19288398202E+02  0.00000000000E+00 0.  1.
</event>
<event>
 8    1  0.2509489E-006  0.9118800E+02  0.7816164E-02  0.1184000E+00
        -11   -1    0    0    0    0  0.00000000000E+00  0.00000000000E+00  0.45593999997E+02  0.45594000000E+02  0.51100000000E-03 0. -1.
         11   -1    0    0    0    0 -0.00000000000E+00 -0.00000000000E+00 -0.45593999997E+02  0.45594000000E+02  0.51100000000E-03 0.  1.
         23    2    1    2    0    0  0.00000000000E+00  0.00000000000E+00 -0.17763568394E-14  0.91188000000E+02  0.91188000000E+02 0.  0.
    9900012    2    3    3    0    0  0.32027486714E+02 -0.13316021611E+02  0.12357347403E+02  0.54367076986E+02  0.39999983604E+02 0.  0.
        -12    1    3    3    0    0 -0.32027486714E+02  0.13316021611E+02 -0.12357347403E+02  0.36820923014E+02  0.00000000000E+00 0.  1.
         11    1    4    4    0    0  0.14744938076E+02 -0.10152585002E+02  0.61420421932E+01  0.18926512189E+02  0.51100000000E-03 0. -1.
        -11    1    4    4    0    0  0.34984005187E+01  0.57128507320E+01 -0.10224082305E+02  0.12223229071E+02  0.51100000000E-03 0.  1.
        -12    1    4    4    0    0  0.13784148120E+02 -0.88762873409E+01  0.16439387515E+02  0.23217335726E+02  0.00000000000E+00 0.  1.
</event>
<event>
 8    1  0.2509489E-006  0.9118800E+02  0.7816164E-02  0.1184000E+00
        -11   -1    0    0    0    0  0.00000000000E+00  0.00000000000E+00  0.45593999997E+02  0.45594000000E+02  0.51100000000E-03 0.  1.
         11   -1    0    0    0    0 -0.00000000000E+00 -0.00000000000E+00 -0.45593999997E+02  0.45594000000E+02  0.51100000000E-03 0. -1.
         23    2    1    2    0    0  0.00000000000E+00  0.17763568394E-14 -0.35527136788E-14  0.91188000000E+02  0.91188000000E+02 0.  0.
    9900012    2    3    3    0    0  0.31913278498E+02  0.13436954198E+02 -0.12520806997E+02  0.54367086235E+02  0.40000004690E+02 0.  0.
         12    1    3    3    0    0 -0.31913278498E+02 -0.13436954198E+02  0.12520806997E+02  0.36820913765E+02  0.00000000000E+00 0. -1.
         11    1    4    4    0    0  0.14485856471E+02 -0.44671696400E+01  0.10052173377E+02  0.18189058033E+02  0.51100000000E-03 0. -1.
        -11    1    4    4    0    0  0.81050605211E+01  0.69735848853E+00 -0.35159597626E+01  0.88622958778E+01  0.51100000000E-03 0.  1.
         12    1    4    4    0    0  0.93223615065E+01  0.17206765349E+02 -0.19057020611E+02  0.27315732324E+02  0.00000000000E+00 0. -1.
</event>
<event>
 8    1  0.2509489E-006  0.9118800E+02  0.7816164E-02  0.1184000E+00
        -11   -1    0    0    0    0  0.00000000000E+00  0.00000000000E+00  0.45593999997E+02  0.45594000000E+02  0.51100000000E-03 0.  1.
         11   -1    0    0    0    0 -0.00000000000E+00 -0.00000000000E+00 -0.45593999997E+02  0.45594000000E+02  0.51100000000E-03 0. -1.
         23    2    1    2    0    0 -0.17763568394E-14  0.35527136788E-14  0.35527136788E-14  0.91188000000E+02  0.91188000000E+02 0.  0.
    9900012    2    3    3    0    0  0.13716951061E+02 -0.22088448527E+02 -0.26071531339E+02  0.54367094917E+02  0.40000024483E+02 0.  0.
        -12    1    3    3    0    0 -0.13716951061E+02  0.22088448527E+02  0.26071531339E+02  0.36820905083E+02  0.00000000000E+00 0.  1.
         11    1    4    4    0    0  0.22667710502E+02 -0.57556324909E+00 -0.61466602556E+01  0.23493356614E+02  0.51100000000E-03 0. -1.
        -11    1    4    4    0    0 -0.62793928877E+01 -0.13424116076E+02 -0.14735318983E+02  0.20898978282E+02  0.51100000000E-03 0.  1.
         12    1    4    4    0    0 -0.26713665528E+01 -0.80887692017E+01 -0.51895521009E+01  0.99747600205E+01  0.00000000000E+00 0. -1.
</event>
<event>
 8    1  0.2509489E-006  0.9118800E+02  0.7816164E-02  0.1184000E+00
        -11   -1    0    0    0    0  0.00000000000E+00  0.00000000000E+00  0.45593999997E+02  0.45594000000E+02  0.51100000000E-03 0.  1.
         11   -1    0    0    0    0 -0.00000000000E+00 -0.00000000000E+00 -0.45593999997E+02  0.45594000000E+02  0.51100000000E-03 0. -1.
         23    2    1    2    0    0  0.00000000000E+00  0.00000000000E+00  0.00000000000E+00  0.91188000000E+02  0.91188000000E+02 0.  0.
    9900012    2    3    3    0    0 -0.32615944576E+02 -0.28151596560E+01  0.16853951983E+02  0.54367073044E+02  0.39999974618E+02 0.  0.
         12    1    3    3    0    0  0.32615944576E+02  0.28151596560E+01 -0.16853951983E+02  0.36820926956E+02  0.00000000000E+00 0. -1.
         11    1    4    4    0    0 -0.22606655174E+02 -0.12246185262E+02 -0.34285418681E+01  0.25938095752E+02  0.51100000000E-03 0. -1.
        -11    1    4    4    0    0 -0.85694017960E+01 -0.13227318098E+01  0.11871203989E+02  0.14700671787E+02  0.51100000000E-03 0.  1.
        -12    1    4    4    0    0 -0.14398876056E+01  0.10753757416E+02  0.84112898628E+01  0.13728305505E+02  0.00000000000E+00 0.  1.
</event>
<event>
 8    1  0.2509489E-006  0.9118800E+02  0.7816164E-02  0.1184000E+00
        -11   -1    0    0    0    0  0.00000000000E+00  0.00000000000E+00  0.45593999997E+02  0.45594000000E+02  0.51100000000E-03 0.  1.
         11   -1    0    0    0    0 -0.00000000000E+00 -0.00000000000E+00 -0.45593999997E+02  0.45594000000E+02  0.51100000000E-03 0. -1.
         23    2    1    2    0    0  0.71054273576E-14 -0.44408920985E-15 -0.35527136788E-14  0.91188000000E+02  0.91188000000E+02 0.  0.
    9900012    2    3    3    0    0 -0.34593823413E+02  0.30792234822E+01  0.12229611743E+02  0.54367114093E+02  0.40000068198E+02 0.  0.
         12    1    3    3    0    0  0.34593823413E+02 -0.30792234822E+01 -0.12229611743E+02  0.36820885907E+02  0.00000000000E+00 0. -1.
         11    1    4    4    0    0  0.12931828059E+01 -0.92484646763E+00  0.16810927042E+02  0.16885938855E+02  0.51100000000E-03 0. -1.
        -11    1    4    4    0    0 -0.88015443918E+01  0.46187429332E+01  0.33887407040E+00  0.99455922830E+01  0.51100000000E-03 0.  1.
        -12    1    4    4    0    0 -0.27085461827E+02 -0.61467298340E+00 -0.49201893691E+01  0.27535582955E+02  0.00000000000E+00 0.  1.
</event>
<event>
 8    1  0.2509489E-006  0.9118800E+02  0.7816164E-02  0.1184000E+00
        -11   -1    0    0    0    0  0.00000000000E+00  0.00000000000E+00  0.45593999997E+02  0.45594000000E+02  0.51100000000E-03 0.  1.
         11   -1    0    0    0    0 -0.00000000000E+00 -0.00000000000E+00 -0.45593999997E+02  0.45594000000E+02  0.51100000000E-03 0. -1.
         23    2    1    2    0    0 -0.22204460493E-15 -0.17763568394E-14  0.00000000000E+00  0.91188000000E+02  0.91188000000E+02 0.  0.
    9900012    2    3    3    0    0  0.12000358797E+01 -0.95907187085E+01  0.35529668703E+02  0.54367091136E+02  0.40000015862E+02 0.  0.
         12    1    3    3    0    0 -0.12000358797E+01  0.95907187085E+01 -0.35529668703E+02  0.36820908864E+02  0.00000000000E+00 0. -1.
         11    1    4    4    0    0 -0.81494803733E+01 -0.12064148138E+02  0.16862589972E+02  0.22277895805E+02  0.51100000000E-03 0.  1.
        -11    1    4    4    0    0  0.89090896131E+01 -0.37356937310E+01 -0.25387696606E+01  0.99886253827E+01  0.51100000000E-03 0. -1.
        -12    1    4    4    0    0  0.44042663996E+00  0.62091231607E+01  0.21205848391E+02  0.22100569948E+02  0.00000000000E+00 0.  1.
</event>
<event>
 8    1  0.2509489E-006  0.9118800E+02  0.7816164E-02  0.1184000E+00
        -11   -1    0    0    0    0  0.00000000000E+00  0.00000000000E+00  0.45593999997E+02  0.45594000000E+02  0.51100000000E-03 0.  1.
         11   -1    0    0    0    0 -0.00000000000E+00 -0.00000000000E+00 -0.45593999997E+02  0.45594000000E+02  0.51100000000E-03 0. -1.
         23    2    1    2    0    0  0.00000000000E+00  0.35527136788E-14 -0.17763568394E-14  0.91188000000E+02  0.91188000000E+02 0.  0.
    9900012    2    3    3    0    0 -0.24798650218E+02 -0.22160041241E+02  0.15803167048E+02  0.54367074303E+02  0.39999977488E+02 0.  0.
         12    1    3    3    0    0  0.24798650218E+02  0.22160041241E+02 -0.15803167048E+02  0.36820925697E+02  0.00000000000E+00 0. -1.
         11    1    4    4    0    0 -0.16225709586E+01 -0.32650927692E+01  0.31933698626E+01  0.48467699190E+01  0.51100000000E-03 0. -1.
        -11    1    4    4    0    0 -0.13030639225E+02 -0.29383330303E+02  0.35362520115E+01  0.32337018058E+02  0.51100000000E-03 0.  1.
         12    1    4    4    0    0 -0.10145440035E+02  0.10488381832E+02  0.90735451736E+01  0.17183286326E+02  0.00000000000E+00 0. -1.
</event>
<event>
 8    1  0.2509489E-006  0.9118800E+02  0.7816164E-02  0.1184000E+00
        -11   -1    0    0    0    0  0.00000000000E+00  0.00000000000E+00  0.45593999997E+02  0.45594000000E+02  0.51100000000E-03 0. -1.
         11   -1    0    0    0    0 -0.00000000000E+00 -0.00000000000E+00 -0.45593999997E+02  0.45594000000E+02  0.51100000000E-03 0.  1.
         23    2    1    2    0    0 -0.44408920985E-15 -0.88817841970E-15  0.00000000000E+00  0.91188000000E+02  0.91188000000E+02 0.  0.
    9900012    2    3    3    0    0 -0.26137513503E+01  0.79216642151E+01 -0.35863565482E+02  0.54367084896E+02  0.40000001637E+02 0.  0.
         12    1    3    3    0    0  0.26137513503E+01 -0.79216642151E+01  0.35863565482E+02  0.36820915104E+02  0.00000000000E+00 0. -1.
         11    1    4    4    0    0  0.25372961677E+01  0.12828232360E+02 -0.76582282447E+01  0.15154203293E+02  0.51100000000E-03 0. -1.
        -11    1    4    4    0    0 -0.96399100092E+01  0.77814602181E+01 -0.73895762154E+01  0.14425145580E+02  0.51100000000E-03 0.  1.
         12    1    4    4    0    0  0.44888624912E+01 -0.12688028363E+02 -0.20815761022E+02  0.24787736022E+02  0.00000000000E+00 0. -1.
</event>
<event>
 8    1  0.2509489E-006  0.9118800E+02  0.7816164E-02  0.1184000E+00
        -11   -1    0    0    0    0  0.00000000000E+00  0.00000000000E+00  0.45593999997E+02  0.45594000000E+02  0.51100000000E-03 0. -1.
         11   -1    0    0    0    0 -0.00000000000E+00 -0.00000000000E+00 -0.45593999997E+02  0.45594000000E+02  0.51100000000E-03 0.  1.
         23    2    1    2    0    0  0.88817841970E-15  0.88817841970E-15  0.00000000000E+00  0.91188000000E+02  0.91188000000E+02 0.  0.
    9900012    2    3    3    0    0 -0.55813790004E+01 -0.53162707790E+01  0.36005060624E+02  0.54367096738E+02  0.40000028633E+02 0.  0.
        -12    1    3    3    0    0  0.55813790004E+01  0.53162707790E+01 -0.36005060624E+02  0.36820903262E+02  0.00000000000E+00 0.  1.
         11    1    4    4    0    0  0.73205286587E+01  0.51101694473E+01  0.98537287380E+01  0.13296613927E+02  0.51100000000E-03 0. -1.
        -11    1    4    4    0    0 -0.26961320531E+01  0.54783903144E+01  0.20434213275E+02  0.21326953859E+02  0.51100000000E-03 0.  1.
        -12    1    4    4    0    0 -0.10205775606E+02 -0.15904830541E+02  0.57171186107E+01  0.19743528952E+02  0.00000000000E+00 0.  1.
</event>
<event>
 8    1  0.2509489E-006  0.9118800E+02  0.7816164E-02  0.1184000E+00
        -11   -1    0    0    0    0  0.00000000000E+00  0.00000000000E+00  0.45593999997E+02  0.45594000000E+02  0.51100000000E-03 0. -1.
         11   -1    0    0    0    0 -0.00000000000E+00 -0.00000000000E+00 -0.45593999997E+02  0.45594000000E+02  0.51100000000E-03 0.  1.
         23    2    1    2    0    0  0.00000000000E+00 -0.35527136788E-14  0.00000000000E+00  0.91188000000E+02  0.91188000000E+02 0.  0.
    9900012    2    3    3    0    0 -0.23952503799E+02 -0.27816583349E+02  0.28802740274E+01  0.54367072175E+02  0.39999972636E+02 0.  0.
        -12    1    3    3    0    0  0.23952503799E+02  0.27816583349E+02 -0.28802740274E+01  0.36820927825E+02  0.00000000000E+00 0.  1.
         11    1    4    4    0    0 -0.64695035641E+01 -0.25065624233E+02 -0.14424065512E+01  0.25927216038E+02  0.51100000000E-03 0. -1.
        -11    1    4    4    0    0 -0.19943736166E+02 -0.79426615240E+01  0.37764025897E+00  0.21470470343E+02  0.51100000000E-03 0.  1.
        -12    1    4    4    0    0  0.24607359312E+01  0.51917024077E+01  0.39450403196E+01  0.69693857934E+01  0.00000000000E+00 0.  1.
</event>
<event>
 8    1  0.2509489E-006  0.9118800E+02  0.7816164E-02  0.1184000E+00
        -11   -1    0    0    0    0  0.00000000000E+00  0.00000000000E+00  0.45593999997E+02  0.45594000000E+02  0.51100000000E-03 0. -1.
         11   -1    0    0    0    0 -0.00000000000E+00 -0.00000000000E+00 -0.45593999997E+02  0.45594000000E+02  0.51100000000E-03 0.  1.
         23    2    1    2    0    0  0.00000000000E+00  0.00000000000E+00  0.00000000000E+00  0.91188000000E+02  0.91188000000E+02 0.  0.
    9900012    2    3    3    0    0  0.28366184560E+02 -0.12063668549E+01 -0.23445366391E+02  0.54367069095E+02  0.39999965617E+02 0.  0.
         12    1    3    3    0    0 -0.28366184560E+02  0.12063668549E+01  0.23445366391E+02  0.36820930905E+02  0.00000000000E+00 0. -1.
         11    1    4    4    0    0  0.16752524898E+01  0.84259989817E+00  0.29704878982E+01  0.35128683590E+01  0.51100000000E-03 0. -1.
        -11    1    4    4    0    0  0.10586712787E+02 -0.13109480397E+01 -0.32048605110E+02  0.33777361681E+02  0.51100000000E-03 0.  1.
        -12    1    4    4    0    0  0.16104219283E+02 -0.73801871336E+00  0.56327508200E+01  0.17076839055E+02  0.00000000000E+00 0.  1.
</event>
<event>
 8    1  0.2509489E-006  0.9118800E+02  0.7816164E-02  0.1184000E+00
        -11   -1    0    0    0    0  0.00000000000E+00  0.00000000000E+00  0.45593999997E+02  0.45594000000E+02  0.51100000000E-03 0. -1.
         11   -1    0    0    0    0 -0.00000000000E+00 -0.00000000000E+00 -0.45593999997E+02  0.45594000000E+02  0.51100000000E-03 0.  1.
         23    2    1    2    0    0 -0.35527136788E-14 -0.17763568394E-14 -0.35527136788E-14  0.91188000000E+02  0.91188000000E+02 0.  0.
    9900012    2    3    3    0    0 -0.23187341989E+02 -0.99260586442E+01 -0.26825361128E+02  0.54367089251E+02  0.40000011565E+02 0.  0.
         12    1    3    3    0    0  0.23187341989E+02  0.99260586442E+01  0.26825361128E+02  0.36820910749E+02  0.00000000000E+00 0. -1.
         11    1    4    4    0    0 -0.26549110317E+02 -0.10873004449E+02 -0.91230314853E+01  0.30104936275E+02  0.51100000000E-03 0. -1.
        -11    1    4    4    0    0  0.69701405472E+01  0.45368604470E+01 -0.32317007432E+01  0.89224353133E+01  0.51100000000E-03 0.  1.
        -12    1    4    4    0    0 -0.36083722189E+01 -0.35899146427E+01 -0.14470628900E+02  0.15339717663E+02  0.00000000000E+00 0.  1.
</event>
<event>
 8    1  0.2509489E-006  0.9118800E+02  0.7816164E-02  0.1184000E+00
        -11   -1    0    0    0    0  0.00000000000E+00  0.00000000000E+00  0.45593999997E+02  0.45594000000E+02  0.51100000000E-03 0.  1.
         11   -1    0    0    0    0 -0.00000000000E+00 -0.00000000000E+00 -0.45593999997E+02  0.45594000000E+02  0.51100000000E-03 0. -1.
         23    2    1    2    0    0 -0.17763568394E-14 -0.17763568394E-14 -0.35527136788E-14  0.91188000000E+02  0.91188000000E+02 0.  0.
    9900012    2    3    3    0    0 -0.14544898478E+02  0.13919318427E+02  0.30829827969E+02  0.54367084886E+02  0.40000001615E+02 0.  0.
         12    1    3    3    0    0  0.14544898478E+02 -0.13919318427E+02 -0.30829827969E+02  0.36820915114E+02  0.00000000000E+00 0. -1.
         11    1    4    4    0    0 -0.84023610300E+01  0.79842940217E+01  0.30080276760E+02  0.32236185757E+02  0.51100000000E-03 0.  1.
        -11    1    4    4    0    0 -0.23223659050E+01 -0.76555686291E+01  0.17841487229E+00  0.80020588950E+01  0.51100000000E-03 0. -1.
         12    1    4    4    0    0 -0.38201715432E+01  0.13590593035E+02  0.57113633639E+00  0.14128840234E+02  0.00000000000E+00 0. -1.
</event>
<event>
 8    1  0.2509489E-006  0.9118800E+02  0.7816164E-02  0.1184000E+00
        -11   -1    0    0    0    0  0.00000000000E+00  0.00000000000E+00  0.45593999997E+02  0.45594000000E+02  0.51100000000E-03 0.  1.
         11   -1    0    0    0    0 -0.00000000000E+00 -0.00000000000E+00 -0.45593999997E+02  0.45594000000E+02  0.51100000000E-03 0. -1.
         23    2    1    2    0    0  0.35527136788E-14 -0.17763568394E-14  0.71054273576E-14  0.91188000000E+02  0.91188000000E+02 0.  0.
    9900012    2    3    3    0    0  0.66911622336E+01 -0.14542484981E+02  0.33159066338E+02  0.54367092870E+02  0.40000019815E+02 0.  0.
         12    1    3    3    0    0 -0.66911622336E+01  0.14542484981E+02 -0.33159066338E+02  0.36820907130E+02  0.00000000000E+00 0. -1.
         11    1    4    4    0    0 -0.55118316457E+01 -0.27450578990E+01  0.49611350063E+01  0.79074959229E+01  0.51100000000E-03 0.  1.
        -11    1    4    4    0    0  0.14862851762E+02  0.58082761222E+01  0.22845943550E+02  0.27867141420E+02  0.51100000000E-03 0. -1.
         12    1    4    4    0    0 -0.26598578823E+01 -0.17605703205E+02  0.53519877820E+01  0.18592455526E+02  0.00000000000E+00 0. -1.
</event>
<event>
 8    1  0.2509489E-006  0.9118800E+02  0.7816164E-02  0.1184000E+00
        -11   -1    0    0    0    0  0.00000000000E+00  0.00000000000E+00  0.45593999997E+02  0.45594000000E+02  0.51100000000E-03 0.  1.
         11   -1    0    0    0    0 -0.00000000000E+00 -0.00000000000E+00 -0.45593999997E+02  0.45594000000E+02  0.51100000000E-03 0. -1.
         23    2    1    2    0    0 -0.17763568394E-14  0.00000000000E+00 -0.71054273576E-14  0.91188000000E+02  0.91188000000E+02 0.  0.
    9900012    2    3    3    0    0 -0.32508031594E+01  0.32891369197E+02 -0.16228637185E+02  0.54367101672E+02  0.40000039881E+02 0.  0.
        -12    1    3    3    0    0  0.32508031594E+01 -0.32891369197E+02  0.16228637185E+02  0.36820898328E+02  0.00000000000E+00 0.  1.
         11    1    4    4    0    0  0.79108366278E+01  0.26480894756E+02  0.59880501577E+01  0.28278540772E+02  0.51100000000E-03 0. -1.
        -11    1    4    4    0    0 -0.92515652867E+01  0.29329782638E+01 -0.15517041061E+02  0.18302250826E+02  0.51100000000E-03 0.  1.
         12    1    4    4    0    0 -0.19100745005E+01  0.34774961769E+01 -0.66996462815E+01  0.77863100731E+01  0.00000000000E+00 0. -1.
</event>
<event>
 8    1  0.2509489E-006  0.9118800E+02  0.7816164E-02  0.1184000E+00
        -11   -1    0    0    0    0  0.00000000000E+00  0.00000000000E+00  0.45593999997E+02  0.45594000000E+02  0.51100000000E-03 0.  1.
         11   -1    0    0    0    0 -0.00000000000E+00 -0.00000000000E+00 -0.45593999997E+02  0.45594000000E+02  0.51100000000E-03 0. -1.
         23    2    1    2    0    0  0.00000000000E+00  0.00000000000E+00 -0.35527136788E-14  0.91188000000E+02  0.91188000000E+02 0.  0.
    9900012    2    3    3    0    0 -0.19658612092E+02  0.20755312988E+02  0.23206413974E+02  0.54367059000E+02  0.39999942603E+02 0.  0.
         12    1    3    3    0    0  0.19658612092E+02 -0.20755312988E+02 -0.23206413974E+02  0.36820941000E+02  0.00000000000E+00 0. -1.
         11    1    4    4    0    0 -0.58005375908E+01 -0.60249889682E+01  0.20491668896E+02  0.22132673196E+02  0.51100000000E-03 0. -1.
        -11    1    4    4    0    0 -0.51999924738E+01  0.20761726197E+02  0.33831869700E+01  0.21668759788E+02  0.51100000000E-03 0.  1.
         12    1    4    4    0    0 -0.86580820273E+01  0.60185757586E+01 -0.66844189185E+00  0.10565626016E+02  0.00000000000E+00 0. -1.
</event>
<event>
 8    1  0.2509489E-006  0.9118800E+02  0.7816164E-02  0.1184000E+00
        -11   -1    0    0    0    0  0.00000000000E+00  0.00000000000E+00  0.45593999997E+02  0.45594000000E+02  0.51100000000E-03 0. -1.
         11   -1    0    0    0    0 -0.00000000000E+00 -0.00000000000E+00 -0.45593999997E+02  0.45594000000E+02  0.51100000000E-03 0.  1.
         23    2    1    2    0    0  0.00000000000E+00 -0.35527136788E-14  0.00000000000E+00  0.91188000000E+02  0.91188000000E+02 0.  0.
    9900012    2    3    3    0    0 -0.16393188652E+02  0.31192776428E+02 -0.10679603103E+02  0.54367083961E+02  0.39999999507E+02 0.  0.
         12    1    3    3    0    0  0.16393188652E+02 -0.31192776428E+02  0.10679603103E+02  0.36820916039E+02  0.00000000000E+00 0. -1.
         11    1    4    4    0    0 -0.12674020443E+02  0.16362653721E+02 -0.16818608425E+02  0.26668948622E+02  0.51100000000E-03 0. -1.
        -11    1    4    4    0    0 -0.79758453328E+01  0.14695364443E+02 -0.35690990308E+01  0.17096967949E+02  0.51100000000E-03 0.  1.
         12    1    4    4    0    0  0.42566771244E+01  0.13475826379E+00  0.97081043522E+01  0.10601167391E+02  0.00000000000E+00 0. -1.
</event>
<event>
 8    1  0.2509489E-006  0.9118800E+02  0.7816164E-02  0.1184000E+00
        -11   -1    0    0    0    0  0.00000000000E+00  0.00000000000E+00  0.45593999997E+02  0.45594000000E+02  0.51100000000E-03 0. -1.
         11   -1    0    0    0    0 -0.00000000000E+00 -0.00000000000E+00 -0.45593999997E+02  0.45594000000E+02  0.51100000000E-03 0.  1.
         23    2    1    2    0    0  0.00000000000E+00 -0.17763568394E-14 -0.88817841970E-15  0.91188000000E+02  0.91188000000E+02 0.  0.
    9900012    2    3    3    0    0 -0.35784880356E+02  0.80549028902E+01  0.32155466841E+01  0.54367097469E+02  0.40000030301E+02 0.  0.
        -12    1    3    3    0    0  0.35784880356E+02 -0.80549028902E+01 -0.32155466841E+01  0.36820902531E+02  0.00000000000E+00 0.  1.
         11    1    4    4    0    0 -0.22220230694E+02  0.18921190128E+01 -0.15444159469E+02  0.27126386203E+02  0.51100000000E-03 0. -1.
        -11    1    4    4    0    0  0.11985611918E+01  0.48739717352E+01  0.50535982144E+01  0.71225700825E+01  0.51100000000E-03 0.  1.
         12    1    4    4    0    0 -0.14763210854E+02  0.12888121423E+01  0.13606107939E+02  0.20118141184E+02  0.00000000000E+00 0. -1.
</event>
<event>
 8    1  0.2509489E-006  0.9118800E+02  0.7816164E-02  0.1184000E+00
        -11   -1    0    0    0    0  0.00000000000E+00  0.00000000000E+00  0.45593999997E+02  0.45594000000E+02  0.51100000000E-03 0.  1.
         11   -1    0    0    0    0 -0.00000000000E+00 -0.00000000000E+00 -0.45593999997E+02  0.45594000000E+02  0.51100000000E-03 0. -1.
         23    2    1    2    0    0  0.00000000000E+00  0.35527136788E-14  0.00000000000E+00  0.91188000000E+02  0.91188000000E+02 0.  0.
    9900012    2    3    3    0    0 -0.18326240228E+02 -0.21540478302E+02 -0.23578373261E+02  0.54367041675E+02  0.39999903106E+02 0.  0.
        -12    1    3    3    0    0  0.18326240228E+02  0.21540478302E+02  0.23578373261E+02  0.36820958325E+02  0.00000000000E+00 0.  1.
         11    1    4    4    0    0 -0.28956657311E+01 -0.11869055521E+02 -0.10843186229E+02  0.16335055765E+02  0.51100000000E-03 0. -1.
        -11    1    4    4    0    0  0.14740950556E+01  0.33499229723E+01 -0.16028495776E+02  0.16441034555E+02  0.51100000000E-03 0.  1.
         12    1    4    4    0    0 -0.16904669553E+02 -0.13021345754E+02  0.32933087442E+01  0.21590951355E+02  0.00000000000E+00 0. -1.
</event>
<event>
 8    1  0.2509489E-006  0.9118800E+02  0.7816164E-02  0.1184000E+00
        -11   -1    0    0    0    0  0.00000000000E+00  0.00000000000E+00  0.45593999997E+02  0.45594000000E+02  0.51100000000E-03 0. -1.
         11   -1    0    0    0    0 -0.00000000000E+00 -0.00000000000E+00 -0.45593999997E+02  0.45594000000E+02  0.51100000000E-03 0.  1.
         23    2    1    2    0    0 -0.44408920985E-15  0.00000000000E+00  0.00000000000E+00  0.91188000000E+02  0.91188000000E+02 0.  0.
    9900012    2    3    3    0    0 -0.38485050888E+01  0.12957414191E+02  0.34250169649E+02  0.54367086175E+02  0.40000004553E+02 0.  0.
        -12    1    3    3    0    0  0.38485050888E+01 -0.12957414191E+02 -0.34250169649E+02  0.36820913825E+02  0.00000000000E+00 0.  1.
         11    1    4    4    0    0 -0.16121984932E+02  0.85637479113E+01  0.46776433610E+01  0.18845066307E+02  0.51100000000E-03 0. -1.
        -11    1    4    4    0    0  0.86036563203E+01  0.52447702134E+01  0.61635558425E+01  0.11811855805E+02  0.51100000000E-03 0.  1.
         12    1    4    4    0    0  0.36698235232E+01 -0.85110393370E+00  0.23408970445E+02  0.23710164063E+02  0.00000000000E+00 0. -1.
</event>
<event>
 8    1  0.2509489E-006  0.9118800E+02  0.7816164E-02  0.1184000E+00
        -11   -1    0    0    0    0  0.00000000000E+00  0.00000000000E+00  0.45593999997E+02  0.45594000000E+02  0.51100000000E-03 0. -1.
         11   -1    0    0    0    0 -0.00000000000E+00 -0.00000000000E+00 -0.45593999997E+02  0.45594000000E+02  0.51100000000E-03 0.  1.
         23    2    1    2    0    0  0.35527136788E-14 -0.71054273576E-14  0.35527136788E-14  0.91188000000E+02  0.91188000000E+02 0.  0.
    9900012    2    3    3    0    0 -0.24523627607E+02 -0.24305217024E+02 -0.12791766053E+02  0.54367066221E+02  0.39999959065E+02 0.  0.
         12    1    3    3    0    0  0.24523627607E+02  0.24305217024E+02  0.12791766053E+02  0.36820933779E+02  0.00000000000E+00 0. -1.
         11    1    4    4    0    0 -0.83485051891E+01  0.12883689808E+01 -0.63488993423E+01  0.10567211394E+02  0.51100000000E-03 0.  1.
        -11    1    4    4    0    0 -0.53460295997E+01 -0.12839482167E+02 -0.18523095506E+02  0.23163277017E+02  0.51100000000E-03 0. -1.
         12    1    4    4    0    0 -0.10829092818E+02 -0.12754103838E+02  0.12080228795E+02  0.20636577810E+02  0.00000000000E+00 0. -1.
</event>
<event>
 8    1  0.2509489E-006  0.9118800E+02  0.7816164E-02  0.1184000E+00
        -11   -1    0    0    0    0  0.00000000000E+00  0.00000000000E+00  0.45593999997E+02  0.45594000000E+02  0.51100000000E-03 0. -1.
         11   -1    0    0    0    0 -0.00000000000E+00 -0.00000000000E+00 -0.45593999997E+02  0.45594000000E+02  0.51100000000E-03 0.  1.
         23    2    1    2    0    0  0.35527136788E-14  0.00000000000E+00  0.17763568394E-14  0.91188000000E+02  0.91188000000E+02 0.  0.
    9900012    2    3    3    0    0 -0.30304406843E+02  0.16122274922E+02  0.13322786087E+02  0.54367062317E+02  0.39999950164E+02 0.  0.
        -12    1    3    3    0    0  0.30304406843E+02 -0.16122274922E+02 -0.13322786087E+02  0.36820937683E+02  0.00000000000E+00 0.  1.
         11    1    4    4    0    0 -0.79969001630E+01  0.14072909848E+02 -0.61626287758E+01  0.17319792074E+02  0.51100000000E-03 0. -1.
        -11    1    4    4    0    0  0.28428456133E+01  0.41346171857E+01 -0.22936008846E+00  0.50228912754E+01  0.51100000000E-03 0.  1.
         12    1    4    4    0    0 -0.25150352293E+02 -0.20852521121E+01  0.19714774951E+02  0.32024378967E+02  0.00000000000E+00 0. -1.
</event>
<event>
 8    1  0.2509489E-006  0.9118800E+02  0.7816164E-02  0.1184000E+00
        -11   -1    0    0    0    0  0.00000000000E+00  0.00000000000E+00  0.45593999997E+02  0.45594000000E+02  0.51100000000E-03 0.  1.
         11   -1    0    0    0    0 -0.00000000000E+00 -0.00000000000E+00 -0.45593999997E+02  0.45594000000E+02  0.51100000000E-03 0. -1.
         23    2    1    2    0    0  0.10658141036E-13  0.00000000000E+00  0.35527136788E-14  0.91188000000E+02  0.91188000000E+02 0.  0.
    9900012    2    3    3    0    0  0.24762876647E+02 -0.11730494494E+02  0.24596246152E+02  0.54367083585E+02  0.39999998649E+02 0.  0.
         12    1    3    3    0    0 -0.24762876647E+02  0.11730494494E+02 -0.24596246152E+02  0.36820916415E+02  0.00000000000E+00 0. -1.
         11    1    4    4    0    0  0.53914810019E+00  0.59131210954E+01  0.53750026146E+01  0.80091407237E+01  0.51100000000E-03 0. -1.
        -11    1    4    4    0    0 -0.56333826208E+01 -0.95472575324E+01  0.33010965591E+01  0.11566432678E+02  0.51100000000E-03 0.  1.
        -12    1    4    4    0    0  0.29857111167E+02 -0.80963580566E+01  0.15920146978E+02  0.34791510183E+02  0.00000000000E+00 0.  1.
</event>
<event>
 8    1  0.2509489E-006  0.9118800E+02  0.7816164E-02  0.1184000E+00
        -11   -1    0    0    0    0  0.00000000000E+00  0.00000000000E+00  0.45593999997E+02  0.45594000000E+02  0.51100000000E-03 0.  1.
         11   -1    0    0    0    0 -0.00000000000E+00 -0.00000000000E+00 -0.45593999997E+02  0.45594000000E+02  0.51100000000E-03 0. -1.
         23    2    1    2    0    0 -0.88817841970E-15  0.00000000000E+00  0.00000000000E+00  0.91188000000E+02  0.91188000000E+02 0.  0.
    9900012    2    3    3    0    0 -0.32733800370E+01 -0.31438095498E+02 -0.18886792971E+02  0.54367084556E+02  0.40000000863E+02 0.  0.
         12    1    3    3    0    0  0.32733800370E+01  0.31438095498E+02  0.18886792971E+02  0.36820915444E+02  0.00000000000E+00 0. -1.
         11    1    4    4    0    0  0.91261161276E+01 -0.26507197771E+02 -0.17778456070E+02  0.33196250236E+02  0.51100000000E-03 0. -1.
        -11    1    4    4    0    0  0.36322737781E+01  0.23619717099E+00  0.18275866645E+01  0.40729933931E+01  0.51100000000E-03 0.  1.
        -12    1    4    4    0    0 -0.16031769943E+02 -0.51670948976E+01 -0.29359235656E+01  0.17097840927E+02  0.00000000000E+00 0.  1.
</event>
<event>
 8    1  0.2509489E-006  0.9118800E+02  0.7816164E-02  0.1184000E+00
        -11   -1    0    0    0    0  0.00000000000E+00  0.00000000000E+00  0.45593999997E+02  0.45594000000E+02  0.51100000000E-03 0. -1.
         11   -1    0    0    0    0 -0.00000000000E+00 -0.00000000000E+00 -0.45593999997E+02  0.45594000000E+02  0.51100000000E-03 0.  1.
         23    2    1    2    0    0  0.00000000000E+00  0.00000000000E+00  0.71054273576E-14  0.91188000000E+02  0.91188000000E+02 0.  0.
    9900012    2    3    3    0    0  0.16573149052E+02  0.12143809707E+02  0.30555521018E+02  0.54367065079E+02  0.39999956462E+02 0.  0.
        -12    1    3    3    0    0 -0.16573149052E+02 -0.12143809707E+02 -0.30555521018E+02  0.36820934921E+02  0.00000000000E+00 0.  1.
         11    1    4    4    0    0  0.38977214537E+01  0.85148502809E+00 -0.37452036157E+01  0.54720937188E+01  0.51100000000E-03 0. -1.
        -11    1    4    4    0    0  0.12690196191E+02  0.46318294481E+01 -0.44522042356E+00  0.13516402809E+02  0.51100000000E-03 0.  1.
         12    1    4    4    0    0 -0.14768592164E-01  0.66604952311E+01  0.34745945058E+02  0.35378568552E+02  0.00000000000E+00 0. -1.
</event>
<event>
 8    1  0.2509489E-006  0.9118800E+02  0.7816164E-02  0.1184000E+00
        -11   -1    0    0    0    0  0.00000000000E+00  0.00000000000E+00  0.45593999997E+02  0.45594000000E+02  0.51100000000E-03 0.  1.
         11   -1    0    0    0    0 -0.00000000000E+00 -0.00000000000E+00 -0.45593999997E+02  0.45594000000E+02  0.51100000000E-03 0. -1.
         23    2    1    2    0    0  0.00000000000E+00  0.00000000000E+00  0.17763568394E-14  0.91188000000E+02  0.91188000000E+02 0.  0.
    9900012    2    3    3    0    0  0.32784739570E+02 -0.11690756575E+02  0.12011109228E+02  0.54367086339E+02  0.40000004927E+02 0.  0.
         12    1    3    3    0    0 -0.32784739570E+02  0.11690756575E+02 -0.12011109228E+02  0.36820913661E+02  0.00000000000E+00 0. -1.
         11    1    4    4    0    0 -0.74353613244E+01  0.13103138905E+01 -0.11530261845E+01  0.76374727600E+01  0.51100000000E-03 0. -1.
        -11    1    4    4    0    0  0.33873094808E+02 -0.13402658663E+02  0.56146296379E+01  0.36858403077E+02  0.51100000000E-03 0.  1.
        -12    1    4    4    0    0  0.63470060859E+01  0.40158819775E+00  0.75495057749E+01  0.98712105023E+01  0.00000000000E+00 0.  1.
</event>
<event>
 8    1  0.2509489E-006  0.9118800E+02  0.7816164E-02  0.1184000E+00
        -11   -1    0    0    0    0  0.00000000000E+00  0.00000000000E+00  0.45593999997E+02  0.45594000000E+02  0.51100000000E-03 0.  1.
         11   -1    0    0    0    0 -0.00000000000E+00 -0.00000000000E+00 -0.45593999997E+02  0.45594000000E+02  0.51100000000E-03 0. -1.
         23    2    1    2    0    0 -0.17763568394E-14  0.71054273576E-14 -0.83266726847E-15  0.91188000000E+02  0.91188000000E+02 0.  0.
    9900012    2    3    3    0    0  0.12122466473E+02 -0.34766692553E+02  0.32054419377E+00  0.54367084027E+02  0.39999999657E+02 0.  0.
        -12    1    3    3    0    0 -0.12122466473E+02  0.34766692553E+02 -0.32054419377E+00  0.36820915973E+02  0.00000000000E+00 0.  1.
         11    1    4    4    0    0  0.10839854971E+02 -0.34719771909E+02 -0.10188937320E+02  0.37772734362E+02  0.51100000000E-03 0. -1.
        -11    1    4    4    0    0  0.27875988266E+01  0.48515291514E+01  0.99814472012E+01  0.11442785099E+02  0.51100000000E-03 0.  1.
        -12    1    4    4    0    0 -0.15049873245E+01 -0.48984497958E+01  0.52803431278E+00  0.51515645666E+01  0.00000000000E+00 0.  1.
</event>
<event>
 8    1  0.2509489E-006  0.9118800E+02  0.7816164E-02  0.1184000E+00
        -11   -1    0    0    0    0  0.00000000000E+00  0.00000000000E+00  0.45593999997E+02  0.45594000000E+02  0.51100000000E-03 0. -1.
         11   -1    0    0    0    0 -0.00000000000E+00 -0.00000000000E+00 -0.45593999997E+02  0.45594000000E+02  0.51100000000E-03 0.  1.
         23    2    1    2    0    0 -0.35527136788E-14 -0.88817841970E-15 -0.35527136788E-14  0.91188000000E+02  0.91188000000E+02 0.  0.
    9900012    2    3    3    0    0  0.22910148619E+02  0.76641404711E+01  0.27787891966E+02  0.54367069827E+02  0.39999967284E+02 0.  0.
        -12    1    3    3    0    0 -0.22910148619E+02 -0.76641404711E+01 -0.27787891966E+02  0.36820930173E+02  0.00000000000E+00 0.  1.
         11    1    4    4    0    0  0.69772225205E+01  0.54039430003E+01  0.31100855789E+02  0.32328740543E+02  0.51100000000E-03 0. -1.
        -11    1    4    4    0    0 -0.10596384359E+01 -0.21758242345E+01 -0.37589093154E+01  0.44706201155E+01  0.51100000000E-03 0.  1.
        -12    1    4    4    0    0  0.16992564534E+02  0.44360217053E+01  0.44594549263E+00  0.17567709168E+02  0.00000000000E+00 0.  1.
</event>
<event>
 8    1  0.2509489E-006  0.9118800E+02  0.7816164E-02  0.1184000E+00
        -11   -1    0    0    0    0  0.00000000000E+00  0.00000000000E+00  0.45593999997E+02  0.45594000000E+02  0.51100000000E-03 0.  1.
         11   -1    0    0    0    0 -0.00000000000E+00 -0.00000000000E+00 -0.45593999997E+02  0.45594000000E+02  0.51100000000E-03 0. -1.
         23    2    1    2    0    0  0.00000000000E+00  0.00000000000E+00  0.35527136788E-14  0.91188000000E+02  0.91188000000E+02 0.  0.
    9900012    2    3    3    0    0 -0.25456482793E+02 -0.52148636572E+01 -0.26087382939E+02  0.54367097407E+02  0.40000030159E+02 0.  0.
        -12    1    3    3    0    0  0.25456482793E+02  0.52148636572E+01  0.26087382939E+02  0.36820902593E+02  0.00000000000E+00 0.  1.
         11    1    4    4    0    0 -0.27490344993E+02 -0.45529774878E+01 -0.27015415349E+02  0.38810840477E+02  0.51100000000E-03 0. -1.
        -11    1    4    4    0    0 -0.42997478609E+01  0.20003394933E+01  0.55315996117E+01  0.72861364440E+01  0.51100000000E-03 0.  1.
        -12    1    4    4    0    0  0.63336100604E+01 -0.26622256628E+01 -0.46035672013E+01  0.82701204860E+01  0.00000000000E+00 0.  1.
</event>
<event>
 8    1  0.2509489E-006  0.9118800E+02  0.7816164E-02  0.1184000E+00
        -11   -1    0    0    0    0  0.00000000000E+00  0.00000000000E+00  0.45593999997E+02  0.45594000000E+02  0.51100000000E-03 0.  1.
         11   -1    0    0    0    0 -0.00000000000E+00 -0.00000000000E+00 -0.45593999997E+02  0.45594000000E+02  0.51100000000E-03 0. -1.
         23    2    1    2    0    0  0.17763568394E-14  0.00000000000E+00 -0.35527136788E-14  0.91188000000E+02  0.91188000000E+02 0.  0.
    9900012    2    3    3    0    0 -0.12243449447E+02  0.32044243962E+02  0.13380748333E+02  0.54367081334E+02  0.39999993516E+02 0.  0.
         12    1    3    3    0    0  0.12243449447E+02 -0.32044243962E+02 -0.13380748333E+02  0.36820918666E+02  0.00000000000E+00 0. -1.
         11    1    4    4    0    0 -0.77180587825E+00  0.27644312839E+02 -0.59182237971E+01  0.28281249792E+02  0.51100000000E-03 0. -1.
        -11    1    4    4    0    0 -0.86342241758E+01  0.87882382915E+01  0.13826795865E+02  0.18519266819E+02  0.51100000000E-03 0.  1.
         12    1    4    4    0    0 -0.28374193927E+01 -0.43883071677E+01  0.54721762657E+01  0.75665647219E+01  0.00000000000E+00 0. -1.
</event>
<event>
 8    1  0.2509489E-006  0.9118800E+02  0.7816164E-02  0.1184000E+00
        -11   -1    0    0    0    0  0.00000000000E+00  0.00000000000E+00  0.45593999997E+02  0.45594000000E+02  0.51100000000E-03 0. -1.
         11   -1    0    0    0    0 -0.00000000000E+00 -0.00000000000E+00 -0.45593999997E+02  0.45594000000E+02  0.51100000000E-03 0.  1.
         23    2    1    2    0    0  0.00000000000E+00 -0.35527136788E-14  0.17763568394E-14  0.91188000000E+02  0.91188000000E+02 0.  0.
    9900012    2    3    3    0    0 -0.23884481775E+02  0.26775161363E+02 -0.82704836170E+01  0.54367100569E+02  0.40000037367E+02 0.  0.
        -12    1    3    3    0    0  0.23884481775E+02 -0.26775161363E+02  0.82704836170E+01  0.36820899431E+02  0.00000000000E+00 0.  1.
         11    1    4    4    0    0  0.11595916722E+01  0.11949254705E+02 -0.39985049230E+01  0.12653749750E+02  0.51100000000E-03 0. -1.
        -11    1    4    4    0    0 -0.21514699865E+02 -0.15346871587E+01 -0.10327884026E+02  0.23914488572E+02  0.51100000000E-03 0.  1.
        -12    1    4    4    0    0 -0.35293735820E+01  0.16360593816E+02  0.60559053321E+01  0.17798862247E+02  0.00000000000E+00 0.  1.
</event>
<event>
 8    1  0.2509489E-006  0.9118800E+02  0.7816164E-02  0.1184000E+00
        -11   -1    0    0    0    0  0.00000000000E+00  0.00000000000E+00  0.45593999997E+02  0.45594000000E+02  0.51100000000E-03 0.  1.
         11   -1    0    0    0    0 -0.00000000000E+00 -0.00000000000E+00 -0.45593999997E+02  0.45594000000E+02  0.51100000000E-03 0. -1.
         23    2    1    2    0    0 -0.35527136788E-14  0.44408920985E-15  0.00000000000E+00  0.91188000000E+02  0.91188000000E+02 0.  0.
    9900012    2    3    3    0    0  0.10991927122E+02  0.36619084225E+01 -0.34950675277E+02  0.54367058439E+02  0.39999941323E+02 0.  0.
        -12    1    3    3    0    0 -0.10991927122E+02 -0.36619084225E+01  0.34950675277E+02  0.36820941561E+02  0.00000000000E+00 0.  1.
         11    1    4    4    0    0  0.47357402053E+01  0.69156998260E+01 -0.10580735798E+02  0.13498374334E+02  0.51100000000E-03 0. -1.
        -11    1    4    4    0    0 -0.98721457188E+01  0.50898359782E+01 -0.18868499503E+02  0.21894884451E+02  0.51100000000E-03 0.  1.
        -12    1    4    4    0    0  0.16128332636E+02 -0.83436273817E+01 -0.55014399764E+01  0.18973799654E+02  0.00000000000E+00 0.  1.
</event>
<event>
 8    1  0.2509489E-006  0.9118800E+02  0.7816164E-02  0.1184000E+00
        -11   -1    0    0    0    0  0.00000000000E+00  0.00000000000E+00  0.45593999997E+02  0.45594000000E+02  0.51100000000E-03 0. -1.
         11   -1    0    0    0    0 -0.00000000000E+00 -0.00000000000E+00 -0.45593999997E+02  0.45594000000E+02  0.51100000000E-03 0.  1.
         23    2    1    2    0    0 -0.88817841970E-15  0.35527136788E-14  0.00000000000E+00  0.91188000000E+02  0.91188000000E+02 0.  0.
    9900012    2    3    3    0    0 -0.56933114033E+01 -0.19399393605E+02  0.30773801875E+02  0.54367120749E+02  0.40000083371E+02 0.  0.
        -12    1    3    3    0    0  0.56933114033E+01  0.19399393605E+02 -0.30773801875E+02  0.36820879251E+02  0.00000000000E+00 0.  1.
         11    1    4    4    0    0 -0.73360015966E+01 -0.15820652141E+02  0.92420538014E+01  0.19736400693E+02  0.51100000000E-03 0. -1.
        -11    1    4    4    0    0 -0.76318458938E+01 -0.11384118118E+02  0.16643337109E+02  0.21560238576E+02  0.51100000000E-03 0.  1.
        -12    1    4    4    0    0  0.92745360871E+01  0.78053766541E+01  0.48884109650E+01  0.13070481480E+02  0.00000000000E+00 0.  1.
</event>
<event>
 8    1  0.2509489E-006  0.9118800E+02  0.7816164E-02  0.1184000E+00
        -11   -1    0    0    0    0  0.00000000000E+00  0.00000000000E+00  0.45593999997E+02  0.45594000000E+02  0.51100000000E-03 0.  1.
         11   -1    0    0    0    0 -0.00000000000E+00 -0.00000000000E+00 -0.45593999997E+02  0.45594000000E+02  0.51100000000E-03 0. -1.
         23    2    1    2    0    0  0.17763568394E-14  0.00000000000E+00 -0.71054273576E-14  0.91188000000E+02  0.91188000000E+02 0.  0.
    9900012    2    3    3    0    0 -0.12256732479E+02 -0.24223941101E+02  0.24874721961E+02  0.54367100960E+02  0.40000038258E+02 0.  0.
         12    1    3    3    0    0  0.12256732479E+02  0.24223941101E+02 -0.24874721961E+02  0.36820899040E+02  0.00000000000E+00 0. -1.
         11    1    4    4    0    0  0.10456005162E+02 -0.12351641327E+02  0.78792103947E+01  0.17999251210E+02  0.51100000000E-03 0. -1.
        -11    1    4    4    0    0  0.14365722315E+01 -0.15349676327E+01  0.85050133568E+01  0.87609998214E+01  0.51100000000E-03 0.  1.
         12    1    4    4    0    0 -0.24149309873E+02 -0.10337332141E+02  0.84904982093E+01  0.27606849928E+02  0.00000000000E+00 0. -1.
</event>
<event>
 8    1  0.2509489E-006  0.9118800E+02  0.7816164E-02  0.1184000E+00
        -11   -1    0    0    0    0  0.00000000000E+00  0.00000000000E+00  0.45593999997E+02  0.45594000000E+02  0.51100000000E-03 0. -1.
         11   -1    0    0    0    0 -0.00000000000E+00 -0.00000000000E+00 -0.45593999997E+02  0.45594000000E+02  0.51100000000E-03 0.  1.
         23    2    1    2    0    0  0.00000000000E+00 -0.35527136788E-14  0.00000000000E+00  0.91188000000E+02  0.91188000000E+02 0.  0.
    9900012    2    3    3    0    0  0.28780786482E+01 -0.27027227956E+02  0.24840018108E+02  0.54367069983E+02  0.39999967641E+02 0.  0.
        -12    1    3    3    0    0 -0.28780786482E+01  0.27027227956E+02 -0.24840018108E+02  0.36820930017E+02  0.00000000000E+00 0.  1.
         11    1    4    4    0    0  0.20375128000E+01 -0.21613627154E+02  0.35335210296E+01  0.21995138288E+02  0.51100000000E-03 0.  1.
        -11    1    4    4    0    0  0.11808866951E+02 -0.29228603919E+01  0.15530825463E+02  0.19728126909E+02  0.51100000000E-03 0. -1.
         12    1    4    4    0    0 -0.10968301102E+02 -0.24907404095E+01  0.57756716160E+01  0.12643804786E+02  0.00000000000E+00 0. -1.
</event>
<event>
 8    1  0.2509489E-006  0.9118800E+02  0.7816164E-02  0.1184000E+00
        -11   -1    0    0    0    0  0.00000000000E+00  0.00000000000E+00  0.45593999997E+02  0.45594000000E+02  0.51100000000E-03 0.  1.
         11   -1    0    0    0    0 -0.00000000000E+00 -0.00000000000E+00 -0.45593999997E+02  0.45594000000E+02  0.51100000000E-03 0. -1.
         23    2    1    2    0    0  0.00000000000E+00  0.88817841970E-15  0.35527136788E-14  0.91188000000E+02  0.91188000000E+02 0.  0.
    9900012    2    3    3    0    0 -0.22488147879E+02 -0.70741654323E+01 -0.28284618301E+02  0.54367078718E+02  0.39999987554E+02 0.  0.
        -12    1    3    3    0    0  0.22488147879E+02  0.70741654323E+01  0.28284618301E+02  0.36820921282E+02  0.00000000000E+00 0.  1.
         11    1    4    4    0    0 -0.18960468964E+01 -0.36669840241E+01 -0.10295144028E+02  0.11091968107E+02  0.51100000000E-03 0. -1.
        -11    1    4    4    0    0 -0.64008702167E+01 -0.39975189228E+01 -0.25927818572E+02  0.27003760354E+02  0.51100000000E-03 0.  1.
        -12    1    4    4    0    0 -0.14191230766E+02  0.59033751456E+00  0.79383442984E+01  0.16271350258E+02  0.00000000000E+00 0.  1.
</event>
<event>
 8    1  0.2509489E-006  0.9118800E+02  0.7816164E-02  0.1184000E+00
        -11   -1    0    0    0    0  0.00000000000E+00  0.00000000000E+00  0.45593999997E+02  0.45594000000E+02  0.51100000000E-03 0.  1.
         11   -1    0    0    0    0 -0.00000000000E+00 -0.00000000000E+00 -0.45593999997E+02  0.45594000000E+02  0.51100000000E-03 0. -1.
         23    2    1    2    0    0  0.00000000000E+00  0.00000000000E+00  0.00000000000E+00  0.91188000000E+02  0.91188000000E+02 0.  0.
    9900012    2    3    3    0    0 -0.22208965042E+02  0.28341319634E+02  0.77013362439E+01  0.54367094161E+02  0.40000022760E+02 0.  0.
         12    1    3    3    0    0  0.22208965042E+02 -0.28341319634E+02 -0.77013362439E+01  0.36820905839E+02  0.00000000000E+00 0. -1.
         11    1    4    4    0    0 -0.65386756926E+01  0.73763111031E+01 -0.67824498159E+01  0.11965194151E+02  0.51100000000E-03 0. -1.
        -11    1    4    4    0    0  0.31307580094E+01  0.18114490792E+02 -0.18776455748E+00  0.18384006042E+02  0.51100000000E-03 0.  1.
        -12    1    4    4    0    0 -0.18801047359E+02  0.28505177389E+01  0.14671550617E+02  0.24017893968E+02  0.00000000000E+00 0.  1.
</event>
<event>
 8    1  0.2509489E-006  0.9118800E+02  0.7816164E-02  0.1184000E+00
        -11   -1    0    0    0    0  0.00000000000E+00  0.00000000000E+00  0.45593999997E+02  0.45594000000E+02  0.51100000000E-03 0.  1.
         11   -1    0    0    0    0 -0.00000000000E+00 -0.00000000000E+00 -0.45593999997E+02  0.45594000000E+02  0.51100000000E-03 0. -1.
         23    2    1    2    0    0  0.17763568394E-14  0.00000000000E+00 -0.35527136788E-14  0.91188000000E+02  0.91188000000E+02 0.  0.
    9900012    2    3    3    0    0  0.10923540245E+02 -0.17360053900E+02  0.30579148593E+02  0.54367088393E+02  0.40000009610E+02 0.  0.
         12    1    3    3    0    0 -0.10923540245E+02  0.17360053900E+02 -0.30579148593E+02  0.36820911607E+02  0.00000000000E+00 0. -1.
         11    1    4    4    0    0  0.11695836344E+02 -0.84813879648E+01  0.40403205789E+01  0.15001690579E+02  0.51100000000E-03 0. -1.
        -11    1    4    4    0    0 -0.29351680417E+01 -0.18716920465E+02  0.16152241221E+02  0.24896449945E+02  0.51100000000E-03 0.  1.
         12    1    4    4    0    0  0.21628719422E+01  0.98382545298E+01  0.10386586792E+02  0.14468947869E+02  0.00000000000E+00 0. -1.
</event>
<event>
 8    1  0.2509489E-006  0.9118800E+02  0.7816164E-02  0.1184000E+00
        -11   -1    0    0    0    0  0.00000000000E+00  0.00000000000E+00  0.45593999997E+02  0.45594000000E+02  0.51100000000E-03 0. -1.
         11   -1    0    0    0    0 -0.00000000000E+00 -0.00000000000E+00 -0.45593999997E+02  0.45594000000E+02  0.51100000000E-03 0.  1.
         23    2    1    2    0    0 -0.39968028887E-14  0.00000000000E+00  0.00000000000E+00  0.91188000000E+02  0.91188000000E+02 0.  0.
    9900012    2    3    3    0    0  0.30104982913E+01  0.14658022197E+02  0.33643122350E+02  0.54367076652E+02  0.39999982844E+02 0.  0.
        -12    1    3    3    0    0 -0.30104982913E+01 -0.14658022197E+02 -0.33643122350E+02  0.36820923348E+02  0.00000000000E+00 0.  1.
         11    1    4    4    0    0  0.11295324994E+01  0.60134596409E+01  0.21842542306E+02  0.22683346208E+02  0.51100000000E-03 0. -1.
        -11    1    4    4    0    0 -0.13088409942E+02  0.48414148221E+01  0.58654090967E+01  0.15137661524E+02  0.51100000000E-03 0.  1.
        -12    1    4    4    0    0  0.14969375734E+02  0.38031477344E+01  0.59351709472E+01  0.16546068920E+02  0.00000000000E+00 0.  1.
</event>
<event>
 8    1  0.2509489E-006  0.9118800E+02  0.7816164E-02  0.1184000E+00
        -11   -1    0    0    0    0  0.00000000000E+00  0.00000000000E+00  0.45593999997E+02  0.45594000000E+02  0.51100000000E-03 0.  1.
         11   -1    0    0    0    0 -0.00000000000E+00 -0.00000000000E+00 -0.45593999997E+02  0.45594000000E+02  0.51100000000E-03 0. -1.
         23    2    1    2    0    0 -0.22204460493E-15  0.00000000000E+00  0.00000000000E+00  0.91188000000E+02  0.91188000000E+02 0.  0.
    9900012    2    3    3    0    0 -0.10579674430E+01  0.32852010468E+02  0.16595351923E+02  0.54367087568E+02  0.40000007728E+02 0.  0.
         12    1    3    3    0    0  0.10579674430E+01 -0.32852010468E+02 -0.16595351923E+02  0.36820912432E+02  0.00000000000E+00 0. -1.
         11    1    4    4    0    0 -0.10995720246E+02  0.56757571833E+00  0.10110705633E+02  0.14948390367E+02  0.51100000000E-03 0. -1.
        -11    1    4    4    0    0 -0.28738984259E+01  0.22098648134E+02  0.16189759035E+01  0.22343469398E+02  0.51100000000E-03 0.  1.
         12    1    4    4    0    0  0.12811651228E+02  0.10185786616E+02  0.48656703863E+01  0.17075227802E+02  0.00000000000E+00 0. -1.
</event>
<event>
 8    1  0.2509489E-006  0.9118800E+02  0.7816164E-02  0.1184000E+00
        -11   -1    0    0    0    0  0.00000000000E+00  0.00000000000E+00  0.45593999997E+02  0.45594000000E+02  0.51100000000E-03 0.  1.
         11   -1    0    0    0    0 -0.00000000000E+00 -0.00000000000E+00 -0.45593999997E+02  0.45594000000E+02  0.51100000000E-03 0. -1.
         23    2    1    2    0    0  0.00000000000E+00  0.00000000000E+00  0.17763568394E-14  0.91188000000E+02  0.91188000000E+02 0.  0.
    9900012    2    3    3    0    0 -0.31178009416E+02 -0.13996646803E+02  0.13704217126E+02  0.54367082577E+02  0.39999996351E+02 0.  0.
        -12    1    3    3    0    0  0.31178009416E+02  0.13996646803E+02 -0.13704217126E+02  0.36820917423E+02  0.00000000000E+00 0.  1.
         11    1    4    4    0    0 -0.17520441327E+02 -0.15670204701E+02  0.10580392548E+02  0.25777235817E+02  0.51100000000E-03 0. -1.
        -11    1    4    4    0    0 -0.25383825885E+01 -0.89697984357E+01  0.81659967080E+01  0.12392908159E+02  0.51100000000E-03 0.  1.
         12    1    4    4    0    0 -0.11119185500E+02  0.10643356334E+02 -0.50421721293E+01  0.16196938601E+02  0.00000000000E+00 0. -1.
</event>
<event>
 8    1  0.2509489E-006  0.9118800E+02  0.7816164E-02  0.1184000E+00
        -11   -1    0    0    0    0  0.00000000000E+00  0.00000000000E+00  0.45593999997E+02  0.45594000000E+02  0.51100000000E-03 0.  1.
         11   -1    0    0    0    0 -0.00000000000E+00 -0.00000000000E+00 -0.45593999997E+02  0.45594000000E+02  0.51100000000E-03 0. -1.
         23    2    1    2    0    0  0.00000000000E+00  0.00000000000E+00  0.00000000000E+00  0.91188000000E+02  0.91188000000E+02 0.  0.
    9900012    2    3    3    0    0  0.33419814620E+02  0.11164402660E+02 -0.10689017126E+02  0.54367041524E+02  0.39999902763E+02 0.  0.
         12    1    3    3    0    0 -0.33419814620E+02 -0.11164402660E+02  0.10689017126E+02  0.36820958476E+02  0.00000000000E+00 0. -1.
         11    1    4    4    0    0 -0.20826174794E+01  0.89880157895E+00  0.44111014569E+01  0.49601367086E+01  0.51100000000E-03 0. -1.
        -11    1    4    4    0    0  0.18522404609E+02  0.83147749682E+01  0.69935548530E+01  0.21473815800E+02  0.51100000000E-03 0.  1.
         12    1    4    4    0    0  0.16980027490E+02  0.19508261124E+01 -0.22093673436E+02  0.27933089016E+02  0.00000000000E+00 0. -1.
</event>
<event>
 8    1  0.2509489E-006  0.9118800E+02  0.7816164E-02  0.1184000E+00
        -11   -1    0    0    0    0  0.00000000000E+00  0.00000000000E+00  0.45593999997E+02  0.45594000000E+02  0.51100000000E-03 0. -1.
         11   -1    0    0    0    0 -0.00000000000E+00 -0.00000000000E+00 -0.45593999997E+02  0.45594000000E+02  0.51100000000E-03 0.  1.
         23    2    1    2    0    0 -0.17763568394E-14  0.00000000000E+00  0.00000000000E+00  0.91188000000E+02  0.91188000000E+02 0.  0.
    9900012    2    3    3    0    0  0.12055682390E+02 -0.18553302775E+02  0.29431533701E+02  0.54367086136E+02  0.40000004465E+02 0.  0.
        -12    1    3    3    0    0 -0.12055682390E+02  0.18553302775E+02 -0.29431533701E+02  0.36820913864E+02  0.00000000000E+00 0.  1.
         11    1    4    4    0    0 -0.12204402293E+01 -0.80273728288E+01 -0.61109078826E+01  0.10162252914E+02  0.51100000000E-03 0.  1.
        -11    1    4    4    0    0 -0.48480721856E+01 -0.55813816457E+01  0.11864612418E+02  0.13979436794E+02  0.51100000000E-03 0. -1.
        -12    1    4    4    0    0  0.18124194805E+02 -0.49445483005E+01  0.23677829166E+02  0.30225396428E+02  0.00000000000E+00 0.  1.
</event>
<event>
 8    1  0.2509489E-006  0.9118800E+02  0.7816164E-02  0.1184000E+00
        -11   -1    0    0    0    0  0.00000000000E+00  0.00000000000E+00  0.45593999997E+02  0.45594000000E+02  0.51100000000E-03 0.  1.
         11   -1    0    0    0    0 -0.00000000000E+00 -0.00000000000E+00 -0.45593999997E+02  0.45594000000E+02  0.51100000000E-03 0. -1.
         23    2    1    2    0    0  0.35527136788E-14  0.17763568394E-14  0.35527136788E-14  0.91188000000E+02  0.91188000000E+02 0.  0.
    9900012    2    3    3    0    0 -0.31784839765E+02 -0.57084056548E+01 -0.17689489023E+02  0.54367082631E+02  0.39999996474E+02 0.  0.
        -12    1    3    3    0    0  0.31784839765E+02  0.57084056548E+01  0.17689489023E+02  0.36820917369E+02  0.00000000000E+00 0.  1.
         11    1    4    4    0    0 -0.13625126670E+02  0.18792971039E+01 -0.11106036599E+02  0.17678231913E+02  0.51100000000E-03 0. -1.
        -11    1    4    4    0    0 -0.82196139710E+01 -0.17861752365E+02  0.23951353754E+01  0.19807597661E+02  0.51100000000E-03 0.  1.
         12    1    4    4    0    0 -0.99400991244E+01  0.10274049606E+02 -0.89785877987E+01  0.16881253057E+02  0.00000000000E+00 0. -1.
</event>
<event>
 8    1  0.2509489E-006  0.9118800E+02  0.7816164E-02  0.1184000E+00
        -11   -1    0    0    0    0  0.00000000000E+00  0.00000000000E+00  0.45593999997E+02  0.45594000000E+02  0.51100000000E-03 0.  1.
         11   -1    0    0    0    0 -0.00000000000E+00 -0.00000000000E+00 -0.45593999997E+02  0.45594000000E+02  0.51100000000E-03 0. -1.
         23    2    1    2    0    0  0.00000000000E+00  0.00000000000E+00  0.17763568394E-14  0.91188000000E+02  0.91188000000E+02 0.  0.
    9900012    2    3    3    0    0  0.98747140560E+01  0.32989780130E+02 -0.13036281894E+02  0.54367079094E+02  0.39999988411E+02 0.  0.
        -12    1    3    3    0    0 -0.98747140560E+01 -0.32989780130E+02  0.13036281894E+02  0.36820920906E+02  0.00000000000E+00 0.  1.
         11    1    4    4    0    0  0.31711128965E+01  0.11375091383E+01 -0.46856819278E+01  0.57710917018E+01  0.51100000000E-03 0. -1.
        -11    1    4    4    0    0 -0.68025778159E+00  0.89033754421E+00 -0.15853826048E+02  0.15893371330E+02  0.51100000000E-03 0.  1.
         12    1    4    4    0    0  0.73838589411E+01  0.30961933448E+02  0.75032260818E+01  0.32702616062E+02  0.00000000000E+00 0. -1.
</event>
<event>
 8    1  0.2509489E-006  0.9118800E+02  0.7816164E-02  0.1184000E+00
        -11   -1    0    0    0    0  0.00000000000E+00  0.00000000000E+00  0.45593999997E+02  0.45594000000E+02  0.51100000000E-03 0.  1.
         11   -1    0    0    0    0 -0.00000000000E+00 -0.00000000000E+00 -0.45593999997E+02  0.45594000000E+02  0.51100000000E-03 0. -1.
         23    2    1    2    0    0  0.00000000000E+00 -0.71054273576E-14  0.35527136788E-14  0.91188000000E+02  0.91188000000E+02 0.  0.
    9900012    2    3    3    0    0 -0.12254574440E+02  0.24813536006E+02 -0.24287748733E+02  0.54367069779E+02  0.39999967176E+02 0.  0.
        -12    1    3    3    0    0  0.12254574440E+02 -0.24813536006E+02  0.24287748733E+02  0.36820930221E+02  0.00000000000E+00 0.  1.
         11    1    4    4    0    0 -0.14224096500E+02  0.20973690685E+02 -0.20933061584E+02  0.32869646936E+02  0.51100000000E-03 0. -1.
        -11    1    4    4    0    0 -0.69480344658E+01  0.61676062702E+01 -0.69522445468E+01  0.11603803451E+02  0.51100000000E-03 0.  1.
        -12    1    4    4    0    0  0.89175565260E+01 -0.23277609488E+01  0.35975573980E+01  0.98936193914E+01  0.00000000000E+00 0.  1.
</event>
<event>
 8    1  0.2509489E-006  0.9118800E+02  0.7816164E-02  0.1184000E+00
        -11   -1    0    0    0    0  0.00000000000E+00  0.00000000000E+00  0.45593999997E+02  0.45594000000E+02  0.51100000000E-03 0.  1.
         11   -1    0    0    0    0 -0.00000000000E+00 -0.00000000000E+00 -0.45593999997E+02  0.45594000000E+02  0.51100000000E-03 0. -1.
         23    2    1    2    0    0  0.44408920985E-15  0.00000000000E+00 -0.71054273576E-14  0.91188000000E+02  0.91188000000E+02 0.  0.
    9900012    2    3    3    0    0  0.12912049388E+01  0.90385259623E+01 -0.35670959200E+02  0.54367088930E+02  0.40000010834E+02 0.  0.
        -12    1    3    3    0    0 -0.12912049388E+01 -0.90385259623E+01  0.35670959200E+02  0.36820911070E+02  0.00000000000E+00 0.  1.
         11    1    4    4    0    0  0.90047865746E+01  0.51576928267E+01 -0.12312513172E+02  0.16102358753E+02  0.51100000000E-03 0. -1.
        -11    1    4    4    0    0 -0.11328804584E+01  0.15096411296E+02 -0.19527595919E+02  0.24708542143E+02  0.51100000000E-03 0.  1.
        -12    1    4    4    0    0 -0.65807011774E+01 -0.11215578161E+02 -0.38308501090E+01  0.13556188034E+02  0.00000000000E+00 0.  1.
</event>
<event>
 8    1  0.2509489E-006  0.9118800E+02  0.7816164E-02  0.1184000E+00
        -11   -1    0    0    0    0  0.00000000000E+00  0.00000000000E+00  0.45593999997E+02  0.45594000000E+02  0.51100000000E-03 0.  1.
         11   -1    0    0    0    0 -0.00000000000E+00 -0.00000000000E+00 -0.45593999997E+02  0.45594000000E+02  0.51100000000E-03 0. -1.
         23    2    1    2    0    0  0.00000000000E+00  0.00000000000E+00  0.00000000000E+00  0.91188000000E+02  0.91188000000E+02 0.  0.
    9900012    2    3    3    0    0 -0.27643900007E+02 -0.21908163052E+02 -0.10565333229E+02  0.54367094496E+02  0.40000023522E+02 0.  0.
        -12    1    3    3    0    0  0.27643900007E+02  0.21908163052E+02  0.10565333229E+02  0.36820905504E+02  0.00000000000E+00 0.  1.
         11    1    4    4    0    0 -0.29575365750E+01 -0.81557024810E+01 -0.11450901771E+02  0.14366128817E+02  0.51100000000E-03 0. -1.
        -11    1    4    4    0    0 -0.15713339322E+02 -0.16325551196E+02  0.11874932829E+02  0.25582155587E+02  0.51100000000E-03 0.  1.
        -12    1    4    4    0    0 -0.89730241098E+01  0.25730906249E+01 -0.10989364287E+02  0.14418810092E+02  0.00000000000E+00 0.  1.
</event>
<event>
 8    1  0.2509489E-006  0.9118800E+02  0.7816164E-02  0.1184000E+00
        -11   -1    0    0    0    0  0.00000000000E+00  0.00000000000E+00  0.45593999997E+02  0.45594000000E+02  0.51100000000E-03 0. -1.
         11   -1    0    0    0    0 -0.00000000000E+00 -0.00000000000E+00 -0.45593999997E+02  0.45594000000E+02  0.51100000000E-03 0.  1.
         23    2    1    2    0    0  0.00000000000E+00  0.00000000000E+00 -0.71054273576E-14  0.91188000000E+02  0.91188000000E+02 0.  0.
    9900012    2    3    3    0    0 -0.10157896728E+02  0.21181538509E+02 -0.28353835995E+02  0.54367075851E+02  0.39999981017E+02 0.  0.
         12    1    3    3    0    0  0.10157896728E+02 -0.21181538509E+02  0.28353835995E+02  0.36820924149E+02  0.00000000000E+00 0. -1.
         11    1    4    4    0    0 -0.14166073865E+02  0.16840295001E+02 -0.84414167453E+01  0.23569698797E+02  0.51100000000E-03 0. -1.
        -11    1    4    4    0    0 -0.72448988817E+01  0.67207587675E+01 -0.29685569549E+01  0.10318405345E+02  0.51100000000E-03 0.  1.
         12    1    4    4    0    0  0.11253076018E+02 -0.23795152602E+01 -0.16943862295E+02  0.20478971708E+02  0.00000000000E+00 0. -1.
</event>
<event>
 8    1  0.2509489E-006  0.9118800E+02  0.7816164E-02  0.1184000E+00
        -11   -1    0    0    0    0  0.00000000000E+00  0.00000000000E+00  0.45593999997E+02  0.45594000000E+02  0.51100000000E-03 0.  1.
         11   -1    0    0    0    0 -0.00000000000E+00 -0.00000000000E+00 -0.45593999997E+02  0.45594000000E+02  0.51100000000E-03 0. -1.
         23    2    1    2    0    0  0.17763568394E-14 -0.35527136788E-14  0.35527136788E-14  0.91188000000E+02  0.91188000000E+02 0.  0.
    9900012    2    3    3    0    0 -0.13262793841E+02  0.15314872016E+02 -0.30746270286E+02  0.54367080106E+02  0.39999990718E+02 0.  0.
        -12    1    3    3    0    0  0.13262793841E+02 -0.15314872016E+02  0.30746270286E+02  0.36820919894E+02  0.00000000000E+00 0.  1.
         11    1    4    4    0    0 -0.74237640641E+01  0.11552298486E+00 -0.12462010460E+01  0.75285214848E+01  0.51100000000E-03 0. -1.
        -11    1    4    4    0    0 -0.11848458719E+02 -0.66891268661E+01 -0.96010782704E+01  0.16652660342E+02  0.51100000000E-03 0.  1.
         12    1    4    4    0    0  0.60094289420E+01  0.21888475898E+02 -0.19898990969E+02  0.30185898279E+02  0.00000000000E+00 0. -1.
</event>
<event>
 8    1  0.2509489E-006  0.9118800E+02  0.7816164E-02  0.1184000E+00
        -11   -1    0    0    0    0  0.00000000000E+00  0.00000000000E+00  0.45593999997E+02  0.45594000000E+02  0.51100000000E-03 0. -1.
         11   -1    0    0    0    0 -0.00000000000E+00 -0.00000000000E+00 -0.45593999997E+02  0.45594000000E+02  0.51100000000E-03 0.  1.
         23    2    1    2    0    0  0.00000000000E+00  0.00000000000E+00  0.00000000000E+00  0.91188000000E+02  0.91188000000E+02 0.  0.
    9900012    2    3    3    0    0 -0.62181211020E+01  0.20387722800E+02 -0.30024248316E+02  0.54367085319E+02  0.40000002602E+02 0.  0.
         12    1    3    3    0    0  0.62181211020E+01 -0.20387722800E+02  0.30024248316E+02  0.36820914681E+02  0.00000000000E+00 0. -1.
         11    1    4    4    0    0 -0.87637562097E+01 -0.36024082683E+00  0.13181206746E+00  0.87721474588E+01  0.51100000000E-03 0. -1.
        -11    1    4    4    0    0  0.15840513951E+01  0.17054493879E+02 -0.35272888562E+02  0.39211498926E+02  0.51100000000E-03 0.  1.
        -12    1    4    4    0    0  0.96158371261E+00  0.36934697480E+01  0.51168281784E+01  0.63834389339E+01  0.00000000000E+00 0.  1.
</event>
<event>
 8    1  0.2509489E-006  0.9118800E+02  0.7816164E-02  0.1184000E+00
        -11   -1    0    0    0    0  0.00000000000E+00  0.00000000000E+00  0.45593999997E+02  0.45594000000E+02  0.51100000000E-03 0. -1.
         11   -1    0    0    0    0 -0.00000000000E+00 -0.00000000000E+00 -0.45593999997E+02  0.45594000000E+02  0.51100000000E-03 0.  1.
         23    2    1    2    0    0  0.35527136788E-14 -0.35527136788E-14  0.00000000000E+00  0.91188000000E+02  0.91188000000E+02 0.  0.
    9900012    2    3    3    0    0  0.18918137250E+02 -0.22054877564E+02  0.22615490100E+02  0.54367164406E+02  0.40000182896E+02 0.  0.
        -12    1    3    3    0    0 -0.18918137250E+02  0.22054877564E+02 -0.22615490100E+02  0.36820835594E+02  0.00000000000E+00 0.  1.
         11    1    4    4    0    0  0.97365232464E+01  0.66991021532E-01  0.54911886309E+01  0.11178440212E+02  0.51100000000E-03 0. -1.
        -11    1    4    4    0    0  0.85484366053E+01  0.66775953478E+00 -0.61936342866E+01  0.10577465534E+02  0.51100000000E-03 0.  1.
         12    1    4    4    0    0  0.63317739824E+00 -0.22789628121E+02  0.23317935755E+02  0.32611258660E+02  0.00000000000E+00 0. -1.
</event>
<event>
 8    1  0.2509489E-006  0.9118800E+02  0.7816164E-02  0.1184000E+00
        -11   -1    0    0    0    0  0.00000000000E+00  0.00000000000E+00  0.45593999997E+02  0.45594000000E+02  0.51100000000E-03 0. -1.
         11   -1    0    0    0    0 -0.00000000000E+00 -0.00000000000E+00 -0.45593999997E+02  0.45594000000E+02  0.51100000000E-03 0.  1.
         23    2    1    2    0    0  0.88817841970E-15 -0.43021142204E-15  0.00000000000E+00  0.91188000000E+02  0.91188000000E+02 0.  0.
    9900012    2    3    3    0    0 -0.65957105349E+01 -0.56493465153E-01  0.36225241252E+02  0.54367154101E+02  0.40000159404E+02 0.  0.
        -12    1    3    3    0    0  0.65957105349E+01  0.56493465153E-01 -0.36225241252E+02  0.36820845899E+02  0.00000000000E+00 0.  1.
         11    1    4    4    0    0 -0.57254798125E+01 -0.68664335989E+01  0.25893446967E+02  0.27393423035E+02  0.51100000000E-03 0. -1.
        -11    1    4    4    0    0  0.31631835293E+01  0.47553298216E+01  0.17548712897E+02  0.18454707160E+02  0.51100000000E-03 0.  1.
        -12    1    4    4    0    0 -0.40334142517E+01  0.20546103121E+01 -0.72169186126E+01  0.85190239066E+01  0.00000000000E+00 0.  1.
</event>
<event>
 8    1  0.2509489E-006  0.9118800E+02  0.7816164E-02  0.1184000E+00
        -11   -1    0    0    0    0  0.00000000000E+00  0.00000000000E+00  0.45593999997E+02  0.45594000000E+02  0.51100000000E-03 0. -1.
         11   -1    0    0    0    0 -0.00000000000E+00 -0.00000000000E+00 -0.45593999997E+02  0.45594000000E+02  0.51100000000E-03 0.  1.
         23    2    1    2    0    0  0.00000000000E+00  0.00000000000E+00 -0.17763568394E-14  0.91188000000E+02  0.91188000000E+02 0.  0.
    9900012    2    3    3    0    0 -0.31225925254E+02  0.16396681798E+02 -0.10576883551E+02  0.54367081386E+02  0.39999993635E+02 0.  0.
         12    1    3    3    0    0  0.31225925254E+02 -0.16396681798E+02  0.10576883551E+02  0.36820918614E+02  0.00000000000E+00 0. -1.
         11    1    4    4    0    0 -0.22721353774E+02 -0.97433362551E+00  0.47813006355E+01  0.23239407896E+02  0.51100000000E-03 0. -1.
        -11    1    4    4    0    0  0.41499453175E+01 -0.14377379144E+01 -0.21337018539E+01  0.48828086498E+01  0.51100000000E-03 0.  1.
        -12    1    4    4    0    0 -0.12654516798E+02  0.18808753338E+02 -0.13224482333E+02  0.26244864840E+02  0.00000000000E+00 0.  1.
</event>
<event>
 8    1  0.2509489E-006  0.9118800E+02  0.7816164E-02  0.1184000E+00
        -11   -1    0    0    0    0  0.00000000000E+00  0.00000000000E+00  0.45593999997E+02  0.45594000000E+02  0.51100000000E-03 0.  1.
         11   -1    0    0    0    0 -0.00000000000E+00 -0.00000000000E+00 -0.45593999997E+02  0.45594000000E+02  0.51100000000E-03 0. -1.
         23    2    1    2    0    0  0.00000000000E+00  0.35527136788E-14 -0.71054273576E-14  0.91188000000E+02  0.91188000000E+02 0.  0.
    9900012    2    3    3    0    0 -0.27758746154E+02  0.17045923732E+02 -0.17165693620E+02  0.54367183315E+02  0.40000226002E+02 0.  0.
        -12    1    3    3    0    0  0.27758746154E+02 -0.17045923732E+02  0.17165693620E+02  0.36820816685E+02  0.00000000000E+00 0.  1.
         11    1    4    4    0    0 -0.60441313359E+01  0.14351672248E+02 -0.70180938068E+01  0.17080856561E+02  0.51100000000E-03 0. -1.
        -11    1    4    4    0    0 -0.38154064173E+01  0.60588190943E+01 -0.16508847959E+02  0.17994684663E+02  0.51100000000E-03 0.  1.
         12    1    4    4    0    0 -0.17899208401E+02 -0.33645676106E+01  0.63612481451E+01  0.19291642091E+02  0.00000000000E+00 0. -1.
</event>
<event>
 8    1  0.2509489E-006  0.9118800E+02  0.7816164E-02  0.1184000E+00
        -11   -1    0    0    0    0  0.00000000000E+00  0.00000000000E+00  0.45593999997E+02  0.45594000000E+02  0.51100000000E-03 0.  1.
         11   -1    0    0    0    0 -0.00000000000E+00 -0.00000000000E+00 -0.45593999997E+02  0.45594000000E+02  0.51100000000E-03 0. -1.
         23    2    1    2    0    0  0.00000000000E+00  0.00000000000E+00  0.17763568394E-14  0.91188000000E+02  0.91188000000E+02 0.  0.
    9900012    2    3    3    0    0  0.18708929930E+02  0.28171869611E+02 -0.14563694454E+02  0.54367088922E+02  0.40000010815E+02 0.  0.
        -12    1    3    3    0    0 -0.18708929930E+02 -0.28171869611E+02  0.14563694454E+02  0.36820911078E+02  0.00000000000E+00 0.  1.
         11    1    4    4    0    0  0.13627906270E+02  0.25458623878E+02 -0.24042693708E+02  0.37575423884E+02  0.51100000000E-03 0. -1.
        -11    1    4    4    0    0  0.28302769829E+01  0.59394089435E+01  0.10796464167E+02  0.12643207076E+02  0.51100000000E-03 0.  1.
         12    1    4    4    0    0  0.22507466772E+01 -0.32261632103E+01 -0.13174649129E+01  0.41484579618E+01  0.00000000000E+00 0. -1.
</event>
<event>
 8    1  0.2509489E-006  0.9118800E+02  0.7816164E-02  0.1184000E+00
        -11   -1    0    0    0    0  0.00000000000E+00  0.00000000000E+00  0.45593999997E+02  0.45594000000E+02  0.51100000000E-03 0. -1.
         11   -1    0    0    0    0 -0.00000000000E+00 -0.00000000000E+00 -0.45593999997E+02  0.45594000000E+02  0.51100000000E-03 0.  1.
         23    2    1    2    0    0  0.35527136788E-14  0.00000000000E+00  0.00000000000E+00  0.91188000000E+02  0.91188000000E+02 0.  0.
    9900012    2    3    3    0    0  0.28788259939E+02 -0.22323459281E+02 -0.53552286459E+01  0.54367092646E+02  0.40000019304E+02 0.  0.
         12    1    3    3    0    0 -0.28788259939E+02  0.22323459281E+02  0.53552286459E+01  0.36820907354E+02  0.00000000000E+00 0. -1.
         11    1    4    4    0    0  0.12497147682E+02  0.35409315552E+01  0.85322303937E+01  0.15540780296E+02  0.51100000000E-03 0. -1.
        -11    1    4    4    0    0  0.17017089625E+02 -0.13498540933E+02 -0.14988575199E+02  0.26390326512E+02  0.51100000000E-03 0.  1.
        -12    1    4    4    0    0 -0.72597736829E+00 -0.12365849903E+02  0.11011161595E+01  0.12435985838E+02  0.00000000000E+00 0.  1.
</event>
<event>
 8    1  0.2509489E-006  0.9118800E+02  0.7816164E-02  0.1184000E+00
        -11   -1    0    0    0    0  0.00000000000E+00  0.00000000000E+00  0.45593999997E+02  0.45594000000E+02  0.51100000000E-03 0. -1.
         11   -1    0    0    0    0 -0.00000000000E+00 -0.00000000000E+00 -0.45593999997E+02  0.45594000000E+02  0.51100000000E-03 0.  1.
         23    2    1    2    0    0 -0.35527136788E-14  0.17763568394E-14 -0.35527136788E-14  0.91188000000E+02  0.91188000000E+02 0.  0.
    9900012    2    3    3    0    0  0.20092744703E+02  0.12375791366E+02  0.28264846995E+02  0.54367079625E+02  0.39999989621E+02 0.  0.
        -12    1    3    3    0    0 -0.20092744703E+02 -0.12375791366E+02 -0.28264846995E+02  0.36820920375E+02  0.00000000000E+00 0.  1.
         11    1    4    4    0    0  0.91665464581E+01  0.11641654273E+02  0.31439099150E+02  0.34755872076E+02  0.51100000000E-03 0. -1.
        -11    1    4    4    0    0 -0.16079605774E+01 -0.31431240269E+01 -0.52511771291E+01  0.63276873635E+01  0.51100000000E-03 0.  1.
        -12    1    4    4    0    0  0.12534158822E+02  0.38772611205E+01  0.20769249745E+01  0.13283520185E+02  0.00000000000E+00 0.  1.
</event>
<event>
 8    1  0.2509489E-006  0.9118800E+02  0.7816164E-02  0.1184000E+00
        -11   -1    0    0    0    0  0.00000000000E+00  0.00000000000E+00  0.45593999997E+02  0.45594000000E+02  0.51100000000E-03 0. -1.
         11   -1    0    0    0    0 -0.00000000000E+00 -0.00000000000E+00 -0.45593999997E+02  0.45594000000E+02  0.51100000000E-03 0.  1.
         23    2    1    2    0    0 -0.17763568394E-14  0.00000000000E+00  0.00000000000E+00  0.91188000000E+02  0.91188000000E+02 0.  0.
    9900012    2    3    3    0    0 -0.12422381914E+02  0.20641085958E+02 -0.27846158264E+02  0.54367101966E+02  0.40000040552E+02 0.  0.
         12    1    3    3    0    0  0.12422381914E+02 -0.20641085958E+02  0.27846158264E+02  0.36820898034E+02  0.00000000000E+00 0. -1.
         11    1    4    4    0    0  0.22388544252E+01  0.88960497692E+01 -0.80926208882E+01  0.12232852641E+02  0.51100000000E-03 0.  1.
        -11    1    4    4    0    0  0.68334314997E+01 -0.61677580919E+01 -0.56455763971E+01  0.10798590605E+02  0.51100000000E-03 0. -1.
         12    1    4    4    0    0 -0.21494667839E+02  0.17912794281E+02 -0.14107960979E+02  0.31335658720E+02  0.00000000000E+00 0. -1.
</event>
<event>
 8    1  0.2509489E-006  0.9118800E+02  0.7816164E-02  0.1184000E+00
        -11   -1    0    0    0    0  0.00000000000E+00  0.00000000000E+00  0.45593999997E+02  0.45594000000E+02  0.51100000000E-03 0. -1.
         11   -1    0    0    0    0 -0.00000000000E+00 -0.00000000000E+00 -0.45593999997E+02  0.45594000000E+02  0.51100000000E-03 0.  1.
         23    2    1    2    0    0  0.00000000000E+00 -0.17763568394E-14  0.00000000000E+00  0.91188000000E+02  0.91188000000E+02 0.  0.
    9900012    2    3    3    0    0 -0.10111005937E+02 -0.11906058182E+02  0.33343579473E+02  0.54367069070E+02  0.39999965559E+02 0.  0.
        -12    1    3    3    0    0  0.10111005937E+02  0.11906058182E+02 -0.33343579473E+02  0.36820930930E+02  0.00000000000E+00 0.  1.
         11    1    4    4    0    0 -0.48736189605E+01  0.63244743199E+01  0.21401183176E+02  0.22842105393E+02  0.51100000000E-03 0. -1.
        -11    1    4    4    0    0  0.73725365930E+01 -0.55694089306E+00  0.40046962700E+01  0.84084523814E+01  0.51100000000E-03 0.  1.
        -12    1    4    4    0    0 -0.12609923569E+02 -0.17673591609E+02  0.79377000267E+01  0.23116511296E+02  0.00000000000E+00 0.  1.
</event>
<event>
 8    1  0.2509489E-006  0.9118800E+02  0.7816164E-02  0.1184000E+00
        -11   -1    0    0    0    0  0.00000000000E+00  0.00000000000E+00  0.45593999997E+02  0.45594000000E+02  0.51100000000E-03 0. -1.
         11   -1    0    0    0    0 -0.00000000000E+00 -0.00000000000E+00 -0.45593999997E+02  0.45594000000E+02  0.51100000000E-03 0.  1.
         23    2    1    2    0    0 -0.44408920985E-15 -0.35527136788E-14 -0.71054273576E-14  0.91188000000E+02  0.91188000000E+02 0.  0.
    9900012    2    3    3    0    0 -0.32254129325E+01 -0.16379545616E+02  0.32818969530E+02  0.54367115109E+02  0.40000070514E+02 0.  0.
        -12    1    3    3    0    0  0.32254129325E+01  0.16379545616E+02 -0.32818969530E+02  0.36820884891E+02  0.00000000000E+00 0.  1.
         11    1    4    4    0    0 -0.43241252323E+01 -0.25012425728E+02  0.16824317298E+02  0.30452867725E+02  0.51100000000E-03 0. -1.
        -11    1    4    4    0    0 -0.30618639313E+01  0.93109127939E+01  0.29959404348E+01  0.10249086161E+02  0.51100000000E-03 0.  1.
         12    1    4    4    0    0  0.41605762310E+01 -0.67803268145E+00  0.12998711797E+02  0.13665161223E+02  0.00000000000E+00 0. -1.
</event>
<event>
 8    1  0.2509489E-006  0.9118800E+02  0.7816164E-02  0.1184000E+00
        -11   -1    0    0    0    0  0.00000000000E+00  0.00000000000E+00  0.45593999997E+02  0.45594000000E+02  0.51100000000E-03 0.  1.
         11   -1    0    0    0    0 -0.00000000000E+00 -0.00000000000E+00 -0.45593999997E+02  0.45594000000E+02  0.51100000000E-03 0. -1.
         23    2    1    2    0    0  0.00000000000E+00  0.00000000000E+00  0.00000000000E+00  0.91188000000E+02  0.91188000000E+02 0.  0.
    9900012    2    3    3    0    0 -0.86955062066E+01  0.28238420275E+02 -0.21971797542E+02  0.54367080742E+02  0.39999992167E+02 0.  0.
        -12    1    3    3    0    0  0.86955062066E+01 -0.28238420275E+02  0.21971797542E+02  0.36820919258E+02  0.00000000000E+00 0.  1.
         11    1    4    4    0    0 -0.87043396556E+01  0.85575726066E+01  0.68228721254E+00  0.12225509963E+02  0.51100000000E-03 0. -1.
        -11    1    4    4    0    0  0.10330149700E+02  0.16774679919E+02 -0.32425244652E+01  0.19965366122E+02  0.51100000000E-03 0.  1.
         12    1    4    4    0    0 -0.10321316251E+02  0.29061677495E+01 -0.19411560289E+02  0.22176204657E+02  0.00000000000E+00 0. -1.
</event>
<event>
 8    1  0.2509489E-006  0.9118800E+02  0.7816164E-02  0.1184000E+00
        -11   -1    0    0    0    0  0.00000000000E+00  0.00000000000E+00  0.45593999997E+02  0.45594000000E+02  0.51100000000E-03 0.  1.
         11   -1    0    0    0    0 -0.00000000000E+00 -0.00000000000E+00 -0.45593999997E+02  0.45594000000E+02  0.51100000000E-03 0. -1.
         23    2    1    2    0    0  0.00000000000E+00  0.00000000000E+00  0.35527136788E-14  0.91188000000E+02  0.91188000000E+02 0.  0.
    9900012    2    3    3    0    0  0.16698676988E+02  0.28622499272E+02 -0.16052619377E+02  0.54367083844E+02  0.39999999238E+02 0.  0.
        -12    1    3    3    0    0 -0.16698676988E+02 -0.28622499272E+02  0.16052619377E+02  0.36820916156E+02  0.00000000000E+00 0.  1.
         11    1    4    4    0    0  0.27254881461E+01  0.49253854219E+01  0.43269269820E+01  0.71000003209E+01  0.51100000000E-03 0. -1.
        -11    1    4    4    0    0 -0.25523694442E+01  0.15953919953E+02 -0.23734257665E+02  0.28711620275E+02  0.51100000000E-03 0.  1.
         12    1    4    4    0    0  0.16525558286E+02  0.77431938971E+01  0.33547113057E+01  0.18555463248E+02  0.00000000000E+00 0. -1.
</event>
<event>
 8    1  0.2509489E-006  0.9118800E+02  0.7816164E-02  0.1184000E+00
        -11   -1    0    0    0    0  0.00000000000E+00  0.00000000000E+00  0.45593999997E+02  0.45594000000E+02  0.51100000000E-03 0. -1.
         11   -1    0    0    0    0 -0.00000000000E+00 -0.00000000000E+00 -0.45593999997E+02  0.45594000000E+02  0.51100000000E-03 0.  1.
         23    2    1    2    0    0  0.00000000000E+00  0.35527136788E-14  0.00000000000E+00  0.91188000000E+02  0.91188000000E+02 0.  0.
    9900012    2    3    3    0    0 -0.80668132846E+01 -0.23124351444E+02 -0.27494966059E+02  0.54367051277E+02  0.39999924996E+02 0.  0.
         12    1    3    3    0    0  0.80668132846E+01  0.23124351444E+02  0.27494966059E+02  0.36820948723E+02  0.00000000000E+00 0. -1.
         11    1    4    4    0    0  0.50084592832E+00 -0.25294485902E+02 -0.16483616180E+02  0.30195553751E+02  0.51100000000E-03 0. -1.
        -11    1    4    4    0    0  0.52689671578E+00 -0.71419087943E+01 -0.60903049934E-01  0.71615773974E+01  0.51100000000E-03 0.  1.
         12    1    4    4    0    0 -0.90945559287E+01  0.93120432515E+01 -0.10950446828E+02  0.17009920129E+02  0.00000000000E+00 0. -1.
</event>
<event>
 8    1  0.2509489E-006  0.9118800E+02  0.7816164E-02  0.1184000E+00
        -11   -1    0    0    0    0  0.00000000000E+00  0.00000000000E+00  0.45593999997E+02  0.45594000000E+02  0.51100000000E-03 0.  1.
         11   -1    0    0    0    0 -0.00000000000E+00 -0.00000000000E+00 -0.45593999997E+02  0.45594000000E+02  0.51100000000E-03 0. -1.
         23    2    1    2    0    0  0.00000000000E+00  0.00000000000E+00  0.71054273576E-14  0.91188000000E+02  0.91188000000E+02 0.  0.
    9900012    2    3    3    0    0 -0.57564789173E+01  0.22108056105E+02 -0.28876944902E+02  0.54367066536E+02  0.39999959782E+02 0.  0.
        -12    1    3    3    0    0  0.57564789173E+01 -0.22108056105E+02  0.28876944902E+02  0.36820933464E+02  0.00000000000E+00 0.  1.
         11    1    4    4    0    0  0.36418504012E+00  0.93064517991E+01 -0.21513396159E+01  0.95588146878E+01  0.51100000000E-03 0. -1.
        -11    1    4    4    0    0 -0.29527470810E+00 -0.60354382198E+01  0.47368620565E+01  0.76779921894E+01  0.51100000000E-03 0.  1.
         12    1    4    4    0    0 -0.58253892493E+01  0.18837042526E+02 -0.31462467343E+02  0.37130259659E+02  0.00000000000E+00 0. -1.
</event>
<event>
 8    1  0.2509489E-006  0.9118800E+02  0.7816164E-02  0.1184000E+00
        -11   -1    0    0    0    0  0.00000000000E+00  0.00000000000E+00  0.45593999997E+02  0.45594000000E+02  0.51100000000E-03 0.  1.
         11   -1    0    0    0    0 -0.00000000000E+00 -0.00000000000E+00 -0.45593999997E+02  0.45594000000E+02  0.51100000000E-03 0. -1.
         23    2    1    2    0    0  0.35527136788E-14  0.00000000000E+00 -0.35527136788E-14  0.91188000000E+02  0.91188000000E+02 0.  0.
    9900012    2    3    3    0    0  0.25077010755E+02  0.11920443431E+02 -0.24183195842E+02  0.54367076585E+02  0.39999982692E+02 0.  0.
        -12    1    3    3    0    0 -0.25077010755E+02 -0.11920443431E+02  0.24183195842E+02  0.36820923415E+02  0.00000000000E+00 0.  1.
         11    1    4    4    0    0  0.11011843077E+02  0.75891492356E+01 -0.65762071908E+01  0.14903099521E+02  0.51100000000E-03 0. -1.
        -11    1    4    4    0    0  0.16625850698E+02  0.79953203635E+01  0.27230455221E+01  0.18648298483E+02  0.51100000000E-03 0.  1.
         12    1    4    4    0    0 -0.25606830200E+01 -0.36640261684E+01 -0.20330034173E+02  0.20815678581E+02  0.00000000000E+00 0. -1.
</event>
<event>
 8    1  0.2509489E-006  0.9118800E+02  0.7816164E-02  0.1184000E+00
        -11   -1    0    0    0    0  0.00000000000E+00  0.00000000000E+00  0.45593999997E+02  0.45594000000E+02  0.51100000000E-03 0. -1.
         11   -1    0    0    0    0 -0.00000000000E+00 -0.00000000000E+00 -0.45593999997E+02  0.45594000000E+02  0.51100000000E-03 0.  1.
         23    2    1    2    0    0  0.35527136788E-14  0.00000000000E+00  0.00000000000E+00  0.91188000000E+02  0.91188000000E+02 0.  0.
    9900012    2    3    3    0    0  0.25023540026E+02 -0.48128495519E+01  0.26578901503E+02  0.54367094507E+02  0.40000023547E+02 0.  0.
        -12    1    3    3    0    0 -0.25023540026E+02  0.48128495519E+01 -0.26578901503E+02  0.36820905493E+02  0.00000000000E+00 0.  1.
         11    1    4    4    0    0 -0.32310395199E+01 -0.11160348605E+01  0.37362090218E+01  0.50640308357E+01  0.51100000000E-03 0. -1.
        -11    1    4    4    0    0  0.10851005130E+02 -0.20703164179E+01 -0.81454049710E+01  0.13725091796E+02  0.51100000000E-03 0.  1.
         12    1    4    4    0    0  0.17403574416E+02 -0.16264982735E+01  0.30988097452E+02  0.35577971876E+02  0.00000000000E+00 0. -1.
</event>
<event>
 8    1  0.2509489E-006  0.9118800E+02  0.7816164E-02  0.1184000E+00
        -11   -1    0    0    0    0  0.00000000000E+00  0.00000000000E+00  0.45593999997E+02  0.45594000000E+02  0.51100000000E-03 0.  1.
         11   -1    0    0    0    0 -0.00000000000E+00 -0.00000000000E+00 -0.45593999997E+02  0.45594000000E+02  0.51100000000E-03 0. -1.
         23    2    1    2    0    0  0.00000000000E+00  0.44408920985E-15  0.00000000000E+00  0.91188000000E+02  0.91188000000E+02 0.  0.
    9900012    2    3    3    0    0  0.36064252554E+02 -0.27380593533E+01  0.69030307247E+01  0.54367094056E+02  0.40000022520E+02 0.  0.
         12    1    3    3    0    0 -0.36064252554E+02  0.27380593533E+01 -0.69030307247E+01  0.36820905944E+02  0.00000000000E+00 0. -1.
         11    1    4    4    0    0 -0.52034572641E+01  0.42880428675E+01 -0.43329284124E+01  0.80148330002E+01  0.51100000000E-03 0. -1.
        -11    1    4    4    0    0  0.16180632596E+02 -0.10808325801E+02  0.66980422574E+01  0.20579031760E+02  0.51100000000E-03 0.  1.
        -12    1    4    4    0    0  0.25087077222E+02  0.37822235798E+01  0.45379168797E+01  0.25773229296E+02  0.00000000000E+00 0.  1.
</event>
<event>
 8    1  0.2509489E-006  0.9118800E+02  0.7816164E-02  0.1184000E+00
        -11   -1    0    0    0    0  0.00000000000E+00  0.00000000000E+00  0.45593999997E+02  0.45594000000E+02  0.51100000000E-03 0. -1.
         11   -1    0    0    0    0 -0.00000000000E+00 -0.00000000000E+00 -0.45593999997E+02  0.45594000000E+02  0.51100000000E-03 0.  1.
         23    2    1    2    0    0  0.00000000000E+00  0.00000000000E+00  0.00000000000E+00  0.91188000000E+02  0.91188000000E+02 0.  0.
    9900012    2    3    3    0    0  0.92823636698E+01  0.73198718282E+01  0.34871726583E+02  0.54367080487E+02  0.39999991587E+02 0.  0.
        -12    1    3    3    0    0 -0.92823636698E+01 -0.73198718282E+01 -0.34871726583E+02  0.36820919513E+02  0.00000000000E+00 0.  1.
         11    1    4    4    0    0 -0.11331133705E+01  0.33133170967E+01  0.19311810265E+02  0.19626717303E+02  0.51100000000E-03 0. -1.
        -11    1    4    4    0    0  0.16839126916E+02  0.12080507544E+02  0.10959157730E+02  0.23443506483E+02  0.51100000000E-03 0.  1.
        -12    1    4    4    0    0 -0.64236498760E+01 -0.80739528124E+01  0.46007585877E+01  0.11296856701E+02  0.00000000000E+00 0.  1.
</event>
<event>
 8    1  0.2509489E-006  0.9118800E+02  0.7816164E-02  0.1184000E+00
        -11   -1    0    0    0    0  0.00000000000E+00  0.00000000000E+00  0.45593999997E+02  0.45594000000E+02  0.51100000000E-03 0.  1.
         11   -1    0    0    0    0 -0.00000000000E+00 -0.00000000000E+00 -0.45593999997E+02  0.45594000000E+02  0.51100000000E-03 0. -1.
         23    2    1    2    0    0  0.00000000000E+00 -0.35527136788E-14  0.00000000000E+00  0.91188000000E+02  0.91188000000E+02 0.  0.
    9900012    2    3    3    0    0 -0.14783590931E+02 -0.29059153500E+02  0.17111208595E+02  0.54367049136E+02  0.39999920114E+02 0.  0.
         12    1    3    3    0    0  0.14783590931E+02  0.29059153500E+02 -0.17111208595E+02  0.36820950864E+02  0.00000000000E+00 0. -1.
         11    1    4    4    0    0 -0.96739453992E+01 -0.24086155272E+01  0.84991164228E+01  0.13100443831E+02  0.51100000000E-03 0.  1.
        -11    1    4    4    0    0 -0.11460095462E+02 -0.20877780262E+02 -0.57821260862E+01  0.24508130875E+02  0.51100000000E-03 0. -1.
         12    1    4    4    0    0  0.63504499303E+01 -0.57727577110E+01  0.14394218259E+02  0.16758474429E+02  0.00000000000E+00 0. -1.
</event>
<event>
 8    1  0.2509489E-006  0.9118800E+02  0.7816164E-02  0.1184000E+00
        -11   -1    0    0    0    0  0.00000000000E+00  0.00000000000E+00  0.45593999997E+02  0.45594000000E+02  0.51100000000E-03 0.  1.
         11   -1    0    0    0    0 -0.00000000000E+00 -0.00000000000E+00 -0.45593999997E+02  0.45594000000E+02  0.51100000000E-03 0. -1.
         23    2    1    2    0    0 -0.35527136788E-14 -0.17763568394E-14  0.00000000000E+00  0.91188000000E+02  0.91188000000E+02 0.  0.
    9900012    2    3    3    0    0  0.26919915114E+02  0.13882770964E+02  0.20937206772E+02  0.54367084927E+02  0.40000001709E+02 0.  0.
         12    1    3    3    0    0 -0.26919915114E+02 -0.13882770964E+02 -0.20937206772E+02  0.36820915073E+02  0.00000000000E+00 0. -1.
         11    1    4    4    0    0  0.18431809389E+01  0.55163783235E+01 -0.46433622435E+01  0.74423490221E+01  0.51100000000E-03 0. -1.
        -11    1    4    4    0    0  0.15138467688E+02  0.17787416689E+02  0.81064678938E+01  0.24724081750E+02  0.51100000000E-03 0.  1.
         12    1    4    4    0    0  0.99382664867E+01 -0.94210240487E+01  0.17474101122E+02  0.22200654155E+02  0.00000000000E+00 0. -1.
</event>
<event>
 8    1  0.2509489E-006  0.9118800E+02  0.7816164E-02  0.1184000E+00
        -11   -1    0    0    0    0  0.00000000000E+00  0.00000000000E+00  0.45593999997E+02  0.45594000000E+02  0.51100000000E-03 0.  1.
         11   -1    0    0    0    0 -0.00000000000E+00 -0.00000000000E+00 -0.45593999997E+02  0.45594000000E+02  0.51100000000E-03 0. -1.
         23    2    1    2    0    0  0.71054273576E-14  0.17763568394E-14 -0.88817841970E-15  0.91188000000E+02  0.91188000000E+02 0.  0.
    9900012    2    3    3    0    0  0.35707286958E+02 -0.72814699660E+01  0.52679019438E+01  0.54367069299E+02  0.39999966082E+02 0.  0.
         12    1    3    3    0    0 -0.35707286958E+02  0.72814699660E+01 -0.52679019438E+01  0.36820930701E+02  0.00000000000E+00 0. -1.
         11    1    4    4    0    0  0.60196029443E+01 -0.14136837456E+02 -0.49017761416E+01  0.16128025374E+02  0.51100000000E-03 0. -1.
        -11    1    4    4    0    0  0.21108575625E+02  0.10203132034E+02  0.15006948971E+02  0.27836745246E+02  0.51100000000E-03 0.  1.
        -12    1    4    4    0    0  0.85791083884E+01 -0.33477645439E+01 -0.48372708853E+01  0.10402298679E+02  0.00000000000E+00 0.  1.
</event>
<event>
 8    1  0.2509489E-006  0.9118800E+02  0.7816164E-02  0.1184000E+00
        -11   -1    0    0    0    0  0.00000000000E+00  0.00000000000E+00  0.45593999997E+02  0.45594000000E+02  0.51100000000E-03 0.  1.
         11   -1    0    0    0    0 -0.00000000000E+00 -0.00000000000E+00 -0.45593999997E+02  0.45594000000E+02  0.51100000000E-03 0. -1.
         23    2    1    2    0    0  0.00000000000E+00  0.00000000000E+00  0.00000000000E+00  0.91188000000E+02  0.91188000000E+02 0.  0.
    9900012    2    3    3    0    0  0.91152104540E+01  0.32688005900E+02  0.14289490872E+02  0.54367050247E+02  0.39999922648E+02 0.  0.
         12    1    3    3    0    0 -0.91152104540E+01 -0.32688005900E+02 -0.14289490872E+02  0.36820949753E+02  0.00000000000E+00 0. -1.
         11    1    4    4    0    0 -0.30454449009E+01  0.23072736466E+02  0.19015762352E+02  0.30053703945E+02  0.51100000000E-03 0. -1.
        -11    1    4    4    0    0  0.83233441531E+01  0.14716816862E+02 -0.57283987919E+01  0.17851535212E+02  0.51100000000E-03 0.  1.
         12    1    4    4    0    0  0.38373112018E+01 -0.51015474281E+01  0.10021273116E+01  0.64618110905E+01  0.00000000000E+00 0. -1.
</event>
<event>
 8    1  0.2509489E-006  0.9118800E+02  0.7816164E-02  0.1184000E+00
        -11   -1    0    0    0    0  0.00000000000E+00  0.00000000000E+00  0.45593999997E+02  0.45594000000E+02  0.51100000000E-03 0.  1.
         11   -1    0    0    0    0 -0.00000000000E+00 -0.00000000000E+00 -0.45593999997E+02  0.45594000000E+02  0.51100000000E-03 0. -1.
         23    2    1    2    0    0  0.00000000000E+00  0.00000000000E+00  0.00000000000E+00  0.91188000000E+02  0.91188000000E+02 0.  0.
    9900012    2    3    3    0    0  0.15985638917E+02  0.32736090675E+02  0.53465364349E+01  0.54367112774E+02  0.40000065190E+02 0.  0.
        -12    1    3    3    0    0 -0.15985638917E+02 -0.32736090675E+02 -0.53465364349E+01  0.36820887226E+02  0.00000000000E+00 0.  1.
         11    1    4    4    0    0  0.15584506112E+02  0.30011316585E+01 -0.44381729866E+01  0.16479714855E+02  0.51100000000E-03 0. -1.
        -11    1    4    4    0    0 -0.17021468159E+01 -0.21472546711E+01  0.48312606053E+01  0.55541953245E+01  0.51100000000E-03 0.  1.
         12    1    4    4    0    0  0.21032796212E+01  0.31882213688E+02  0.49534488162E+01  0.32333202594E+02  0.00000000000E+00 0. -1.
</event>
<event>
 8    1  0.2509489E-006  0.9118800E+02  0.7816164E-02  0.1184000E+00
        -11   -1    0    0    0    0  0.00000000000E+00  0.00000000000E+00  0.45593999997E+02  0.45594000000E+02  0.51100000000E-03 0.  1.
         11   -1    0    0    0    0 -0.00000000000E+00 -0.00000000000E+00 -0.45593999997E+02  0.45594000000E+02  0.51100000000E-03 0. -1.
         23    2    1    2    0    0 -0.71054273576E-14  0.00000000000E+00  0.35527136788E-14  0.91188000000E+02  0.91188000000E+02 0.  0.
    9900012    2    3    3    0    0 -0.29231805319E+02 -0.21852737928E+02  0.48721233775E+01  0.54367106701E+02  0.40000051346E+02 0.  0.
         12    1    3    3    0    0  0.29231805319E+02  0.21852737928E+02 -0.48721233775E+01  0.36820893299E+02  0.00000000000E+00 0. -1.
         11    1    4    4    0    0 -0.21058581868E+02 -0.24166078645E+02 -0.78241540155E+01  0.32995160458E+02  0.51100000000E-03 0.  1.
        -11    1    4    4    0    0 -0.53788483833E+01 -0.34632615542E+01 -0.78111091302E+00  0.64448681168E+01  0.51100000000E-03 0. -1.
         12    1    4    4    0    0 -0.27943750674E+01  0.57766022709E+01  0.13477388306E+02  0.14927078126E+02  0.00000000000E+00 0. -1.
</event>
<event>
 8    1  0.2509489E-006  0.9118800E+02  0.7816164E-02  0.1184000E+00
        -11   -1    0    0    0    0  0.00000000000E+00  0.00000000000E+00  0.45593999997E+02  0.45594000000E+02  0.51100000000E-03 0.  1.
         11   -1    0    0    0    0 -0.00000000000E+00 -0.00000000000E+00 -0.45593999997E+02  0.45594000000E+02  0.51100000000E-03 0. -1.
         23    2    1    2    0    0  0.00000000000E+00  0.88817841970E-15  0.00000000000E+00  0.91188000000E+02  0.91188000000E+02 0.  0.
    9900012    2    3    3    0    0 -0.21110632012E+02  0.69019405289E+01  0.29368102077E+02  0.54367068634E+02  0.39999964566E+02 0.  0.
         12    1    3    3    0    0  0.21110632012E+02 -0.69019405289E+01 -0.29368102077E+02  0.36820931366E+02  0.00000000000E+00 0. -1.
         11    1    4    4    0    0 -0.48127947481E+01  0.14575559644E+01 -0.55634783479E+01  0.74993169199E+01  0.51100000000E-03 0. -1.
        -11    1    4    4    0    0 -0.23484771412E+02  0.33952492834E+01  0.27608534935E+02  0.36404579485E+02  0.51100000000E-03 0.  1.
        -12    1    4    4    0    0  0.71869341483E+01  0.20491352811E+01  0.73230454903E+01  0.10463172230E+02  0.00000000000E+00 0.  1.
</event>
<event>
 8    1  0.2509489E-006  0.9118800E+02  0.7816164E-02  0.1184000E+00
        -11   -1    0    0    0    0  0.00000000000E+00  0.00000000000E+00  0.45593999997E+02  0.45594000000E+02  0.51100000000E-03 0. -1.
         11   -1    0    0    0    0 -0.00000000000E+00 -0.00000000000E+00 -0.45593999997E+02  0.45594000000E+02  0.51100000000E-03 0.  1.
         23    2    1    2    0    0  0.35527136788E-14  0.13322676296E-14  0.00000000000E+00  0.91188000000E+02  0.91188000000E+02 0.  0.
    9900012    2    3    3    0    0 -0.27516752881E+02 -0.32871216870E+01 -0.24244647635E+02  0.54367084788E+02  0.40000001391E+02 0.  0.
        -12    1    3    3    0    0  0.27516752881E+02  0.32871216870E+01  0.24244647635E+02  0.36820915212E+02  0.00000000000E+00 0.  1.
         11    1    4    4    0    0 -0.36872262102E+01 -0.92670692982E+01  0.66737336685E+01  0.12000538815E+02  0.51100000000E-03 0. -1.
        -11    1    4    4    0    0 -0.16734583712E+01 -0.35162917035E+01 -0.89168397638E+01  0.97300977333E+01  0.51100000000E-03 0.  1.
         12    1    4    4    0    0 -0.22156068299E+02  0.94962393147E+01 -0.22001541540E+02  0.32636448240E+02  0.00000000000E+00 0. -1.
</event>
<event>
 8    1  0.2509489E-006  0.9118800E+02  0.7816164E-02  0.1184000E+00
        -11   -1    0    0    0    0  0.00000000000E+00  0.00000000000E+00  0.45593999997E+02  0.45594000000E+02  0.51100000000E-03 0. -1.
         11   -1    0    0    0    0 -0.00000000000E+00 -0.00000000000E+00 -0.45593999997E+02  0.45594000000E+02  0.51100000000E-03 0.  1.
         23    2    1    2    0    0  0.35527136788E-14 -0.12212453271E-14  0.00000000000E+00  0.91188000000E+02  0.91188000000E+02 0.  0.
    9900012    2    3    3    0    0  0.16429904633E+02 -0.71110846405E+00 -0.32944384594E+02  0.54367083148E+02  0.39999997653E+02 0.  0.
         12    1    3    3    0    0 -0.16429904633E+02  0.71110846405E+00  0.32944384594E+02  0.36820916852E+02  0.00000000000E+00 0. -1.
         11    1    4    4    0    0  0.26120634019E+02 -0.18243149759E+01 -0.13915198988E+02  0.29652123193E+02  0.51100000000E-03 0.  1.
        -11    1    4    4    0    0 -0.61572510774E+01  0.62028936480E+01 -0.70528179069E+01  0.11230755590E+02  0.51100000000E-03 0. -1.
        -12    1    4    4    0    0 -0.35334783085E+01 -0.50896871362E+01 -0.11976367699E+02  0.13484204365E+02  0.00000000000E+00 0.  1.
</event>
<event>
 8    1  0.2509489E-006  0.9118800E+02  0.7816164E-02  0.1184000E+00
        -11   -1    0    0    0    0  0.00000000000E+00  0.00000000000E+00  0.45593999997E+02  0.45594000000E+02  0.51100000000E-03 0.  1.
         11   -1    0    0    0    0 -0.00000000000E+00 -0.00000000000E+00 -0.45593999997E+02  0.45594000000E+02  0.51100000000E-03 0. -1.
         23    2    1    2    0    0  0.00000000000E+00  0.00000000000E+00  0.35527136788E-14  0.91188000000E+02  0.91188000000E+02 0.  0.
    9900012    2    3    3    0    0 -0.47891562859E+01  0.27104260432E+02 -0.24458313375E+02  0.54366999950E+02  0.39999807986E+02 0.  0.
        -12    1    3    3    0    0  0.47891562859E+01 -0.27104260432E+02  0.24458313375E+02  0.36821000050E+02  0.00000000000E+00 0.  1.
         11    1    4    4    0    0  0.73273618305E+01  0.70984756647E+01 -0.29065096515E+01  0.10607845529E+02  0.51100000000E-03 0. -1.
        -11    1    4    4    0    0 -0.66254591166E+01 -0.73852913801E+01 -0.78068578613E+01  0.12624827413E+02  0.51100000000E-03 0.  1.
         12    1    4    4    0    0 -0.54910589999E+01  0.27391076148E+02 -0.13744945862E+02  0.31134327008E+02  0.00000000000E+00 0. -1.
</event>
<event>
 8    1  0.2509489E-006  0.9118800E+02  0.7816164E-02  0.1184000E+00
        -11   -1    0    0    0    0  0.00000000000E+00  0.00000000000E+00  0.45593999997E+02  0.45594000000E+02  0.51100000000E-03 0. -1.
         11   -1    0    0    0    0 -0.00000000000E+00 -0.00000000000E+00 -0.45593999997E+02  0.45594000000E+02  0.51100000000E-03 0.  1.
         23    2    1    2    0    0 -0.35527136788E-14  0.35527136788E-14  0.35527136788E-14  0.91188000000E+02  0.91188000000E+02 0.  0.
    9900012    2    3    3    0    0  0.21114312930E+02 -0.25403930081E+02  0.16266683640E+02  0.54367097367E+02  0.40000030067E+02 0.  0.
         12    1    3    3    0    0 -0.21114312930E+02  0.25403930081E+02 -0.16266683640E+02  0.36820902633E+02  0.00000000000E+00 0. -1.
         11    1    4    4    0    0 -0.25884552762E+01  0.65146295419E+01 -0.42235317953E+01  0.81840527780E+01  0.51100000000E-03 0. -1.
        -11    1    4    4    0    0  0.11909280937E+02 -0.12794712341E+02  0.15049800583E+02  0.23065821775E+02  0.51100000000E-03 0.  1.
         12    1    4    4    0    0  0.11793487270E+02 -0.19123847282E+02  0.54404148526E+01  0.23117222814E+02  0.00000000000E+00 0. -1.
</event>
<event>
 8    1  0.2509489E-006  0.9118800E+02  0.7816164E-02  0.1184000E+00
        -11   -1    0    0    0    0  0.00000000000E+00  0.00000000000E+00  0.45593999997E+02  0.45594000000E+02  0.51100000000E-03 0.  1.
         11   -1    0    0    0    0 -0.00000000000E+00 -0.00000000000E+00 -0.45593999997E+02  0.45594000000E+02  0.51100000000E-03 0. -1.
         23    2    1    2    0    0  0.00000000000E+00 -0.35527136788E-14  0.00000000000E+00  0.91188000000E+02  0.91188000000E+02 0.  0.
    9900012    2    3    3    0    0  0.68681675493E+01  0.27185902118E+02 -0.23864942541E+02  0.54367075488E+02  0.39999980189E+02 0.  0.
        -12    1    3    3    0    0 -0.68681675493E+01 -0.27185902118E+02  0.23864942541E+02  0.36820924512E+02  0.00000000000E+00 0.  1.
         11    1    4    4    0    0 -0.48825789626E+01  0.15195253245E+02 -0.22692178973E+02  0.27742932169E+02  0.51100000000E-03 0. -1.
        -11    1    4    4    0    0  0.15904672203E+02  0.12623115484E+02 -0.50315129334E+01  0.20919315598E+02  0.51100000000E-03 0.  1.
         12    1    4    4    0    0 -0.41539256913E+01 -0.63246661212E+00  0.38587493651E+01  0.57048277210E+01  0.00000000000E+00 0. -1.
</event>
<event>
 8    1  0.2509489E-006  0.9118800E+02  0.7816164E-02  0.1184000E+00
        -11   -1    0    0    0    0  0.00000000000E+00  0.00000000000E+00  0.45593999997E+02  0.45594000000E+02  0.51100000000E-03 0.  1.
         11   -1    0    0    0    0 -0.00000000000E+00 -0.00000000000E+00 -0.45593999997E+02  0.45594000000E+02  0.51100000000E-03 0. -1.
         23    2    1    2    0    0 -0.71054273576E-14  0.00000000000E+00  0.00000000000E+00  0.91188000000E+02  0.91188000000E+02 0.  0.
    9900012    2    3    3    0    0  0.35695695658E+02  0.84779056769E+01 -0.31180283711E+01  0.54367086458E+02  0.40000005197E+02 0.  0.
         12    1    3    3    0    0 -0.35695695658E+02 -0.84779056769E+01  0.31180283711E+01  0.36820913542E+02  0.00000000000E+00 0. -1.
         11    1    4    4    0    0  0.21760641831E+02  0.33998048059E+01 -0.11455285713E+02  0.24825546855E+02  0.51100000000E-03 0. -1.
        -11    1    4    4    0    0  0.20401305743E+02  0.44979141729E+01  0.29365721022E+01  0.21096633947E+02  0.51100000000E-03 0.  1.
        -12    1    4    4    0    0 -0.64662519168E+01  0.58018669820E+00  0.54006852400E+01  0.84449056547E+01  0.00000000000E+00 0.  1.
</event>
<event>
 8    1  0.2509489E-006  0.9118800E+02  0.7816164E-02  0.1184000E+00
        -11   -1    0    0    0    0  0.00000000000E+00  0.00000000000E+00  0.45593999997E+02  0.45594000000E+02  0.51100000000E-03 0. -1.
         11   -1    0    0    0    0 -0.00000000000E+00 -0.00000000000E+00 -0.45593999997E+02  0.45594000000E+02  0.51100000000E-03 0.  1.
         23    2    1    2    0    0  0.00000000000E+00  0.35527136788E-14 -0.88817841970E-15  0.91188000000E+02  0.91188000000E+02 0.  0.
    9900012    2    3    3    0    0 -0.24128330339E+02  0.27382265944E+02  0.48799862895E+01  0.54367094534E+02  0.40000023609E+02 0.  0.
        -12    1    3    3    0    0  0.24128330339E+02 -0.27382265944E+02 -0.48799862895E+01  0.36820905466E+02  0.00000000000E+00 0.  1.
         11    1    4    4    0    0 -0.16697733691E+02  0.24984533258E+02  0.10922060580E+02  0.31973936575E+02  0.51100000000E-03 0. -1.
        -11    1    4    4    0    0 -0.34546635578E+01  0.42331659935E+01 -0.13039734713E+02  0.14138213334E+02  0.51100000000E-03 0.  1.
        -12    1    4    4    0    0 -0.39759330902E+01 -0.18354333069E+01  0.69976604233E+01  0.82549446251E+01  0.00000000000E+00 0.  1.
</event>
<event>
 8    1  0.2509489E-006  0.9118800E+02  0.7816164E-02  0.1184000E+00
        -11   -1    0    0    0    0  0.00000000000E+00  0.00000000000E+00  0.45593999997E+02  0.45594000000E+02  0.51100000000E-03 0. -1.
         11   -1    0    0    0    0 -0.00000000000E+00 -0.00000000000E+00 -0.45593999997E+02  0.45594000000E+02  0.51100000000E-03 0.  1.
         23    2    1    2    0    0  0.00000000000E+00  0.00000000000E+00 -0.88817841970E-15  0.91188000000E+02  0.91188000000E+02 0.  0.
    9900012    2    3    3    0    0  0.33353081843E+02 -0.13543998150E+02  0.77401928966E+01  0.54367101852E+02  0.40000040292E+02 0.  0.
        -12    1    3    3    0    0 -0.33353081843E+02  0.13543998150E+02 -0.77401928966E+01  0.36820898148E+02  0.00000000000E+00 0.  1.
         11    1    4    4    0    0  0.10293512653E+02 -0.20941986944E+02 -0.20390362524E+01  0.23423938375E+02  0.51100000000E-03 0. -1.
        -11    1    4    4    0    0  0.54650197545E+00  0.19020030395E+01 -0.36551408823E+01  0.41564810961E+01  0.51100000000E-03 0.  1.
         12    1    4    4    0    0  0.22513067215E+02  0.54959857546E+01  0.13434370031E+02  0.26786682381E+02  0.00000000000E+00 0. -1.
</event>
<event>
 8    1  0.2509489E-006  0.9118800E+02  0.7816164E-02  0.1184000E+00
        -11   -1    0    0    0    0  0.00000000000E+00  0.00000000000E+00  0.45593999997E+02  0.45594000000E+02  0.51100000000E-03 0.  1.
         11   -1    0    0    0    0 -0.00000000000E+00 -0.00000000000E+00 -0.45593999997E+02  0.45594000000E+02  0.51100000000E-03 0. -1.
         23    2    1    2    0    0  0.00000000000E+00  0.00000000000E+00 -0.35527136788E-14  0.91188000000E+02  0.91188000000E+02 0.  0.
    9900012    2    3    3    0    0  0.27767807403E+02  0.17530186505E+02  0.16655964977E+02  0.54367085615E+02  0.40000003276E+02 0.  0.
        -12    1    3    3    0    0 -0.27767807403E+02 -0.17530186505E+02 -0.16655964977E+02  0.36820914385E+02  0.00000000000E+00 0.  1.
         11    1    4    4    0    0 -0.22526252671E+01  0.58102929442E+01 -0.53810729286E+01  0.82334543671E+01  0.51100000000E-03 0. -1.
        -11    1    4    4    0    0 -0.88393327174E+00  0.81143807936E+01  0.96638262726E+01  0.12649666090E+02  0.51100000000E-03 0.  1.
         12    1    4    4    0    0  0.30904365942E+02  0.36055127672E+01  0.12373211633E+02  0.33483965158E+02  0.00000000000E+00 0. -1.
</event>
<event>
 8    1  0.2509489E-006  0.9118800E+02  0.7816164E-02  0.1184000E+00
        -11   -1    0    0    0    0  0.00000000000E+00  0.00000000000E+00  0.45593999997E+02  0.45594000000E+02  0.51100000000E-03 0. -1.
         11   -1    0    0    0    0 -0.00000000000E+00 -0.00000000000E+00 -0.45593999997E+02  0.45594000000E+02  0.51100000000E-03 0.  1.
         23    2    1    2    0    0 -0.71054273576E-14  0.00000000000E+00  0.00000000000E+00  0.91188000000E+02  0.91188000000E+02 0.  0.
    9900012    2    3    3    0    0 -0.35867714894E+02  0.54354910972E+01 -0.63042193612E+01  0.54367072296E+02  0.39999972914E+02 0.  0.
         12    1    3    3    0    0  0.35867714894E+02 -0.54354910972E+01  0.63042193612E+01  0.36820927704E+02  0.00000000000E+00 0. -1.
         11    1    4    4    0    0 -0.25434539356E+02  0.85186082697E+01 -0.10712856978E+01  0.26844554986E+02  0.51100000000E-03 0. -1.
        -11    1    4    4    0    0 -0.16910552970E+02 -0.67822453383E+01 -0.75344165227E+01  0.19716315229E+02  0.51100000000E-03 0.  1.
         12    1    4    4    0    0  0.64773774323E+01  0.36991281658E+01  0.23014828592E+01  0.78062020816E+01  0.00000000000E+00 0. -1.
</event>
<event>
 8    1  0.2509489E-006  0.9118800E+02  0.7816164E-02  0.1184000E+00
        -11   -1    0    0    0    0  0.00000000000E+00  0.00000000000E+00  0.45593999997E+02  0.45594000000E+02  0.51100000000E-03 0. -1.
         11   -1    0    0    0    0 -0.00000000000E+00 -0.00000000000E+00 -0.45593999997E+02  0.45594000000E+02  0.51100000000E-03 0.  1.
         23    2    1    2    0    0  0.19984014443E-14  0.00000000000E+00  0.00000000000E+00  0.91188000000E+02  0.91188000000E+02 0.  0.
    9900012    2    3    3    0    0  0.18599635655E+01 -0.24301130618E+02  0.27600288655E+02  0.54367077312E+02  0.39999984348E+02 0.  0.
        -12    1    3    3    0    0 -0.18599635655E+01  0.24301130618E+02 -0.27600288655E+02  0.36820922688E+02  0.00000000000E+00 0.  1.
         11    1    4    4    0    0 -0.58529201754E+01  0.80208546734E+00  0.69237344027E+01  0.91015445951E+01  0.51100000000E-03 0. -1.
        -11    1    4    4    0    0 -0.70568460712E+01 -0.88018783402E+01 -0.42185074851E+01  0.12044415488E+02  0.51100000000E-03 0.  1.
        -12    1    4    4    0    0  0.14769729812E+02 -0.16301337745E+02  0.24895061738E+02  0.33221117228E+02  0.00000000000E+00 0.  1.
</event>
<event>
 8    1  0.2509489E-006  0.9118800E+02  0.7816164E-02  0.1184000E+00
        -11   -1    0    0    0    0  0.00000000000E+00  0.00000000000E+00  0.45593999997E+02  0.45594000000E+02  0.51100000000E-03 0. -1.
         11   -1    0    0    0    0 -0.00000000000E+00 -0.00000000000E+00 -0.45593999997E+02  0.45594000000E+02  0.51100000000E-03 0.  1.
         23    2    1    2    0    0  0.44408920985E-15 -0.17763568394E-14  0.00000000000E+00  0.91188000000E+02  0.91188000000E+02 0.  0.
    9900012    2    3    3    0    0 -0.34205624579E+01 -0.13351077468E+02  0.34144257392E+02  0.54367057183E+02  0.39999938461E+02 0.  0.
        -12    1    3    3    0    0  0.34205624579E+01  0.13351077468E+02 -0.34144257392E+02  0.36820942817E+02  0.00000000000E+00 0.  1.
         11    1    4    4    0    0 -0.66140493264E+01 -0.10535374116E+02  0.91177045590E+01  0.15423109055E+02  0.51100000000E-03 0. -1.
        -11    1    4    4    0    0 -0.12067838052E+02 -0.42582412181E+01  0.50357038303E+01  0.13752223342E+02  0.51100000000E-03 0.  1.
         12    1    4    4    0    0  0.15261324921E+02  0.14425378659E+01  0.19990849002E+02  0.25191724786E+02  0.00000000000E+00 0. -1.
</event>
<event>
 8    1  0.2509489E-006  0.9118800E+02  0.7816164E-02  0.1184000E+00
        -11   -1    0    0    0    0  0.00000000000E+00  0.00000000000E+00  0.45593999997E+02  0.45594000000E+02  0.51100000000E-03 0. -1.
         11   -1    0    0    0    0 -0.00000000000E+00 -0.00000000000E+00 -0.45593999997E+02  0.45594000000E+02  0.51100000000E-03 0.  1.
         23    2    1    2    0    0 -0.35527136788E-14  0.00000000000E+00  0.00000000000E+00  0.91188000000E+02  0.91188000000E+02 0.  0.
    9900012    2    3    3    0    0  0.23977770155E+02 -0.21295968697E+02  0.18092223997E+02  0.54367077775E+02  0.39999985403E+02 0.  0.
        -12    1    3    3    0    0 -0.23977770155E+02  0.21295968697E+02 -0.18092223997E+02  0.36820922225E+02  0.00000000000E+00 0.  1.
         11    1    4    4    0    0  0.57360620289E+01 -0.15927557374E+02  0.10786755096E+01  0.16963284841E+02  0.51100000000E-03 0. -1.
        -11    1    4    4    0    0  0.24454380467E+02 -0.57924531015E+01  0.78573748990E+01  0.26330734466E+02  0.51100000000E-03 0.  1.
        -12    1    4    4    0    0 -0.62126723406E+01  0.42404177780E+00  0.91561735884E+01  0.11073058467E+02  0.00000000000E+00 0.  1.
</event>
<event>
 8    1  0.2509489E-006  0.9118800E+02  0.7816164E-02  0.1184000E+00
        -11   -1    0    0    0    0  0.00000000000E+00  0.00000000000E+00  0.45593999997E+02  0.45594000000E+02  0.51100000000E-03 0.  1.
         11   -1    0    0    0    0 -0.00000000000E+00 -0.00000000000E+00 -0.45593999997E+02  0.45594000000E+02  0.51100000000E-03 0. -1.
         23    2    1    2    0    0  0.00000000000E+00  0.00000000000E+00 -0.35527136788E-14  0.91188000000E+02  0.91188000000E+02 0.  0.
    9900012    2    3    3    0    0  0.23079130244E+02 -0.23014946077E+02 -0.17130268757E+02  0.54367080628E+02  0.39999991907E+02 0.  0.
        -12    1    3    3    0    0 -0.23079130244E+02  0.23014946077E+02  0.17130268757E+02  0.36820919372E+02  0.00000000000E+00 0.  1.
         11    1    4    4    0    0  0.85696212275E+01 -0.27056920802E+02 -0.43180296922E+01  0.28708200083E+02  0.51100000000E-03 0. -1.
        -11    1    4    4    0    0  0.93858430297E+01  0.65569099715E+01  0.19873750753E+00  0.11451052991E+02  0.51100000000E-03 0.  1.
        -12    1    4    4    0    0  0.51236659869E+01 -0.25149352455E+01 -0.13010976572E+02  0.14207827554E+02  0.00000000000E+00 0.  1.
</event>
<event>
 8    1  0.2509489E-006  0.9118800E+02  0.7816164E-02  0.1184000E+00
        -11   -1    0    0    0    0  0.00000000000E+00  0.00000000000E+00  0.45593999997E+02  0.45594000000E+02  0.51100000000E-03 0.  1.
         11   -1    0    0    0    0 -0.00000000000E+00 -0.00000000000E+00 -0.45593999997E+02  0.45594000000E+02  0.51100000000E-03 0. -1.
         23    2    1    2    0    0  0.00000000000E+00  0.00000000000E+00 -0.35527136788E-14  0.91188000000E+02  0.91188000000E+02 0.  0.
    9900012    2    3    3    0    0 -0.32487871655E+02  0.14275557327E+02 -0.98251478650E+01  0.54366988712E+02  0.39999782367E+02 0.  0.
        -12    1    3    3    0    0  0.32487871655E+02 -0.14275557327E+02  0.98251478650E+01  0.36821011288E+02  0.00000000000E+00 0.  1.
         11    1    4    4    0    0  0.18105138508E+01  0.18774261811E+00  0.44542164379E+01  0.48117826251E+01  0.51100000000E-03 0. -1.
        -11    1    4    4    0    0 -0.11484336228E+02 -0.12119742644E+00  0.85283214042E+01  0.14305136618E+02  0.51100000000E-03 0.  1.
         12    1    4    4    0    0 -0.22814049278E+02  0.14209012135E+02 -0.22807685707E+02  0.35250069470E+02  0.00000000000E+00 0. -1.
</event>
<event>
 8    1  0.2509489E-006  0.9118800E+02  0.7816164E-02  0.1184000E+00
        -11   -1    0    0    0    0  0.00000000000E+00  0.00000000000E+00  0.45593999997E+02  0.45594000000E+02  0.51100000000E-03 0.  1.
         11   -1    0    0    0    0 -0.00000000000E+00 -0.00000000000E+00 -0.45593999997E+02  0.45594000000E+02  0.51100000000E-03 0. -1.
         23    2    1    2    0    0 -0.71054273576E-14  0.00000000000E+00  0.10658141036E-13  0.91188000000E+02  0.91188000000E+02 0.  0.
    9900012    2    3    3    0    0 -0.23169229004E+02  0.62390077065E+01  0.27929139721E+02  0.54367146732E+02  0.40000142605E+02 0.  0.
         12    1    3    3    0    0  0.23169229004E+02 -0.62390077065E+01 -0.27929139721E+02  0.36820853268E+02  0.00000000000E+00 0. -1.
         11    1    4    4    0    0 -0.10315734948E+02  0.85001126981E+01  0.11716371527E+02  0.17774691711E+02  0.51100000000E-03 0. -1.
        -11    1    4    4    0    0 -0.29889322825E+01  0.75636619430E+01 -0.61868714187E+01  0.10218614211E+02  0.51100000000E-03 0.  1.
         12    1    4    4    0    0 -0.98645617734E+01 -0.98247669346E+01  0.22399639613E+02  0.26373840810E+02  0.00000000000E+00 0. -1.
</event>
<event>
 8    1  0.2509489E-006  0.9118800E+02  0.7816164E-02  0.1184000E+00
        -11   -1    0    0    0    0  0.00000000000E+00  0.00000000000E+00  0.45593999997E+02  0.45594000000E+02  0.51100000000E-03 0. -1.
         11   -1    0    0    0    0 -0.00000000000E+00 -0.00000000000E+00 -0.45593999997E+02  0.45594000000E+02  0.51100000000E-03 0.  1.
         23    2    1    2    0    0  0.35527136788E-14  0.00000000000E+00  0.00000000000E+00  0.91188000000E+02  0.91188000000E+02 0.  0.
    9900012    2    3    3    0    0 -0.20166448419E+02 -0.29166341489E+02 -0.99205201560E+01  0.54367111392E+02  0.40000062041E+02 0.  0.
         12    1    3    3    0    0  0.20166448419E+02  0.29166341489E+02  0.99205201560E+01  0.36820888608E+02  0.00000000000E+00 0. -1.
         11    1    4    4    0    0 -0.35418471460E+01 -0.40004341071E+01 -0.96017142146E+00  0.54286355257E+01  0.51100000000E-03 0. -1.
        -11    1    4    4    0    0 -0.10201353078E+02 -0.29148354090E+02 -0.19085610873E+02  0.36303645732E+02  0.51100000000E-03 0.  1.
         12    1    4    4    0    0 -0.64232481954E+01  0.39824467078E+01  0.10125262139E+02  0.12634830135E+02  0.00000000000E+00 0. -1.
</event>
<event>
 8    1  0.2509489E-006  0.9118800E+02  0.7816164E-02  0.1184000E+00
        -11   -1    0    0    0    0  0.00000000000E+00  0.00000000000E+00  0.45593999997E+02  0.45594000000E+02  0.51100000000E-03 0. -1.
         11   -1    0    0    0    0 -0.00000000000E+00 -0.00000000000E+00 -0.45593999997E+02  0.45594000000E+02  0.51100000000E-03 0.  1.
         23    2    1    2    0    0 -0.17763568394E-14  0.11102230246E-15 -0.71054273576E-14  0.91188000000E+02  0.91188000000E+02 0.  0.
    9900012    2    3    3    0    0 -0.14816467552E+02 -0.51315709523E+00 -0.33704436886E+02  0.54367080583E+02  0.39999991804E+02 0.  0.
         12    1    3    3    0    0  0.14816467552E+02  0.51315709523E+00  0.33704436886E+02  0.36820919417E+02  0.00000000000E+00 0. -1.
         11    1    4    4    0    0  0.29377207932E+01 -0.18874355882E+01  0.19971365994E+01  0.40225826798E+01  0.51100000000E-03 0. -1.
        -11    1    4    4    0    0 -0.40579292604E+01  0.16748146191E+01  0.54351434644E+01  0.69865999335E+01  0.51100000000E-03 0.  1.
        -12    1    4    4    0    0 -0.13696259084E+02 -0.30053612608E+00 -0.41136716950E+02  0.43357897969E+02  0.00000000000E+00 0.  1.
</event>
<event>
 8    1  0.2509489E-006  0.9118800E+02  0.7816164E-02  0.1184000E+00
        -11   -1    0    0    0    0  0.00000000000E+00  0.00000000000E+00  0.45593999997E+02  0.45594000000E+02  0.51100000000E-03 0.  1.
         11   -1    0    0    0    0 -0.00000000000E+00 -0.00000000000E+00 -0.45593999997E+02  0.45594000000E+02  0.51100000000E-03 0. -1.
         23    2    1    2    0    0  0.00000000000E+00  0.00000000000E+00 -0.35527136788E-14  0.91188000000E+02  0.91188000000E+02 0.  0.
    9900012    2    3    3    0    0  0.18192452230E+02 -0.97274650517E+01  0.30499038045E+02  0.54367079097E+02  0.39999988417E+02 0.  0.
         12    1    3    3    0    0 -0.18192452230E+02  0.97274650517E+01 -0.30499038045E+02  0.36820920903E+02  0.00000000000E+00 0. -1.
         11    1    4    4    0    0 -0.55561327805E+00 -0.50002151700E+01  0.58575521072E+01  0.77215137642E+01  0.51100000000E-03 0. -1.
        -11    1    4    4    0    0  0.21417772395E+00 -0.75547043195E+00 -0.84626244603E+01  0.84989776261E+01  0.51100000000E-03 0.  1.
        -12    1    4    4    0    0  0.18533887784E+02 -0.39717794497E+01  0.33104110398E+02  0.38146587707E+02  0.00000000000E+00 0.  1.
</event>
<event>
 8    1  0.2509489E-006  0.9118800E+02  0.7816164E-02  0.1184000E+00
        -11   -1    0    0    0    0  0.00000000000E+00  0.00000000000E+00  0.45593999997E+02  0.45594000000E+02  0.51100000000E-03 0. -1.
         11   -1    0    0    0    0 -0.00000000000E+00 -0.00000000000E+00 -0.45593999997E+02  0.45594000000E+02  0.51100000000E-03 0.  1.
         23    2    1    2    0    0  0.00000000000E+00  0.00000000000E+00  0.00000000000E+00  0.91188000000E+02  0.91188000000E+02 0.  0.
    9900012    2    3    3    0    0 -0.14603973985E+02 -0.39636332924E+01 -0.33567758573E+02  0.54367070346E+02  0.39999968467E+02 0.  0.
         12    1    3    3    0    0  0.14603973985E+02  0.39636332924E+01  0.33567758573E+02  0.36820929654E+02  0.00000000000E+00 0. -1.
         11    1    4    4    0    0  0.58184936182E+00  0.10773699411E+02 -0.24233215850E+02  0.26526588517E+02  0.51100000000E-03 0. -1.
        -11    1    4    4    0    0 -0.37444668840E+01  0.73936688142E+00 -0.76140203188E+01  0.85171005223E+01  0.51100000000E-03 0.  1.
         12    1    4    4    0    0 -0.11441356462E+02 -0.15476699585E+02 -0.17205224041E+01  0.19323381306E+02  0.00000000000E+00 0. -1.
</event>
<event>
 8    1  0.2509489E-006  0.9118800E+02  0.7816164E-02  0.1184000E+00
        -11   -1    0    0    0    0  0.00000000000E+00  0.00000000000E+00  0.45593999997E+02  0.45594000000E+02  0.51100000000E-03 0. -1.
         11   -1    0    0    0    0 -0.00000000000E+00 -0.00000000000E+00 -0.45593999997E+02  0.45594000000E+02  0.51100000000E-03 0.  1.
         23    2    1    2    0    0  0.00000000000E+00  0.00000000000E+00  0.00000000000E+00  0.91188000000E+02  0.91188000000E+02 0.  0.
    9900012    2    3    3    0    0 -0.35934285319E+01 -0.34939973338E+02  0.11048228833E+02  0.54367111556E+02  0.40000062414E+02 0.  0.
        -12    1    3    3    0    0  0.35934285319E+01  0.34939973338E+02 -0.11048228833E+02  0.36820888444E+02  0.00000000000E+00 0.  1.
         11    1    4    4    0    0  0.42132543752E+00  0.23892079366E+01  0.45308343301E+01  0.51394834056E+01  0.51100000000E-03 0. -1.
        -11    1    4    4    0    0  0.93836875645E+01 -0.19656685465E+02 -0.74476040749E+01  0.23019680330E+02  0.51100000000E-03 0.  1.
         12    1    4    4    0    0 -0.13398441534E+02 -0.17672495810E+02  0.13964998578E+02  0.26207947820E+02  0.00000000000E+00 0. -1.
</event>
<event>
 8    1  0.2509489E-006  0.9118800E+02  0.7816164E-02  0.1184000E+00
        -11   -1    0    0    0    0  0.00000000000E+00  0.00000000000E+00  0.45593999997E+02  0.45594000000E+02  0.51100000000E-03 0. -1.
         11   -1    0    0    0    0 -0.00000000000E+00 -0.00000000000E+00 -0.45593999997E+02  0.45594000000E+02  0.51100000000E-03 0.  1.
         23    2    1    2    0    0  0.00000000000E+00  0.71054273576E-14  0.13322676296E-14  0.91188000000E+02  0.91188000000E+02 0.  0.
    9900012    2    3    3    0    0  0.18939547149E+02  0.31510486774E+02 -0.20400235026E+01  0.54367096714E+02  0.40000028579E+02 0.  0.
        -12    1    3    3    0    0 -0.18939547149E+02 -0.31510486774E+02  0.20400235026E+01  0.36820903286E+02  0.00000000000E+00 0.  1.
         11    1    4    4    0    0  0.22267712751E+01  0.16039553147E+01 -0.10125758417E+02  0.10491051746E+02  0.51100000000E-03 0. -1.
        -11    1    4    4    0    0 -0.49845876703E+01 -0.55377224396E+00 -0.15635451273E+01  0.52533276661E+01  0.51100000000E-03 0.  1.
         12    1    4    4    0    0  0.21697363544E+02  0.30460303703E+02  0.96492800417E+01  0.38622717301E+02  0.00000000000E+00 0. -1.
</event>
<event>
 8    1  0.2509489E-006  0.9118800E+02  0.7816164E-02  0.1184000E+00
        -11   -1    0    0    0    0  0.00000000000E+00  0.00000000000E+00  0.45593999997E+02  0.45594000000E+02  0.51100000000E-03 0.  1.
         11   -1    0    0    0    0 -0.00000000000E+00 -0.00000000000E+00 -0.45593999997E+02  0.45594000000E+02  0.51100000000E-03 0. -1.
         23    2    1    2    0    0  0.00000000000E+00  0.35527136788E-14  0.71054273576E-14  0.91188000000E+02  0.91188000000E+02 0.  0.
    9900012    2    3    3    0    0  0.11149898739E+02 -0.20664842662E+02 -0.28362366785E+02  0.54367084561E+02  0.40000000874E+02 0.  0.
        -12    1    3    3    0    0 -0.11149898739E+02  0.20664842662E+02  0.28362366785E+02  0.36820915439E+02  0.00000000000E+00 0.  1.
         11    1    4    4    0    0 -0.53669786806E+00 -0.99506490893E+01  0.10909932996E-01  0.99651182224E+01  0.51100000000E-03 0. -1.
        -11    1    4    4    0    0 -0.38771411643E+01  0.80873005532E+01 -0.37175946025E+01  0.97086128636E+01  0.51100000000E-03 0.  1.
         12    1    4    4    0    0  0.15563737771E+02 -0.18801494126E+02 -0.24655682115E+02  0.34693353475E+02  0.00000000000E+00 0. -1.
</event>
<event>
 8    1  0.2509489E-006  0.9118800E+02  0.7816164E-02  0.1184000E+00
        -11   -1    0    0    0    0  0.00000000000E+00  0.00000000000E+00  0.45593999997E+02  0.45594000000E+02  0.51100000000E-03 0. -1.
         11   -1    0    0    0    0 -0.00000000000E+00 -0.00000000000E+00 -0.45593999997E+02  0.45594000000E+02  0.51100000000E-03 0.  1.
         23    2    1    2    0    0  0.00000000000E+00  0.00000000000E+00  0.00000000000E+00  0.91188000000E+02  0.91188000000E+02 0.  0.
    9900012    2    3    3    0    0  0.16691418277E+02  0.24257560451E+02  0.22107596736E+02  0.54367102176E+02  0.40000041031E+02 0.  0.
        -12    1    3    3    0    0 -0.16691418277E+02 -0.24257560451E+02 -0.22107596736E+02  0.36820897824E+02  0.00000000000E+00 0.  1.
         11    1    4    4    0    0  0.23447657514E+02  0.21521853982E+02  0.22917778983E+02  0.39219987704E+02  0.51100000000E-03 0. -1.
        -11    1    4    4    0    0  0.21123257839E+01  0.13624314262E+01  0.41808921901E+01  0.48783193187E+01  0.51100000000E-03 0.  1.
         12    1    4    4    0    0 -0.88685650208E+01  0.13732750427E+01 -0.49910744372E+01  0.10268795154E+02  0.00000000000E+00 0. -1.
</event>
<event>
 8    1  0.2509489E-006  0.9118800E+02  0.7816164E-02  0.1184000E+00
        -11   -1    0    0    0    0  0.00000000000E+00  0.00000000000E+00  0.45593999997E+02  0.45594000000E+02  0.51100000000E-03 0.  1.
         11   -1    0    0    0    0 -0.00000000000E+00 -0.00000000000E+00 -0.45593999997E+02  0.45594000000E+02  0.51100000000E-03 0. -1.
         23    2    1    2    0    0  0.00000000000E+00 -0.14432899320E-14 -0.44408920985E-15  0.91188000000E+02  0.91188000000E+02 0.  0.
    9900012    2    3    3    0    0  0.36641684048E+02  0.55390990281E+00  0.35859528451E+01  0.54367097188E+02  0.40000029659E+02 0.  0.
        -12    1    3    3    0    0 -0.36641684048E+02 -0.55390990281E+00 -0.35859528451E+01  0.36820902812E+02  0.00000000000E+00 0.  1.
         11    1    4    4    0    0  0.36548373824E+02 -0.92676288546E+01 -0.33666718918E+01  0.37855079629E+02  0.51100000000E-03 0. -1.
        -11    1    4    4    0    0  0.30569374230E+01  0.11142160510E+02  0.64392080778E+01  0.13227093716E+02  0.51100000000E-03 0.  1.
        -12    1    4    4    0    0 -0.29636271990E+01 -0.13206217530E+01  0.51341665910E+00  0.32849238431E+01  0.00000000000E+00 0.  1.
</event>
<event>
 8    1  0.2509489E-006  0.9118800E+02  0.7816164E-02  0.1184000E+00
        -11   -1    0    0    0    0  0.00000000000E+00  0.00000000000E+00  0.45593999997E+02  0.45594000000E+02  0.51100000000E-03 0.  1.
         11   -1    0    0    0    0 -0.00000000000E+00 -0.00000000000E+00 -0.45593999997E+02  0.45594000000E+02  0.51100000000E-03 0. -1.
         23    2    1    2    0    0  0.17763568394E-14  0.71054273576E-14  0.10658141036E-13  0.91188000000E+02  0.91188000000E+02 0.  0.
    9900012    2    3    3    0    0  0.59716004158E+01  0.19695728553E+02  0.30531914228E+02  0.54367088534E+02  0.40000009931E+02 0.  0.
         12    1    3    3    0    0 -0.59716004158E+01 -0.19695728553E+02 -0.30531914228E+02  0.36820911466E+02  0.00000000000E+00 0. -1.
         11    1    4    4    0    0  0.30895740767E+01 -0.35598219726E+01  0.60931994297E+00  0.47527961776E+01  0.51100000000E-03 0. -1.
        -11    1    4    4    0    0  0.17335135494E+02  0.14214756035E+02  0.15157638686E+02  0.27061415752E+02  0.51100000000E-03 0.  1.
         12    1    4    4    0    0 -0.14453109155E+02  0.90407944910E+01  0.14764955599E+02  0.22552876604E+02  0.00000000000E+00 0. -1.
</event>
<event>
 8    1  0.2509489E-006  0.9118800E+02  0.7816164E-02  0.1184000E+00
        -11   -1    0    0    0    0  0.00000000000E+00  0.00000000000E+00  0.45593999997E+02  0.45594000000E+02  0.51100000000E-03 0. -1.
         11   -1    0    0    0    0 -0.00000000000E+00 -0.00000000000E+00 -0.45593999997E+02  0.45594000000E+02  0.51100000000E-03 0.  1.
         23    2    1    2    0    0  0.17763568394E-14  0.35527136788E-14  0.00000000000E+00  0.91188000000E+02  0.91188000000E+02 0.  0.
    9900012    2    3    3    0    0  0.14180927346E+02  0.28358488186E+02  0.18721038409E+02  0.54367084317E+02  0.40000000318E+02 0.  0.
         12    1    3    3    0    0 -0.14180927346E+02 -0.28358488186E+02 -0.18721038409E+02  0.36820915683E+02  0.00000000000E+00 0. -1.
         11    1    4    4    0    0  0.84813796205E+01  0.18831384976E+01  0.19581637588E+02  0.21422430808E+02  0.51100000000E-03 0. -1.
        -11    1    4    4    0    0 -0.67834200474E+01  0.12144077154E+02 -0.89722499750E+00  0.13939096471E+02  0.51100000000E-03 0.  1.
        -12    1    4    4    0    0  0.12482967772E+02  0.14331272535E+02  0.36625819010E-01  0.19005557038E+02  0.00000000000E+00 0.  1.
</event>
<event>
 8    1  0.2509489E-006  0.9118800E+02  0.7816164E-02  0.1184000E+00
        -11   -1    0    0    0    0  0.00000000000E+00  0.00000000000E+00  0.45593999997E+02  0.45594000000E+02  0.51100000000E-03 0.  1.
         11   -1    0    0    0    0 -0.00000000000E+00 -0.00000000000E+00 -0.45593999997E+02  0.45594000000E+02  0.51100000000E-03 0. -1.
         23    2    1    2    0    0 -0.71054273576E-14 -0.13322676296E-14  0.00000000000E+00  0.91188000000E+02  0.91188000000E+02 0.  0.
    9900012    2    3    3    0    0  0.33762409252E+02 -0.32208215737E+01  0.14335467393E+02  0.54367087525E+02  0.40000007631E+02 0.  0.
         12    1    3    3    0    0 -0.33762409252E+02  0.32208215737E+01 -0.14335467393E+02  0.36820912475E+02  0.00000000000E+00 0. -1.
         11    1    4    4    0    0  0.16653731983E+02  0.91768029888E+01 -0.74983793501E+01  0.20439818864E+02  0.51100000000E-03 0. -1.
        -11    1    4    4    0    0  0.17358769559E+02 -0.11882072689E+02  0.12283400701E+02  0.24359648294E+02  0.51100000000E-03 0.  1.
         12    1    4    4    0    0 -0.25009228956E+00 -0.51555187384E+00  0.95504460424E+01  0.95676203675E+01  0.00000000000E+00 0. -1.
</event>
<event>
 8    1  0.2509489E-006  0.9118800E+02  0.7816164E-02  0.1184000E+00
        -11   -1    0    0    0    0  0.00000000000E+00  0.00000000000E+00  0.45593999997E+02  0.45594000000E+02  0.51100000000E-03 0.  1.
         11   -1    0    0    0    0 -0.00000000000E+00 -0.00000000000E+00 -0.45593999997E+02  0.45594000000E+02  0.51100000000E-03 0. -1.
         23    2    1    2    0    0 -0.35527136788E-14  0.00000000000E+00  0.00000000000E+00  0.91188000000E+02  0.91188000000E+02 0.  0.
    9900012    2    3    3    0    0  0.30976624192E+02 -0.16739019457E+02  0.10771449683E+02  0.54367215829E+02  0.40000300124E+02 0.  0.
         12    1    3    3    0    0 -0.30976624192E+02  0.16739019457E+02 -0.10771449683E+02  0.36820784171E+02  0.00000000000E+00 0. -1.
         11    1    4    4    0    0 -0.19869770210E+01 -0.17271219790E+01  0.31877434181E+01  0.41343362675E+01  0.51100000000E-03 0. -1.
        -11    1    4    4    0    0  0.29094614549E+02 -0.19797101161E+02  0.16922778716E+02  0.39048716367E+02  0.51100000000E-03 0.  1.
        -12    1    4    4    0    0  0.38689866645E+01  0.47852036835E+01 -0.93390724519E+01  0.11184163195E+02  0.00000000000E+00 0.  1.
</event>
<event>
 8    1  0.2509489E-006  0.9118800E+02  0.7816164E-02  0.1184000E+00
        -11   -1    0    0    0    0  0.00000000000E+00  0.00000000000E+00  0.45593999997E+02  0.45594000000E+02  0.51100000000E-03 0. -1.
         11   -1    0    0    0    0 -0.00000000000E+00 -0.00000000000E+00 -0.45593999997E+02  0.45594000000E+02  0.51100000000E-03 0.  1.
         23    2    1    2    0    0 -0.35527136788E-14 -0.17763568394E-14  0.71054273576E-14  0.91188000000E+02  0.91188000000E+02 0.  0.
    9900012    2    3    3    0    0  0.10614874424E+02 -0.52811563366E+01 -0.34859856135E+02  0.54367139866E+02  0.40000126952E+02 0.  0.
         12    1    3    3    0    0 -0.10614874424E+02  0.52811563366E+01  0.34859856135E+02  0.36820860134E+02  0.00000000000E+00 0. -1.
         11    1    4    4    0    0 -0.49660009742E+01 -0.13563121145E+02 -0.16131529138E+02  0.21652844004E+02  0.51100000000E-03 0. -1.
        -11    1    4    4    0    0 -0.14839724392E+01  0.77449299472E+01 -0.12008264186E+02  0.14366089346E+02  0.51100000000E-03 0.  1.
         12    1    4    4    0    0  0.17064847837E+02  0.53703486166E+00 -0.67200628114E+01  0.18348206515E+02  0.00000000000E+00 0. -1.
</event>
<event>
 8    1  0.2509489E-006  0.9118800E+02  0.7816164E-02  0.1184000E+00
        -11   -1    0    0    0    0  0.00000000000E+00  0.00000000000E+00  0.45593999997E+02  0.45594000000E+02  0.51100000000E-03 0. -1.
         11   -1    0    0    0    0 -0.00000000000E+00 -0.00000000000E+00 -0.45593999997E+02  0.45594000000E+02  0.51100000000E-03 0.  1.
         23    2    1    2    0    0  0.00000000000E+00  0.00000000000E+00  0.00000000000E+00  0.91188000000E+02  0.91188000000E+02 0.  0.
    9900012    2    3    3    0    0  0.34317741880E+01 -0.56728741215E+01  0.36219070516E+02  0.54367086867E+02  0.40000006131E+02 0.  0.
        -12    1    3    3    0    0 -0.34317741880E+01  0.56728741215E+01 -0.36219070516E+02  0.36820913133E+02  0.00000000000E+00 0.  1.
         11    1    4    4    0    0  0.15947585869E+01  0.11354453230E+01 -0.39772521940E+01  0.44329478124E+01  0.51100000000E-03 0. -1.
        -11    1    4    4    0    0  0.47159291180E+01 -0.33229393221E+01 -0.29996277033E+01  0.65022826611E+01  0.51100000000E-03 0.  1.
         12    1    4    4    0    0 -0.28789135170E+01 -0.34853801224E+01  0.43195950414E+02  0.43431856393E+02  0.00000000000E+00 0. -1.
</event>
<event>
 8    1  0.2509489E-006  0.9118800E+02  0.7816164E-02  0.1184000E+00
        -11   -1    0    0    0    0  0.00000000000E+00  0.00000000000E+00  0.45593999997E+02  0.45594000000E+02  0.51100000000E-03 0.  1.
         11   -1    0    0    0    0 -0.00000000000E+00 -0.00000000000E+00 -0.45593999997E+02  0.45594000000E+02  0.51100000000E-03 0. -1.
         23    2    1    2    0    0  0.35527136788E-14  0.00000000000E+00  0.00000000000E+00  0.91188000000E+02  0.91188000000E+02 0.  0.
    9900012    2    3    3    0    0  0.16549944266E+02 -0.61924662657E+01 -0.32303816745E+02  0.54367029481E+02  0.39999875307E+02 0.  0.
        -12    1    3    3    0    0 -0.16549944266E+02  0.61924662657E+01  0.32303816745E+02  0.36820970519E+02  0.00000000000E+00 0.  1.
         11    1    4    4    0    0  0.16923839544E+02 -0.12320991898E+02 -0.35665862132E+02  0.41355494292E+02  0.51100000000E-03 0. -1.
        -11    1    4    4    0    0 -0.10077729391E+01  0.84409967432E+01  0.52221790027E+01  0.99768324690E+01  0.51100000000E-03 0.  1.
         12    1    4    4    0    0  0.63387766181E+00 -0.23124711110E+01 -0.18601336158E+01  0.30347027199E+01  0.00000000000E+00 0. -1.
</event>
<event>
 8    1  0.2509489E-006  0.9118800E+02  0.7816164E-02  0.1184000E+00
        -11   -1    0    0    0    0  0.00000000000E+00  0.00000000000E+00  0.45593999997E+02  0.45594000000E+02  0.51100000000E-03 0. -1.
         11   -1    0    0    0    0 -0.00000000000E+00 -0.00000000000E+00 -0.45593999997E+02  0.45594000000E+02  0.51100000000E-03 0.  1.
         23    2    1    2    0    0  0.00000000000E+00 -0.35527136788E-14 -0.35527136788E-14  0.91188000000E+02  0.91188000000E+02 0.  0.
    9900012    2    3    3    0    0 -0.15763388685E+02  0.18150120005E+02  0.27890286503E+02  0.54367090720E+02  0.40000014915E+02 0.  0.
        -12    1    3    3    0    0  0.15763388685E+02 -0.18150120005E+02 -0.27890286503E+02  0.36820909280E+02  0.00000000000E+00 0.  1.
         11    1    4    4    0    0  0.61689283655E+00 -0.33880210105E+01  0.81930185252E+01  0.88873390818E+01  0.51100000000E-03 0. -1.
        -11    1    4    4    0    0 -0.24916009289E+02  0.16581381764E+02  0.97771771376E+01  0.31485598821E+02  0.51100000000E-03 0.  1.
        -12    1    4    4    0    0  0.85357277678E+01  0.49567592513E+01  0.99200908398E+01  0.13994152817E+02  0.00000000000E+00 0.  1.
</event>
<event>
 8    1  0.2509489E-006  0.9118800E+02  0.7816164E-02  0.1184000E+00
        -11   -1    0    0    0    0  0.00000000000E+00  0.00000000000E+00  0.45593999997E+02  0.45594000000E+02  0.51100000000E-03 0. -1.
         11   -1    0    0    0    0 -0.00000000000E+00 -0.00000000000E+00 -0.45593999997E+02  0.45594000000E+02  0.51100000000E-03 0.  1.
         23    2    1    2    0    0 -0.35527136788E-14 -0.17763568394E-14 -0.35527136788E-14  0.91188000000E+02  0.91188000000E+02 0.  0.
    9900012    2    3    3    0    0 -0.26248267490E+02 -0.53907533085E+01 -0.25253686867E+02  0.54367075679E+02  0.39999980626E+02 0.  0.
         12    1    3    3    0    0  0.26248267490E+02  0.53907533085E+01  0.25253686867E+02  0.36820924321E+02  0.00000000000E+00 0. -1.
         11    1    4    4    0    0  0.51384746521E+01  0.30766327716E+01  0.17985777576E+01  0.62533569523E+01  0.51100000000E-03 0. -1.
        -11    1    4    4    0    0 -0.22207311063E+02  0.34200711273E+00 -0.51732779848E+01  0.22804482868E+02  0.51100000000E-03 0.  1.
        -12    1    4    4    0    0 -0.91794310795E+01 -0.88093931929E+01 -0.21878986640E+02  0.25309235859E+02  0.00000000000E+00 0.  1.
</event>
<event>
 8    1  0.2509489E-006  0.9118800E+02  0.7816164E-02  0.1184000E+00
        -11   -1    0    0    0    0  0.00000000000E+00  0.00000000000E+00  0.45593999997E+02  0.45594000000E+02  0.51100000000E-03 0.  1.
         11   -1    0    0    0    0 -0.00000000000E+00 -0.00000000000E+00 -0.45593999997E+02  0.45594000000E+02  0.51100000000E-03 0. -1.
         23    2    1    2    0    0 -0.17763568394E-14 -0.35527136788E-14  0.00000000000E+00  0.91188000000E+02  0.91188000000E+02 0.  0.
    9900012    2    3    3    0    0  0.88010249316E+01 -0.18376890622E+02  0.30669393322E+02  0.54367084266E+02  0.40000000201E+02 0.  0.
         12    1    3    3    0    0 -0.88010249316E+01  0.18376890622E+02 -0.30669393322E+02  0.36820915734E+02  0.00000000000E+00 0. -1.
         11    1    4    4    0    0 -0.11084689882E+02  0.30426116106E+00  0.12484377136E+02  0.16697981835E+02  0.51100000000E-03 0. -1.
        -11    1    4    4    0    0  0.11017763028E+02 -0.20265983166E+02  0.88791384885E+01  0.24717206080E+02  0.51100000000E-03 0.  1.
         12    1    4    4    0    0  0.88679517854E+01  0.15848313830E+01  0.93058776970E+01  0.12951896351E+02  0.00000000000E+00 0. -1.
</event>
<event>
 8    1  0.2509489E-006  0.9118800E+02  0.7816164E-02  0.1184000E+00
        -11   -1    0    0    0    0  0.00000000000E+00  0.00000000000E+00  0.45593999997E+02  0.45594000000E+02  0.51100000000E-03 0.  1.
         11   -1    0    0    0    0 -0.00000000000E+00 -0.00000000000E+00 -0.45593999997E+02  0.45594000000E+02  0.51100000000E-03 0. -1.
         23    2    1    2    0    0  0.00000000000E+00  0.00000000000E+00  0.00000000000E+00  0.91188000000E+02  0.91188000000E+02 0.  0.
    9900012    2    3    3    0    0 -0.98084121649E+01  0.26736492933E+02 -0.23339565882E+02  0.54367077427E+02  0.39999984611E+02 0.  0.
        -12    1    3    3    0    0  0.98084121649E+01 -0.26736492933E+02  0.23339565882E+02  0.36820922573E+02  0.00000000000E+00 0.  1.
         11    1    4    4    0    0 -0.17441227554E+01  0.23454643173E+02 -0.21605315773E+01  0.23618428134E+02  0.51100000000E-03 0. -1.
        -11    1    4    4    0    0 -0.43607696806E+01  0.24608844989E+01  0.32873700622E+01  0.59899137650E+01  0.51100000000E-03 0.  1.
        -12    1    4    4    0    0 -0.37035197289E+01  0.82096526152E+00 -0.24466404367E+02  0.24758735529E+02  0.00000000000E+00 0.  1.
</event>
<event>
 8    1  0.2509489E-006  0.9118800E+02  0.7816164E-02  0.1184000E+00
        -11   -1    0    0    0    0  0.00000000000E+00  0.00000000000E+00  0.45593999997E+02  0.45594000000E+02  0.51100000000E-03 0.  1.
         11   -1    0    0    0    0 -0.00000000000E+00 -0.00000000000E+00 -0.45593999997E+02  0.45594000000E+02  0.51100000000E-03 0. -1.
         23    2    1    2    0    0  0.17763568394E-14  0.35527136788E-14  0.35527136788E-14  0.91188000000E+02  0.91188000000E+02 0.  0.
    9900012    2    3    3    0    0  0.41464110422E+01  0.28608584739E+02  0.22806484757E+02  0.54367087568E+02  0.40000007730E+02 0.  0.
         12    1    3    3    0    0 -0.41464110422E+01 -0.28608584739E+02 -0.22806484757E+02  0.36820912432E+02  0.00000000000E+00 0. -1.
         11    1    4    4    0    0  0.21106994434E+01  0.68024862906E+00  0.14586865109E+01  0.26543468003E+01  0.51100000000E-03 0. -1.
        -11    1    4    4    0    0  0.19965671728E+02  0.15603945660E+02  0.11164388571E+02  0.27690336584E+02  0.51100000000E-03 0.  1.
         12    1    4    4    0    0 -0.17929960129E+02  0.12324390450E+02  0.10183409675E+02  0.24022404184E+02  0.00000000000E+00 0. -1.
</event>
<event>
 8    1  0.2509489E-006  0.9118800E+02  0.7816164E-02  0.1184000E+00
        -11   -1    0    0    0    0  0.00000000000E+00  0.00000000000E+00  0.45593999997E+02  0.45594000000E+02  0.51100000000E-03 0. -1.
         11   -1    0    0    0    0 -0.00000000000E+00 -0.00000000000E+00 -0.45593999997E+02  0.45594000000E+02  0.51100000000E-03 0.  1.
         23    2    1    2    0    0  0.17763568394E-14  0.35527136788E-14  0.00000000000E+00  0.91188000000E+02  0.91188000000E+02 0.  0.
    9900012    2    3    3    0    0 -0.14405322244E+02 -0.31252345982E+02  0.13098014800E+02  0.54367076192E+02  0.39999981795E+02 0.  0.
        -12    1    3    3    0    0  0.14405322244E+02  0.31252345982E+02 -0.13098014800E+02  0.36820923808E+02  0.00000000000E+00 0.  1.
         11    1    4    4    0    0 -0.78702330172E+01 -0.22517346852E+01  0.15900388698E+02  0.17883882069E+02  0.51100000000E-03 0. -1.
        -11    1    4    4    0    0  0.45658466687E+01  0.48309803569E+00 -0.18916469108E+01  0.49657494711E+01  0.51100000000E-03 0.  1.
        -12    1    4    4    0    0 -0.11100935895E+02 -0.29483709333E+02 -0.91072698684E+00  0.31517444652E+02  0.00000000000E+00 0.  1.
</event>
<event>
 8    1  0.2509489E-006  0.9118800E+02  0.7816164E-02  0.1184000E+00
        -11   -1    0    0    0    0  0.00000000000E+00  0.00000000000E+00  0.45593999997E+02  0.45594000000E+02  0.51100000000E-03 0.  1.
         11   -1    0    0    0    0 -0.00000000000E+00 -0.00000000000E+00 -0.45593999997E+02  0.45594000000E+02  0.51100000000E-03 0. -1.
         23    2    1    2    0    0 -0.35527136788E-14  0.00000000000E+00  0.00000000000E+00  0.91188000000E+02  0.91188000000E+02 0.  0.
    9900012    2    3    3    0    0  0.18022187027E+02 -0.31844600539E+02  0.41114906817E+01  0.54367052642E+02  0.39999928107E+02 0.  0.
         12    1    3    3    0    0 -0.18022187027E+02  0.31844600539E+02 -0.41114906817E+01  0.36820947358E+02  0.00000000000E+00 0. -1.
         11    1    4    4    0    0  0.11564110527E+02 -0.22015583035E+01  0.96042822655E+01  0.15192687364E+02  0.51100000000E-03 0. -1.
        -11    1    4    4    0    0  0.65353321044E+01  0.13004585703E+01  0.26599931424E+01  0.71747698211E+01  0.51100000000E-03 0.  1.
        -12    1    4    4    0    0 -0.77255604757E-01 -0.30943500806E+02 -0.81527847261E+01  0.31999595456E+02  0.00000000000E+00 0.  1.
</event>
<event>
 8    1  0.2509489E-006  0.9118800E+02  0.7816164E-02  0.1184000E+00
        -11   -1    0    0    0    0  0.00000000000E+00  0.00000000000E+00  0.45593999997E+02  0.45594000000E+02  0.51100000000E-03 0. -1.
         11   -1    0    0    0    0 -0.00000000000E+00 -0.00000000000E+00 -0.45593999997E+02  0.45594000000E+02  0.51100000000E-03 0.  1.
         23    2    1    2    0    0  0.00000000000E+00  0.00000000000E+00  0.00000000000E+00  0.91188000000E+02  0.91188000000E+02 0.  0.
    9900012    2    3    3    0    0  0.20929636015E+02 -0.51401207760E+01 -0.29854789565E+02  0.54367096083E+02  0.40000027140E+02 0.  0.
         12    1    3    3    0    0 -0.20929636015E+02  0.51401207760E+01  0.29854789565E+02  0.36820903917E+02  0.00000000000E+00 0. -1.
         11    1    4    4    0    0  0.42174208488E+01  0.97946474924E+00  0.81355918123E+01  0.92159559574E+01  0.51100000000E-03 0. -1.
        -11    1    4    4    0    0  0.55154663355E+01 -0.99848756957E+01 -0.25511747164E+02  0.27945793157E+02  0.51100000000E-03 0.  1.
        -12    1    4    4    0    0  0.11196748831E+02  0.38652901704E+01 -0.12478634213E+02  0.17205346969E+02  0.00000000000E+00 0.  1.
</event>
<event>
 8    1  0.2509489E-006  0.9118800E+02  0.7816164E-02  0.1184000E+00
        -11   -1    0    0    0    0  0.00000000000E+00  0.00000000000E+00  0.45593999997E+02  0.45594000000E+02  0.51100000000E-03 0.  1.
         11   -1    0    0    0    0 -0.00000000000E+00 -0.00000000000E+00 -0.45593999997E+02  0.45594000000E+02  0.51100000000E-03 0. -1.
         23    2    1    2    0    0  0.00000000000E+00  0.00000000000E+00  0.00000000000E+00  0.91188000000E+02  0.91188000000E+02 0.  0.
    9900012    2    3    3    0    0 -0.86073866365E+01  0.45536152623E+01  0.35509951394E+02  0.54367093375E+02  0.40000020968E+02 0.  0.
         12    1    3    3    0    0  0.86073866365E+01 -0.45536152623E+01 -0.35509951394E+02  0.36820906625E+02  0.00000000000E+00 0. -1.
         11    1    4    4    0    0  0.39349130162E+01 -0.47944693308E+01  0.23749650443E+02  0.24546208934E+02  0.51100000000E-03 0. -1.
        -11    1    4    4    0    0 -0.10913849973E+02  0.10816922528E+02  0.17729411144E+02  0.23461669889E+02  0.51100000000E-03 0.  1.
        -12    1    4    4    0    0 -0.16284496799E+01 -0.14688379346E+01 -0.59691101927E+01  0.63592145530E+01  0.00000000000E+00 0.  1.
</event>
<event>
 8    1  0.2509489E-006  0.9118800E+02  0.7816164E-02  0.1184000E+00
        -11   -1    0    0    0    0  0.00000000000E+00  0.00000000000E+00  0.45593999997E+02  0.45594000000E+02  0.51100000000E-03 0. -1.
         11   -1    0    0    0    0 -0.00000000000E+00 -0.00000000000E+00 -0.45593999997E+02  0.45594000000E+02  0.51100000000E-03 0.  1.
         23    2    1    2    0    0  0.00000000000E+00 -0.35527136788E-14  0.00000000000E+00  0.91188000000E+02  0.91188000000E+02 0.  0.
    9900012    2    3    3    0    0  0.14550288872E+02  0.11080918348E+02 -0.31957537905E+02  0.54367056413E+02  0.39999936705E+02 0.  0.
         12    1    3    3    0    0 -0.14550288872E+02 -0.11080918348E+02  0.31957537905E+02  0.36820943587E+02  0.00000000000E+00 0. -1.
         11    1    4    4    0    0  0.28193698375E+01 -0.36356359761E+01  0.84525323482E+01  0.96235127989E+01  0.51100000000E-03 0. -1.
        -11    1    4    4    0    0  0.89967256428E+01  0.83487822832E+01 -0.26361690392E+02  0.29078891975E+02  0.51100000000E-03 0.  1.
         12    1    4    4    0    0  0.27341933915E+01  0.63677720412E+01 -0.14048379861E+02  0.15664651640E+02  0.00000000000E+00 0. -1.
</event>
<event>
 8    1  0.2509489E-006  0.9118800E+02  0.7816164E-02  0.1184000E+00
        -11   -1    0    0    0    0  0.00000000000E+00  0.00000000000E+00  0.45593999997E+02  0.45594000000E+02  0.51100000000E-03 0. -1.
         11   -1    0    0    0    0 -0.00000000000E+00 -0.00000000000E+00 -0.45593999997E+02  0.45594000000E+02  0.51100000000E-03 0.  1.
         23    2    1    2    0    0 -0.35527136788E-14  0.00000000000E+00  0.00000000000E+00  0.91188000000E+02  0.91188000000E+02 0.  0.
    9900012    2    3    3    0    0  0.30321474995E+02 -0.20482407615E+02 -0.41059320829E+01  0.54367088199E+02  0.40000009167E+02 0.  0.
        -12    1    3    3    0    0 -0.30321474995E+02  0.20482407615E+02  0.41059320829E+01  0.36820911801E+02  0.00000000000E+00 0.  1.
         11    1    4    4    0    0 -0.50491754927E+01  0.41110046828E+01 -0.51813554434E+01  0.83211163403E+01  0.51100000000E-03 0. -1.
        -11    1    4    4    0    0 -0.13772115595E+01 -0.59249402523E+00  0.15439947015E+01  0.21521339988E+01  0.51100000000E-03 0.  1.
         12    1    4    4    0    0  0.36747862047E+02 -0.24000918273E+02 -0.46857134096E+00  0.43893837860E+02  0.00000000000E+00 0. -1.
</event>
<event>
 8    1  0.2509489E-006  0.9118800E+02  0.7816164E-02  0.1184000E+00
        -11   -1    0    0    0    0  0.00000000000E+00  0.00000000000E+00  0.45593999997E+02  0.45594000000E+02  0.51100000000E-03 0. -1.
         11   -1    0    0    0    0 -0.00000000000E+00 -0.00000000000E+00 -0.45593999997E+02  0.45594000000E+02  0.51100000000E-03 0.  1.
         23    2    1    2    0    0  0.00000000000E+00  0.66613381478E-15  0.00000000000E+00  0.91188000000E+02  0.91188000000E+02 0.  0.
    9900012    2    3    3    0    0  0.35340068270E+02  0.64340817670E+00  0.10317176706E+02  0.54367101931E+02  0.40000040473E+02 0.  0.
         12    1    3    3    0    0 -0.35340068270E+02 -0.64340817670E+00 -0.10317176706E+02  0.36820898069E+02  0.00000000000E+00 0. -1.
         11    1    4    4    0    0  0.21206804331E+02 -0.13848900707E+02  0.11582941522E+02  0.27851124489E+02  0.51100000000E-03 0. -1.
        -11    1    4    4    0    0  0.35412170104E+01  0.67373623555E+01 -0.85953082629E+01  0.11480923039E+02  0.51100000000E-03 0.  1.
         12    1    4    4    0    0  0.10592046928E+02  0.77549465283E+01  0.73295434463E+01  0.15035054403E+02  0.00000000000E+00 0. -1.
</event>
<event>
 8    1  0.2509489E-006  0.9118800E+02  0.7816164E-02  0.1184000E+00
        -11   -1    0    0    0    0  0.00000000000E+00  0.00000000000E+00  0.45593999997E+02  0.45594000000E+02  0.51100000000E-03 0.  1.
         11   -1    0    0    0    0 -0.00000000000E+00 -0.00000000000E+00 -0.45593999997E+02  0.45594000000E+02  0.51100000000E-03 0. -1.
         23    2    1    2    0    0  0.35527136788E-14  0.66613381478E-15  0.00000000000E+00  0.91188000000E+02  0.91188000000E+02 0.  0.
    9900012    2    3    3    0    0  0.25313341400E+02 -0.13756866237E+01 -0.26704354493E+02  0.54367077749E+02  0.39999985344E+02 0.  0.
        -12    1    3    3    0    0 -0.25313341400E+02  0.13756866237E+01  0.26704354493E+02  0.36820922251E+02  0.00000000000E+00 0.  1.
         11    1    4    4    0    0  0.22361713441E+02  0.39554542139E+01 -0.12498147923E+02  0.25920948050E+02  0.51100000000E-03 0. -1.
        -11    1    4    4    0    0  0.44871904328E+00  0.82535742250E+01  0.48604019427E+00  0.82800405554E+01  0.51100000000E-03 0.  1.
        -12    1    4    4    0    0  0.25029089166E+01 -0.13584715063E+02 -0.14692246764E+02  0.20166089144E+02  0.00000000000E+00 0.  1.
</event>
<event>
 8    1  0.2509489E-006  0.9118800E+02  0.7816164E-02  0.1184000E+00
        -11   -1    0    0    0    0  0.00000000000E+00  0.00000000000E+00  0.45593999997E+02  0.45594000000E+02  0.51100000000E-03 0.  1.
         11   -1    0    0    0    0 -0.00000000000E+00 -0.00000000000E+00 -0.45593999997E+02  0.45594000000E+02  0.51100000000E-03 0. -1.
         23    2    1    2    0    0  0.00000000000E+00  0.00000000000E+00  0.00000000000E+00  0.91188000000E+02  0.91188000000E+02 0.  0.
    9900012    2    3    3    0    0  0.20282825019E+02  0.26886919429E+02  0.14882209637E+02  0.54367087589E+02  0.40000007776E+02 0.  0.
         12    1    3    3    0    0 -0.20282825019E+02 -0.26886919429E+02 -0.14882209637E+02  0.36820912411E+02  0.00000000000E+00 0. -1.
         11    1    4    4    0    0  0.12191489840E+02  0.14988843178E+02  0.12871847180E+02  0.23215992213E+02  0.51100000000E-03 0. -1.
        -11    1    4    4    0    0  0.35692954200E+01 -0.11384252708E+00  0.13475762586E+02  0.13940911285E+02  0.51100000000E-03 0.  1.
         12    1    4    4    0    0  0.45220397591E+01  0.12011918778E+02 -0.11465400129E+02  0.17210184091E+02  0.00000000000E+00 0. -1.
</event>
<event>
 8    1  0.2509489E-006  0.9118800E+02  0.7816164E-02  0.1184000E+00
        -11   -1    0    0    0    0  0.00000000000E+00  0.00000000000E+00  0.45593999997E+02  0.45594000000E+02  0.51100000000E-03 0. -1.
         11   -1    0    0    0    0 -0.00000000000E+00 -0.00000000000E+00 -0.45593999997E+02  0.45594000000E+02  0.51100000000E-03 0.  1.
         23    2    1    2    0    0 -0.44408920985E-15  0.35527136788E-14  0.00000000000E+00  0.91188000000E+02  0.91188000000E+02 0.  0.
    9900012    2    3    3    0    0  0.37941751407E+00 -0.27195961323E+02 -0.24819696297E+02  0.54367060384E+02  0.39999945758E+02 0.  0.
         12    1    3    3    0    0 -0.37941751407E+00  0.27195961323E+02  0.24819696297E+02  0.36820939616E+02  0.00000000000E+00 0. -1.
         11    1    4    4    0    0 -0.12741158999E+02  0.32473506812E-01 -0.83387787385E+01  0.15227390396E+02  0.51100000000E-03 0. -1.
        -11    1    4    4    0    0  0.18619284701E+00 -0.22196112639E-01  0.31680406408E+01  0.31735850716E+01  0.51100000000E-03 0.  1.
        -12    1    4    4    0    0  0.12934383666E+02 -0.27206238717E+02 -0.19648958199E+02  0.35966084917E+02  0.00000000000E+00 0.  1.
</event>
<event>
 8    1  0.2509489E-006  0.9118800E+02  0.7816164E-02  0.1184000E+00
        -11   -1    0    0    0    0  0.00000000000E+00  0.00000000000E+00  0.45593999997E+02  0.45594000000E+02  0.51100000000E-03 0.  1.
         11   -1    0    0    0    0 -0.00000000000E+00 -0.00000000000E+00 -0.45593999997E+02  0.45594000000E+02  0.51100000000E-03 0. -1.
         23    2    1    2    0    0  0.00000000000E+00  0.00000000000E+00  0.00000000000E+00  0.91188000000E+02  0.91188000000E+02 0.  0.
    9900012    2    3    3    0    0 -0.90149556103E+01 -0.16472145080E+02  0.31673009993E+02  0.54367074561E+02  0.39999978077E+02 0.  0.
         12    1    3    3    0    0  0.90149556103E+01  0.16472145080E+02 -0.31673009993E+02  0.36820925439E+02  0.00000000000E+00 0. -1.
         11    1    4    4    0    0  0.42385826923E+01 -0.13762139893E+02 -0.17382502888E+00  0.14401121243E+02  0.51100000000E-03 0. -1.
        -11    1    4    4    0    0 -0.17356317028E+02 -0.62540417852E+01  0.26954003224E+02  0.32663022969E+02  0.51100000000E-03 0.  1.
        -12    1    4    4    0    0  0.41027787251E+01  0.35440365980E+01  0.48928317975E+01  0.73029303484E+01  0.00000000000E+00 0.  1.
</event>
<event>
 8    1  0.2509489E-006  0.9118800E+02  0.7816164E-02  0.1184000E+00
        -11   -1    0    0    0    0  0.00000000000E+00  0.00000000000E+00  0.45593999997E+02  0.45594000000E+02  0.51100000000E-03 0. -1.
         11   -1    0    0    0    0 -0.00000000000E+00 -0.00000000000E+00 -0.45593999997E+02  0.45594000000E+02  0.51100000000E-03 0.  1.
         23    2    1    2    0    0 -0.71054273576E-14  0.88817841970E-15  0.99920072216E-15  0.91188000000E+02  0.91188000000E+02 0.  0.
    9900012    2    3    3    0    0 -0.36124078939E+02  0.71055773230E+01  0.58690538107E+00  0.54367044469E+02  0.39999909476E+02 0.  0.
        -12    1    3    3    0    0  0.36124078939E+02 -0.71055773230E+01 -0.58690538107E+00  0.36820955531E+02  0.00000000000E+00 0.  1.
         11    1    4    4    0    0  0.23307565376E+00  0.84943390515E+01 -0.80847828926E+01  0.11729102048E+02  0.51100000000E-03 0. -1.
        -11    1    4    4    0    0 -0.83040299153E-01 -0.52616678508E+01  0.89295455984E+00  0.53375474116E+01  0.51100000000E-03 0.  1.
        -12    1    4    4    0    0 -0.36274114294E+02  0.38729061223E+01  0.77787337138E+01  0.37300395009E+02  0.00000000000E+00 0.  1.
</event>
<event>
 8    1  0.2509489E-006  0.9118800E+02  0.7816164E-02  0.1184000E+00
        -11   -1    0    0    0    0  0.00000000000E+00  0.00000000000E+00  0.45593999997E+02  0.45594000000E+02  0.51100000000E-03 0.  1.
         11   -1    0    0    0    0 -0.00000000000E+00 -0.00000000000E+00 -0.45593999997E+02  0.45594000000E+02  0.51100000000E-03 0. -1.
         23    2    1    2    0    0  0.00000000000E+00  0.17763568394E-14  0.00000000000E+00  0.91188000000E+02  0.91188000000E+02 0.  0.
    9900012    2    3    3    0    0 -0.30841103652E+02 -0.13958024354E+02  0.14483740452E+02  0.54367097569E+02  0.40000030528E+02 0.  0.
         12    1    3    3    0    0  0.30841103652E+02  0.13958024354E+02 -0.14483740452E+02  0.36820902431E+02  0.00000000000E+00 0. -1.
         11    1    4    4    0    0 -0.10473378909E+02 -0.53615369480E+01 -0.51500672505E+01  0.12843711970E+02  0.51100000000E-03 0. -1.
        -11    1    4    4    0    0 -0.25484458766E+02 -0.10943179260E+02  0.22016210703E+02  0.35410794186E+02  0.51100000000E-03 0.  1.
        -12    1    4    4    0    0  0.51167340232E+01  0.23466918540E+01 -0.23824030003E+01  0.61125914126E+01  0.00000000000E+00 0.  1.
</event>
<event>
 8    1  0.2509489E-006  0.9118800E+02  0.7816164E-02  0.1184000E+00
        -11   -1    0    0    0    0  0.00000000000E+00  0.00000000000E+00  0.45593999997E+02  0.45594000000E+02  0.51100000000E-03 0.  1.
         11   -1    0    0    0    0 -0.00000000000E+00 -0.00000000000E+00 -0.45593999997E+02  0.45594000000E+02  0.51100000000E-03 0. -1.
         23    2    1    2    0    0  0.00000000000E+00  0.00000000000E+00 -0.22204460493E-15  0.91188000000E+02  0.91188000000E+02 0.  0.
    9900012    2    3    3    0    0  0.35435836098E+02 -0.10000316580E+02 -0.26385213227E+00  0.54367157674E+02  0.40000167549E+02 0.  0.
        -12    1    3    3    0    0 -0.35435836098E+02  0.10000316580E+02  0.26385213227E+00  0.36820842326E+02  0.00000000000E+00 0.  1.
         11    1    4    4    0    0  0.90370688045E+01  0.67085219177E+01  0.44510456215E+01  0.12103085817E+02  0.51100000000E-03 0. -1.
        -11    1    4    4    0    0 -0.75443433437E+00 -0.21032192784E+01  0.84488944300E+01  0.87393661010E+01  0.51100000000E-03 0.  1.
         12    1    4    4    0    0  0.27153201628E+02 -0.14605619219E+02 -0.13163792184E+02  0.33524705756E+02  0.00000000000E+00 0. -1.
</event>
<event>
 8    1  0.2509489E-006  0.9118800E+02  0.7816164E-02  0.1184000E+00
        -11   -1    0    0    0    0  0.00000000000E+00  0.00000000000E+00  0.45593999997E+02  0.45594000000E+02  0.51100000000E-03 0. -1.
         11   -1    0    0    0    0 -0.00000000000E+00 -0.00000000000E+00 -0.45593999997E+02  0.45594000000E+02  0.51100000000E-03 0.  1.
         23    2    1    2    0    0 -0.71054273576E-14 -0.35527136788E-14  0.77715611724E-15  0.91188000000E+02  0.91188000000E+02 0.  0.
    9900012    2    3    3    0    0  0.32876732783E+02  0.16579209868E+02  0.17101996531E+00  0.54367095528E+02  0.40000025876E+02 0.  0.
        -12    1    3    3    0    0 -0.32876732783E+02 -0.16579209868E+02 -0.17101996531E+00  0.36820904472E+02  0.00000000000E+00 0.  1.
         11    1    4    4    0    0  0.17555959220E+02 -0.32903911141E+01  0.25240981547E+00  0.17863428809E+02  0.51100000000E-03 0. -1.
        -11    1    4    4    0    0  0.54351058248E+01  0.47706475274E+01 -0.12608146493E+02  0.14534951372E+02  0.51100000000E-03 0.  1.
         12    1    4    4    0    0  0.98856677375E+01  0.15098953454E+02  0.12526756642E+02  0.21968715347E+02  0.00000000000E+00 0. -1.
</event>
<event>
 8    1  0.2509489E-006  0.9118800E+02  0.7816164E-02  0.1184000E+00
        -11   -1    0    0    0    0  0.00000000000E+00  0.00000000000E+00  0.45593999997E+02  0.45594000000E+02  0.51100000000E-03 0.  1.
         11   -1    0    0    0    0 -0.00000000000E+00 -0.00000000000E+00 -0.45593999997E+02  0.45594000000E+02  0.51100000000E-03 0. -1.
         23    2    1    2    0    0  0.00000000000E+00  0.00000000000E+00  0.00000000000E+00  0.91188000000E+02  0.91188000000E+02 0.  0.
    9900012    2    3    3    0    0  0.32154864481E+02 -0.10656815611E+02  0.14431497857E+02  0.54367202084E+02  0.40000268790E+02 0.  0.
         12    1    3    3    0    0 -0.32154864481E+02  0.10656815611E+02 -0.14431497857E+02  0.36820797916E+02  0.00000000000E+00 0. -1.
         11    1    4    4    0    0  0.16917082230E+02  0.61493441633E+01  0.10862207639E+02  0.21023550125E+02  0.51100000000E-03 0. -1.
        -11    1    4    4    0    0 -0.11745946635E+01 -0.96713449652E+01  0.10342630551E+02  0.14208609821E+02  0.51100000000E-03 0.  1.
        -12    1    4    4    0    0  0.16412376915E+02 -0.71348148087E+01 -0.67733403329E+01  0.19135042138E+02  0.00000000000E+00 0.  1.
</event>
<event>
 8    1  0.2509489E-006  0.9118800E+02  0.7816164E-02  0.1184000E+00
        -11   -1    0    0    0    0  0.00000000000E+00  0.00000000000E+00  0.45593999997E+02  0.45594000000E+02  0.51100000000E-03 0.  1.
         11   -1    0    0    0    0 -0.00000000000E+00 -0.00000000000E+00 -0.45593999997E+02  0.45594000000E+02  0.51100000000E-03 0. -1.
         23    2    1    2    0    0  0.00000000000E+00  0.00000000000E+00 -0.88817841970E-15  0.91188000000E+02  0.91188000000E+02 0.  0.
    9900012    2    3    3    0    0  0.24561208792E+02  0.27114452791E+02  0.41635220166E+01  0.54367062437E+02  0.39999950437E+02 0.  0.
         12    1    3    3    0    0 -0.24561208792E+02 -0.27114452791E+02 -0.41635220166E+01  0.36820937563E+02  0.00000000000E+00 0. -1.
         11    1    4    4    0    0  0.11309021704E+02  0.17484581446E+02  0.77471615389E+01  0.22217629766E+02  0.51100000000E-03 0. -1.
        -11    1    4    4    0    0  0.37051404830E+01  0.15069582589E+02  0.68810646721E+01  0.16975554090E+02  0.51100000000E-03 0.  1.
         12    1    4    4    0    0  0.95470466050E+01 -0.54397112439E+01 -0.10464704194E+02  0.15173878580E+02  0.00000000000E+00 0. -1.
</event>
<event>
 8    1  0.2509489E-006  0.9118800E+02  0.7816164E-02  0.1184000E+00
        -11   -1    0    0    0    0  0.00000000000E+00  0.00000000000E+00  0.45593999997E+02  0.45594000000E+02  0.51100000000E-03 0. -1.
         11   -1    0    0    0    0 -0.00000000000E+00 -0.00000000000E+00 -0.45593999997E+02  0.45594000000E+02  0.51100000000E-03 0.  1.
         23    2    1    2    0    0  0.17763568394E-14 -0.35527136788E-14  0.00000000000E+00  0.91188000000E+02  0.91188000000E+02 0.  0.
    9900012    2    3    3    0    0 -0.97415699310E+01 -0.20884388017E+02  0.28718011061E+02  0.54367081939E+02  0.39999994897E+02 0.  0.
        -12    1    3    3    0    0  0.97415699310E+01  0.20884388017E+02 -0.28718011061E+02  0.36820918061E+02  0.00000000000E+00 0.  1.
         11    1    4    4    0    0  0.84330967113E+00  0.83680638956E+01  0.25603779395E+01  0.87915413902E+01  0.51100000000E-03 0. -1.
        -11    1    4    4    0    0  0.51679209941E+01 -0.58525232488E+01  0.11765315318E+01  0.78958003069E+01  0.51100000000E-03 0.  1.
         12    1    4    4    0    0 -0.15752800596E+02 -0.23399928663E+02  0.24981101590E+02  0.37679740242E+02  0.00000000000E+00 0. -1.
</event>
<event>
 8    1  0.2509489E-006  0.9118800E+02  0.7816164E-02  0.1184000E+00
        -11   -1    0    0    0    0  0.00000000000E+00  0.00000000000E+00  0.45593999997E+02  0.45594000000E+02  0.51100000000E-03 0.  1.
         11   -1    0    0    0    0 -0.00000000000E+00 -0.00000000000E+00 -0.45593999997E+02  0.45594000000E+02  0.51100000000E-03 0. -1.
         23    2    1    2    0    0  0.35527136788E-14  0.35527136788E-14 -0.35527136788E-14  0.91188000000E+02  0.91188000000E+02 0.  0.
    9900012    2    3    3    0    0  0.20769236188E+02 -0.22543233451E+02  0.20401542933E+02  0.54367061659E+02  0.39999948665E+02 0.  0.
         12    1    3    3    0    0 -0.20769236188E+02  0.22543233451E+02 -0.20401542933E+02  0.36820938341E+02  0.00000000000E+00 0. -1.
         11    1    4    4    0    0  0.10481580458E+02 -0.46789831751E+01  0.16857324198E+01  0.11601642405E+02  0.51100000000E-03 0.  1.
        -11    1    4    4    0    0 -0.29885149858E+01 -0.17664599673E+02 -0.21386947986E+01  0.18042819046E+02  0.51100000000E-03 0. -1.
        -12    1    4    4    0    0  0.13276170716E+02 -0.19965060242E+00  0.20854505312E+02  0.24722600208E+02  0.00000000000E+00 0.  1.
</event>
<event>
 8    1  0.2509489E-006  0.9118800E+02  0.7816164E-02  0.1184000E+00
        -11   -1    0    0    0    0  0.00000000000E+00  0.00000000000E+00  0.45593999997E+02  0.45594000000E+02  0.51100000000E-03 0.  1.
         11   -1    0    0    0    0 -0.00000000000E+00 -0.00000000000E+00 -0.45593999997E+02  0.45594000000E+02  0.51100000000E-03 0. -1.
         23    2    1    2    0    0  0.35527136788E-14  0.35527136788E-14  0.12212453271E-14  0.91188000000E+02  0.91188000000E+02 0.  0.
    9900012    2    3    3    0    0 -0.27738503301E+02 -0.24214009181E+02  0.18845389306E+00  0.54367104833E+02  0.40000047088E+02 0.  0.
         12    1    3    3    0    0  0.27738503301E+02  0.24214009181E+02 -0.18845389306E+00  0.36820895167E+02  0.00000000000E+00 0. -1.
         11    1    4    4    0    0 -0.12749068539E+02 -0.12001060678E+02 -0.88114212263E+01  0.19601156861E+02  0.51100000000E-03 0. -1.
        -11    1    4    4    0    0 -0.69107872934E+01 -0.38600351204E+01 -0.98411148038E+01  0.12629584039E+02  0.51100000000E-03 0.  1.
        -12    1    4    4    0    0 -0.80786474687E+01 -0.83529133826E+01  0.18840989923E+02  0.22136363933E+02  0.00000000000E+00 0.  1.
</event>
<event>
 8    1  0.2509489E-006  0.9118800E+02  0.7816164E-02  0.1184000E+00
        -11   -1    0    0    0    0  0.00000000000E+00  0.00000000000E+00  0.45593999997E+02  0.45594000000E+02  0.51100000000E-03 0. -1.
         11   -1    0    0    0    0 -0.00000000000E+00 -0.00000000000E+00 -0.45593999997E+02  0.45594000000E+02  0.51100000000E-03 0.  1.
         23    2    1    2    0    0  0.00000000000E+00  0.35527136788E-14  0.00000000000E+00  0.91188000000E+02  0.91188000000E+02 0.  0.
    9900012    2    3    3    0    0  0.24384429641E+02  0.20575714422E+02  0.18379833263E+02  0.54367099635E+02  0.40000035239E+02 0.  0.
        -12    1    3    3    0    0 -0.24384429641E+02 -0.20575714422E+02 -0.18379833263E+02  0.36820900365E+02  0.00000000000E+00 0.  1.
         11    1    4    4    0    0  0.11204799638E+02 -0.59642576149E+00  0.27941788573E+01  0.11563334051E+02  0.51100000000E-03 0.  1.
        -11    1    4    4    0    0  0.16879198151E+02  0.27275755111E+02  0.15595601407E+02  0.35666467874E+02  0.51100000000E-03 0. -1.
         12    1    4    4    0    0 -0.36995681482E+01 -0.61036149278E+01 -0.99470010533E-02  0.71372977108E+01  0.00000000000E+00 0. -1.
</event>
<event>
 8    1  0.2509489E-006  0.9118800E+02  0.7816164E-02  0.1184000E+00
        -11   -1    0    0    0    0  0.00000000000E+00  0.00000000000E+00  0.45593999997E+02  0.45594000000E+02  0.51100000000E-03 0.  1.
         11   -1    0    0    0    0 -0.00000000000E+00 -0.00000000000E+00 -0.45593999997E+02  0.45594000000E+02  0.51100000000E-03 0. -1.
         23    2    1    2    0    0  0.71054273576E-14  0.00000000000E+00  0.17763568394E-14  0.91188000000E+02  0.91188000000E+02 0.  0.
    9900012    2    3    3    0    0  0.34245545705E+02  0.46200524616E+01  0.12715399532E+02  0.54367032188E+02  0.39999881478E+02 0.  0.
         12    1    3    3    0    0 -0.34245545705E+02 -0.46200524616E+01 -0.12715399532E+02  0.36820967812E+02  0.00000000000E+00 0. -1.
         11    1    4    4    0    0  0.37094299509E+01 -0.84397471490E+01 -0.69845581967E+00  0.92453795646E+01  0.51100000000E-03 0. -1.
        -11    1    4    4    0    0  0.16848370251E+02 -0.25485296244E+01  0.16982092395E+02  0.24057307533E+02  0.51100000000E-03 0.  1.
         12    1    4    4    0    0  0.13687745503E+02  0.15608329235E+02 -0.35682370441E+01  0.21064345090E+02  0.00000000000E+00 0. -1.
</event>
<event>
 8    1  0.2509489E-006  0.9118800E+02  0.7816164E-02  0.1184000E+00
        -11   -1    0    0    0    0  0.00000000000E+00  0.00000000000E+00  0.45593999997E+02  0.45594000000E+02  0.51100000000E-03 0. -1.
         11   -1    0    0    0    0 -0.00000000000E+00 -0.00000000000E+00 -0.45593999997E+02  0.45594000000E+02  0.51100000000E-03 0.  1.
         23    2    1    2    0    0  0.00000000000E+00  0.00000000000E+00  0.00000000000E+00  0.91188000000E+02  0.91188000000E+02 0.  0.
    9900012    2    3    3    0    0  0.13193418383E+02 -0.22652529439E+02 -0.25856877510E+02  0.54367061756E+02  0.39999948886E+02 0.  0.
         12    1    3    3    0    0 -0.13193418383E+02  0.22652529439E+02  0.25856877510E+02  0.36820938244E+02  0.00000000000E+00 0. -1.
         11    1    4    4    0    0  0.44057948558E+01  0.71561274311E+00 -0.15193694289E+02  0.15835765732E+02  0.51100000000E-03 0. -1.
        -11    1    4    4    0    0 -0.84460032216E+01 -0.13858197398E+02 -0.17960476191E+00  0.16230122109E+02  0.51100000000E-03 0.  1.
        -12    1    4    4    0    0  0.17233626749E+02 -0.95099447833E+01 -0.10483578459E+02  0.22301173915E+02  0.00000000000E+00 0.  1.
</event>
<event>
 8    1  0.2509489E-006  0.9118800E+02  0.7816164E-02  0.1184000E+00
        -11   -1    0    0    0    0  0.00000000000E+00  0.00000000000E+00  0.45593999997E+02  0.45594000000E+02  0.51100000000E-03 0. -1.
         11   -1    0    0    0    0 -0.00000000000E+00 -0.00000000000E+00 -0.45593999997E+02  0.45594000000E+02  0.51100000000E-03 0.  1.
         23    2    1    2    0    0  0.00000000000E+00  0.00000000000E+00  0.00000000000E+00  0.91188000000E+02  0.91188000000E+02 0.  0.
    9900012    2    3    3    0    0 -0.53342809079E+01  0.62322370637E+01  0.35895466199E+02  0.54367084405E+02  0.40000000518E+02 0.  0.
        -12    1    3    3    0    0  0.53342809079E+01 -0.62322370637E+01 -0.35895466199E+02  0.36820915595E+02  0.00000000000E+00 0.  1.
         11    1    4    4    0    0 -0.23927682546E+01 -0.11328050095E+02  0.11684600188E+02  0.16449314292E+02  0.51100000000E-03 0. -1.
        -11    1    4    4    0    0  0.88361634533E+00  0.67463644797E+01  0.25484148771E+02  0.26376808950E+02  0.51100000000E-03 0.  1.
        -12    1    4    4    0    0 -0.38251289986E+01  0.10813922679E+02 -0.12732827599E+01  0.11540961163E+02  0.00000000000E+00 0.  1.
</event>
<event>
 8    1  0.2509489E-006  0.9118800E+02  0.7816164E-02  0.1184000E+00
        -11   -1    0    0    0    0  0.00000000000E+00  0.00000000000E+00  0.45593999997E+02  0.45594000000E+02  0.51100000000E-03 0. -1.
         11   -1    0    0    0    0 -0.00000000000E+00 -0.00000000000E+00 -0.45593999997E+02  0.45594000000E+02  0.51100000000E-03 0.  1.
         23    2    1    2    0    0  0.17763568394E-14  0.00000000000E+00  0.00000000000E+00  0.91188000000E+02  0.91188000000E+02 0.  0.
    9900012    2    3    3    0    0  0.15903455128E+02  0.47780707418E+01 -0.32863820447E+02  0.54367074707E+02  0.39999978410E+02 0.  0.
         12    1    3    3    0    0 -0.15903455128E+02 -0.47780707418E+01  0.32863820447E+02  0.36820925293E+02  0.00000000000E+00 0. -1.
         11    1    4    4    0    0 -0.34111251510E+01 -0.89448393760E+00 -0.28726563007E+01  0.45484096994E+01  0.51100000000E-03 0. -1.
        -11    1    4    4    0    0 -0.40202737812E+01 -0.92574283367E+01 -0.15655587018E+02  0.18626861942E+02  0.51100000000E-03 0.  1.
         12    1    4    4    0    0  0.23334854060E+02  0.14929983016E+02 -0.14335577129E+02  0.31191803065E+02  0.00000000000E+00 0. -1.
</event>
<event>
 8    1  0.2509489E-006  0.9118800E+02  0.7816164E-02  0.1184000E+00
        -11   -1    0    0    0    0  0.00000000000E+00  0.00000000000E+00  0.45593999997E+02  0.45594000000E+02  0.51100000000E-03 0. -1.
         11   -1    0    0    0    0 -0.00000000000E+00 -0.00000000000E+00 -0.45593999997E+02  0.45594000000E+02  0.51100000000E-03 0.  1.
         23    2    1    2    0    0  0.00000000000E+00  0.00000000000E+00  0.00000000000E+00  0.91188000000E+02  0.91188000000E+02 0.  0.
    9900012    2    3    3    0    0 -0.25005438631E+02  0.22658815865E+02 -0.14733880701E+02  0.54367066578E+02  0.39999959878E+02 0.  0.
         12    1    3    3    0    0  0.25005438631E+02 -0.22658815865E+02  0.14733880701E+02  0.36820933422E+02  0.00000000000E+00 0. -1.
         11    1    4    4    0    0  0.55132178447E+01 -0.36349862995E+01 -0.45192540913E+01  0.80020218822E+01  0.51100000000E-03 0. -1.
        -11    1    4    4    0    0 -0.53957228119E+01 -0.14324753233E+01 -0.67943512299E+01  0.87936920069E+01  0.51100000000E-03 0.  1.
        -12    1    4    4    0    0 -0.25122933664E+02  0.27726277488E+02 -0.34202753801E+01  0.37571352689E+02  0.00000000000E+00 0.  1.
</event>
<event>
 8    1  0.2509489E-006  0.9118800E+02  0.7816164E-02  0.1184000E+00
        -11   -1    0    0    0    0  0.00000000000E+00  0.00000000000E+00  0.45593999997E+02  0.45594000000E+02  0.51100000000E-03 0. -1.
         11   -1    0    0    0    0 -0.00000000000E+00 -0.00000000000E+00 -0.45593999997E+02  0.45594000000E+02  0.51100000000E-03 0.  1.
         23    2    1    2    0    0  0.00000000000E+00 -0.35527136788E-14  0.00000000000E+00  0.91188000000E+02  0.91188000000E+02 0.  0.
    9900012    2    3    3    0    0  0.45298322735E+01  0.28918119430E+02  0.22338309607E+02  0.54367121576E+02  0.40000085257E+02 0.  0.
        -12    1    3    3    0    0 -0.45298322735E+01 -0.28918119430E+02 -0.22338309607E+02  0.36820878424E+02  0.00000000000E+00 0.  1.
         11    1    4    4    0    0  0.43299886284E+01  0.28581395119E+01  0.15154264479E+02  0.16017786837E+02  0.51100000000E-03 0. -1.
        -11    1    4    4    0    0  0.10992020999E+01 -0.49620796354E+01 -0.27300295143E+01  0.57691889357E+01  0.51100000000E-03 0.  1.
        -12    1    4    4    0    0 -0.89935845484E+00  0.31022059554E+02  0.99140746424E+01  0.32580145804E+02  0.00000000000E+00 0.  1.
</event>
<event>
 8    1  0.2509489E-006  0.9118800E+02  0.7816164E-02  0.1184000E+00
        -11   -1    0    0    0    0  0.00000000000E+00  0.00000000000E+00  0.45593999997E+02  0.45594000000E+02  0.51100000000E-03 0.  1.
         11   -1    0    0    0    0 -0.00000000000E+00 -0.00000000000E+00 -0.45593999997E+02  0.45594000000E+02  0.51100000000E-03 0. -1.
         23    2    1    2    0    0  0.17763568394E-14 -0.17763568394E-14  0.00000000000E+00  0.91188000000E+02  0.91188000000E+02 0.  0.
    9900012    2    3    3    0    0 -0.14374136814E+02 -0.57499914214E+01 -0.33408119159E+02  0.54367073392E+02  0.39999975412E+02 0.  0.
        -12    1    3    3    0    0  0.14374136814E+02  0.57499914214E+01  0.33408119159E+02  0.36820926608E+02  0.00000000000E+00 0.  1.
         11    1    4    4    0    0 -0.19877421771E+02  0.40103186206E+01 -0.16328035006E+02  0.26034578528E+02  0.51100000000E-03 0. -1.
        -11    1    4    4    0    0  0.87857899145E+00 -0.14232502509E+02 -0.58967544211E+01  0.15430740153E+02  0.51100000000E-03 0.  1.
         12    1    4    4    0    0  0.46247059657E+01  0.44721924670E+01 -0.11183329732E+02  0.12901754711E+02  0.00000000000E+00 0. -1.
</event>
<event>
 8    1  0.2509489E-006  0.9118800E+02  0.7816164E-02  0.1184000E+00
        -11   -1    0    0    0    0  0.00000000000E+00  0.00000000000E+00  0.45593999997E+02  0.45594000000E+02  0.51100000000E-03 0.  1.
         11   -1    0    0    0    0 -0.00000000000E+00 -0.00000000000E+00 -0.45593999997E+02  0.45594000000E+02  0.51100000000E-03 0. -1.
         23    2    1    2    0    0  0.00000000000E+00  0.00000000000E+00 -0.35527136788E-14  0.91188000000E+02  0.91188000000E+02 0.  0.
    9900012    2    3    3    0    0 -0.30066267656E+02 -0.98317822567E+01  0.18845024847E+02  0.54367090797E+02  0.40000015089E+02 0.  0.
         12    1    3    3    0    0  0.30066267656E+02  0.98317822567E+01 -0.18845024847E+02  0.36820909203E+02  0.00000000000E+00 0. -1.
         11    1    4    4    0    0 -0.81122103122E+01 -0.18183566308E+02  0.97886742633E+01  0.22187117522E+02  0.51100000000E-03 0. -1.
        -11    1    4    4    0    0 -0.25396599908E+02  0.46490996545E+01  0.73597452145E+01  0.26847109051E+02  0.51100000000E-03 0.  1.
         12    1    4    4    0    0  0.34425425650E+01  0.37026843967E+01  0.16966053694E+01  0.53328642241E+01  0.00000000000E+00 0. -1.
</event>
<event>
 8    1  0.2509489E-006  0.9118800E+02  0.7816164E-02  0.1184000E+00
        -11   -1    0    0    0    0  0.00000000000E+00  0.00000000000E+00  0.45593999997E+02  0.45594000000E+02  0.51100000000E-03 0.  1.
         11   -1    0    0    0    0 -0.00000000000E+00 -0.00000000000E+00 -0.45593999997E+02  0.45594000000E+02  0.51100000000E-03 0. -1.
         23    2    1    2    0    0  0.15543122345E-14 -0.17763568394E-14  0.00000000000E+00  0.91188000000E+02  0.91188000000E+02 0.  0.
    9900012    2    3    3    0    0 -0.14135980279E+01 -0.10679189749E+02 -0.35209877280E+02  0.54367098175E+02  0.40000031910E+02 0.  0.
        -12    1    3    3    0    0  0.14135980279E+01  0.10679189749E+02  0.35209877280E+02  0.36820901825E+02  0.00000000000E+00 0.  1.
         11    1    4    4    0    0 -0.27706919457E+01 -0.45504886659E+00 -0.12833712273E+02  0.13137274234E+02  0.51100000000E-03 0. -1.
        -11    1    4    4    0    0 -0.76574480907E+01  0.33895478527E+01  0.47064556883E+01  0.96060538888E+01  0.51100000000E-03 0.  1.
        -12    1    4    4    0    0  0.90145420085E+01 -0.13613688735E+02 -0.27082620696E+02  0.31623770053E+02  0.00000000000E+00 0.  1.
</event>
<event>
 8    1  0.2509489E-006  0.9118800E+02  0.7816164E-02  0.1184000E+00
        -11   -1    0    0    0    0  0.00000000000E+00  0.00000000000E+00  0.45593999997E+02  0.45594000000E+02  0.51100000000E-03 0.  1.
         11   -1    0    0    0    0 -0.00000000000E+00 -0.00000000000E+00 -0.45593999997E+02  0.45594000000E+02  0.51100000000E-03 0. -1.
         23    2    1    2    0    0  0.00000000000E+00  0.35527136788E-14 -0.35527136788E-14  0.91188000000E+02  0.91188000000E+02 0.  0.
    9900012    2    3    3    0    0  0.26375646419E+02  0.18992573495E+02  0.17302799355E+02  0.54367089670E+02  0.40000012520E+02 0.  0.
         12    1    3    3    0    0 -0.26375646419E+02 -0.18992573495E+02 -0.17302799355E+02  0.36820910330E+02  0.00000000000E+00 0. -1.
         11    1    4    4    0    0  0.18495984705E+02  0.61362001142E+01 -0.48993313150E+01  0.20093726624E+02  0.51100000000E-03 0. -1.
        -11    1    4    4    0    0  0.66453272362E+01  0.16929537091E+02  0.87855806750E+01  0.20197921384E+02  0.51100000000E-03 0.  1.
         12    1    4    4    0    0  0.12343344786E+01 -0.40731637095E+01  0.13416549995E+02  0.14075441662E+02  0.00000000000E+00 0. -1.
</event>
<event>
 8    1  0.2509489E-006  0.9118800E+02  0.7816164E-02  0.1184000E+00
        -11   -1    0    0    0    0  0.00000000000E+00  0.00000000000E+00  0.45593999997E+02  0.45594000000E+02  0.51100000000E-03 0. -1.
         11   -1    0    0    0    0 -0.00000000000E+00 -0.00000000000E+00 -0.45593999997E+02  0.45594000000E+02  0.51100000000E-03 0.  1.
         23    2    1    2    0    0 -0.44408920985E-15 -0.13322676296E-14  0.00000000000E+00  0.91188000000E+02  0.91188000000E+02 0.  0.
    9900012    2    3    3    0    0 -0.22711050769E+01 -0.31767923098E+01  0.36613252213E+02  0.54367079788E+02  0.39999989992E+02 0.  0.
        -12    1    3    3    0    0  0.22711050769E+01  0.31767923098E+01 -0.36613252213E+02  0.36820920212E+02  0.00000000000E+00 0.  1.
         11    1    4    4    0    0  0.90567958397E+01  0.29438723409E+01  0.24586706894E+01  0.98354967877E+01  0.51100000000E-03 0.  1.
        -11    1    4    4    0    0 -0.38364081747E+01  0.68432657184E+01  0.26654977392E+02  0.27785538206E+02  0.51100000000E-03 0. -1.
         12    1    4    4    0    0 -0.74914927419E+01 -0.12963930369E+02  0.74996041321E+01  0.16746044794E+02  0.00000000000E+00 0. -1.
</event>
<event>
 8    1  0.2509489E-006  0.9118800E+02  0.7816164E-02  0.1184000E+00
        -11   -1    0    0    0    0  0.00000000000E+00  0.00000000000E+00  0.45593999997E+02  0.45594000000E+02  0.51100000000E-03 0.  1.
         11   -1    0    0    0    0 -0.00000000000E+00 -0.00000000000E+00 -0.45593999997E+02  0.45594000000E+02  0.51100000000E-03 0. -1.
         23    2    1    2    0    0  0.00000000000E+00  0.00000000000E+00  0.00000000000E+00  0.91188000000E+02  0.91188000000E+02 0.  0.
    9900012    2    3    3    0    0  0.52099065180E+01  0.28428792177E+02 -0.22813162367E+02  0.54367085730E+02  0.40000003538E+02 0.  0.
        -12    1    3    3    0    0 -0.52099065180E+01 -0.28428792177E+02  0.22813162367E+02  0.36820914270E+02  0.00000000000E+00 0.  1.
         11    1    4    4    0    0  0.80285577669E+01  0.28840196078E+02 -0.12545715941E+02  0.32459353635E+02  0.51100000000E-03 0. -1.
        -11    1    4    4    0    0  0.33961183860E+01  0.24303360609E+00  0.46332105198E+01  0.57497239418E+01  0.51100000000E-03 0.  1.
         12    1    4    4    0    0 -0.62147696349E+01 -0.65443750786E+00 -0.14900656945E+02  0.16158008153E+02  0.00000000000E+00 0. -1.
</event>
<event>
 8    1  0.2509489E-006  0.9118800E+02  0.7816164E-02  0.1184000E+00
        -11   -1    0    0    0    0  0.00000000000E+00  0.00000000000E+00  0.45593999997E+02  0.45594000000E+02  0.51100000000E-03 0.  1.
         11   -1    0    0    0    0 -0.00000000000E+00 -0.00000000000E+00 -0.45593999997E+02  0.45594000000E+02  0.51100000000E-03 0. -1.
         23    2    1    2    0    0  0.00000000000E+00 -0.35527136788E-14  0.00000000000E+00  0.91188000000E+02  0.91188000000E+02 0.  0.
    9900012    2    3    3    0    0  0.10062395824E+02 -0.20403748101E+02 -0.28951940469E+02  0.54367087420E+02  0.40000007391E+02 0.  0.
        -12    1    3    3    0    0 -0.10062395824E+02  0.20403748101E+02  0.28951940469E+02  0.36820912580E+02  0.00000000000E+00 0.  1.
         11    1    4    4    0    0  0.68130975065E+01 -0.75414783010E+01  0.42552819827E+01  0.11018149464E+02  0.51100000000E-03 0.  1.
        -11    1    4    4    0    0 -0.79007279011E+00  0.60775805240E+01 -0.16900077098E+01  0.63574622578E+01  0.51100000000E-03 0. -1.
         12    1    4    4    0    0  0.40393711076E+01 -0.18939850324E+02 -0.31517214742E+02  0.36991475698E+02  0.00000000000E+00 0. -1.
</event>
<event>
 8    1  0.2509489E-006  0.9118800E+02  0.7816164E-02  0.1184000E+00
        -11   -1    0    0    0    0  0.00000000000E+00  0.00000000000E+00  0.45593999997E+02  0.45594000000E+02  0.51100000000E-03 0. -1.
         11   -1    0    0    0    0 -0.00000000000E+00 -0.00000000000E+00 -0.45593999997E+02  0.45594000000E+02  0.51100000000E-03 0.  1.
         23    2    1    2    0    0  0.00000000000E+00  0.00000000000E+00 -0.35527136788E-14  0.91188000000E+02  0.91188000000E+02 0.  0.
    9900012    2    3    3    0    0  0.11519544297E+02 -0.32047399624E+02 -0.14001572216E+02  0.54367085454E+02  0.40000002909E+02 0.  0.
        -12    1    3    3    0    0 -0.11519544297E+02  0.32047399624E+02  0.14001572216E+02  0.36820914546E+02  0.00000000000E+00 0.  1.
         11    1    4    4    0    0  0.72221234349E+01 -0.97007929443E+01  0.38066656013E+01  0.12678925582E+02  0.51100000000E-03 0.  1.
        -11    1    4    4    0    0  0.31949911582E+01 -0.34946019569E+01  0.82467071917E+01  0.95093843704E+01  0.51100000000E-03 0. -1.
        -12    1    4    4    0    0  0.11024297043E+01 -0.18852004723E+02 -0.26054945009E+02  0.32178775501E+02  0.00000000000E+00 0.  1.
</event>
<event>
 8    1  0.2509489E-006  0.9118800E+02  0.7816164E-02  0.1184000E+00
        -11   -1    0    0    0    0  0.00000000000E+00  0.00000000000E+00  0.45593999997E+02  0.45594000000E+02  0.51100000000E-03 0. -1.
         11   -1    0    0    0    0 -0.00000000000E+00 -0.00000000000E+00 -0.45593999997E+02  0.45594000000E+02  0.51100000000E-03 0.  1.
         23    2    1    2    0    0 -0.35527136788E-14  0.35527136788E-14  0.00000000000E+00  0.91188000000E+02  0.91188000000E+02 0.  0.
    9900012    2    3    3    0    0  0.31149343794E+02 -0.18682532758E+02  0.60382787909E+01  0.54367089367E+02  0.40000011830E+02 0.  0.
        -12    1    3    3    0    0 -0.31149343794E+02  0.18682532758E+02 -0.60382787909E+01  0.36820910633E+02  0.00000000000E+00 0.  1.
         11    1    4    4    0    0  0.71987538614E+01  0.63467446186E+00  0.85603160094E-01  0.72271845827E+01  0.51100000000E-03 0. -1.
        -11    1    4    4    0    0  0.13099601893E+02 -0.18702267077E+02 -0.12270533538E+02  0.25921812381E+02  0.51100000000E-03 0.  1.
        -12    1    4    4    0    0  0.10850988040E+02 -0.61494014248E+00  0.18223209169E+02  0.21218092403E+02  0.00000000000E+00 0.  1.
</event>
<event>
 8    1  0.2509489E-006  0.9118800E+02  0.7816164E-02  0.1184000E+00
        -11   -1    0    0    0    0  0.00000000000E+00  0.00000000000E+00  0.45593999997E+02  0.45594000000E+02  0.51100000000E-03 0. -1.
         11   -1    0    0    0    0 -0.00000000000E+00 -0.00000000000E+00 -0.45593999997E+02  0.45594000000E+02  0.51100000000E-03 0.  1.
         23    2    1    2    0    0  0.88817841970E-15  0.00000000000E+00  0.00000000000E+00  0.91188000000E+02  0.91188000000E+02 0.  0.
    9900012    2    3    3    0    0 -0.37360860296E+01  0.22056778107E+02 -0.29245830073E+02  0.54367104086E+02  0.40000045384E+02 0.  0.
         12    1    3    3    0    0  0.37360860296E+01 -0.22056778107E+02  0.29245830073E+02  0.36820895914E+02  0.00000000000E+00 0. -1.
         11    1    4    4    0    0 -0.14642377778E+02  0.16768725825E+02 -0.31654261204E+02  0.38698600045E+02  0.51100000000E-03 0.  1.
        -11    1    4    4    0    0  0.13577633784E+01  0.18076033765E+01  0.47310175714E+01  0.52434224397E+01  0.51100000000E-03 0. -1.
        -12    1    4    4    0    0  0.95485283701E+01  0.34804489053E+01 -0.23225864404E+01  0.10425081601E+02  0.00000000000E+00 0.  1.
</event>
<event>
 8    1  0.2509489E-006  0.9118800E+02  0.7816164E-02  0.1184000E+00
        -11   -1    0    0    0    0  0.00000000000E+00  0.00000000000E+00  0.45593999997E+02  0.45594000000E+02  0.51100000000E-03 0.  1.
         11   -1    0    0    0    0 -0.00000000000E+00 -0.00000000000E+00 -0.45593999997E+02  0.45594000000E+02  0.51100000000E-03 0. -1.
         23    2    1    2    0    0  0.35527136788E-14  0.00000000000E+00  0.00000000000E+00  0.91188000000E+02  0.91188000000E+02 0.  0.
    9900012    2    3    3    0    0  0.19631566664E+02  0.18071969662E+02  0.25372935344E+02  0.54367077346E+02  0.39999984426E+02 0.  0.
         12    1    3    3    0    0 -0.19631566664E+02 -0.18071969662E+02 -0.25372935344E+02  0.36820922654E+02  0.00000000000E+00 0. -1.
         11    1    4    4    0    0 -0.49179829328E+01  0.11062365834E+02  0.11342639534E+02  0.16589694567E+02  0.51100000000E-03 0. -1.
        -11    1    4    4    0    0  0.33194908611E+01  0.10264431775E+02  0.12103014352E+02  0.16212974308E+02  0.51100000000E-03 0.  1.
         12    1    4    4    0    0  0.21230058735E+02 -0.32548279473E+01  0.19272814573E+01  0.21564408471E+02  0.00000000000E+00 0. -1.
</event>
<event>
 8    1  0.2509489E-006  0.9118800E+02  0.7816164E-02  0.1184000E+00
        -11   -1    0    0    0    0  0.00000000000E+00  0.00000000000E+00  0.45593999997E+02  0.45594000000E+02  0.51100000000E-03 0. -1.
         11   -1    0    0    0    0 -0.00000000000E+00 -0.00000000000E+00 -0.45593999997E+02  0.45594000000E+02  0.51100000000E-03 0.  1.
         23    2    1    2    0    0  0.00000000000E+00  0.00000000000E+00 -0.35527136788E-14  0.91188000000E+02  0.91188000000E+02 0.  0.
    9900012    2    3    3    0    0 -0.18111704670E+02  0.10334334745E+02 -0.30347124844E+02  0.54367077863E+02  0.39999985605E+02 0.  0.
         12    1    3    3    0    0  0.18111704670E+02 -0.10334334745E+02  0.30347124844E+02  0.36820922137E+02  0.00000000000E+00 0. -1.
         11    1    4    4    0    0 -0.13050061396E+02  0.17864752550E+02 -0.73044352394E+01  0.23298245868E+02  0.51100000000E-03 0. -1.
        -11    1    4    4    0    0 -0.97469162685E+01 -0.86633726694E+01 -0.22771201654E+02  0.26240884660E+02  0.51100000000E-03 0.  1.
         12    1    4    4    0    0  0.46852729946E+01  0.11329548643E+01 -0.27148795145E+00  0.48279473347E+01  0.00000000000E+00 0. -1.
</event>
<event>
 8    1  0.2509489E-006  0.9118800E+02  0.7816164E-02  0.1184000E+00
        -11   -1    0    0    0    0  0.00000000000E+00  0.00000000000E+00  0.45593999997E+02  0.45594000000E+02  0.51100000000E-03 0.  1.
         11   -1    0    0    0    0 -0.00000000000E+00 -0.00000000000E+00 -0.45593999997E+02  0.45594000000E+02  0.51100000000E-03 0. -1.
         23    2    1    2    0    0  0.00000000000E+00 -0.35527136788E-14 -0.35527136788E-14  0.91188000000E+02  0.91188000000E+02 0.  0.
    9900012    2    3    3    0    0  0.54071839559E+01  0.22009502932E+02 -0.29019319726E+02  0.54367125825E+02  0.40000094943E+02 0.  0.
        -12    1    3    3    0    0 -0.54071839559E+01 -0.22009502932E+02  0.29019319726E+02  0.36820874175E+02  0.00000000000E+00 0.  1.
         11    1    4    4    0    0  0.33320777181E+01  0.28715659793E+02 -0.11646036909E+02  0.31166039774E+02  0.51100000000E-03 0. -1.
        -11    1    4    4    0    0  0.12559656095E+01 -0.27658959789E+01  0.18528960781E+01  0.35582094255E+01  0.51100000000E-03 0.  1.
        -12    1    4    4    0    0  0.81914062830E+00 -0.39402608819E+01 -0.19226178896E+02  0.19642876625E+02  0.00000000000E+00 0.  1.
</event>
<event>
 8    1  0.2509489E-006  0.9118800E+02  0.7816164E-02  0.1184000E+00
        -11   -1    0    0    0    0  0.00000000000E+00  0.00000000000E+00  0.45593999997E+02  0.45594000000E+02  0.51100000000E-03 0. -1.
         11   -1    0    0    0    0 -0.00000000000E+00 -0.00000000000E+00 -0.45593999997E+02  0.45594000000E+02  0.51100000000E-03 0.  1.
         23    2    1    2    0    0  0.71054273576E-14  0.66613381478E-15 -0.17763568394E-14  0.91188000000E+02  0.91188000000E+02 0.  0.
    9900012    2    3    3    0    0 -0.36504297569E+02  0.95612705653E+00  0.47225076629E+01  0.54367082051E+02  0.39999995152E+02 0.  0.
        -12    1    3    3    0    0  0.36504297569E+02 -0.95612705653E+00 -0.47225076629E+01  0.36820917949E+02  0.00000000000E+00 0.  1.
         11    1    4    4    0    0 -0.16632417180E+02  0.10245218073E+02  0.10122686879E+01  0.19560840544E+02  0.51100000000E-03 0. -1.
        -11    1    4    4    0    0 -0.67666050557E+00 -0.25871942877E+01 -0.99557570030E+01  0.10308663419E+02  0.51100000000E-03 0.  1.
        -12    1    4    4    0    0 -0.19195219883E+02 -0.67018967287E+01  0.13665995978E+02  0.24497578088E+02  0.00000000000E+00 0.  1.
</event>
<event>
 8    1  0.2509489E-006  0.9118800E+02  0.7816164E-02  0.1184000E+00
        -11   -1    0    0    0    0  0.00000000000E+00  0.00000000000E+00  0.45593999997E+02  0.45594000000E+02  0.51100000000E-03 0. -1.
         11   -1    0    0    0    0 -0.00000000000E+00 -0.00000000000E+00 -0.45593999997E+02  0.45594000000E+02  0.51100000000E-03 0.  1.
         23    2    1    2    0    0  0.00000000000E+00  0.71054273576E-14  0.00000000000E+00  0.91188000000E+02  0.91188000000E+02 0.  0.
    9900012    2    3    3    0    0 -0.40395136335E+01  0.33762017593E+02  0.14127563417E+02  0.54367088137E+02  0.40000009025E+02 0.  0.
        -12    1    3    3    0    0  0.40395136335E+01 -0.33762017593E+02 -0.14127563417E+02  0.36820911863E+02  0.00000000000E+00 0.  1.
         11    1    4    4    0    0  0.28034401821E+01  0.22372869713E+02  0.26365961767E+02  0.34692485011E+02  0.51100000000E-03 0. -1.
        -11    1    4    4    0    0 -0.11009017253E+01  0.30075258048E+01 -0.80892287291E+01  0.87001619392E+01  0.51100000000E-03 0.  1.
         12    1    4    4    0    0 -0.57420520903E+01  0.83816220751E+01 -0.41491696210E+01  0.10974441187E+02  0.00000000000E+00 0. -1.
</event>
<event>
 8    1  0.2509489E-006  0.9118800E+02  0.7816164E-02  0.1184000E+00
        -11   -1    0    0    0    0  0.00000000000E+00  0.00000000000E+00  0.45593999997E+02  0.45594000000E+02  0.51100000000E-03 0. -1.
         11   -1    0    0    0    0 -0.00000000000E+00 -0.00000000000E+00 -0.45593999997E+02  0.45594000000E+02  0.51100000000E-03 0.  1.
         23    2    1    2    0    0  0.00000000000E+00  0.71054273576E-14  0.35527136788E-14  0.91188000000E+02  0.91188000000E+02 0.  0.
    9900012    2    3    3    0    0 -0.14501490704E+02  0.33256329757E+02  0.62851521001E+01  0.54367084226E+02  0.40000000109E+02 0.  0.
        -12    1    3    3    0    0  0.14501490704E+02 -0.33256329757E+02 -0.62851521001E+01  0.36820915774E+02  0.00000000000E+00 0.  1.
         11    1    4    4    0    0 -0.71618886625E+01  0.29064480772E+02  0.13555880483E+02  0.32860288917E+02  0.51100000000E-03 0. -1.
        -11    1    4    4    0    0 -0.98708132150E+01  0.51994516800E+01 -0.11788770103E+02  0.16230907310E+02  0.51100000000E-03 0.  1.
        -12    1    4    4    0    0  0.25312111734E+01 -0.10076026948E+01  0.45180417200E+01  0.52758879991E+01  0.00000000000E+00 0.  1.
</event>
<event>
 8    1  0.2509489E-006  0.9118800E+02  0.7816164E-02  0.1184000E+00
        -11   -1    0    0    0    0  0.00000000000E+00  0.00000000000E+00  0.45593999997E+02  0.45594000000E+02  0.51100000000E-03 0. -1.
         11   -1    0    0    0    0 -0.00000000000E+00 -0.00000000000E+00 -0.45593999997E+02  0.45594000000E+02  0.51100000000E-03 0.  1.
         23    2    1    2    0    0  0.00000000000E+00  0.00000000000E+00  0.00000000000E+00  0.91188000000E+02  0.91188000000E+02 0.  0.
    9900012    2    3    3    0    0  0.26641111533E+02  0.17949501731E+02 -0.17995730221E+02  0.54367085532E+02  0.40000003087E+02 0.  0.
         12    1    3    3    0    0 -0.26641111533E+02 -0.17949501731E+02  0.17995730221E+02  0.36820914468E+02  0.00000000000E+00 0. -1.
         11    1    4    4    0    0  0.21226684970E+02  0.15205495238E+00 -0.13522242832E+01  0.21270255905E+02  0.51100000000E-03 0.  1.
        -11    1    4    4    0    0  0.10835441461E+02  0.19815571637E+02 -0.14894047951E+02  0.27053582675E+02  0.51100000000E-03 0. -1.
        -12    1    4    4    0    0 -0.54210148978E+01 -0.20181248581E+01 -0.17494579866E+01  0.60432469511E+01  0.00000000000E+00 0.  1.
</event>
<event>
 8    1  0.2509489E-006  0.9118800E+02  0.7816164E-02  0.1184000E+00
        -11   -1    0    0    0    0  0.00000000000E+00  0.00000000000E+00  0.45593999997E+02  0.45594000000E+02  0.51100000000E-03 0. -1.
         11   -1    0    0    0    0 -0.00000000000E+00 -0.00000000000E+00 -0.45593999997E+02  0.45594000000E+02  0.51100000000E-03 0.  1.
         23    2    1    2    0    0  0.00000000000E+00  0.00000000000E+00  0.00000000000E+00  0.91188000000E+02  0.91188000000E+02 0.  0.
    9900012    2    3    3    0    0 -0.61819294013E+01  0.13853020767E+02  0.33550822106E+02  0.54367080681E+02  0.39999992029E+02 0.  0.
        -12    1    3    3    0    0  0.61819294013E+01 -0.13853020767E+02 -0.33550822106E+02  0.36820919319E+02  0.00000000000E+00 0.  1.
         11    1    4    4    0    0 -0.13920914301E+02  0.70188575085E+01  0.61913000009E+01  0.16774635962E+02  0.51100000000E-03 0. -1.
        -11    1    4    4    0    0  0.19401326931E+01 -0.87784046415E+01  0.11474105715E+02  0.14576680182E+02  0.51100000000E-03 0.  1.
         12    1    4    4    0    0  0.57988522066E+01  0.15612567900E+02  0.15885416390E+02  0.23015764537E+02  0.00000000000E+00 0. -1.
</event>
<event>
 8    1  0.2509489E-006  0.9118800E+02  0.7816164E-02  0.1184000E+00
        -11   -1    0    0    0    0  0.00000000000E+00  0.00000000000E+00  0.45593999997E+02  0.45594000000E+02  0.51100000000E-03 0. -1.
         11   -1    0    0    0    0 -0.00000000000E+00 -0.00000000000E+00 -0.45593999997E+02  0.45594000000E+02  0.51100000000E-03 0.  1.
         23    2    1    2    0    0  0.00000000000E+00  0.00000000000E+00  0.00000000000E+00  0.91188000000E+02  0.91188000000E+02 0.  0.
    9900012    2    3    3    0    0  0.24997090608E+02  0.17458314276E+02  0.20642939426E+02  0.54367106144E+02  0.40000050076E+02 0.  0.
        -12    1    3    3    0    0 -0.24997090608E+02 -0.17458314276E+02 -0.20642939426E+02  0.36820893856E+02  0.00000000000E+00 0.  1.
         11    1    4    4    0    0  0.16787073128E+02  0.13375826650E+02  0.24363940806E+02  0.32470296806E+02  0.51100000000E-03 0. -1.
        -11    1    4    4    0    0  0.75364891055E+01 -0.44668877338E+01  0.46451244735E+01  0.99160947807E+01  0.51100000000E-03 0.  1.
         12    1    4    4    0    0  0.67352837406E+00  0.85493753599E+01 -0.83661258533E+01  0.11980714558E+02  0.00000000000E+00 0. -1.
</event>
<event>
 8    1  0.2509489E-006  0.9118800E+02  0.7816164E-02  0.1184000E+00
        -11   -1    0    0    0    0  0.00000000000E+00  0.00000000000E+00  0.45593999997E+02  0.45594000000E+02  0.51100000000E-03 0.  1.
         11   -1    0    0    0    0 -0.00000000000E+00 -0.00000000000E+00 -0.45593999997E+02  0.45594000000E+02  0.51100000000E-03 0. -1.
         23    2    1    2    0    0 -0.17763568394E-14  0.35527136788E-14  0.00000000000E+00  0.91188000000E+02  0.91188000000E+02 0.  0.
    9900012    2    3    3    0    0 -0.12506782886E+02 -0.25487655328E+02  0.23446557795E+02  0.54367064858E+02  0.39999955956E+02 0.  0.
         12    1    3    3    0    0  0.12506782886E+02  0.25487655328E+02 -0.23446557795E+02  0.36820935142E+02  0.00000000000E+00 0. -1.
         11    1    4    4    0    0 -0.18510526012E+02 -0.91193185410E+01  0.12897900519E+01  0.20675229201E+02  0.51100000000E-03 0. -1.
        -11    1    4    4    0    0  0.42790596469E+01  0.33867045532E+01  0.60228880834E+01  0.81274411914E+01  0.51100000000E-03 0.  1.
        -12    1    4    4    0    0  0.17246834789E+01 -0.19755041341E+02  0.16133879660E+02  0.25564394465E+02  0.00000000000E+00 0.  1.
</event>
<event>
 8    1  0.2509489E-006  0.9118800E+02  0.7816164E-02  0.1184000E+00
        -11   -1    0    0    0    0  0.00000000000E+00  0.00000000000E+00  0.45593999997E+02  0.45594000000E+02  0.51100000000E-03 0. -1.
         11   -1    0    0    0    0 -0.00000000000E+00 -0.00000000000E+00 -0.45593999997E+02  0.45594000000E+02  0.51100000000E-03 0.  1.
         23    2    1    2    0    0 -0.44408920985E-15  0.00000000000E+00  0.00000000000E+00  0.91188000000E+02  0.91188000000E+02 0.  0.
    9900012    2    3    3    0    0 -0.17100391610E+01  0.16565241218E+02  0.32839739956E+02  0.54367082427E+02  0.39999996008E+02 0.  0.
        -12    1    3    3    0    0  0.17100391610E+01 -0.16565241218E+02 -0.32839739956E+02  0.36820917573E+02  0.00000000000E+00 0.  1.
         11    1    4    4    0    0 -0.56850612123E+01  0.77149052019E+00  0.17255338426E+02  0.18184109080E+02  0.51100000000E-03 0. -1.
        -11    1    4    4    0    0 -0.19130507620E+01  0.22788283990E+02  0.14245533710E+02  0.26942547789E+02  0.51100000000E-03 0.  1.
        -12    1    4    4    0    0  0.58880728132E+01 -0.69945332925E+01  0.13388678209E+01  0.92404255570E+01  0.00000000000E+00 0.  1.
</event>
<event>
 8    1  0.2509489E-006  0.9118800E+02  0.7816164E-02  0.1184000E+00
        -11   -1    0    0    0    0  0.00000000000E+00  0.00000000000E+00  0.45593999997E+02  0.45594000000E+02  0.51100000000E-03 0. -1.
         11   -1    0    0    0    0 -0.00000000000E+00 -0.00000000000E+00 -0.45593999997E+02  0.45594000000E+02  0.51100000000E-03 0.  1.
         23    2    1    2    0    0  0.35527136788E-14  0.00000000000E+00  0.00000000000E+00  0.91188000000E+02  0.91188000000E+02 0.  0.
    9900012    2    3    3    0    0  0.28586519357E+02 -0.29749092022E+01  0.23016019426E+02  0.54367131950E+02  0.40000108907E+02 0.  0.
        -12    1    3    3    0    0 -0.28586519357E+02  0.29749092022E+01 -0.23016019426E+02  0.36820868050E+02  0.00000000000E+00 0.  1.
         11    1    4    4    0    0 -0.48032905164E+01  0.13402032793E+01 -0.40893160899E+01  0.64490503921E+01  0.51100000000E-03 0.  1.
        -11    1    4    4    0    0  0.19095681317E+02 -0.17625847871E+01  0.24881311107E+01  0.19337594131E+02  0.51100000000E-03 0. -1.
         12    1    4    4    0    0  0.14294128556E+02 -0.25525276944E+01  0.24617204405E+02  0.28580487427E+02  0.00000000000E+00 0. -1.
</event>
<event>
 8    1  0.2509489E-006  0.9118800E+02  0.7816164E-02  0.1184000E+00
        -11   -1    0    0    0    0  0.00000000000E+00  0.00000000000E+00  0.45593999997E+02  0.45594000000E+02  0.51100000000E-03 0.  1.
         11   -1    0    0    0    0 -0.00000000000E+00 -0.00000000000E+00 -0.45593999997E+02  0.45594000000E+02  0.51100000000E-03 0. -1.
         23    2    1    2    0    0  0.11102230246E-15  0.00000000000E+00 -0.35527136788E-14  0.91188000000E+02  0.91188000000E+02 0.  0.
    9900012    2    3    3    0    0 -0.67106504011E+00  0.21739462845E+02  0.29710723060E+02  0.54367059791E+02  0.39999944406E+02 0.  0.
         12    1    3    3    0    0  0.67106504011E+00 -0.21739462845E+02 -0.29710723060E+02  0.36820940209E+02  0.00000000000E+00 0. -1.
         11    1    4    4    0    0  0.72264658226E+01  0.85156456196E+01  0.30221052556E+02  0.32218784062E+02  0.51100000000E-03 0. -1.
        -11    1    4    4    0    0 -0.57640073878E+01 -0.22560085262E+01  0.15659153815E+01  0.63847824458E+01  0.51100000000E-03 0.  1.
         12    1    4    4    0    0 -0.21335234749E+01  0.15479825751E+02 -0.20762448767E+01  0.15763493284E+02  0.00000000000E+00 0. -1.
</event>
<event>
 8    1  0.2509489E-006  0.9118800E+02  0.7816164E-02  0.1184000E+00
        -11   -1    0    0    0    0  0.00000000000E+00  0.00000000000E+00  0.45593999997E+02  0.45594000000E+02  0.51100000000E-03 0. -1.
         11   -1    0    0    0    0 -0.00000000000E+00 -0.00000000000E+00 -0.45593999997E+02  0.45594000000E+02  0.51100000000E-03 0.  1.
         23    2    1    2    0    0  0.00000000000E+00  0.00000000000E+00  0.71054273576E-14  0.91188000000E+02  0.91188000000E+02 0.  0.
    9900012    2    3    3    0    0  0.11672098851E+01  0.15964948633E+02 -0.33159277103E+02  0.54367087168E+02  0.40000006818E+02 0.  0.
         12    1    3    3    0    0 -0.11672098851E+01 -0.15964948633E+02  0.33159277103E+02  0.36820912832E+02  0.00000000000E+00 0. -1.
         11    1    4    4    0    0 -0.18628409283E+01  0.43117477498E+01  0.22393040901E+01  0.52034438645E+01  0.51100000000E-03 0. -1.
        -11    1    4    4    0    0 -0.10970908589E+02  0.16041357984E+02 -0.20782363801E+02  0.28453341573E+02  0.51100000000E-03 0.  1.
         12    1    4    4    0    0  0.14000959403E+02 -0.43881571013E+01 -0.14616217392E+02  0.20710301731E+02  0.00000000000E+00 0. -1.
</event>
<event>
 8    1  0.2509489E-006  0.9118800E+02  0.7816164E-02  0.1184000E+00
        -11   -1    0    0    0    0  0.00000000000E+00  0.00000000000E+00  0.45593999997E+02  0.45594000000E+02  0.51100000000E-03 0. -1.
         11   -1    0    0    0    0 -0.00000000000E+00 -0.00000000000E+00 -0.45593999997E+02  0.45594000000E+02  0.51100000000E-03 0.  1.
         23    2    1    2    0    0  0.00000000000E+00  0.71054273576E-14  0.88817841970E-15  0.91188000000E+02  0.91188000000E+02 0.  0.
    9900012    2    3    3    0    0 -0.16927080462E+02 -0.32353627281E+02 -0.47427280817E+01  0.54367126560E+02  0.40000096619E+02 0.  0.
        -12    1    3    3    0    0  0.16927080462E+02  0.32353627281E+02  0.47427280817E+01  0.36820873440E+02  0.00000000000E+00 0.  1.
         11    1    4    4    0    0 -0.56196893400E-01 -0.35025871102E+01  0.16262915252E+01  0.38621365773E+01  0.51100000000E-03 0. -1.
        -11    1    4    4    0    0 -0.12424896068E+02  0.47433261734E+01 -0.96902502325E+01  0.16455337594E+02  0.51100000000E-03 0.  1.
        -12    1    4    4    0    0 -0.44459874999E+01 -0.33594366345E+02  0.33212306256E+01  0.34049652389E+02  0.00000000000E+00 0.  1.
</event>
<event>
 8    1  0.2509489E-006  0.9118800E+02  0.7816164E-02  0.1184000E+00
        -11   -1    0    0    0    0  0.00000000000E+00  0.00000000000E+00  0.45593999997E+02  0.45594000000E+02  0.51100000000E-03 0. -1.
         11   -1    0    0    0    0 -0.00000000000E+00 -0.00000000000E+00 -0.45593999997E+02  0.45594000000E+02  0.51100000000E-03 0.  1.
         23    2    1    2    0    0  0.35527136788E-14  0.35527136788E-14 -0.35527136788E-14  0.91188000000E+02  0.91188000000E+02 0.  0.
    9900012    2    3    3    0    0  0.19384786716E+02 -0.25131039115E+02 -0.18666553288E+02  0.54367091609E+02  0.40000016942E+02 0.  0.
         12    1    3    3    0    0 -0.19384786716E+02  0.25131039115E+02  0.18666553288E+02  0.36820908391E+02  0.00000000000E+00 0. -1.
         11    1    4    4    0    0 -0.24809185296E+01  0.42755783529E+01 -0.12915103461E+01  0.51091610112E+01  0.51100000000E-03 0. -1.
        -11    1    4    4    0    0  0.20158526594E+01 -0.39554881355E+01 -0.16374710172E+02  0.16965868142E+02  0.51100000000E-03 0.  1.
         12    1    4    4    0    0  0.19849852587E+02 -0.25451129333E+02 -0.10003327703E+01  0.32292062456E+02  0.00000000000E+00 0. -1.
</event>
<event>
 8    1  0.2509489E-006  0.9118800E+02  0.7816164E-02  0.1184000E+00
        -11   -1    0    0    0    0  0.00000000000E+00  0.00000000000E+00  0.45593999997E+02  0.45594000000E+02  0.51100000000E-03 0. -1.
         11   -1    0    0    0    0 -0.00000000000E+00 -0.00000000000E+00 -0.45593999997E+02  0.45594000000E+02  0.51100000000E-03 0.  1.
         23    2    1    2    0    0  0.44408920985E-15  0.00000000000E+00 -0.44408920985E-15  0.91188000000E+02  0.91188000000E+02 0.  0.
    9900012    2    3    3    0    0  0.11078740361E+01  0.36762731872E+02  0.17475740591E+01  0.54367084006E+02  0.39999999608E+02 0.  0.
        -12    1    3    3    0    0 -0.11078740361E+01 -0.36762731872E+02 -0.17475740591E+01  0.36820915994E+02  0.00000000000E+00 0.  1.
         11    1    4    4    0    0 -0.15572196825E+00  0.65462589569E+01  0.34019093344E+01  0.73790746739E+01  0.51100000000E-03 0. -1.
        -11    1    4    4    0    0 -0.64543006275E+01  0.14407069261E+02 -0.17317326766E+02  0.23433127147E+02  0.51100000000E-03 0.  1.
        -12    1    4    4    0    0  0.77178966318E+01  0.15809403653E+02  0.15662991491E+02  0.23554882185E+02  0.00000000000E+00 0.  1.
</event>
<event>
 8    1  0.2509489E-006  0.9118800E+02  0.7816164E-02  0.1184000E+00
        -11   -1    0    0    0    0  0.00000000000E+00  0.00000000000E+00  0.45593999997E+02  0.45594000000E+02  0.51100000000E-03 0.  1.
         11   -1    0    0    0    0 -0.00000000000E+00 -0.00000000000E+00 -0.45593999997E+02  0.45594000000E+02  0.51100000000E-03 0. -1.
         23    2    1    2    0    0  0.00000000000E+00  0.17763568394E-14  0.17763568394E-14  0.91188000000E+02  0.91188000000E+02 0.  0.
    9900012    2    3    3    0    0  0.33161231203E+02  0.13581196804E+02 -0.84654539151E+01  0.54367081061E+02  0.39999992895E+02 0.  0.
        -12    1    3    3    0    0 -0.33161231203E+02 -0.13581196804E+02  0.84654539151E+01  0.36820918939E+02  0.00000000000E+00 0.  1.
         11    1    4    4    0    0  0.22723643375E+02  0.47194609250E+01 -0.16741111947E+02  0.28616465700E+02  0.51100000000E-03 0. -1.
        -11    1    4    4    0    0  0.10841430583E+02 -0.39444459897E+01  0.32296750560E+01  0.11980236746E+02  0.51100000000E-03 0.  1.
         12    1    4    4    0    0 -0.40384275494E+00  0.12806181869E+02  0.50459829760E+01  0.13770378616E+02  0.00000000000E+00 0. -1.
</event>
<event>
 8    1  0.2509489E-006  0.9118800E+02  0.7816164E-02  0.1184000E+00
        -11   -1    0    0    0    0  0.00000000000E+00  0.00000000000E+00  0.45593999997E+02  0.45594000000E+02  0.51100000000E-03 0.  1.
         11   -1    0    0    0    0 -0.00000000000E+00 -0.00000000000E+00 -0.45593999997E+02  0.45594000000E+02  0.51100000000E-03 0. -1.
         23    2    1    2    0    0  0.00000000000E+00 -0.17763568394E-14  0.88817841970E-15  0.91188000000E+02  0.91188000000E+02 0.  0.
    9900012    2    3    3    0    0 -0.34121590961E+02 -0.13539568263E+02  0.28593230972E+01  0.54367100947E+02  0.40000038230E+02 0.  0.
         12    1    3    3    0    0  0.34121590961E+02  0.13539568263E+02 -0.28593230972E+01  0.36820899053E+02  0.00000000000E+00 0. -1.
         11    1    4    4    0    0 -0.24503335580E+02 -0.10409877069E+02  0.39415971877E+01  0.26913104314E+02  0.51100000000E-03 0. -1.
        -11    1    4    4    0    0 -0.42783374709E+01 -0.13734625306E+02  0.33669035458E+01  0.14774306872E+02  0.51100000000E-03 0.  1.
        -12    1    4    4    0    0 -0.53399179104E+01  0.10604934112E+02 -0.44491776363E+01  0.12679689762E+02  0.00000000000E+00 0.  1.
</event>
<event>
 8    1  0.2509489E-006  0.9118800E+02  0.7816164E-02  0.1184000E+00
        -11   -1    0    0    0    0  0.00000000000E+00  0.00000000000E+00  0.45593999997E+02  0.45594000000E+02  0.51100000000E-03 0. -1.
         11   -1    0    0    0    0 -0.00000000000E+00 -0.00000000000E+00 -0.45593999997E+02  0.45594000000E+02  0.51100000000E-03 0.  1.
         23    2    1    2    0    0  0.88817841970E-15 -0.17763568394E-14  0.00000000000E+00  0.91188000000E+02  0.91188000000E+02 0.  0.
    9900012    2    3    3    0    0  0.46691047121E+01  0.12821559402E+02  0.34199215623E+02  0.54367091897E+02  0.40000017597E+02 0.  0.
        -12    1    3    3    0    0 -0.46691047121E+01 -0.12821559402E+02 -0.34199215623E+02  0.36820908103E+02  0.00000000000E+00 0.  1.
         11    1    4    4    0    0 -0.65193090149E+01  0.14617323622E+02  0.82730745288E+01  0.18016972618E+02  0.51100000000E-03 0. -1.
        -11    1    4    4    0    0 -0.32914923711E+01  0.70011883571E+01  0.12638839669E+02  0.14818597399E+02  0.51100000000E-03 0.  1.
        -12    1    4    4    0    0  0.14479906098E+02 -0.87969525772E+01  0.13287301425E+02  0.21531521879E+02  0.00000000000E+00 0.  1.
</event>
<event>
 8    1  0.2509489E-006  0.9118800E+02  0.7816164E-02  0.1184000E+00
        -11   -1    0    0    0    0  0.00000000000E+00  0.00000000000E+00  0.45593999997E+02  0.45594000000E+02  0.51100000000E-03 0.  1.
         11   -1    0    0    0    0 -0.00000000000E+00 -0.00000000000E+00 -0.45593999997E+02  0.45594000000E+02  0.51100000000E-03 0. -1.
         23    2    1    2    0    0  0.71054273576E-14  0.88817841970E-15  0.00000000000E+00  0.91188000000E+02  0.91188000000E+02 0.  0.
    9900012    2    3    3    0    0 -0.35639570971E+02 -0.45821582953E+01  0.80377366176E+01  0.54367076552E+02  0.39999982614E+02 0.  0.
         12    1    3    3    0    0  0.35639570971E+02  0.45821582953E+01 -0.80377366176E+01  0.36820923448E+02  0.00000000000E+00 0. -1.
         11    1    4    4    0    0 -0.58032436586E+01 -0.10780860122E+02  0.11979014770E+02  0.17128963105E+02  0.51100000000E-03 0. -1.
        -11    1    4    4    0    0 -0.21191658270E+02 -0.30303807691E+01  0.47065066672E+01  0.21918503442E+02  0.51100000000E-03 0.  1.
         12    1    4    4    0    0 -0.86446690426E+01  0.92290825957E+01 -0.86477848198E+01  0.15319610005E+02  0.00000000000E+00 0. -1.
</event>
<event>
 8    1  0.2509489E-006  0.9118800E+02  0.7816164E-02  0.1184000E+00
        -11   -1    0    0    0    0  0.00000000000E+00  0.00000000000E+00  0.45593999997E+02  0.45594000000E+02  0.51100000000E-03 0.  1.
         11   -1    0    0    0    0 -0.00000000000E+00 -0.00000000000E+00 -0.45593999997E+02  0.45594000000E+02  0.51100000000E-03 0. -1.
         23    2    1    2    0    0  0.00000000000E+00  0.00000000000E+00  0.00000000000E+00  0.91188000000E+02  0.91188000000E+02 0.  0.
    9900012    2    3    3    0    0  0.86405150858E+01  0.31205648422E+02  0.17530738238E+02  0.54367112211E+02  0.40000063908E+02 0.  0.
        -12    1    3    3    0    0 -0.86405150858E+01 -0.31205648422E+02 -0.17530738238E+02  0.36820887789E+02  0.00000000000E+00 0.  1.
         11    1    4    4    0    0  0.21710022020E+02  0.27452823888E+02  0.61786387311E+01  0.35540936571E+02  0.51100000000E-03 0. -1.
        -11    1    4    4    0    0 -0.90287734456E+01  0.54211478910E+01  0.90493035688E+01  0.13885153572E+02  0.51100000000E-03 0.  1.
         12    1    4    4    0    0 -0.40407334881E+01 -0.16683233564E+01  0.23027959383E+01  0.49410220680E+01  0.00000000000E+00 0. -1.
</event>
<event>
 8    1  0.2509489E-006  0.9118800E+02  0.7816164E-02  0.1184000E+00
        -11   -1    0    0    0    0  0.00000000000E+00  0.00000000000E+00  0.45593999997E+02  0.45594000000E+02  0.51100000000E-03 0.  1.
         11   -1    0    0    0    0 -0.00000000000E+00 -0.00000000000E+00 -0.45593999997E+02  0.45594000000E+02  0.51100000000E-03 0. -1.
         23    2    1    2    0    0  0.00000000000E+00  0.00000000000E+00  0.00000000000E+00  0.91188000000E+02  0.91188000000E+02 0.  0.
    9900012    2    3    3    0    0  0.19923897697E+02  0.25158593410E+02  0.18051665918E+02  0.54367093381E+02  0.40000020981E+02 0.  0.
         12    1    3    3    0    0 -0.19923897697E+02 -0.25158593410E+02 -0.18051665918E+02  0.36820906619E+02  0.00000000000E+00 0. -1.
         11    1    4    4    0    0  0.12509310293E+02  0.53176095713E+01  0.23749117551E+02  0.27363852073E+02  0.51100000000E-03 0. -1.
        -11    1    4    4    0    0 -0.17634182241E+01  0.14563616957E+02  0.60458785770E+00  0.14682442216E+02  0.51100000000E-03 0.  1.
         12    1    4    4    0    0  0.91780056277E+01  0.52773668823E+01 -0.63020394907E+01  0.12320799092E+02  0.00000000000E+00 0. -1.
</event>
<event>
 8    1  0.2509489E-006  0.9118800E+02  0.7816164E-02  0.1184000E+00
        -11   -1    0    0    0    0  0.00000000000E+00  0.00000000000E+00  0.45593999997E+02  0.45594000000E+02  0.51100000000E-03 0. -1.
         11   -1    0    0    0    0 -0.00000000000E+00 -0.00000000000E+00 -0.45593999997E+02  0.45594000000E+02  0.51100000000E-03 0.  1.
         23    2    1    2    0    0  0.00000000000E+00  0.00000000000E+00 -0.17763568394E-14  0.91188000000E+02  0.91188000000E+02 0.  0.
    9900012    2    3    3    0    0  0.34413563056E+02  0.44265975869E+01 -0.12324431111E+02  0.54367086233E+02  0.40000004685E+02 0.  0.
         12    1    3    3    0    0 -0.34413563056E+02 -0.44265975869E+01  0.12324431111E+02  0.36820913767E+02  0.00000000000E+00 0. -1.
         11    1    4    4    0    0  0.15781047268E+02 -0.22704295012E+01 -0.24363367593E+02  0.29116489894E+02  0.51100000000E-03 0. -1.
        -11    1    4    4    0    0  0.16781838623E+02  0.62479940794E+01  0.59484617127E+01  0.18869333179E+02  0.51100000000E-03 0.  1.
         12    1    4    4    0    0  0.18506771652E+01  0.44903300871E+00  0.60904747690E+01  0.63812631606E+01  0.00000000000E+00 0. -1.
</event>
<event>
 8    1  0.2509489E-006  0.9118800E+02  0.7816164E-02  0.1184000E+00
        -11   -1    0    0    0    0  0.00000000000E+00  0.00000000000E+00  0.45593999997E+02  0.45594000000E+02  0.51100000000E-03 0.  1.
         11   -1    0    0    0    0 -0.00000000000E+00 -0.00000000000E+00 -0.45593999997E+02  0.45594000000E+02  0.51100000000E-03 0. -1.
         23    2    1    2    0    0  0.00000000000E+00  0.00000000000E+00 -0.44408920985E-15  0.91188000000E+02  0.91188000000E+02 0.  0.
    9900012    2    3    3    0    0 -0.36645826964E+02 -0.23279878650E+01 -0.27282334323E+01  0.54367089921E+02  0.40000013094E+02 0.  0.
         12    1    3    3    0    0  0.36645826964E+02  0.23279878650E+01  0.27282334323E+01  0.36820910079E+02  0.00000000000E+00 0. -1.
         11    1    4    4    0    0 -0.17525570241E+01  0.65674593708E+01  0.84335698408E+01  0.10831808678E+02  0.51100000000E-03 0. -1.
        -11    1    4    4    0    0 -0.25086209059E+02 -0.12433154839E+02 -0.15772932834E+02  0.32135442033E+02  0.51100000000E-03 0.  1.
         12    1    4    4    0    0 -0.98070608808E+01  0.35377076034E+01  0.46111295606E+01  0.11399839211E+02  0.00000000000E+00 0. -1.
</event>
<event>
 8    1  0.2509489E-006  0.9118800E+02  0.7816164E-02  0.1184000E+00
        -11   -1    0    0    0    0  0.00000000000E+00  0.00000000000E+00  0.45593999997E+02  0.45594000000E+02  0.51100000000E-03 0. -1.
         11   -1    0    0    0    0 -0.00000000000E+00 -0.00000000000E+00 -0.45593999997E+02  0.45594000000E+02  0.51100000000E-03 0.  1.
         23    2    1    2    0    0  0.00000000000E+00  0.00000000000E+00 -0.35527136788E-14  0.91188000000E+02  0.91188000000E+02 0.  0.
    9900012    2    3    3    0    0  0.22098051829E+02 -0.11222964957E+02  0.27230524192E+02  0.54367078164E+02  0.39999986290E+02 0.  0.
        -12    1    3    3    0    0 -0.22098051829E+02  0.11222964957E+02 -0.27230524192E+02  0.36820921836E+02  0.00000000000E+00 0.  1.
         11    1    4    4    0    0  0.17607263827E+02  0.31148044618E+01  0.19037416471E+02  0.26117828632E+02  0.51100000000E-03 0. -1.
        -11    1    4    4    0    0  0.12189182213E+02 -0.14920463568E+02  0.50809764323E+01  0.19925177989E+02  0.51100000000E-03 0.  1.
        -12    1    4    4    0    0 -0.76983942106E+01  0.58269415004E+00  0.31121312893E+01  0.83240715432E+01  0.00000000000E+00 0.  1.
</event>
<event>
 8    1  0.2509489E-006  0.9118800E+02  0.7816164E-02  0.1184000E+00
        -11   -1    0    0    0    0  0.00000000000E+00  0.00000000000E+00  0.45593999997E+02  0.45594000000E+02  0.51100000000E-03 0. -1.
         11   -1    0    0    0    0 -0.00000000000E+00 -0.00000000000E+00 -0.45593999997E+02  0.45594000000E+02  0.51100000000E-03 0.  1.
         23    2    1    2    0    0 -0.88817841970E-15  0.35527136788E-14  0.00000000000E+00  0.91188000000E+02  0.91188000000E+02 0.  0.
    9900012    2    3    3    0    0 -0.65020467743E+01  0.21389441294E+02 -0.29257402979E+02  0.54367076054E+02  0.39999981480E+02 0.  0.
         12    1    3    3    0    0  0.65020467743E+01 -0.21389441294E+02  0.29257402979E+02  0.36820923946E+02  0.00000000000E+00 0. -1.
         11    1    4    4    0    0 -0.82075251779E+01 -0.33015264144E+01 -0.16445660315E+02  0.18674134242E+02  0.51100000000E-03 0. -1.
        -11    1    4    4    0    0  0.11401807522E+02  0.82242532283E+01 -0.37866935409E+01  0.14559485024E+02  0.51100000000E-03 0.  1.
        -12    1    4    4    0    0 -0.96963291181E+01  0.16466714480E+02 -0.90250491232E+01  0.21133456788E+02  0.00000000000E+00 0.  1.
</event>
<event>
 8    1  0.2509489E-006  0.9118800E+02  0.7816164E-02  0.1184000E+00
        -11   -1    0    0    0    0  0.00000000000E+00  0.00000000000E+00  0.45593999997E+02  0.45594000000E+02  0.51100000000E-03 0.  1.
         11   -1    0    0    0    0 -0.00000000000E+00 -0.00000000000E+00 -0.45593999997E+02  0.45594000000E+02  0.51100000000E-03 0. -1.
         23    2    1    2    0    0 -0.71054273576E-14  0.17763568394E-14 -0.88817841970E-15  0.91188000000E+02  0.91188000000E+02 0.  0.
    9900012    2    3    3    0    0 -0.33073909946E+02 -0.15669768310E+02 -0.40442523542E+01  0.54367066618E+02  0.39999959969E+02 0.  0.
        -12    1    3    3    0    0  0.33073909946E+02  0.15669768310E+02  0.40442523542E+01  0.36820933382E+02  0.00000000000E+00 0.  1.
         11    1    4    4    0    0  0.47943228854E+01 -0.17618724519E+01 -0.63254107464E+01  0.81302243412E+01  0.51100000000E-03 0. -1.
        -11    1    4    4    0    0 -0.28845630753E+02 -0.26476127833E+01  0.89822155066E+01  0.30327552863E+02  0.51100000000E-03 0.  1.
         12    1    4    4    0    0 -0.90226020783E+01 -0.11260283075E+02 -0.67010571144E+01  0.15909289413E+02  0.00000000000E+00 0. -1.
</event>
<event>
 8    1  0.2509489E-006  0.9118800E+02  0.7816164E-02  0.1184000E+00
        -11   -1    0    0    0    0  0.00000000000E+00  0.00000000000E+00  0.45593999997E+02  0.45594000000E+02  0.51100000000E-03 0.  1.
         11   -1    0    0    0    0 -0.00000000000E+00 -0.00000000000E+00 -0.45593999997E+02  0.45594000000E+02  0.51100000000E-03 0. -1.
         23    2    1    2    0    0  0.35527136788E-14  0.00000000000E+00 -0.66613381478E-15  0.91188000000E+02  0.91188000000E+02 0.  0.
    9900012    2    3    3    0    0  0.28178066599E+02  0.23690296146E+02  0.73811696213E+00  0.54367103957E+02  0.40000045091E+02 0.  0.
        -12    1    3    3    0    0 -0.28178066599E+02 -0.23690296146E+02 -0.73811696213E+00  0.36820896043E+02  0.00000000000E+00 0.  1.
         11    1    4    4    0    0  0.15424626628E+02  0.24822790986E+01  0.18096670114E+01  0.15727546251E+02  0.51100000000E-03 0. -1.
        -11    1    4    4    0    0 -0.16006055442E+01  0.10308921757E+02 -0.13267519242E+02  0.16877881177E+02  0.51100000000E-03 0.  1.
        -12    1    4    4    0    0  0.14354045515E+02  0.10899095291E+02  0.12195969193E+02  0.21761676529E+02  0.00000000000E+00 0.  1.
</event>
<event>
 8    1  0.2509489E-006  0.9118800E+02  0.7816164E-02  0.1184000E+00
        -11   -1    0    0    0    0  0.00000000000E+00  0.00000000000E+00  0.45593999997E+02  0.45594000000E+02  0.51100000000E-03 0. -1.
         11   -1    0    0    0    0 -0.00000000000E+00 -0.00000000000E+00 -0.45593999997E+02  0.45594000000E+02  0.51100000000E-03 0.  1.
         23    2    1    2    0    0  0.71054273576E-14  0.22204460493E-15 -0.35527136788E-14  0.91188000000E+02  0.91188000000E+02 0.  0.
    9900012    2    3    3    0    0  0.27377991125E+02 -0.73967692725E+00 -0.24610520896E+02  0.54367092098E+02  0.40000018055E+02 0.  0.
         12    1    3    3    0    0 -0.27377991125E+02  0.73967692725E+00  0.24610520896E+02  0.36820907902E+02  0.00000000000E+00 0. -1.
         11    1    4    4    0    0  0.59508008975E+01  0.52278437527E+01 -0.16791782965E+02  0.18566269335E+02  0.51100000000E-03 0.  1.
        -11    1    4    4    0    0  0.11129306573E+02  0.81812152773E+01  0.43553464827E+01  0.14483189961E+02  0.51100000000E-03 0. -1.
         12    1    4    4    0    0  0.10297883654E+02 -0.14148735957E+02 -0.12174084414E+02  0.21317632801E+02  0.00000000000E+00 0. -1.
</event>
<event>
 8    1  0.2509489E-006  0.9118800E+02  0.7816164E-02  0.1184000E+00
        -11   -1    0    0    0    0  0.00000000000E+00  0.00000000000E+00  0.45593999997E+02  0.45594000000E+02  0.51100000000E-03 0.  1.
         11   -1    0    0    0    0 -0.00000000000E+00 -0.00000000000E+00 -0.45593999997E+02  0.45594000000E+02  0.51100000000E-03 0. -1.
         23    2    1    2    0    0  0.00000000000E+00  0.35527136788E-14  0.35527136788E-14  0.91188000000E+02  0.91188000000E+02 0.  0.
    9900012    2    3    3    0    0 -0.23154414429E+02  0.17325806232E+02  0.22791808940E+02  0.54367122445E+02  0.40000087238E+02 0.  0.
         12    1    3    3    0    0  0.23154414429E+02 -0.17325806232E+02 -0.22791808940E+02  0.36820877555E+02  0.00000000000E+00 0. -1.
         11    1    4    4    0    0  0.54002783909E+01  0.11465152998E+01  0.89945371400E+01  0.10553634571E+02  0.51100000000E-03 0. -1.
        -11    1    4    4    0    0 -0.12001670076E+02  0.21118480531E+02  0.87248013362E+01  0.25809929546E+02  0.51100000000E-03 0.  1.
         12    1    4    4    0    0 -0.16553022745E+02 -0.49391895985E+01  0.50724704637E+01  0.18003558328E+02  0.00000000000E+00 0. -1.
</event>
<event>
 8    1  0.2509489E-006  0.9118800E+02  0.7816164E-02  0.1184000E+00
        -11   -1    0    0    0    0  0.00000000000E+00  0.00000000000E+00  0.45593999997E+02  0.45594000000E+02  0.51100000000E-03 0. -1.
         11   -1    0    0    0    0 -0.00000000000E+00 -0.00000000000E+00 -0.45593999997E+02  0.45594000000E+02  0.51100000000E-03 0.  1.
         23    2    1    2    0    0  0.00000000000E+00  0.00000000000E+00  0.00000000000E+00  0.91188000000E+02  0.91188000000E+02 0.  0.
    9900012    2    3    3    0    0  0.37331012653E+01  0.32258843621E+02 -0.17355443274E+02  0.54367075948E+02  0.39999981238E+02 0.  0.
         12    1    3    3    0    0 -0.37331012653E+01 -0.32258843621E+02  0.17355443274E+02  0.36820924052E+02  0.00000000000E+00 0. -1.
         11    1    4    4    0    0  0.96594291241E+00  0.12128379947E+00  0.74005313169E+01  0.74642896181E+01  0.51100000000E-03 0. -1.
        -11    1    4    4    0    0 -0.82006285650E+01  0.13367715538E+02 -0.18558275050E+02  0.24297236482E+02  0.51100000000E-03 0.  1.
        -12    1    4    4    0    0  0.10967786918E+02  0.18769844284E+02 -0.61976995413E+01  0.22605549848E+02  0.00000000000E+00 0.  1.
</event>
<event>
 8    1  0.2509489E-006  0.9118800E+02  0.7816164E-02  0.1184000E+00
        -11   -1    0    0    0    0  0.00000000000E+00  0.00000000000E+00  0.45593999997E+02  0.45594000000E+02  0.51100000000E-03 0. -1.
         11   -1    0    0    0    0 -0.00000000000E+00 -0.00000000000E+00 -0.45593999997E+02  0.45594000000E+02  0.51100000000E-03 0.  1.
         23    2    1    2    0    0  0.00000000000E+00  0.00000000000E+00  0.00000000000E+00  0.91188000000E+02  0.91188000000E+02 0.  0.
    9900012    2    3    3    0    0  0.10614842062E+02  0.33329487384E+02 -0.11499996719E+02  0.54367088471E+02  0.40000009788E+02 0.  0.
        -12    1    3    3    0    0 -0.10614842062E+02 -0.33329487384E+02  0.11499996719E+02  0.36820911529E+02  0.00000000000E+00 0.  1.
         11    1    4    4    0    0 -0.46338756187E+01  0.72982467431E+01  0.31708248715E+01  0.92082212940E+01  0.51100000000E-03 0. -1.
        -11    1    4    4    0    0  0.32667444769E+01  0.65078176185E+01  0.94262947779E+01  0.11911269585E+02  0.51100000000E-03 0.  1.
         12    1    4    4    0    0  0.11981973204E+02  0.19523423022E+02 -0.24097116369E+02  0.33247597592E+02  0.00000000000E+00 0. -1.
</event>
<event>
 8    1  0.2509489E-006  0.9118800E+02  0.7816164E-02  0.1184000E+00
        -11   -1    0    0    0    0  0.00000000000E+00  0.00000000000E+00  0.45593999997E+02  0.45594000000E+02  0.51100000000E-03 0.  1.
         11   -1    0    0    0    0 -0.00000000000E+00 -0.00000000000E+00 -0.45593999997E+02  0.45594000000E+02  0.51100000000E-03 0. -1.
         23    2    1    2    0    0  0.00000000000E+00  0.00000000000E+00 -0.17763568394E-14  0.91188000000E+02  0.91188000000E+02 0.  0.
    9900012    2    3    3    0    0 -0.14124219356E+02 -0.33638780142E+02  0.49716588110E+01  0.54367102493E+02  0.40000041754E+02 0.  0.
         12    1    3    3    0    0  0.14124219356E+02  0.33638780142E+02 -0.49716588110E+01  0.36820897507E+02  0.00000000000E+00 0. -1.
         11    1    4    4    0    0 -0.14382108074E+02 -0.26625501092E+02 -0.57361988438E+01  0.30800427245E+02  0.51100000000E-03 0. -1.
        -11    1    4    4    0    0 -0.27442649859E+01 -0.11240073763E+02 -0.10987930933E+00  0.11570752881E+02  0.51100000000E-03 0.  1.
         12    1    4    4    0    0  0.30021537043E+01  0.42267947130E+01  0.10817736964E+02  0.11995922367E+02  0.00000000000E+00 0. -1.
</event>
<event>
 8    1  0.2509489E-006  0.9118800E+02  0.7816164E-02  0.1184000E+00
        -11   -1    0    0    0    0  0.00000000000E+00  0.00000000000E+00  0.45593999997E+02  0.45594000000E+02  0.51100000000E-03 0.  1.
         11   -1    0    0    0    0 -0.00000000000E+00 -0.00000000000E+00 -0.45593999997E+02  0.45594000000E+02  0.51100000000E-03 0. -1.
         23    2    1    2    0    0  0.00000000000E+00  0.00000000000E+00 -0.17763568394E-14  0.91188000000E+02  0.91188000000E+02 0.  0.
    9900012    2    3    3    0    0  0.33544216788E+02 -0.69492115755E+01  0.13500925564E+02  0.54367068282E+02  0.39999963764E+02 0.  0.
        -12    1    3    3    0    0 -0.33544216788E+02  0.69492115755E+01 -0.13500925564E+02  0.36820931718E+02  0.00000000000E+00 0.  1.
         11    1    4    4    0    0  0.14550250719E+02 -0.90221561775E-01 -0.10885638483E+02  0.18171820530E+02  0.51100000000E-03 0. -1.
        -11    1    4    4    0    0  0.10623957114E+02 -0.11343005436E+02  0.20975671984E+02  0.26105766652E+02  0.51100000000E-03 0.  1.
         12    1    4    4    0    0  0.83700089553E+01  0.44840154220E+01  0.34108920626E+01  0.10089481101E+02  0.00000000000E+00 0. -1.
</event>
<event>
 8    1  0.2509489E-006  0.9118800E+02  0.7816164E-02  0.1184000E+00
        -11   -1    0    0    0    0  0.00000000000E+00  0.00000000000E+00  0.45593999997E+02  0.45594000000E+02  0.51100000000E-03 0.  1.
         11   -1    0    0    0    0 -0.00000000000E+00 -0.00000000000E+00 -0.45593999997E+02  0.45594000000E+02  0.51100000000E-03 0. -1.
         23    2    1    2    0    0 -0.35527136788E-14 -0.35527136788E-14  0.35527136788E-14  0.91188000000E+02  0.91188000000E+02 0.  0.
    9900012    2    3    3    0    0 -0.17236404246E+02 -0.26093696333E+02  0.19437221407E+02  0.54367079375E+02  0.39999989050E+02 0.  0.
         12    1    3    3    0    0  0.17236404246E+02  0.26093696333E+02 -0.19437221407E+02  0.36820920625E+02  0.00000000000E+00 0. -1.
         11    1    4    4    0    0 -0.15532699888E+02 -0.37099352676E+01 -0.11048295700E+01  0.16007780426E+02  0.51100000000E-03 0. -1.
        -11    1    4    4    0    0 -0.12205370196E+02 -0.15928473262E+02  0.12560245873E+02  0.23673763932E+02  0.51100000000E-03 0.  1.
        -12    1    4    4    0    0  0.10501665838E+02 -0.64552878036E+01  0.79818051046E+01  0.14685535017E+02  0.00000000000E+00 0.  1.
</event>
<event>
 8    1  0.2509489E-006  0.9118800E+02  0.7816164E-02  0.1184000E+00
        -11   -1    0    0    0    0  0.00000000000E+00  0.00000000000E+00  0.45593999997E+02  0.45594000000E+02  0.51100000000E-03 0.  1.
         11   -1    0    0    0    0 -0.00000000000E+00 -0.00000000000E+00 -0.45593999997E+02  0.45594000000E+02  0.51100000000E-03 0. -1.
         23    2    1    2    0    0  0.00000000000E+00  0.22204460493E-15  0.88817841970E-15  0.91188000000E+02  0.91188000000E+02 0.  0.
    9900012    2    3    3    0    0 -0.36656093643E+02  0.14289697581E+01 -0.31729843075E+01  0.54367095813E+02  0.40000026526E+02 0.  0.
        -12    1    3    3    0    0  0.36656093643E+02 -0.14289697581E+01  0.31729843075E+01  0.36820904187E+02  0.00000000000E+00 0.  1.
         11    1    4    4    0    0 -0.60416960382E+01 -0.46087330582E+01 -0.34921304373E+01  0.83628635450E+01  0.51100000000E-03 0. -1.
        -11    1    4    4    0    0 -0.30062395753E+02  0.17806874667E+01  0.12862304495E+02  0.32746867994E+02  0.51100000000E-03 0.  1.
         12    1    4    4    0    0 -0.55200185176E+00  0.42570153495E+01 -0.12543158365E+02  0.13257364274E+02  0.00000000000E+00 0. -1.
</event>
<event>
 8    1  0.2509489E-006  0.9118800E+02  0.7816164E-02  0.1184000E+00
        -11   -1    0    0    0    0  0.00000000000E+00  0.00000000000E+00  0.45593999997E+02  0.45594000000E+02  0.51100000000E-03 0.  1.
         11   -1    0    0    0    0 -0.00000000000E+00 -0.00000000000E+00 -0.45593999997E+02  0.45594000000E+02  0.51100000000E-03 0. -1.
         23    2    1    2    0    0  0.00000000000E+00  0.00000000000E+00  0.17763568394E-14  0.91188000000E+02  0.91188000000E+02 0.  0.
    9900012    2    3    3    0    0  0.22971486931E+02 -0.25246569271E+02 -0.13809475583E+02  0.54367080842E+02  0.39999992396E+02 0.  0.
         12    1    3    3    0    0 -0.22971486931E+02  0.25246569271E+02  0.13809475583E+02  0.36820919158E+02  0.00000000000E+00 0. -1.
         11    1    4    4    0    0  0.19393735380E+02 -0.12560878561E+02 -0.19919391720E+02  0.30506963287E+02  0.51100000000E-03 0. -1.
        -11    1    4    4    0    0  0.11179622767E+02 -0.92676739391E+01  0.54074644730E+01  0.15495625762E+02  0.51100000000E-03 0.  1.
        -12    1    4    4    0    0 -0.76018712162E+01 -0.34180167700E+01  0.70245166423E+00  0.83644917938E+01  0.00000000000E+00 0.  1.
</event>
<event>
 8    1  0.2509489E-006  0.9118800E+02  0.7816164E-02  0.1184000E+00
        -11   -1    0    0    0    0  0.00000000000E+00  0.00000000000E+00  0.45593999997E+02  0.45594000000E+02  0.51100000000E-03 0.  1.
         11   -1    0    0    0    0 -0.00000000000E+00 -0.00000000000E+00 -0.45593999997E+02  0.45594000000E+02  0.51100000000E-03 0. -1.
         23    2    1    2    0    0  0.00000000000E+00  0.00000000000E+00  0.00000000000E+00  0.91188000000E+02  0.91188000000E+02 0.  0.
    9900012    2    3    3    0    0  0.45590048134E+01 -0.28179456788E+02 -0.23257522476E+02  0.54367100208E+02  0.40000036545E+02 0.  0.
        -12    1    3    3    0    0 -0.45590048134E+01  0.28179456788E+02  0.23257522476E+02  0.36820899792E+02  0.00000000000E+00 0.  1.
         11    1    4    4    0    0  0.90632077492E+01 -0.87243459616E+01 -0.19808952809E+01  0.12734986986E+02  0.51100000000E-03 0. -1.
        -11    1    4    4    0    0 -0.51437003159E+01 -0.20179348557E+02 -0.27969105301E+02  0.34870253981E+02  0.51100000000E-03 0.  1.
        -12    1    4    4    0    0  0.63949738015E+00  0.72423773024E+00  0.66924781062E+01  0.67618592407E+01  0.00000000000E+00 0.  1.
</event>
<event>
 8    1  0.2509489E-006  0.9118800E+02  0.7816164E-02  0.1184000E+00
        -11   -1    0    0    0    0  0.00000000000E+00  0.00000000000E+00  0.45593999997E+02  0.45594000000E+02  0.51100000000E-03 0.  1.
         11   -1    0    0    0    0 -0.00000000000E+00 -0.00000000000E+00 -0.45593999997E+02  0.45594000000E+02  0.51100000000E-03 0. -1.
         23    2    1    2    0    0 -0.10658141036E-13 -0.35527136788E-14  0.17763568394E-14  0.91188000000E+02  0.91188000000E+02 0.  0.
    9900012    2    3    3    0    0 -0.29133921625E+02 -0.17910694724E+02  0.13645545968E+02  0.54367091544E+02  0.40000016793E+02 0.  0.
         12    1    3    3    0    0  0.29133921625E+02  0.17910694724E+02 -0.13645545968E+02  0.36820908456E+02  0.00000000000E+00 0. -1.
         11    1    4    4    0    0 -0.23278990545E+01 -0.11420183362E+02  0.18594632663E+02  0.21945388267E+02  0.51100000000E-03 0. -1.
        -11    1    4    4    0    0  0.14757140478E+01 -0.19056883237E+01 -0.27937794854E+01  0.36897945759E+01  0.51100000000E-03 0.  1.
        -12    1    4    4    0    0 -0.28281736619E+02 -0.45848230378E+01 -0.21553072099E+01  0.28731908701E+02  0.00000000000E+00 0.  1.
</event>
<event>
 8    1  0.2509489E-006  0.9118800E+02  0.7816164E-02  0.1184000E+00
        -11   -1    0    0    0    0  0.00000000000E+00  0.00000000000E+00  0.45593999997E+02  0.45594000000E+02  0.51100000000E-03 0.  1.
         11   -1    0    0    0    0 -0.00000000000E+00 -0.00000000000E+00 -0.45593999997E+02  0.45594000000E+02  0.51100000000E-03 0. -1.
         23    2    1    2    0    0 -0.35527136788E-14  0.00000000000E+00  0.35527136788E-14  0.91188000000E+02  0.91188000000E+02 0.  0.
    9900012    2    3    3    0    0  0.31421702784E+02 -0.98080644173E+01 -0.16500228038E+02  0.54367094813E+02  0.40000024246E+02 0.  0.
        -12    1    3    3    0    0 -0.31421702784E+02  0.98080644173E+01  0.16500228038E+02  0.36820905187E+02  0.00000000000E+00 0.  1.
         11    1    4    4    0    0  0.75310733589E+01 -0.88253246653E+01 -0.14259094522E+02  0.18382741858E+02  0.51100000000E-03 0. -1.
        -11    1    4    4    0    0  0.12353952596E+02 -0.77972174520E+01  0.10106210303E+02  0.17763789902E+02  0.51100000000E-03 0.  1.
        -12    1    4    4    0    0  0.11536676829E+02  0.68144777000E+01 -0.12347343819E+02  0.18220563053E+02  0.00000000000E+00 0.  1.
</event>
<event>
 8    1  0.2509489E-006  0.9118800E+02  0.7816164E-02  0.1184000E+00
        -11   -1    0    0    0    0  0.00000000000E+00  0.00000000000E+00  0.45593999997E+02  0.45594000000E+02  0.51100000000E-03 0. -1.
         11   -1    0    0    0    0 -0.00000000000E+00 -0.00000000000E+00 -0.45593999997E+02  0.45594000000E+02  0.51100000000E-03 0.  1.
         23    2    1    2    0    0  0.00000000000E+00  0.00000000000E+00  0.00000000000E+00  0.91188000000E+02  0.91188000000E+02 0.  0.
    9900012    2    3    3    0    0 -0.24482480886E+02 -0.15359577979E+02  0.22813846491E+02  0.54367080705E+02  0.39999992083E+02 0.  0.
        -12    1    3    3    0    0  0.24482480886E+02  0.15359577979E+02 -0.22813846491E+02  0.36820919295E+02  0.00000000000E+00 0.  1.
         11    1    4    4    0    0 -0.10768752953E+02 -0.33518840105E+01  0.99186881891E+01  0.15019372232E+02  0.51100000000E-03 0. -1.
        -11    1    4    4    0    0 -0.77185291298E+01 -0.20417611675E+02  0.17560568474E+02  0.28014784023E+02  0.51100000000E-03 0.  1.
        -12    1    4    4    0    0 -0.59951988034E+01  0.84099177069E+01 -0.46654101720E+01  0.11332924451E+02  0.00000000000E+00 0.  1.
</event>
<event>
 8    1  0.2509489E-006  0.9118800E+02  0.7816164E-02  0.1184000E+00
        -11   -1    0    0    0    0  0.00000000000E+00  0.00000000000E+00  0.45593999997E+02  0.45594000000E+02  0.51100000000E-03 0.  1.
         11   -1    0    0    0    0 -0.00000000000E+00 -0.00000000000E+00 -0.45593999997E+02  0.45594000000E+02  0.51100000000E-03 0. -1.
         23    2    1    2    0    0 -0.35527136788E-14  0.35527136788E-14  0.00000000000E+00  0.91188000000E+02  0.91188000000E+02 0.  0.
    9900012    2    3    3    0    0 -0.20949144471E+02  0.18559068294E+02  0.23926433868E+02  0.54367083286E+02  0.39999997968E+02 0.  0.
         12    1    3    3    0    0  0.20949144471E+02 -0.18559068294E+02 -0.23926433868E+02  0.36820916714E+02  0.00000000000E+00 0. -1.
         11    1    4    4    0    0 -0.16288278688E+02 -0.54503439132E+01 -0.14199716152E+01  0.17234575452E+02  0.51100000000E-03 0.  1.
        -11    1    4    4    0    0 -0.43173411138E+00  0.74315223643E+01  0.12013756253E+01  0.75403728454E+01  0.51100000000E-03 0. -1.
        -12    1    4    4    0    0 -0.42291316716E+01  0.16577889843E+02  0.24145029858E+02  0.29592134989E+02  0.00000000000E+00 0.  1.
</event>
<event>
 8    1  0.2509489E-006  0.9118800E+02  0.7816164E-02  0.1184000E+00
        -11   -1    0    0    0    0  0.00000000000E+00  0.00000000000E+00  0.45593999997E+02  0.45594000000E+02  0.51100000000E-03 0. -1.
         11   -1    0    0    0    0 -0.00000000000E+00 -0.00000000000E+00 -0.45593999997E+02  0.45594000000E+02  0.51100000000E-03 0.  1.
         23    2    1    2    0    0  0.00000000000E+00  0.00000000000E+00  0.71054273576E-14  0.91188000000E+02  0.91188000000E+02 0.  0.
    9900012    2    3    3    0    0 -0.16506731651E+02 -0.57129653945E+01  0.32414048679E+02  0.54367072321E+02  0.39999972970E+02 0.  0.
        -12    1    3    3    0    0  0.16506731651E+02  0.57129653945E+01 -0.32414048679E+02  0.36820927679E+02  0.00000000000E+00 0.  1.
         11    1    4    4    0    0 -0.12936360908E+02 -0.42054811441E+01  0.17342355605E+02  0.22040707870E+02  0.51100000000E-03 0. -1.
        -11    1    4    4    0    0 -0.39931578485E+01 -0.28825082681E+01  0.23380698425E+02  0.23893748610E+02  0.51100000000E-03 0.  1.
        -12    1    4    4    0    0  0.42278710578E+00  0.13750240178E+01 -0.83090053520E+01  0.84326158412E+01  0.00000000000E+00 0.  1.
</event>
<event>
 8    1  0.2509489E-006  0.9118800E+02  0.7816164E-02  0.1184000E+00
        -11   -1    0    0    0    0  0.00000000000E+00  0.00000000000E+00  0.45593999997E+02  0.45594000000E+02  0.51100000000E-03 0. -1.
         11   -1    0    0    0    0 -0.00000000000E+00 -0.00000000000E+00 -0.45593999997E+02  0.45594000000E+02  0.51100000000E-03 0.  1.
         23    2    1    2    0    0  0.00000000000E+00  0.00000000000E+00  0.00000000000E+00  0.91188000000E+02  0.91188000000E+02 0.  0.
    9900012    2    3    3    0    0 -0.15930178389E+02  0.23248284240E+02  0.23696547276E+02  0.54367086698E+02  0.40000005745E+02 0.  0.
        -12    1    3    3    0    0  0.15930178389E+02 -0.23248284240E+02 -0.23696547276E+02  0.36820913302E+02  0.00000000000E+00 0.  1.
         11    1    4    4    0    0 -0.72497414318E+01  0.56722321029E+01  0.11077547670E+02  0.14402952145E+02  0.51100000000E-03 0. -1.
        -11    1    4    4    0    0  0.79180270948E+01  0.19560417801E+02  0.84824211159E+01  0.22743275179E+02  0.51100000000E-03 0.  1.
         12    1    4    4    0    0 -0.16598464052E+02 -0.19843656636E+01  0.41365784903E+01  0.17220859374E+02  0.00000000000E+00 0. -1.
</event>
<event>
 8    1  0.2509489E-006  0.9118800E+02  0.7816164E-02  0.1184000E+00
        -11   -1    0    0    0    0  0.00000000000E+00  0.00000000000E+00  0.45593999997E+02  0.45594000000E+02  0.51100000000E-03 0.  1.
         11   -1    0    0    0    0 -0.00000000000E+00 -0.00000000000E+00 -0.45593999997E+02  0.45594000000E+02  0.51100000000E-03 0. -1.
         23    2    1    2    0    0  0.00000000000E+00  0.00000000000E+00  0.00000000000E+00  0.91188000000E+02  0.91188000000E+02 0.  0.
    9900012    2    3    3    0    0  0.41899936154E+01  0.64596284403E+01 -0.36006953758E+02  0.54367033622E+02  0.39999884748E+02 0.  0.
        -12    1    3    3    0    0 -0.41899936154E+01 -0.64596284403E+01  0.36006953758E+02  0.36820966378E+02  0.00000000000E+00 0.  1.
         11    1    4    4    0    0  0.50210599728E+01  0.21441433957E+02 -0.16554911747E+02  0.27550158558E+02  0.51100000000E-03 0. -1.
        -11    1    4    4    0    0  0.22678022766E+01 -0.20452592417E+01 -0.10111389855E+02  0.10562491070E+02  0.51100000000E-03 0.  1.
        -12    1    4    4    0    0 -0.30988686339E+01 -0.12936546275E+02 -0.93406521558E+01  0.16254383994E+02  0.00000000000E+00 0.  1.
</event>
<event>
 8    1  0.2509489E-006  0.9118800E+02  0.7816164E-02  0.1184000E+00
        -11   -1    0    0    0    0  0.00000000000E+00  0.00000000000E+00  0.45593999997E+02  0.45594000000E+02  0.51100000000E-03 0.  1.
         11   -1    0    0    0    0 -0.00000000000E+00 -0.00000000000E+00 -0.45593999997E+02  0.45594000000E+02  0.51100000000E-03 0. -1.
         23    2    1    2    0    0  0.00000000000E+00  0.00000000000E+00 -0.88817841970E-15  0.91188000000E+02  0.91188000000E+02 0.  0.
    9900012    2    3    3    0    0 -0.32050199887E+02 -0.16572445870E+02 -0.73430486046E+01  0.54367059793E+02  0.39999944410E+02 0.  0.
        -12    1    3    3    0    0  0.32050199887E+02  0.16572445870E+02  0.73430486046E+01  0.36820940207E+02  0.00000000000E+00 0.  1.
         11    1    4    4    0    0  0.20990733340E+00  0.30642927841E+01 -0.72821356930E+01  0.79033823055E+01  0.51100000000E-03 0. -1.
        -11    1    4    4    0    0  0.76189054489E+00 -0.29631074080E+01 -0.80555023434E+01  0.86169368675E+01  0.51100000000E-03 0.  1.
         12    1    4    4    0    0 -0.33021997766E+02 -0.16673631246E+02  0.79945894317E+01  0.37846740620E+02  0.00000000000E+00 0. -1.
</event>
<event>
 8    1  0.2509489E-006  0.9118800E+02  0.7816164E-02  0.1184000E+00
        -11   -1    0    0    0    0  0.00000000000E+00  0.00000000000E+00  0.45593999997E+02  0.45594000000E+02  0.51100000000E-03 0. -1.
         11   -1    0    0    0    0 -0.00000000000E+00 -0.00000000000E+00 -0.45593999997E+02  0.45594000000E+02  0.51100000000E-03 0.  1.
         23    2    1    2    0    0 -0.35527136788E-14  0.00000000000E+00  0.35527136788E-14  0.91188000000E+02  0.91188000000E+02 0.  0.
    9900012    2    3    3    0    0  0.21453961494E+02  0.19455628897E+02 -0.22737194575E+02  0.54367163824E+02  0.40000181570E+02 0.  0.
         12    1    3    3    0    0 -0.21453961494E+02 -0.19455628897E+02  0.22737194575E+02  0.36820836176E+02  0.00000000000E+00 0. -1.
         11    1    4    4    0    0 -0.68088884169E+01  0.70580706664E+01 -0.11865811554E+02  0.15393986069E+02  0.51100000000E-03 0. -1.
        -11    1    4    4    0    0  0.86973971456E+01  0.69858040320E+01  0.59194712290E+01  0.12628789133E+02  0.51100000000E-03 0.  1.
        -12    1    4    4    0    0  0.19565452765E+02  0.54117541986E+01 -0.16790854250E+02  0.26344388621E+02  0.00000000000E+00 0.  1.
</event>
<event>
 8    1  0.2509489E-006  0.9118800E+02  0.7816164E-02  0.1184000E+00
        -11   -1    0    0    0    0  0.00000000000E+00  0.00000000000E+00  0.45593999997E+02  0.45594000000E+02  0.51100000000E-03 0.  1.
         11   -1    0    0    0    0 -0.00000000000E+00 -0.00000000000E+00 -0.45593999997E+02  0.45594000000E+02  0.51100000000E-03 0. -1.
         23    2    1    2    0    0  0.17763568394E-14  0.00000000000E+00 -0.88817841970E-15  0.91188000000E+02  0.91188000000E+02 0.  0.
    9900012    2    3    3    0    0  0.73474668091E+01 -0.35554030971E+02 -0.61397582542E+01  0.54367203998E+02  0.40000273153E+02 0.  0.
        -12    1    3    3    0    0 -0.73474668091E+01  0.35554030971E+02  0.61397582542E+01  0.36820796002E+02  0.00000000000E+00 0.  1.
         11    1    4    4    0    0  0.38371269745E+00 -0.63079231998E+01 -0.77183972185E+01  0.99755093310E+01  0.51100000000E-03 0. -1.
        -11    1    4    4    0    0  0.13759901049E+02 -0.50869164461E+01 -0.89401554431E+01  0.17179580187E+02  0.51100000000E-03 0.  1.
        -12    1    4    4    0    0 -0.67961469370E+01 -0.24159191325E+02  0.10518794407E+02  0.27212114480E+02  0.00000000000E+00 0.  1.
</event>
<event>
 8    1  0.2509489E-006  0.9118800E+02  0.7816164E-02  0.1184000E+00
        -11   -1    0    0    0    0  0.00000000000E+00  0.00000000000E+00  0.45593999997E+02  0.45594000000E+02  0.51100000000E-03 0.  1.
         11   -1    0    0    0    0 -0.00000000000E+00 -0.00000000000E+00 -0.45593999997E+02  0.45594000000E+02  0.51100000000E-03 0. -1.
         23    2    1    2    0    0  0.00000000000E+00  0.00000000000E+00  0.35527136788E-14  0.91188000000E+02  0.91188000000E+02 0.  0.
    9900012    2    3    3    0    0 -0.14394147966E+02  0.20542975368E+02 -0.26955051509E+02  0.54367080206E+02  0.39999990946E+02 0.  0.
        -12    1    3    3    0    0  0.14394147966E+02 -0.20542975368E+02  0.26955051509E+02  0.36820919794E+02  0.00000000000E+00 0.  1.
         11    1    4    4    0    0 -0.29688673354E+01  0.17812638606E+02 -0.14124101144E+02  0.22925847874E+02  0.51100000000E-03 0. -1.
        -11    1    4    4    0    0 -0.17439999627E+00 -0.69083617869E+01  0.47986165370E+01  0.84132394990E+01  0.51100000000E-03 0.  1.
         12    1    4    4    0    0 -0.11250880635E+02  0.96386985490E+01 -0.17629566902E+02  0.23027992833E+02  0.00000000000E+00 0. -1.
</event>
<event>
 8    1  0.2509489E-006  0.9118800E+02  0.7816164E-02  0.1184000E+00
        -11   -1    0    0    0    0  0.00000000000E+00  0.00000000000E+00  0.45593999997E+02  0.45594000000E+02  0.51100000000E-03 0.  1.
         11   -1    0    0    0    0 -0.00000000000E+00 -0.00000000000E+00 -0.45593999997E+02  0.45594000000E+02  0.51100000000E-03 0. -1.
         23    2    1    2    0    0  0.00000000000E+00  0.00000000000E+00  0.17763568394E-14  0.91188000000E+02  0.91188000000E+02 0.  0.
    9900012    2    3    3    0    0  0.20141869004E+02 -0.30216869825E+02  0.60848062891E+01  0.54367095930E+02  0.40000026791E+02 0.  0.
        -12    1    3    3    0    0 -0.20141869004E+02  0.30216869825E+02 -0.60848062891E+01  0.36820904070E+02  0.00000000000E+00 0.  1.
         11    1    4    4    0    0  0.51359670845E+01  0.51574271203E+01 -0.30500982554E+00  0.72849326455E+01  0.51100000000E-03 0. -1.
        -11    1    4    4    0    0  0.98021524139E+01 -0.65910125333E+01 -0.82159290424E+01  0.14388367817E+02  0.51100000000E-03 0.  1.
        -12    1    4    4    0    0  0.52037495054E+01 -0.28783284412E+02  0.14605745157E+02  0.32693795467E+02  0.00000000000E+00 0.  1.
</event>
<event>
 8    1  0.2509489E-006  0.9118800E+02  0.7816164E-02  0.1184000E+00
        -11   -1    0    0    0    0  0.00000000000E+00  0.00000000000E+00  0.45593999997E+02  0.45594000000E+02  0.51100000000E-03 0. -1.
         11   -1    0    0    0    0 -0.00000000000E+00 -0.00000000000E+00 -0.45593999997E+02  0.45594000000E+02  0.51100000000E-03 0.  1.
         23    2    1    2    0    0  0.17763568394E-14 -0.17763568394E-14  0.71054273576E-14  0.91188000000E+02  0.91188000000E+02 0.  0.
    9900012    2    3    3    0    0 -0.61490569510E+01  0.96127432803E+01 -0.35008050883E+02  0.54367090704E+02  0.40000014878E+02 0.  0.
         12    1    3    3    0    0  0.61490569510E+01 -0.96127432803E+01  0.35008050883E+02  0.36820909296E+02  0.00000000000E+00 0. -1.
         11    1    4    4    0    0  0.45153018217E+01 -0.71511513913E+01  0.38791361215E+01  0.93045480316E+01  0.51100000000E-03 0. -1.
        -11    1    4    4    0    0 -0.21682485327E+01  0.40929382277E+01 -0.21222487601E+02  0.21722049288E+02  0.51100000000E-03 0.  1.
        -12    1    4    4    0    0 -0.84961102400E+01  0.12670956444E+02 -0.17664699403E+02  0.23340493384E+02  0.00000000000E+00 0.  1.
</event>
<event>
 8    1  0.2509489E-006  0.9118800E+02  0.7816164E-02  0.1184000E+00
        -11   -1    0    0    0    0  0.00000000000E+00  0.00000000000E+00  0.45593999997E+02  0.45594000000E+02  0.51100000000E-03 0.  1.
         11   -1    0    0    0    0 -0.00000000000E+00 -0.00000000000E+00 -0.45593999997E+02  0.45594000000E+02  0.51100000000E-03 0. -1.
         23    2    1    2    0    0 -0.88817841970E-15 -0.26645352591E-14  0.71054273576E-14  0.91188000000E+02  0.91188000000E+02 0.  0.
    9900012    2    3    3    0    0  0.68655252178E+01  0.43058230589E+01 -0.35918027426E+02  0.54367078733E+02  0.39999987588E+02 0.  0.
        -12    1    3    3    0    0 -0.68655252178E+01 -0.43058230589E+01  0.35918027426E+02  0.36820921267E+02  0.00000000000E+00 0.  1.
         11    1    4    4    0    0 -0.69480611865E+01  0.15171599227E+02 -0.23843832048E+02  0.29102943225E+02  0.51100000000E-03 0. -1.
        -11    1    4    4    0    0  0.11558478504E+02 -0.89487600870E+01 -0.15110473054E+02  0.21023918012E+02  0.51100000000E-03 0.  1.
         12    1    4    4    0    0  0.22551079006E+01 -0.19170160807E+01  0.30362776751E+01  0.42402174965E+01  0.00000000000E+00 0. -1.
</event>
<event>
 8    1  0.2509489E-006  0.9118800E+02  0.7816164E-02  0.1184000E+00
        -11   -1    0    0    0    0  0.00000000000E+00  0.00000000000E+00  0.45593999997E+02  0.45594000000E+02  0.51100000000E-03 0.  1.
         11   -1    0    0    0    0 -0.00000000000E+00 -0.00000000000E+00 -0.45593999997E+02  0.45594000000E+02  0.51100000000E-03 0. -1.
         23    2    1    2    0    0  0.22204460493E-14  0.00000000000E+00  0.00000000000E+00  0.91188000000E+02  0.91188000000E+02 0.  0.
    9900012    2    3    3    0    0  0.17209578943E+01 -0.34822646519E+02  0.11840895710E+02  0.54367011177E+02  0.39999833580E+02 0.  0.
         12    1    3    3    0    0 -0.17209578943E+01  0.34822646519E+02 -0.11840895710E+02  0.36820988823E+02  0.00000000000E+00 0. -1.
         11    1    4    4    0    0  0.45477382009E+01 -0.28835549951E+01  0.55444978385E+00  0.54133378777E+01  0.51100000000E-03 0. -1.
        -11    1    4    4    0    0 -0.13284203436E+02 -0.15597012237E+02  0.19126562573E+02  0.28027883398E+02  0.51100000000E-03 0.  1.
        -12    1    4    4    0    0  0.10457423130E+02 -0.16342079288E+02 -0.78401166470E+01  0.20925789901E+02  0.00000000000E+00 0.  1.
</event>
<event>
 8    1  0.2509489E-006  0.9118800E+02  0.7816164E-02  0.1184000E+00
        -11   -1    0    0    0    0  0.00000000000E+00  0.00000000000E+00  0.45593999997E+02  0.45594000000E+02  0.51100000000E-03 0. -1.
         11   -1    0    0    0    0 -0.00000000000E+00 -0.00000000000E+00 -0.45593999997E+02  0.45594000000E+02  0.51100000000E-03 0.  1.
         23    2    1    2    0    0 -0.35527136788E-14  0.00000000000E+00  0.00000000000E+00  0.91188000000E+02  0.91188000000E+02 0.  0.
    9900012    2    3    3    0    0  0.15362473733E+02  0.26901431661E+02 -0.19901952417E+02  0.54367077488E+02  0.39999984750E+02 0.  0.
         12    1    3    3    0    0 -0.15362473733E+02 -0.26901431661E+02  0.19901952417E+02  0.36820922512E+02  0.00000000000E+00 0. -1.
         11    1    4    4    0    0 -0.13211745984E+02  0.79647686503E+01 -0.51169165144E+01  0.16253326013E+02  0.51100000000E-03 0. -1.
        -11    1    4    4    0    0  0.87987330123E+01  0.97430705126E+01 -0.75094608165E+01  0.15124057910E+02  0.51100000000E-03 0.  1.
         12    1    4    4    0    0  0.19775486705E+02  0.91935924982E+01 -0.72755750857E+01  0.22989693566E+02  0.00000000000E+00 0. -1.
</event>
<event>
 8    1  0.2509489E-006  0.9118800E+02  0.7816164E-02  0.1184000E+00
        -11   -1    0    0    0    0  0.00000000000E+00  0.00000000000E+00  0.45593999997E+02  0.45594000000E+02  0.51100000000E-03 0. -1.
         11   -1    0    0    0    0 -0.00000000000E+00 -0.00000000000E+00 -0.45593999997E+02  0.45594000000E+02  0.51100000000E-03 0.  1.
         23    2    1    2    0    0  0.44408920985E-15  0.88817841970E-15  0.71054273576E-14  0.91188000000E+02  0.91188000000E+02 0.  0.
    9900012    2    3    3    0    0 -0.12101635463E+01  0.53318183603E+01  0.36412742946E+02  0.54367073455E+02  0.39999975554E+02 0.  0.
        -12    1    3    3    0    0  0.12101635463E+01 -0.53318183603E+01 -0.36412742946E+02  0.36820926545E+02  0.00000000000E+00 0.  1.
         11    1    4    4    0    0  0.60430559049E+01  0.14538195015E+02  0.66759287053E+01  0.17101042755E+02  0.51100000000E-03 0.  1.
        -11    1    4    4    0    0 -0.95910053786E+01  0.28934271253E+01  0.15256294457E+02  0.18251406124E+02  0.51100000000E-03 0. -1.
         12    1    4    4    0    0  0.23377859274E+01 -0.12099803780E+02  0.14480519784E+02  0.19014624576E+02  0.00000000000E+00 0. -1.
</event>
<event>
 8    1  0.2509489E-006  0.9118800E+02  0.7816164E-02  0.1184000E+00
        -11   -1    0    0    0    0  0.00000000000E+00  0.00000000000E+00  0.45593999997E+02  0.45594000000E+02  0.51100000000E-03 0. -1.
         11   -1    0    0    0    0 -0.00000000000E+00 -0.00000000000E+00 -0.45593999997E+02  0.45594000000E+02  0.51100000000E-03 0.  1.
         23    2    1    2    0    0  0.00000000000E+00  0.00000000000E+00  0.00000000000E+00  0.91188000000E+02  0.91188000000E+02 0.  0.
    9900012    2    3    3    0    0  0.44750039087E+01  0.10362379449E+02  0.35048197185E+02  0.54367072612E+02  0.39999973634E+02 0.  0.
        -12    1    3    3    0    0 -0.44750039087E+01 -0.10362379449E+02 -0.35048197185E+02  0.36820927388E+02  0.00000000000E+00 0.  1.
         11    1    4    4    0    0  0.60641231690E+01  0.31763289398E+01  0.87627404096E+01  0.11119724596E+02  0.51100000000E-03 0. -1.
        -11    1    4    4    0    0  0.27876919936E+01  0.11854974490E+02 -0.35881739534E+01  0.12695930033E+02  0.51100000000E-03 0.  1.
        -12    1    4    4    0    0 -0.43768112539E+01 -0.46689239813E+01  0.29873630728E+02  0.30551417983E+02  0.00000000000E+00 0.  1.
</event>
<event>
 8    1  0.2509489E-006  0.9118800E+02  0.7816164E-02  0.1184000E+00
        -11   -1    0    0    0    0  0.00000000000E+00  0.00000000000E+00  0.45593999997E+02  0.45594000000E+02  0.51100000000E-03 0.  1.
         11   -1    0    0    0    0 -0.00000000000E+00 -0.00000000000E+00 -0.45593999997E+02  0.45594000000E+02  0.51100000000E-03 0. -1.
         23    2    1    2    0    0  0.00000000000E+00  0.00000000000E+00  0.00000000000E+00  0.91188000000E+02  0.91188000000E+02 0.  0.
    9900012    2    3    3    0    0 -0.10539882671E+02 -0.31428900172E+02 -0.16028486766E+02  0.54367118958E+02  0.40000079288E+02 0.  0.
         12    1    3    3    0    0  0.10539882671E+02  0.31428900172E+02  0.16028486766E+02  0.36820881042E+02  0.00000000000E+00 0. -1.
         11    1    4    4    0    0 -0.36005963645E+01 -0.80449573404E+01 -0.49452293173E+01  0.10106479409E+02  0.51100000000E-03 0.  1.
        -11    1    4    4    0    0 -0.14961102755E+02 -0.94305943981E+01 -0.19310211104E+02  0.26185014025E+02  0.51100000000E-03 0. -1.
        -12    1    4    4    0    0  0.80218164485E+01 -0.13953348433E+02  0.82269536554E+01  0.18075625524E+02  0.00000000000E+00 0.  1.
</event>
<event>
 8    1  0.2509489E-006  0.9118800E+02  0.7816164E-02  0.1184000E+00
        -11   -1    0    0    0    0  0.00000000000E+00  0.00000000000E+00  0.45593999997E+02  0.45594000000E+02  0.51100000000E-03 0.  1.
         11   -1    0    0    0    0 -0.00000000000E+00 -0.00000000000E+00 -0.45593999997E+02  0.45594000000E+02  0.51100000000E-03 0. -1.
         23    2    1    2    0    0  0.00000000000E+00  0.44408920985E-15  0.00000000000E+00  0.91188000000E+02  0.91188000000E+02 0.  0.
    9900012    2    3    3    0    0  0.29738275519E+02 -0.34888544065E+01  0.21429950490E+02  0.54367083201E+02  0.39999997773E+02 0.  0.
         12    1    3    3    0    0 -0.29738275519E+02  0.34888544065E+01 -0.21429950490E+02  0.36820916799E+02  0.00000000000E+00 0. -1.
         11    1    4    4    0    0  0.45672998434E+01  0.11887864388E+02  0.10514311179E+02  0.16514608303E+02  0.51100000000E-03 0. -1.
        -11    1    4    4    0    0  0.14010503790E+02  0.33801755964E+01  0.40081022347E+01  0.14959434726E+02  0.51100000000E-03 0.  1.
        -12    1    4    4    0    0  0.11160471885E+02 -0.18756894391E+02  0.69075370766E+01  0.22893040173E+02  0.00000000000E+00 0.  1.
</event>
<event>
 8    1  0.2509489E-006  0.9118800E+02  0.7816164E-02  0.1184000E+00
        -11   -1    0    0    0    0  0.00000000000E+00  0.00000000000E+00  0.45593999997E+02  0.45594000000E+02  0.51100000000E-03 0. -1.
         11   -1    0    0    0    0 -0.00000000000E+00 -0.00000000000E+00 -0.45593999997E+02  0.45594000000E+02  0.51100000000E-03 0.  1.
         23    2    1    2    0    0  0.17763568394E-14  0.35527136788E-14  0.00000000000E+00  0.91188000000E+02  0.91188000000E+02 0.  0.
    9900012    2    3    3    0    0  0.13529104718E+02  0.27120241070E+02  0.20910179213E+02  0.54367085496E+02  0.40000003005E+02 0.  0.
        -12    1    3    3    0    0 -0.13529104718E+02 -0.27120241070E+02 -0.20910179213E+02  0.36820914504E+02  0.00000000000E+00 0.  1.
         11    1    4    4    0    0  0.34779572088E+01  0.15991624754E+02  0.11616782011E+02  0.20069326675E+02  0.51100000000E-03 0. -1.
        -11    1    4    4    0    0  0.89994139825E+00  0.19199794380E+02  0.10727404014E+02  0.22011796744E+02  0.51100000000E-03 0.  1.
        -12    1    4    4    0    0  0.91512061114E+01 -0.80711780635E+01 -0.14340068124E+01  0.12285962077E+02  0.00000000000E+00 0.  1.
</event>
<event>
 8    1  0.2509489E-006  0.9118800E+02  0.7816164E-02  0.1184000E+00
        -11   -1    0    0    0    0  0.00000000000E+00  0.00000000000E+00  0.45593999997E+02  0.45594000000E+02  0.51100000000E-03 0.  1.
         11   -1    0    0    0    0 -0.00000000000E+00 -0.00000000000E+00 -0.45593999997E+02  0.45594000000E+02  0.51100000000E-03 0. -1.
         23    2    1    2    0    0  0.71054273576E-14 -0.17763568394E-14  0.00000000000E+00  0.91188000000E+02  0.91188000000E+02 0.  0.
    9900012    2    3    3    0    0  0.34792829291E+02 -0.10372069820E+02  0.61367228353E+01  0.54367079730E+02  0.39999989860E+02 0.  0.
         12    1    3    3    0    0 -0.34792829291E+02  0.10372069820E+02 -0.61367228353E+01  0.36820920270E+02  0.00000000000E+00 0. -1.
         11    1    4    4    0    0  0.46243453240E+01  0.23570378006E+01 -0.48002804232E+01  0.70698577971E+01  0.51100000000E-03 0. -1.
        -11    1    4    4    0    0  0.30666278694E+02 -0.10063785855E+01 -0.81090578507E+00  0.30693501190E+02  0.51100000000E-03 0.  1.
        -12    1    4    4    0    0 -0.49779472761E+00 -0.11722729035E+02  0.11747909044E+02  0.16603720743E+02  0.00000000000E+00 0.  1.
</event>
<event>
 8    1  0.2509489E-006  0.9118800E+02  0.7816164E-02  0.1184000E+00
        -11   -1    0    0    0    0  0.00000000000E+00  0.00000000000E+00  0.45593999997E+02  0.45594000000E+02  0.51100000000E-03 0.  1.
         11   -1    0    0    0    0 -0.00000000000E+00 -0.00000000000E+00 -0.45593999997E+02  0.45594000000E+02  0.51100000000E-03 0. -1.
         23    2    1    2    0    0 -0.88817841970E-15  0.17763568394E-14  0.00000000000E+00  0.91188000000E+02  0.91188000000E+02 0.  0.
    9900012    2    3    3    0    0  0.36221977624E+01 -0.13359182078E+02 -0.34120258352E+02  0.54367080777E+02  0.39999992247E+02 0.  0.
        -12    1    3    3    0    0 -0.36221977624E+01  0.13359182078E+02  0.34120258352E+02  0.36820919223E+02  0.00000000000E+00 0.  1.
         11    1    4    4    0    0  0.52406805706E+01  0.75668240226E+01 -0.17721563306E+02  0.19969360653E+02  0.51100000000E-03 0. -1.
        -11    1    4    4    0    0  0.58795855589E+01 -0.44369485216E+01 -0.14399266467E+02  0.16173896054E+02  0.51100000000E-03 0.  1.
        -12    1    4    4    0    0 -0.74980683671E+01 -0.16489057579E+02 -0.19994285793E+01  0.18223824070E+02  0.00000000000E+00 0.  1.
</event>
<event>
 8    1  0.2509489E-006  0.9118800E+02  0.7816164E-02  0.1184000E+00
        -11   -1    0    0    0    0  0.00000000000E+00  0.00000000000E+00  0.45593999997E+02  0.45594000000E+02  0.51100000000E-03 0. -1.
         11   -1    0    0    0    0 -0.00000000000E+00 -0.00000000000E+00 -0.45593999997E+02  0.45594000000E+02  0.51100000000E-03 0.  1.
         23    2    1    2    0    0  0.00000000000E+00  0.00000000000E+00  0.17763568394E-14  0.91188000000E+02  0.91188000000E+02 0.  0.
    9900012    2    3    3    0    0 -0.18303076499E+02 -0.28980937125E+02 -0.13449264899E+02  0.54367081322E+02  0.39999993489E+02 0.  0.
         12    1    3    3    0    0  0.18303076499E+02  0.28980937125E+02  0.13449264899E+02  0.36820918678E+02  0.00000000000E+00 0. -1.
         11    1    4    4    0    0  0.69160283164E+01 -0.26642611981E+01 -0.15148543560E+01  0.75646889815E+01  0.51100000000E-03 0. -1.
        -11    1    4    4    0    0 -0.29560166123E+02 -0.21632191032E+02 -0.43503667166E+01  0.36887407077E+02  0.51100000000E-03 0.  1.
         12    1    4    4    0    0  0.43410613070E+01 -0.46844848953E+01 -0.75840438268E+01  0.99149852634E+01  0.00000000000E+00 0. -1.
</event>
<event>
 8    1  0.2509489E-006  0.9118800E+02  0.7816164E-02  0.1184000E+00
        -11   -1    0    0    0    0  0.00000000000E+00  0.00000000000E+00  0.45593999997E+02  0.45594000000E+02  0.51100000000E-03 0. -1.
         11   -1    0    0    0    0 -0.00000000000E+00 -0.00000000000E+00 -0.45593999997E+02  0.45594000000E+02  0.51100000000E-03 0.  1.
         23    2    1    2    0    0  0.17763568394E-14  0.00000000000E+00 -0.88817841970E-15  0.91188000000E+02  0.91188000000E+02 0.  0.
    9900012    2    3    3    0    0  0.13403768878E+02 -0.33558037922E+02 -0.70691104269E+01  0.54367146513E+02  0.40000142105E+02 0.  0.
        -12    1    3    3    0    0 -0.13403768878E+02  0.33558037922E+02  0.70691104269E+01  0.36820853487E+02  0.00000000000E+00 0.  1.
         11    1    4    4    0    0  0.38829100100E+01  0.76671258770E+00  0.70323120392E+01  0.80695880450E+01  0.51100000000E-03 0. -1.
        -11    1    4    4    0    0  0.70324112422E+00 -0.73637563936E+01 -0.16245497301E+02  0.17850368039E+02  0.51100000000E-03 0.  1.
        -12    1    4    4    0    0  0.88176177436E+01 -0.26960994116E+02  0.21440748349E+01  0.28447190429E+02  0.00000000000E+00 0.  1.
</event>
<event>
 8    1  0.2509489E-006  0.9118800E+02  0.7816164E-02  0.1184000E+00
        -11   -1    0    0    0    0  0.00000000000E+00  0.00000000000E+00  0.45593999997E+02  0.45594000000E+02  0.51100000000E-03 0.  1.
         11   -1    0    0    0    0 -0.00000000000E+00 -0.00000000000E+00 -0.45593999997E+02  0.45594000000E+02  0.51100000000E-03 0. -1.
         23    2    1    2    0    0  0.17763568394E-14  0.35527136788E-14 -0.35527136788E-14  0.91188000000E+02  0.91188000000E+02 0.  0.
    9900012    2    3    3    0    0 -0.14394559744E+02 -0.23559351329E+02  0.24362564587E+02  0.54367069288E+02  0.39999966055E+02 0.  0.
         12    1    3    3    0    0  0.14394559744E+02  0.23559351329E+02 -0.24362564587E+02  0.36820930712E+02  0.00000000000E+00 0. -1.
         11    1    4    4    0    0  0.56351087769E+01 -0.55339959148E+01  0.14683156632E+02  0.16672571807E+02  0.51100000000E-03 0. -1.
        -11    1    4    4    0    0 -0.84960421213E+01  0.55702135787E+01  0.30489988400E+01  0.10606903659E+02  0.51100000000E-03 0.  1.
        -12    1    4    4    0    0 -0.11533626400E+02 -0.23595568993E+02  0.66304091149E+01  0.27087593822E+02  0.00000000000E+00 0.  1.
</event>
<event>
 8    1  0.2509489E-006  0.9118800E+02  0.7816164E-02  0.1184000E+00
        -11   -1    0    0    0    0  0.00000000000E+00  0.00000000000E+00  0.45593999997E+02  0.45594000000E+02  0.51100000000E-03 0.  1.
         11   -1    0    0    0    0 -0.00000000000E+00 -0.00000000000E+00 -0.45593999997E+02  0.45594000000E+02  0.51100000000E-03 0. -1.
         23    2    1    2    0    0 -0.22204460493E-15  0.00000000000E+00 -0.71054273576E-14  0.91188000000E+02  0.91188000000E+02 0.  0.
    9900012    2    3    3    0    0  0.13766807871E+01  0.40277849791E+01  0.36574049432E+02  0.54367090266E+02  0.40000013879E+02 0.  0.
         12    1    3    3    0    0 -0.13766807871E+01 -0.40277849791E+01 -0.36574049432E+02  0.36820909734E+02  0.00000000000E+00 0. -1.
         11    1    4    4    0    0 -0.17449544742E+01  0.14182276684E+02  0.22633669738E+02  0.26766860931E+02  0.51100000000E-03 0.  1.
        -11    1    4    4    0    0  0.10750316592E+02 -0.43292403688E-01  0.89427968491E+01  0.13983733293E+02  0.51100000000E-03 0. -1.
        -12    1    4    4    0    0 -0.76286813306E+01 -0.10111199302E+02  0.49975828450E+01  0.13616496042E+02  0.00000000000E+00 0.  1.
</event>
<event>
 8    1  0.2509489E-006  0.9118800E+02  0.7816164E-02  0.1184000E+00
        -11   -1    0    0    0    0  0.00000000000E+00  0.00000000000E+00  0.45593999997E+02  0.45594000000E+02  0.51100000000E-03 0.  1.
         11   -1    0    0    0    0 -0.00000000000E+00 -0.00000000000E+00 -0.45593999997E+02  0.45594000000E+02  0.51100000000E-03 0. -1.
         23    2    1    2    0    0 -0.17763568394E-14  0.00000000000E+00 -0.17763568394E-14  0.91188000000E+02  0.91188000000E+02 0.  0.
    9900012    2    3    3    0    0 -0.89570546066E+01  0.34604210655E+02 -0.88373631538E+01  0.54367092762E+02  0.40000019570E+02 0.  0.
        -12    1    3    3    0    0  0.89570546066E+01 -0.34604210655E+02  0.88373631538E+01  0.36820907238E+02  0.00000000000E+00 0.  1.
         11    1    4    4    0    0 -0.27541862174E+01  0.21084902570E+02 -0.19843810711E+02  0.29084970034E+02  0.51100000000E-03 0. -1.
        -11    1    4    4    0    0 -0.14523879906E+01  0.55134903138E+01  0.14310124061E+02  0.15404144157E+02  0.51100000000E-03 0.  1.
        -12    1    4    4    0    0 -0.47504803986E+01  0.80058177714E+01 -0.33036765039E+01  0.98779785709E+01  0.00000000000E+00 0.  1.
</event>
<event>
 8    1  0.2509489E-006  0.9118800E+02  0.7816164E-02  0.1184000E+00
        -11   -1    0    0    0    0  0.00000000000E+00  0.00000000000E+00  0.45593999997E+02  0.45594000000E+02  0.51100000000E-03 0.  1.
         11   -1    0    0    0    0 -0.00000000000E+00 -0.00000000000E+00 -0.45593999997E+02  0.45594000000E+02  0.51100000000E-03 0. -1.
         23    2    1    2    0    0  0.00000000000E+00 -0.88817841970E-15 -0.44408920985E-15  0.91188000000E+02  0.91188000000E+02 0.  0.
    9900012    2    3    3    0    0  0.36309007830E+02  0.50292850504E+01 -0.34846461585E+01  0.54367075018E+02  0.39999979118E+02 0.  0.
        -12    1    3    3    0    0 -0.36309007830E+02 -0.50292850504E+01  0.34846461585E+01  0.36820924982E+02  0.00000000000E+00 0.  1.
         11    1    4    4    0    0  0.25873221203E+02  0.17539460507E+02 -0.11724260920E+02  0.33384345803E+02  0.51100000000E-03 0. -1.
        -11    1    4    4    0    0 -0.18115224284E+01 -0.17847239439E+01  0.28830661354E+01  0.38443365704E+01  0.51100000000E-03 0.  1.
         12    1    4    4    0    0  0.12247309055E+02 -0.10725451513E+02  0.53565486261E+01  0.17138392644E+02  0.00000000000E+00 0. -1.
</event>
<event>
 8    1  0.2509489E-006  0.9118800E+02  0.7816164E-02  0.1184000E+00
        -11   -1    0    0    0    0  0.00000000000E+00  0.00000000000E+00  0.45593999997E+02  0.45594000000E+02  0.51100000000E-03 0. -1.
         11   -1    0    0    0    0 -0.00000000000E+00 -0.00000000000E+00 -0.45593999997E+02  0.45594000000E+02  0.51100000000E-03 0.  1.
         23    2    1    2    0    0  0.00000000000E+00  0.00000000000E+00  0.00000000000E+00  0.91188000000E+02  0.91188000000E+02 0.  0.
    9900012    2    3    3    0    0  0.21972409112E+02 -0.11819366914E+02  0.27079429565E+02  0.54367086078E+02  0.40000004333E+02 0.  0.
        -12    1    3    3    0    0 -0.21972409112E+02  0.11819366914E+02 -0.27079429565E+02  0.36820913922E+02  0.00000000000E+00 0.  1.
         11    1    4    4    0    0 -0.93955750889E+00 -0.27480771172E+01 -0.26547620411E+01  0.39347754587E+01  0.51100000000E-03 0. -1.
        -11    1    4    4    0    0 -0.74771885199E+01 -0.64641273759E+01  0.10250533573E+02  0.14239618313E+02  0.51100000000E-03 0.  1.
         12    1    4    4    0    0  0.30389155141E+02 -0.26071624209E+01  0.19483658033E+02  0.36192692307E+02  0.00000000000E+00 0. -1.
</event>
<event>
 8    1  0.2509489E-006  0.9118800E+02  0.7816164E-02  0.1184000E+00
        -11   -1    0    0    0    0  0.00000000000E+00  0.00000000000E+00  0.45593999997E+02  0.45594000000E+02  0.51100000000E-03 0.  1.
         11   -1    0    0    0    0 -0.00000000000E+00 -0.00000000000E+00 -0.45593999997E+02  0.45594000000E+02  0.51100000000E-03 0. -1.
         23    2    1    2    0    0  0.35527136788E-14 -0.35527136788E-14  0.00000000000E+00  0.91188000000E+02  0.91188000000E+02 0.  0.
    9900012    2    3    3    0    0  0.23160250095E+02  0.25510551204E+02  0.12984416837E+02  0.54367075408E+02  0.39999980009E+02 0.  0.
         12    1    3    3    0    0 -0.23160250095E+02 -0.25510551204E+02 -0.12984416837E+02  0.36820924592E+02  0.00000000000E+00 0. -1.
         11    1    4    4    0    0  0.66369739475E+00  0.16849091600E+02  0.43755459250E+01  0.17420613777E+02  0.51100000000E-03 0. -1.
        -11    1    4    4    0    0  0.44392566450E+01 -0.56964805739E+01 -0.62120577808E+01  0.95260984995E+01  0.51100000000E-03 0.  1.
        -12    1    4    4    0    0  0.18057296055E+02  0.14357940178E+02  0.14820928693E+02  0.27420363132E+02  0.00000000000E+00 0.  1.
</event>
<event>
 8    1  0.2509489E-006  0.9118800E+02  0.7816164E-02  0.1184000E+00
        -11   -1    0    0    0    0  0.00000000000E+00  0.00000000000E+00  0.45593999997E+02  0.45594000000E+02  0.51100000000E-03 0.  1.
         11   -1    0    0    0    0 -0.00000000000E+00 -0.00000000000E+00 -0.45593999997E+02  0.45594000000E+02  0.51100000000E-03 0. -1.
         23    2    1    2    0    0  0.00000000000E+00 -0.22204460493E-15  0.35527136788E-14  0.91188000000E+02  0.91188000000E+02 0.  0.
    9900012    2    3    3    0    0  0.19905100577E+02  0.11058953009E+01 -0.30957140076E+02  0.54367074494E+02  0.39999977925E+02 0.  0.
        -12    1    3    3    0    0 -0.19905100577E+02 -0.11058953009E+01  0.30957140076E+02  0.36820925506E+02  0.00000000000E+00 0.  1.
         11    1    4    4    0    0  0.17229154959E+02 -0.46512882213E+01 -0.27186739838E+01  0.18051854509E+02  0.51100000000E-03 0. -1.
        -11    1    4    4    0    0 -0.15420643635E+01 -0.51803642945E+01 -0.22728207964E+02  0.23362054152E+02  0.51100000000E-03 0.  1.
         12    1    4    4    0    0  0.42180099814E+01  0.10937547817E+02 -0.55102581287E+01  0.12953165833E+02  0.00000000000E+00 0. -1.
</event>
<event>
 8    1  0.2509489E-006  0.9118800E+02  0.7816164E-02  0.1184000E+00
        -11   -1    0    0    0    0  0.00000000000E+00  0.00000000000E+00  0.45593999997E+02  0.45594000000E+02  0.51100000000E-03 0. -1.
         11   -1    0    0    0    0 -0.00000000000E+00 -0.00000000000E+00 -0.45593999997E+02  0.45594000000E+02  0.51100000000E-03 0.  1.
         23    2    1    2    0    0  0.00000000000E+00 -0.44408920985E-15  0.00000000000E+00  0.91188000000E+02  0.91188000000E+02 0.  0.
    9900012    2    3    3    0    0  0.45122572254E+01 -0.23930030533E+01  0.36464969951E+02  0.54367068964E+02  0.39999965317E+02 0.  0.
        -12    1    3    3    0    0 -0.45122572254E+01  0.23930030533E+01 -0.36464969951E+02  0.36820931036E+02  0.00000000000E+00 0.  1.
         11    1    4    4    0    0  0.51686028651E+00 -0.14632716827E+02  0.10696542529E+02  0.18132831236E+02  0.51100000000E-03 0. -1.
        -11    1    4    4    0    0  0.39807250224E+01 -0.36723754720E+01 -0.58716082746E+00  0.54476849587E+01  0.51100000000E-03 0.  1.
         12    1    4    4    0    0  0.14671916468E-01  0.15912089246E+02  0.26355588249E+02  0.30786552769E+02  0.00000000000E+00 0. -1.
</event>
<event>
 8    1  0.2509489E-006  0.9118800E+02  0.7816164E-02  0.1184000E+00
        -11   -1    0    0    0    0  0.00000000000E+00  0.00000000000E+00  0.45593999997E+02  0.45594000000E+02  0.51100000000E-03 0. -1.
         11   -1    0    0    0    0 -0.00000000000E+00 -0.00000000000E+00 -0.45593999997E+02  0.45594000000E+02  0.51100000000E-03 0.  1.
         23    2    1    2    0    0  0.71054273576E-14  0.00000000000E+00 -0.17763568394E-14  0.91188000000E+02  0.91188000000E+02 0.  0.
    9900012    2    3    3    0    0  0.34062524457E+02 -0.91875728114E+01 -0.10541042491E+02  0.54367073295E+02  0.39999975192E+02 0.  0.
         12    1    3    3    0    0 -0.34062524457E+02  0.91875728114E+01  0.10541042491E+02  0.36820926705E+02  0.00000000000E+00 0. -1.
         11    1    4    4    0    0  0.18489811110E+02 -0.10833868875E+02  0.24854158845E+01  0.21573667330E+02  0.51100000000E-03 0. -1.
        -11    1    4    4    0    0 -0.68376415866E+01  0.33032328137E+01 -0.39318613036E+01  0.85512702600E+01  0.51100000000E-03 0.  1.
        -12    1    4    4    0    0  0.22410354934E+02 -0.16569367505E+01 -0.90945970721E+01  0.24242135706E+02  0.00000000000E+00 0.  1.
</event>
<event>
 8    1  0.2509489E-006  0.9118800E+02  0.7816164E-02  0.1184000E+00
        -11   -1    0    0    0    0  0.00000000000E+00  0.00000000000E+00  0.45593999997E+02  0.45594000000E+02  0.51100000000E-03 0. -1.
         11   -1    0    0    0    0 -0.00000000000E+00 -0.00000000000E+00 -0.45593999997E+02  0.45594000000E+02  0.51100000000E-03 0.  1.
         23    2    1    2    0    0  0.35527136788E-14  0.35527136788E-14  0.00000000000E+00  0.91188000000E+02  0.91188000000E+02 0.  0.
    9900012    2    3    3    0    0 -0.23202382539E+02  0.28222898594E+02 -0.45712723245E+01  0.54367094373E+02  0.40000023242E+02 0.  0.
         12    1    3    3    0    0  0.23202382539E+02 -0.28222898594E+02  0.45712723245E+01  0.36820905627E+02  0.00000000000E+00 0. -1.
         11    1    4    4    0    0 -0.27072497900E+00  0.24518792852E+01  0.46478754790E+01  0.52619151241E+01  0.51100000000E-03 0. -1.
        -11    1    4    4    0    0  0.10872698078E+01  0.24132742342E+02 -0.46507714776E+01  0.24600835031E+02  0.51100000000E-03 0.  1.
        -12    1    4    4    0    0 -0.24018927368E+02  0.16382769664E+01 -0.45683763259E+01  0.24504344218E+02  0.00000000000E+00 0.  1.
</event>
<event>
 8    1  0.2509489E-006  0.9118800E+02  0.7816164E-02  0.1184000E+00
        -11   -1    0    0    0    0  0.00000000000E+00  0.00000000000E+00  0.45593999997E+02  0.45594000000E+02  0.51100000000E-03 0.  1.
         11   -1    0    0    0    0 -0.00000000000E+00 -0.00000000000E+00 -0.45593999997E+02  0.45594000000E+02  0.51100000000E-03 0. -1.
         23    2    1    2    0    0  0.71054273576E-14  0.00000000000E+00  0.00000000000E+00  0.91188000000E+02  0.91188000000E+02 0.  0.
    9900012    2    3    3    0    0 -0.33784768707E+02  0.59322899766E+01 -0.13385685815E+02  0.54367092275E+02  0.40000018460E+02 0.  0.
        -12    1    3    3    0    0  0.33784768707E+02 -0.59322899766E+01  0.13385685815E+02  0.36820907725E+02  0.00000000000E+00 0.  1.
         11    1    4    4    0    0 -0.76880871986E+01  0.10604268143E+02 -0.81822833401E+01  0.15443670177E+02  0.51100000000E-03 0. -1.
        -11    1    4    4    0    0 -0.12386436051E+01  0.89233473823E+01 -0.55632508676E+01  0.10588206976E+02  0.51100000000E-03 0.  1.
        -12    1    4    4    0    0 -0.24858037903E+02 -0.13595325549E+02  0.35984839254E+00  0.28335215122E+02  0.00000000000E+00 0.  1.
</event>
<event>
 8    1  0.2509489E-006  0.9118800E+02  0.7816164E-02  0.1184000E+00
        -11   -1    0    0    0    0  0.00000000000E+00  0.00000000000E+00  0.45593999997E+02  0.45594000000E+02  0.51100000000E-03 0.  1.
         11   -1    0    0    0    0 -0.00000000000E+00 -0.00000000000E+00 -0.45593999997E+02  0.45594000000E+02  0.51100000000E-03 0. -1.
         23    2    1    2    0    0 -0.35527136788E-14  0.00000000000E+00  0.44408920985E-15  0.91188000000E+02  0.91188000000E+02 0.  0.
    9900012    2    3    3    0    0 -0.25519241950E+02  0.26261969762E+02 -0.38542767068E+01  0.54367106279E+02  0.40000050385E+02 0.  0.
        -12    1    3    3    0    0  0.25519241950E+02 -0.26261969762E+02  0.38542767068E+01  0.36820893721E+02  0.00000000000E+00 0.  1.
         11    1    4    4    0    0 -0.75280020297E+01  0.21278600612E+02 -0.12894150553E+02  0.25994398960E+02  0.51100000000E-03 0. -1.
        -11    1    4    4    0    0 -0.63710441451E+01  0.11457628752E+02  0.71624274480E+01  0.14938802741E+02  0.51100000000E-03 0.  1.
        -12    1    4    4    0    0 -0.11620195775E+02 -0.64742596019E+01  0.18774463983E+01  0.13433904578E+02  0.00000000000E+00 0.  1.
</event>
<event>
 8    1  0.2509489E-006  0.9118800E+02  0.7816164E-02  0.1184000E+00
        -11   -1    0    0    0    0  0.00000000000E+00  0.00000000000E+00  0.45593999997E+02  0.45594000000E+02  0.51100000000E-03 0.  1.
         11   -1    0    0    0    0 -0.00000000000E+00 -0.00000000000E+00 -0.45593999997E+02  0.45594000000E+02  0.51100000000E-03 0. -1.
         23    2    1    2    0    0  0.00000000000E+00 -0.88817841970E-15 -0.22204460493E-15  0.91188000000E+02  0.91188000000E+02 0.  0.
    9900012    2    3    3    0    0 -0.36510700664E+02  0.46194041594E+01 -0.11877102419E+01  0.54367070986E+02  0.39999969928E+02 0.  0.
         12    1    3    3    0    0  0.36510700664E+02 -0.46194041594E+01  0.11877102419E+01  0.36820929014E+02  0.00000000000E+00 0. -1.
         11    1    4    4    0    0 -0.70682730007E+01 -0.83048628564E+01 -0.99343710793E+00  0.10950714489E+02  0.51100000000E-03 0. -1.
        -11    1    4    4    0    0 -0.32825876458E+02  0.12412130274E+02  0.66921979492E+01  0.35726525955E+02  0.51100000000E-03 0.  1.
        -12    1    4    4    0    0  0.33834487944E+01  0.51213674205E+00 -0.68864710832E+01  0.76898305421E+01  0.00000000000E+00 0.  1.
</event>
<event>
 8    1  0.2509489E-006  0.9118800E+02  0.7816164E-02  0.1184000E+00
        -11   -1    0    0    0    0  0.00000000000E+00  0.00000000000E+00  0.45593999997E+02  0.45594000000E+02  0.51100000000E-03 0.  1.
         11   -1    0    0    0    0 -0.00000000000E+00 -0.00000000000E+00 -0.45593999997E+02  0.45594000000E+02  0.51100000000E-03 0. -1.
         23    2    1    2    0    0  0.35527136788E-14  0.35527136788E-14  0.00000000000E+00  0.91188000000E+02  0.91188000000E+02 0.  0.
    9900012    2    3    3    0    0 -0.20076806554E+02 -0.16193529784E+02  0.26276794806E+02  0.54367102217E+02  0.40000041124E+02 0.  0.
         12    1    3    3    0    0  0.20076806554E+02  0.16193529784E+02 -0.26276794806E+02  0.36820897783E+02  0.00000000000E+00 0. -1.
         11    1    4    4    0    0 -0.10623296215E+02  0.11297574042E+02  0.92804429058E+01  0.18072526732E+02  0.51100000000E-03 0. -1.
        -11    1    4    4    0    0 -0.31828927043E+01 -0.15665430142E+02  0.16391169731E+02  0.22895566228E+02  0.51100000000E-03 0.  1.
         12    1    4    4    0    0 -0.62706176341E+01 -0.11825673684E+02  0.60518216977E+00  0.13399009256E+02  0.00000000000E+00 0. -1.
</event>
<event>
 8    1  0.2509489E-006  0.9118800E+02  0.7816164E-02  0.1184000E+00
        -11   -1    0    0    0    0  0.00000000000E+00  0.00000000000E+00  0.45593999997E+02  0.45594000000E+02  0.51100000000E-03 0. -1.
         11   -1    0    0    0    0 -0.00000000000E+00 -0.00000000000E+00 -0.45593999997E+02  0.45594000000E+02  0.51100000000E-03 0.  1.
         23    2    1    2    0    0  0.00000000000E+00  0.16653345369E-14  0.00000000000E+00  0.91188000000E+02  0.91188000000E+02 0.  0.
    9900012    2    3    3    0    0 -0.35194643573E+02  0.87458939203E+00  0.10786486231E+02  0.54367134610E+02  0.40000114970E+02 0.  0.
        -12    1    3    3    0    0  0.35194643573E+02 -0.87458939203E+00 -0.10786486231E+02  0.36820865390E+02  0.00000000000E+00 0.  1.
         11    1    4    4    0    0  0.18108937601E+01 -0.63008944846E+00  0.78362052453E+01  0.80673701930E+01  0.51100000000E-03 0. -1.
        -11    1    4    4    0    0 -0.21136093241E+02 -0.12140564817E+02  0.61214959735E+01  0.25131662594E+02  0.51100000000E-03 0.  1.
        -12    1    4    4    0    0 -0.15869444093E+02  0.13645243657E+02 -0.31712149876E+01  0.21168101823E+02  0.00000000000E+00 0.  1.
</event>
<event>
 8    1  0.2509489E-006  0.9118800E+02  0.7816164E-02  0.1184000E+00
        -11   -1    0    0    0    0  0.00000000000E+00  0.00000000000E+00  0.45593999997E+02  0.45594000000E+02  0.51100000000E-03 0.  1.
         11   -1    0    0    0    0 -0.00000000000E+00 -0.00000000000E+00 -0.45593999997E+02  0.45594000000E+02  0.51100000000E-03 0. -1.
         23    2    1    2    0    0 -0.26645352591E-14  0.30531133177E-15  0.00000000000E+00  0.91188000000E+02  0.91188000000E+02 0.  0.
    9900012    2    3    3    0    0 -0.66182819299E+01  0.18824043184E+00  0.36220760422E+02  0.54367074214E+02  0.39999977286E+02 0.  0.
         12    1    3    3    0    0  0.66182819299E+01 -0.18824043184E+00 -0.36220760422E+02  0.36820925786E+02  0.00000000000E+00 0. -1.
         11    1    4    4    0    0 -0.92199617207E+01  0.10288610525E+02  0.10353537982E+02  0.17264383848E+02  0.51100000000E-03 0. -1.
        -11    1    4    4    0    0  0.24459579597E+00  0.49249827420E+01  0.20326013133E+02  0.20915594476E+02  0.51100000000E-03 0.  1.
        -12    1    4    4    0    0  0.23570839949E+01 -0.15025352835E+02  0.55412093069E+01  0.16187095890E+02  0.00000000000E+00 0.  1.
</event>
<event>
 8    1  0.2509489E-006  0.9118800E+02  0.7816164E-02  0.1184000E+00
        -11   -1    0    0    0    0  0.00000000000E+00  0.00000000000E+00  0.45593999997E+02  0.45594000000E+02  0.51100000000E-03 0. -1.
         11   -1    0    0    0    0 -0.00000000000E+00 -0.00000000000E+00 -0.45593999997E+02  0.45594000000E+02  0.51100000000E-03 0.  1.
         23    2    1    2    0    0  0.00000000000E+00  0.00000000000E+00  0.00000000000E+00  0.91188000000E+02  0.91188000000E+02 0.  0.
    9900012    2    3    3    0    0  0.21618645094E+02 -0.35441408544E+01  0.29594687792E+02  0.54367186652E+02  0.40000233609E+02 0.  0.
        -12    1    3    3    0    0 -0.21618645094E+02  0.35441408544E+01 -0.29594687792E+02  0.36820813348E+02  0.00000000000E+00 0.  1.
         11    1    4    4    0    0  0.11200986108E+02 -0.23899727196E+01  0.46387535094E+00  0.11462514558E+02  0.51100000000E-03 0. -1.
        -11    1    4    4    0    0 -0.83663671698E+01 -0.75520526214E+01  0.13866680838E+02  0.17869371454E+02  0.51100000000E-03 0.  1.
         12    1    4    4    0    0  0.18784026156E+02  0.63978844866E+01  0.15264131603E+02  0.25035300640E+02  0.00000000000E+00 0. -1.
</event>
<event>
 8    1  0.2509489E-006  0.9118800E+02  0.7816164E-02  0.1184000E+00
        -11   -1    0    0    0    0  0.00000000000E+00  0.00000000000E+00  0.45593999997E+02  0.45594000000E+02  0.51100000000E-03 0.  1.
         11   -1    0    0    0    0 -0.00000000000E+00 -0.00000000000E+00 -0.45593999997E+02  0.45594000000E+02  0.51100000000E-03 0. -1.
         23    2    1    2    0    0  0.00000000000E+00 -0.17763568394E-14 -0.17763568394E-14  0.91188000000E+02  0.91188000000E+02 0.  0.
    9900012    2    3    3    0    0  0.34226441414E+02  0.55821552906E+01 -0.12376185017E+02  0.54367086036E+02  0.40000004237E+02 0.  0.
        -12    1    3    3    0    0 -0.34226441414E+02 -0.55821552906E+01  0.12376185017E+02  0.36820913964E+02  0.00000000000E+00 0.  1.
         11    1    4    4    0    0  0.59897634830E+01 -0.14580925621E+02 -0.87859582953E+01  0.18046432389E+02  0.51100000000E-03 0. -1.
        -11    1    4    4    0    0  0.11156163933E+02  0.77294126791E+01  0.35345363662E+01  0.14024862268E+02  0.51100000000E-03 0.  1.
         12    1    4    4    0    0  0.17080513998E+02  0.12433668233E+02 -0.71247630879E+01  0.22295791379E+02  0.00000000000E+00 0. -1.
</event>
<event>
 8    1  0.2509489E-006  0.9118800E+02  0.7816164E-02  0.1184000E+00
        -11   -1    0    0    0    0  0.00000000000E+00  0.00000000000E+00  0.45593999997E+02  0.45594000000E+02  0.51100000000E-03 0.  1.
         11   -1    0    0    0    0 -0.00000000000E+00 -0.00000000000E+00 -0.45593999997E+02  0.45594000000E+02  0.51100000000E-03 0. -1.
         23    2    1    2    0    0  0.33306690739E-15  0.71054273576E-14  0.00000000000E+00  0.91188000000E+02  0.91188000000E+02 0.  0.
    9900012    2    3    3    0    0  0.54870714272E+00  0.36374298508E+02  0.56911160765E+01  0.54367089179E+02  0.40000011401E+02 0.  0.
         12    1    3    3    0    0 -0.54870714272E+00 -0.36374298508E+02 -0.56911160765E+01  0.36820910821E+02  0.00000000000E+00 0. -1.
         11    1    4    4    0    0  0.10442919483E+02  0.11970007017E+02  0.11285998469E+02  0.19486133455E+02  0.51100000000E-03 0. -1.
        -11    1    4    4    0    0 -0.59095589263E+01  0.40815360252E+01  0.74954966862E+01  0.10380958234E+02  0.51100000000E-03 0.  1.
         12    1    4    4    0    0 -0.39846534136E+01  0.20322755466E+02 -0.13090379079E+02  0.24499997490E+02  0.00000000000E+00 0. -1.
</event>
<event>
 8    1  0.2509489E-006  0.9118800E+02  0.7816164E-02  0.1184000E+00
        -11   -1    0    0    0    0  0.00000000000E+00  0.00000000000E+00  0.45593999997E+02  0.45594000000E+02  0.51100000000E-03 0. -1.
         11   -1    0    0    0    0 -0.00000000000E+00 -0.00000000000E+00 -0.45593999997E+02  0.45594000000E+02  0.51100000000E-03 0.  1.
         23    2    1    2    0    0  0.71054273576E-14  0.00000000000E+00  0.00000000000E+00  0.91188000000E+02  0.91188000000E+02 0.  0.
    9900012    2    3    3    0    0  0.33943431416E+02  0.80317437907E+01  0.11794657934E+02  0.54367090174E+02  0.40000013670E+02 0.  0.
        -12    1    3    3    0    0 -0.33943431416E+02 -0.80317437907E+01 -0.11794657934E+02  0.36820909826E+02  0.00000000000E+00 0.  1.
         11    1    4    4    0    0  0.13976092968E+02 -0.42175992661E+01  0.14297358532E+02  0.20433643323E+02  0.51100000000E-03 0. -1.
        -11    1    4    4    0    0 -0.49823004110E+01  0.53007203423E+01 -0.33752754169E+01  0.80195659442E+01  0.51100000000E-03 0.  1.
         12    1    4    4    0    0  0.24949638859E+02  0.69486227146E+01  0.87257481956E+00  0.25913880907E+02  0.00000000000E+00 0. -1.
</event>
<event>
 8    1  0.2509489E-006  0.9118800E+02  0.7816164E-02  0.1184000E+00
        -11   -1    0    0    0    0  0.00000000000E+00  0.00000000000E+00  0.45593999997E+02  0.45594000000E+02  0.51100000000E-03 0. -1.
         11   -1    0    0    0    0 -0.00000000000E+00 -0.00000000000E+00 -0.45593999997E+02  0.45594000000E+02  0.51100000000E-03 0.  1.
         23    2    1    2    0    0  0.00000000000E+00  0.11102230246E-14 -0.55511151231E-15  0.91188000000E+02  0.91188000000E+02 0.  0.
    9900012    2    3    3    0    0 -0.36764233656E+02  0.18750948789E+01  0.80832752247E+00  0.54367105789E+02  0.40000049267E+02 0.  0.
         12    1    3    3    0    0  0.36764233656E+02 -0.18750948789E+01 -0.80832752247E+00  0.36820894211E+02  0.00000000000E+00 0. -1.
         11    1    4    4    0    0  0.13775184155E+01 -0.33887483140E+01 -0.78223159897E+01  0.86353806994E+01  0.51100000000E-03 0. -1.
        -11    1    4    4    0    0 -0.22092674248E+02  0.11245597211E+02 -0.30838877197E+01  0.24981194443E+02  0.51100000000E-03 0.  1.
        -12    1    4    4    0    0 -0.16049077823E+02 -0.59817540185E+01  0.11714531232E+02  0.20750530646E+02  0.00000000000E+00 0.  1.
</event>
<event>
 8    1  0.2509489E-006  0.9118800E+02  0.7816164E-02  0.1184000E+00
        -11   -1    0    0    0    0  0.00000000000E+00  0.00000000000E+00  0.45593999997E+02  0.45594000000E+02  0.51100000000E-03 0.  1.
         11   -1    0    0    0    0 -0.00000000000E+00 -0.00000000000E+00 -0.45593999997E+02  0.45594000000E+02  0.51100000000E-03 0. -1.
         23    2    1    2    0    0  0.00000000000E+00 -0.22204460493E-15  0.00000000000E+00  0.91188000000E+02  0.91188000000E+02 0.  0.
    9900012    2    3    3    0    0 -0.36516350366E+02 -0.16715578946E+01  0.44206677342E+01  0.54367078596E+02  0.39999987274E+02 0.  0.
        -12    1    3    3    0    0  0.36516350366E+02  0.16715578946E+01 -0.44206677342E+01  0.36820921404E+02  0.00000000000E+00 0.  1.
         11    1    4    4    0    0 -0.83299366587E+01 -0.16888969155E+01  0.83415440078E+01  0.11908886355E+02  0.51100000000E-03 0. -1.
        -11    1    4    4    0    0  0.32177901240E+01 -0.89869454618E+01 -0.18482959029E+01  0.97229398857E+01  0.51100000000E-03 0.  1.
        -12    1    4    4    0    0 -0.31404203831E+02  0.90042844827E+01 -0.20725803707E+01  0.32735252355E+02  0.00000000000E+00 0.  1.
</event>
<event>
 8    1  0.2509489E-006  0.9118800E+02  0.7816164E-02  0.1184000E+00
        -11   -1    0    0    0    0  0.00000000000E+00  0.00000000000E+00  0.45593999997E+02  0.45594000000E+02  0.51100000000E-03 0. -1.
         11   -1    0    0    0    0 -0.00000000000E+00 -0.00000000000E+00 -0.45593999997E+02  0.45594000000E+02  0.51100000000E-03 0.  1.
         23    2    1    2    0    0 -0.17763568394E-14 -0.13322676296E-14  0.71054273576E-14  0.91188000000E+02  0.91188000000E+02 0.  0.
    9900012    2    3    3    0    0  0.12866371441E+02 -0.24170970169E+01 -0.34415008972E+02  0.54367099487E+02  0.40000034900E+02 0.  0.
         12    1    3    3    0    0 -0.12866371441E+02  0.24170970169E+01  0.34415008972E+02  0.36820900513E+02  0.00000000000E+00 0. -1.
         11    1    4    4    0    0  0.15106942361E+02 -0.12048203371E+02 -0.22759230002E+01  0.19456585973E+02  0.51100000000E-03 0. -1.
        -11    1    4    4    0    0  0.40442326272E+00 -0.91563535932E+00 -0.20350503495E-01  0.10011796496E+01  0.51100000000E-03 0.  1.
        -12    1    4    4    0    0 -0.26449941826E+01  0.10546741714E+02 -0.32118735469E+02  0.33909333864E+02  0.00000000000E+00 0.  1.
</event>
<event>
 8    1  0.2509489E-006  0.9118800E+02  0.7816164E-02  0.1184000E+00
        -11   -1    0    0    0    0  0.00000000000E+00  0.00000000000E+00  0.45593999997E+02  0.45594000000E+02  0.51100000000E-03 0. -1.
         11   -1    0    0    0    0 -0.00000000000E+00 -0.00000000000E+00 -0.45593999997E+02  0.45594000000E+02  0.51100000000E-03 0.  1.
         23    2    1    2    0    0  0.00000000000E+00  0.17763568394E-14  0.00000000000E+00  0.91188000000E+02  0.91188000000E+02 0.  0.
    9900012    2    3    3    0    0  0.12811935217E+01  0.13085709288E+02  0.34393348604E+02  0.54367086478E+02  0.40000005245E+02 0.  0.
        -12    1    3    3    0    0 -0.12811935217E+01 -0.13085709288E+02 -0.34393348604E+02  0.36820913522E+02  0.00000000000E+00 0.  1.
         11    1    4    4    0    0  0.25692179489E+01  0.10143044700E+02  0.37035128690E+02  0.38484841094E+02  0.51100000000E-03 0. -1.
        -11    1    4    4    0    0  0.35999207371E+01  0.50273541949E+01 -0.67584596688E+01  0.91602672925E+01  0.51100000000E-03 0.  1.
         12    1    4    4    0    0 -0.48879451643E+01 -0.20846896069E+01  0.41166795819E+01  0.67219780918E+01  0.00000000000E+00 0. -1.
</event>
<event>
 8    1  0.2509489E-006  0.9118800E+02  0.7816164E-02  0.1184000E+00
        -11   -1    0    0    0    0  0.00000000000E+00  0.00000000000E+00  0.45593999997E+02  0.45594000000E+02  0.51100000000E-03 0.  1.
         11   -1    0    0    0    0 -0.00000000000E+00 -0.00000000000E+00 -0.45593999997E+02  0.45594000000E+02  0.51100000000E-03 0. -1.
         23    2    1    2    0    0  0.00000000000E+00  0.00000000000E+00  0.00000000000E+00  0.91188000000E+02  0.91188000000E+02 0.  0.
    9900012    2    3    3    0    0  0.10650474942E+02 -0.83551088121E+01  0.34242465134E+02  0.54366988631E+02  0.39999782182E+02 0.  0.
         12    1    3    3    0    0 -0.10650474942E+02  0.83551088121E+01 -0.34242465134E+02  0.36821011369E+02  0.00000000000E+00 0. -1.
         11    1    4    4    0    0  0.99480065654E+01  0.32984761100E+01  0.21534529070E+02  0.23949503581E+02  0.51100000000E-03 0. -1.
        -11    1    4    4    0    0  0.96624074133E+01 -0.15093448979E+02  0.69277376182E+01  0.19213741642E+02  0.51100000000E-03 0.  1.
        -12    1    4    4    0    0 -0.89599390367E+01  0.34398640570E+01  0.57801984467E+01  0.11203743408E+02  0.00000000000E+00 0.  1.
</event>
<event>
 8    1  0.2509489E-006  0.9118800E+02  0.7816164E-02  0.1184000E+00
        -11   -1    0    0    0    0  0.00000000000E+00  0.00000000000E+00  0.45593999997E+02  0.45594000000E+02  0.51100000000E-03 0. -1.
         11   -1    0    0    0    0 -0.00000000000E+00 -0.00000000000E+00 -0.45593999997E+02  0.45594000000E+02  0.51100000000E-03 0.  1.
         23    2    1    2    0    0 -0.17763568394E-14 -0.35527136788E-14  0.35527136788E-14  0.91188000000E+02  0.91188000000E+02 0.  0.
    9900012    2    3    3    0    0  0.12059556187E+02  0.20613142929E+02 -0.28025801675E+02  0.54367080452E+02  0.39999991506E+02 0.  0.
         12    1    3    3    0    0 -0.12059556187E+02 -0.20613142929E+02  0.28025801675E+02  0.36820919548E+02  0.00000000000E+00 0. -1.
         11    1    4    4    0    0  0.45430127375E+01  0.16060528320E+02  0.31834425882E+01  0.16991581492E+02  0.51100000000E-03 0.  1.
        -11    1    4    4    0    0  0.37749724260E+01 -0.71412625010E+01 -0.98465309151E+01  0.12735863467E+02  0.51100000000E-03 0. -1.
         12    1    4    4    0    0  0.37415710238E+01  0.11693877111E+02 -0.21362713348E+02  0.24639635492E+02  0.00000000000E+00 0. -1.
</event>
<event>
 8    1  0.2509489E-006  0.9118800E+02  0.7816164E-02  0.1184000E+00
        -11   -1    0    0    0    0  0.00000000000E+00  0.00000000000E+00  0.45593999997E+02  0.45594000000E+02  0.51100000000E-03 0.  1.
         11   -1    0    0    0    0 -0.00000000000E+00 -0.00000000000E+00 -0.45593999997E+02  0.45594000000E+02  0.51100000000E-03 0. -1.
         23    2    1    2    0    0  0.00000000000E+00  0.35527136788E-14  0.88817841970E-15  0.91188000000E+02  0.91188000000E+02 0.  0.
    9900012    2    3    3    0    0 -0.24596183828E+02 -0.26994770628E+02  0.46999769220E+01  0.54367086333E+02  0.40000004914E+02 0.  0.
         12    1    3    3    0    0  0.24596183828E+02  0.26994770628E+02 -0.46999769220E+01  0.36820913667E+02  0.00000000000E+00 0. -1.
         11    1    4    4    0    0 -0.67617476693E+01  0.28135887833E+01 -0.11631767524E+02  0.13745382111E+02  0.51100000000E-03 0. -1.
        -11    1    4    4    0    0 -0.16886136139E+02 -0.25137582030E+02  0.84986979966E+01  0.31452622974E+02  0.51100000000E-03 0.  1.
         12    1    4    4    0    0 -0.94830002001E+00 -0.46707773816E+01  0.78330464489E+01  0.91690812488E+01  0.00000000000E+00 0. -1.
</event>
<event>
 8    1  0.2509489E-006  0.9118800E+02  0.7816164E-02  0.1184000E+00
        -11   -1    0    0    0    0  0.00000000000E+00  0.00000000000E+00  0.45593999997E+02  0.45594000000E+02  0.51100000000E-03 0.  1.
         11   -1    0    0    0    0 -0.00000000000E+00 -0.00000000000E+00 -0.45593999997E+02  0.45594000000E+02  0.51100000000E-03 0. -1.
         23    2    1    2    0    0 -0.18041124150E-14  0.55511151231E-15  0.00000000000E+00  0.91188000000E+02  0.91188000000E+02 0.  0.
    9900012    2    3    3    0    0  0.24533988039E+00 -0.40117276925E+00  0.36817894705E+02  0.54367102377E+02  0.40000041489E+02 0.  0.
         12    1    3    3    0    0 -0.24533988039E+00  0.40117276925E+00 -0.36817894705E+02  0.36820897623E+02  0.00000000000E+00 0. -1.
         11    1    4    4    0    0  0.22429637717E+01  0.82459087786E+01  0.35177118764E+01  0.92412226016E+01  0.51100000000E-03 0. -1.
        -11    1    4    4    0    0 -0.12534888302E+02 -0.12037916101E+02  0.27750203829E+02  0.32743070436E+02  0.51100000000E-03 0.  1.
        -12    1    4    4    0    0  0.10537264411E+02  0.33908345534E+01  0.55499789999E+01  0.12382809339E+02  0.00000000000E+00 0.  1.
</event>
<event>
 8    1  0.2509489E-006  0.9118800E+02  0.7816164E-02  0.1184000E+00
        -11   -1    0    0    0    0  0.00000000000E+00  0.00000000000E+00  0.45593999997E+02  0.45594000000E+02  0.51100000000E-03 0.  1.
         11   -1    0    0    0    0 -0.00000000000E+00 -0.00000000000E+00 -0.45593999997E+02  0.45594000000E+02  0.51100000000E-03 0. -1.
         23    2    1    2    0    0 -0.17763568394E-14  0.35527136788E-14  0.35527136788E-14  0.91188000000E+02  0.91188000000E+02 0.  0.
    9900012    2    3    3    0    0  0.12238851508E+02 -0.24047381477E+02  0.25054201237E+02  0.54367095044E+02  0.40000024772E+02 0.  0.
         12    1    3    3    0    0 -0.12238851508E+02  0.24047381477E+02 -0.25054201237E+02  0.36820904956E+02  0.00000000000E+00 0. -1.
         11    1    4    4    0    0 -0.72811225882E+01 -0.96182172138E+00  0.34124573307E+01  0.80984388905E+01  0.51100000000E-03 0. -1.
        -11    1    4    4    0    0  0.15340498712E+02 -0.29470717381E+02  0.18379827299E+02  0.37969357849E+02  0.51100000000E-03 0.  1.
         12    1    4    4    0    0  0.41794753842E+01  0.63851576257E+01  0.32619166076E+01  0.82992983045E+01  0.00000000000E+00 0. -1.
</event>
<event>
 8    1  0.2509489E-006  0.9118800E+02  0.7816164E-02  0.1184000E+00
        -11   -1    0    0    0    0  0.00000000000E+00  0.00000000000E+00  0.45593999997E+02  0.45594000000E+02  0.51100000000E-03 0.  1.
         11   -1    0    0    0    0 -0.00000000000E+00 -0.00000000000E+00 -0.45593999997E+02  0.45594000000E+02  0.51100000000E-03 0. -1.
         23    2    1    2    0    0  0.33306690739E-15 -0.17763568394E-14  0.00000000000E+00  0.91188000000E+02  0.91188000000E+02 0.  0.
    9900012    2    3    3    0    0 -0.67838588876E+00  0.13136726739E+02 -0.34391073533E+02  0.54367085623E+02  0.40000003294E+02 0.  0.
        -12    1    3    3    0    0  0.67838588876E+00 -0.13136726739E+02  0.34391073533E+02  0.36820914377E+02  0.00000000000E+00 0.  1.
         11    1    4    4    0    0 -0.27012692186E+00  0.75343062075E+01 -0.85639920160E+01  0.11409675635E+02  0.51100000000E-03 0. -1.
        -11    1    4    4    0    0 -0.89881701140E+01 -0.10434664324E+02 -0.35952428847E+01  0.14233593826E+02  0.51100000000E-03 0.  1.
        -12    1    4    4    0    0  0.85799111471E+01  0.16037084855E+02 -0.22231838632E+02  0.28723816162E+02  0.00000000000E+00 0.  1.
</event>
<event>
 8    1  0.2509489E-006  0.9118800E+02  0.7816164E-02  0.1184000E+00
        -11   -1    0    0    0    0  0.00000000000E+00  0.00000000000E+00  0.45593999997E+02  0.45594000000E+02  0.51100000000E-03 0.  1.
         11   -1    0    0    0    0 -0.00000000000E+00 -0.00000000000E+00 -0.45593999997E+02  0.45594000000E+02  0.51100000000E-03 0. -1.
         23    2    1    2    0    0  0.00000000000E+00 -0.88817841970E-15  0.35527136788E-14  0.91188000000E+02  0.91188000000E+02 0.  0.
    9900012    2    3    3    0    0 -0.18004085043E+02  0.54048820279E+01 -0.31661013112E+02  0.54367087746E+02  0.40000008134E+02 0.  0.
        -12    1    3    3    0    0  0.18004085043E+02 -0.54048820279E+01  0.31661013112E+02  0.36820912254E+02  0.00000000000E+00 0.  1.
         11    1    4    4    0    0 -0.14688477045E+02 -0.37055174987E+01 -0.12914044182E+02  0.19906148679E+02  0.51100000000E-03 0. -1.
        -11    1    4    4    0    0  0.29938513168E+01  0.35006521993E+01 -0.24052513817E+02  0.24489612752E+02  0.51100000000E-03 0.  1.
         12    1    4    4    0    0 -0.63094593144E+01  0.56097473273E+01  0.53055448878E+01  0.99713263146E+01  0.00000000000E+00 0. -1.
</event>
<event>
 8    1  0.2509489E-006  0.9118800E+02  0.7816164E-02  0.1184000E+00
        -11   -1    0    0    0    0  0.00000000000E+00  0.00000000000E+00  0.45593999997E+02  0.45594000000E+02  0.51100000000E-03 0.  1.
         11   -1    0    0    0    0 -0.00000000000E+00 -0.00000000000E+00 -0.45593999997E+02  0.45594000000E+02  0.51100000000E-03 0. -1.
         23    2    1    2    0    0  0.71054273576E-14 -0.35527136788E-14  0.44408920985E-15  0.91188000000E+02  0.91188000000E+02 0.  0.
    9900012    2    3    3    0    0 -0.30871713309E+02  0.19884459721E+02  0.27068774264E+01  0.54367060218E+02  0.39999945379E+02 0.  0.
         12    1    3    3    0    0  0.30871713309E+02 -0.19884459721E+02 -0.27068774264E+01  0.36820939782E+02  0.00000000000E+00 0. -1.
         11    1    4    4    0    0  0.25579589611E+01  0.80657537336E+00  0.10379963435E+02  0.10720884248E+02  0.51100000000E-03 0. -1.
        -11    1    4    4    0    0 -0.34430940864E+02  0.19179288037E+02 -0.37434863638E+01  0.39589752068E+02  0.51100000000E-03 0.  1.
         12    1    4    4    0    0  0.10012685943E+01 -0.10140368867E+00 -0.39295996451E+01  0.40564239025E+01  0.00000000000E+00 0. -1.
</event>
<event>
 8    1  0.2509489E-006  0.9118800E+02  0.7816164E-02  0.1184000E+00
        -11   -1    0    0    0    0  0.00000000000E+00  0.00000000000E+00  0.45593999997E+02  0.45594000000E+02  0.51100000000E-03 0. -1.
         11   -1    0    0    0    0 -0.00000000000E+00 -0.00000000000E+00 -0.45593999997E+02  0.45594000000E+02  0.51100000000E-03 0.  1.
         23    2    1    2    0    0  0.00000000000E+00  0.88817841970E-15  0.00000000000E+00  0.91188000000E+02  0.91188000000E+02 0.  0.
    9900012    2    3    3    0    0 -0.34397471033E+02 -0.75463184939E+01 -0.10753925029E+02  0.54367084207E+02  0.40000000066E+02 0.  0.
         12    1    3    3    0    0  0.34397471033E+02  0.75463184939E+01  0.10753925029E+02  0.36820915793E+02  0.00000000000E+00 0. -1.
         11    1    4    4    0    0 -0.25731470484E+01 -0.10279007196E+02  0.72955578885E+01  0.12864845115E+02  0.51100000000E-03 0. -1.
        -11    1    4    4    0    0 -0.75367841121E+01 -0.78044843874E+01 -0.62054753632E+01  0.12498840588E+02  0.51100000000E-03 0.  1.
         12    1    4    4    0    0 -0.24287539873E+02  0.10537173090E+02 -0.11844007555E+02  0.29003398504E+02  0.00000000000E+00 0. -1.
</event>
<event>
 8    1  0.2509489E-006  0.9118800E+02  0.7816164E-02  0.1184000E+00
        -11   -1    0    0    0    0  0.00000000000E+00  0.00000000000E+00  0.45593999997E+02  0.45594000000E+02  0.51100000000E-03 0.  1.
         11   -1    0    0    0    0 -0.00000000000E+00 -0.00000000000E+00 -0.45593999997E+02  0.45594000000E+02  0.51100000000E-03 0. -1.
         23    2    1    2    0    0  0.00000000000E+00  0.35527136788E-14  0.35527136788E-14  0.91188000000E+02  0.91188000000E+02 0.  0.
    9900012    2    3    3    0    0 -0.11583890535E+02 -0.24114140515E+02 -0.25300226176E+02  0.54367085600E+02  0.40000003242E+02 0.  0.
        -12    1    3    3    0    0  0.11583890535E+02  0.24114140515E+02  0.25300226176E+02  0.36820914400E+02  0.00000000000E+00 0.  1.
         11    1    4    4    0    0 -0.10358237639E+02 -0.26110780431E+02 -0.25903606744E+02  0.38210767911E+02  0.51100000000E-03 0. -1.
        -11    1    4    4    0    0 -0.84543573099E+01 -0.56361725054E+00  0.15571311523E+00  0.84745541926E+01  0.51100000000E-03 0.  1.
        -12    1    4    4    0    0  0.72287044146E+01  0.25602571663E+01  0.44766745282E+00  0.76817634967E+01  0.00000000000E+00 0.  1.
</event>
<event>
 8    1  0.2509489E-006  0.9118800E+02  0.7816164E-02  0.1184000E+00
        -11   -1    0    0    0    0  0.00000000000E+00  0.00000000000E+00  0.45593999997E+02  0.45594000000E+02  0.51100000000E-03 0.  1.
         11   -1    0    0    0    0 -0.00000000000E+00 -0.00000000000E+00 -0.45593999997E+02  0.45594000000E+02  0.51100000000E-03 0. -1.
         23    2    1    2    0    0  0.00000000000E+00 -0.35527136788E-14  0.35527136788E-14  0.91188000000E+02  0.91188000000E+02 0.  0.
    9900012    2    3    3    0    0  0.15354125694E+02 -0.27940143656E+02  0.18422105970E+02  0.54367152757E+02  0.40000156340E+02 0.  0.
         12    1    3    3    0    0 -0.15354125694E+02  0.27940143656E+02 -0.18422105970E+02  0.36820847243E+02  0.00000000000E+00 0. -1.
         11    1    4    4    0    0 -0.48900423741E+00  0.19607663834E+01  0.96154911543E+01  0.98255483488E+01  0.51100000000E-03 0. -1.
        -11    1    4    4    0    0  0.23760075308E+02 -0.24099618618E+02  0.65558855245E+01  0.34471907859E+02  0.51100000000E-03 0.  1.
         12    1    4    4    0    0 -0.79169453770E+01 -0.58012914207E+01  0.22507292907E+01  0.10069696549E+02  0.00000000000E+00 0. -1.
</event>
<event>
 8    1  0.2509489E-006  0.9118800E+02  0.7816164E-02  0.1184000E+00
        -11   -1    0    0    0    0  0.00000000000E+00  0.00000000000E+00  0.45593999997E+02  0.45594000000E+02  0.51100000000E-03 0.  1.
         11   -1    0    0    0    0 -0.00000000000E+00 -0.00000000000E+00 -0.45593999997E+02  0.45594000000E+02  0.51100000000E-03 0. -1.
         23    2    1    2    0    0  0.00000000000E+00  0.00000000000E+00  0.00000000000E+00  0.91188000000E+02  0.91188000000E+02 0.  0.
    9900012    2    3    3    0    0 -0.12389565548E+02 -0.17023579894E+02  0.30207330953E+02  0.54366994443E+02  0.39999795432E+02 0.  0.
         12    1    3    3    0    0  0.12389565548E+02  0.17023579894E+02 -0.30207330953E+02  0.36821005557E+02  0.00000000000E+00 0. -1.
         11    1    4    4    0    0  0.12170938245E+02 -0.13333050034E+01  0.15315587999E+02  0.19608076806E+02  0.51100000000E-03 0. -1.
        -11    1    4    4    0    0 -0.21543892798E+02 -0.17586729911E+02  0.13697744611E+02  0.31000977300E+02  0.51100000000E-03 0.  1.
         12    1    4    4    0    0 -0.30166109952E+01  0.18964550202E+01  0.11939983427E+01  0.37579403378E+01  0.00000000000E+00 0. -1.
</event>
<event>
 8    1  0.2509489E-006  0.9118800E+02  0.7816164E-02  0.1184000E+00
        -11   -1    0    0    0    0  0.00000000000E+00  0.00000000000E+00  0.45593999997E+02  0.45594000000E+02  0.51100000000E-03 0.  1.
         11   -1    0    0    0    0 -0.00000000000E+00 -0.00000000000E+00 -0.45593999997E+02  0.45594000000E+02  0.51100000000E-03 0. -1.
         23    2    1    2    0    0  0.00000000000E+00  0.00000000000E+00 -0.88817841970E-15  0.91188000000E+02  0.91188000000E+02 0.  0.
    9900012    2    3    3    0    0 -0.30586937126E+02  0.19028479087E+02 -0.76247553976E+01  0.54367073423E+02  0.39999975483E+02 0.  0.
        -12    1    3    3    0    0  0.30586937126E+02 -0.19028479087E+02  0.76247553976E+01  0.36820926577E+02  0.00000000000E+00 0.  1.
         11    1    4    4    0    0 -0.24770519456E+02  0.10301366859E+02  0.31119639466E+00  0.26828970103E+02  0.51100000000E-03 0. -1.
        -11    1    4    4    0    0  0.84889120296E+01 -0.52688923053E+00  0.51287816355E+00  0.85206973881E+01  0.51100000000E-03 0.  1.
        -12    1    4    4    0    0 -0.14305329699E+02  0.92540014580E+01 -0.84488299558E+01  0.19017405933E+02  0.00000000000E+00 0.  1.
</event>
<event>
 8    1  0.2509489E-006  0.9118800E+02  0.7816164E-02  0.1184000E+00
        -11   -1    0    0    0    0  0.00000000000E+00  0.00000000000E+00  0.45593999997E+02  0.45594000000E+02  0.51100000000E-03 0.  1.
         11   -1    0    0    0    0 -0.00000000000E+00 -0.00000000000E+00 -0.45593999997E+02  0.45594000000E+02  0.51100000000E-03 0. -1.
         23    2    1    2    0    0  0.00000000000E+00  0.44408920985E-15  0.00000000000E+00  0.91188000000E+02  0.91188000000E+02 0.  0.
    9900012    2    3    3    0    0  0.31724659452E+02 -0.69224606725E+00 -0.18677432340E+02  0.54367086095E+02  0.40000004372E+02 0.  0.
         12    1    3    3    0    0 -0.31724659452E+02  0.69224606725E+00  0.18677432340E+02  0.36820913905E+02  0.00000000000E+00 0. -1.
         11    1    4    4    0    0  0.11385833742E+02 -0.43417309192E+01 -0.16388042835E+01  0.12295264011E+02  0.51100000000E-03 0. -1.
        -11    1    4    4    0    0 -0.20253475833E+01  0.22983433279E+01 -0.19310503386E+02  0.19551980876E+02  0.51100000000E-03 0.  1.
        -12    1    4    4    0    0  0.22364173293E+02  0.13511415240E+01  0.22718753296E+01  0.22519841208E+02  0.00000000000E+00 0.  1.
</event>
<event>
 8    1  0.2509489E-006  0.9118800E+02  0.7816164E-02  0.1184000E+00
        -11   -1    0    0    0    0  0.00000000000E+00  0.00000000000E+00  0.45593999997E+02  0.45594000000E+02  0.51100000000E-03 0. -1.
         11   -1    0    0    0    0 -0.00000000000E+00 -0.00000000000E+00 -0.45593999997E+02  0.45594000000E+02  0.51100000000E-03 0.  1.
         23    2    1    2    0    0  0.35527136788E-14  0.44408920985E-15 -0.35527136788E-14  0.91188000000E+02  0.91188000000E+02 0.  0.
    9900012    2    3    3    0    0 -0.24150289134E+02 -0.35349770338E+01  0.27568969615E+02  0.54367073701E+02  0.39999976115E+02 0.  0.
        -12    1    3    3    0    0  0.24150289134E+02  0.35349770338E+01 -0.27568969615E+02  0.36820926299E+02  0.00000000000E+00 0.  1.
         11    1    4    4    0    0 -0.26419855136E+01  0.92868138234E+01  0.24073858992E+02  0.25937919837E+02  0.51100000000E-03 0. -1.
        -11    1    4    4    0    0 -0.11650051762E+02  0.52612357367E-01  0.36647646339E+01  0.12212983836E+02  0.51100000000E-03 0.  1.
        -12    1    4    4    0    0 -0.98582518593E+01 -0.12874403215E+02 -0.16965401134E+00  0.16216170027E+02  0.00000000000E+00 0.  1.
</event>
<event>
 8    1  0.2509489E-006  0.9118800E+02  0.7816164E-02  0.1184000E+00
        -11   -1    0    0    0    0  0.00000000000E+00  0.00000000000E+00  0.45593999997E+02  0.45594000000E+02  0.51100000000E-03 0. -1.
         11   -1    0    0    0    0 -0.00000000000E+00 -0.00000000000E+00 -0.45593999997E+02  0.45594000000E+02  0.51100000000E-03 0.  1.
         23    2    1    2    0    0  0.35527136788E-14  0.26645352591E-14 -0.35527136788E-14  0.91188000000E+02  0.91188000000E+02 0.  0.
    9900012    2    3    3    0    0  0.29627912374E+02  0.17415905355E+01 -0.21792916615E+02  0.54367115385E+02  0.40000071144E+02 0.  0.
         12    1    3    3    0    0 -0.29627912374E+02 -0.17415905355E+01  0.21792916615E+02  0.36820884615E+02  0.00000000000E+00 0. -1.
         11    1    4    4    0    0 -0.48150167897E+01 -0.58286140131E+01 -0.38019167436E+01  0.84623695964E+01  0.51100000000E-03 0. -1.
        -11    1    4    4    0    0  0.14927743810E+02  0.11592979364E+02  0.23311014445E+00  0.18902091059E+02  0.51100000000E-03 0.  1.
        -12    1    4    4    0    0  0.19515185354E+02 -0.40227748156E+01 -0.18224110016E+02  0.27002654730E+02  0.00000000000E+00 0.  1.
</event>
<event>
 8    1  0.2509489E-006  0.9118800E+02  0.7816164E-02  0.1184000E+00
        -11   -1    0    0    0    0  0.00000000000E+00  0.00000000000E+00  0.45593999997E+02  0.45594000000E+02  0.51100000000E-03 0.  1.
         11   -1    0    0    0    0 -0.00000000000E+00 -0.00000000000E+00 -0.45593999997E+02  0.45594000000E+02  0.51100000000E-03 0. -1.
         23    2    1    2    0    0  0.00000000000E+00  0.00000000000E+00  0.35527136788E-14  0.91188000000E+02  0.91188000000E+02 0.  0.
    9900012    2    3    3    0    0 -0.30389976039E+02 -0.13128861068E+02  0.16120245116E+02  0.54367082858E+02  0.39999996992E+02 0.  0.
         12    1    3    3    0    0  0.30389976039E+02  0.13128861068E+02 -0.16120245116E+02  0.36820917142E+02  0.00000000000E+00 0. -1.
         11    1    4    4    0    0 -0.53175425130E+01 -0.25313116278E+01 -0.65764430521E+01  0.88279896020E+01  0.51100000000E-03 0. -1.
        -11    1    4    4    0    0 -0.13245561564E+01  0.77754705785E+01  0.10496314968E+02  0.13129547589E+02  0.51100000000E-03 0.  1.
        -12    1    4    4    0    0 -0.23747877369E+02 -0.18373020018E+02  0.12200373200E+02  0.32409545667E+02  0.00000000000E+00 0.  1.
</event>
<event>
 8    1  0.2509489E-006  0.9118800E+02  0.7816164E-02  0.1184000E+00
        -11   -1    0    0    0    0  0.00000000000E+00  0.00000000000E+00  0.45593999997E+02  0.45594000000E+02  0.51100000000E-03 0. -1.
         11   -1    0    0    0    0 -0.00000000000E+00 -0.00000000000E+00 -0.45593999997E+02  0.45594000000E+02  0.51100000000E-03 0.  1.
         23    2    1    2    0    0  0.00000000000E+00  0.17763568394E-14  0.00000000000E+00  0.91188000000E+02  0.91188000000E+02 0.  0.
    9900012    2    3    3    0    0 -0.31022540866E+01  0.10361107528E+02  0.35196646114E+02  0.54367076229E+02  0.39999981880E+02 0.  0.
        -12    1    3    3    0    0  0.31022540866E+01 -0.10361107528E+02 -0.35196646114E+02  0.36820923771E+02  0.00000000000E+00 0.  1.
         11    1    4    4    0    0  0.19446783274E+01 -0.42262225126E+01  0.74408872752E+01  0.87755076335E+01  0.51100000000E-03 0. -1.
        -11    1    4    4    0    0  0.68756546864E+01 -0.14221421937E+01  0.24349764237E+02  0.25341825792E+02  0.51100000000E-03 0.  1.
        -12    1    4    4    0    0 -0.11922587100E+02  0.16009472235E+02  0.34059946022E+01  0.20249742804E+02  0.00000000000E+00 0.  1.
</event>
<event>
 8    1  0.2509489E-006  0.9118800E+02  0.7816164E-02  0.1184000E+00
        -11   -1    0    0    0    0  0.00000000000E+00  0.00000000000E+00  0.45593999997E+02  0.45594000000E+02  0.51100000000E-03 0.  1.
         11   -1    0    0    0    0 -0.00000000000E+00 -0.00000000000E+00 -0.45593999997E+02  0.45594000000E+02  0.51100000000E-03 0. -1.
         23    2    1    2    0    0  0.88817841970E-15 -0.35527136788E-14 -0.35527136788E-14  0.91188000000E+02  0.91188000000E+02 0.  0.
    9900012    2    3    3    0    0 -0.78183034455E+01 -0.29685897642E+02 -0.20332474674E+02  0.54366974567E+02  0.39999750120E+02 0.  0.
        -12    1    3    3    0    0  0.78183034455E+01  0.29685897642E+02  0.20332474674E+02  0.36821025433E+02  0.00000000000E+00 0.  1.
         11    1    4    4    0    0  0.62378211694E+01 -0.28335887821E+01 -0.14807851347E+01  0.70094481384E+01  0.51100000000E-03 0. -1.
        -11    1    4    4    0    0  0.68552689829E+01 -0.20269303993E+02 -0.11095008232E+02  0.24102668008E+02  0.51100000000E-03 0.  1.
         12    1    4    4    0    0 -0.20911393598E+02 -0.65830048668E+01 -0.77566813071E+01  0.23254858421E+02  0.00000000000E+00 0. -1.
</event>
<event>
 8    1  0.2509489E-006  0.9118800E+02  0.7816164E-02  0.1184000E+00
        -11   -1    0    0    0    0  0.00000000000E+00  0.00000000000E+00  0.45593999997E+02  0.45594000000E+02  0.51100000000E-03 0.  1.
         11   -1    0    0    0    0 -0.00000000000E+00 -0.00000000000E+00 -0.45593999997E+02  0.45594000000E+02  0.51100000000E-03 0. -1.
         23    2    1    2    0    0  0.17763568394E-14  0.00000000000E+00 -0.17763568394E-14  0.91188000000E+02  0.91188000000E+02 0.  0.
    9900012    2    3    3    0    0  0.96332211809E+01 -0.33517552051E+02 -0.11813742596E+02  0.54366949500E+02  0.39999692974E+02 0.  0.
         12    1    3    3    0    0 -0.96332211809E+01  0.33517552051E+02  0.11813742596E+02  0.36821050500E+02  0.00000000000E+00 0. -1.
         11    1    4    4    0    0 -0.11544796709E+02 -0.11582926764E+02 -0.12819995918E+01  0.16403964359E+02  0.51100000000E-03 0. -1.
        -11    1    4    4    0    0  0.76967987446E+01  0.77719619333E+00 -0.84700063255E+01  0.11471083308E+02  0.51100000000E-03 0.  1.
        -12    1    4    4    0    0  0.13481219146E+02 -0.22711821480E+02 -0.20617366787E+01  0.26491901833E+02  0.00000000000E+00 0.  1.
</event>
<event>
 8    1  0.2509489E-006  0.9118800E+02  0.7816164E-02  0.1184000E+00
        -11   -1    0    0    0    0  0.00000000000E+00  0.00000000000E+00  0.45593999997E+02  0.45594000000E+02  0.51100000000E-03 0.  1.
         11   -1    0    0    0    0 -0.00000000000E+00 -0.00000000000E+00 -0.45593999997E+02  0.45594000000E+02  0.51100000000E-03 0. -1.
         23    2    1    2    0    0  0.00000000000E+00 -0.44408920985E-15  0.35527136788E-14  0.91188000000E+02  0.91188000000E+02 0.  0.
    9900012    2    3    3    0    0  0.19075986475E+02  0.27041093076E+01 -0.31377931271E+02  0.54367081516E+02  0.39999993932E+02 0.  0.
        -12    1    3    3    0    0 -0.19075986475E+02 -0.27041093076E+01  0.31377931271E+02  0.36820918484E+02  0.00000000000E+00 0.  1.
         11    1    4    4    0    0  0.17780950792E+01  0.11320026745E+02 -0.14605769462E+02  0.18564297172E+02  0.51100000000E-03 0. -1.
        -11    1    4    4    0    0  0.19722834372E+02 -0.53892270601E+01 -0.20627936928E+01  0.20549673527E+02  0.51100000000E-03 0.  1.
         12    1    4    4    0    0 -0.24249429764E+01 -0.32266903777E+01 -0.14709368116E+02  0.15253110817E+02  0.00000000000E+00 0. -1.
</event>
<event>
 8    1  0.2509489E-006  0.9118800E+02  0.7816164E-02  0.1184000E+00
        -11   -1    0    0    0    0  0.00000000000E+00  0.00000000000E+00  0.45593999997E+02  0.45594000000E+02  0.51100000000E-03 0.  1.
         11   -1    0    0    0    0 -0.00000000000E+00 -0.00000000000E+00 -0.45593999997E+02  0.45594000000E+02  0.51100000000E-03 0. -1.
         23    2    1    2    0    0  0.00000000000E+00  0.00000000000E+00  0.17763568394E-14  0.91188000000E+02  0.91188000000E+02 0.  0.
    9900012    2    3    3    0    0  0.18297873624E+02  0.29768740878E+02  0.11609904691E+02  0.54367082038E+02  0.39999995123E+02 0.  0.
         12    1    3    3    0    0 -0.18297873624E+02 -0.29768740878E+02 -0.11609904691E+02  0.36820917962E+02  0.00000000000E+00 0. -1.
         11    1    4    4    0    0  0.52439411782E+01  0.13567590820E+02 -0.90466172081E+01  0.17129498618E+02  0.51100000000E-03 0. -1.
        -11    1    4    4    0    0  0.73372502878E+01 -0.46494320853E+01  0.25944724179E+01  0.90655252407E+01  0.51100000000E-03 0.  1.
        -12    1    4    4    0    0  0.57166821579E+01  0.20850582143E+02  0.18062049482E+02  0.28172058179E+02  0.00000000000E+00 0.  1.
</event>
<event>
 8    1  0.2509489E-006  0.9118800E+02  0.7816164E-02  0.1184000E+00
        -11   -1    0    0    0    0  0.00000000000E+00  0.00000000000E+00  0.45593999997E+02  0.45594000000E+02  0.51100000000E-03 0. -1.
         11   -1    0    0    0    0 -0.00000000000E+00 -0.00000000000E+00 -0.45593999997E+02  0.45594000000E+02  0.51100000000E-03 0.  1.
         23    2    1    2    0    0  0.00000000000E+00  0.00000000000E+00 -0.44408920985E-15  0.91188000000E+02  0.91188000000E+02 0.  0.
    9900012    2    3    3    0    0  0.16456219938E+02  0.32855160179E+02  0.23475714491E+01  0.54367084520E+02  0.40000000781E+02 0.  0.
        -12    1    3    3    0    0 -0.16456219938E+02 -0.32855160179E+02 -0.23475714491E+01  0.36820915480E+02  0.00000000000E+00 0.  1.
         11    1    4    4    0    0  0.11178494134E+02  0.77943464256E+01  0.11705512241E+01  0.13677746808E+02  0.51100000000E-03 0. -1.
        -11    1    4    4    0    0  0.15571568661E+02  0.78965471043E+01 -0.73382409728E+01  0.18938822233E+02  0.51100000000E-03 0.  1.
        -12    1    4    4    0    0 -0.10293842857E+02  0.17164266649E+02  0.85152611978E+01  0.21750515480E+02  0.00000000000E+00 0.  1.
</event>
<event>
 8    1  0.2509489E-006  0.9118800E+02  0.7816164E-02  0.1184000E+00
        -11   -1    0    0    0    0  0.00000000000E+00  0.00000000000E+00  0.45593999997E+02  0.45594000000E+02  0.51100000000E-03 0.  1.
         11   -1    0    0    0    0 -0.00000000000E+00 -0.00000000000E+00 -0.45593999997E+02  0.45594000000E+02  0.51100000000E-03 0. -1.
         23    2    1    2    0    0  0.00000000000E+00  0.00000000000E+00  0.00000000000E+00  0.91188000000E+02  0.91188000000E+02 0.  0.
    9900012    2    3    3    0    0  0.33794851590E+02 -0.17225501278E+01  0.14516185561E+02  0.54367098108E+02  0.40000031756E+02 0.  0.
         12    1    3    3    0    0 -0.33794851590E+02  0.17225501278E+01 -0.14516185561E+02  0.36820901892E+02  0.00000000000E+00 0. -1.
         11    1    4    4    0    0  0.14784755936E+02 -0.11241609986E+02 -0.95884832396E+01  0.20902196399E+02  0.51100000000E-03 0. -1.
        -11    1    4    4    0    0  0.11086530319E+02  0.37261429763E+01  0.66886214176E+01  0.13473416520E+02  0.51100000000E-03 0.  1.
         12    1    4    4    0    0  0.79235653342E+01  0.57929168824E+01  0.17416047383E+02  0.19991485189E+02  0.00000000000E+00 0. -1.
</event>
<event>
 8    1  0.2509489E-006  0.9118800E+02  0.7816164E-02  0.1184000E+00
        -11   -1    0    0    0    0  0.00000000000E+00  0.00000000000E+00  0.45593999997E+02  0.45594000000E+02  0.51100000000E-03 0.  1.
         11   -1    0    0    0    0 -0.00000000000E+00 -0.00000000000E+00 -0.45593999997E+02  0.45594000000E+02  0.51100000000E-03 0. -1.
         23    2    1    2    0    0  0.00000000000E+00  0.00000000000E+00  0.00000000000E+00  0.91188000000E+02  0.91188000000E+02 0.  0.
    9900012    2    3    3    0    0  0.95744525470E+01  0.95714321067E+01 -0.34241785173E+02  0.54367050719E+02  0.39999923723E+02 0.  0.
        -12    1    3    3    0    0 -0.95744525470E+01 -0.95714321067E+01  0.34241785173E+02  0.36820949281E+02  0.00000000000E+00 0.  1.
         11    1    4    4    0    0  0.95275535752E+01 -0.59753414324E+00 -0.62365095569E+01  0.11402867003E+02  0.51100000000E-03 0. -1.
        -11    1    4    4    0    0 -0.26409639826E+00  0.16136904709E+02 -0.19782049080E+01  0.16259850411E+02  0.51100000000E-03 0.  1.
         12    1    4    4    0    0  0.31099537005E+00 -0.59679384587E+01 -0.26027070708E+02  0.26704333304E+02  0.00000000000E+00 0. -1.
</event>
<event>
 8    1  0.2509489E-006  0.9118800E+02  0.7816164E-02  0.1184000E+00
        -11   -1    0    0    0    0  0.00000000000E+00  0.00000000000E+00  0.45593999997E+02  0.45594000000E+02  0.51100000000E-03 0.  1.
         11   -1    0    0    0    0 -0.00000000000E+00 -0.00000000000E+00 -0.45593999997E+02  0.45594000000E+02  0.51100000000E-03 0. -1.
         23    2    1    2    0    0  0.00000000000E+00  0.00000000000E+00  0.00000000000E+00  0.91188000000E+02  0.91188000000E+02 0.  0.
    9900012    2    3    3    0    0 -0.50248092494E+01 -0.35585525499E+02 -0.80125981934E+01  0.54367081179E+02  0.39999993163E+02 0.  0.
        -12    1    3    3    0    0  0.50248092494E+01  0.35585525499E+02  0.80125981934E+01  0.36820918821E+02  0.00000000000E+00 0.  1.
         11    1    4    4    0    0 -0.10573229828E+02 -0.58398171138E+01  0.67996264379E+01  0.13861153374E+02  0.51100000000E-03 0. -1.
        -11    1    4    4    0    0 -0.32202629871E+01 -0.59403785669E+01 -0.13507636421E+02  0.15103457656E+02  0.51100000000E-03 0.  1.
        -12    1    4    4    0    0  0.87686835654E+01 -0.23805329818E+02 -0.13045882104E+01  0.25402470148E+02  0.00000000000E+00 0.  1.
</event>
<event>
 8    1  0.2509489E-006  0.9118800E+02  0.7816164E-02  0.1184000E+00
        -11   -1    0    0    0    0  0.00000000000E+00  0.00000000000E+00  0.45593999997E+02  0.45594000000E+02  0.51100000000E-03 0.  1.
         11   -1    0    0    0    0 -0.00000000000E+00 -0.00000000000E+00 -0.45593999997E+02  0.45594000000E+02  0.51100000000E-03 0. -1.
         23    2    1    2    0    0  0.00000000000E+00  0.00000000000E+00  0.88817841970E-15  0.91188000000E+02  0.91188000000E+02 0.  0.
    9900012    2    3    3    0    0  0.32666756355E+02  0.16284400426E+02 -0.48462263466E+01  0.54367019869E+02  0.39999853395E+02 0.  0.
        -12    1    3    3    0    0 -0.32666756355E+02 -0.16284400426E+02  0.48462263466E+01  0.36820980131E+02  0.00000000000E+00 0.  1.
         11    1    4    4    0    0  0.56872331008E+01  0.20683762654E+02 -0.41390116875E+01  0.21847061036E+02  0.51100000000E-03 0. -1.
        -11    1    4    4    0    0  0.22794614195E+01 -0.82571317740E+00  0.61727426003E+01  0.66317794056E+01  0.51100000000E-03 0.  1.
        -12    1    4    4    0    0  0.24700061835E+02 -0.35736490509E+01 -0.68799572594E+01  0.25888179428E+02  0.00000000000E+00 0.  1.
</event>
<event>
 8    1  0.2509489E-006  0.9118800E+02  0.7816164E-02  0.1184000E+00
        -11   -1    0    0    0    0  0.00000000000E+00  0.00000000000E+00  0.45593999997E+02  0.45594000000E+02  0.51100000000E-03 0.  1.
         11   -1    0    0    0    0 -0.00000000000E+00 -0.00000000000E+00 -0.45593999997E+02  0.45594000000E+02  0.51100000000E-03 0. -1.
         23    2    1    2    0    0  0.00000000000E+00 -0.17763568394E-14  0.00000000000E+00  0.91188000000E+02  0.91188000000E+02 0.  0.
    9900012    2    3    3    0    0  0.28883099513E+02 -0.14776542123E+02  0.17412650258E+02  0.54367081712E+02  0.39999994378E+02 0.  0.
         12    1    3    3    0    0 -0.28883099513E+02  0.14776542123E+02 -0.17412650258E+02  0.36820918288E+02  0.00000000000E+00 0. -1.
         11    1    4    4    0    0 -0.51154535492E+01 -0.19356402944E+01 -0.39005337234E+01  0.67177921933E+01  0.51100000000E-03 0. -1.
        -11    1    4    4    0    0 -0.20461588645E+00 -0.51421295970E+01 -0.20277382079E+01  0.55312825777E+01  0.51100000000E-03 0.  1.
        -12    1    4    4    0    0  0.34203168949E+02 -0.76987722312E+01  0.23340922190E+02  0.42118006941E+02  0.00000000000E+00 0.  1.
</event>
<event>
 8    1  0.2509489E-006  0.9118800E+02  0.7816164E-02  0.1184000E+00
        -11   -1    0    0    0    0  0.00000000000E+00  0.00000000000E+00  0.45593999997E+02  0.45594000000E+02  0.51100000000E-03 0. -1.
         11   -1    0    0    0    0 -0.00000000000E+00 -0.00000000000E+00 -0.45593999997E+02  0.45594000000E+02  0.51100000000E-03 0.  1.
         23    2    1    2    0    0  0.00000000000E+00  0.00000000000E+00  0.35527136788E-14  0.91188000000E+02  0.91188000000E+02 0.  0.
    9900012    2    3    3    0    0 -0.16358913370E+02  0.30721188620E+02 -0.12015435357E+02  0.54367134126E+02  0.40000113867E+02 0.  0.
        -12    1    3    3    0    0  0.16358913370E+02 -0.30721188620E+02  0.12015435357E+02  0.36820865874E+02  0.00000000000E+00 0.  1.
         11    1    4    4    0    0 -0.12848362923E+01  0.17475612460E+02  0.78158626065E+01  0.19186858620E+02  0.51100000000E-03 0. -1.
        -11    1    4    4    0    0 -0.34934747982E+01  0.16230684818E+02 -0.14669279915E+02  0.22154621849E+02  0.51100000000E-03 0.  1.
         12    1    4    4    0    0 -0.11580602280E+02 -0.29851086572E+01 -0.51620180489E+01  0.13025653657E+02  0.00000000000E+00 0. -1.
</event>
<event>
 8    1  0.2509489E-006  0.9118800E+02  0.7816164E-02  0.1184000E+00
        -11   -1    0    0    0    0  0.00000000000E+00  0.00000000000E+00  0.45593999997E+02  0.45594000000E+02  0.51100000000E-03 0.  1.
         11   -1    0    0    0    0 -0.00000000000E+00 -0.00000000000E+00 -0.45593999997E+02  0.45594000000E+02  0.51100000000E-03 0. -1.
         23    2    1    2    0    0  0.00000000000E+00  0.00000000000E+00  0.00000000000E+00  0.91188000000E+02  0.91188000000E+02 0.  0.
    9900012    2    3    3    0    0 -0.15294818604E+02 -0.24369033060E+02 -0.22978065769E+02  0.54367180415E+02  0.40000219393E+02 0.  0.
        -12    1    3    3    0    0  0.15294818604E+02  0.24369033060E+02  0.22978065769E+02  0.36820819585E+02  0.00000000000E+00 0.  1.
         11    1    4    4    0    0 -0.94944169033E+01 -0.64075378863E+01 -0.14243832221E+02  0.18278053799E+02  0.51100000000E-03 0. -1.
        -11    1    4    4    0    0 -0.83604697977E+01 -0.71039448181E+01 -0.18338033256E+02  0.21369299267E+02  0.51100000000E-03 0.  1.
        -12    1    4    4    0    0  0.25600680968E+01 -0.10857550355E+02  0.96037997073E+01  0.14719827349E+02  0.00000000000E+00 0.  1.
</event>
<event>
 8    1  0.2509489E-006  0.9118800E+02  0.7816164E-02  0.1184000E+00
        -11   -1    0    0    0    0  0.00000000000E+00  0.00000000000E+00  0.45593999997E+02  0.45594000000E+02  0.51100000000E-03 0. -1.
         11   -1    0    0    0    0 -0.00000000000E+00 -0.00000000000E+00 -0.45593999997E+02  0.45594000000E+02  0.51100000000E-03 0.  1.
         23    2    1    2    0    0  0.00000000000E+00  0.00000000000E+00  0.00000000000E+00  0.91188000000E+02  0.91188000000E+02 0.  0.
    9900012    2    3    3    0    0 -0.12596255809E+02 -0.24702887737E+02 -0.24225613946E+02  0.54367099767E+02  0.40000035538E+02 0.  0.
         12    1    3    3    0    0  0.12596255809E+02  0.24702887737E+02  0.24225613946E+02  0.36820900233E+02  0.00000000000E+00 0. -1.
         11    1    4    4    0    0  0.78756329945E+01  0.51968860193E+00 -0.30574031897E+01  0.84642415982E+01  0.51100000000E-03 0. -1.
        -11    1    4    4    0    0 -0.44607728675E+01 -0.20897574790E+02 -0.34701293869E+01  0.21648300739E+02  0.51100000000E-03 0.  1.
         12    1    4    4    0    0 -0.16011115936E+02 -0.43250015487E+01 -0.17698081369E+02  0.24254557429E+02  0.00000000000E+00 0. -1.
</event>
<event>
 8    1  0.2509489E-006  0.9118800E+02  0.7816164E-02  0.1184000E+00
        -11   -1    0    0    0    0  0.00000000000E+00  0.00000000000E+00  0.45593999997E+02  0.45594000000E+02  0.51100000000E-03 0. -1.
         11   -1    0    0    0    0 -0.00000000000E+00 -0.00000000000E+00 -0.45593999997E+02  0.45594000000E+02  0.51100000000E-03 0.  1.
         23    2    1    2    0    0 -0.71054273576E-14 -0.35527136788E-14  0.00000000000E+00  0.91188000000E+02  0.91188000000E+02 0.  0.
    9900012    2    3    3    0    0  0.16860865779E+02  0.19380446916E+02  0.26379633984E+02  0.54367141691E+02  0.40000131114E+02 0.  0.
        -12    1    3    3    0    0 -0.16860865779E+02 -0.19380446916E+02 -0.26379633984E+02  0.36820858309E+02  0.00000000000E+00 0.  1.
         11    1    4    4    0    0 -0.13962107978E+01  0.45920040699E+01  0.30134814101E+02  0.30514634639E+02  0.51100000000E-03 0. -1.
        -11    1    4    4    0    0  0.53171329505E+01  0.40697122402E+01 -0.32869138776E+00  0.67039166777E+01  0.51100000000E-03 0.  1.
         12    1    4    4    0    0  0.12939943626E+02  0.10718730605E+02 -0.34264887292E+01  0.17148590375E+02  0.00000000000E+00 0. -1.
</event>
<event>
 8    1  0.2509489E-006  0.9118800E+02  0.7816164E-02  0.1184000E+00
        -11   -1    0    0    0    0  0.00000000000E+00  0.00000000000E+00  0.45593999997E+02  0.45594000000E+02  0.51100000000E-03 0. -1.
         11   -1    0    0    0    0 -0.00000000000E+00 -0.00000000000E+00 -0.45593999997E+02  0.45594000000E+02  0.51100000000E-03 0.  1.
         23    2    1    2    0    0  0.00000000000E+00  0.35527136788E-14  0.00000000000E+00  0.91188000000E+02  0.91188000000E+02 0.  0.
    9900012    2    3    3    0    0  0.30588277119E+02  0.17823530091E+02 -0.10122344474E+02  0.54367044286E+02  0.39999909060E+02 0.  0.
         12    1    3    3    0    0 -0.30588277119E+02 -0.17823530091E+02  0.10122344474E+02  0.36820955714E+02  0.00000000000E+00 0. -1.
         11    1    4    4    0    0  0.11775678859E+02 -0.23067019333E+01 -0.45225874713E+01  0.12823466150E+02  0.51100000000E-03 0. -1.
        -11    1    4    4    0    0  0.26627871394E+01  0.12985438738E+02 -0.16211374795E+02  0.20940886504E+02  0.51100000000E-03 0.  1.
        -12    1    4    4    0    0  0.16149811120E+02  0.71447932859E+01  0.10611617792E+02  0.20602691632E+02  0.00000000000E+00 0.  1.
</event>
<event>
 8    1  0.2509489E-006  0.9118800E+02  0.7816164E-02  0.1184000E+00
        -11   -1    0    0    0    0  0.00000000000E+00  0.00000000000E+00  0.45593999997E+02  0.45594000000E+02  0.51100000000E-03 0. -1.
         11   -1    0    0    0    0 -0.00000000000E+00 -0.00000000000E+00 -0.45593999997E+02  0.45594000000E+02  0.51100000000E-03 0.  1.
         23    2    1    2    0    0  0.00000000000E+00  0.00000000000E+00  0.17763568394E-14  0.91188000000E+02  0.91188000000E+02 0.  0.
    9900012    2    3    3    0    0  0.32110810135E+01 -0.35305928706E+02  0.99478568403E+01  0.54367088838E+02  0.40000010624E+02 0.  0.
        -12    1    3    3    0    0 -0.32110810135E+01  0.35305928706E+02 -0.99478568403E+01  0.36820911162E+02  0.00000000000E+00 0.  1.
         11    1    4    4    0    0 -0.43718080530E+01 -0.33084688325E+02  0.57328826186E+01  0.33861117090E+02  0.51100000000E-03 0. -1.
        -11    1    4    4    0    0 -0.43673137823E+01  0.38295920363E+01 -0.14113262082E+01  0.59775452122E+01  0.51100000000E-03 0.  1.
        -12    1    4    4    0    0  0.11950202849E+02 -0.60508324178E+01  0.56263004299E+01  0.14528426536E+02  0.00000000000E+00 0.  1.
</event>
<event>
 8    1  0.2509489E-006  0.9118800E+02  0.7816164E-02  0.1184000E+00
        -11   -1    0    0    0    0  0.00000000000E+00  0.00000000000E+00  0.45593999997E+02  0.45594000000E+02  0.51100000000E-03 0.  1.
         11   -1    0    0    0    0 -0.00000000000E+00 -0.00000000000E+00 -0.45593999997E+02  0.45594000000E+02  0.51100000000E-03 0. -1.
         23    2    1    2    0    0  0.00000000000E+00  0.00000000000E+00  0.00000000000E+00  0.91188000000E+02  0.91188000000E+02 0.  0.
    9900012    2    3    3    0    0 -0.32216422322E+02  0.62324389731E+01 -0.16704375610E+02  0.54367118326E+02  0.40000077847E+02 0.  0.
        -12    1    3    3    0    0  0.32216422322E+02 -0.62324389731E+01  0.16704375610E+02  0.36820881674E+02  0.00000000000E+00 0.  1.
         11    1    4    4    0    0 -0.22945428405E+02 -0.39588515618E+01 -0.10462126082E+02  0.25526873541E+02  0.51100000000E-03 0. -1.
        -11    1    4    4    0    0  0.75466501889E+01  0.77702891859E+01 -0.28650704694E+00  0.10835654556E+02  0.51100000000E-03 0.  1.
        -12    1    4    4    0    0 -0.16817644105E+02  0.24210013489E+01 -0.59557424813E+01  0.18004590228E+02  0.00000000000E+00 0.  1.
</event>
<event>
 8    1  0.2509489E-006  0.9118800E+02  0.7816164E-02  0.1184000E+00
        -11   -1    0    0    0    0  0.00000000000E+00  0.00000000000E+00  0.45593999997E+02  0.45594000000E+02  0.51100000000E-03 0.  1.
         11   -1    0    0    0    0 -0.00000000000E+00 -0.00000000000E+00 -0.45593999997E+02  0.45594000000E+02  0.51100000000E-03 0. -1.
         23    2    1    2    0    0  0.35527136788E-14 -0.35527136788E-14 -0.88817841970E-15  0.91188000000E+02  0.91188000000E+02 0.  0.
    9900012    2    3    3    0    0 -0.21075039619E+02  0.30077780275E+02 -0.26363916406E+01  0.54367072226E+02  0.39999972754E+02 0.  0.
        -12    1    3    3    0    0  0.21075039619E+02 -0.30077780275E+02  0.26363916406E+01  0.36820927774E+02  0.00000000000E+00 0.  1.
         11    1    4    4    0    0  0.60203927644E+01  0.41712952696E+01  0.41054983925E+01  0.83964248687E+01  0.51100000000E-03 0.  1.
        -11    1    4    4    0    0 -0.76931144445E+01  0.14934536227E+02 -0.14679764407E+02  0.22309636158E+02  0.51100000000E-03 0. -1.
        -12    1    4    4    0    0 -0.19402317939E+02  0.10971948778E+02  0.79378743743E+01  0.23661011200E+02  0.00000000000E+00 0.  1.
</event>
<event>
 8    1  0.2509489E-006  0.9118800E+02  0.7816164E-02  0.1184000E+00
        -11   -1    0    0    0    0  0.00000000000E+00  0.00000000000E+00  0.45593999997E+02  0.45594000000E+02  0.51100000000E-03 0. -1.
         11   -1    0    0    0    0 -0.00000000000E+00 -0.00000000000E+00 -0.45593999997E+02  0.45594000000E+02  0.51100000000E-03 0.  1.
         23    2    1    2    0    0  0.00000000000E+00  0.17763568394E-14 -0.35527136788E-14  0.91188000000E+02  0.91188000000E+02 0.  0.
    9900012    2    3    3    0    0 -0.30911463129E+02  0.11013806109E+02  0.16701936100E+02  0.54367120770E+02  0.40000083419E+02 0.  0.
        -12    1    3    3    0    0  0.30911463129E+02 -0.11013806109E+02 -0.16701936100E+02  0.36820879230E+02  0.00000000000E+00 0.  1.
         11    1    4    4    0    0 -0.16182038833E+02 -0.12636165728E+02  0.50795820831E+01  0.21150253415E+02  0.51100000000E-03 0. -1.
        -11    1    4    4    0    0 -0.15131700774E+01  0.18040825809E+00 -0.24057982990E+01  0.28478231229E+01  0.51100000000E-03 0.  1.
         12    1    4    4    0    0 -0.13216254219E+02  0.23469563580E+02  0.14028152316E+02  0.30369044232E+02  0.00000000000E+00 0. -1.
</event>
<event>
 8    1  0.2509489E-006  0.9118800E+02  0.7816164E-02  0.1184000E+00
        -11   -1    0    0    0    0  0.00000000000E+00  0.00000000000E+00  0.45593999997E+02  0.45594000000E+02  0.51100000000E-03 0. -1.
         11   -1    0    0    0    0 -0.00000000000E+00 -0.00000000000E+00 -0.45593999997E+02  0.45594000000E+02  0.51100000000E-03 0.  1.
         23    2    1    2    0    0  0.00000000000E+00 -0.35527136788E-14  0.00000000000E+00  0.91188000000E+02  0.91188000000E+02 0.  0.
    9900012    2    3    3    0    0 -0.19132485340E+02 -0.26073240779E+02  0.17604378865E+02  0.54367081553E+02  0.39999994017E+02 0.  0.
         12    1    3    3    0    0  0.19132485340E+02  0.26073240779E+02 -0.17604378865E+02  0.36820918447E+02  0.00000000000E+00 0. -1.
         11    1    4    4    0    0 -0.21852927308E+02 -0.70336214831E+01  0.10767339307E+02  0.25356613715E+02  0.51100000000E-03 0. -1.
        -11    1    4    4    0    0 -0.41463267556E+01 -0.58589006287E+01  0.11393168511E+02  0.13465624053E+02  0.51100000000E-03 0.  1.
        -12    1    4    4    0    0  0.68667687230E+01 -0.13180718667E+02 -0.45561289529E+01  0.15544843786E+02  0.00000000000E+00 0.  1.
</event>
<event>
 8    1  0.2509489E-006  0.9118800E+02  0.7816164E-02  0.1184000E+00
        -11   -1    0    0    0    0  0.00000000000E+00  0.00000000000E+00  0.45593999997E+02  0.45594000000E+02  0.51100000000E-03 0.  1.
         11   -1    0    0    0    0 -0.00000000000E+00 -0.00000000000E+00 -0.45593999997E+02  0.45594000000E+02  0.51100000000E-03 0. -1.
         23    2    1    2    0    0  0.00000000000E+00  0.35527136788E-14  0.00000000000E+00  0.91188000000E+02  0.91188000000E+02 0.  0.
    9900012    2    3    3    0    0  0.13685871342E+02  0.21434610284E+02 -0.26627671407E+02  0.54367102714E+02  0.40000042256E+02 0.  0.
        -12    1    3    3    0    0 -0.13685871342E+02 -0.21434610284E+02  0.26627671407E+02  0.36820897286E+02  0.00000000000E+00 0.  1.
         11    1    4    4    0    0  0.93395861301E+01  0.99451219681E+01 -0.15898262286E+02  0.20949655463E+02  0.51100000000E-03 0. -1.
        -11    1    4    4    0    0  0.20576784957E+01  0.18877336589E+02  0.13905358657E+01  0.19039996527E+02  0.51100000000E-03 0.  1.
         12    1    4    4    0    0  0.22886067162E+01 -0.73878482738E+01 -0.12119944987E+02  0.14377450723E+02  0.00000000000E+00 0. -1.
</event>
<event>
 8    1  0.2509489E-006  0.9118800E+02  0.7816164E-02  0.1184000E+00
        -11   -1    0    0    0    0  0.00000000000E+00  0.00000000000E+00  0.45593999997E+02  0.45594000000E+02  0.51100000000E-03 0. -1.
         11   -1    0    0    0    0 -0.00000000000E+00 -0.00000000000E+00 -0.45593999997E+02  0.45594000000E+02  0.51100000000E-03 0.  1.
         23    2    1    2    0    0  0.00000000000E+00  0.71054273576E-14 -0.44408920985E-15  0.91188000000E+02  0.91188000000E+02 0.  0.
    9900012    2    3    3    0    0  0.56730695784E+01 -0.36313152288E+02  0.22255623278E+01  0.54367056568E+02  0.39999937059E+02 0.  0.
        -12    1    3    3    0    0 -0.56730695784E+01  0.36313152288E+02 -0.22255623278E+01  0.36820943432E+02  0.00000000000E+00 0.  1.
         11    1    4    4    0    0 -0.63845501875E+01 -0.84032879950E+01 -0.51769930536E+01  0.11754955872E+02  0.51100000000E-03 0. -1.
        -11    1    4    4    0    0 -0.66324125471E+01 -0.52616005449E+01  0.10036062839E+02  0.13129961693E+02  0.51100000000E-03 0.  1.
        -12    1    4    4    0    0  0.18690032313E+02 -0.22648263748E+02 -0.26335074576E+01  0.29482139003E+02  0.00000000000E+00 0.  1.
</event>
<event>
 8    1  0.2509489E-006  0.9118800E+02  0.7816164E-02  0.1184000E+00
        -11   -1    0    0    0    0  0.00000000000E+00  0.00000000000E+00  0.45593999997E+02  0.45594000000E+02  0.51100000000E-03 0.  1.
         11   -1    0    0    0    0 -0.00000000000E+00 -0.00000000000E+00 -0.45593999997E+02  0.45594000000E+02  0.51100000000E-03 0. -1.
         23    2    1    2    0    0 -0.88817841970E-15  0.00000000000E+00  0.00000000000E+00  0.91188000000E+02  0.91188000000E+02 0.  0.
    9900012    2    3    3    0    0  0.46918494879E+01 -0.33566882543E+02  0.14388508750E+02  0.54367105941E+02  0.40000049613E+02 0.  0.
         12    1    3    3    0    0 -0.46918494879E+01  0.33566882543E+02 -0.14388508750E+02  0.36820894059E+02  0.00000000000E+00 0. -1.
         11    1    4    4    0    0  0.96649883278E+01 -0.34525172218E+01 -0.80061478044E+01  0.13016538613E+02  0.51100000000E-03 0. -1.
        -11    1    4    4    0    0 -0.20117681137E+01 -0.21065537288E+02  0.53503822668E+01  0.21827291697E+02  0.51100000000E-03 0.  1.
        -12    1    4    4    0    0 -0.29613707262E+01 -0.90488280332E+01  0.17044274288E+02  0.19523275631E+02  0.00000000000E+00 0.  1.
</event>
<event>
 8    1  0.2509489E-006  0.9118800E+02  0.7816164E-02  0.1184000E+00
        -11   -1    0    0    0    0  0.00000000000E+00  0.00000000000E+00  0.45593999997E+02  0.45594000000E+02  0.51100000000E-03 0. -1.
         11   -1    0    0    0    0 -0.00000000000E+00 -0.00000000000E+00 -0.45593999997E+02  0.45594000000E+02  0.51100000000E-03 0.  1.
         23    2    1    2    0    0  0.71054273576E-14  0.88817841970E-15  0.00000000000E+00  0.91188000000E+02  0.91188000000E+02 0.  0.
    9900012    2    3    3    0    0  0.25352528431E+02  0.53541581153E+01  0.26160360037E+02  0.54367052915E+02  0.39999928730E+02 0.  0.
        -12    1    3    3    0    0 -0.25352528431E+02 -0.53541581153E+01 -0.26160360037E+02  0.36820947085E+02  0.00000000000E+00 0.  1.
         11    1    4    4    0    0  0.24198686985E+01 -0.41508329114E+01 -0.34633691636E+01  0.59228459883E+01  0.51100000000E-03 0. -1.
        -11    1    4    4    0    0 -0.92085015363E+00  0.12444758344E+02  0.35295751468E+01  0.12968341305E+02  0.51100000000E-03 0.  1.
         12    1    4    4    0    0  0.23853509886E+02 -0.29397673169E+01  0.26094154054E+02  0.35475865621E+02  0.00000000000E+00 0. -1.
</event>
<event>
 8    1  0.2509489E-006  0.9118800E+02  0.7816164E-02  0.1184000E+00
        -11   -1    0    0    0    0  0.00000000000E+00  0.00000000000E+00  0.45593999997E+02  0.45594000000E+02  0.51100000000E-03 0. -1.
         11   -1    0    0    0    0 -0.00000000000E+00 -0.00000000000E+00 -0.45593999997E+02  0.45594000000E+02  0.51100000000E-03 0.  1.
         23    2    1    2    0    0  0.35527136788E-14  0.35527136788E-14  0.00000000000E+00  0.91188000000E+02  0.91188000000E+02 0.  0.
    9900012    2    3    3    0    0  0.21052378948E+02  0.17088559402E+02 -0.24911010365E+02  0.54367082586E+02  0.39999996371E+02 0.  0.
         12    1    3    3    0    0 -0.21052378948E+02 -0.17088559402E+02  0.24911010365E+02  0.36820917414E+02  0.00000000000E+00 0. -1.
         11    1    4    4    0    0 -0.10313855353E+02  0.97017201225E+01 -0.90364858942E+01  0.16797531460E+02  0.51100000000E-03 0. -1.
        -11    1    4    4    0    0  0.25182532140E+02  0.10309832875E+02 -0.12682561658E+02  0.30021658005E+02  0.51100000000E-03 0.  1.
         12    1    4    4    0    0  0.61837021601E+01 -0.29229935956E+01 -0.31919628131E+01  0.75478931209E+01  0.00000000000E+00 0. -1.
</event>
<event>
 8    1  0.2509489E-006  0.9118800E+02  0.7816164E-02  0.1184000E+00
        -11   -1    0    0    0    0  0.00000000000E+00  0.00000000000E+00  0.45593999997E+02  0.45594000000E+02  0.51100000000E-03 0. -1.
         11   -1    0    0    0    0 -0.00000000000E+00 -0.00000000000E+00 -0.45593999997E+02  0.45594000000E+02  0.51100000000E-03 0.  1.
         23    2    1    2    0    0  0.17763568394E-14  0.35527136788E-14  0.00000000000E+00  0.91188000000E+02  0.91188000000E+02 0.  0.
    9900012    2    3    3    0    0  0.15536799069E+02  0.24255809298E+02 -0.22935620554E+02  0.54367094250E+02  0.40000022963E+02 0.  0.
         12    1    3    3    0    0 -0.15536799069E+02 -0.24255809298E+02  0.22935620554E+02  0.36820905750E+02  0.00000000000E+00 0. -1.
         11    1    4    4    0    0  0.93851229071E+01  0.15806375973E+02 -0.94308294288E+00  0.18406831859E+02  0.51100000000E-03 0. -1.
        -11    1    4    4    0    0  0.67183656542E+01  0.17085101131E+02 -0.92512638394E+01  0.20557796589E+02  0.51100000000E-03 0.  1.
         12    1    4    4    0    0 -0.56668949237E+00 -0.86356678064E+01 -0.12741273772E+02  0.15402465802E+02  0.00000000000E+00 0. -1.
</event>
<event>
 8    1  0.2509489E-006  0.9118800E+02  0.7816164E-02  0.1184000E+00
        -11   -1    0    0    0    0  0.00000000000E+00  0.00000000000E+00  0.45593999997E+02  0.45594000000E+02  0.51100000000E-03 0.  1.
         11   -1    0    0    0    0 -0.00000000000E+00 -0.00000000000E+00 -0.45593999997E+02  0.45594000000E+02  0.51100000000E-03 0. -1.
         23    2    1    2    0    0 -0.13322676296E-14  0.00000000000E+00  0.00000000000E+00  0.91188000000E+02  0.91188000000E+02 0.  0.
    9900012    2    3    3    0    0  0.32028948468E+01  0.16848914481E+02  0.32582770870E+02  0.54367062856E+02  0.39999951392E+02 0.  0.
         12    1    3    3    0    0 -0.32028948468E+01 -0.16848914481E+02 -0.32582770870E+02  0.36820937144E+02  0.00000000000E+00 0. -1.
         11    1    4    4    0    0  0.14133518623E+02 -0.32127329412E+01  0.17322474073E+02  0.22586414277E+02  0.51100000000E-03 0. -1.
        -11    1    4    4    0    0  0.20389721650E+01  0.28287569954E+01  0.84847222104E+01  0.91733191854E+01  0.51100000000E-03 0.  1.
         12    1    4    4    0    0 -0.12969595941E+02  0.17232890427E+02  0.67755745870E+01  0.22607329394E+02  0.00000000000E+00 0. -1.
</event>
<event>
 8    1  0.2509489E-006  0.9118800E+02  0.7816164E-02  0.1184000E+00
        -11   -1    0    0    0    0  0.00000000000E+00  0.00000000000E+00  0.45593999997E+02  0.45594000000E+02  0.51100000000E-03 0.  1.
         11   -1    0    0    0    0 -0.00000000000E+00 -0.00000000000E+00 -0.45593999997E+02  0.45594000000E+02  0.51100000000E-03 0. -1.
         23    2    1    2    0    0  0.00000000000E+00  0.00000000000E+00  0.71054273576E-14  0.91188000000E+02  0.91188000000E+02 0.  0.
    9900012    2    3    3    0    0 -0.22583090216E+02  0.86438075172E+01 -0.27768119640E+02  0.54367084199E+02  0.40000000048E+02 0.  0.
        -12    1    3    3    0    0  0.22583090216E+02 -0.86438075172E+01  0.27768119640E+02  0.36820915801E+02  0.00000000000E+00 0.  1.
         11    1    4    4    0    0 -0.12590770757E+02 -0.49035074652E+01 -0.31308482273E+01  0.13869899228E+02  0.51100000000E-03 0.  1.
        -11    1    4    4    0    0  0.57112758833E+01  0.15263707260E+02 -0.13597497469E+02  0.21224781959E+02  0.51100000000E-03 0. -1.
         12    1    4    4    0    0 -0.15703595342E+02 -0.17163922771E+01 -0.11039773943E+02  0.19272403012E+02  0.00000000000E+00 0. -1.
</event>
<event>
 8    1  0.2509489E-006  0.9118800E+02  0.7816164E-02  0.1184000E+00
        -11   -1    0    0    0    0  0.00000000000E+00  0.00000000000E+00  0.45593999997E+02  0.45594000000E+02  0.51100000000E-03 0. -1.
         11   -1    0    0    0    0 -0.00000000000E+00 -0.00000000000E+00 -0.45593999997E+02  0.45594000000E+02  0.51100000000E-03 0.  1.
         23    2    1    2    0    0  0.17763568394E-14  0.35527136788E-14  0.71054273576E-14  0.91188000000E+02  0.91188000000E+02 0.  0.
    9900012    2    3    3    0    0 -0.14527134155E+02 -0.16373633705E+02 -0.29608212154E+02  0.54367085639E+02  0.40000003330E+02 0.  0.
        -12    1    3    3    0    0  0.14527134155E+02  0.16373633705E+02  0.29608212154E+02  0.36820914361E+02  0.00000000000E+00 0.  1.
         11    1    4    4    0    0 -0.76812924903E+01  0.77877528746E+01 -0.11973560576E+02  0.16217814350E+02  0.51100000000E-03 0. -1.
        -11    1    4    4    0    0 -0.13926121309E+02 -0.20828146601E+02 -0.17041489790E+02  0.30301170276E+02  0.51100000000E-03 0.  1.
         12    1    4    4    0    0  0.70802796447E+01 -0.33332399778E+01 -0.59316178813E+00  0.78481010126E+01  0.00000000000E+00 0. -1.
</event>
<event>
 8    1  0.2509489E-006  0.9118800E+02  0.7816164E-02  0.1184000E+00
        -11   -1    0    0    0    0  0.00000000000E+00  0.00000000000E+00  0.45593999997E+02  0.45594000000E+02  0.51100000000E-03 0.  1.
         11   -1    0    0    0    0 -0.00000000000E+00 -0.00000000000E+00 -0.45593999997E+02  0.45594000000E+02  0.51100000000E-03 0. -1.
         23    2    1    2    0    0  0.00000000000E+00  0.00000000000E+00  0.00000000000E+00  0.91188000000E+02  0.91188000000E+02 0.  0.
    9900012    2    3    3    0    0  0.17917479017E+02 -0.30805253061E+02  0.92617276142E+01  0.54367091960E+02  0.40000017741E+02 0.  0.
        -12    1    3    3    0    0 -0.17917479017E+02  0.30805253061E+02 -0.92617276142E+01  0.36820908040E+02  0.00000000000E+00 0.  1.
         11    1    4    4    0    0  0.17014671324E+02 -0.20390300221E+02  0.79896177845E+01  0.27732604925E+02  0.51100000000E-03 0. -1.
        -11    1    4    4    0    0  0.12030745058E+02 -0.31448295032E+01 -0.27727520527E+01  0.12740366300E+02  0.51100000000E-03 0.  1.
         12    1    4    4    0    0 -0.11127937364E+02 -0.72701233374E+01  0.40448618824E+01  0.13894120734E+02  0.00000000000E+00 0. -1.
</event>
<event>
 8    1  0.2509489E-006  0.9118800E+02  0.7816164E-02  0.1184000E+00
        -11   -1    0    0    0    0  0.00000000000E+00  0.00000000000E+00  0.45593999997E+02  0.45594000000E+02  0.51100000000E-03 0. -1.
         11   -1    0    0    0    0 -0.00000000000E+00 -0.00000000000E+00 -0.45593999997E+02  0.45594000000E+02  0.51100000000E-03 0.  1.
         23    2    1    2    0    0 -0.27686186677E-14 -0.71054273576E-14  0.88817841970E-15  0.91188000000E+02  0.91188000000E+02 0.  0.
    9900012    2    3    3    0    0 -0.46673549347E-01 -0.36478397769E+02 -0.50104433282E+01  0.54367078983E+02  0.39999988157E+02 0.  0.
         12    1    3    3    0    0  0.46673549347E-01  0.36478397769E+02  0.50104433282E+01  0.36820921017E+02  0.00000000000E+00 0. -1.
         11    1    4    4    0    0  0.39046718885E+00 -0.18407612689E+02  0.39831001428E+01  0.18837668554E+02  0.51100000000E-03 0. -1.
        -11    1    4    4    0    0 -0.85994918133E+01 -0.14703333830E+01  0.69139265596E+01  0.11131734835E+02  0.51100000000E-03 0.  1.
        -12    1    4    4    0    0  0.81623510751E+01 -0.16600451697E+02 -0.15907470031E+02  0.24397675594E+02  0.00000000000E+00 0.  1.
</event>
<event>
 8    1  0.2509489E-006  0.9118800E+02  0.7816164E-02  0.1184000E+00
        -11   -1    0    0    0    0  0.00000000000E+00  0.00000000000E+00  0.45593999997E+02  0.45594000000E+02  0.51100000000E-03 0. -1.
         11   -1    0    0    0    0 -0.00000000000E+00 -0.00000000000E+00 -0.45593999997E+02  0.45594000000E+02  0.51100000000E-03 0.  1.
         23    2    1    2    0    0  0.00000000000E+00 -0.88817841970E-15  0.00000000000E+00  0.91188000000E+02  0.91188000000E+02 0.  0.
    9900012    2    3    3    0    0  0.16496147984E+02 -0.78900853274E+01 -0.31959408265E+02  0.54367080383E+02  0.39999991350E+02 0.  0.
         12    1    3    3    0    0 -0.16496147984E+02  0.78900853274E+01  0.31959408265E+02  0.36820919617E+02  0.00000000000E+00 0. -1.
         11    1    4    4    0    0 -0.47306191601E+01 -0.78656299091E+01 -0.25098760279E+02  0.26724420655E+02  0.51100000000E-03 0. -1.
        -11    1    4    4    0    0  0.46476127564E+01 -0.70112354102E+01 -0.43721789748E+01  0.94801727600E+01  0.51100000000E-03 0.  1.
         12    1    4    4    0    0  0.16579154388E+02  0.69867799920E+01 -0.24884690109E+01  0.18162486969E+02  0.00000000000E+00 0. -1.
</event>
<event>
 8    1  0.2509489E-006  0.9118800E+02  0.7816164E-02  0.1184000E+00
        -11   -1    0    0    0    0  0.00000000000E+00  0.00000000000E+00  0.45593999997E+02  0.45594000000E+02  0.51100000000E-03 0. -1.
         11   -1    0    0    0    0 -0.00000000000E+00 -0.00000000000E+00 -0.45593999997E+02  0.45594000000E+02  0.51100000000E-03 0.  1.
         23    2    1    2    0    0  0.00000000000E+00  0.00000000000E+00  0.35527136788E-14  0.91188000000E+02  0.91188000000E+02 0.  0.
    9900012    2    3    3    0    0  0.26662256302E+02  0.17537091533E+02 -0.18367182980E+02  0.54367096954E+02  0.40000029125E+02 0.  0.
         12    1    3    3    0    0 -0.26662256302E+02 -0.17537091533E+02  0.18367182980E+02  0.36820903046E+02  0.00000000000E+00 0. -1.
         11    1    4    4    0    0 -0.86291302056E+01  0.76110567413E+01 -0.52255878737E+01  0.12637121575E+02  0.51100000000E-03 0. -1.
        -11    1    4    4    0    0  0.20505888804E+02  0.25318015205E+01 -0.80799569149E-01  0.20661752671E+02  0.51100000000E-03 0.  1.
         12    1    4    4    0    0  0.14785497703E+02  0.73942332710E+01 -0.13060795537E+02  0.21068222708E+02  0.00000000000E+00 0. -1.
</event>
<event>
 8    1  0.2509489E-006  0.9118800E+02  0.7816164E-02  0.1184000E+00
        -11   -1    0    0    0    0  0.00000000000E+00  0.00000000000E+00  0.45593999997E+02  0.45594000000E+02  0.51100000000E-03 0.  1.
         11   -1    0    0    0    0 -0.00000000000E+00 -0.00000000000E+00 -0.45593999997E+02  0.45594000000E+02  0.51100000000E-03 0. -1.
         23    2    1    2    0    0 -0.35527136788E-14  0.00000000000E+00 -0.35527136788E-14  0.91188000000E+02  0.91188000000E+02 0.  0.
    9900012    2    3    3    0    0 -0.18962851044E+02  0.27155371238E+02 -0.16086562942E+02  0.54367062830E+02  0.39999951333E+02 0.  0.
        -12    1    3    3    0    0  0.18962851044E+02 -0.27155371238E+02  0.16086562942E+02  0.36820937170E+02  0.00000000000E+00 0.  1.
         11    1    4    4    0    0 -0.71697787208E+00  0.22589067895E+02 -0.18419850445E+02  0.29155975997E+02  0.51100000000E-03 0. -1.
        -11    1    4    4    0    0  0.30403440450E+01  0.79922757488E+00  0.17244071641E+01  0.35855316143E+01  0.51100000000E-03 0.  1.
         12    1    4    4    0    0 -0.21286217217E+02  0.37670757677E+01  0.60888033886E+00  0.21625555219E+02  0.00000000000E+00 0. -1.
</event>
<event>
 8    1  0.2509489E-006  0.9118800E+02  0.7816164E-02  0.1184000E+00
        -11   -1    0    0    0    0  0.00000000000E+00  0.00000000000E+00  0.45593999997E+02  0.45594000000E+02  0.51100000000E-03 0. -1.
         11   -1    0    0    0    0 -0.00000000000E+00 -0.00000000000E+00 -0.45593999997E+02  0.45594000000E+02  0.51100000000E-03 0.  1.
         23    2    1    2    0    0 -0.71054273576E-14  0.44408920985E-15  0.35527136788E-14  0.91188000000E+02  0.91188000000E+02 0.  0.
    9900012    2    3    3    0    0  0.32170247491E+02 -0.33923738426E+01 -0.17588302255E+02  0.54367063019E+02  0.39999951764E+02 0.  0.
         12    1    3    3    0    0 -0.32170247491E+02  0.33923738426E+01  0.17588302255E+02  0.36820936981E+02  0.00000000000E+00 0. -1.
         11    1    4    4    0    0  0.13584351372E+01 -0.34420081751E+01 -0.20826655346E+01  0.42462056344E+01  0.51100000000E-03 0. -1.
        -11    1    4    4    0    0  0.16602188711E+02 -0.41974771456E+01 -0.26574997766E+02  0.31614585098E+02  0.51100000000E-03 0.  1.
        -12    1    4    4    0    0  0.14209623643E+02  0.42471114782E+01  0.11069361045E+02  0.18506272286E+02  0.00000000000E+00 0.  1.
</event>
<event>
 8    1  0.2509489E-006  0.9118800E+02  0.7816164E-02  0.1184000E+00
        -11   -1    0    0    0    0  0.00000000000E+00  0.00000000000E+00  0.45593999997E+02  0.45594000000E+02  0.51100000000E-03 0. -1.
         11   -1    0    0    0    0 -0.00000000000E+00 -0.00000000000E+00 -0.45593999997E+02  0.45594000000E+02  0.51100000000E-03 0.  1.
         23    2    1    2    0    0  0.00000000000E+00  0.00000000000E+00 -0.88817841970E-15  0.91188000000E+02  0.91188000000E+02 0.  0.
    9900012    2    3    3    0    0 -0.35034387477E+02  0.87450955443E+01  0.72042706390E+01  0.54366993531E+02  0.39999793353E+02 0.  0.
        -12    1    3    3    0    0  0.35034387477E+02 -0.87450955443E+01 -0.72042706390E+01  0.36821006469E+02  0.00000000000E+00 0.  1.
         11    1    4    4    0    0  0.92316377987E+00 -0.48456749037E+01  0.10191499933E+02  0.11322520382E+02  0.51100000000E-03 0. -1.
        -11    1    4    4    0    0 -0.28993199090E+02  0.18333627347E+01 -0.40772467935E+01  0.29335827141E+02  0.51100000000E-03 0.  1.
         12    1    4    4    0    0 -0.69643521665E+01  0.11757407713E+02  0.10900174992E+01  0.13708646008E+02  0.00000000000E+00 0. -1.
</event>
<event>
 8    1  0.2509489E-006  0.9118800E+02  0.7816164E-02  0.1184000E+00
        -11   -1    0    0    0    0  0.00000000000E+00  0.00000000000E+00  0.45593999997E+02  0.45594000000E+02  0.51100000000E-03 0.  1.
         11   -1    0    0    0    0 -0.00000000000E+00 -0.00000000000E+00 -0.45593999997E+02  0.45594000000E+02  0.51100000000E-03 0. -1.
         23    2    1    2    0    0  0.00000000000E+00 -0.17763568394E-14  0.00000000000E+00  0.91188000000E+02  0.91188000000E+02 0.  0.
    9900012    2    3    3    0    0 -0.90654460066E+01  0.12118644908E+02  0.33566765466E+02  0.54367195968E+02  0.40000254847E+02 0.  0.
         12    1    3    3    0    0  0.90654460066E+01 -0.12118644908E+02 -0.33566765466E+02  0.36820804032E+02  0.00000000000E+00 0. -1.
         11    1    4    4    0    0 -0.67312504803E+00 -0.45312671415E+01 -0.76890636612E+00  0.46450722813E+01  0.51100000000E-03 0. -1.
        -11    1    4    4    0    0  0.49650421052E+00 -0.78028757897E+01  0.16257188702E+02  0.18039611187E+02  0.51100000000E-03 0.  1.
        -12    1    4    4    0    0 -0.88888251691E+01  0.24452787839E+02  0.18078483130E+02  0.31682512500E+02  0.00000000000E+00 0.  1.
</event>
<event>
 8    1  0.2509489E-006  0.9118800E+02  0.7816164E-02  0.1184000E+00
        -11   -1    0    0    0    0  0.00000000000E+00  0.00000000000E+00  0.45593999997E+02  0.45594000000E+02  0.51100000000E-03 0.  1.
         11   -1    0    0    0    0 -0.00000000000E+00 -0.00000000000E+00 -0.45593999997E+02  0.45594000000E+02  0.51100000000E-03 0. -1.
         23    2    1    2    0    0 -0.35527136788E-14  0.00000000000E+00  0.00000000000E+00  0.91188000000E+02  0.91188000000E+02 0.  0.
    9900012    2    3    3    0    0 -0.29556069534E+02  0.12028730629E+02 -0.18371964783E+02  0.54367072570E+02  0.39999973537E+02 0.  0.
        -12    1    3    3    0    0  0.29556069534E+02 -0.12028730629E+02  0.18371964783E+02  0.36820927430E+02  0.00000000000E+00 0.  1.
         11    1    4    4    0    0  0.43677244509E+01  0.87412862938E+01 -0.12959229242E+02  0.16230487539E+02  0.51100000000E-03 0. -1.
        -11    1    4    4    0    0 -0.17526279077E+02 -0.29366500343E+01  0.40232866086E+01  0.18220351454E+02  0.51100000000E-03 0.  1.
         12    1    4    4    0    0 -0.16397514907E+02  0.62240943695E+01 -0.94360221495E+01  0.19916233576E+02  0.00000000000E+00 0. -1.
</event>
<event>
 8    1  0.2509489E-006  0.9118800E+02  0.7816164E-02  0.1184000E+00
        -11   -1    0    0    0    0  0.00000000000E+00  0.00000000000E+00  0.45593999997E+02  0.45594000000E+02  0.51100000000E-03 0. -1.
         11   -1    0    0    0    0 -0.00000000000E+00 -0.00000000000E+00 -0.45593999997E+02  0.45594000000E+02  0.51100000000E-03 0.  1.
         23    2    1    2    0    0 -0.13322676296E-14  0.00000000000E+00  0.00000000000E+00  0.91188000000E+02  0.91188000000E+02 0.  0.
    9900012    2    3    3    0    0  0.31483435205E+00 -0.36015682034E+02 -0.76511694464E+01  0.54367233211E+02  0.40000339750E+02 0.  0.
         12    1    3    3    0    0 -0.31483435205E+00  0.36015682034E+02  0.76511694464E+01  0.36820766789E+02  0.00000000000E+00 0. -1.
         11    1    4    4    0    0  0.19345261513E+02 -0.10975134821E+02 -0.50051006738E+01  0.22797889384E+02  0.51100000000E-03 0. -1.
        -11    1    4    4    0    0 -0.15098770617E+02 -0.20271740284E+02 -0.20317474610E+01  0.25358318680E+02  0.51100000000E-03 0.  1.
         12    1    4    4    0    0 -0.39316565444E+01 -0.47688069283E+01 -0.61432131153E+00  0.62110251470E+01  0.00000000000E+00 0. -1.
</event>
<event>
 8    1  0.2509489E-006  0.9118800E+02  0.7816164E-02  0.1184000E+00
        -11   -1    0    0    0    0  0.00000000000E+00  0.00000000000E+00  0.45593999997E+02  0.45594000000E+02  0.51100000000E-03 0.  1.
         11   -1    0    0    0    0 -0.00000000000E+00 -0.00000000000E+00 -0.45593999997E+02  0.45594000000E+02  0.51100000000E-03 0. -1.
         23    2    1    2    0    0  0.22204460493E-15  0.00000000000E+00 -0.35527136788E-14  0.91188000000E+02  0.91188000000E+02 0.  0.
    9900012    2    3    3    0    0 -0.19423273937E+01  0.29266839422E+02 -0.22258898227E+02  0.54367094583E+02  0.40000023721E+02 0.  0.
        -12    1    3    3    0    0  0.19423273937E+01 -0.29266839422E+02  0.22258898227E+02  0.36820905417E+02  0.00000000000E+00 0.  1.
         11    1    4    4    0    0 -0.72540539444E+01  0.67414965865E+01 -0.56485838144E+01  0.11400683060E+02  0.51100000000E-03 0. -1.
        -11    1    4    4    0    0 -0.13995809248E+01  0.15821970804E+02 -0.25450318379E+02  0.30000204879E+02  0.51100000000E-03 0.  1.
        -12    1    4    4    0    0  0.67113074755E+01  0.67033720315E+01  0.88400039671E+01  0.12966206645E+02  0.00000000000E+00 0.  1.
</event>
<event>
 8    1  0.2509489E-006  0.9118800E+02  0.7816164E-02  0.1184000E+00
        -11   -1    0    0    0    0  0.00000000000E+00  0.00000000000E+00  0.45593999997E+02  0.45594000000E+02  0.51100000000E-03 0. -1.
         11   -1    0    0    0    0 -0.00000000000E+00 -0.00000000000E+00 -0.45593999997E+02  0.45594000000E+02  0.51100000000E-03 0.  1.
         23    2    1    2    0    0  0.61062266354E-15 -0.35527136788E-14  0.00000000000E+00  0.91188000000E+02  0.91188000000E+02 0.  0.
    9900012    2    3    3    0    0  0.18587346121E+00 -0.12256871785E+02 -0.34720622110E+02  0.54366986236E+02  0.39999776722E+02 0.  0.
         12    1    3    3    0    0 -0.18587346121E+00  0.12256871785E+02  0.34720622110E+02  0.36821013764E+02  0.00000000000E+00 0. -1.
         11    1    4    4    0    0  0.62635907041E+01 -0.20111815922E+01  0.32649894052E+01  0.73442205838E+01  0.51100000000E-03 0. -1.
        -11    1    4    4    0    0 -0.68100500879E+01  0.61643815837E+01 -0.57326280909E+01  0.10827714791E+02  0.51100000000E-03 0.  1.
        -12    1    4    4    0    0  0.73233284496E+00 -0.16410071777E+02 -0.32252983424E+02  0.36195050861E+02  0.00000000000E+00 0.  1.
</event>
<event>
 8    1  0.2509489E-006  0.9118800E+02  0.7816164E-02  0.1184000E+00
        -11   -1    0    0    0    0  0.00000000000E+00  0.00000000000E+00  0.45593999997E+02  0.45594000000E+02  0.51100000000E-03 0.  1.
         11   -1    0    0    0    0 -0.00000000000E+00 -0.00000000000E+00 -0.45593999997E+02  0.45594000000E+02  0.51100000000E-03 0. -1.
         23    2    1    2    0    0 -0.17763568394E-14  0.00000000000E+00  0.00000000000E+00  0.91188000000E+02  0.91188000000E+02 0.  0.
    9900012    2    3    3    0    0 -0.12051519592E+02  0.32393263604E+02  0.12697152538E+02  0.54367077497E+02  0.39999984770E+02 0.  0.
         12    1    3    3    0    0  0.12051519592E+02 -0.32393263604E+02 -0.12697152538E+02  0.36820922503E+02  0.00000000000E+00 0. -1.
         11    1    4    4    0    0 -0.16447681151E+01  0.26569762851E+02 -0.76302606113E+01  0.27692570075E+02  0.51100000000E-03 0. -1.
        -11    1    4    4    0    0 -0.22043501781E+01  0.80470901835E+01  0.71171118316E+01  0.10966681413E+02  0.51100000000E-03 0.  1.
         12    1    4    4    0    0 -0.82024012987E+01 -0.22235894302E+01  0.13210301318E+02  0.15707826009E+02  0.00000000000E+00 0. -1.
</event>
<event>
 8    1  0.2509489E-006  0.9118800E+02  0.7816164E-02  0.1184000E+00
        -11   -1    0    0    0    0  0.00000000000E+00  0.00000000000E+00  0.45593999997E+02  0.45594000000E+02  0.51100000000E-03 0.  1.
         11   -1    0    0    0    0 -0.00000000000E+00 -0.00000000000E+00 -0.45593999997E+02  0.45594000000E+02  0.51100000000E-03 0. -1.
         23    2    1    2    0    0  0.00000000000E+00  0.35527136788E-14  0.00000000000E+00  0.91188000000E+02  0.91188000000E+02 0.  0.
    9900012    2    3    3    0    0 -0.53533513870E+01 -0.17402004191E+02  0.32004565735E+02  0.54367077295E+02  0.39999984310E+02 0.  0.
         12    1    3    3    0    0  0.53533513870E+01  0.17402004191E+02 -0.32004565735E+02  0.36820922705E+02  0.00000000000E+00 0. -1.
         11    1    4    4    0    0 -0.17398051340E+02  0.23949488798E+01  0.70016529420E+01  0.18906377621E+02  0.51100000000E-03 0. -1.
        -11    1    4    4    0    0  0.40859726875E+01 -0.27664938793E+01  0.10885126574E+02  0.11951344777E+02  0.51100000000E-03 0.  1.
         12    1    4    4    0    0  0.79587272653E+01 -0.17030459192E+02  0.14117786219E+02  0.23509354897E+02  0.00000000000E+00 0. -1.
</event>
<event>
 8    1  0.2509489E-006  0.9118800E+02  0.7816164E-02  0.1184000E+00
        -11   -1    0    0    0    0  0.00000000000E+00  0.00000000000E+00  0.45593999997E+02  0.45594000000E+02  0.51100000000E-03 0. -1.
         11   -1    0    0    0    0 -0.00000000000E+00 -0.00000000000E+00 -0.45593999997E+02  0.45594000000E+02  0.51100000000E-03 0.  1.
         23    2    1    2    0    0  0.71054273576E-14  0.17763568394E-14  0.00000000000E+00  0.91188000000E+02  0.91188000000E+02 0.  0.
    9900012    2    3    3    0    0 -0.34554021699E+02 -0.12335085334E+02 -0.31049932055E+01  0.54367140035E+02  0.40000127338E+02 0.  0.
         12    1    3    3    0    0  0.34554021699E+02  0.12335085334E+02  0.31049932055E+01  0.36820859965E+02  0.00000000000E+00 0. -1.
         11    1    4    4    0    0  0.28752907454E+01 -0.51593655036E+01 -0.14351198233E+01  0.60783154277E+01  0.51100000000E-03 0. -1.
        -11    1    4    4    0    0 -0.93950212812E+00 -0.99497642640E+01 -0.56456145160E+01  0.11478389986E+02  0.51100000000E-03 0.  1.
         12    1    4    4    0    0 -0.36489810316E+02  0.27740444333E+01  0.39757411338E+01  0.36810434621E+02  0.00000000000E+00 0. -1.
</event>
<event>
 8    1  0.2509489E-006  0.9118800E+02  0.7816164E-02  0.1184000E+00
        -11   -1    0    0    0    0  0.00000000000E+00  0.00000000000E+00  0.45593999997E+02  0.45594000000E+02  0.51100000000E-03 0. -1.
         11   -1    0    0    0    0 -0.00000000000E+00 -0.00000000000E+00 -0.45593999997E+02  0.45594000000E+02  0.51100000000E-03 0.  1.
         23    2    1    2    0    0  0.00000000000E+00  0.00000000000E+00 -0.35527136788E-14  0.91188000000E+02  0.91188000000E+02 0.  0.
    9900012    2    3    3    0    0 -0.15432169348E+02  0.26307437891E+02 -0.20628788096E+02  0.54367081523E+02  0.39999993948E+02 0.  0.
         12    1    3    3    0    0  0.15432169348E+02 -0.26307437891E+02  0.20628788096E+02  0.36820918477E+02  0.00000000000E+00 0. -1.
         11    1    4    4    0    0 -0.93358024602E+01  0.20032627725E+02 -0.83463402490E-01  0.22101365287E+02  0.51100000000E-03 0. -1.
        -11    1    4    4    0    0 -0.11108971713E+02  0.12221652834E+02 -0.17053391904E+02  0.23740181680E+02  0.51100000000E-03 0.  1.
         12    1    4    4    0    0  0.50126048254E+01 -0.59468426681E+01 -0.34919327894E+01  0.85255345557E+01  0.00000000000E+00 0. -1.
</event>
<event>
 8    1  0.2509489E-006  0.9118800E+02  0.7816164E-02  0.1184000E+00
        -11   -1    0    0    0    0  0.00000000000E+00  0.00000000000E+00  0.45593999997E+02  0.45594000000E+02  0.51100000000E-03 0. -1.
         11   -1    0    0    0    0 -0.00000000000E+00 -0.00000000000E+00 -0.45593999997E+02  0.45594000000E+02  0.51100000000E-03 0.  1.
         23    2    1    2    0    0  0.17763568394E-14  0.00000000000E+00  0.00000000000E+00  0.91188000000E+02  0.91188000000E+02 0.  0.
    9900012    2    3    3    0    0  0.14676418638E+02 -0.10058306175E+02  0.32236825113E+02  0.54367086370E+02  0.40000004999E+02 0.  0.
        -12    1    3    3    0    0 -0.14676418638E+02  0.10058306175E+02 -0.32236825113E+02  0.36820913630E+02  0.00000000000E+00 0.  1.
         11    1    4    4    0    0 -0.95289353000E+01 -0.60768995144E+01  0.37009895777E+01  0.11892293293E+02  0.51100000000E-03 0.  1.
        -11    1    4    4    0    0  0.19035335212E+02  0.65245047686E+00  0.29849841568E+02  0.35408794390E+02  0.51100000000E-03 0. -1.
         12    1    4    4    0    0  0.51700187255E+01 -0.46338571370E+01 -0.13140060327E+01  0.70659986868E+01  0.00000000000E+00 0. -1.
</event>
<event>
 8    1  0.2509489E-006  0.9118800E+02  0.7816164E-02  0.1184000E+00
        -11   -1    0    0    0    0  0.00000000000E+00  0.00000000000E+00  0.45593999997E+02  0.45594000000E+02  0.51100000000E-03 0. -1.
         11   -1    0    0    0    0 -0.00000000000E+00 -0.00000000000E+00 -0.45593999997E+02  0.45594000000E+02  0.51100000000E-03 0.  1.
         23    2    1    2    0    0 -0.22204460493E-15  0.35527136788E-14  0.00000000000E+00  0.91188000000E+02  0.91188000000E+02 0.  0.
    9900012    2    3    3    0    0  0.15925087305E+01 -0.25315284786E+02 -0.26690339153E+02  0.54367164432E+02  0.40000182955E+02 0.  0.
         12    1    3    3    0    0 -0.15925087305E+01  0.25315284786E+02  0.26690339153E+02  0.36820835568E+02  0.00000000000E+00 0. -1.
         11    1    4    4    0    0  0.28095956292E+01 -0.12249296368E+01 -0.80950091284E+00  0.31701060240E+01  0.51100000000E-03 0. -1.
        -11    1    4    4    0    0 -0.10532728249E+01 -0.32993113085E+02 -0.12867994654E+02  0.35429368910E+02  0.51100000000E-03 0.  1.
        -12    1    4    4    0    0 -0.16381407386E+00  0.89027579357E+01 -0.13012843586E+02  0.15767689498E+02  0.00000000000E+00 0.  1.
</event>
<event>
 8    1  0.2509489E-006  0.9118800E+02  0.7816164E-02  0.1184000E+00
        -11   -1    0    0    0    0  0.00000000000E+00  0.00000000000E+00  0.45593999997E+02  0.45594000000E+02  0.51100000000E-03 0.  1.
         11   -1    0    0    0    0 -0.00000000000E+00 -0.00000000000E+00 -0.45593999997E+02  0.45594000000E+02  0.51100000000E-03 0. -1.
         23    2    1    2    0    0  0.00000000000E+00  0.00000000000E+00 -0.71054273576E-14  0.91188000000E+02  0.91188000000E+02 0.  0.
    9900012    2    3    3    0    0 -0.91816025426E+01 -0.19744440293E+02  0.29692353818E+02  0.54367073572E+02  0.39999975822E+02 0.  0.
         12    1    3    3    0    0  0.91816025426E+01  0.19744440293E+02 -0.29692353818E+02  0.36820926428E+02  0.00000000000E+00 0. -1.
         11    1    4    4    0    0 -0.26442607402E+01  0.34797393178E+01  0.85241266676E+01  0.95792189811E+01  0.51100000000E-03 0. -1.
        -11    1    4    4    0    0 -0.10579088015E+02 -0.14499449840E+02 -0.35224477064E+01  0.18290948226E+02  0.51100000000E-03 0.  1.
        -12    1    4    4    0    0  0.40417462130E+01 -0.87247297716E+01  0.24690674857E+02  0.26496906365E+02  0.00000000000E+00 0.  1.
</event>
<event>
 8    1  0.2509489E-006  0.9118800E+02  0.7816164E-02  0.1184000E+00
        -11   -1    0    0    0    0  0.00000000000E+00  0.00000000000E+00  0.45593999997E+02  0.45594000000E+02  0.51100000000E-03 0.  1.
         11   -1    0    0    0    0 -0.00000000000E+00 -0.00000000000E+00 -0.45593999997E+02  0.45594000000E+02  0.51100000000E-03 0. -1.
         23    2    1    2    0    0 -0.88817841970E-15  0.00000000000E+00  0.00000000000E+00  0.91188000000E+02  0.91188000000E+02 0.  0.
    9900012    2    3    3    0    0  0.27444422595E+01  0.18205400463E+02 -0.31887476434E+02  0.54367085798E+02  0.40000003695E+02 0.  0.
        -12    1    3    3    0    0 -0.27444422595E+01 -0.18205400463E+02  0.31887476434E+02  0.36820914202E+02  0.00000000000E+00 0.  1.
         11    1    4    4    0    0 -0.12396224371E+02  0.67823243624E+00 -0.20655930801E+02  0.24099665048E+02  0.51100000000E-03 0. -1.
        -11    1    4    4    0    0  0.29840197020E+01 -0.30114056733E+01 -0.17432188278E+01  0.45838575299E+01  0.51100000000E-03 0.  1.
         12    1    4    4    0    0  0.12156646928E+02  0.20538573700E+02 -0.94883268051E+01  0.25683563221E+02  0.00000000000E+00 0. -1.
</event>
<event>
 8    1  0.2509489E-006  0.9118800E+02  0.7816164E-02  0.1184000E+00
        -11   -1    0    0    0    0  0.00000000000E+00  0.00000000000E+00  0.45593999997E+02  0.45594000000E+02  0.51100000000E-03 0.  1.
         11   -1    0    0    0    0 -0.00000000000E+00 -0.00000000000E+00 -0.45593999997E+02  0.45594000000E+02  0.51100000000E-03 0. -1.
         23    2    1    2    0    0 -0.35527136788E-14  0.00000000000E+00 -0.53290705182E-14  0.91188000000E+02  0.91188000000E+02 0.  0.
    9900012    2    3    3    0    0 -0.27785810899E+02 -0.19180784993E+02 -0.14691072893E+02  0.54367062708E+02  0.39999951056E+02 0.  0.
        -12    1    3    3    0    0  0.27785810899E+02  0.19180784993E+02  0.14691072893E+02  0.36820937292E+02  0.00000000000E+00 0.  1.
         11    1    4    4    0    0 -0.30167937958E+01 -0.61994133605E+01  0.73998214597E+01  0.10113907688E+02  0.51100000000E-03 0. -1.
        -11    1    4    4    0    0 -0.10583758873E+02 -0.16361119322E+02 -0.22290855956E+01  0.19613031388E+02  0.51100000000E-03 0.  1.
         12    1    4    4    0    0 -0.14185258231E+02  0.33797476898E+01 -0.19861808757E+02  0.24640123633E+02  0.00000000000E+00 0. -1.
</event>
<event>
 8    1  0.2509489E-006  0.9118800E+02  0.7816164E-02  0.1184000E+00
        -11   -1    0    0    0    0  0.00000000000E+00  0.00000000000E+00  0.45593999997E+02  0.45594000000E+02  0.51100000000E-03 0.  1.
         11   -1    0    0    0    0 -0.00000000000E+00 -0.00000000000E+00 -0.45593999997E+02  0.45594000000E+02  0.51100000000E-03 0. -1.
         23    2    1    2    0    0  0.00000000000E+00 -0.17763568394E-14  0.71054273576E-14  0.91188000000E+02  0.91188000000E+02 0.  0.
    9900012    2    3    3    0    0 -0.99595231016E+01 -0.10084225195E+02  0.33983769503E+02  0.54367078123E+02  0.39999986198E+02 0.  0.
         12    1    3    3    0    0  0.99595231016E+01  0.10084225195E+02 -0.33983769503E+02  0.36820921877E+02  0.00000000000E+00 0. -1.
         11    1    4    4    0    0 -0.15696112294E+02  0.15508005465E+01  0.20186682363E+02  0.25617866198E+02  0.51100000000E-03 0. -1.
        -11    1    4    4    0    0  0.16763253121E+01 -0.16297756605E+02  0.35230102766E+01  0.16758237932E+02  0.51100000000E-03 0.  1.
        -12    1    4    4    0    0  0.40602638801E+01  0.46627308641E+01  0.10274076864E+02  0.11990973993E+02  0.00000000000E+00 0.  1.
</event>
<event>
 8    1  0.2509489E-006  0.9118800E+02  0.7816164E-02  0.1184000E+00
        -11   -1    0    0    0    0  0.00000000000E+00  0.00000000000E+00  0.45593999997E+02  0.45594000000E+02  0.51100000000E-03 0.  1.
         11   -1    0    0    0    0 -0.00000000000E+00 -0.00000000000E+00 -0.45593999997E+02  0.45594000000E+02  0.51100000000E-03 0. -1.
         23    2    1    2    0    0  0.00000000000E+00  0.00000000000E+00  0.35527136788E-14  0.91188000000E+02  0.91188000000E+02 0.  0.
    9900012    2    3    3    0    0 -0.22995150408E+02  0.96198240052E+01 -0.27100958797E+02  0.54367083065E+02  0.39999997464E+02 0.  0.
        -12    1    3    3    0    0  0.22995150408E+02 -0.96198240052E+01  0.27100958797E+02  0.36820916935E+02  0.00000000000E+00 0.  1.
         11    1    4    4    0    0 -0.12425938107E+02  0.20792933577E+01 -0.26036391431E+02  0.28924402807E+02  0.51100000000E-03 0. -1.
        -11    1    4    4    0    0 -0.61964046150E+01  0.15296830554E+02 -0.10670982080E+01  0.16538656354E+02  0.51100000000E-03 0.  1.
         12    1    4    4    0    0 -0.43728076857E+01 -0.77562999063E+01  0.25308420177E-02  0.89040239048E+01  0.00000000000E+00 0. -1.
</event>
<event>
 8    1  0.2509489E-006  0.9118800E+02  0.7816164E-02  0.1184000E+00
        -11   -1    0    0    0    0  0.00000000000E+00  0.00000000000E+00  0.45593999997E+02  0.45594000000E+02  0.51100000000E-03 0.  1.
         11   -1    0    0    0    0 -0.00000000000E+00 -0.00000000000E+00 -0.45593999997E+02  0.45594000000E+02  0.51100000000E-03 0. -1.
         23    2    1    2    0    0  0.17763568394E-14 -0.35527136788E-14  0.00000000000E+00  0.91188000000E+02  0.91188000000E+02 0.  0.
    9900012    2    3    3    0    0  0.10273317036E+02  0.28439719518E+02  0.21010030534E+02  0.54367081052E+02  0.39999992873E+02 0.  0.
         12    1    3    3    0    0 -0.10273317036E+02 -0.28439719518E+02 -0.21010030534E+02  0.36820918948E+02  0.00000000000E+00 0. -1.
         11    1    4    4    0    0 -0.84498922752E+01 -0.20594630358E+01 -0.52619766093E+00  0.87131482082E+01  0.51100000000E-03 0. -1.
        -11    1    4    4    0    0  0.15112451647E+02  0.19122830695E+02  0.43950118772E+01  0.24766610148E+02  0.51100000000E-03 0.  1.
         12    1    4    4    0    0  0.36107576640E+01  0.11376351859E+02  0.17141216317E+02  0.20887322695E+02  0.00000000000E+00 0. -1.
</event>
<event>
 8    1  0.2509489E-006  0.9118800E+02  0.7816164E-02  0.1184000E+00
        -11   -1    0    0    0    0  0.00000000000E+00  0.00000000000E+00  0.45593999997E+02  0.45594000000E+02  0.51100000000E-03 0.  1.
         11   -1    0    0    0    0 -0.00000000000E+00 -0.00000000000E+00 -0.45593999997E+02  0.45594000000E+02  0.51100000000E-03 0. -1.
         23    2    1    2    0    0  0.00000000000E+00  0.00000000000E+00  0.13322676296E-14  0.91188000000E+02  0.91188000000E+02 0.  0.
    9900012    2    3    3    0    0 -0.14281138189E+02  0.33841191998E+02 -0.25694019748E+01  0.54367095471E+02  0.40000025745E+02 0.  0.
        -12    1    3    3    0    0  0.14281138189E+02 -0.33841191998E+02  0.25694019748E+01  0.36820904529E+02  0.00000000000E+00 0.  1.
         11    1    4    4    0    0 -0.11932779926E+02  0.74199517496E+01  0.13611023145E+02  0.19562895288E+02  0.51100000000E-03 0. -1.
        -11    1    4    4    0    0  0.28495836904E+01 -0.94163878711E-01 -0.45893225594E+01  0.54028581195E+01  0.51100000000E-03 0.  1.
         12    1    4    4    0    0 -0.51979419539E+01  0.26515404127E+02 -0.11591102561E+02  0.29401342064E+02  0.00000000000E+00 0. -1.
</event>
<event>
 8    1  0.2509489E-006  0.9118800E+02  0.7816164E-02  0.1184000E+00
        -11   -1    0    0    0    0  0.00000000000E+00  0.00000000000E+00  0.45593999997E+02  0.45594000000E+02  0.51100000000E-03 0.  1.
         11   -1    0    0    0    0 -0.00000000000E+00 -0.00000000000E+00 -0.45593999997E+02  0.45594000000E+02  0.51100000000E-03 0. -1.
         23    2    1    2    0    0 -0.35527136788E-14  0.00000000000E+00  0.71054273576E-14  0.91188000000E+02  0.91188000000E+02 0.  0.
    9900012    2    3    3    0    0 -0.26798184486E+02  0.58479320572E+01  0.24564985149E+02  0.54367088870E+02  0.40000010696E+02 0.  0.
         12    1    3    3    0    0  0.26798184486E+02 -0.58479320572E+01 -0.24564985149E+02  0.36820911130E+02  0.00000000000E+00 0. -1.
         11    1    4    4    0    0 -0.92858991617E+01 -0.11002400910E+02 -0.41669393567E+01  0.14988133069E+02  0.51100000000E-03 0. -1.
        -11    1    4    4    0    0 -0.67830809352E+01  0.89942536123E+01  0.53296690570E+01  0.12462429841E+02  0.51100000000E-03 0.  1.
         12    1    4    4    0    0 -0.10729204389E+02  0.78560793553E+01  0.23402255449E+02  0.26916525960E+02  0.00000000000E+00 0. -1.
</event>
<event>
 8    1  0.2509489E-006  0.9118800E+02  0.7816164E-02  0.1184000E+00
        -11   -1    0    0    0    0  0.00000000000E+00  0.00000000000E+00  0.45593999997E+02  0.45594000000E+02  0.51100000000E-03 0.  1.
         11   -1    0    0    0    0 -0.00000000000E+00 -0.00000000000E+00 -0.45593999997E+02  0.45594000000E+02  0.51100000000E-03 0. -1.
         23    2    1    2    0    0  0.71054273576E-14 -0.35527136788E-14  0.35527136788E-14  0.91188000000E+02  0.91188000000E+02 0.  0.
    9900012    2    3    3    0    0 -0.24078336705E+02  0.23671241105E+02 -0.14686246252E+02  0.54367084980E+02  0.40000001829E+02 0.  0.
        -12    1    3    3    0    0  0.24078336705E+02 -0.23671241105E+02  0.14686246252E+02  0.36820915020E+02  0.00000000000E+00 0.  1.
         11    1    4    4    0    0 -0.23037995905E+02  0.14130098927E+02 -0.63034724720E+01  0.27751445304E+02  0.51100000000E-03 0. -1.
        -11    1    4    4    0    0 -0.84758626096E+01  0.77759640190E+01  0.39033179883E+01  0.12146676705E+02  0.51100000000E-03 0.  1.
        -12    1    4    4    0    0  0.74355218095E+01  0.17651781592E+01 -0.12286091768E+02  0.14468962971E+02  0.00000000000E+00 0.  1.
</event>
<event>
 8    1  0.2509489E-006  0.9118800E+02  0.7816164E-02  0.1184000E+00
        -11   -1    0    0    0    0  0.00000000000E+00  0.00000000000E+00  0.45593999997E+02  0.45594000000E+02  0.51100000000E-03 0. -1.
         11   -1    0    0    0    0 -0.00000000000E+00 -0.00000000000E+00 -0.45593999997E+02  0.45594000000E+02  0.51100000000E-03 0.  1.
         23    2    1    2    0    0  0.88817841970E-15  0.00000000000E+00  0.00000000000E+00  0.91188000000E+02  0.91188000000E+02 0.  0.
    9900012    2    3    3    0    0  0.66569635600E+01  0.26030621051E+02  0.25176826614E+02  0.54367068528E+02  0.39999964323E+02 0.  0.
        -12    1    3    3    0    0 -0.66569635600E+01 -0.26030621051E+02 -0.25176826614E+02  0.36820931472E+02  0.00000000000E+00 0.  1.
         11    1    4    4    0    0  0.10650383859E+02 -0.28155754807E+01  0.13666228506E+01  0.11100711685E+02  0.51100000000E-03 0. -1.
        -11    1    4    4    0    0 -0.85116945085E+01  0.13479779005E+02  0.17975174347E+01  0.16043205871E+02  0.51100000000E-03 0.  1.
         12    1    4    4    0    0  0.45182742091E+01  0.15366417527E+02  0.22012686328E+02  0.27223150972E+02  0.00000000000E+00 0. -1.
</event>
<event>
 8    1  0.2509489E-006  0.9118800E+02  0.7816164E-02  0.1184000E+00
        -11   -1    0    0    0    0  0.00000000000E+00  0.00000000000E+00  0.45593999997E+02  0.45594000000E+02  0.51100000000E-03 0. -1.
         11   -1    0    0    0    0 -0.00000000000E+00 -0.00000000000E+00 -0.45593999997E+02  0.45594000000E+02  0.51100000000E-03 0.  1.
         23    2    1    2    0    0  0.00000000000E+00  0.71054273576E-14 -0.88817841970E-15  0.91188000000E+02  0.91188000000E+02 0.  0.
    9900012    2    3    3    0    0  0.81686395254E+01  0.35088707001E+02 -0.76051925648E+01  0.54367041503E+02  0.39999902715E+02 0.  0.
        -12    1    3    3    0    0 -0.81686395254E+01 -0.35088707001E+02  0.76051925648E+01  0.36820958497E+02  0.00000000000E+00 0.  1.
         11    1    4    4    0    0 -0.90053594582E+01  0.82080733151E+01 -0.62724112763E+01  0.13704455845E+02  0.51100000000E-03 0. -1.
        -11    1    4    4    0    0  0.76594284768E+01  0.20742665796E+02  0.10331806472E+02  0.24406377325E+02  0.51100000000E-03 0.  1.
        -12    1    4    4    0    0  0.95145705068E+01  0.61379678899E+01 -0.11664587761E+02  0.16256208333E+02  0.00000000000E+00 0.  1.
</event>
<event>
 8    1  0.2509489E-006  0.9118800E+02  0.7816164E-02  0.1184000E+00
        -11   -1    0    0    0    0  0.00000000000E+00  0.00000000000E+00  0.45593999997E+02  0.45594000000E+02  0.51100000000E-03 0.  1.
         11   -1    0    0    0    0 -0.00000000000E+00 -0.00000000000E+00 -0.45593999997E+02  0.45594000000E+02  0.51100000000E-03 0. -1.
         23    2    1    2    0    0 -0.17763568394E-14  0.00000000000E+00  0.71054273576E-14  0.91188000000E+02  0.91188000000E+02 0.  0.
    9900012    2    3    3    0    0 -0.91358903282E+01  0.97500511374E+01  0.34311118476E+02  0.54367070621E+02  0.39999969095E+02 0.  0.
         12    1    3    3    0    0  0.91358903282E+01 -0.97500511374E+01 -0.34311118476E+02  0.36820929379E+02  0.00000000000E+00 0. -1.
         11    1    4    4    0    0 -0.10685732872E+00  0.73688699311E+00 -0.84589645515E+00  0.11269259085E+01  0.51100000000E-03 0. -1.
        -11    1    4    4    0    0  0.11728451846E+02 -0.57717776718E+01  0.56202120816E+01  0.14228730945E+02  0.51100000000E-03 0.  1.
         12    1    4    4    0    0 -0.20757484846E+02  0.14784941816E+02  0.29536802849E+02  0.39011413768E+02  0.00000000000E+00 0. -1.
</event>
<event>
 8    1  0.2509489E-006  0.9118800E+02  0.7816164E-02  0.1184000E+00
        -11   -1    0    0    0    0  0.00000000000E+00  0.00000000000E+00  0.45593999997E+02  0.45594000000E+02  0.51100000000E-03 0. -1.
         11   -1    0    0    0    0 -0.00000000000E+00 -0.00000000000E+00 -0.45593999997E+02  0.45594000000E+02  0.51100000000E-03 0.  1.
         23    2    1    2    0    0  0.00000000000E+00 -0.44408920985E-15  0.88817841970E-15  0.91188000000E+02  0.91188000000E+02 0.  0.
    9900012    2    3    3    0    0 -0.36528178963E+02 -0.31097795783E+01 -0.34352922887E+01  0.54367084469E+02  0.40000000665E+02 0.  0.
         12    1    3    3    0    0  0.36528178963E+02  0.31097795783E+01  0.34352922887E+01  0.36820915531E+02  0.00000000000E+00 0. -1.
         11    1    4    4    0    0 -0.70029519680E+01  0.65117455245E+01  0.10410383813E+02  0.14135779336E+02  0.51100000000E-03 0. -1.
        -11    1    4    4    0    0  0.18097006415E+01 -0.33639281274E+01  0.22703330910E+01  0.44435843037E+01  0.51100000000E-03 0.  1.
        -12    1    4    4    0    0 -0.31334927637E+02 -0.62575969754E+01 -0.16116009193E+02  0.35787720830E+02  0.00000000000E+00 0.  1.
</event>
<event>
 8    1  0.2509489E-006  0.9118800E+02  0.7816164E-02  0.1184000E+00
        -11   -1    0    0    0    0  0.00000000000E+00  0.00000000000E+00  0.45593999997E+02  0.45594000000E+02  0.51100000000E-03 0.  1.
         11   -1    0    0    0    0 -0.00000000000E+00 -0.00000000000E+00 -0.45593999997E+02  0.45594000000E+02  0.51100000000E-03 0. -1.
         23    2    1    2    0    0 -0.71054273576E-14 -0.17763568394E-14  0.00000000000E+00  0.91188000000E+02  0.91188000000E+02 0.  0.
    9900012    2    3    3    0    0 -0.30713319317E+02  0.10919300925E+02 -0.17124269105E+02  0.54367085989E+02  0.40000004130E+02 0.  0.
        -12    1    3    3    0    0  0.30713319317E+02 -0.10919300925E+02  0.17124269105E+02  0.36820914011E+02  0.00000000000E+00 0.  1.
         11    1    4    4    0    0 -0.14527171976E+02  0.18610207300E+02 -0.22621913945E+02  0.32697546271E+02  0.51100000000E-03 0. -1.
        -11    1    4    4    0    0  0.39972746215E+00 -0.10665142973E+01 -0.19985544464E+01  0.23003162666E+01  0.51100000000E-03 0.  1.
         12    1    4    4    0    0 -0.16585874803E+02 -0.66243920777E+01  0.74961992856E+01  0.19369223451E+02  0.00000000000E+00 0. -1.
</event>
<event>
 8    1  0.2509489E-006  0.9118800E+02  0.7816164E-02  0.1184000E+00
        -11   -1    0    0    0    0  0.00000000000E+00  0.00000000000E+00  0.45593999997E+02  0.45594000000E+02  0.51100000000E-03 0. -1.
         11   -1    0    0    0    0 -0.00000000000E+00 -0.00000000000E+00 -0.45593999997E+02  0.45594000000E+02  0.51100000000E-03 0.  1.
         23    2    1    2    0    0  0.00000000000E+00  0.00000000000E+00  0.17763568394E-14  0.91188000000E+02  0.91188000000E+02 0.  0.
    9900012    2    3    3    0    0  0.30098011334E+02 -0.18187645704E+02 -0.10913280867E+02  0.54367076033E+02  0.39999981432E+02 0.  0.
         12    1    3    3    0    0 -0.30098011334E+02  0.18187645704E+02  0.10913280867E+02  0.36820923967E+02  0.00000000000E+00 0. -1.
         11    1    4    4    0    0  0.17429760562E+02 -0.47958258967E+01 -0.16526507463E+02  0.24493304156E+02  0.51100000000E-03 0. -1.
        -11    1    4    4    0    0  0.16516429522E+01 -0.53421725550E+00  0.11739995627E+02  0.11867637090E+02  0.51100000000E-03 0.  1.
        -12    1    4    4    0    0  0.11016607819E+02 -0.12857602552E+02 -0.61267690308E+01  0.18006134787E+02  0.00000000000E+00 0.  1.
</event>
<event>
 8    1  0.2509489E-006  0.9118800E+02  0.7816164E-02  0.1184000E+00
        -11   -1    0    0    0    0  0.00000000000E+00  0.00000000000E+00  0.45593999997E+02  0.45594000000E+02  0.51100000000E-03 0.  1.
         11   -1    0    0    0    0 -0.00000000000E+00 -0.00000000000E+00 -0.45593999997E+02  0.45594000000E+02  0.51100000000E-03 0. -1.
         23    2    1    2    0    0  0.00000000000E+00  0.00000000000E+00  0.00000000000E+00  0.91188000000E+02  0.91188000000E+02 0.  0.
    9900012    2    3    3    0    0  0.18119691857E+02  0.19254901513E+02 -0.25626268076E+02  0.54367080935E+02  0.39999992609E+02 0.  0.
        -12    1    3    3    0    0 -0.18119691857E+02 -0.19254901513E+02  0.25626268076E+02  0.36820919065E+02  0.00000000000E+00 0.  1.
         11    1    4    4    0    0  0.20985142642E+02  0.17633819434E+02 -0.17623258365E+02  0.32586915092E+02  0.51100000000E-03 0. -1.
        -11    1    4    4    0    0  0.74378451971E+01 -0.40742113129E+01 -0.31566345395E+01  0.90490375662E+01  0.51100000000E-03 0.  1.
         12    1    4    4    0    0 -0.10303295982E+02  0.56952933913E+01 -0.48463751711E+01  0.12731128277E+02  0.00000000000E+00 0. -1.
</event>
<event>
 8    1  0.2509489E-006  0.9118800E+02  0.7816164E-02  0.1184000E+00
        -11   -1    0    0    0    0  0.00000000000E+00  0.00000000000E+00  0.45593999997E+02  0.45594000000E+02  0.51100000000E-03 0.  1.
         11   -1    0    0    0    0 -0.00000000000E+00 -0.00000000000E+00 -0.45593999997E+02  0.45594000000E+02  0.51100000000E-03 0. -1.
         23    2    1    2    0    0  0.00000000000E+00  0.35527136788E-14  0.35527136788E-14  0.91188000000E+02  0.91188000000E+02 0.  0.
    9900012    2    3    3    0    0 -0.27141025461E+02 -0.20973648205E+02 -0.13388492069E+02  0.54367069784E+02  0.39999967186E+02 0.  0.
         12    1    3    3    0    0  0.27141025461E+02  0.20973648205E+02  0.13388492069E+02  0.36820930216E+02  0.00000000000E+00 0. -1.
         11    1    4    4    0    0  0.79699077817E+01  0.18050938912E+01  0.51094251900E+00  0.81877259678E+01  0.51100000000E-03 0. -1.
        -11    1    4    4    0    0 -0.76480422759E+01 -0.77513162287E+01  0.19942239372E+01  0.11070337994E+02  0.51100000000E-03 0.  1.
         12    1    4    4    0    0 -0.27462890967E+02 -0.15027425867E+02 -0.15893658525E+02  0.35109005822E+02  0.00000000000E+00 0. -1.
</event>
<event>
 8    1  0.2509489E-006  0.9118800E+02  0.7816164E-02  0.1184000E+00
        -11   -1    0    0    0    0  0.00000000000E+00  0.00000000000E+00  0.45593999997E+02  0.45594000000E+02  0.51100000000E-03 0. -1.
         11   -1    0    0    0    0 -0.00000000000E+00 -0.00000000000E+00 -0.45593999997E+02  0.45594000000E+02  0.51100000000E-03 0.  1.
         23    2    1    2    0    0  0.22204460493E-14  0.00000000000E+00 -0.38857805862E-15  0.91188000000E+02  0.91188000000E+02 0.  0.
    9900012    2    3    3    0    0 -0.38201479565E+01 -0.36618990308E+02  0.48521174493E+00  0.54367090016E+02  0.40000013310E+02 0.  0.
         12    1    3    3    0    0  0.38201479565E+01  0.36618990308E+02 -0.48521174493E+00  0.36820909984E+02  0.00000000000E+00 0. -1.
         11    1    4    4    0    0  0.10590648519E+02 -0.63923099347E+01 -0.71811201311E+01  0.14303564205E+02  0.51100000000E-03 0. -1.
        -11    1    4    4    0    0  0.24309833089E+01 -0.14260461317E+01 -0.38473698724E+01  0.47692287232E+01  0.51100000000E-03 0.  1.
        -12    1    4    4    0    0 -0.16841779785E+02 -0.28800634242E+02  0.11513701748E+02  0.35294297089E+02  0.00000000000E+00 0.  1.
</event>
<event>
 8    1  0.2509489E-006  0.9118800E+02  0.7816164E-02  0.1184000E+00
        -11   -1    0    0    0    0  0.00000000000E+00  0.00000000000E+00  0.45593999997E+02  0.45594000000E+02  0.51100000000E-03 0.  1.
         11   -1    0    0    0    0 -0.00000000000E+00 -0.00000000000E+00 -0.45593999997E+02  0.45594000000E+02  0.51100000000E-03 0. -1.
         23    2    1    2    0    0  0.35527136788E-14  0.00000000000E+00  0.35527136788E-14  0.91188000000E+02  0.91188000000E+02 0.  0.
    9900012    2    3    3    0    0  0.21494201229E+02 -0.25434979454E+02 -0.15711175498E+02  0.54367083365E+02  0.39999998148E+02 0.  0.
        -12    1    3    3    0    0 -0.21494201229E+02  0.25434979454E+02  0.15711175498E+02  0.36820916635E+02  0.00000000000E+00 0.  1.
         11    1    4    4    0    0  0.51678645095E+01 -0.11483740980E+02 -0.16719070631E+02  0.20931088206E+02  0.51100000000E-03 0. -1.
        -11    1    4    4    0    0  0.18080311820E+02 -0.19525944431E+02  0.39336032876E+01  0.26900435247E+02  0.51100000000E-03 0.  1.
        -12    1    4    4    0    0 -0.17539751003E+01  0.55747059566E+01 -0.29257081548E+01  0.65355599119E+01  0.00000000000E+00 0.  1.
</event>
<event>
 8    1  0.2509489E-006  0.9118800E+02  0.7816164E-02  0.1184000E+00
        -11   -1    0    0    0    0  0.00000000000E+00  0.00000000000E+00  0.45593999997E+02  0.45594000000E+02  0.51100000000E-03 0. -1.
         11   -1    0    0    0    0 -0.00000000000E+00 -0.00000000000E+00 -0.45593999997E+02  0.45594000000E+02  0.51100000000E-03 0.  1.
         23    2    1    2    0    0  0.17763568394E-14 -0.17763568394E-14  0.00000000000E+00  0.91188000000E+02  0.91188000000E+02 0.  0.
    9900012    2    3    3    0    0  0.79995526728E+01  0.15217283019E+02 -0.32561043670E+02  0.54367080534E+02  0.39999991692E+02 0.  0.
         12    1    3    3    0    0 -0.79995526728E+01 -0.15217283019E+02  0.32561043670E+02  0.36820919466E+02  0.00000000000E+00 0. -1.
         11    1    4    4    0    0  0.18043128524E+02  0.15451225766E+01 -0.27224404909E+02  0.32697249328E+02  0.51100000000E-03 0. -1.
        -11    1    4    4    0    0 -0.11246273015E+02  0.12634500013E+02 -0.78886266239E+01  0.18663860200E+02  0.51100000000E-03 0.  1.
         12    1    4    4    0    0  0.12026971637E+01  0.10376604299E+01  0.25519878625E+01  0.30059710054E+01  0.00000000000E+00 0. -1.
</event>
<event>
 8    1  0.2509489E-006  0.9118800E+02  0.7816164E-02  0.1184000E+00
        -11   -1    0    0    0    0  0.00000000000E+00  0.00000000000E+00  0.45593999997E+02  0.45594000000E+02  0.51100000000E-03 0.  1.
         11   -1    0    0    0    0 -0.00000000000E+00 -0.00000000000E+00 -0.45593999997E+02  0.45594000000E+02  0.51100000000E-03 0. -1.
         23    2    1    2    0    0 -0.17763568394E-14  0.00000000000E+00 -0.44408920985E-15  0.91188000000E+02  0.91188000000E+02 0.  0.
    9900012    2    3    3    0    0  0.12880914656E+02 -0.34489477984E+02 -0.58095469669E+00  0.54367087976E+02  0.40000008658E+02 0.  0.
        -12    1    3    3    0    0 -0.12880914656E+02  0.34489477984E+02  0.58095469669E+00  0.36820912024E+02  0.00000000000E+00 0.  1.
         11    1    4    4    0    0  0.87043445480E+01 -0.13485296738E+02 -0.18388553814E+02  0.24408149331E+02  0.51100000000E-03 0. -1.
        -11    1    4    4    0    0  0.32391511708E+01 -0.11895804474E+02  0.16667408490E+02  0.20731733416E+02  0.51100000000E-03 0.  1.
         12    1    4    4    0    0  0.93741893670E+00 -0.91083767711E+01  0.11401906274E+01  0.92272052288E+01  0.00000000000E+00 0. -1.
</event>
<event>
 8    1  0.2509489E-006  0.9118800E+02  0.7816164E-02  0.1184000E+00
        -11   -1    0    0    0    0  0.00000000000E+00  0.00000000000E+00  0.45593999997E+02  0.45594000000E+02  0.51100000000E-03 0.  1.
         11   -1    0    0    0    0 -0.00000000000E+00 -0.00000000000E+00 -0.45593999997E+02  0.45594000000E+02  0.51100000000E-03 0. -1.
         23    2    1    2    0    0  0.00000000000E+00 -0.13322676296E-14 -0.71054273576E-14  0.91188000000E+02  0.91188000000E+02 0.  0.
    9900012    2    3    3    0    0  0.15138865184E+02 -0.18968798361E+01 -0.33511140132E+02  0.54367083321E+02  0.39999998046E+02 0.  0.
        -12    1    3    3    0    0 -0.15138865184E+02  0.18968798361E+01  0.33511140132E+02  0.36820916679E+02  0.00000000000E+00 0.  1.
         11    1    4    4    0    0 -0.96621128409E+01  0.71647712342E+01 -0.21536949263E+02  0.24668412094E+02  0.51100000000E-03 0. -1.
        -11    1    4    4    0    0  0.21841488010E+02 -0.70326196200E+01 -0.78953389679E+01  0.24266122783E+02  0.51100000000E-03 0.  1.
         12    1    4    4    0    0  0.29594900144E+01 -0.20290314502E+01 -0.40788519007E+01  0.54325484443E+01  0.00000000000E+00 0. -1.
</event>
<event>
 8    1  0.2509489E-006  0.9118800E+02  0.7816164E-02  0.1184000E+00
        -11   -1    0    0    0    0  0.00000000000E+00  0.00000000000E+00  0.45593999997E+02  0.45594000000E+02  0.51100000000E-03 0. -1.
         11   -1    0    0    0    0 -0.00000000000E+00 -0.00000000000E+00 -0.45593999997E+02  0.45594000000E+02  0.51100000000E-03 0.  1.
         23    2    1    2    0    0 -0.35527136788E-14 -0.71054273576E-14 -0.35527136788E-14  0.91188000000E+02  0.91188000000E+02 0.  0.
    9900012    2    3    3    0    0  0.12096203265E+02  0.26443946045E+02  0.22587122060E+02  0.54367102418E+02  0.40000041582E+02 0.  0.
        -12    1    3    3    0    0 -0.12096203265E+02 -0.26443946045E+02 -0.22587122060E+02  0.36820897582E+02  0.00000000000E+00 0.  1.
         11    1    4    4    0    0 -0.53377076398E+01  0.17464226451E+02 -0.16129516946E+01  0.18332810527E+02  0.51100000000E-03 0.  1.
        -11    1    4    4    0    0  0.23068909707E+00  0.19040028247E+01  0.15288391413E+02  0.15408223664E+02  0.51100000000E-03 0. -1.
        -12    1    4    4    0    0  0.17203221807E+02  0.70757167686E+01  0.89116823412E+01  0.20626068227E+02  0.00000000000E+00 0.  1.
</event>
<event>
 8    1  0.2509489E-006  0.9118800E+02  0.7816164E-02  0.1184000E+00
        -11   -1    0    0    0    0  0.00000000000E+00  0.00000000000E+00  0.45593999997E+02  0.45594000000E+02  0.51100000000E-03 0. -1.
         11   -1    0    0    0    0 -0.00000000000E+00 -0.00000000000E+00 -0.45593999997E+02  0.45594000000E+02  0.51100000000E-03 0.  1.
         23    2    1    2    0    0  0.35527136788E-14  0.35527136788E-14  0.00000000000E+00  0.91188000000E+02  0.91188000000E+02 0.  0.
    9900012    2    3    3    0    0  0.23042622143E+02  0.16802556353E+02  0.23291446443E+02  0.54367084576E+02  0.40000000908E+02 0.  0.
        -12    1    3    3    0    0 -0.23042622143E+02 -0.16802556353E+02 -0.23291446443E+02  0.36820915424E+02  0.00000000000E+00 0.  1.
         11    1    4    4    0    0 -0.14480801167E+00  0.10615918738E+02  0.12397532366E+02  0.16322300972E+02  0.51100000000E-03 0. -1.
        -11    1    4    4    0    0 -0.41112709586E+01 -0.34114660237E+01  0.70623184068E+01  0.88553368579E+01  0.51100000000E-03 0.  1.
         12    1    4    4    0    0  0.27298701114E+02  0.95981036384E+01  0.38315956709E+01  0.29189446746E+02  0.00000000000E+00 0. -1.
</event>
<event>
 8    1  0.2509489E-006  0.9118800E+02  0.7816164E-02  0.1184000E+00
        -11   -1    0    0    0    0  0.00000000000E+00  0.00000000000E+00  0.45593999997E+02  0.45594000000E+02  0.51100000000E-03 0.  1.
         11   -1    0    0    0    0 -0.00000000000E+00 -0.00000000000E+00 -0.45593999997E+02  0.45594000000E+02  0.51100000000E-03 0. -1.
         23    2    1    2    0    0 -0.17763568394E-14  0.33306690739E-15  0.00000000000E+00  0.91188000000E+02  0.91188000000E+02 0.  0.
    9900012    2    3    3    0    0 -0.15106958869E+02 -0.64777930895E+00  0.33572901630E+02  0.54367088167E+02  0.40000009095E+02 0.  0.
         12    1    3    3    0    0  0.15106958869E+02  0.64777930895E+00 -0.33572901630E+02  0.36820911833E+02  0.00000000000E+00 0. -1.
         11    1    4    4    0    0  0.31607232641E+01 -0.16502668472E+01 -0.33310796829E+00  0.35811329770E+01  0.51100000000E-03 0.  1.
        -11    1    4    4    0    0  0.50339465871E+01 -0.80770576655E+01  0.11674549201E+01  0.95886615346E+01  0.51100000000E-03 0. -1.
         12    1    4    4    0    0 -0.23301628720E+02  0.90795452038E+01  0.32738554679E+02  0.41197293656E+02  0.00000000000E+00 0. -1.
</event>
<event>
 8    1  0.2509489E-006  0.9118800E+02  0.7816164E-02  0.1184000E+00
        -11   -1    0    0    0    0  0.00000000000E+00  0.00000000000E+00  0.45593999997E+02  0.45594000000E+02  0.51100000000E-03 0.  1.
         11   -1    0    0    0    0 -0.00000000000E+00 -0.00000000000E+00 -0.45593999997E+02  0.45594000000E+02  0.51100000000E-03 0. -1.
         23    2    1    2    0    0  0.00000000000E+00  0.00000000000E+00  0.00000000000E+00  0.91188000000E+02  0.91188000000E+02 0.  0.
    9900012    2    3    3    0    0  0.32692110857E+02 -0.16260307991E+02 -0.47549531859E+01  0.54367064270E+02  0.39999954616E+02 0.  0.
        -12    1    3    3    0    0 -0.32692110857E+02  0.16260307991E+02  0.47549531859E+01  0.36820935730E+02  0.00000000000E+00 0.  1.
         11    1    4    4    0    0  0.57967175848E+00 -0.10381271687E+02 -0.65530606713E+01  0.12290216663E+02  0.51100000000E-03 0. -1.
        -11    1    4    4    0    0  0.19766933519E+02 -0.15125682908E+02  0.69030234468E+01  0.25829627894E+02  0.51100000000E-03 0.  1.
         12    1    4    4    0    0  0.12345505580E+02  0.92466466041E+01 -0.51049159614E+01  0.16247219714E+02  0.00000000000E+00 0. -1.
</event>
<event>
 8    1  0.2509489E-006  0.9118800E+02  0.7816164E-02  0.1184000E+00
        -11   -1    0    0    0    0  0.00000000000E+00  0.00000000000E+00  0.45593999997E+02  0.45594000000E+02  0.51100000000E-03 0.  1.
         11   -1    0    0    0    0 -0.00000000000E+00 -0.00000000000E+00 -0.45593999997E+02  0.45594000000E+02  0.51100000000E-03 0. -1.
         23    2    1    2    0    0  0.00000000000E+00  0.00000000000E+00 -0.17763568394E-14  0.91188000000E+02  0.91188000000E+02 0.  0.
    9900012    2    3    3    0    0 -0.66316130474E+00 -0.33250068124E+02 -0.15804274368E+02  0.54367056212E+02  0.39999936245E+02 0.  0.
        -12    1    3    3    0    0  0.66316130474E+00  0.33250068124E+02  0.15804274368E+02  0.36820943788E+02  0.00000000000E+00 0.  1.
         11    1    4    4    0    0 -0.46982799602E+01 -0.34806816890E+01 -0.11478220533E+01  0.59587310169E+01  0.51100000000E-03 0. -1.
        -11    1    4    4    0    0 -0.20185502991E+01 -0.10304760836E+02  0.11285996995E+02  0.15415458788E+02  0.51100000000E-03 0.  1.
         12    1    4    4    0    0  0.60536689545E+01 -0.19464625599E+02 -0.25942449310E+02  0.32992866407E+02  0.00000000000E+00 0. -1.
</event>
<event>
 8    1  0.2509489E-006  0.9118800E+02  0.7816164E-02  0.1184000E+00
        -11   -1    0    0    0    0  0.00000000000E+00  0.00000000000E+00  0.45593999997E+02  0.45594000000E+02  0.51100000000E-03 0.  1.
         11   -1    0    0    0    0 -0.00000000000E+00 -0.00000000000E+00 -0.45593999997E+02  0.45594000000E+02  0.51100000000E-03 0. -1.
         23    2    1    2    0    0  0.00000000000E+00  0.00000000000E+00  0.35527136788E-14  0.91188000000E+02  0.91188000000E+02 0.  0.
    9900012    2    3    3    0    0  0.70942492055E+01  0.22845062820E+02  0.27992050275E+02  0.54367080054E+02  0.39999990599E+02 0.  0.
         12    1    3    3    0    0 -0.70942492055E+01 -0.22845062820E+02 -0.27992050275E+02  0.36820919946E+02  0.00000000000E+00 0. -1.
         11    1    4    4    0    0 -0.62447604395E+01  0.43911695818E+01 -0.72450752028E+00  0.76683971370E+01  0.51100000000E-03 0. -1.
        -11    1    4    4    0    0 -0.54794437662E+01  0.94164004024E+01  0.22365553129E+02  0.24877919277E+02  0.51100000000E-03 0.  1.
        -12    1    4    4    0    0  0.18818453411E+02  0.90374928361E+01  0.63510046661E+01  0.21820763640E+02  0.00000000000E+00 0.  1.
</event>
<event>
 8    1  0.2509489E-006  0.9118800E+02  0.7816164E-02  0.1184000E+00
        -11   -1    0    0    0    0  0.00000000000E+00  0.00000000000E+00  0.45593999997E+02  0.45594000000E+02  0.51100000000E-03 0.  1.
         11   -1    0    0    0    0 -0.00000000000E+00 -0.00000000000E+00 -0.45593999997E+02  0.45594000000E+02  0.51100000000E-03 0. -1.
         23    2    1    2    0    0 -0.71054273576E-14  0.00000000000E+00 -0.35527136788E-14  0.91188000000E+02  0.91188000000E+02 0.  0.
    9900012    2    3    3    0    0 -0.23087337275E+02  0.83416076379E+01 -0.27443984938E+02  0.54367083801E+02  0.39999999141E+02 0.  0.
        -12    1    3    3    0    0  0.23087337275E+02 -0.83416076379E+01  0.27443984938E+02  0.36820916199E+02  0.00000000000E+00 0.  1.
         11    1    4    4    0    0 -0.12059658960E+02  0.24307838158E+01 -0.48139606577E+01  0.13210537524E+02  0.51100000000E-03 0. -1.
        -11    1    4    4    0    0  0.10398773248E+02  0.18109481554E+01 -0.12804165407E+01  0.10632661241E+02  0.51100000000E-03 0.  1.
        -12    1    4    4    0    0 -0.21426451563E+02  0.40998756667E+01 -0.21349607740E+02  0.30523885036E+02  0.00000000000E+00 0.  1.
</event>
<event>
 8    1  0.2509489E-006  0.9118800E+02  0.7816164E-02  0.1184000E+00
        -11   -1    0    0    0    0  0.00000000000E+00  0.00000000000E+00  0.45593999997E+02  0.45594000000E+02  0.51100000000E-03 0.  1.
         11   -1    0    0    0    0 -0.00000000000E+00 -0.00000000000E+00 -0.45593999997E+02  0.45594000000E+02  0.51100000000E-03 0. -1.
         23    2    1    2    0    0  0.00000000000E+00 -0.35527136788E-14  0.00000000000E+00  0.91188000000E+02  0.91188000000E+02 0.  0.
    9900012    2    3    3    0    0 -0.19000641903E+02  0.23258901451E+02 -0.21301905776E+02  0.54367189592E+02  0.40000240312E+02 0.  0.
        -12    1    3    3    0    0  0.19000641903E+02 -0.23258901451E+02  0.21301905776E+02  0.36820810408E+02  0.00000000000E+00 0.  1.
         11    1    4    4    0    0 -0.26965704243E+02  0.45553777885E+01 -0.12957039945E+02  0.30261948987E+02  0.51100000000E-03 0. -1.
        -11    1    4    4    0    0  0.31381198462E+01  0.14919698019E+02 -0.93577817855E+01  0.17888914594E+02  0.51100000000E-03 0.  1.
        -12    1    4    4    0    0  0.48269424938E+01  0.37838256430E+01  0.10129159543E+01  0.62163260103E+01  0.00000000000E+00 0.  1.
</event>
<event>
 8    1  0.2509489E-006  0.9118800E+02  0.7816164E-02  0.1184000E+00
        -11   -1    0    0    0    0  0.00000000000E+00  0.00000000000E+00  0.45593999997E+02  0.45594000000E+02  0.51100000000E-03 0.  1.
         11   -1    0    0    0    0 -0.00000000000E+00 -0.00000000000E+00 -0.45593999997E+02  0.45594000000E+02  0.51100000000E-03 0. -1.
         23    2    1    2    0    0  0.00000000000E+00 -0.35527136788E-14  0.35527136788E-14  0.91188000000E+02  0.91188000000E+02 0.  0.
    9900012    2    3    3    0    0 -0.46673478342E+01 -0.26654275697E+02 -0.24970991948E+02  0.54367014305E+02  0.39999840710E+02 0.  0.
        -12    1    3    3    0    0  0.46673478342E+01  0.26654275697E+02  0.24970991948E+02  0.36820985695E+02  0.00000000000E+00 0.  1.
         11    1    4    4    0    0 -0.11926558854E+02 -0.20149309900E+02 -0.11277536554E+02  0.25988850042E+02  0.51100000000E-03 0. -1.
        -11    1    4    4    0    0  0.11119265061E+02  0.44707315190E+01 -0.11357776918E+02  0.16511347388E+02  0.51100000000E-03 0.  1.
        -12    1    4    4    0    0 -0.38600540416E+01 -0.10975697316E+02 -0.23356784764E+01  0.11866816874E+02  0.00000000000E+00 0.  1.
</event>
<event>
 8    1  0.2509489E-006  0.9118800E+02  0.7816164E-02  0.1184000E+00
        -11   -1    0    0    0    0  0.00000000000E+00  0.00000000000E+00  0.45593999997E+02  0.45594000000E+02  0.51100000000E-03 0. -1.
         11   -1    0    0    0    0 -0.00000000000E+00 -0.00000000000E+00 -0.45593999997E+02  0.45594000000E+02  0.51100000000E-03 0.  1.
         23    2    1    2    0    0  0.00000000000E+00  0.00000000000E+00  0.35527136788E-14  0.91188000000E+02  0.91188000000E+02 0.  0.
    9900012    2    3    3    0    0  0.63529694821E+01  0.24269663003E+02 -0.26951878029E+02  0.54367075340E+02  0.39999979853E+02 0.  0.
        -12    1    3    3    0    0 -0.63529694821E+01 -0.24269663003E+02  0.26951878029E+02  0.36820924660E+02  0.00000000000E+00 0.  1.
         11    1    4    4    0    0 -0.61135548482E+01  0.90338053487E+01  0.35946856607E+01  0.11485075412E+02  0.51100000000E-03 0. -1.
        -11    1    4    4    0    0  0.14038682794E+02  0.66189055199E+01 -0.56960772045E+01  0.16532991885E+02  0.51100000000E-03 0.  1.
        -12    1    4    4    0    0 -0.15721584641E+01  0.86169521340E+01 -0.24850486485E+02  0.26349008043E+02  0.00000000000E+00 0.  1.
</event>
<event>
 8    1  0.2509489E-006  0.9118800E+02  0.7816164E-02  0.1184000E+00
        -11   -1    0    0    0    0  0.00000000000E+00  0.00000000000E+00  0.45593999997E+02  0.45594000000E+02  0.51100000000E-03 0.  1.
         11   -1    0    0    0    0 -0.00000000000E+00 -0.00000000000E+00 -0.45593999997E+02  0.45594000000E+02  0.51100000000E-03 0. -1.
         23    2    1    2    0    0  0.00000000000E+00 -0.11102230246E-14 -0.17763568394E-14  0.91188000000E+02  0.91188000000E+02 0.  0.
    9900012    2    3    3    0    0  0.35421731286E+02  0.17148115916E+01  0.99066684756E+01  0.54367058861E+02  0.39999942285E+02 0.  0.
         12    1    3    3    0    0 -0.35421731286E+02 -0.17148115916E+01 -0.99066684756E+01  0.36820941139E+02  0.00000000000E+00 0. -1.
         11    1    4    4    0    0 -0.24011062291E+00 -0.42119520883E+01 -0.28126322198E+01  0.50704135700E+01  0.51100000000E-03 0. -1.
        -11    1    4    4    0    0  0.27950503479E+02  0.14899398243E+02 -0.33946980526E+00  0.31675510300E+02  0.51100000000E-03 0.  1.
        -12    1    4    4    0    0  0.77113384297E+01 -0.89726345630E+01  0.13058770501E+02  0.17621134991E+02  0.00000000000E+00 0.  1.
</event>
<event>
 8    1  0.2509489E-006  0.9118800E+02  0.7816164E-02  0.1184000E+00
        -11   -1    0    0    0    0  0.00000000000E+00  0.00000000000E+00  0.45593999997E+02  0.45594000000E+02  0.51100000000E-03 0.  1.
         11   -1    0    0    0    0 -0.00000000000E+00 -0.00000000000E+00 -0.45593999997E+02  0.45594000000E+02  0.51100000000E-03 0. -1.
         23    2    1    2    0    0  0.17763568394E-14  0.35527136788E-14  0.00000000000E+00  0.91188000000E+02  0.91188000000E+02 0.  0.
    9900012    2    3    3    0    0 -0.15725076063E+02 -0.25774775817E+02  0.21075298875E+02  0.54367009950E+02  0.39999830783E+02 0.  0.
         12    1    3    3    0    0  0.15725076063E+02  0.25774775817E+02 -0.21075298875E+02  0.36820990050E+02  0.00000000000E+00 0. -1.
         11    1    4    4    0    0  0.12646733800E+02 -0.14046831099E+02  0.79829064293E+01  0.20517800443E+02  0.51100000000E-03 0. -1.
        -11    1    4    4    0    0 -0.17535628702E+02 -0.81048363953E+01  0.53429965893E+01  0.20043309602E+02  0.51100000000E-03 0.  1.
         12    1    4    4    0    0 -0.10836181160E+02 -0.36231083231E+01  0.77493958560E+01  0.13805899905E+02  0.00000000000E+00 0. -1.
</event>
<event>
 8    1  0.2509489E-006  0.9118800E+02  0.7816164E-02  0.1184000E+00
        -11   -1    0    0    0    0  0.00000000000E+00  0.00000000000E+00  0.45593999997E+02  0.45594000000E+02  0.51100000000E-03 0. -1.
         11   -1    0    0    0    0 -0.00000000000E+00 -0.00000000000E+00 -0.45593999997E+02  0.45594000000E+02  0.51100000000E-03 0.  1.
         23    2    1    2    0    0  0.35527136788E-14  0.00000000000E+00 -0.88817841970E-15  0.91188000000E+02  0.91188000000E+02 0.  0.
    9900012    2    3    3    0    0 -0.18704753419E+02  0.31364333668E+02 -0.47108264339E+01  0.54367066924E+02  0.39999960666E+02 0.  0.
         12    1    3    3    0    0  0.18704753419E+02 -0.31364333668E+02  0.47108264339E+01  0.36820933076E+02  0.00000000000E+00 0. -1.
         11    1    4    4    0    0 -0.24468549490E+01  0.17743436431E+02 -0.66147525083E+01  0.19093757790E+02  0.51100000000E-03 0.  1.
        -11    1    4    4    0    0  0.17649205194E+01  0.14134366176E+02 -0.61637172773E+01  0.15520523915E+02  0.51100000000E-03 0. -1.
        -12    1    4    4    0    0 -0.18022818989E+02 -0.51346893933E+00  0.80676433517E+01  0.19752785219E+02  0.00000000000E+00 0.  1.
</event>
<event>
 8    1  0.2509489E-006  0.9118800E+02  0.7816164E-02  0.1184000E+00
        -11   -1    0    0    0    0  0.00000000000E+00  0.00000000000E+00  0.45593999997E+02  0.45594000000E+02  0.51100000000E-03 0.  1.
         11   -1    0    0    0    0 -0.00000000000E+00 -0.00000000000E+00 -0.45593999997E+02  0.45594000000E+02  0.51100000000E-03 0. -1.
         23    2    1    2    0    0 -0.71054273576E-14  0.00000000000E+00  0.33306690739E-14  0.91188000000E+02  0.91188000000E+02 0.  0.
    9900012    2    3    3    0    0  0.36640949796E+02  0.33000963955E+01 -0.15263788722E+01  0.54367086505E+02  0.40000005306E+02 0.  0.
         12    1    3    3    0    0 -0.36640949796E+02 -0.33000963955E+01  0.15263788722E+01  0.36820913495E+02  0.00000000000E+00 0. -1.
         11    1    4    4    0    0  0.24253522687E+01  0.69288697826E+01  0.13005835834E+02  0.14934635452E+02  0.51100000000E-03 0. -1.
        -11    1    4    4    0    0  0.16275739047E+02 -0.19073087562E+01 -0.17100053835E+00  0.16388006275E+02  0.51100000000E-03 0.  1.
         12    1    4    4    0    0  0.17939858480E+02 -0.17214646309E+01 -0.14361214168E+02  0.23044444778E+02  0.00000000000E+00 0. -1.
</event>
<event>
 8    1  0.2509489E-006  0.9118800E+02  0.7816164E-02  0.1184000E+00
        -11   -1    0    0    0    0  0.00000000000E+00  0.00000000000E+00  0.45593999997E+02  0.45594000000E+02  0.51100000000E-03 0.  1.
         11   -1    0    0    0    0 -0.00000000000E+00 -0.00000000000E+00 -0.45593999997E+02  0.45594000000E+02  0.51100000000E-03 0. -1.
         23    2    1    2    0    0  0.00000000000E+00  0.00000000000E+00  0.00000000000E+00  0.91188000000E+02  0.91188000000E+02 0.  0.
    9900012    2    3    3    0    0  0.17004147368E+02 -0.12297922744E+02  0.30255587776E+02  0.54367074927E+02  0.39999978912E+02 0.  0.
         12    1    3    3    0    0 -0.17004147368E+02  0.12297922744E+02 -0.30255587776E+02  0.36820925073E+02  0.00000000000E+00 0. -1.
         11    1    4    4    0    0  0.60266949312E+01  0.74896767725E+01  0.11018931512E+02  0.14623035317E+02  0.51100000000E-03 0. -1.
        -11    1    4    4    0    0 -0.47822517671E+01 -0.15878789458E+02  0.31354318682E+01  0.16877109346E+02  0.51100000000E-03 0.  1.
        -12    1    4    4    0    0  0.15759704204E+02 -0.39088100584E+01  0.16101224396E+02  0.22866930264E+02  0.00000000000E+00 0.  1.
</event>
<event>
 8    1  0.2509489E-006  0.9118800E+02  0.7816164E-02  0.1184000E+00
        -11   -1    0    0    0    0  0.00000000000E+00  0.00000000000E+00  0.45593999997E+02  0.45594000000E+02  0.51100000000E-03 0. -1.
         11   -1    0    0    0    0 -0.00000000000E+00 -0.00000000000E+00 -0.45593999997E+02  0.45594000000E+02  0.51100000000E-03 0.  1.
         23    2    1    2    0    0  0.22204460493E-15  0.00000000000E+00  0.71054273576E-14  0.91188000000E+02  0.91188000000E+02 0.  0.
    9900012    2    3    3    0    0 -0.11296625433E+01 -0.45826134368E+01 -0.36517110957E+02  0.54367138033E+02  0.40000122773E+02 0.  0.
         12    1    3    3    0    0  0.11296625433E+01  0.45826134368E+01  0.36517110957E+02  0.36820861967E+02  0.00000000000E+00 0. -1.
         11    1    4    4    0    0  0.59021495786E+01 -0.44409005963E+00 -0.18602509914E+02  0.19521423129E+02  0.51100000000E-03 0. -1.
        -11    1    4    4    0    0 -0.48291066863E+00  0.72793298939E+01 -0.20208203526E+02  0.21484723327E+02  0.51100000000E-03 0.  1.
        -12    1    4    4    0    0 -0.65489014533E+01 -0.11417853271E+02  0.22936024829E+01  0.13360991577E+02  0.00000000000E+00 0.  1.
</event>
<event>
 8    1  0.2509489E-006  0.9118800E+02  0.7816164E-02  0.1184000E+00
        -11   -1    0    0    0    0  0.00000000000E+00  0.00000000000E+00  0.45593999997E+02  0.45594000000E+02  0.51100000000E-03 0.  1.
         11   -1    0    0    0    0 -0.00000000000E+00 -0.00000000000E+00 -0.45593999997E+02  0.45594000000E+02  0.51100000000E-03 0. -1.
         23    2    1    2    0    0  0.00000000000E+00 -0.35527136788E-14  0.88817841970E-15  0.91188000000E+02  0.91188000000E+02 0.  0.
    9900012    2    3    3    0    0  0.28475739424E+02 -0.22521351396E+02  0.61399866846E+01  0.54367103203E+02  0.40000043372E+02 0.  0.
         12    1    3    3    0    0 -0.28475739424E+02  0.22521351396E+02 -0.61399866846E+01  0.36820896797E+02  0.00000000000E+00 0. -1.
         11    1    4    4    0    0  0.24878612261E+02 -0.23048534231E+02  0.91815874124E+01  0.35135193552E+02  0.51100000000E-03 0. -1.
        -11    1    4    4    0    0  0.93876376178E+01  0.20792808057E+01  0.36163213521E+01  0.10272727442E+02  0.51100000000E-03 0.  1.
         12    1    4    4    0    0 -0.57905104548E+01 -0.15520979708E+01 -0.66579220800E+01  0.89591822094E+01  0.00000000000E+00 0. -1.
</event>
<event>
 8    1  0.2509489E-006  0.9118800E+02  0.7816164E-02  0.1184000E+00
        -11   -1    0    0    0    0  0.00000000000E+00  0.00000000000E+00  0.45593999997E+02  0.45594000000E+02  0.51100000000E-03 0.  1.
         11   -1    0    0    0    0 -0.00000000000E+00 -0.00000000000E+00 -0.45593999997E+02  0.45594000000E+02  0.51100000000E-03 0. -1.
         23    2    1    2    0    0 -0.17763568394E-14  0.35527136788E-14  0.00000000000E+00  0.91188000000E+02  0.91188000000E+02 0.  0.
    9900012    2    3    3    0    0  0.13098146618E+02  0.26853892851E+02 -0.21519513327E+02  0.54367048628E+02  0.39999918957E+02 0.  0.
        -12    1    3    3    0    0 -0.13098146618E+02 -0.26853892851E+02  0.21519513327E+02  0.36820951372E+02  0.00000000000E+00 0.  1.
         11    1    4    4    0    0 -0.10833509669E+02  0.37779567000E+01 -0.13102908320E+02  0.17416202091E+02  0.51100000000E-03 0. -1.
        -11    1    4    4    0    0  0.99962815637E+01  0.18983270981E+02 -0.51677475206E+01  0.22067982167E+02  0.51100000000E-03 0.  1.
         12    1    4    4    0    0  0.13935374723E+02  0.40926651704E+01 -0.32488574865E+01  0.14882864369E+02  0.00000000000E+00 0. -1.
</event>
<event>
 8    1  0.2509489E-006  0.9118800E+02  0.7816164E-02  0.1184000E+00
        -11   -1    0    0    0    0  0.00000000000E+00  0.00000000000E+00  0.45593999997E+02  0.45594000000E+02  0.51100000000E-03 0.  1.
         11   -1    0    0    0    0 -0.00000000000E+00 -0.00000000000E+00 -0.45593999997E+02  0.45594000000E+02  0.51100000000E-03 0. -1.
         23    2    1    2    0    0  0.00000000000E+00  0.00000000000E+00  0.00000000000E+00  0.91188000000E+02  0.91188000000E+02 0.  0.
    9900012    2    3    3    0    0  0.18135524469E+02  0.85287755360E+01  0.30889122485E+02  0.54367147921E+02  0.40000145316E+02 0.  0.
         12    1    3    3    0    0 -0.18135524469E+02 -0.85287755360E+01 -0.30889122485E+02  0.36820852079E+02  0.00000000000E+00 0. -1.
         11    1    4    4    0    0 -0.11224728405E+01  0.44430425688E+00  0.16186175965E+02  0.16231131944E+02  0.51100000000E-03 0. -1.
        -11    1    4    4    0    0 -0.45119986054E+01 -0.17779659693E+01  0.11147544332E+02  0.12156769279E+02  0.51100000000E-03 0.  1.
         12    1    4    4    0    0  0.23769995915E+02  0.98624372484E+01  0.35554021868E+01  0.25979246698E+02  0.00000000000E+00 0. -1.
</event>
<event>
 8    1  0.2509489E-006  0.9118800E+02  0.7816164E-02  0.1184000E+00
        -11   -1    0    0    0    0  0.00000000000E+00  0.00000000000E+00  0.45593999997E+02  0.45594000000E+02  0.51100000000E-03 0.  1.
         11   -1    0    0    0    0 -0.00000000000E+00 -0.00000000000E+00 -0.45593999997E+02  0.45594000000E+02  0.51100000000E-03 0. -1.
         23    2    1    2    0    0 -0.35527136788E-14  0.00000000000E+00  0.00000000000E+00  0.91188000000E+02  0.91188000000E+02 0.  0.
    9900012    2    3    3    0    0  0.17604253931E+02 -0.19545682018E+02  0.25765005739E+02  0.54367096117E+02  0.40000027219E+02 0.  0.
         12    1    3    3    0    0 -0.17604253931E+02  0.19545682018E+02 -0.25765005739E+02  0.36820903883E+02  0.00000000000E+00 0. -1.
         11    1    4    4    0    0  0.11859979391E+02 -0.13639756619E+02  0.15742271228E+02  0.23969171355E+02  0.51100000000E-03 0. -1.
        -11    1    4    4    0    0 -0.38819334721E+00  0.95755022109E+01  0.98535240245E+01  0.13745285469E+02  0.51100000000E-03 0.  1.
         12    1    4    4    0    0  0.61324678870E+01 -0.15481427611E+02  0.16921048651E+00  0.16652639294E+02  0.00000000000E+00 0. -1.
</event>
<event>
 8    1  0.2509489E-006  0.9118800E+02  0.7816164E-02  0.1184000E+00
        -11   -1    0    0    0    0  0.00000000000E+00  0.00000000000E+00  0.45593999997E+02  0.45594000000E+02  0.51100000000E-03 0.  1.
         11   -1    0    0    0    0 -0.00000000000E+00 -0.00000000000E+00 -0.45593999997E+02  0.45594000000E+02  0.51100000000E-03 0. -1.
         23    2    1    2    0    0  0.00000000000E+00 -0.17763568394E-14  0.00000000000E+00  0.91188000000E+02  0.91188000000E+02 0.  0.
    9900012    2    3    3    0    0 -0.48048137466E+01 -0.11795336095E+02  0.34547987394E+02  0.54367087169E+02  0.40000006819E+02 0.  0.
         12    1    3    3    0    0  0.48048137466E+01  0.11795336095E+02 -0.34547987394E+02  0.36820912831E+02  0.00000000000E+00 0. -1.
         11    1    4    4    0    0  0.59211786761E+01 -0.94791974769E+00  0.15069098496E+02  0.16218404315E+02  0.51100000000E-03 0. -1.
        -11    1    4    4    0    0  0.51486705393E+01 -0.15373751868E+02  0.10987692828E+02  0.19585465243E+02  0.51100000000E-03 0.  1.
         12    1    4    4    0    0 -0.15874662962E+02  0.45263355204E+01  0.84911960693E+01  0.18563217611E+02  0.00000000000E+00 0. -1.
</event>
<event>
 8    1  0.2509489E-006  0.9118800E+02  0.7816164E-02  0.1184000E+00
        -11   -1    0    0    0    0  0.00000000000E+00  0.00000000000E+00  0.45593999997E+02  0.45594000000E+02  0.51100000000E-03 0. -1.
         11   -1    0    0    0    0 -0.00000000000E+00 -0.00000000000E+00 -0.45593999997E+02  0.45594000000E+02  0.51100000000E-03 0.  1.
         23    2    1    2    0    0  0.00000000000E+00  0.88817841970E-15  0.00000000000E+00  0.91188000000E+02  0.91188000000E+02 0.  0.
    9900012    2    3    3    0    0  0.17020203033E+02 -0.43400837072E+01  0.32361330100E+02  0.54367091216E+02  0.40000016045E+02 0.  0.
        -12    1    3    3    0    0 -0.17020203033E+02  0.43400837072E+01 -0.32361330100E+02  0.36820908784E+02  0.00000000000E+00 0.  1.
         11    1    4    4    0    0  0.66630260485E+01  0.90046372964E+01  0.24872481786E+01  0.11474572442E+02  0.51100000000E-03 0. -1.
        -11    1    4    4    0    0  0.43177420316E+01  0.72098619210E+01  0.40203414358E+01  0.93160158165E+01  0.51100000000E-03 0.  1.
        -12    1    4    4    0    0  0.60394349526E+01 -0.20554582925E+02  0.25853740485E+02  0.33576502957E+02  0.00000000000E+00 0.  1.
</event>
<event>
 8    1  0.2509489E-006  0.9118800E+02  0.7816164E-02  0.1184000E+00
        -11   -1    0    0    0    0  0.00000000000E+00  0.00000000000E+00  0.45593999997E+02  0.45594000000E+02  0.51100000000E-03 0. -1.
         11   -1    0    0    0    0 -0.00000000000E+00 -0.00000000000E+00 -0.45593999997E+02  0.45594000000E+02  0.51100000000E-03 0.  1.
         23    2    1    2    0    0  0.22204460493E-15 -0.13322676296E-14  0.71054273576E-14  0.91188000000E+02  0.91188000000E+02 0.  0.
    9900012    2    3    3    0    0  0.18706929471E+01 -0.17868906229E+01  0.36729922981E+02  0.54367085938E+02  0.40000004013E+02 0.  0.
        -12    1    3    3    0    0 -0.18706929471E+01  0.17868906229E+01 -0.36729922981E+02  0.36820914062E+02  0.00000000000E+00 0.  1.
         11    1    4    4    0    0  0.55493126270E+01 -0.11907686178E+02  0.32673851455E+02  0.35216025186E+02  0.51100000000E-03 0. -1.
        -11    1    4    4    0    0 -0.46182871456E+00  0.25501594309E+01  0.91270567632E+01  0.94878745936E+01  0.51100000000E-03 0.  1.
         12    1    4    4    0    0 -0.32167909654E+01  0.75706361241E+01 -0.50709852378E+01  0.96631861578E+01  0.00000000000E+00 0. -1.
</event>
<event>
 8    1  0.2509489E-006  0.9118800E+02  0.7816164E-02  0.1184000E+00
        -11   -1    0    0    0    0  0.00000000000E+00  0.00000000000E+00  0.45593999997E+02  0.45594000000E+02  0.51100000000E-03 0. -1.
         11   -1    0    0    0    0 -0.00000000000E+00 -0.00000000000E+00 -0.45593999997E+02  0.45594000000E+02  0.51100000000E-03 0.  1.
         23    2    1    2    0    0  0.88817841970E-15  0.00000000000E+00  0.88817841970E-15  0.91188000000E+02  0.91188000000E+02 0.  0.
    9900012    2    3    3    0    0  0.70147687528E+01 -0.35823219183E+02 -0.48239058482E+01  0.54367080934E+02  0.39999992604E+02 0.  0.
        -12    1    3    3    0    0 -0.70147687528E+01  0.35823219183E+02  0.48239058482E+01  0.36820919066E+02  0.00000000000E+00 0.  1.
         11    1    4    4    0    0  0.67147835891E+01 -0.42758822495E+00  0.48428510519E+01  0.82900154952E+01  0.51100000000E-03 0. -1.
        -11    1    4    4    0    0 -0.41394347053E+01  0.37722183495E+01 -0.17866897767E+01  0.58785041954E+01  0.51100000000E-03 0.  1.
         12    1    4    4    0    0  0.44394198689E+01 -0.39167849307E+02 -0.78800671234E+01  0.40198561243E+02  0.00000000000E+00 0. -1.
</event>
<event>
 8    1  0.2509489E-006  0.9118800E+02  0.7816164E-02  0.1184000E+00
        -11   -1    0    0    0    0  0.00000000000E+00  0.00000000000E+00  0.45593999997E+02  0.45594000000E+02  0.51100000000E-03 0. -1.
         11   -1    0    0    0    0 -0.00000000000E+00 -0.00000000000E+00 -0.45593999997E+02  0.45594000000E+02  0.51100000000E-03 0.  1.
         23    2    1    2    0    0  0.00000000000E+00  0.35527136788E-14  0.35527136788E-14  0.91188000000E+02  0.91188000000E+02 0.  0.
    9900012    2    3    3    0    0 -0.12379504220E+02  0.18055763953E+02 -0.29606026863E+02  0.54367087963E+02  0.40000008628E+02 0.  0.
         12    1    3    3    0    0  0.12379504220E+02 -0.18055763953E+02  0.29606026863E+02  0.36820912037E+02  0.00000000000E+00 0. -1.
         11    1    4    4    0    0  0.28470362854E+01  0.17388795250E+01 -0.60258260217E-01  0.33366073985E+01  0.51100000000E-03 0. -1.
        -11    1    4    4    0    0 -0.91516648475E+01 -0.55936067514E+01 -0.25860698100E+02  0.27996733961E+02  0.51100000000E-03 0.  1.
        -12    1    4    4    0    0 -0.60748756577E+01  0.21910491179E+02 -0.36850705024E+01  0.23033746603E+02  0.00000000000E+00 0.  1.
</event>
<event>
 8    1  0.2509489E-006  0.9118800E+02  0.7816164E-02  0.1184000E+00
        -11   -1    0    0    0    0  0.00000000000E+00  0.00000000000E+00  0.45593999997E+02  0.45594000000E+02  0.51100000000E-03 0. -1.
         11   -1    0    0    0    0 -0.00000000000E+00 -0.00000000000E+00 -0.45593999997E+02  0.45594000000E+02  0.51100000000E-03 0.  1.
         23    2    1    2    0    0  0.44408920985E-15  0.35527136788E-14  0.00000000000E+00  0.91188000000E+02  0.91188000000E+02 0.  0.
    9900012    2    3    3    0    0  0.20038113044E+01  0.29635643238E+02 -0.21759897761E+02  0.54367085285E+02  0.40000002525E+02 0.  0.
        -12    1    3    3    0    0 -0.20038113044E+01 -0.29635643238E+02  0.21759897761E+02  0.36820914715E+02  0.00000000000E+00 0.  1.
         11    1    4    4    0    0 -0.39777038407E+01  0.43153484125E+01 -0.13651442263E+02  0.14859550326E+02  0.51100000000E-03 0. -1.
        -11    1    4    4    0    0  0.68358765580E+01 -0.38306190888E+01 -0.67004493187E+01  0.10310134444E+02  0.51100000000E-03 0.  1.
        -12    1    4    4    0    0 -0.85436141284E+00  0.29150913914E+02 -0.14080061793E+01  0.29197400515E+02  0.00000000000E+00 0.  1.
</event>
<event>
 8    1  0.2509489E-006  0.9118800E+02  0.7816164E-02  0.1184000E+00
        -11   -1    0    0    0    0  0.00000000000E+00  0.00000000000E+00  0.45593999997E+02  0.45594000000E+02  0.51100000000E-03 0. -1.
         11   -1    0    0    0    0 -0.00000000000E+00 -0.00000000000E+00 -0.45593999997E+02  0.45594000000E+02  0.51100000000E-03 0.  1.
         23    2    1    2    0    0  0.17763568394E-14  0.00000000000E+00  0.00000000000E+00  0.91188000000E+02  0.91188000000E+02 0.  0.
    9900012    2    3    3    0    0  0.88881958230E+01 -0.23964419268E+02 -0.26504437431E+02  0.54367100780E+02  0.40000037849E+02 0.  0.
         12    1    3    3    0    0 -0.88881958230E+01  0.23964419268E+02  0.26504437431E+02  0.36820899220E+02  0.00000000000E+00 0. -1.
         11    1    4    4    0    0  0.23197301281E+00  0.88197545541E+00  0.38523833640E+01  0.39588571617E+01  0.51100000000E-03 0. -1.
        -11    1    4    4    0    0 -0.10918845317E+02 -0.66189453068E+01 -0.14472246584E+02  0.19299677238E+02  0.51100000000E-03 0.  1.
        -12    1    4    4    0    0  0.19575068127E+02 -0.18227449416E+02 -0.15884574211E+02  0.31108566381E+02  0.00000000000E+00 0.  1.
</event>
<event>
 8    1  0.2509489E-006  0.9118800E+02  0.7816164E-02  0.1184000E+00
        -11   -1    0    0    0    0  0.00000000000E+00  0.00000000000E+00  0.45593999997E+02  0.45594000000E+02  0.51100000000E-03 0. -1.
         11   -1    0    0    0    0 -0.00000000000E+00 -0.00000000000E+00 -0.45593999997E+02  0.45594000000E+02  0.51100000000E-03 0.  1.
         23    2    1    2    0    0  0.00000000000E+00  0.00000000000E+00 -0.17763568394E-14  0.91188000000E+02  0.91188000000E+02 0.  0.
    9900012    2    3    3    0    0  0.28494937638E+02 -0.18105479357E+02 -0.14697305879E+02  0.54367073154E+02  0.39999974869E+02 0.  0.
        -12    1    3    3    0    0 -0.28494937638E+02  0.18105479357E+02  0.14697305879E+02  0.36820926846E+02  0.00000000000E+00 0.  1.
         11    1    4    4    0    0  0.11046453778E+02 -0.16043537005E+02  0.31783983307E+01  0.19736297446E+02  0.51100000000E-03 0. -1.
        -11    1    4    4    0    0 -0.48131127217E+01  0.39157708686E+01 -0.15822800348E+01  0.64033527106E+01  0.51100000000E-03 0.  1.
         12    1    4    4    0    0  0.22261596582E+02 -0.59777132209E+01 -0.16293424175E+02  0.28227422997E+02  0.00000000000E+00 0. -1.
</event>
<event>
 8    1  0.2509489E-006  0.9118800E+02  0.7816164E-02  0.1184000E+00
        -11   -1    0    0    0    0  0.00000000000E+00  0.00000000000E+00  0.45593999997E+02  0.45594000000E+02  0.51100000000E-03 0. -1.
         11   -1    0    0    0    0 -0.00000000000E+00 -0.00000000000E+00 -0.45593999997E+02  0.45594000000E+02  0.51100000000E-03 0.  1.
         23    2    1    2    0    0  0.35527136788E-14  0.35527136788E-14  0.00000000000E+00  0.91188000000E+02  0.91188000000E+02 0.  0.
    9900012    2    3    3    0    0 -0.17411095635E+02  0.27128538563E+02  0.17795075922E+02  0.54367237069E+02  0.40000348544E+02 0.  0.
        -12    1    3    3    0    0  0.17411095635E+02 -0.27128538563E+02 -0.17795075922E+02  0.36820762931E+02  0.00000000000E+00 0.  1.
         11    1    4    4    0    0 -0.12340426454E+02  0.10941522395E+02  0.17088121562E+02  0.23748830206E+02  0.51100000000E-03 0. -1.
        -11    1    4    4    0    0 -0.14027064204E+02  0.61650869081E+01 -0.48540252454E+01  0.16072597429E+02  0.51100000000E-03 0.  1.
         12    1    4    4    0    0  0.89563950234E+01  0.10021929260E+02  0.55609796059E+01  0.14545809433E+02  0.00000000000E+00 0. -1.
</event>
<event>
 8    1  0.2509489E-006  0.9118800E+02  0.7816164E-02  0.1184000E+00
        -11   -1    0    0    0    0  0.00000000000E+00  0.00000000000E+00  0.45593999997E+02  0.45594000000E+02  0.51100000000E-03 0.  1.
         11   -1    0    0    0    0 -0.00000000000E+00 -0.00000000000E+00 -0.45593999997E+02  0.45594000000E+02  0.51100000000E-03 0. -1.
         23    2    1    2    0    0  0.00000000000E+00  0.88817841970E-15  0.00000000000E+00  0.91188000000E+02  0.91188000000E+02 0.  0.
    9900012    2    3    3    0    0 -0.29963013864E+02 -0.65132123882E+01 -0.20385662396E+02  0.54367090632E+02  0.40000014713E+02 0.  0.
        -12    1    3    3    0    0  0.29963013864E+02  0.65132123882E+01  0.20385662396E+02  0.36820909368E+02  0.00000000000E+00 0.  1.
         11    1    4    4    0    0 -0.86345071286E+01 -0.71508062966E+01 -0.15142421135E+02  0.18840957039E+02  0.51100000000E-03 0. -1.
        -11    1    4    4    0    0 -0.79796833715E+01  0.14085510357E+02 -0.24260673579E+01  0.16369567857E+02  0.51100000000E-03 0.  1.
         12    1    4    4    0    0 -0.13348823364E+02 -0.13447916449E+02 -0.28171739028E+01  0.19156565736E+02  0.00000000000E+00 0. -1.
</event>
<event>
 8    1  0.2509489E-006  0.9118800E+02  0.7816164E-02  0.1184000E+00
        -11   -1    0    0    0    0  0.00000000000E+00  0.00000000000E+00  0.45593999997E+02  0.45594000000E+02  0.51100000000E-03 0.  1.
         11   -1    0    0    0    0 -0.00000000000E+00 -0.00000000000E+00 -0.45593999997E+02  0.45594000000E+02  0.51100000000E-03 0. -1.
         23    2    1    2    0    0  0.00000000000E+00  0.00000000000E+00 -0.35527136788E-14  0.91188000000E+02  0.91188000000E+02 0.  0.
    9900012    2    3    3    0    0  0.16297630192E+02 -0.24299044857E+02 -0.22354474381E+02  0.54367097571E+02  0.40000030533E+02 0.  0.
        -12    1    3    3    0    0 -0.16297630192E+02  0.24299044857E+02  0.22354474381E+02  0.36820902429E+02  0.00000000000E+00 0.  1.
         11    1    4    4    0    0  0.18914696663E+02 -0.18387025854E+02 -0.11493696584E+02  0.28774181675E+02  0.51100000000E-03 0. -1.
        -11    1    4    4    0    0 -0.10010623902E+02 -0.10154043410E+02 -0.44831845502E+01  0.14947111174E+02  0.51100000000E-03 0.  1.
        -12    1    4    4    0    0  0.73935574308E+01  0.42420244076E+01 -0.63775932469E+01  0.10645804722E+02  0.00000000000E+00 0.  1.
</event>
<event>
 8    1  0.2509489E-006  0.9118800E+02  0.7816164E-02  0.1184000E+00
        -11   -1    0    0    0    0  0.00000000000E+00  0.00000000000E+00  0.45593999997E+02  0.45594000000E+02  0.51100000000E-03 0.  1.
         11   -1    0    0    0    0 -0.00000000000E+00 -0.00000000000E+00 -0.45593999997E+02  0.45594000000E+02  0.51100000000E-03 0. -1.
         23    2    1    2    0    0  0.00000000000E+00  0.00000000000E+00  0.00000000000E+00  0.91188000000E+02  0.91188000000E+02 0.  0.
    9900012    2    3    3    0    0  0.22308780820E+02  0.28821691438E+02 -0.52352496784E+01  0.54367089660E+02  0.40000012498E+02 0.  0.
        -12    1    3    3    0    0 -0.22308780820E+02 -0.28821691438E+02  0.52352496784E+01  0.36820910340E+02  0.00000000000E+00 0.  1.
         11    1    4    4    0    0 -0.17532471635E+01  0.76790952976E+01 -0.53717537383E+01  0.95340504872E+01  0.51100000000E-03 0. -1.
        -11    1    4    4    0    0 -0.68067940144E+01  0.62141497094E+01  0.45190751127E+01  0.10264995933E+02  0.51100000000E-03 0.  1.
         12    1    4    4    0    0  0.30868821998E+02  0.14928446431E+02 -0.43825710528E+01  0.34568043240E+02  0.00000000000E+00 0. -1.
</event>
<event>
 8    1  0.2509489E-006  0.9118800E+02  0.7816164E-02  0.1184000E+00
        -11   -1    0    0    0    0  0.00000000000E+00  0.00000000000E+00  0.45593999997E+02  0.45594000000E+02  0.51100000000E-03 0. -1.
         11   -1    0    0    0    0 -0.00000000000E+00 -0.00000000000E+00 -0.45593999997E+02  0.45594000000E+02  0.51100000000E-03 0.  1.
         23    2    1    2    0    0 -0.17763568394E-14  0.00000000000E+00  0.00000000000E+00  0.91188000000E+02  0.91188000000E+02 0.  0.
    9900012    2    3    3    0    0 -0.11537113295E+02  0.10185791557E+02 -0.33450329637E+02  0.54367083585E+02  0.39999998648E+02 0.  0.
         12    1    3    3    0    0  0.11537113295E+02 -0.10185791557E+02  0.33450329637E+02  0.36820916415E+02  0.00000000000E+00 0. -1.
         11    1    4    4    0    0  0.50179170550E+01 -0.53716270336E+01 -0.72200455924E+01  0.10303539546E+02  0.51100000000E-03 0. -1.
        -11    1    4    4    0    0 -0.13180205582E+02 -0.19567817235E+01 -0.22018902539E+02  0.25736722464E+02  0.51100000000E-03 0.  1.
        -12    1    4    4    0    0 -0.33748247683E+01  0.17514200314E+02 -0.42113815058E+01  0.18326821575E+02  0.00000000000E+00 0.  1.
</event>
<event>
 8    1  0.2509489E-006  0.9118800E+02  0.7816164E-02  0.1184000E+00
        -11   -1    0    0    0    0  0.00000000000E+00  0.00000000000E+00  0.45593999997E+02  0.45594000000E+02  0.51100000000E-03 0.  1.
         11   -1    0    0    0    0 -0.00000000000E+00 -0.00000000000E+00 -0.45593999997E+02  0.45594000000E+02  0.51100000000E-03 0. -1.
         23    2    1    2    0    0 -0.35527136788E-14 -0.35527136788E-14  0.00000000000E+00  0.91188000000E+02  0.91188000000E+02 0.  0.
    9900012    2    3    3    0    0  0.17789139930E+02  0.25674078246E+02 -0.19497901248E+02  0.54367082762E+02  0.39999996772E+02 0.  0.
        -12    1    3    3    0    0 -0.17789139930E+02 -0.25674078246E+02  0.19497901248E+02  0.36820917238E+02  0.00000000000E+00 0.  1.
         11    1    4    4    0    0  0.59165555642E+01  0.57582939415E+01 -0.82261877532E+01  0.11654773446E+02  0.51100000000E-03 0. -1.
        -11    1    4    4    0    0  0.71313759823E+01  0.11711616458E+02 -0.23520860438E+02  0.27225895017E+02  0.51100000000E-03 0.  1.
        -12    1    4    4    0    0  0.47412083834E+01  0.82041678461E+01  0.12249146944E+02  0.15486414299E+02  0.00000000000E+00 0.  1.
</event>
<event>
 8    1  0.2509489E-006  0.9118800E+02  0.7816164E-02  0.1184000E+00
        -11   -1    0    0    0    0  0.00000000000E+00  0.00000000000E+00  0.45593999997E+02  0.45594000000E+02  0.51100000000E-03 0.  1.
         11   -1    0    0    0    0 -0.00000000000E+00 -0.00000000000E+00 -0.45593999997E+02  0.45594000000E+02  0.51100000000E-03 0. -1.
         23    2    1    2    0    0 -0.35527136788E-14  0.00000000000E+00  0.88817841970E-15  0.91188000000E+02  0.91188000000E+02 0.  0.
    9900012    2    3    3    0    0  0.25230912415E+02  0.26080897966E+02 -0.62423012937E+01  0.54367102327E+02  0.40000041375E+02 0.  0.
         12    1    3    3    0    0 -0.25230912415E+02 -0.26080897966E+02  0.62423012937E+01  0.36820897673E+02  0.00000000000E+00 0. -1.
         11    1    4    4    0    0  0.23784611609E+02  0.20589678804E+02 -0.18391052824E+02  0.36439997899E+02  0.51100000000E-03 0. -1.
        -11    1    4    4    0    0 -0.39063678469E+01  0.60042466068E+01  0.95960200607E+01  0.11974735418E+02  0.51100000000E-03 0.  1.
         12    1    4    4    0    0  0.53526686532E+01 -0.51302744541E+00  0.25527314700E+01  0.59523690097E+01  0.00000000000E+00 0. -1.
</event>
<event>
 8    1  0.2509489E-006  0.9118800E+02  0.7816164E-02  0.1184000E+00
        -11   -1    0    0    0    0  0.00000000000E+00  0.00000000000E+00  0.45593999997E+02  0.45594000000E+02  0.51100000000E-03 0.  1.
         11   -1    0    0    0    0 -0.00000000000E+00 -0.00000000000E+00 -0.45593999997E+02  0.45594000000E+02  0.51100000000E-03 0. -1.
         23    2    1    2    0    0  0.00000000000E+00  0.22204460493E-15  0.88817841970E-15  0.91188000000E+02  0.91188000000E+02 0.  0.
    9900012    2    3    3    0    0  0.36089496151E+02 -0.29292461037E+00 -0.72966147882E+01  0.54367107498E+02  0.40000053163E+02 0.  0.
         12    1    3    3    0    0 -0.36089496151E+02  0.29292461037E+00  0.72966147882E+01  0.36820892502E+02  0.00000000000E+00 0. -1.
         11    1    4    4    0    0  0.34137041497E+01 -0.12299892638E+02  0.15309659575E+01  0.12856305533E+02  0.51100000000E-03 0.  1.
        -11    1    4    4    0    0  0.14309609759E+02  0.16189827960E+02 -0.31391910160E+01  0.21834147139E+02  0.51100000000E-03 0. -1.
         12    1    4    4    0    0  0.18366182243E+02 -0.41828599317E+01 -0.56883897297E+01  0.19676654825E+02  0.00000000000E+00 0. -1.
</event>
<event>
 8    1  0.2509489E-006  0.9118800E+02  0.7816164E-02  0.1184000E+00
        -11   -1    0    0    0    0  0.00000000000E+00  0.00000000000E+00  0.45593999997E+02  0.45594000000E+02  0.51100000000E-03 0.  1.
         11   -1    0    0    0    0 -0.00000000000E+00 -0.00000000000E+00 -0.45593999997E+02  0.45594000000E+02  0.51100000000E-03 0. -1.
         23    2    1    2    0    0  0.00000000000E+00 -0.35527136788E-14  0.00000000000E+00  0.91188000000E+02  0.91188000000E+02 0.  0.
    9900012    2    3    3    0    0  0.22833727976E+02 -0.26708724551E+02 -0.11001896217E+02  0.54367125204E+02  0.40000093527E+02 0.  0.
        -12    1    3    3    0    0 -0.22833727976E+02  0.26708724551E+02  0.11001896217E+02  0.36820874796E+02  0.00000000000E+00 0.  1.
         11    1    4    4    0    0  0.23132865948E+02 -0.20413930492E+02 -0.58406909108E+01  0.31400186554E+02  0.51100000000E-03 0. -1.
        -11    1    4    4    0    0  0.64109206290E+01  0.55790501811E+01 -0.36344050351E+01  0.92430841420E+01  0.51100000000E-03 0.  1.
        -12    1    4    4    0    0 -0.67100586012E+01 -0.11873844240E+02 -0.15268002714E+01  0.13723854507E+02  0.00000000000E+00 0.  1.
</event>
<event>
 8    1  0.2509489E-006  0.9118800E+02  0.7816164E-02  0.1184000E+00
        -11   -1    0    0    0    0  0.00000000000E+00  0.00000000000E+00  0.45593999997E+02  0.45594000000E+02  0.51100000000E-03 0. -1.
         11   -1    0    0    0    0 -0.00000000000E+00 -0.00000000000E+00 -0.45593999997E+02  0.45594000000E+02  0.51100000000E-03 0.  1.
         23    2    1    2    0    0  0.00000000000E+00  0.00000000000E+00  0.00000000000E+00  0.91188000000E+02  0.91188000000E+02 0.  0.
    9900012    2    3    3    0    0  0.33329482661E+02  0.24326202096E+01 -0.15459873928E+02  0.54367085327E+02  0.40000002619E+02 0.  0.
         12    1    3    3    0    0 -0.33329482661E+02 -0.24326202096E+01  0.15459873928E+02  0.36820914673E+02  0.00000000000E+00 0. -1.
         11    1    4    4    0    0  0.23693418749E+02  0.50952117799E+01 -0.11756167626E+02  0.26935975063E+02  0.51100000000E-03 0. -1.
        -11    1    4    4    0    0  0.10620696489E+02  0.55873693078E+01 -0.11070441796E+02  0.16327050301E+02  0.51100000000E-03 0.  1.
        -12    1    4    4    0    0 -0.98463257767E+00 -0.82499608782E+01  0.73667354945E+01  0.11104059962E+02  0.00000000000E+00 0.  1.
</event>
<event>
 8    1  0.2509489E-006  0.9118800E+02  0.7816164E-02  0.1184000E+00
        -11   -1    0    0    0    0  0.00000000000E+00  0.00000000000E+00  0.45593999997E+02  0.45594000000E+02  0.51100000000E-03 0.  1.
         11   -1    0    0    0    0 -0.00000000000E+00 -0.00000000000E+00 -0.45593999997E+02  0.45594000000E+02  0.51100000000E-03 0. -1.
         23    2    1    2    0    0  0.35527136788E-14 -0.35527136788E-14 -0.17763568394E-14  0.91188000000E+02  0.91188000000E+02 0.  0.
    9900012    2    3    3    0    0  0.26715361862E+02 -0.21889178620E+02 -0.12764519353E+02  0.54367086725E+02  0.40000005807E+02 0.  0.
        -12    1    3    3    0    0 -0.26715361862E+02  0.21889178620E+02  0.12764519353E+02  0.36820913275E+02  0.00000000000E+00 0.  1.
         11    1    4    4    0    0 -0.78457217797E+01 -0.92894114430E+01  0.24083791808E+01  0.12395515550E+02  0.51100000000E-03 0. -1.
        -11    1    4    4    0    0  0.18670493673E+02 -0.28664758490E+01 -0.16777936994E+01  0.18963623328E+02  0.51100000000E-03 0.  1.
         12    1    4    4    0    0  0.15890589969E+02 -0.97332913279E+01 -0.13495104835E+02  0.23007947847E+02  0.00000000000E+00 0. -1.
</event>
<event>
 8    1  0.2509489E-006  0.9118800E+02  0.7816164E-02  0.1184000E+00
        -11   -1    0    0    0    0  0.00000000000E+00  0.00000000000E+00  0.45593999997E+02  0.45594000000E+02  0.51100000000E-03 0.  1.
         11   -1    0    0    0    0 -0.00000000000E+00 -0.00000000000E+00 -0.45593999997E+02  0.45594000000E+02  0.51100000000E-03 0. -1.
         23    2    1    2    0    0 -0.88817841970E-15 -0.71054273576E-14  0.00000000000E+00  0.91188000000E+02  0.91188000000E+02 0.  0.
    9900012    2    3    3    0    0 -0.46061911391E+01 -0.26254757307E+02 -0.25401750764E+02  0.54367106204E+02  0.40000050213E+02 0.  0.
        -12    1    3    3    0    0  0.46061911391E+01  0.26254757307E+02  0.25401750764E+02  0.36820893796E+02  0.00000000000E+00 0.  1.
         11    1    4    4    0    0 -0.88759095999E+01 -0.82258233757E+01 -0.13721689917E+02  0.18295647457E+02  0.51100000000E-03 0. -1.
        -11    1    4    4    0    0  0.62975588678E+01 -0.22400689107E+02 -0.17056812077E+02  0.28851082453E+02  0.51100000000E-03 0.  1.
         12    1    4    4    0    0 -0.20278404069E+01  0.43717551765E+01  0.53767512301E+01  0.72203762942E+01  0.00000000000E+00 0. -1.
</event>
<event>
 8    1  0.2509489E-006  0.9118800E+02  0.7816164E-02  0.1184000E+00
        -11   -1    0    0    0    0  0.00000000000E+00  0.00000000000E+00  0.45593999997E+02  0.45594000000E+02  0.51100000000E-03 0. -1.
         11   -1    0    0    0    0 -0.00000000000E+00 -0.00000000000E+00 -0.45593999997E+02  0.45594000000E+02  0.51100000000E-03 0.  1.
         23    2    1    2    0    0 -0.35527136788E-14 -0.17763568394E-14  0.00000000000E+00  0.91188000000E+02  0.91188000000E+02 0.  0.
    9900012    2    3    3    0    0  0.30626898744E+02  0.11520628702E+02  0.16883344690E+02  0.54367093706E+02  0.40000021722E+02 0.  0.
         12    1    3    3    0    0 -0.30626898744E+02 -0.11520628702E+02 -0.16883344690E+02  0.36820906294E+02  0.00000000000E+00 0. -1.
         11    1    4    4    0    0  0.16268161565E+02 -0.70465318937E+01  0.15333924132E+02  0.23440049530E+02  0.51100000000E-03 0. -1.
        -11    1    4    4    0    0 -0.47480847748E+01  0.49888631866E+01 -0.21096071227E+01  0.72030207133E+01  0.51100000000E-03 0.  1.
         12    1    4    4    0    0  0.19106821954E+02  0.13578297409E+02  0.36590276809E+01  0.23724023463E+02  0.00000000000E+00 0. -1.
</event>
<event>
 8    1  0.2509489E-006  0.9118800E+02  0.7816164E-02  0.1184000E+00
        -11   -1    0    0    0    0  0.00000000000E+00  0.00000000000E+00  0.45593999997E+02  0.45594000000E+02  0.51100000000E-03 0. -1.
         11   -1    0    0    0    0 -0.00000000000E+00 -0.00000000000E+00 -0.45593999997E+02  0.45594000000E+02  0.51100000000E-03 0.  1.
         23    2    1    2    0    0 -0.84654505628E-15  0.17763568394E-14  0.71054273576E-14  0.91188000000E+02  0.91188000000E+02 0.  0.
    9900012    2    3    3    0    0 -0.69121533622E-01  0.81150693628E+01  0.35915474864E+02  0.54367075741E+02  0.39999980768E+02 0.  0.
        -12    1    3    3    0    0  0.69121533622E-01 -0.81150693628E+01 -0.35915474864E+02  0.36820924259E+02  0.00000000000E+00 0.  1.
         11    1    4    4    0    0  0.72487392809E+01 -0.82813306644E+01  0.24560146791E+02  0.26913295402E+02  0.51100000000E-03 0. -1.
        -11    1    4    4    0    0 -0.70226181967E+01 -0.91118775703E+00  0.61465541504E+01  0.93769695344E+01  0.51100000000E-03 0.  1.
         12    1    4    4    0    0 -0.29524261786E+00  0.17307587784E+02  0.52087739227E+01  0.18076810805E+02  0.00000000000E+00 0. -1.
</event>
<event>
 8    1  0.2509489E-006  0.9118800E+02  0.7816164E-02  0.1184000E+00
        -11   -1    0    0    0    0  0.00000000000E+00  0.00000000000E+00  0.45593999997E+02  0.45594000000E+02  0.51100000000E-03 0. -1.
         11   -1    0    0    0    0 -0.00000000000E+00 -0.00000000000E+00 -0.45593999997E+02  0.45594000000E+02  0.51100000000E-03 0.  1.
         23    2    1    2    0    0  0.17763568394E-14  0.88817841970E-15  0.00000000000E+00  0.91188000000E+02  0.91188000000E+02 0.  0.
    9900012    2    3    3    0    0 -0.15774277127E+02 -0.76015927809E+01 -0.32390791342E+02  0.54367144558E+02  0.40000137648E+02 0.  0.
         12    1    3    3    0    0  0.15774277127E+02  0.76015927809E+01  0.32390791342E+02  0.36820855442E+02  0.00000000000E+00 0. -1.
         11    1    4    4    0    0 -0.21935188032E+02 -0.10044859763E+02 -0.97417263948E+01  0.26018318837E+02  0.51100000000E-03 0. -1.
        -11    1    4    4    0    0  0.44705338238E+01  0.37486593841E+01 -0.24098450870E+00  0.58391946057E+01  0.51100000000E-03 0.  1.
        -12    1    4    4    0    0  0.16903770811E+01 -0.13053924017E+01 -0.22408080439E+02  0.22509631116E+02  0.00000000000E+00 0.  1.
</event>
<event>
 8    1  0.2509489E-006  0.9118800E+02  0.7816164E-02  0.1184000E+00
        -11   -1    0    0    0    0  0.00000000000E+00  0.00000000000E+00  0.45593999997E+02  0.45594000000E+02  0.51100000000E-03 0. -1.
         11   -1    0    0    0    0 -0.00000000000E+00 -0.00000000000E+00 -0.45593999997E+02  0.45594000000E+02  0.51100000000E-03 0.  1.
         23    2    1    2    0    0  0.00000000000E+00  0.00000000000E+00  0.35527136788E-14  0.91188000000E+02  0.91188000000E+02 0.  0.
    9900012    2    3    3    0    0 -0.13320232403E+02 -0.25392186256E+02  0.23099543360E+02  0.54367073646E+02  0.39999975991E+02 0.  0.
        -12    1    3    3    0    0  0.13320232403E+02  0.25392186256E+02 -0.23099543360E+02  0.36820926354E+02  0.00000000000E+00 0.  1.
         11    1    4    4    0    0 -0.19453139175E+02 -0.22463867795E+02  0.22916230858E+02  0.37526039187E+02  0.51100000000E-03 0. -1.
        -11    1    4    4    0    0  0.80305888510E+01 -0.75579561479E+01 -0.22846533656E+01  0.11262002472E+02  0.51100000000E-03 0.  1.
         12    1    4    4    0    0 -0.18976820794E+01  0.46296376869E+01  0.24679658674E+01  0.55790319867E+01  0.00000000000E+00 0. -1.
</event>
<event>
 8    1  0.2509489E-006  0.9118800E+02  0.7816164E-02  0.1184000E+00
        -11   -1    0    0    0    0  0.00000000000E+00  0.00000000000E+00  0.45593999997E+02  0.45594000000E+02  0.51100000000E-03 0.  1.
         11   -1    0    0    0    0 -0.00000000000E+00 -0.00000000000E+00 -0.45593999997E+02  0.45594000000E+02  0.51100000000E-03 0. -1.
         23    2    1    2    0    0  0.00000000000E+00  0.63837823916E-15  0.00000000000E+00  0.91188000000E+02  0.91188000000E+02 0.  0.
    9900012    2    3    3    0    0  0.14648511165E+02 -0.18991045682E+00  0.33781095671E+02  0.54367117744E+02  0.40000076522E+02 0.  0.
         12    1    3    3    0    0 -0.14648511165E+02  0.18991045682E+00 -0.33781095671E+02  0.36820882256E+02  0.00000000000E+00 0. -1.
         11    1    4    4    0    0  0.19958120562E+02  0.77694985845E+01  0.24927055054E+02  0.32864110494E+02  0.51100000000E-03 0. -1.
        -11    1    4    4    0    0 -0.17421034617E+01  0.18570360309E+01  0.10610498188E+02  0.10911745019E+02  0.51100000000E-03 0.  1.
         12    1    4    4    0    0 -0.35675059355E+01 -0.98164450723E+01 -0.17564575715E+01  0.10591262232E+02  0.00000000000E+00 0. -1.
</event>
<event>
 8    1  0.2509489E-006  0.9118800E+02  0.7816164E-02  0.1184000E+00
        -11   -1    0    0    0    0  0.00000000000E+00  0.00000000000E+00  0.45593999997E+02  0.45594000000E+02  0.51100000000E-03 0.  1.
         11   -1    0    0    0    0 -0.00000000000E+00 -0.00000000000E+00 -0.45593999997E+02  0.45594000000E+02  0.51100000000E-03 0. -1.
         23    2    1    2    0    0  0.00000000000E+00  0.00000000000E+00  0.88817841970E-15  0.91188000000E+02  0.91188000000E+02 0.  0.
    9900012    2    3    3    0    0 -0.30269989183E+02  0.19581304879E+02 -0.74885696908E+01  0.54367103461E+02  0.40000043960E+02 0.  0.
        -12    1    3    3    0    0  0.30269989183E+02 -0.19581304879E+02  0.74885696908E+01  0.36820896539E+02  0.00000000000E+00 0.  1.
         11    1    4    4    0    0  0.96259297942E+00  0.10764644805E+02 -0.59423992419E+01  0.12333542558E+02  0.51100000000E-03 0. -1.
        -11    1    4    4    0    0 -0.36419609577E+01 -0.86210990027E+01 -0.66637395357E+00  0.93824987151E+01  0.51100000000E-03 0.  1.
         12    1    4    4    0    0 -0.27590621205E+02  0.17437759077E+02 -0.87979649528E+00  0.32651062188E+02  0.00000000000E+00 0. -1.
</event>
<event>
 8    1  0.2509489E-006  0.9118800E+02  0.7816164E-02  0.1184000E+00
        -11   -1    0    0    0    0  0.00000000000E+00  0.00000000000E+00  0.45593999997E+02  0.45594000000E+02  0.51100000000E-03 0. -1.
         11   -1    0    0    0    0 -0.00000000000E+00 -0.00000000000E+00 -0.45593999997E+02  0.45594000000E+02  0.51100000000E-03 0.  1.
         23    2    1    2    0    0  0.00000000000E+00  0.00000000000E+00  0.88817841970E-15  0.91188000000E+02  0.91188000000E+02 0.  0.
    9900012    2    3    3    0    0 -0.34765938383E+02 -0.11535527062E+02  0.37470675641E+01  0.54367090566E+02  0.40000014562E+02 0.  0.
         12    1    3    3    0    0  0.34765938383E+02  0.11535527062E+02 -0.37470675641E+01  0.36820909434E+02  0.00000000000E+00 0. -1.
         11    1    4    4    0    0 -0.11279578271E+02 -0.48484469516E+01  0.48798522436E+01  0.13211710033E+02  0.51100000000E-03 0. -1.
        -11    1    4    4    0    0 -0.69146881383E+01 -0.15417738579E+02  0.97340279007E+01  0.19500535233E+02  0.51100000000E-03 0.  1.
        -12    1    4    4    0    0 -0.16571671974E+02  0.87306584688E+01 -0.10866812580E+02  0.21654845300E+02  0.00000000000E+00 0.  1.
</event>
<event>
 8    1  0.2509489E-006  0.9118800E+02  0.7816164E-02  0.1184000E+00
        -11   -1    0    0    0    0  0.00000000000E+00  0.00000000000E+00  0.45593999997E+02  0.45594000000E+02  0.51100000000E-03 0.  1.
         11   -1    0    0    0    0 -0.00000000000E+00 -0.00000000000E+00 -0.45593999997E+02  0.45594000000E+02  0.51100000000E-03 0. -1.
         23    2    1    2    0    0  0.00000000000E+00  0.17763568394E-14  0.00000000000E+00  0.91188000000E+02  0.91188000000E+02 0.  0.
    9900012    2    3    3    0    0 -0.16055835475E+02  0.68913209182E+01 -0.32411408838E+02  0.54367087740E+02  0.40000008121E+02 0.  0.
        -12    1    3    3    0    0  0.16055835475E+02 -0.68913209182E+01  0.32411408838E+02  0.36820912260E+02  0.00000000000E+00 0.  1.
         11    1    4    4    0    0 -0.12315108982E+02  0.19035639224E+02 -0.29651233635E+02  0.37325770270E+02  0.51100000000E-03 0. -1.
        -11    1    4    4    0    0 -0.22573015572E+01  0.35219298321E+00  0.25135765075E+01  0.33966921171E+01  0.51100000000E-03 0.  1.
         12    1    4    4    0    0 -0.14834249352E+01 -0.12496511289E+02 -0.52737517105E+01  0.13644625353E+02  0.00000000000E+00 0. -1.
</event>
<event>
 8    1  0.2509489E-006  0.9118800E+02  0.7816164E-02  0.1184000E+00
        -11   -1    0    0    0    0  0.00000000000E+00  0.00000000000E+00  0.45593999997E+02  0.45594000000E+02  0.51100000000E-03 0.  1.
         11   -1    0    0    0    0 -0.00000000000E+00 -0.00000000000E+00 -0.45593999997E+02  0.45594000000E+02  0.51100000000E-03 0. -1.
         23    2    1    2    0    0  0.26645352591E-14  0.00000000000E+00  0.00000000000E+00  0.91188000000E+02  0.91188000000E+02 0.  0.
    9900012    2    3    3    0    0  0.58478743832E+01 -0.27596502278E+02  0.23664653786E+02  0.54367076443E+02  0.39999982367E+02 0.  0.
        -12    1    3    3    0    0 -0.58478743832E+01  0.27596502278E+02 -0.23664653786E+02  0.36820923557E+02  0.00000000000E+00 0.  1.
         11    1    4    4    0    0  0.16452154830E+02 -0.74009584957E+01  0.14380168487E+01  0.18097388705E+02  0.51100000000E-03 0. -1.
        -11    1    4    4    0    0 -0.67710403255E+01 -0.22224566181E+02  0.21887556158E+02  0.31919327121E+02  0.51100000000E-03 0.  1.
        -12    1    4    4    0    0 -0.38332401216E+01  0.20290223990E+01  0.33908077945E+00  0.43503606173E+01  0.00000000000E+00 0.  1.
</event>
<event>
 8    1  0.2509489E-006  0.9118800E+02  0.7816164E-02  0.1184000E+00
        -11   -1    0    0    0    0  0.00000000000E+00  0.00000000000E+00  0.45593999997E+02  0.45594000000E+02  0.51100000000E-03 0.  1.
         11   -1    0    0    0    0 -0.00000000000E+00 -0.00000000000E+00 -0.45593999997E+02  0.45594000000E+02  0.51100000000E-03 0. -1.
         23    2    1    2    0    0  0.00000000000E+00 -0.88817841970E-15  0.00000000000E+00  0.91188000000E+02  0.91188000000E+02 0.  0.
    9900012    2    3    3    0    0 -0.35388994452E+02  0.34364289915E+01 -0.95701709283E+01  0.54367107233E+02  0.40000052559E+02 0.  0.
         12    1    3    3    0    0  0.35388994452E+02 -0.34364289915E+01  0.95701709283E+01  0.36820892767E+02  0.00000000000E+00 0. -1.
         11    1    4    4    0    0  0.37504651333E+01  0.65463220408E+01 -0.26714890252E+01  0.80035726304E+01  0.51100000000E-03 0. -1.
        -11    1    4    4    0    0 -0.29920870038E+01 -0.87538489691E+01 -0.18010243157E+01  0.94247623450E+01  0.51100000000E-03 0.  1.
        -12    1    4    4    0    0 -0.36147372582E+02  0.56439559199E+01 -0.50976575874E+01  0.36938772257E+02  0.00000000000E+00 0.  1.
</event>
<event>
 8    1  0.2509489E-006  0.9118800E+02  0.7816164E-02  0.1184000E+00
        -11   -1    0    0    0    0  0.00000000000E+00  0.00000000000E+00  0.45593999997E+02  0.45594000000E+02  0.51100000000E-03 0. -1.
         11   -1    0    0    0    0 -0.00000000000E+00 -0.00000000000E+00 -0.45593999997E+02  0.45594000000E+02  0.51100000000E-03 0.  1.
         23    2    1    2    0    0  0.00000000000E+00 -0.71054273576E-14 -0.17763568394E-14  0.91188000000E+02  0.91188000000E+02 0.  0.
    9900012    2    3    3    0    0 -0.14281563253E+02  0.31125958149E+02 -0.13527490120E+02  0.54367064263E+02  0.39999954600E+02 0.  0.
         12    1    3    3    0    0  0.14281563253E+02 -0.31125958149E+02  0.13527490120E+02  0.36820935737E+02  0.00000000000E+00 0. -1.
         11    1    4    4    0    0 -0.56747724882E+01 -0.78105257151E+01 -0.67079879597E+01  0.11756039191E+02  0.51100000000E-03 0. -1.
        -11    1    4    4    0    0 -0.76522741894E+01  0.19606939011E+02 -0.94656410093E+01  0.23077862068E+02  0.51100000000E-03 0.  1.
         12    1    4    4    0    0 -0.95451657525E+00  0.19329544853E+02  0.26461388490E+01  0.19533163003E+02  0.00000000000E+00 0. -1.
</event>
<event>
 8    1  0.2509489E-006  0.9118800E+02  0.7816164E-02  0.1184000E+00
        -11   -1    0    0    0    0  0.00000000000E+00  0.00000000000E+00  0.45593999997E+02  0.45594000000E+02  0.51100000000E-03 0. -1.
         11   -1    0    0    0    0 -0.00000000000E+00 -0.00000000000E+00 -0.45593999997E+02  0.45594000000E+02  0.51100000000E-03 0.  1.
         23    2    1    2    0    0  0.00000000000E+00  0.00000000000E+00 -0.35527136788E-14  0.91188000000E+02  0.91188000000E+02 0.  0.
    9900012    2    3    3    0    0  0.31501519394E+02  0.18008435337E+02  0.62553617789E+01  0.54367095362E+02  0.40000025496E+02 0.  0.
        -12    1    3    3    0    0 -0.31501519394E+02 -0.18008435337E+02 -0.62553617789E+01  0.36820904638E+02  0.00000000000E+00 0.  1.
         11    1    4    4    0    0  0.11528392659E+02  0.10429448927E+02 -0.74302767632E+01  0.17230387554E+02  0.51100000000E-03 0. -1.
        -11    1    4    4    0    0  0.57699128423E+01  0.10524305062E+01 -0.82986095511E+01  0.10162008902E+02  0.51100000000E-03 0.  1.
         12    1    4    4    0    0  0.14203213892E+02  0.65265559044E+01  0.21984248093E+02  0.26974698906E+02  0.00000000000E+00 0. -1.
</event>
<event>
 8    1  0.2509489E-006  0.9118800E+02  0.7816164E-02  0.1184000E+00
        -11   -1    0    0    0    0  0.00000000000E+00  0.00000000000E+00  0.45593999997E+02  0.45594000000E+02  0.51100000000E-03 0.  1.
         11   -1    0    0    0    0 -0.00000000000E+00 -0.00000000000E+00 -0.45593999997E+02  0.45594000000E+02  0.51100000000E-03 0. -1.
         23    2    1    2    0    0  0.00000000000E+00  0.22204460493E-14  0.00000000000E+00  0.91188000000E+02  0.91188000000E+02 0.  0.
    9900012    2    3    3    0    0 -0.22763949468E+02  0.36724983720E+01 -0.28707046998E+02  0.54367093072E+02  0.40000020277E+02 0.  0.
        -12    1    3    3    0    0  0.22763949468E+02 -0.36724983720E+01  0.28707046998E+02  0.36820906928E+02  0.00000000000E+00 0.  1.
         11    1    4    4    0    0 -0.60671805085E+01  0.76058135146E+01 -0.83887746079E+00  0.97653875600E+01  0.51100000000E-03 0. -1.
        -11    1    4    4    0    0 -0.18377715188E+00 -0.91700917849E+01 -0.25522043040E+02  0.27120085520E+02  0.51100000000E-03 0.  1.
        -12    1    4    4    0    0 -0.16512991807E+02  0.52367766422E+01 -0.23461264963E+01  0.17481619992E+02  0.00000000000E+00 0.  1.
</event>
<event>
 8    1  0.2509489E-006  0.9118800E+02  0.7816164E-02  0.1184000E+00
        -11   -1    0    0    0    0  0.00000000000E+00  0.00000000000E+00  0.45593999997E+02  0.45594000000E+02  0.51100000000E-03 0.  1.
         11   -1    0    0    0    0 -0.00000000000E+00 -0.00000000000E+00 -0.45593999997E+02  0.45594000000E+02  0.51100000000E-03 0. -1.
         23    2    1    2    0    0  0.00000000000E+00  0.35527136788E-14  0.00000000000E+00  0.91188000000E+02  0.91188000000E+02 0.  0.
    9900012    2    3    3    0    0  0.26804897145E+02 -0.20424326023E+02  0.14836695597E+02  0.54367039384E+02  0.39999897883E+02 0.  0.
         12    1    3    3    0    0 -0.26804897145E+02  0.20424326023E+02 -0.14836695597E+02  0.36820960616E+02  0.00000000000E+00 0. -1.
         11    1    4    4    0    0  0.37089337241E+01 -0.94228965411E+01  0.15379690493E+02  0.18414180637E+02  0.51100000000E-03 0. -1.
        -11    1    4    4    0    0  0.77321606771E+01 -0.12981719821E+02  0.91641488786E+01  0.17671813240E+02  0.51100000000E-03 0.  1.
         12    1    4    4    0    0  0.15363802744E+02  0.19802903391E+01 -0.97071437743E+01  0.18281045507E+02  0.00000000000E+00 0. -1.
</event>
<event>
 8    1  0.2509489E-006  0.9118800E+02  0.7816164E-02  0.1184000E+00
        -11   -1    0    0    0    0  0.00000000000E+00  0.00000000000E+00  0.45593999997E+02  0.45594000000E+02  0.51100000000E-03 0. -1.
         11   -1    0    0    0    0 -0.00000000000E+00 -0.00000000000E+00 -0.45593999997E+02  0.45594000000E+02  0.51100000000E-03 0.  1.
         23    2    1    2    0    0  0.00000000000E+00  0.00000000000E+00  0.00000000000E+00  0.91188000000E+02  0.91188000000E+02 0.  0.
    9900012    2    3    3    0    0  0.78823297168E+01 -0.78474714064E+01 -0.35100798011E+02  0.54367082708E+02  0.39999996649E+02 0.  0.
         12    1    3    3    0    0 -0.78823297168E+01  0.78474714064E+01  0.35100798011E+02  0.36820917292E+02  0.00000000000E+00 0. -1.
         11    1    4    4    0    0  0.21790748158E+02 -0.40246781982E+01 -0.30638374522E+02  0.37811965480E+02  0.51100000000E-03 0. -1.
        -11    1    4    4    0    0 -0.52416275613E+01 -0.11195442604E+01 -0.51726576832E+01  0.74487869221E+01  0.51100000000E-03 0.  1.
         12    1    4    4    0    0 -0.86667908796E+01 -0.27032489477E+01  0.71023419389E+00  0.91063303056E+01  0.00000000000E+00 0. -1.
</event>
<event>
 8    1  0.2509489E-006  0.9118800E+02  0.7816164E-02  0.1184000E+00
        -11   -1    0    0    0    0  0.00000000000E+00  0.00000000000E+00  0.45593999997E+02  0.45594000000E+02  0.51100000000E-03 0. -1.
         11   -1    0    0    0    0 -0.00000000000E+00 -0.00000000000E+00 -0.45593999997E+02  0.45594000000E+02  0.51100000000E-03 0.  1.
         23    2    1    2    0    0  0.00000000000E+00  0.00000000000E+00  0.00000000000E+00  0.91188000000E+02  0.91188000000E+02 0.  0.
    9900012    2    3    3    0    0 -0.35931264329E+02  0.64340130288E+01  0.48298526309E+01  0.54367085340E+02  0.40000002650E+02 0.  0.
        -12    1    3    3    0    0  0.35931264329E+02 -0.64340130288E+01 -0.48298526309E+01  0.36820914660E+02  0.00000000000E+00 0.  1.
         11    1    4    4    0    0 -0.17712284108E+02  0.99160462950E+01  0.14342825112E+02  0.24854971633E+02  0.51100000000E-03 0. -1.
        -11    1    4    4    0    0 -0.10858863121E+02  0.83486890578E+01 -0.68956271139E+01  0.15335096700E+02  0.51100000000E-03 0.  1.
        -12    1    4    4    0    0 -0.73601171009E+01 -0.11830722324E+02 -0.26173453670E+01  0.14177017007E+02  0.00000000000E+00 0.  1.
</event>
<event>
 8    1  0.2509489E-006  0.9118800E+02  0.7816164E-02  0.1184000E+00
        -11   -1    0    0    0    0  0.00000000000E+00  0.00000000000E+00  0.45593999997E+02  0.45594000000E+02  0.51100000000E-03 0. -1.
         11   -1    0    0    0    0 -0.00000000000E+00 -0.00000000000E+00 -0.45593999997E+02  0.45594000000E+02  0.51100000000E-03 0.  1.
         23    2    1    2    0    0  0.00000000000E+00  0.00000000000E+00 -0.17763568394E-14  0.91188000000E+02  0.91188000000E+02 0.  0.
    9900012    2    3    3    0    0 -0.38340669661E+01 -0.35686698319E+02 -0.82182388008E+01  0.54367082638E+02  0.39999996489E+02 0.  0.
         12    1    3    3    0    0  0.38340669661E+01  0.35686698319E+02  0.82182388008E+01  0.36820917362E+02  0.00000000000E+00 0. -1.
         11    1    4    4    0    0  0.79739479296E+01 -0.12855199283E+02 -0.16488775348E+02  0.22376767124E+02  0.51100000000E-03 0.  1.
        -11    1    4    4    0    0 -0.12259556014E+02 -0.15624457891E+02  0.12648379749E+02  0.23545740773E+02  0.51100000000E-03 0. -1.
         12    1    4    4    0    0  0.45154111796E+00 -0.72070411449E+01 -0.43778432011E+01  0.84445747400E+01  0.00000000000E+00 0. -1.
</event>
<event>
 8    1  0.2509489E-006  0.9118800E+02  0.7816164E-02  0.1184000E+00
        -11   -1    0    0    0    0  0.00000000000E+00  0.00000000000E+00  0.45593999997E+02  0.45594000000E+02  0.51100000000E-03 0. -1.
         11   -1    0    0    0    0 -0.00000000000E+00 -0.00000000000E+00 -0.45593999997E+02  0.45594000000E+02  0.51100000000E-03 0.  1.
         23    2    1    2    0    0  0.00000000000E+00  0.88817841970E-15  0.00000000000E+00  0.91188000000E+02  0.91188000000E+02 0.  0.
    9900012    2    3    3    0    0 -0.35329045658E+02 -0.76878979700E+01 -0.69667280404E+01  0.54367074674E+02  0.39999978333E+02 0.  0.
         12    1    3    3    0    0  0.35329045658E+02  0.76878979700E+01  0.69667280404E+01  0.36820925326E+02  0.00000000000E+00 0. -1.
         11    1    4    4    0    0  0.27314939445E+01  0.46522063258E+01 -0.72620782130E+01  0.90466492747E+01  0.51100000000E-03 0. -1.
        -11    1    4    4    0    0 -0.16245511320E+02 -0.32506315425E+01 -0.10206629500E+02  0.19459150277E+02  0.51100000000E-03 0.  1.
         12    1    4    4    0    0 -0.21815028282E+02 -0.90894727534E+01  0.10501979673E+02  0.25861275122E+02  0.00000000000E+00 0. -1.
</event>
<event>
 8    1  0.2509489E-006  0.9118800E+02  0.7816164E-02  0.1184000E+00
        -11   -1    0    0    0    0  0.00000000000E+00  0.00000000000E+00  0.45593999997E+02  0.45594000000E+02  0.51100000000E-03 0.  1.
         11   -1    0    0    0    0 -0.00000000000E+00 -0.00000000000E+00 -0.45593999997E+02  0.45594000000E+02  0.51100000000E-03 0. -1.
         23    2    1    2    0    0  0.00000000000E+00 -0.44408920985E-15  0.35527136788E-14  0.91188000000E+02  0.91188000000E+02 0.  0.
    9900012    2    3    3    0    0 -0.26231253909E+02  0.30704809234E+01 -0.25656823362E+02  0.54367093985E+02  0.40000022358E+02 0.  0.
        -12    1    3    3    0    0  0.26231253909E+02 -0.30704809234E+01  0.25656823362E+02  0.36820906015E+02  0.00000000000E+00 0.  1.
         11    1    4    4    0    0 -0.10384603467E+02  0.99074267285E+01 -0.95134975513E-01  0.14352914145E+02  0.51100000000E-03 0. -1.
        -11    1    4    4    0    0  0.57859242045E+01 -0.50599133893E+01 -0.19256713747E+01  0.79238786533E+01  0.51100000000E-03 0.  1.
        -12    1    4    4    0    0 -0.21632574647E+02 -0.17770324159E+01 -0.23636017011E+02  0.32090301186E+02  0.00000000000E+00 0.  1.
</event>
<event>
 8    1  0.2509489E-006  0.9118800E+02  0.7816164E-02  0.1184000E+00
        -11   -1    0    0    0    0  0.00000000000E+00  0.00000000000E+00  0.45593999997E+02  0.45594000000E+02  0.51100000000E-03 0. -1.
         11   -1    0    0    0    0 -0.00000000000E+00 -0.00000000000E+00 -0.45593999997E+02  0.45594000000E+02  0.51100000000E-03 0.  1.
         23    2    1    2    0    0 -0.71054273576E-14  0.88817841970E-15  0.00000000000E+00  0.91188000000E+02  0.91188000000E+02 0.  0.
    9900012    2    3    3    0    0  0.16261326272E+02 -0.27408811614E+01  0.32921659018E+02  0.54367098406E+02  0.40000032437E+02 0.  0.
        -12    1    3    3    0    0 -0.16261326272E+02  0.27408811614E+01 -0.32921659018E+02  0.36820901594E+02  0.00000000000E+00 0.  1.
         11    1    4    4    0    0  0.57084118446E+01 -0.76318455040E+00  0.79756468638E+01  0.98376501057E+01  0.51100000000E-03 0. -1.
        -11    1    4    4    0    0 -0.11103041715E+02  0.67982609735E+01  0.55135490715E+01  0.14138356029E+02  0.51100000000E-03 0.  1.
        -12    1    4    4    0    0  0.21655956143E+02 -0.87759575845E+01  0.19432463083E+02  0.30391092271E+02  0.00000000000E+00 0.  1.
</event>
<event>
 8    1  0.2509489E-006  0.9118800E+02  0.7816164E-02  0.1184000E+00
        -11   -1    0    0    0    0  0.00000000000E+00  0.00000000000E+00  0.45593999997E+02  0.45594000000E+02  0.51100000000E-03 0.  1.
         11   -1    0    0    0    0 -0.00000000000E+00 -0.00000000000E+00 -0.45593999997E+02  0.45594000000E+02  0.51100000000E-03 0. -1.
         23    2    1    2    0    0  0.00000000000E+00  0.13322676296E-14  0.00000000000E+00  0.91188000000E+02  0.91188000000E+02 0.  0.
    9900012    2    3    3    0    0  0.28808136485E+02  0.32879225773E+01  0.22694935410E+02  0.54367092136E+02  0.40000018143E+02 0.  0.
         12    1    3    3    0    0 -0.28808136485E+02 -0.32879225773E+01 -0.22694935410E+02  0.36820907864E+02  0.00000000000E+00 0. -1.
         11    1    4    4    0    0  0.23221244513E+02  0.49204662870E+01  0.61402715636E+01  0.24518158992E+02  0.51100000000E-03 0. -1.
        -11    1    4    4    0    0  0.57193998645E+01  0.99178225318E+01  0.13879479737E+02  0.17992073161E+02  0.51100000000E-03 0.  1.
         12    1    4    4    0    0 -0.13250789206E+00 -0.11550366242E+02  0.26751841090E+01  0.11856859984E+02  0.00000000000E+00 0. -1.
</event>
<event>
 8    1  0.2509489E-006  0.9118800E+02  0.7816164E-02  0.1184000E+00
        -11   -1    0    0    0    0  0.00000000000E+00  0.00000000000E+00  0.45593999997E+02  0.45594000000E+02  0.51100000000E-03 0.  1.
         11   -1    0    0    0    0 -0.00000000000E+00 -0.00000000000E+00 -0.45593999997E+02  0.45594000000E+02  0.51100000000E-03 0. -1.
         23    2    1    2    0    0  0.88817841970E-15  0.00000000000E+00  0.00000000000E+00  0.91188000000E+02  0.91188000000E+02 0.  0.
    9900012    2    3    3    0    0 -0.43683107592E+01 -0.16355413261E+02 -0.32698603732E+02  0.54367077037E+02  0.39999983721E+02 0.  0.
        -12    1    3    3    0    0  0.43683107592E+01  0.16355413261E+02  0.32698603732E+02  0.36820922963E+02  0.00000000000E+00 0.  1.
         11    1    4    4    0    0 -0.81350320330E+01 -0.12542427885E+02 -0.49069849622E+01  0.15734349212E+02  0.51100000000E-03 0. -1.
        -11    1    4    4    0    0  0.94218164134E+01  0.88739157365E+01 -0.13634964093E+02  0.18799714123E+02  0.51100000000E-03 0.  1.
         12    1    4    4    0    0 -0.56550951397E+01 -0.12686901112E+02 -0.14156654676E+02  0.19833013702E+02  0.00000000000E+00 0. -1.
</event>
<event>
 8    1  0.2509489E-006  0.9118800E+02  0.7816164E-02  0.1184000E+00
        -11   -1    0    0    0    0  0.00000000000E+00  0.00000000000E+00  0.45593999997E+02  0.45594000000E+02  0.51100000000E-03 0. -1.
         11   -1    0    0    0    0 -0.00000000000E+00 -0.00000000000E+00 -0.45593999997E+02  0.45594000000E+02  0.51100000000E-03 0.  1.
         23    2    1    2    0    0  0.00000000000E+00  0.17763568394E-14  0.00000000000E+00  0.91188000000E+02  0.91188000000E+02 0.  0.
    9900012    2    3    3    0    0  0.15508574705E+01 -0.95975605954E+01 -0.35514242719E+02  0.54367085235E+02  0.40000002409E+02 0.  0.
         12    1    3    3    0    0 -0.15508574705E+01  0.95975605954E+01  0.35514242719E+02  0.36820914765E+02  0.00000000000E+00 0. -1.
         11    1    4    4    0    0 -0.10169259458E+02  0.56476040760E+01 -0.10129135951E+02  0.15424288156E+02  0.51100000000E-03 0. -1.
        -11    1    4    4    0    0  0.10115496824E+02 -0.37726663040E+01 -0.25135451887E+02  0.27355935898E+02  0.51100000000E-03 0.  1.
         12    1    4    4    0    0  0.16046201047E+01 -0.11472498367E+02 -0.24965488112E+00  0.11586861181E+02  0.00000000000E+00 0. -1.
</event>
<event>
 8    1  0.2509489E-006  0.9118800E+02  0.7816164E-02  0.1184000E+00
        -11   -1    0    0    0    0  0.00000000000E+00  0.00000000000E+00  0.45593999997E+02  0.45594000000E+02  0.51100000000E-03 0.  1.
         11   -1    0    0    0    0 -0.00000000000E+00 -0.00000000000E+00 -0.45593999997E+02  0.45594000000E+02  0.51100000000E-03 0. -1.
         23    2    1    2    0    0 -0.71054273576E-14 -0.88817841970E-15  0.00000000000E+00  0.91188000000E+02  0.91188000000E+02 0.  0.
    9900012    2    3    3    0    0 -0.32140477548E+02  0.60766539591E+01 -0.16906898383E+02  0.54367092444E+02  0.40000018844E+02 0.  0.
        -12    1    3    3    0    0  0.32140477548E+02 -0.60766539591E+01  0.16906898383E+02  0.36820907556E+02  0.00000000000E+00 0.  1.
         11    1    4    4    0    0 -0.16261606505E+02  0.92835176330E+01 -0.11373668707E+02  0.21908534545E+02  0.51100000000E-03 0. -1.
        -11    1    4    4    0    0 -0.17927384968E+02 -0.12225288044E+02 -0.34318468320E-01  0.21699077805E+02  0.51100000000E-03 0.  1.
         12    1    4    4    0    0  0.20485139255E+01  0.90184243706E+01 -0.54989112075E+01  0.10759480094E+02  0.00000000000E+00 0. -1.
</event>
<event>
 8    1  0.2509489E-006  0.9118800E+02  0.7816164E-02  0.1184000E+00
        -11   -1    0    0    0    0  0.00000000000E+00  0.00000000000E+00  0.45593999997E+02  0.45594000000E+02  0.51100000000E-03 0.  1.
         11   -1    0    0    0    0 -0.00000000000E+00 -0.00000000000E+00 -0.45593999997E+02  0.45594000000E+02  0.51100000000E-03 0. -1.
         23    2    1    2    0    0  0.35527136788E-14  0.00000000000E+00  0.00000000000E+00  0.91188000000E+02  0.91188000000E+02 0.  0.
    9900012    2    3    3    0    0  0.21657063812E+02 -0.27875498338E+02  0.10474184644E+02  0.54367077082E+02  0.39999983825E+02 0.  0.
         12    1    3    3    0    0 -0.21657063812E+02  0.27875498338E+02 -0.10474184644E+02  0.36820922918E+02  0.00000000000E+00 0. -1.
         11    1    4    4    0    0 -0.28530646977E+01  0.16726679067E+01 -0.35030997531E+01  0.48176243354E+01  0.51100000000E-03 0. -1.
        -11    1    4    4    0    0  0.21025612397E+02 -0.12082893323E+02 -0.36126216996E+01  0.24517824609E+02  0.51100000000E-03 0.  1.
         12    1    4    4    0    0  0.34845161124E+01 -0.17465272921E+02  0.17589906097E+02  0.25031628138E+02  0.00000000000E+00 0. -1.
</event>
<event>
 8    1  0.2509489E-006  0.9118800E+02  0.7816164E-02  0.1184000E+00
        -11   -1    0    0    0    0  0.00000000000E+00  0.00000000000E+00  0.45593999997E+02  0.45594000000E+02  0.51100000000E-03 0. -1.
         11   -1    0    0    0    0 -0.00000000000E+00 -0.00000000000E+00 -0.45593999997E+02  0.45594000000E+02  0.51100000000E-03 0.  1.
         23    2    1    2    0    0  0.00000000000E+00 -0.71054273576E-14 -0.14432899320E-14  0.91188000000E+02  0.91188000000E+02 0.  0.
    9900012    2    3    3    0    0 -0.19767069653E+02  0.31060422424E+02 -0.54094238040E+00  0.54367088788E+02  0.40000010510E+02 0.  0.
        -12    1    3    3    0    0  0.19767069653E+02 -0.31060422424E+02  0.54094238040E+00  0.36820911212E+02  0.00000000000E+00 0.  1.
         11    1    4    4    0    0 -0.18105601776E+02  0.25201212776E+02 -0.47132893819E+01  0.31386765333E+02  0.51100000000E-03 0. -1.
        -11    1    4    4    0    0 -0.72469606729E+01 -0.12677466516E+01 -0.59041086565E+01  0.94331394485E+01  0.51100000000E-03 0.  1.
        -12    1    4    4    0    0  0.55854927954E+01  0.71269562999E+01  0.10076455658E+02  0.13547184006E+02  0.00000000000E+00 0.  1.
</event>
<event>
 8    1  0.2509489E-006  0.9118800E+02  0.7816164E-02  0.1184000E+00
        -11   -1    0    0    0    0  0.00000000000E+00  0.00000000000E+00  0.45593999997E+02  0.45594000000E+02  0.51100000000E-03 0. -1.
         11   -1    0    0    0    0 -0.00000000000E+00 -0.00000000000E+00 -0.45593999997E+02  0.45594000000E+02  0.51100000000E-03 0.  1.
         23    2    1    2    0    0 -0.13322676296E-14  0.00000000000E+00  0.00000000000E+00  0.91188000000E+02  0.91188000000E+02 0.  0.
    9900012    2    3    3    0    0  0.20900987007E+01  0.16546688784E+02 -0.32827132506E+02  0.54367054183E+02  0.39999931621E+02 0.  0.
         12    1    3    3    0    0 -0.20900987007E+01 -0.16546688784E+02  0.32827132506E+02  0.36820945817E+02  0.00000000000E+00 0. -1.
         11    1    4    4    0    0 -0.16756656741E+02  0.45997505660E+01 -0.55025626490E+01  0.18226942870E+02  0.51100000000E-03 0. -1.
        -11    1    4    4    0    0  0.12373590408E+02  0.32193409068E+01 -0.14563455628E+02  0.19379477175E+02  0.51100000000E-03 0.  1.
         12    1    4    4    0    0  0.64731650337E+01  0.87275973116E+01 -0.12761114228E+02  0.16760634139E+02  0.00000000000E+00 0. -1.
</event>
<event>
 8    1  0.2509489E-006  0.9118800E+02  0.7816164E-02  0.1184000E+00
        -11   -1    0    0    0    0  0.00000000000E+00  0.00000000000E+00  0.45593999997E+02  0.45594000000E+02  0.51100000000E-03 0. -1.
         11   -1    0    0    0    0 -0.00000000000E+00 -0.00000000000E+00 -0.45593999997E+02  0.45594000000E+02  0.51100000000E-03 0.  1.
         23    2    1    2    0    0  0.00000000000E+00  0.00000000000E+00  0.17763568394E-14  0.91188000000E+02  0.91188000000E+02 0.  0.
    9900012    2    3    3    0    0 -0.36435319368E+02  0.10254295616E+01 -0.52149281771E+01  0.54367089105E+02  0.40000011234E+02 0.  0.
         12    1    3    3    0    0  0.36435319368E+02 -0.10254295616E+01  0.52149281771E+01  0.36820910895E+02  0.00000000000E+00 0. -1.
         11    1    4    4    0    0 -0.21406242183E+02 -0.97057212898E+01  0.67888527982E+01  0.24464602035E+02  0.51100000000E-03 0. -1.
        -11    1    4    4    0    0 -0.18195579562E+02  0.35877550904E+01 -0.11998362071E+02  0.22088725514E+02  0.51100000000E-03 0.  1.
         12    1    4    4    0    0  0.31665023770E+01  0.71433957610E+01 -0.54189044089E-02  0.78137615568E+01  0.00000000000E+00 0. -1.
</event>
<event>
 8    1  0.2509489E-006  0.9118800E+02  0.7816164E-02  0.1184000E+00
        -11   -1    0    0    0    0  0.00000000000E+00  0.00000000000E+00  0.45593999997E+02  0.45594000000E+02  0.51100000000E-03 0. -1.
         11   -1    0    0    0    0 -0.00000000000E+00 -0.00000000000E+00 -0.45593999997E+02  0.45594000000E+02  0.51100000000E-03 0.  1.
         23    2    1    2    0    0 -0.88817841970E-15  0.00000000000E+00  0.00000000000E+00  0.91188000000E+02  0.91188000000E+02 0.  0.
    9900012    2    3    3    0    0  0.46808772349E+01  0.36466403164E+02 -0.20176429213E+01  0.54367081294E+02  0.39999993426E+02 0.  0.
        -12    1    3    3    0    0 -0.46808772349E+01 -0.36466403164E+02  0.20176429213E+01  0.36820918706E+02  0.00000000000E+00 0.  1.
         11    1    4    4    0    0 -0.10716645056E+02  0.23035006441E+01  0.29662288407E+01  0.11355664238E+02  0.51100000000E-03 0.  1.
        -11    1    4    4    0    0  0.18151242511E+02  0.15551151890E+02 -0.31257279745E+01  0.24105520228E+02  0.51100000000E-03 0. -1.
        -12    1    4    4    0    0 -0.27537202202E+01  0.18611750629E+02 -0.18581437875E+01  0.18905896828E+02  0.00000000000E+00 0.  1.
</event>
<event>
 8    1  0.2509489E-006  0.9118800E+02  0.7816164E-02  0.1184000E+00
        -11   -1    0    0    0    0  0.00000000000E+00  0.00000000000E+00  0.45593999997E+02  0.45594000000E+02  0.51100000000E-03 0. -1.
         11   -1    0    0    0    0 -0.00000000000E+00 -0.00000000000E+00 -0.45593999997E+02  0.45594000000E+02  0.51100000000E-03 0.  1.
         23    2    1    2    0    0  0.17763568394E-14 -0.17763568394E-14 -0.35527136788E-14  0.91188000000E+02  0.91188000000E+02 0.  0.
    9900012    2    3    3    0    0 -0.12903955696E+02 -0.15521312361E+02  0.30795400814E+02  0.54367083101E+02  0.39999997545E+02 0.  0.
        -12    1    3    3    0    0  0.12903955696E+02  0.15521312361E+02 -0.30795400814E+02  0.36820916899E+02  0.00000000000E+00 0.  1.
         11    1    4    4    0    0  0.28282477868E+01 -0.23932503247E+02  0.15190666206E+02  0.28487190757E+02  0.51100000000E-03 0. -1.
        -11    1    4    4    0    0 -0.11455397614E+02  0.91161158981E+01  0.15801321566E+02  0.21540925399E+02  0.51100000000E-03 0.  1.
         12    1    4    4    0    0 -0.42768058692E+01 -0.70492501186E+00 -0.19658695786E+00  0.43389669447E+01  0.00000000000E+00 0. -1.
</event>
<event>
 8    1  0.2509489E-006  0.9118800E+02  0.7816164E-02  0.1184000E+00
        -11   -1    0    0    0    0  0.00000000000E+00  0.00000000000E+00  0.45593999997E+02  0.45594000000E+02  0.51100000000E-03 0.  1.
         11   -1    0    0    0    0 -0.00000000000E+00 -0.00000000000E+00 -0.45593999997E+02  0.45594000000E+02  0.51100000000E-03 0. -1.
         23    2    1    2    0    0  0.17763568394E-14  0.00000000000E+00 -0.35527136788E-14  0.91188000000E+02  0.91188000000E+02 0.  0.
    9900012    2    3    3    0    0 -0.14828267656E+02 -0.18349439868E+02  0.28270139954E+02  0.54367078255E+02  0.39999986498E+02 0.  0.
         12    1    3    3    0    0  0.14828267656E+02  0.18349439868E+02 -0.28270139954E+02  0.36820921745E+02  0.00000000000E+00 0. -1.
         11    1    4    4    0    0 -0.41586043744E+01 -0.14818766840E+02  0.21373227784E+02  0.26338274567E+02  0.51100000000E-03 0. -1.
        -11    1    4    4    0    0  0.38362527621E+01 -0.95125269555E+01  0.68569481286E+01  0.12337858089E+02  0.51100000000E-03 0.  1.
         12    1    4    4    0    0 -0.14505916043E+02  0.59818539269E+01  0.39964040872E-01  0.15690945599E+02  0.00000000000E+00 0. -1.
</event>
<event>
 8    1  0.2509489E-006  0.9118800E+02  0.7816164E-02  0.1184000E+00
        -11   -1    0    0    0    0  0.00000000000E+00  0.00000000000E+00  0.45593999997E+02  0.45594000000E+02  0.51100000000E-03 0.  1.
         11   -1    0    0    0    0 -0.00000000000E+00 -0.00000000000E+00 -0.45593999997E+02  0.45594000000E+02  0.51100000000E-03 0. -1.
         23    2    1    2    0    0 -0.26645352591E-14  0.00000000000E+00  0.00000000000E+00  0.91188000000E+02  0.91188000000E+02 0.  0.
    9900012    2    3    3    0    0  0.43248073573E+01 -0.16942768230E+02 -0.32404024293E+02  0.54367052914E+02  0.39999928728E+02 0.  0.
        -12    1    3    3    0    0 -0.43248073573E+01  0.16942768230E+02  0.32404024293E+02  0.36820947086E+02  0.00000000000E+00 0.  1.
         11    1    4    4    0    0  0.20810408457E+02 -0.90131049343E+01 -0.24806273471E+02  0.33610420475E+02  0.51100000000E-03 0. -1.
        -11    1    4    4    0    0 -0.91069011796E-01 -0.10863498952E+00  0.75178711390E+00  0.76503545774E+00  0.51100000000E-03 0.  1.
         12    1    4    4    0    0 -0.16394532088E+02 -0.78210283061E+01 -0.83495379351E+01  0.19991596981E+02  0.00000000000E+00 0. -1.
</event>
<event>
 8    1  0.2509489E-006  0.9118800E+02  0.7816164E-02  0.1184000E+00
        -11   -1    0    0    0    0  0.00000000000E+00  0.00000000000E+00  0.45593999997E+02  0.45594000000E+02  0.51100000000E-03 0. -1.
         11   -1    0    0    0    0 -0.00000000000E+00 -0.00000000000E+00 -0.45593999997E+02  0.45594000000E+02  0.51100000000E-03 0.  1.
         23    2    1    2    0    0  0.00000000000E+00  0.00000000000E+00  0.00000000000E+00  0.91188000000E+02  0.91188000000E+02 0.  0.
    9900012    2    3    3    0    0  0.57771648485E+01 -0.33182813309E+02  0.14876832396E+02  0.54366880042E+02  0.39999534629E+02 0.  0.
        -12    1    3    3    0    0 -0.57771648485E+01  0.33182813309E+02 -0.14876832396E+02  0.36821119958E+02  0.00000000000E+00 0.  1.
         11    1    4    4    0    0  0.46262606583E+01 -0.24156143146E+02  0.24970727550E+02  0.35049376228E+02  0.51100000000E-03 0. -1.
        -11    1    4    4    0    0  0.14227845187E+01 -0.11559582669E+02 -0.11533714865E+02  0.16391303979E+02  0.51100000000E-03 0.  1.
        -12    1    4    4    0    0 -0.27188032846E+00  0.25329125054E+01  0.14398197120E+01  0.29261998353E+01  0.00000000000E+00 0.  1.
</event>
<event>
 8    1  0.2509489E-006  0.9118800E+02  0.7816164E-02  0.1184000E+00
        -11   -1    0    0    0    0  0.00000000000E+00  0.00000000000E+00  0.45593999997E+02  0.45594000000E+02  0.51100000000E-03 0.  1.
         11   -1    0    0    0    0 -0.00000000000E+00 -0.00000000000E+00 -0.45593999997E+02  0.45594000000E+02  0.51100000000E-03 0. -1.
         23    2    1    2    0    0 -0.88817841970E-15 -0.35527136788E-14 -0.35527136788E-14  0.91188000000E+02  0.91188000000E+02 0.  0.
    9900012    2    3    3    0    0 -0.51737132874E+01 -0.25113707159E+02 -0.26425624293E+02  0.54367092682E+02  0.40000019386E+02 0.  0.
        -12    1    3    3    0    0  0.51737132874E+01  0.25113707159E+02  0.26425624293E+02  0.36820907318E+02  0.00000000000E+00 0.  1.
         11    1    4    4    0    0  0.18270779660E+01 -0.86267363541E+01 -0.74014321777E+00  0.88491020031E+01  0.51100000000E-03 0. -1.
        -11    1    4    4    0    0 -0.70507576457E+01 -0.17401334982E+02  0.10139456362E+01  0.18802864902E+02  0.51100000000E-03 0.  1.
         12    1    4    4    0    0  0.49966392245E-01  0.91436417668E+00 -0.26699426712E+02  0.26715125776E+02  0.00000000000E+00 0. -1.
</event>
<event>
 8    1  0.2509489E-006  0.9118800E+02  0.7816164E-02  0.1184000E+00
        -11   -1    0    0    0    0  0.00000000000E+00  0.00000000000E+00  0.45593999997E+02  0.45594000000E+02  0.51100000000E-03 0. -1.
         11   -1    0    0    0    0 -0.00000000000E+00 -0.00000000000E+00 -0.45593999997E+02  0.45594000000E+02  0.51100000000E-03 0.  1.
         23    2    1    2    0    0 -0.89511731360E-15 -0.17763568394E-14  0.00000000000E+00  0.91188000000E+02  0.91188000000E+02 0.  0.
    9900012    2    3    3    0    0  0.51467519950E-01  0.14719443555E+02  0.33750773448E+02  0.54367090508E+02  0.40000014432E+02 0.  0.
        -12    1    3    3    0    0 -0.51467519950E-01 -0.14719443555E+02 -0.33750773448E+02  0.36820909492E+02  0.00000000000E+00 0.  1.
         11    1    4    4    0    0 -0.51428533201E+01 -0.39507513564E+01  0.17011824487E+02  0.18206030572E+02  0.51100000000E-03 0. -1.
        -11    1    4    4    0    0 -0.31582764236E+01  0.55587301191E+01  0.19366616151E+02  0.20394607422E+02  0.51100000000E-03 0.  1.
        -12    1    4    4    0    0  0.83525972636E+01  0.13111464792E+02 -0.26276671897E+01  0.15766452515E+02  0.00000000000E+00 0.  1.
</event>
<event>
 8    1  0.2509489E-006  0.9118800E+02  0.7816164E-02  0.1184000E+00
        -11   -1    0    0    0    0  0.00000000000E+00  0.00000000000E+00  0.45593999997E+02  0.45594000000E+02  0.51100000000E-03 0. -1.
         11   -1    0    0    0    0 -0.00000000000E+00 -0.00000000000E+00 -0.45593999997E+02  0.45594000000E+02  0.51100000000E-03 0.  1.
         23    2    1    2    0    0 -0.17763568394E-14  0.00000000000E+00 -0.35527136788E-14  0.91188000000E+02  0.91188000000E+02 0.  0.
    9900012    2    3    3    0    0  0.12361521981E+02  0.21921622431E+02  0.26877779688E+02  0.54367084794E+02  0.40000001404E+02 0.  0.
        -12    1    3    3    0    0 -0.12361521981E+02 -0.21921622431E+02 -0.26877779688E+02  0.36820915206E+02  0.00000000000E+00 0.  1.
         11    1    4    4    0    0  0.45859282475E+01  0.24792910463E+01  0.20043689037E+02  0.20710555098E+02  0.51100000000E-03 0. -1.
        -11    1    4    4    0    0  0.11740270533E+02  0.13248558622E+02  0.14611138431E+02  0.22953074396E+02  0.51100000000E-03 0.  1.
         12    1    4    4    0    0 -0.39646767998E+01  0.61937727634E+01 -0.77770477803E+01  0.10703455300E+02  0.00000000000E+00 0. -1.
</event>
<event>
 8    1  0.2509489E-006  0.9118800E+02  0.7816164E-02  0.1184000E+00
        -11   -1    0    0    0    0  0.00000000000E+00  0.00000000000E+00  0.45593999997E+02  0.45594000000E+02  0.51100000000E-03 0.  1.
         11   -1    0    0    0    0 -0.00000000000E+00 -0.00000000000E+00 -0.45593999997E+02  0.45594000000E+02  0.51100000000E-03 0. -1.
         23    2    1    2    0    0  0.00000000000E+00 -0.35527136788E-14  0.35527136788E-14  0.91188000000E+02  0.91188000000E+02 0.  0.
    9900012    2    3    3    0    0  0.75233041470E+01 -0.30209099377E+02  0.19661857310E+02  0.54367103442E+02  0.40000043918E+02 0.  0.
         12    1    3    3    0    0 -0.75233041470E+01  0.30209099377E+02 -0.19661857310E+02  0.36820896558E+02  0.00000000000E+00 0. -1.
         11    1    4    4    0    0  0.30818284803E+01 -0.35286258525E+01 -0.21440645155E+01  0.51522694123E+01  0.51100000000E-03 0.  1.
        -11    1    4    4    0    0 -0.14963390535E+02 -0.75732216554E+01  0.65875007313E+01  0.18018099475E+02  0.51100000000E-03 0. -1.
         12    1    4    4    0    0  0.19404866202E+02 -0.19107251869E+02  0.15218421094E+02  0.31196734555E+02  0.00000000000E+00 0. -1.
</event>
<event>
 8    1  0.2509489E-006  0.9118800E+02  0.7816164E-02  0.1184000E+00
        -11   -1    0    0    0    0  0.00000000000E+00  0.00000000000E+00  0.45593999997E+02  0.45594000000E+02  0.51100000000E-03 0.  1.
         11   -1    0    0    0    0 -0.00000000000E+00 -0.00000000000E+00 -0.45593999997E+02  0.45594000000E+02  0.51100000000E-03 0. -1.
         23    2    1    2    0    0  0.71054273576E-14  0.00000000000E+00  0.17763568394E-14  0.91188000000E+02  0.91188000000E+02 0.  0.
    9900012    2    3    3    0    0 -0.35096469508E+02  0.69331495721E+01  0.87147910470E+01  0.54367104874E+02  0.40000047181E+02 0.  0.
         12    1    3    3    0    0  0.35096469508E+02 -0.69331495721E+01 -0.87147910470E+01  0.36820895126E+02  0.00000000000E+00 0. -1.
         11    1    4    4    0    0 -0.12644959123E+02 -0.62819491835E+01  0.81401715499E+01  0.16297860899E+02  0.51100000000E-03 0. -1.
        -11    1    4    4    0    0  0.61154224985E+01  0.53718192411E+00  0.27772065408E+01  0.67379398325E+01  0.51100000000E-03 0.  1.
        -12    1    4    4    0    0 -0.28566932884E+02  0.12677916832E+02 -0.22025870438E+01  0.31331304142E+02  0.00000000000E+00 0.  1.
</event>
<event>
 8    1  0.2509489E-006  0.9118800E+02  0.7816164E-02  0.1184000E+00
        -11   -1    0    0    0    0  0.00000000000E+00  0.00000000000E+00  0.45593999997E+02  0.45594000000E+02  0.51100000000E-03 0.  1.
         11   -1    0    0    0    0 -0.00000000000E+00 -0.00000000000E+00 -0.45593999997E+02  0.45594000000E+02  0.51100000000E-03 0. -1.
         23    2    1    2    0    0 -0.17763568394E-14  0.00000000000E+00  0.00000000000E+00  0.91188000000E+02  0.91188000000E+02 0.  0.
    9900012    2    3    3    0    0 -0.95535395126E+01 -0.11042567037E+02  0.33801939674E+02  0.54367088418E+02  0.40000009668E+02 0.  0.
         12    1    3    3    0    0  0.95535395126E+01  0.11042567037E+02 -0.33801939674E+02  0.36820911582E+02  0.00000000000E+00 0. -1.
         11    1    4    4    0    0  0.46277134584E+01 -0.42390311967E+01  0.11862803372E+01  0.63868911561E+01  0.51100000000E-03 0. -1.
        -11    1    4    4    0    0  0.94761806209E+01 -0.17436583063E+01  0.38051109101E+01  0.10359402142E+02  0.51100000000E-03 0.  1.
        -12    1    4    4    0    0 -0.23657433592E+02 -0.50598775336E+01  0.28810548427E+02  0.37620795120E+02  0.00000000000E+00 0.  1.
</event>
<event>
 8    1  0.2509489E-006  0.9118800E+02  0.7816164E-02  0.1184000E+00
        -11   -1    0    0    0    0  0.00000000000E+00  0.00000000000E+00  0.45593999997E+02  0.45594000000E+02  0.51100000000E-03 0. -1.
         11   -1    0    0    0    0 -0.00000000000E+00 -0.00000000000E+00 -0.45593999997E+02  0.45594000000E+02  0.51100000000E-03 0.  1.
         23    2    1    2    0    0  0.00000000000E+00 -0.35527136788E-14 -0.17763568394E-14  0.91188000000E+02  0.91188000000E+02 0.  0.
    9900012    2    3    3    0    0 -0.14899047536E+02  0.30360997431E+02 -0.14560520008E+02  0.54367074898E+02  0.39999978844E+02 0.  0.
         12    1    3    3    0    0  0.14899047536E+02 -0.30360997431E+02  0.14560520008E+02  0.36820925102E+02  0.00000000000E+00 0. -1.
         11    1    4    4    0    0 -0.15278442455E+02  0.18237477282E+02  0.53402812529E+01  0.24383498223E+02  0.51100000000E-03 0. -1.
        -11    1    4    4    0    0  0.35046117693E+01 -0.34879110113E+01 -0.10212063364E+02  0.11346103529E+02  0.51100000000E-03 0.  1.
         12    1    4    4    0    0 -0.31252168505E+01  0.15611431161E+02 -0.96887378966E+01  0.18637473146E+02  0.00000000000E+00 0. -1.
</event>
<event>
 8    1  0.2509489E-006  0.9118800E+02  0.7816164E-02  0.1184000E+00
        -11   -1    0    0    0    0  0.00000000000E+00  0.00000000000E+00  0.45593999997E+02  0.45594000000E+02  0.51100000000E-03 0. -1.
         11   -1    0    0    0    0 -0.00000000000E+00 -0.00000000000E+00 -0.45593999997E+02  0.45594000000E+02  0.51100000000E-03 0.  1.
         23    2    1    2    0    0  0.11657341759E-14 -0.35527136788E-14 -0.35527136788E-14  0.91188000000E+02  0.91188000000E+02 0.  0.
    9900012    2    3    3    0    0  0.11452432480E+00  0.19398014811E+02  0.31296742944E+02  0.54367051977E+02  0.39999926591E+02 0.  0.
        -12    1    3    3    0    0 -0.11452432480E+00 -0.19398014811E+02 -0.31296742944E+02  0.36820948023E+02  0.00000000000E+00 0.  1.
         11    1    4    4    0    0  0.66711084474E+01  0.13606606329E+02  0.32919252582E+02  0.36239765652E+02  0.51100000000E-03 0. -1.
        -11    1    4    4    0    0  0.51324142586E+01  0.31149438486E+01 -0.12356184604E+01  0.61295435836E+01  0.51100000000E-03 0.  1.
        -12    1    4    4    0    0 -0.11688998381E+02  0.26764646336E+01 -0.38689117730E+00  0.11997742741E+02  0.00000000000E+00 0.  1.
</event>
<event>
 8    1  0.2509489E-006  0.9118800E+02  0.7816164E-02  0.1184000E+00
        -11   -1    0    0    0    0  0.00000000000E+00  0.00000000000E+00  0.45593999997E+02  0.45594000000E+02  0.51100000000E-03 0.  1.
         11   -1    0    0    0    0 -0.00000000000E+00 -0.00000000000E+00 -0.45593999997E+02  0.45594000000E+02  0.51100000000E-03 0. -1.
         23    2    1    2    0    0  0.00000000000E+00  0.00000000000E+00  0.22204460493E-15  0.91188000000E+02  0.91188000000E+02 0.  0.
    9900012    2    3    3    0    0  0.36618512727E+02 -0.34876865019E+01 -0.16432494733E+01  0.54367086102E+02  0.40000004387E+02 0.  0.
        -12    1    3    3    0    0 -0.36618512727E+02  0.34876865019E+01  0.16432494733E+01  0.36820913898E+02  0.00000000000E+00 0.  1.
         11    1    4    4    0    0  0.15643465403E+02  0.14876458117E+02 -0.16588977232E+01  0.21651303836E+02  0.51100000000E-03 0. -1.
        -11    1    4    4    0    0  0.44812442523E+01  0.14081619076E+01 -0.45797009727E+01  0.65603453619E+01  0.51100000000E-03 0.  1.
        -12    1    4    4    0    0  0.16493803072E+02 -0.19772306526E+02  0.45953492226E+01  0.26155436904E+02  0.00000000000E+00 0.  1.
</event>
<event>
 8    1  0.2509489E-006  0.9118800E+02  0.7816164E-02  0.1184000E+00
        -11   -1    0    0    0    0  0.00000000000E+00  0.00000000000E+00  0.45593999997E+02  0.45594000000E+02  0.51100000000E-03 0.  1.
         11   -1    0    0    0    0 -0.00000000000E+00 -0.00000000000E+00 -0.45593999997E+02  0.45594000000E+02  0.51100000000E-03 0. -1.
         23    2    1    2    0    0  0.71054273576E-14  0.00000000000E+00  0.00000000000E+00  0.91188000000E+02  0.91188000000E+02 0.  0.
    9900012    2    3    3    0    0  0.28026049941E+02  0.12368576820E+02  0.20428864927E+02  0.54367086241E+02  0.40000004704E+02 0.  0.
         12    1    3    3    0    0 -0.28026049941E+02 -0.12368576820E+02 -0.20428864927E+02  0.36820913759E+02  0.00000000000E+00 0. -1.
         11    1    4    4    0    0  0.52799560092E+01 -0.72848267513E+01  0.16361610544E+01  0.91445972854E+01  0.51100000000E-03 0. -1.
        -11    1    4    4    0    0  0.37902849482E+01 -0.65196962599E+01  0.83712127664E+01  0.11267204744E+02  0.51100000000E-03 0.  1.
        -12    1    4    4    0    0  0.18955808984E+02  0.26173099831E+02  0.10421491106E+02  0.33955284211E+02  0.00000000000E+00 0.  1.
</event>
<event>
 8    1  0.2509489E-006  0.9118800E+02  0.7816164E-02  0.1184000E+00
        -11   -1    0    0    0    0  0.00000000000E+00  0.00000000000E+00  0.45593999997E+02  0.45594000000E+02  0.51100000000E-03 0.  1.
         11   -1    0    0    0    0 -0.00000000000E+00 -0.00000000000E+00 -0.45593999997E+02  0.45594000000E+02  0.51100000000E-03 0. -1.
         23    2    1    2    0    0  0.00000000000E+00  0.88817841970E-15 -0.35527136788E-14  0.91188000000E+02  0.91188000000E+02 0.  0.
    9900012    2    3    3    0    0  0.21453376226E+02  0.47858674967E+01 -0.29540254551E+02  0.54367102155E+02  0.40000040982E+02 0.  0.
        -12    1    3    3    0    0 -0.21453376226E+02 -0.47858674967E+01  0.29540254551E+02  0.36820897845E+02  0.00000000000E+00 0.  1.
         11    1    4    4    0    0  0.42678698760E+01  0.71423500792E+01  0.43355462932E+01  0.93821553949E+01  0.51100000000E-03 0. -1.
        -11    1    4    4    0    0  0.23600950500E+01  0.60490944531E+01  0.60603005920E+00  0.65214158770E+01  0.51100000000E-03 0.  1.
         12    1    4    4    0    0  0.14825411300E+02 -0.84055770356E+01 -0.34481830904E+02  0.38463530883E+02  0.00000000000E+00 0. -1.
</event>
<event>
 8    1  0.2509489E-006  0.9118800E+02  0.7816164E-02  0.1184000E+00
        -11   -1    0    0    0    0  0.00000000000E+00  0.00000000000E+00  0.45593999997E+02  0.45594000000E+02  0.51100000000E-03 0. -1.
         11   -1    0    0    0    0 -0.00000000000E+00 -0.00000000000E+00 -0.45593999997E+02  0.45594000000E+02  0.51100000000E-03 0.  1.
         23    2    1    2    0    0  0.00000000000E+00  0.00000000000E+00  0.00000000000E+00  0.91188000000E+02  0.91188000000E+02 0.  0.
    9900012    2    3    3    0    0  0.14344275768E+02  0.22096512294E+02 -0.25724813118E+02  0.54367080500E+02  0.39999991616E+02 0.  0.
         12    1    3    3    0    0 -0.14344275768E+02 -0.22096512294E+02  0.25724813118E+02  0.36820919500E+02  0.00000000000E+00 0. -1.
         11    1    4    4    0    0  0.14920307777E+02  0.63117292128E+01  0.74109364589E+00  0.16217358906E+02  0.51100000000E-03 0. -1.
        -11    1    4    4    0    0 -0.20528564287E+01  0.16913763892E+02 -0.67179870328E+01  0.18314501865E+02  0.51100000000E-03 0.  1.
         12    1    4    4    0    0  0.14768244190E+01 -0.11289808107E+01 -0.19747919731E+02  0.19835219730E+02  0.00000000000E+00 0. -1.
</event>
<event>
 8    1  0.2509489E-006  0.9118800E+02  0.7816164E-02  0.1184000E+00
        -11   -1    0    0    0    0  0.00000000000E+00  0.00000000000E+00  0.45593999997E+02  0.45594000000E+02  0.51100000000E-03 0. -1.
         11   -1    0    0    0    0 -0.00000000000E+00 -0.00000000000E+00 -0.45593999997E+02  0.45594000000E+02  0.51100000000E-03 0.  1.
         23    2    1    2    0    0  0.00000000000E+00  0.19984014443E-14  0.00000000000E+00  0.91188000000E+02  0.91188000000E+02 0.  0.
    9900012    2    3    3    0    0  0.29401187505E+02  0.96273693245E+00 -0.22145441185E+02  0.54367119315E+02  0.40000080103E+02 0.  0.
         12    1    3    3    0    0 -0.29401187505E+02 -0.96273693245E+00  0.22145441185E+02  0.36820880685E+02  0.00000000000E+00 0. -1.
         11    1    4    4    0    0  0.37554399878E+01 -0.10358246490E+02  0.43786710340E+01  0.11856195011E+02  0.51100000000E-03 0. -1.
        -11    1    4    4    0    0  0.26744451335E+01  0.57511444131E+01 -0.14851058385E+02  0.16148753953E+02  0.51100000000E-03 0.  1.
         12    1    4    4    0    0  0.22971302384E+02  0.55698390097E+01 -0.11673053835E+02  0.26362170351E+02  0.00000000000E+00 0. -1.
</event>
<event>
 8    1  0.2509489E-006  0.9118800E+02  0.7816164E-02  0.1184000E+00
        -11   -1    0    0    0    0  0.00000000000E+00  0.00000000000E+00  0.45593999997E+02  0.45594000000E+02  0.51100000000E-03 0. -1.
         11   -1    0    0    0    0 -0.00000000000E+00 -0.00000000000E+00 -0.45593999997E+02  0.45594000000E+02  0.51100000000E-03 0.  1.
         23    2    1    2    0    0  0.00000000000E+00 -0.88817841970E-15  0.00000000000E+00  0.91188000000E+02  0.91188000000E+02 0.  0.
    9900012    2    3    3    0    0 -0.32166741002E+02  0.31424021675E+01 -0.17641077382E+02  0.54367061266E+02  0.39999947768E+02 0.  0.
        -12    1    3    3    0    0  0.32166741002E+02 -0.31424021675E+01  0.17641077382E+02  0.36820938734E+02  0.00000000000E+00 0.  1.
         11    1    4    4    0    0 -0.40688135599E+01  0.13240673313E+02 -0.34146364778E+01  0.14266408662E+02  0.51100000000E-03 0. -1.
        -11    1    4    4    0    0  0.30804968325E+01  0.21157695101E+01 -0.29709010330E+01  0.47741171502E+01  0.51100000000E-03 0.  1.
         12    1    4    4    0    0 -0.31178424275E+02 -0.12214040656E+02 -0.11255539871E+02  0.35326535454E+02  0.00000000000E+00 0. -1.
</event>
<event>
 8    1  0.2509489E-006  0.9118800E+02  0.7816164E-02  0.1184000E+00
        -11   -1    0    0    0    0  0.00000000000E+00  0.00000000000E+00  0.45593999997E+02  0.45594000000E+02  0.51100000000E-03 0.  1.
         11   -1    0    0    0    0 -0.00000000000E+00 -0.00000000000E+00 -0.45593999997E+02  0.45594000000E+02  0.51100000000E-03 0. -1.
         23    2    1    2    0    0  0.00000000000E+00  0.88817841970E-15  0.00000000000E+00  0.91188000000E+02  0.91188000000E+02 0.  0.
    9900012    2    3    3    0    0  0.21206540365E+02  0.43369396242E+01  0.29786782202E+02  0.54367098416E+02  0.40000032458E+02 0.  0.
         12    1    3    3    0    0 -0.21206540365E+02 -0.43369396242E+01 -0.29786782202E+02  0.36820901584E+02  0.00000000000E+00 0. -1.
         11    1    4    4    0    0  0.23628634636E+01 -0.13059966224E+02  0.19283785952E+01  0.13411356597E+02  0.51100000000E-03 0. -1.
        -11    1    4    4    0    0  0.16036479371E+02  0.14711641985E+02  0.29566482419E+02  0.36712095601E+02  0.51100000000E-03 0.  1.
        -12    1    4    4    0    0  0.28071975300E+01  0.26852638627E+01 -0.17080788125E+01  0.42436462170E+01  0.00000000000E+00 0.  1.
</event>
<event>
 8    1  0.2509489E-006  0.9118800E+02  0.7816164E-02  0.1184000E+00
        -11   -1    0    0    0    0  0.00000000000E+00  0.00000000000E+00  0.45593999997E+02  0.45594000000E+02  0.51100000000E-03 0. -1.
         11   -1    0    0    0    0 -0.00000000000E+00 -0.00000000000E+00 -0.45593999997E+02  0.45594000000E+02  0.51100000000E-03 0.  1.
         23    2    1    2    0    0  0.14210854715E-13  0.00000000000E+00 -0.88817841970E-15  0.91188000000E+02  0.91188000000E+02 0.  0.
    9900012    2    3    3    0    0 -0.32051064076E+02 -0.16298536429E+02  0.79288512676E+01  0.54367086370E+02  0.40000004997E+02 0.  0.
        -12    1    3    3    0    0  0.32051064076E+02  0.16298536429E+02 -0.79288512676E+01  0.36820913630E+02  0.00000000000E+00 0.  1.
         11    1    4    4    0    0 -0.43237628571E+01 -0.10527107006E+02  0.19844046026E+01  0.11552175945E+02  0.51100000000E-03 0. -1.
        -11    1    4    4    0    0 -0.86578538396E+01 -0.14536566274E+02 -0.68293162490E+01  0.18245814667E+02  0.51100000000E-03 0.  1.
         12    1    4    4    0    0 -0.19069447380E+02  0.87651368521E+01  0.12773762914E+02  0.24569095759E+02  0.00000000000E+00 0. -1.
</event>
<event>
 8    1  0.2509489E-006  0.9118800E+02  0.7816164E-02  0.1184000E+00
        -11   -1    0    0    0    0  0.00000000000E+00  0.00000000000E+00  0.45593999997E+02  0.45594000000E+02  0.51100000000E-03 0. -1.
         11   -1    0    0    0    0 -0.00000000000E+00 -0.00000000000E+00 -0.45593999997E+02  0.45594000000E+02  0.51100000000E-03 0.  1.
         23    2    1    2    0    0  0.00000000000E+00 -0.17763568394E-14  0.17763568394E-14  0.91188000000E+02  0.91188000000E+02 0.  0.
    9900012    2    3    3    0    0 -0.33463644657E+02  0.46241125744E+01 -0.14648619750E+02  0.54367082149E+02  0.39999995375E+02 0.  0.
         12    1    3    3    0    0  0.33463644657E+02 -0.46241125744E+01  0.14648619750E+02  0.36820917851E+02  0.00000000000E+00 0. -1.
         11    1    4    4    0    0 -0.18442442079E+02  0.99860553184E+01 -0.15784159543E+01  0.21031794213E+02  0.51100000000E-03 0. -1.
        -11    1    4    4    0    0 -0.14683646181E+02  0.37856199242E+01  0.24071160284E+01  0.15353650746E+02  0.51100000000E-03 0.  1.
         12    1    4    4    0    0 -0.33755639701E+00 -0.91475626682E+01 -0.15477319825E+02  0.17981637190E+02  0.00000000000E+00 0. -1.
</event>
<event>
 8    1  0.2509489E-006  0.9118800E+02  0.7816164E-02  0.1184000E+00
        -11   -1    0    0    0    0  0.00000000000E+00  0.00000000000E+00  0.45593999997E+02  0.45594000000E+02  0.51100000000E-03 0. -1.
         11   -1    0    0    0    0 -0.00000000000E+00 -0.00000000000E+00 -0.45593999997E+02  0.45594000000E+02  0.51100000000E-03 0.  1.
         23    2    1    2    0    0  0.00000000000E+00  0.00000000000E+00  0.00000000000E+00  0.91188000000E+02  0.91188000000E+02 0.  0.
    9900012    2    3    3    0    0 -0.18880551416E+02 -0.11413993462E+02 -0.29479221419E+02  0.54367096100E+02  0.40000027179E+02 0.  0.
         12    1    3    3    0    0  0.18880551416E+02  0.11413993462E+02  0.29479221419E+02  0.36820903900E+02  0.00000000000E+00 0. -1.
         11    1    4    4    0    0 -0.24397803910E+02 -0.12116733094E+02 -0.18906146663E+02  0.33158866663E+02  0.51100000000E-03 0. -1.
        -11    1    4    4    0    0  0.37681372351E+01 -0.80911068662E+01 -0.77147024302E+01  0.11797521027E+02  0.51100000000E-03 0.  1.
         12    1    4    4    0    0  0.17491152582E+01  0.87938464981E+01 -0.28583723259E+01  0.94107084097E+01  0.00000000000E+00 0. -1.
</event>
<event>
 8    1  0.2509489E-006  0.9118800E+02  0.7816164E-02  0.1184000E+00
        -11   -1    0    0    0    0  0.00000000000E+00  0.00000000000E+00  0.45593999997E+02  0.45594000000E+02  0.51100000000E-03 0.  1.
         11   -1    0    0    0    0 -0.00000000000E+00 -0.00000000000E+00 -0.45593999997E+02  0.45594000000E+02  0.51100000000E-03 0. -1.
         23    2    1    2    0    0  0.00000000000E+00 -0.88817841970E-15  0.00000000000E+00  0.91188000000E+02  0.91188000000E+02 0.  0.
    9900012    2    3    3    0    0  0.33981743229E+02 -0.72351551484E+01  0.12193138217E+02  0.54367096121E+02  0.40000027227E+02 0.  0.
         12    1    3    3    0    0 -0.33981743229E+02  0.72351551484E+01 -0.12193138217E+02  0.36820903879E+02  0.00000000000E+00 0. -1.
         11    1    4    4    0    0  0.28004378097E+02 -0.41088443307E+01  0.27422738203E+01  0.28436734346E+02  0.51100000000E-03 0. -1.
        -11    1    4    4    0    0  0.12647023331E+02  0.49869827070E+01  0.45093908694E+01  0.14323121236E+02  0.51100000000E-03 0.  1.
        -12    1    4    4    0    0 -0.66696581989E+01 -0.81132935248E+01  0.49414735275E+01  0.11607240539E+02  0.00000000000E+00 0.  1.
</event>
<event>
 8    1  0.2509489E-006  0.9118800E+02  0.7816164E-02  0.1184000E+00
        -11   -1    0    0    0    0  0.00000000000E+00  0.00000000000E+00  0.45593999997E+02  0.45594000000E+02  0.51100000000E-03 0. -1.
         11   -1    0    0    0    0 -0.00000000000E+00 -0.00000000000E+00 -0.45593999997E+02  0.45594000000E+02  0.51100000000E-03 0.  1.
         23    2    1    2    0    0  0.00000000000E+00  0.00000000000E+00  0.00000000000E+00  0.91188000000E+02  0.91188000000E+02 0.  0.
    9900012    2    3    3    0    0  0.18106964421E+02  0.26809105375E+02  0.17583782212E+02  0.54367086263E+02  0.40000004754E+02 0.  0.
        -12    1    3    3    0    0 -0.18106964421E+02 -0.26809105375E+02 -0.17583782212E+02  0.36820913737E+02  0.00000000000E+00 0.  1.
         11    1    4    4    0    0  0.15423611967E-01 -0.57759671327E+01 -0.19838016577E+01  0.61071682049E+01  0.51100000000E-03 0. -1.
        -11    1    4    4    0    0  0.99835591363E+01  0.22526569721E+02  0.24198766915E+02  0.34535461730E+02  0.51100000000E-03 0.  1.
        -12    1    4    4    0    0  0.81079816725E+01  0.10058502787E+02 -0.46311830457E+01  0.13724456329E+02  0.00000000000E+00 0.  1.
</event>
<event>
 8    1  0.2509489E-006  0.9118800E+02  0.7816164E-02  0.1184000E+00
        -11   -1    0    0    0    0  0.00000000000E+00  0.00000000000E+00  0.45593999997E+02  0.45594000000E+02  0.51100000000E-03 0.  1.
         11   -1    0    0    0    0 -0.00000000000E+00 -0.00000000000E+00 -0.45593999997E+02  0.45594000000E+02  0.51100000000E-03 0. -1.
         23    2    1    2    0    0 -0.35527136788E-14  0.88817841970E-15  0.35527136788E-14  0.91188000000E+02  0.91188000000E+02 0.  0.
    9900012    2    3    3    0    0  0.27558609405E+02 -0.57889270343E+01 -0.23723222977E+02  0.54367082888E+02  0.39999997060E+02 0.  0.
         12    1    3    3    0    0 -0.27558609405E+02  0.57889270343E+01  0.23723222977E+02  0.36820917112E+02  0.00000000000E+00 0. -1.
         11    1    4    4    0    0 -0.48168032683E+01 -0.10703400186E+02 -0.13726573574E+02  0.18060542395E+02  0.51100000000E-03 0. -1.
        -11    1    4    4    0    0  0.15576174564E+02 -0.43831373738E+00 -0.10288859037E+02  0.18672706112E+02  0.51100000000E-03 0.  1.
         12    1    4    4    0    0  0.16799238109E+02  0.53527868886E+01  0.29220963486E+00  0.17633834382E+02  0.00000000000E+00 0. -1.
</event>
<event>
 8    1  0.2509489E-006  0.9118800E+02  0.7816164E-02  0.1184000E+00
        -11   -1    0    0    0    0  0.00000000000E+00  0.00000000000E+00  0.45593999997E+02  0.45594000000E+02  0.51100000000E-03 0. -1.
         11   -1    0    0    0    0 -0.00000000000E+00 -0.00000000000E+00 -0.45593999997E+02  0.45594000000E+02  0.51100000000E-03 0.  1.
         23    2    1    2    0    0 -0.71054273576E-14  0.88817841970E-15  0.00000000000E+00  0.91188000000E+02  0.91188000000E+02 0.  0.
    9900012    2    3    3    0    0 -0.35753422247E+02 -0.37175477694E+01 -0.79779617954E+01  0.54367146694E+02  0.40000142518E+02 0.  0.
        -12    1    3    3    0    0  0.35753422247E+02  0.37175477694E+01  0.79779617954E+01  0.36820853306E+02  0.00000000000E+00 0.  1.
         11    1    4    4    0    0 -0.65657803597E+00  0.12986377111E+01  0.58731964293E+01  0.60507843442E+01  0.51100000000E-03 0. -1.
        -11    1    4    4    0    0 -0.19055136684E+01  0.97659693083E+01 -0.32405447336E+01  0.10464524323E+02  0.51100000000E-03 0.  1.
         12    1    4    4    0    0 -0.33191330542E+02 -0.14782154789E+02 -0.10610613491E+02  0.37851838027E+02  0.00000000000E+00 0. -1.
</event>
<event>
 8    1  0.2509489E-006  0.9118800E+02  0.7816164E-02  0.1184000E+00
        -11   -1    0    0    0    0  0.00000000000E+00  0.00000000000E+00  0.45593999997E+02  0.45594000000E+02  0.51100000000E-03 0. -1.
         11   -1    0    0    0    0 -0.00000000000E+00 -0.00000000000E+00 -0.45593999997E+02  0.45594000000E+02  0.51100000000E-03 0.  1.
         23    2    1    2    0    0  0.17763568394E-14  0.00000000000E+00  0.00000000000E+00  0.91188000000E+02  0.91188000000E+02 0.  0.
    9900012    2    3    3    0    0  0.77486977951E+01  0.42345911527E+01 -0.35746416004E+02  0.54367077458E+02  0.39999984680E+02 0.  0.
         12    1    3    3    0    0 -0.77486977951E+01 -0.42345911527E+01  0.35746416004E+02  0.36820922542E+02  0.00000000000E+00 0. -1.
         11    1    4    4    0    0  0.34818218865E+01  0.92497401164E+00  0.27132200502E+01  0.45100137332E+01  0.51100000000E-03 0. -1.
        -11    1    4    4    0    0 -0.19699954672E+01  0.10806508216E+02 -0.86547727812E+00  0.11018645703E+02  0.51100000000E-03 0.  1.
        -12    1    4    4    0    0  0.62368713758E+01 -0.74968910744E+01 -0.37594158776E+02  0.38838418021E+02  0.00000000000E+00 0.  1.
</event>
<event>
 8    1  0.2509489E-006  0.9118800E+02  0.7816164E-02  0.1184000E+00
        -11   -1    0    0    0    0  0.00000000000E+00  0.00000000000E+00  0.45593999997E+02  0.45594000000E+02  0.51100000000E-03 0.  1.
         11   -1    0    0    0    0 -0.00000000000E+00 -0.00000000000E+00 -0.45593999997E+02  0.45594000000E+02  0.51100000000E-03 0. -1.
         23    2    1    2    0    0  0.00000000000E+00  0.00000000000E+00  0.00000000000E+00  0.91188000000E+02  0.91188000000E+02 0.  0.
    9900012    2    3    3    0    0 -0.17459733768E+02  0.10165731999E+02 -0.30783058066E+02  0.54367067445E+02  0.39999961853E+02 0.  0.
        -12    1    3    3    0    0  0.17459733768E+02 -0.10165731999E+02  0.30783058066E+02  0.36820932555E+02  0.00000000000E+00 0.  1.
         11    1    4    4    0    0 -0.17241677532E+02  0.12436761975E+02 -0.34382777244E+01  0.21535325549E+02  0.51100000000E-03 0. -1.
        -11    1    4    4    0    0 -0.75701607090E+01  0.35823334068E+01 -0.95064967737E+01  0.12669409101E+02  0.51100000000E-03 0.  1.
        -12    1    4    4    0    0  0.73521044728E+01 -0.58533633821E+01 -0.17838283568E+02  0.20162332794E+02  0.00000000000E+00 0.  1.
</event>
<event>
 8    1  0.2509489E-006  0.9118800E+02  0.7816164E-02  0.1184000E+00
        -11   -1    0    0    0    0  0.00000000000E+00  0.00000000000E+00  0.45593999997E+02  0.45594000000E+02  0.51100000000E-03 0.  1.
         11   -1    0    0    0    0 -0.00000000000E+00 -0.00000000000E+00 -0.45593999997E+02  0.45594000000E+02  0.51100000000E-03 0. -1.
         23    2    1    2    0    0  0.16653345369E-15  0.35527136788E-14  0.00000000000E+00  0.91188000000E+02  0.91188000000E+02 0.  0.
    9900012    2    3    3    0    0  0.32899358211E+00 -0.31110278091E+02 -0.19693268851E+02  0.54367048387E+02  0.39999918407E+02 0.  0.
        -12    1    3    3    0    0 -0.32899358211E+00  0.31110278091E+02  0.19693268851E+02  0.36820951613E+02  0.00000000000E+00 0.  1.
         11    1    4    4    0    0 -0.16704887355E+02 -0.11899788896E+02 -0.91818535544E+01  0.22471419009E+02  0.51100000000E-03 0. -1.
        -11    1    4    4    0    0  0.94862757977E+01 -0.20280249673E+02 -0.66837721565E+01  0.23365589353E+02  0.51100000000E-03 0.  1.
        -12    1    4    4    0    0  0.75476051395E+01  0.10697604776E+01 -0.38276431403E+01  0.85300400251E+01  0.00000000000E+00 0.  1.
</event>
<event>
 8    1  0.2509489E-006  0.9118800E+02  0.7816164E-02  0.1184000E+00
        -11   -1    0    0    0    0  0.00000000000E+00  0.00000000000E+00  0.45593999997E+02  0.45594000000E+02  0.51100000000E-03 0. -1.
         11   -1    0    0    0    0 -0.00000000000E+00 -0.00000000000E+00 -0.45593999997E+02  0.45594000000E+02  0.51100000000E-03 0.  1.
         23    2    1    2    0    0  0.88817841970E-15 -0.17763568394E-14  0.00000000000E+00  0.91188000000E+02  0.91188000000E+02 0.  0.
    9900012    2    3    3    0    0  0.18591503760E+01 -0.15658731273E+02 -0.33273534628E+02  0.54367076440E+02  0.39999982359E+02 0.  0.
         12    1    3    3    0    0 -0.18591503760E+01  0.15658731273E+02  0.33273534628E+02  0.36820923560E+02  0.00000000000E+00 0. -1.
         11    1    4    4    0    0  0.12474408210E+02 -0.16015993557E+02 -0.56370570412E+01  0.21068918391E+02  0.51100000000E-03 0. -1.
        -11    1    4    4    0    0 -0.24986122175E+01 -0.70980607893E+01 -0.10323667502E+02  0.12775118040E+02  0.51100000000E-03 0.  1.
         12    1    4    4    0    0 -0.81166456164E+01  0.74553230731E+01 -0.17312810084E+02  0.20523040009E+02  0.00000000000E+00 0. -1.
</event>
<event>
 8    1  0.2509489E-006  0.9118800E+02  0.7816164E-02  0.1184000E+00
        -11   -1    0    0    0    0  0.00000000000E+00  0.00000000000E+00  0.45593999997E+02  0.45594000000E+02  0.51100000000E-03 0. -1.
         11   -1    0    0    0    0 -0.00000000000E+00 -0.00000000000E+00 -0.45593999997E+02  0.45594000000E+02  0.51100000000E-03 0.  1.
         23    2    1    2    0    0  0.00000000000E+00  0.00000000000E+00  0.00000000000E+00  0.91188000000E+02  0.91188000000E+02 0.  0.
    9900012    2    3    3    0    0 -0.27662299891E+02 -0.16953367034E+02 -0.17411474847E+02  0.54367096352E+02  0.40000027754E+02 0.  0.
         12    1    3    3    0    0  0.27662299891E+02  0.16953367034E+02  0.17411474847E+02  0.36820903648E+02  0.00000000000E+00 0. -1.
         11    1    4    4    0    0 -0.70433361601E+01  0.11388893530E+02 -0.23405764274E+01  0.13593887538E+02  0.51100000000E-03 0. -1.
        -11    1    4    4    0    0 -0.29624815725E+01 -0.28753800525E+01 -0.79780191486E+01  0.89829225373E+01  0.51100000000E-03 0.  1.
        -12    1    4    4    0    0 -0.17656482159E+02 -0.25466880512E+02 -0.70928792710E+01  0.31790286277E+02  0.00000000000E+00 0.  1.
</event>
<event>
 8    1  0.2509489E-006  0.9118800E+02  0.7816164E-02  0.1184000E+00
        -11   -1    0    0    0    0  0.00000000000E+00  0.00000000000E+00  0.45593999997E+02  0.45594000000E+02  0.51100000000E-03 0.  1.
         11   -1    0    0    0    0 -0.00000000000E+00 -0.00000000000E+00 -0.45593999997E+02  0.45594000000E+02  0.51100000000E-03 0. -1.
         23    2    1    2    0    0  0.00000000000E+00  0.00000000000E+00  0.00000000000E+00  0.91188000000E+02  0.91188000000E+02 0.  0.
    9900012    2    3    3    0    0 -0.23528298867E+02  0.20822709604E+02 -0.19199342725E+02  0.54367070572E+02  0.39999968984E+02 0.  0.
        -12    1    3    3    0    0  0.23528298867E+02 -0.20822709604E+02  0.19199342725E+02  0.36820929428E+02  0.00000000000E+00 0.  1.
         11    1    4    4    0    0 -0.27466603717E+02  0.46297837414E+01 -0.21445302789E+02  0.35153239242E+02  0.51100000000E-03 0. -1.
        -11    1    4    4    0    0 -0.12061623917E+01  0.49303106174E+01  0.43128390062E+01  0.66605833869E+01  0.51100000000E-03 0.  1.
         12    1    4    4    0    0  0.51444672413E+01  0.11262615245E+02 -0.20668789415E+01  0.12553247943E+02  0.00000000000E+00 0. -1.
</event>
<event>
 8    1  0.2509489E-006  0.9118800E+02  0.7816164E-02  0.1184000E+00
        -11   -1    0    0    0    0  0.00000000000E+00  0.00000000000E+00  0.45593999997E+02  0.45594000000E+02  0.51100000000E-03 0.  1.
         11   -1    0    0    0    0 -0.00000000000E+00 -0.00000000000E+00 -0.45593999997E+02  0.45594000000E+02  0.51100000000E-03 0. -1.
         23    2    1    2    0    0 -0.71054273576E-14  0.00000000000E+00  0.17763568394E-14  0.91188000000E+02  0.91188000000E+02 0.  0.
    9900012    2    3    3    0    0 -0.34168125957E+02  0.89887856480E+01  0.10369198647E+02  0.54367090459E+02  0.40000014320E+02 0.  0.
         12    1    3    3    0    0  0.34168125957E+02 -0.89887856480E+01 -0.10369198647E+02  0.36820909541E+02  0.00000000000E+00 0. -1.
         11    1    4    4    0    0 -0.25032847468E+01  0.15803746321E+01  0.76173874807E+01  0.81724299198E+01  0.51100000000E-03 0. -1.
        -11    1    4    4    0    0  0.54354676227E+01 -0.28523684381E+01 -0.36960851927E+01  0.71652885494E+01  0.51100000000E-03 0.  1.
        -12    1    4    4    0    0 -0.37100308833E+02  0.10260779454E+02  0.64478963595E+01  0.39029371990E+02  0.00000000000E+00 0.  1.
</event>
<event>
 8    1  0.2509489E-006  0.9118800E+02  0.7816164E-02  0.1184000E+00
        -11   -1    0    0    0    0  0.00000000000E+00  0.00000000000E+00  0.45593999997E+02  0.45594000000E+02  0.51100000000E-03 0.  1.
         11   -1    0    0    0    0 -0.00000000000E+00 -0.00000000000E+00 -0.45593999997E+02  0.45594000000E+02  0.51100000000E-03 0. -1.
         23    2    1    2    0    0  0.71054273576E-14  0.00000000000E+00 -0.17763568394E-14  0.91188000000E+02  0.91188000000E+02 0.  0.
    9900012    2    3    3    0    0 -0.34643038354E+02  0.65969102749E+01  0.10588589890E+02  0.54367115064E+02  0.40000070412E+02 0.  0.
         12    1    3    3    0    0  0.34643038354E+02 -0.65969102749E+01 -0.10588589890E+02  0.36820884936E+02  0.00000000000E+00 0. -1.
         11    1    4    4    0    0  0.16857301331E+01 -0.24326887336E+00  0.13156952450E+02  0.13266735237E+02  0.51100000000E-03 0. -1.
        -11    1    4    4    0    0 -0.64769265946E+01  0.62627448915E+01 -0.63242237959E+01  0.11007650002E+02  0.51100000000E-03 0.  1.
        -12    1    4    4    0    0 -0.29851841893E+02  0.57743425679E+00  0.37558612361E+01  0.30092729825E+02  0.00000000000E+00 0.  1.
</event>
<event>
 8    1  0.2509489E-006  0.9118800E+02  0.7816164E-02  0.1184000E+00
        -11   -1    0    0    0    0  0.00000000000E+00  0.00000000000E+00  0.45593999997E+02  0.45594000000E+02  0.51100000000E-03 0.  1.
         11   -1    0    0    0    0 -0.00000000000E+00 -0.00000000000E+00 -0.45593999997E+02  0.45594000000E+02  0.51100000000E-03 0. -1.
         23    2    1    2    0    0 -0.17763568394E-14  0.00000000000E+00  0.00000000000E+00  0.91188000000E+02  0.91188000000E+02 0.  0.
    9900012    2    3    3    0    0  0.60429205400E+01  0.20675834112E+02 -0.29862567555E+02  0.54367082767E+02  0.39999996784E+02 0.  0.
        -12    1    3    3    0    0 -0.60429205400E+01 -0.20675834112E+02  0.29862567555E+02  0.36820917233E+02  0.00000000000E+00 0.  1.
         11    1    4    4    0    0 -0.89151348215E+01  0.49451366861E+01 -0.29771777493E+01  0.10620621137E+02  0.51100000000E-03 0. -1.
        -11    1    4    4    0    0  0.36223769881E+01  0.21444740920E+02 -0.18276375399E+02  0.28408175340E+02  0.51100000000E-03 0.  1.
        -12    1    4    4    0    0  0.11335678373E+02 -0.57140434941E+01 -0.86090144067E+01  0.15338286289E+02  0.00000000000E+00 0.  1.
</event>
<event>
 8    1  0.2509489E-006  0.9118800E+02  0.7816164E-02  0.1184000E+00
        -11   -1    0    0    0    0  0.00000000000E+00  0.00000000000E+00  0.45593999997E+02  0.45594000000E+02  0.51100000000E-03 0.  1.
         11   -1    0    0    0    0 -0.00000000000E+00 -0.00000000000E+00 -0.45593999997E+02  0.45594000000E+02  0.51100000000E-03 0. -1.
         23    2    1    2    0    0  0.00000000000E+00  0.00000000000E+00  0.00000000000E+00  0.91188000000E+02  0.91188000000E+02 0.  0.
    9900012    2    3    3    0    0 -0.99875173732E+01  0.21928970849E+02 -0.27841520692E+02  0.54367074697E+02  0.39999978386E+02 0.  0.
        -12    1    3    3    0    0  0.99875173732E+01 -0.21928970849E+02  0.27841520692E+02  0.36820925303E+02  0.00000000000E+00 0.  1.
         11    1    4    4    0    0  0.28778238732E+01  0.74418130421E+01 -0.94451068663E+01  0.12364161742E+02  0.51100000000E-03 0. -1.
        -11    1    4    4    0    0 -0.27828415858E+01  0.10526050346E+02 -0.26385027517E+02  0.28543153654E+02  0.51100000000E-03 0.  1.
        -12    1    4    4    0    0 -0.10082499661E+02  0.39611074600E+01  0.79886136914E+01  0.13459759301E+02  0.00000000000E+00 0.  1.
</event>
<event>
 8    1  0.2509489E-006  0.9118800E+02  0.7816164E-02  0.1184000E+00
        -11   -1    0    0    0    0  0.00000000000E+00  0.00000000000E+00  0.45593999997E+02  0.45594000000E+02  0.51100000000E-03 0.  1.
         11   -1    0    0    0    0 -0.00000000000E+00 -0.00000000000E+00 -0.45593999997E+02  0.45594000000E+02  0.51100000000E-03 0. -1.
         23    2    1    2    0    0 -0.22204460493E-15  0.00000000000E+00 -0.71054273576E-14  0.91188000000E+02  0.91188000000E+02 0.  0.
    9900012    2    3    3    0    0 -0.13335620392E+01 -0.11594303459E+02 -0.34922394679E+02  0.54367083247E+02  0.39999997877E+02 0.  0.
        -12    1    3    3    0    0  0.13335620392E+01  0.11594303459E+02  0.34922394679E+02  0.36820916753E+02  0.00000000000E+00 0.  1.
         11    1    4    4    0    0 -0.28099691243E+01  0.39308284312E+01 -0.16973085908E+01  0.51213470248E+01  0.51100000000E-03 0. -1.
        -11    1    4    4    0    0  0.55560226768E+01 -0.13110623018E+02 -0.39149210253E+02  0.41658354355E+02  0.51100000000E-03 0.  1.
        -12    1    4    4    0    0 -0.40796155916E+01 -0.24145088725E+01  0.59241241645E+01  0.75873818665E+01  0.00000000000E+00 0.  1.
</event>
<event>
 8    1  0.2509489E-006  0.9118800E+02  0.7816164E-02  0.1184000E+00
        -11   -1    0    0    0    0  0.00000000000E+00  0.00000000000E+00  0.45593999997E+02  0.45594000000E+02  0.51100000000E-03 0.  1.
         11   -1    0    0    0    0 -0.00000000000E+00 -0.00000000000E+00 -0.45593999997E+02  0.45594000000E+02  0.51100000000E-03 0. -1.
         23    2    1    2    0    0  0.00000000000E+00  0.00000000000E+00  0.00000000000E+00  0.91188000000E+02  0.91188000000E+02 0.  0.
    9900012    2    3    3    0    0  0.19583843160E+02 -0.28666957648E+02 -0.12266119400E+02  0.54367094812E+02  0.40000024244E+02 0.  0.
        -12    1    3    3    0    0 -0.19583843160E+02  0.28666957648E+02  0.12266119400E+02  0.36820905188E+02  0.00000000000E+00 0.  1.
         11    1    4    4    0    0  0.10041240355E+02 -0.14917850638E+02 -0.21632613907E+01  0.18112108536E+02  0.51100000000E-03 0. -1.
        -11    1    4    4    0    0  0.81947966429E+01  0.87795038783E+01 -0.15043859714E+01  0.12103617549E+02  0.51100000000E-03 0.  1.
         12    1    4    4    0    0  0.13478061625E+01 -0.22528610888E+02 -0.85984720382E+01  0.24151368727E+02  0.00000000000E+00 0. -1.
</event>
<event>
 8    1  0.2509489E-006  0.9118800E+02  0.7816164E-02  0.1184000E+00
        -11   -1    0    0    0    0  0.00000000000E+00  0.00000000000E+00  0.45593999997E+02  0.45594000000E+02  0.51100000000E-03 0. -1.
         11   -1    0    0    0    0 -0.00000000000E+00 -0.00000000000E+00 -0.45593999997E+02  0.45594000000E+02  0.51100000000E-03 0.  1.
         23    2    1    2    0    0  0.00000000000E+00  0.00000000000E+00  0.00000000000E+00  0.91188000000E+02  0.91188000000E+02 0.  0.
    9900012    2    3    3    0    0 -0.33483348368E+02 -0.90278825362E+01  0.12375073835E+02  0.54367085651E+02  0.40000003359E+02 0.  0.
         12    1    3    3    0    0  0.33483348368E+02  0.90278825362E+01 -0.12375073835E+02  0.36820914349E+02  0.00000000000E+00 0. -1.
         11    1    4    4    0    0 -0.32580670507E+02  0.11217593161E+01  0.86118608451E+01  0.33718282609E+02  0.51100000000E-03 0. -1.
        -11    1    4    4    0    0  0.44184955861E+01 -0.75806630158E+01  0.91326664686E+01  0.12664720766E+02  0.51100000000E-03 0.  1.
         12    1    4    4    0    0 -0.53211734475E+01 -0.25689788365E+01 -0.53694534788E+01  0.79840822754E+01  0.00000000000E+00 0. -1.
</event>
<event>
 8    1  0.2509489E-006  0.9118800E+02  0.7816164E-02  0.1184000E+00
        -11   -1    0    0    0    0  0.00000000000E+00  0.00000000000E+00  0.45593999997E+02  0.45594000000E+02  0.51100000000E-03 0. -1.
         11   -1    0    0    0    0 -0.00000000000E+00 -0.00000000000E+00 -0.45593999997E+02  0.45594000000E+02  0.51100000000E-03 0.  1.
         23    2    1    2    0    0  0.00000000000E+00  0.00000000000E+00  0.00000000000E+00  0.91188000000E+02  0.91188000000E+02 0.  0.
    9900012    2    3    3    0    0  0.19016561236E+02 -0.75998274962E+01 -0.30600539981E+02  0.54367081674E+02  0.39999994293E+02 0.  0.
         12    1    3    3    0    0 -0.19016561236E+02  0.75998274962E+01  0.30600539981E+02  0.36820918326E+02  0.00000000000E+00 0. -1.
         11    1    4    4    0    0  0.63543377111E+01 -0.62083693795E+01  0.41871240321E+01  0.98210725494E+01  0.51100000000E-03 0.  1.
        -11    1    4    4    0    0 -0.73781817772E+01 -0.23182944233E+01 -0.87965200075E+01  0.11712848495E+02  0.51100000000E-03 0. -1.
        -12    1    4    4    0    0  0.20040405302E+02  0.92683630663E+00 -0.25991144006E+02  0.32833160630E+02  0.00000000000E+00 0.  1.
</event>
<event>
 8    1  0.2509489E-006  0.9118800E+02  0.7816164E-02  0.1184000E+00
        -11   -1    0    0    0    0  0.00000000000E+00  0.00000000000E+00  0.45593999997E+02  0.45594000000E+02  0.51100000000E-03 0.  1.
         11   -1    0    0    0    0 -0.00000000000E+00 -0.00000000000E+00 -0.45593999997E+02  0.45594000000E+02  0.51100000000E-03 0. -1.
         23    2    1    2    0    0 -0.13322676296E-14  0.35527136788E-14  0.00000000000E+00  0.91188000000E+02  0.91188000000E+02 0.  0.
    9900012    2    3    3    0    0 -0.39023620935E+01  0.27354576830E+02  0.24336777000E+02  0.54367081785E+02  0.39999994546E+02 0.  0.
         12    1    3    3    0    0  0.39023620935E+01 -0.27354576830E+02 -0.24336777000E+02  0.36820918215E+02  0.00000000000E+00 0. -1.
         11    1    4    4    0    0 -0.94965740634E+01  0.20022181799E+01 -0.13111795629E+01  0.97935176871E+01  0.51100000000E-03 0. -1.
        -11    1    4    4    0    0  0.83836896886E+01  0.62998453701E+00 -0.57423527726E+00  0.84269140097E+01  0.51100000000E-03 0.  1.
        -12    1    4    4    0    0 -0.27894777188E+01  0.24722374113E+02  0.26222191840E+02  0.36146650088E+02  0.00000000000E+00 0.  1.
</event>
<event>
 8    1  0.2509489E-006  0.9118800E+02  0.7816164E-02  0.1184000E+00
        -11   -1    0    0    0    0  0.00000000000E+00  0.00000000000E+00  0.45593999997E+02  0.45594000000E+02  0.51100000000E-03 0.  1.
         11   -1    0    0    0    0 -0.00000000000E+00 -0.00000000000E+00 -0.45593999997E+02  0.45594000000E+02  0.51100000000E-03 0. -1.
         23    2    1    2    0    0 -0.35527136788E-14  0.00000000000E+00  0.35527136788E-14  0.91188000000E+02  0.91188000000E+02 0.  0.
    9900012    2    3    3    0    0  0.92414688388E+01  0.16142576877E+02  0.31777236733E+02  0.54367077837E+02  0.39999985546E+02 0.  0.
         12    1    3    3    0    0 -0.92414688388E+01 -0.16142576877E+02 -0.31777236733E+02  0.36820922163E+02  0.00000000000E+00 0. -1.
         11    1    4    4    0    0 -0.44475255792E+01  0.50400793985E+00  0.54147446898E+01  0.70252379389E+01  0.51100000000E-03 0. -1.
        -11    1    4    4    0    0 -0.97505359860E+01  0.86973102308E+00  0.13807041409E+02  0.16925240820E+02  0.51100000000E-03 0.  1.
        -12    1    4    4    0    0  0.23439530404E+02  0.14768837915E+02  0.12555450634E+02  0.30416599079E+02  0.00000000000E+00 0.  1.
</event>
<event>
 8    1  0.2509489E-006  0.9118800E+02  0.7816164E-02  0.1184000E+00
        -11   -1    0    0    0    0  0.00000000000E+00  0.00000000000E+00  0.45593999997E+02  0.45594000000E+02  0.51100000000E-03 0. -1.
         11   -1    0    0    0    0 -0.00000000000E+00 -0.00000000000E+00 -0.45593999997E+02  0.45594000000E+02  0.51100000000E-03 0.  1.
         23    2    1    2    0    0  0.00000000000E+00  0.00000000000E+00  0.88817841970E-15  0.91188000000E+02  0.91188000000E+02 0.  0.
    9900012    2    3    3    0    0  0.26635369650E+02 -0.25126807022E+02 -0.38704610809E+01  0.54367084524E+02  0.40000000789E+02 0.  0.
         12    1    3    3    0    0 -0.26635369650E+02  0.25126807022E+02  0.38704610809E+01  0.36820915476E+02  0.00000000000E+00 0. -1.
         11    1    4    4    0    0  0.12738448353E+02 -0.57092647297E+01 -0.18569334026E+02  0.23231098481E+02  0.51100000000E-03 0. -1.
        -11    1    4    4    0    0  0.12770519939E+02 -0.12881052749E+02  0.16217686024E+02  0.24331482480E+02  0.51100000000E-03 0.  1.
        -12    1    4    4    0    0  0.11264013581E+01 -0.65364895437E+01 -0.15188130784E+01  0.68045035632E+01  0.00000000000E+00 0.  1.
</event>
<event>
 8    1  0.2509489E-006  0.9118800E+02  0.7816164E-02  0.1184000E+00
        -11   -1    0    0    0    0  0.00000000000E+00  0.00000000000E+00  0.45593999997E+02  0.45594000000E+02  0.51100000000E-03 0.  1.
         11   -1    0    0    0    0 -0.00000000000E+00 -0.00000000000E+00 -0.45593999997E+02  0.45594000000E+02  0.51100000000E-03 0. -1.
         23    2    1    2    0    0  0.00000000000E+00  0.00000000000E+00  0.00000000000E+00  0.91188000000E+02  0.91188000000E+02 0.  0.
    9900012    2    3    3    0    0 -0.19245601617E+02 -0.19738267145E+02 -0.24408769862E+02  0.54367076361E+02  0.39999982179E+02 0.  0.
        -12    1    3    3    0    0  0.19245601617E+02  0.19738267145E+02  0.24408769862E+02  0.36820923639E+02  0.00000000000E+00 0.  1.
         11    1    4    4    0    0 -0.69478932633E+01 -0.39337428240E+00 -0.17699020680E+02  0.19017973010E+02  0.51100000000E-03 0. -1.
        -11    1    4    4    0    0 -0.18434739092E+02 -0.72775925424E+01  0.86080205779E+00  0.19837941905E+02  0.51100000000E-03 0.  1.
         12    1    4    4    0    0  0.61370307382E+01 -0.12067300321E+02 -0.75705512395E+01  0.15511161445E+02  0.00000000000E+00 0. -1.
</event>
<event>
 8    1  0.2509489E-006  0.9118800E+02  0.7816164E-02  0.1184000E+00
        -11   -1    0    0    0    0  0.00000000000E+00  0.00000000000E+00  0.45593999997E+02  0.45594000000E+02  0.51100000000E-03 0. -1.
         11   -1    0    0    0    0 -0.00000000000E+00 -0.00000000000E+00 -0.45593999997E+02  0.45594000000E+02  0.51100000000E-03 0.  1.
         23    2    1    2    0    0  0.17763568394E-14  0.11102230246E-15  0.71054273576E-14  0.91188000000E+02  0.91188000000E+02 0.  0.
    9900012    2    3    3    0    0  0.73920259872E+01  0.78167520702E+00  0.36062830587E+02  0.54367070975E+02  0.39999969902E+02 0.  0.
        -12    1    3    3    0    0 -0.73920259872E+01 -0.78167520702E+00 -0.36062830587E+02  0.36820929025E+02  0.00000000000E+00 0.  1.
         11    1    4    4    0    0 -0.24422923449E+01 -0.62177406064E+01  0.36984611352E+02  0.37583062239E+02  0.51100000000E-03 0. -1.
        -11    1    4    4    0    0  0.31547889608E+01  0.37318057709E+01  0.52121251895E+01  0.71446005453E+01  0.51100000000E-03 0.  1.
        -12    1    4    4    0    0  0.66795293712E+01  0.32676100425E+01 -0.61339059545E+01  0.96394081908E+01  0.00000000000E+00 0.  1.
</event>
<event>
 8    1  0.2509489E-006  0.9118800E+02  0.7816164E-02  0.1184000E+00
        -11   -1    0    0    0    0  0.00000000000E+00  0.00000000000E+00  0.45593999997E+02  0.45594000000E+02  0.51100000000E-03 0.  1.
         11   -1    0    0    0    0 -0.00000000000E+00 -0.00000000000E+00 -0.45593999997E+02  0.45594000000E+02  0.51100000000E-03 0. -1.
         23    2    1    2    0    0 -0.35527136788E-14 -0.71054273576E-14  0.00000000000E+00  0.91188000000E+02  0.91188000000E+02 0.  0.
    9900012    2    3    3    0    0 -0.18540719582E+02 -0.29606897440E+02 -0.11638438750E+02  0.54367083184E+02  0.39999997735E+02 0.  0.
        -12    1    3    3    0    0  0.18540719582E+02  0.29606897440E+02  0.11638438750E+02  0.36820916816E+02  0.00000000000E+00 0.  1.
         11    1    4    4    0    0 -0.10987636729E+02 -0.26892274480E+02  0.72674731934E+01  0.29945596579E+02  0.51100000000E-03 0. -1.
        -11    1    4    4    0    0  0.35461186909E+00 -0.18913093427E+00 -0.15408305341E+02  0.15413545790E+02  0.51100000000E-03 0.  1.
        -12    1    4    4    0    0 -0.79076947215E+01 -0.25254920253E+01 -0.34976066028E+01  0.90079408150E+01  0.00000000000E+00 0.  1.
</event>
<event>
 8    1  0.2509489E-006  0.9118800E+02  0.7816164E-02  0.1184000E+00
        -11   -1    0    0    0    0  0.00000000000E+00  0.00000000000E+00  0.45593999997E+02  0.45594000000E+02  0.51100000000E-03 0.  1.
         11   -1    0    0    0    0 -0.00000000000E+00 -0.00000000000E+00 -0.45593999997E+02  0.45594000000E+02  0.51100000000E-03 0. -1.
         23    2    1    2    0    0 -0.55511151231E-16 -0.35527136788E-14  0.00000000000E+00  0.91188000000E+02  0.91188000000E+02 0.  0.
    9900012    2    3    3    0    0  0.14182835381E+00 -0.91556044076E+01 -0.35664202340E+02  0.54367074755E+02  0.39999978520E+02 0.  0.
        -12    1    3    3    0    0 -0.14182835381E+00  0.91556044076E+01  0.35664202340E+02  0.36820925245E+02  0.00000000000E+00 0.  1.
         11    1    4    4    0    0  0.50934926559E+01 -0.20521399039E+02 -0.17300126835E+02  0.27319697559E+02  0.51100000000E-03 0. -1.
        -11    1    4    4    0    0 -0.76683957130E+01 -0.20367807063E+00 -0.49664893773E+01  0.91384787882E+01  0.51100000000E-03 0.  1.
         12    1    4    4    0    0  0.27167314108E+01  0.11569472702E+02 -0.13397586128E+02  0.17908898408E+02  0.00000000000E+00 0. -1.
</event>
<event>
 8    1  0.2509489E-006  0.9118800E+02  0.7816164E-02  0.1184000E+00
        -11   -1    0    0    0    0  0.00000000000E+00  0.00000000000E+00  0.45593999997E+02  0.45594000000E+02  0.51100000000E-03 0.  1.
         11   -1    0    0    0    0 -0.00000000000E+00 -0.00000000000E+00 -0.45593999997E+02  0.45594000000E+02  0.51100000000E-03 0. -1.
         23    2    1    2    0    0  0.71054273576E-14  0.71054273576E-14  0.35527136788E-14  0.91188000000E+02  0.91188000000E+02 0.  0.
    9900012    2    3    3    0    0  0.29681371479E+02  0.13178803428E+02  0.17352656550E+02  0.54367090696E+02  0.40000014859E+02 0.  0.
         12    1    3    3    0    0 -0.29681371479E+02 -0.13178803428E+02 -0.17352656550E+02  0.36820909304E+02  0.00000000000E+00 0. -1.
         11    1    4    4    0    0 -0.33477091423E+01  0.68655653692E-01 -0.65355440509E+01  0.73433784052E+01  0.51100000000E-03 0. -1.
        -11    1    4    4    0    0  0.51694391947E+01 -0.18988240168E+01 -0.22798501306E+01  0.59603985700E+01  0.51100000000E-03 0.  1.
        -12    1    4    4    0    0  0.27859641427E+02  0.15008971791E+02  0.26168050731E+02  0.41063313721E+02  0.00000000000E+00 0.  1.
</event>
<event>
 8    1  0.2509489E-006  0.9118800E+02  0.7816164E-02  0.1184000E+00
        -11   -1    0    0    0    0  0.00000000000E+00  0.00000000000E+00  0.45593999997E+02  0.45594000000E+02  0.51100000000E-03 0.  1.
         11   -1    0    0    0    0 -0.00000000000E+00 -0.00000000000E+00 -0.45593999997E+02  0.45594000000E+02  0.51100000000E-03 0. -1.
         23    2    1    2    0    0  0.00000000000E+00  0.00000000000E+00 -0.35527136788E-14  0.91188000000E+02  0.91188000000E+02 0.  0.
    9900012    2    3    3    0    0  0.30891201277E+02 -0.56020427584E+01  0.19238769263E+02  0.54367089607E+02  0.40000012377E+02 0.  0.
         12    1    3    3    0    0 -0.30891201277E+02  0.56020427584E+01 -0.19238769263E+02  0.36820910393E+02  0.00000000000E+00 0. -1.
         11    1    4    4    0    0  0.33133605802E+02  0.13825612843E+01  0.26425736268E+02  0.42403618321E+02  0.51100000000E-03 0.  1.
        -11    1    4    4    0    0  0.80784100605E+00 -0.44262262942E+01 -0.10045282476E+01  0.46101153521E+01  0.51100000000E-03 0. -1.
        -12    1    4    4    0    0 -0.30502455314E+01 -0.25583777485E+01 -0.61824387568E+01  0.73533559336E+01  0.00000000000E+00 0.  1.
</event>
<event>
 8    1  0.2509489E-006  0.9118800E+02  0.7816164E-02  0.1184000E+00
        -11   -1    0    0    0    0  0.00000000000E+00  0.00000000000E+00  0.45593999997E+02  0.45594000000E+02  0.51100000000E-03 0.  1.
         11   -1    0    0    0    0 -0.00000000000E+00 -0.00000000000E+00 -0.45593999997E+02  0.45594000000E+02  0.51100000000E-03 0. -1.
         23    2    1    2    0    0  0.00000000000E+00 -0.88817841970E-15  0.35527136788E-14  0.91188000000E+02  0.91188000000E+02 0.  0.
    9900012    2    3    3    0    0 -0.25035694233E+02 -0.61780828546E+01  0.26283555314E+02  0.54367082393E+02  0.39999995932E+02 0.  0.
         12    1    3    3    0    0  0.25035694233E+02  0.61780828546E+01 -0.26283555314E+02  0.36820917607E+02  0.00000000000E+00 0. -1.
         11    1    4    4    0    0 -0.16694039633E+02  0.18591875012E+01  0.10827949500E+01  0.16832111650E+02  0.51100000000E-03 0. -1.
        -11    1    4    4    0    0 -0.15191102032E+02  0.10108330107E+01  0.87817886879E+01  0.17575869172E+02  0.51100000000E-03 0.  1.
         12    1    4    4    0    0  0.68494474322E+01 -0.90481033665E+01  0.16418971676E+02  0.19959101572E+02  0.00000000000E+00 0. -1.
</event>
<event>
 8    1  0.2509489E-006  0.9118800E+02  0.7816164E-02  0.1184000E+00
        -11   -1    0    0    0    0  0.00000000000E+00  0.00000000000E+00  0.45593999997E+02  0.45594000000E+02  0.51100000000E-03 0.  1.
         11   -1    0    0    0    0 -0.00000000000E+00 -0.00000000000E+00 -0.45593999997E+02  0.45594000000E+02  0.51100000000E-03 0. -1.
         23    2    1    2    0    0  0.00000000000E+00 -0.35527136788E-14 -0.35527136788E-14  0.91188000000E+02  0.91188000000E+02 0.  0.
    9900012    2    3    3    0    0 -0.53206749590E+01 -0.23207714675E+02  0.28086845448E+02  0.54367102541E+02  0.40000041863E+02 0.  0.
         12    1    3    3    0    0  0.53206749590E+01  0.23207714675E+02 -0.28086845448E+02  0.36820897459E+02  0.00000000000E+00 0. -1.
         11    1    4    4    0    0  0.11020338269E+01 -0.17565047909E+02 -0.32283206031E+00  0.17602545480E+02  0.51100000000E-03 0. -1.
        -11    1    4    4    0    0 -0.70642289244E+01 -0.21634084436E+01  0.31322383848E+02  0.32181911015E+02  0.51100000000E-03 0.  1.
        -12    1    4    4    0    0  0.64152013855E+00 -0.34792583225E+01 -0.29127063396E+01  0.45826460460E+01  0.00000000000E+00 0.  1.
</event>
<event>
 8    1  0.2509489E-006  0.9118800E+02  0.7816164E-02  0.1184000E+00
        -11   -1    0    0    0    0  0.00000000000E+00  0.00000000000E+00  0.45593999997E+02  0.45594000000E+02  0.51100000000E-03 0. -1.
         11   -1    0    0    0    0 -0.00000000000E+00 -0.00000000000E+00 -0.45593999997E+02  0.45594000000E+02  0.51100000000E-03 0.  1.
         23    2    1    2    0    0  0.00000000000E+00  0.00000000000E+00 -0.35527136788E-14  0.91188000000E+02  0.91188000000E+02 0.  0.
    9900012    2    3    3    0    0 -0.52185055805E+01 -0.23627330512E+02 -0.27754216091E+02  0.54367081239E+02  0.39999993300E+02 0.  0.
         12    1    3    3    0    0  0.52185055805E+01  0.23627330512E+02  0.27754216091E+02  0.36820918761E+02  0.00000000000E+00 0. -1.
         11    1    4    4    0    0 -0.53260645416E+01  0.90448967443E+01 -0.82249064642E-01  0.10496851232E+02  0.51100000000E-03 0.  1.
        -11    1    4    4    0    0 -0.46379326192E+01 -0.19137956368E+02 -0.15540561640E+02  0.25085470880E+02  0.51100000000E-03 0. -1.
        -12    1    4    4    0    0  0.47454915803E+01 -0.13534270888E+02 -0.12131405386E+02  0.18784759127E+02  0.00000000000E+00 0.  1.
</event>
<event>
 8    1  0.2509489E-006  0.9118800E+02  0.7816164E-02  0.1184000E+00
        -11   -1    0    0    0    0  0.00000000000E+00  0.00000000000E+00  0.45593999997E+02  0.45594000000E+02  0.51100000000E-03 0.  1.
         11   -1    0    0    0    0 -0.00000000000E+00 -0.00000000000E+00 -0.45593999997E+02  0.45594000000E+02  0.51100000000E-03 0. -1.
         23    2    1    2    0    0  0.35527136788E-14 -0.35527136788E-14  0.00000000000E+00  0.91188000000E+02  0.91188000000E+02 0.  0.
    9900012    2    3    3    0    0 -0.23397344736E+02 -0.27011723435E+02 -0.88724516685E+01  0.54366955172E+02  0.39999705905E+02 0.  0.
        -12    1    3    3    0    0  0.23397344736E+02  0.27011723435E+02  0.88724516685E+01  0.36821044828E+02  0.00000000000E+00 0.  1.
         11    1    4    4    0    0 -0.26815657195E+02 -0.13284057103E+02 -0.14341403589E+02  0.33184657616E+02  0.51100000000E-03 0. -1.
        -11    1    4    4    0    0  0.60261466083E+01  0.44238419343E+00  0.12632903107E+01  0.61730097513E+01  0.51100000000E-03 0.  1.
         12    1    4    4    0    0 -0.26078341493E+01 -0.14170050525E+02  0.42056616096E+01  0.15009287805E+02  0.00000000000E+00 0. -1.
</event>
<event>
 8    1  0.2509489E-006  0.9118800E+02  0.7816164E-02  0.1184000E+00
        -11   -1    0    0    0    0  0.00000000000E+00  0.00000000000E+00  0.45593999997E+02  0.45594000000E+02  0.51100000000E-03 0.  1.
         11   -1    0    0    0    0 -0.00000000000E+00 -0.00000000000E+00 -0.45593999997E+02  0.45594000000E+02  0.51100000000E-03 0. -1.
         23    2    1    2    0    0 -0.35527136788E-14  0.00000000000E+00  0.00000000000E+00  0.91188000000E+02  0.91188000000E+02 0.  0.
    9900012    2    3    3    0    0 -0.21952548441E+02 -0.13015292858E+02  0.26541819697E+02  0.54367076274E+02  0.39999981981E+02 0.  0.
         12    1    3    3    0    0  0.21952548441E+02  0.13015292858E+02 -0.26541819697E+02  0.36820923726E+02  0.00000000000E+00 0. -1.
         11    1    4    4    0    0 -0.98205173421E+01 -0.12374385656E+02  0.15047525710E+02  0.21817332823E+02  0.51100000000E-03 0. -1.
        -11    1    4    4    0    0 -0.76204558903E+01  0.13387323403E+02  0.35467636233E+01  0.15807318189E+02  0.51100000000E-03 0.  1.
         12    1    4    4    0    0 -0.45115752082E+01 -0.14028230605E+02  0.79475303637E+01  0.16742425262E+02  0.00000000000E+00 0. -1.
</event>
<event>
 8    1  0.2509489E-006  0.9118800E+02  0.7816164E-02  0.1184000E+00
        -11   -1    0    0    0    0  0.00000000000E+00  0.00000000000E+00  0.45593999997E+02  0.45594000000E+02  0.51100000000E-03 0. -1.
         11   -1    0    0    0    0 -0.00000000000E+00 -0.00000000000E+00 -0.45593999997E+02  0.45594000000E+02  0.51100000000E-03 0.  1.
         23    2    1    2    0    0  0.00000000000E+00  0.35527136788E-14  0.35527136788E-14  0.91188000000E+02  0.91188000000E+02 0.  0.
    9900012    2    3    3    0    0 -0.14260521059E+02  0.27922426851E+02  0.19306855978E+02  0.54367094662E+02  0.40000023901E+02 0.  0.
        -12    1    3    3    0    0  0.14260521059E+02 -0.27922426851E+02 -0.19306855978E+02  0.36820905338E+02  0.00000000000E+00 0.  1.
         11    1    4    4    0    0 -0.78228812371E+01  0.21681661405E+02 -0.68371060657E+00  0.23059908339E+02  0.51100000000E-03 0. -1.
        -11    1    4    4    0    0 -0.96169061616E+01  0.12228765322E+02  0.79062388073E+01  0.17450965525E+02  0.51100000000E-03 0.  1.
        -12    1    4    4    0    0  0.31792663400E+01 -0.59879998756E+01  0.12084327778E+02  0.13856220798E+02  0.00000000000E+00 0.  1.
</event>
<event>
 8    1  0.2509489E-006  0.9118800E+02  0.7816164E-02  0.1184000E+00
        -11   -1    0    0    0    0  0.00000000000E+00  0.00000000000E+00  0.45593999997E+02  0.45594000000E+02  0.51100000000E-03 0.  1.
         11   -1    0    0    0    0 -0.00000000000E+00 -0.00000000000E+00 -0.45593999997E+02  0.45594000000E+02  0.51100000000E-03 0. -1.
         23    2    1    2    0    0  0.00000000000E+00  0.00000000000E+00  0.17763568394E-14  0.91188000000E+02  0.91188000000E+02 0.  0.
    9900012    2    3    3    0    0  0.34236647282E+02  0.49105921481E+01 -0.12630020979E+02  0.54367090692E+02  0.40000014851E+02 0.  0.
        -12    1    3    3    0    0 -0.34236647282E+02 -0.49105921481E+01  0.12630020979E+02  0.36820909308E+02  0.00000000000E+00 0.  1.
         11    1    4    4    0    0  0.48041581679E+01  0.27368160635E+01 -0.11601058842E+02  0.12851251471E+02  0.51100000000E-03 0. -1.
        -11    1    4    4    0    0  0.11862986919E+02  0.14897014208E+02  0.34821707691E+01  0.19359158155E+02  0.51100000000E-03 0.  1.
         12    1    4    4    0    0  0.17569502195E+02 -0.12723238124E+02 -0.45111329057E+01  0.22156681065E+02  0.00000000000E+00 0. -1.
</event>
<event>
 8    1  0.2509489E-006  0.9118800E+02  0.7816164E-02  0.1184000E+00
        -11   -1    0    0    0    0  0.00000000000E+00  0.00000000000E+00  0.45593999997E+02  0.45594000000E+02  0.51100000000E-03 0. -1.
         11   -1    0    0    0    0 -0.00000000000E+00 -0.00000000000E+00 -0.45593999997E+02  0.45594000000E+02  0.51100000000E-03 0.  1.
         23    2    1    2    0    0  0.00000000000E+00  0.00000000000E+00 -0.17763568394E-14  0.91188000000E+02  0.91188000000E+02 0.  0.
    9900012    2    3    3    0    0  0.21392958966E+02  0.25408247640E+02  0.15891704578E+02  0.54367027500E+02  0.39999870791E+02 0.  0.
        -12    1    3    3    0    0 -0.21392958966E+02 -0.25408247640E+02 -0.15891704578E+02  0.36820972500E+02  0.00000000000E+00 0.  1.
         11    1    4    4    0    0  0.60663612801E+01  0.18750784563E+02 -0.59551377147E+01  0.20587771282E+02  0.51100000000E-03 0. -1.
        -11    1    4    4    0    0  0.14961497259E+01 -0.55100932791E+01  0.72867684587E+00  0.57559154054E+01  0.51100000000E-03 0.  1.
         12    1    4    4    0    0  0.13830447960E+02  0.12167556356E+02  0.21118165447E+02  0.28023340813E+02  0.00000000000E+00 0. -1.
</event>
<event>
 8    1  0.2509489E-006  0.9118800E+02  0.7816164E-02  0.1184000E+00
        -11   -1    0    0    0    0  0.00000000000E+00  0.00000000000E+00  0.45593999997E+02  0.45594000000E+02  0.51100000000E-03 0.  1.
         11   -1    0    0    0    0 -0.00000000000E+00 -0.00000000000E+00 -0.45593999997E+02  0.45594000000E+02  0.51100000000E-03 0. -1.
         23    2    1    2    0    0  0.00000000000E+00  0.00000000000E+00  0.22204460493E-15  0.91188000000E+02  0.91188000000E+02 0.  0.
    9900012    2    3    3    0    0  0.25141563002E+02 -0.26863682886E+02 -0.14203055050E+01  0.54367178226E+02  0.40000214401E+02 0.  0.
         12    1    3    3    0    0 -0.25141563002E+02  0.26863682886E+02  0.14203055050E+01  0.36820821774E+02  0.00000000000E+00 0. -1.
         11    1    4    4    0    0  0.18831296784E+02 -0.62629716421E+00  0.45955114271E+00  0.18847312122E+02  0.51100000000E-03 0.  1.
        -11    1    4    4    0    0 -0.73509016973E+01 -0.83385852688E+01 -0.59961186314E+01  0.12630170187E+02  0.51100000000E-03 0. -1.
         12    1    4    4    0    0  0.13661167915E+02 -0.17898800453E+02  0.41162619837E+01  0.22889695917E+02  0.00000000000E+00 0. -1.
</event>
<event>
 8    1  0.2509489E-006  0.9118800E+02  0.7816164E-02  0.1184000E+00
        -11   -1    0    0    0    0  0.00000000000E+00  0.00000000000E+00  0.45593999997E+02  0.45594000000E+02  0.51100000000E-03 0. -1.
         11   -1    0    0    0    0 -0.00000000000E+00 -0.00000000000E+00 -0.45593999997E+02  0.45594000000E+02  0.51100000000E-03 0.  1.
         23    2    1    2    0    0  0.00000000000E+00  0.88817841970E-15 -0.13322676296E-14  0.91188000000E+02  0.91188000000E+02 0.  0.
    9900012    2    3    3    0    0  0.35881065573E+02 -0.76821810329E+01 -0.30517081525E+01  0.54367086177E+02  0.40000004558E+02 0.  0.
         12    1    3    3    0    0 -0.35881065573E+02  0.76821810329E+01  0.30517081525E+01  0.36820913823E+02  0.00000000000E+00 0. -1.
         11    1    4    4    0    0 -0.15981387925E+01 -0.12787242007E+02  0.49587305706E+00  0.12896258996E+02  0.51100000000E-03 0. -1.
        -11    1    4    4    0    0  0.12019710072E+02 -0.14392786952E+00  0.64233956825E+01  0.13629165705E+02  0.51100000000E-03 0.  1.
        -12    1    4    4    0    0  0.25459494294E+02  0.52489888438E+01 -0.99709768921E+01  0.27841661476E+02  0.00000000000E+00 0.  1.
</event>
<event>
 8    1  0.2509489E-006  0.9118800E+02  0.7816164E-02  0.1184000E+00
        -11   -1    0    0    0    0  0.00000000000E+00  0.00000000000E+00  0.45593999997E+02  0.45594000000E+02  0.51100000000E-03 0.  1.
         11   -1    0    0    0    0 -0.00000000000E+00 -0.00000000000E+00 -0.45593999997E+02  0.45594000000E+02  0.51100000000E-03 0. -1.
         23    2    1    2    0    0  0.88817841970E-15  0.17763568394E-14  0.71054273576E-14  0.91188000000E+02  0.91188000000E+02 0.  0.
    9900012    2    3    3    0    0  0.71766123299E+01 -0.15777808491E+02 -0.32485937283E+02  0.54367093894E+02  0.40000022149E+02 0.  0.
        -12    1    3    3    0    0 -0.71766123299E+01  0.15777808491E+02  0.32485937283E+02  0.36820906106E+02  0.00000000000E+00 0.  1.
         11    1    4    4    0    0  0.14054248895E+02 -0.20437644003E+02 -0.20198660262E+02  0.31987576980E+02  0.51100000000E-03 0. -1.
        -11    1    4    4    0    0  0.23747948344E+01  0.14004746426E+01 -0.12263673951E+02  0.12569752534E+02  0.51100000000E-03 0.  1.
        -12    1    4    4    0    0 -0.92524314000E+01  0.32593608692E+01 -0.23603070470E-01  0.98097643800E+01  0.00000000000E+00 0.  1.
</event>
<event>
 8    1  0.2509489E-006  0.9118800E+02  0.7816164E-02  0.1184000E+00
        -11   -1    0    0    0    0  0.00000000000E+00  0.00000000000E+00  0.45593999997E+02  0.45594000000E+02  0.51100000000E-03 0.  1.
         11   -1    0    0    0    0 -0.00000000000E+00 -0.00000000000E+00 -0.45593999997E+02  0.45594000000E+02  0.51100000000E-03 0. -1.
         23    2    1    2    0    0 -0.44408920985E-15  0.22204460493E-15  0.00000000000E+00  0.91188000000E+02  0.91188000000E+02 0.  0.
    9900012    2    3    3    0    0 -0.36834322368E+01  0.11885578547E+01 -0.36616912642E+02  0.54367100578E+02  0.40000037388E+02 0.  0.
        -12    1    3    3    0    0  0.36834322368E+01 -0.11885578547E+01  0.36616912642E+02  0.36820899422E+02  0.00000000000E+00 0.  1.
         11    1    4    4    0    0  0.45809028658E+01  0.86654433535E+01 -0.13841377585E+02  0.16960492720E+02  0.51100000000E-03 0. -1.
        -11    1    4    4    0    0 -0.43725796937E+01 -0.14292024691E+02 -0.18527368684E+01  0.15060347178E+02  0.51100000000E-03 0.  1.
        -12    1    4    4    0    0 -0.38917554089E+01  0.68151391922E+01 -0.20922798188E+02  0.22346260680E+02  0.00000000000E+00 0.  1.
</event>
<event>
 8    1  0.2509489E-006  0.9118800E+02  0.7816164E-02  0.1184000E+00
        -11   -1    0    0    0    0  0.00000000000E+00  0.00000000000E+00  0.45593999997E+02  0.45594000000E+02  0.51100000000E-03 0. -1.
         11   -1    0    0    0    0 -0.00000000000E+00 -0.00000000000E+00 -0.45593999997E+02  0.45594000000E+02  0.51100000000E-03 0.  1.
         23    2    1    2    0    0  0.00000000000E+00  0.00000000000E+00 -0.88817841970E-15  0.91188000000E+02  0.91188000000E+02 0.  0.
    9900012    2    3    3    0    0  0.11836819477E+02 -0.34832726946E+02  0.15331121159E+01  0.54367087537E+02  0.40000007658E+02 0.  0.
        -12    1    3    3    0    0 -0.11836819477E+02  0.34832726946E+02 -0.15331121159E+01  0.36820912463E+02  0.00000000000E+00 0.  1.
         11    1    4    4    0    0  0.55991852159E+01 -0.19152855267E+02 -0.91096977570E+01  0.21935572330E+02  0.51100000000E-03 0. -1.
        -11    1    4    4    0    0 -0.44688978894E+01 -0.15700802936E+02 -0.13194825758E+01  0.16377646220E+02  0.51100000000E-03 0.  1.
         12    1    4    4    0    0  0.10706532151E+02  0.20931256873E-01  0.11962292449E+02  0.16053868987E+02  0.00000000000E+00 0. -1.
</event>
<event>
 8    1  0.2509489E-006  0.9118800E+02  0.7816164E-02  0.1184000E+00
        -11   -1    0    0    0    0  0.00000000000E+00  0.00000000000E+00  0.45593999997E+02  0.45594000000E+02  0.51100000000E-03 0.  1.
         11   -1    0    0    0    0 -0.00000000000E+00 -0.00000000000E+00 -0.45593999997E+02  0.45594000000E+02  0.51100000000E-03 0. -1.
         23    2    1    2    0    0  0.00000000000E+00  0.00000000000E+00  0.00000000000E+00  0.91188000000E+02  0.91188000000E+02 0.  0.
    9900012    2    3    3    0    0 -0.21183826051E+02  0.88832150403E+01 -0.28776692980E+02  0.54367298560E+02  0.40000488725E+02 0.  0.
        -12    1    3    3    0    0  0.21183826051E+02 -0.88832150403E+01  0.28776692980E+02  0.36820701440E+02  0.00000000000E+00 0.  1.
         11    1    4    4    0    0 -0.63332499843E+01  0.13255054085E+02 -0.28624390260E+01  0.14966631939E+02  0.51100000000E-03 0. -1.
        -11    1    4    4    0    0 -0.93376603119E+01  0.12363945871E+01  0.26409227423E+01  0.97823844162E+01  0.51100000000E-03 0.  1.
         12    1    4    4    0    0 -0.55129157553E+01 -0.56082336318E+01 -0.28555176697E+02  0.29618282205E+02  0.00000000000E+00 0. -1.
</event>
<event>
 8    1  0.2509489E-006  0.9118800E+02  0.7816164E-02  0.1184000E+00
        -11   -1    0    0    0    0  0.00000000000E+00  0.00000000000E+00  0.45593999997E+02  0.45594000000E+02  0.51100000000E-03 0.  1.
         11   -1    0    0    0    0 -0.00000000000E+00 -0.00000000000E+00 -0.45593999997E+02  0.45594000000E+02  0.51100000000E-03 0. -1.
         23    2    1    2    0    0  0.00000000000E+00  0.17763568394E-14  0.00000000000E+00  0.91188000000E+02  0.91188000000E+02 0.  0.
    9900012    2    3    3    0    0  0.33181846436E+02  0.13059116705E+02  0.91762925960E+01  0.54367084642E+02  0.40000001058E+02 0.  0.
         12    1    3    3    0    0 -0.33181846436E+02 -0.13059116705E+02 -0.91762925960E+01  0.36820915358E+02  0.00000000000E+00 0. -1.
         11    1    4    4    0    0  0.19379606699E+02  0.89042023199E+01  0.20201590047E+02  0.29376150453E+02  0.51100000000E-03 0. -1.
        -11    1    4    4    0    0  0.90624066843E+01 -0.37230536730E+00  0.29641380900E+01  0.95421140779E+01  0.51100000000E-03 0.  1.
         12    1    4    4    0    0  0.47398330521E+01  0.45272197527E+01 -0.13989435541E+02  0.15448820111E+02  0.00000000000E+00 0. -1.
</event>
<event>
 8    1  0.2509489E-006  0.9118800E+02  0.7816164E-02  0.1184000E+00
        -11   -1    0    0    0    0  0.00000000000E+00  0.00000000000E+00  0.45593999997E+02  0.45594000000E+02  0.51100000000E-03 0. -1.
         11   -1    0    0    0    0 -0.00000000000E+00 -0.00000000000E+00 -0.45593999997E+02  0.45594000000E+02  0.51100000000E-03 0.  1.
         23    2    1    2    0    0  0.00000000000E+00  0.00000000000E+00  0.00000000000E+00  0.91188000000E+02  0.91188000000E+02 0.  0.
    9900012    2    3    3    0    0  0.22682571324E+02  0.22418668417E+02  0.18403363686E+02  0.54367088408E+02  0.40000009644E+02 0.  0.
        -12    1    3    3    0    0 -0.22682571324E+02 -0.22418668417E+02 -0.18403363686E+02  0.36820911592E+02  0.00000000000E+00 0.  1.
         11    1    4    4    0    0 -0.52104914788E+01  0.89236981993E+01  0.18410005808E+02  0.21111843243E+02  0.51100000000E-03 0. -1.
        -11    1    4    4    0    0  0.47403613693E+01  0.70273068686E+01 -0.30833853082E+01  0.90200517159E+01  0.51100000000E-03 0.  1.
         12    1    4    4    0    0  0.23152701434E+02  0.64676633493E+01  0.30767431860E+01  0.24235193449E+02  0.00000000000E+00 0. -1.
</event>
<event>
 8    1  0.2509489E-006  0.9118800E+02  0.7816164E-02  0.1184000E+00
        -11   -1    0    0    0    0  0.00000000000E+00  0.00000000000E+00  0.45593999997E+02  0.45594000000E+02  0.51100000000E-03 0. -1.
         11   -1    0    0    0    0 -0.00000000000E+00 -0.00000000000E+00 -0.45593999997E+02  0.45594000000E+02  0.51100000000E-03 0.  1.
         23    2    1    2    0    0  0.00000000000E+00 -0.88817841970E-15  0.00000000000E+00  0.91188000000E+02  0.91188000000E+02 0.  0.
    9900012    2    3    3    0    0  0.36195511632E+02  0.41434766153E+01 -0.53382447523E+01  0.54367077716E+02  0.39999985270E+02 0.  0.
        -12    1    3    3    0    0 -0.36195511632E+02 -0.41434766153E+01  0.53382447523E+01  0.36820922284E+02  0.00000000000E+00 0.  1.
         11    1    4    4    0    0  0.11924391222E+02  0.74750356347E+01  0.53798892821E+01  0.15066866718E+02  0.51100000000E-03 0. -1.
        -11    1    4    4    0    0  0.18660209127E+02  0.11504891825E+02 -0.54895994119E+01  0.22598708868E+02  0.51100000000E-03 0.  1.
        -12    1    4    4    0    0  0.56109112839E+01 -0.14836450844E+02 -0.52285346225E+01  0.16701502130E+02  0.00000000000E+00 0.  1.
</event>
<event>
 8    1  0.2509489E-006  0.9118800E+02  0.7816164E-02  0.1184000E+00
        -11   -1    0    0    0    0  0.00000000000E+00  0.00000000000E+00  0.45593999997E+02  0.45594000000E+02  0.51100000000E-03 0.  1.
         11   -1    0    0    0    0 -0.00000000000E+00 -0.00000000000E+00 -0.45593999997E+02  0.45594000000E+02  0.51100000000E-03 0. -1.
         23    2    1    2    0    0 -0.35527136788E-14 -0.20816681712E-14  0.35527136788E-14  0.91188000000E+02  0.91188000000E+02 0.  0.
    9900012    2    3    3    0    0  0.31500514661E+02  0.13330754081E+00 -0.19065121341E+02  0.54367094979E+02  0.40000024624E+02 0.  0.
        -12    1    3    3    0    0 -0.31500514661E+02 -0.13330754081E+00  0.19065121341E+02  0.36820905021E+02  0.00000000000E+00 0.  1.
         11    1    4    4    0    0  0.11274171811E+02 -0.49121832475E+01 -0.16610404798E+02  0.20667414983E+02  0.51100000000E-03 0. -1.
        -11    1    4    4    0    0  0.10822703798E+02 -0.90749335090E+01 -0.75112991251E+01  0.15997029427E+02  0.51100000000E-03 0.  1.
        -12    1    4    4    0    0  0.94036390523E+01  0.14120424297E+02  0.50565825816E+01  0.17702650569E+02  0.00000000000E+00 0.  1.
</event>
<event>
 8    1  0.2509489E-006  0.9118800E+02  0.7816164E-02  0.1184000E+00
        -11   -1    0    0    0    0  0.00000000000E+00  0.00000000000E+00  0.45593999997E+02  0.45594000000E+02  0.51100000000E-03 0.  1.
         11   -1    0    0    0    0 -0.00000000000E+00 -0.00000000000E+00 -0.45593999997E+02  0.45594000000E+02  0.51100000000E-03 0. -1.
         23    2    1    2    0    0  0.00000000000E+00  0.00000000000E+00 -0.35527136788E-14  0.91188000000E+02  0.91188000000E+02 0.  0.
    9900012    2    3    3    0    0  0.32467410005E+02 -0.94320298152E+01  0.14583679601E+02  0.54367087334E+02  0.40000007196E+02 0.  0.
         12    1    3    3    0    0 -0.32467410005E+02  0.94320298152E+01 -0.14583679601E+02  0.36820912666E+02  0.00000000000E+00 0. -1.
         11    1    4    4    0    0  0.20843418946E+01 -0.10249124819E+02 -0.92357402252E+01  0.13953061974E+02  0.51100000000E-03 0. -1.
        -11    1    4    4    0    0  0.20965614544E+02 -0.36140951036E+01  0.11156022482E+02  0.24022396103E+02  0.51100000000E-03 0.  1.
         12    1    4    4    0    0  0.94174535659E+01  0.44311901070E+01  0.12663397344E+02  0.16391629258E+02  0.00000000000E+00 0. -1.
</event>
<event>
 8    1  0.2509489E-006  0.9118800E+02  0.7816164E-02  0.1184000E+00
        -11   -1    0    0    0    0  0.00000000000E+00  0.00000000000E+00  0.45593999997E+02  0.45594000000E+02  0.51100000000E-03 0.  1.
         11   -1    0    0    0    0 -0.00000000000E+00 -0.00000000000E+00 -0.45593999997E+02  0.45594000000E+02  0.51100000000E-03 0. -1.
         23    2    1    2    0    0  0.00000000000E+00  0.22204460493E-14 -0.35527136788E-14  0.91188000000E+02  0.91188000000E+02 0.  0.
    9900012    2    3    3    0    0 -0.21199039928E+02 -0.35650412368E+01 -0.29894355878E+02  0.54367064023E+02  0.39999954053E+02 0.  0.
        -12    1    3    3    0    0  0.21199039928E+02  0.35650412368E+01  0.29894355878E+02  0.36820935977E+02  0.00000000000E+00 0.  1.
         11    1    4    4    0    0 -0.13524101991E+02 -0.14076894460E+02 -0.26570367438E+02  0.32970361211E+02  0.51100000000E-03 0.  1.
        -11    1    4    4    0    0 -0.10038817167E+02  0.89631116937E+01 -0.82011785703E+01  0.15759903285E+02  0.51100000000E-03 0. -1.
        -12    1    4    4    0    0  0.23638792305E+01  0.15487415290E+01  0.48771901307E+01  0.56367995273E+01  0.00000000000E+00 0.  1.
</event>
<event>
 8    1  0.2509489E-006  0.9118800E+02  0.7816164E-02  0.1184000E+00
        -11   -1    0    0    0    0  0.00000000000E+00  0.00000000000E+00  0.45593999997E+02  0.45594000000E+02  0.51100000000E-03 0. -1.
         11   -1    0    0    0    0 -0.00000000000E+00 -0.00000000000E+00 -0.45593999997E+02  0.45594000000E+02  0.51100000000E-03 0.  1.
         23    2    1    2    0    0 -0.15543122345E-14  0.00000000000E+00  0.00000000000E+00  0.91188000000E+02  0.91188000000E+02 0.  0.
    9900012    2    3    3    0    0 -0.47102684054E+00 -0.33212688997E+02  0.15889480070E+02  0.54367079946E+02  0.39999990353E+02 0.  0.
        -12    1    3    3    0    0  0.47102684054E+00  0.33212688997E+02 -0.15889480070E+02  0.36820920054E+02  0.00000000000E+00 0.  1.
         11    1    4    4    0    0  0.16181641247E+02 -0.26530903883E+02  0.68803851520E+01  0.31828824584E+02  0.51100000000E-03 0. -1.
        -11    1    4    4    0    0 -0.84979242437E+01  0.15495049566E+01  0.15995706472E+01  0.87848909258E+01  0.51100000000E-03 0.  1.
         12    1    4    4    0    0 -0.81547438442E+01 -0.82312900714E+01  0.74095242707E+01  0.13753364436E+02  0.00000000000E+00 0. -1.
</event>
<event>
 8    1  0.2509489E-006  0.9118800E+02  0.7816164E-02  0.1184000E+00
        -11   -1    0    0    0    0  0.00000000000E+00  0.00000000000E+00  0.45593999997E+02  0.45594000000E+02  0.51100000000E-03 0.  1.
         11   -1    0    0    0    0 -0.00000000000E+00 -0.00000000000E+00 -0.45593999997E+02  0.45594000000E+02  0.51100000000E-03 0. -1.
         23    2    1    2    0    0  0.00000000000E+00 -0.35527136788E-14  0.88817841970E-15  0.91188000000E+02  0.91188000000E+02 0.  0.
    9900012    2    3    3    0    0  0.28502683474E+02  0.22949656586E+02 -0.40853018908E+01  0.54367090259E+02  0.40000013863E+02 0.  0.
        -12    1    3    3    0    0 -0.28502683474E+02 -0.22949656586E+02  0.40853018908E+01  0.36820909741E+02  0.00000000000E+00 0.  1.
         11    1    4    4    0    0  0.21145056316E+02  0.18524632944E+02 -0.82631767667E+01  0.29301118116E+02  0.51100000000E-03 0. -1.
        -11    1    4    4    0    0  0.87666762382E+01 -0.16169072745E+01  0.12083902417E+02  0.15016314437E+02  0.51100000000E-03 0.  1.
         12    1    4    4    0    0 -0.14090490799E+01  0.60419309168E+01 -0.79060275412E+01  0.10049657705E+02  0.00000000000E+00 0. -1.
</event>
<event>
 8    1  0.2509489E-006  0.9118800E+02  0.7816164E-02  0.1184000E+00
        -11   -1    0    0    0    0  0.00000000000E+00  0.00000000000E+00  0.45593999997E+02  0.45594000000E+02  0.51100000000E-03 0. -1.
         11   -1    0    0    0    0 -0.00000000000E+00 -0.00000000000E+00 -0.45593999997E+02  0.45594000000E+02  0.51100000000E-03 0.  1.
         23    2    1    2    0    0 -0.26645352591E-14 -0.35527136788E-14  0.00000000000E+00  0.91188000000E+02  0.91188000000E+02 0.  0.
    9900012    2    3    3    0    0 -0.76932572459E+01 -0.11764545675E+02 -0.34032218079E+02  0.54367046599E+02  0.39999914331E+02 0.  0.
         12    1    3    3    0    0  0.76932572459E+01  0.11764545675E+02  0.34032218079E+02  0.36820953401E+02  0.00000000000E+00 0. -1.
         11    1    4    4    0    0  0.41082304591E+00 -0.59979634000E+01 -0.10464298875E+02  0.12068383973E+02  0.51100000000E-03 0. -1.
        -11    1    4    4    0    0  0.84698400770E+00 -0.73767718265E+01 -0.30163561031E+02  0.31064039641E+02  0.51100000000E-03 0.  1.
         12    1    4    4    0    0 -0.89510642995E+01  0.16101895516E+01  0.65956418269E+01  0.11234622984E+02  0.00000000000E+00 0. -1.
</event>
<event>
 8    1  0.2509489E-006  0.9118800E+02  0.7816164E-02  0.1184000E+00
        -11   -1    0    0    0    0  0.00000000000E+00  0.00000000000E+00  0.45593999997E+02  0.45594000000E+02  0.51100000000E-03 0. -1.
         11   -1    0    0    0    0 -0.00000000000E+00 -0.00000000000E+00 -0.45593999997E+02  0.45594000000E+02  0.51100000000E-03 0.  1.
         23    2    1    2    0    0  0.00000000000E+00 -0.17763568394E-14  0.33306690739E-15  0.91188000000E+02  0.91188000000E+02 0.  0.
    9900012    2    3    3    0    0 -0.34599758715E+02 -0.12574102090E+02  0.72716346205E+00  0.54367080495E+02  0.39999991603E+02 0.  0.
        -12    1    3    3    0    0  0.34599758715E+02  0.12574102090E+02 -0.72716346205E+00  0.36820919505E+02  0.00000000000E+00 0.  1.
         11    1    4    4    0    0 -0.20394514184E+02 -0.17148250711E+01  0.68653561746E+01  0.21587263594E+02  0.51100000000E-03 0. -1.
        -11    1    4    4    0    0  0.36878522234E+01  0.52779875540E+01 -0.58250692524E+01  0.86826746281E+01  0.51100000000E-03 0.  1.
        -12    1    4    4    0    0 -0.17893096755E+02 -0.16137264573E+02 -0.31312346018E+00  0.24097142272E+02  0.00000000000E+00 0.  1.
</event>
<event>
 8    1  0.2509489E-006  0.9118800E+02  0.7816164E-02  0.1184000E+00
        -11   -1    0    0    0    0  0.00000000000E+00  0.00000000000E+00  0.45593999997E+02  0.45594000000E+02  0.51100000000E-03 0. -1.
         11   -1    0    0    0    0 -0.00000000000E+00 -0.00000000000E+00 -0.45593999997E+02  0.45594000000E+02  0.51100000000E-03 0.  1.
         23    2    1    2    0    0 -0.35527136788E-14  0.00000000000E+00  0.00000000000E+00  0.91188000000E+02  0.91188000000E+02 0.  0.
    9900012    2    3    3    0    0 -0.25227153023E+02 -0.21788456632E+02 -0.15640780920E+02  0.54367080404E+02  0.39999991397E+02 0.  0.
         12    1    3    3    0    0  0.25227153023E+02  0.21788456632E+02  0.15640780920E+02  0.36820919596E+02  0.00000000000E+00 0. -1.
         11    1    4    4    0    0 -0.12827535140E+02 -0.22992457451E+01  0.43783927734E+01  0.13747818456E+02  0.51100000000E-03 0. -1.
        -11    1    4    4    0    0 -0.12752379632E+02 -0.16670268700E+02 -0.60394051803E+00  0.20997280519E+02  0.51100000000E-03 0.  1.
        -12    1    4    4    0    0  0.35276174871E+00 -0.28189421875E+01 -0.19415233176E+02  0.19621981429E+02  0.00000000000E+00 0.  1.
</event>
<event>
 8    1  0.2509489E-006  0.9118800E+02  0.7816164E-02  0.1184000E+00
        -11   -1    0    0    0    0  0.00000000000E+00  0.00000000000E+00  0.45593999997E+02  0.45594000000E+02  0.51100000000E-03 0.  1.
         11   -1    0    0    0    0 -0.00000000000E+00 -0.00000000000E+00 -0.45593999997E+02  0.45594000000E+02  0.51100000000E-03 0. -1.
         23    2    1    2    0    0 -0.71054273576E-14  0.88817841970E-15  0.00000000000E+00  0.91188000000E+02  0.91188000000E+02 0.  0.
    9900012    2    3    3    0    0 -0.33078724087E+02  0.67933934695E+01  0.14677112552E+02  0.54367220337E+02  0.40000310402E+02 0.  0.
         12    1    3    3    0    0  0.33078724087E+02 -0.67933934695E+01 -0.14677112552E+02  0.36820779663E+02  0.00000000000E+00 0. -1.
         11    1    4    4    0    0 -0.70268044342E+01  0.71908464144E+01 -0.27742293013E+01  0.10429793919E+02  0.51100000000E-03 0. -1.
        -11    1    4    4    0    0 -0.23007764776E+02  0.10710099694E+02  0.31469405498E+01  0.25572772836E+02  0.51100000000E-03 0.  1.
        -12    1    4    4    0    0 -0.30441548772E+01 -0.11107552639E+02  0.14304401304E+02  0.18364653583E+02  0.00000000000E+00 0.  1.
</event>
<event>
 8    1  0.2509489E-006  0.9118800E+02  0.7816164E-02  0.1184000E+00
        -11   -1    0    0    0    0  0.00000000000E+00  0.00000000000E+00  0.45593999997E+02  0.45594000000E+02  0.51100000000E-03 0. -1.
         11   -1    0    0    0    0 -0.00000000000E+00 -0.00000000000E+00 -0.45593999997E+02  0.45594000000E+02  0.51100000000E-03 0.  1.
         23    2    1    2    0    0 -0.35527136788E-14 -0.35527136788E-14  0.35527136788E-14  0.91188000000E+02  0.91188000000E+02 0.  0.
    9900012    2    3    3    0    0 -0.21212889591E+02 -0.17365943222E+02 -0.24580837416E+02  0.54367078816E+02  0.39999987776E+02 0.  0.
         12    1    3    3    0    0  0.21212889591E+02  0.17365943222E+02  0.24580837416E+02  0.36820921184E+02  0.00000000000E+00 0. -1.
         11    1    4    4    0    0 -0.45284338301E+01  0.20827923546E+00  0.59264274307E+01  0.74614097559E+01  0.51100000000E-03 0. -1.
        -11    1    4    4    0    0 -0.43741592784E+01  0.62076650684E+01 -0.12531123267E+02  0.14652556964E+02  0.51100000000E-03 0.  1.
        -12    1    4    4    0    0 -0.12310296483E+02 -0.23781887526E+02 -0.17976141580E+02  0.32253112096E+02  0.00000000000E+00 0.  1.
</event>
<event>
 8    1  0.2509489E-006  0.9118800E+02  0.7816164E-02  0.1184000E+00
        -11   -1    0    0    0    0  0.00000000000E+00  0.00000000000E+00  0.45593999997E+02  0.45594000000E+02  0.51100000000E-03 0. -1.
         11   -1    0    0    0    0 -0.00000000000E+00 -0.00000000000E+00 -0.45593999997E+02  0.45594000000E+02  0.51100000000E-03 0.  1.
         23    2    1    2    0    0  0.00000000000E+00  0.44408920985E-15 -0.35527136788E-14  0.91188000000E+02  0.91188000000E+02 0.  0.
    9900012    2    3    3    0    0  0.19294929776E+02  0.26141352186E+01  0.31251417834E+02  0.54367093783E+02  0.40000021897E+02 0.  0.
        -12    1    3    3    0    0 -0.19294929776E+02 -0.26141352186E+01 -0.31251417834E+02  0.36820906217E+02  0.00000000000E+00 0.  1.
         11    1    4    4    0    0 -0.25921796997E+01  0.12425781960E+02  0.14707132114E+02  0.19427279486E+02  0.51100000000E-03 0. -1.
        -11    1    4    4    0    0  0.17661270692E+02  0.12877517703E+01  0.50554412344E+01  0.18415652946E+02  0.51100000000E-03 0.  1.
        -12    1    4    4    0    0  0.42258387840E+01 -0.11099398512E+02  0.11488844486E+02  0.16524161352E+02  0.00000000000E+00 0.  1.
</event>
<event>
 8    1  0.2509489E-006  0.9118800E+02  0.7816164E-02  0.1184000E+00
        -11   -1    0    0    0    0  0.00000000000E+00  0.00000000000E+00  0.45593999997E+02  0.45594000000E+02  0.51100000000E-03 0. -1.
         11   -1    0    0    0    0 -0.00000000000E+00 -0.00000000000E+00 -0.45593999997E+02  0.45594000000E+02  0.51100000000E-03 0.  1.
         23    2    1    2    0    0  0.00000000000E+00  0.00000000000E+00  0.00000000000E+00  0.91188000000E+02  0.91188000000E+02 0.  0.
    9900012    2    3    3    0    0 -0.60734339117E+01 -0.70326382885E+01 -0.35629130814E+02  0.54367087962E+02  0.40000008627E+02 0.  0.
         12    1    3    3    0    0  0.60734339117E+01  0.70326382885E+01  0.35629130814E+02  0.36820912038E+02  0.00000000000E+00 0. -1.
         11    1    4    4    0    0 -0.21077434558E+02 -0.55164828015E+01 -0.12623930994E+02  0.25180418266E+02  0.51100000000E-03 0. -1.
        -11    1    4    4    0    0  0.12121443698E+02  0.30981598454E+01 -0.15582730904E+02  0.19983730744E+02  0.51100000000E-03 0.  1.
         12    1    4    4    0    0  0.28825569481E+01 -0.46143153324E+01 -0.74224689154E+01  0.92029389516E+01  0.00000000000E+00 0. -1.
</event>
<event>
 8    1  0.2509489E-006  0.9118800E+02  0.7816164E-02  0.1184000E+00
        -11   -1    0    0    0    0  0.00000000000E+00  0.00000000000E+00  0.45593999997E+02  0.45594000000E+02  0.51100000000E-03 0.  1.
         11   -1    0    0    0    0 -0.00000000000E+00 -0.00000000000E+00 -0.45593999997E+02  0.45594000000E+02  0.51100000000E-03 0. -1.
         23    2    1    2    0    0  0.00000000000E+00  0.00000000000E+00  0.00000000000E+00  0.91188000000E+02  0.91188000000E+02 0.  0.
    9900012    2    3    3    0    0 -0.85427951380E+01 -0.24687574022E+02 -0.25948508543E+02  0.54367071774E+02  0.39999971722E+02 0.  0.
        -12    1    3    3    0    0  0.85427951380E+01  0.24687574022E+02  0.25948508543E+02  0.36820928226E+02  0.00000000000E+00 0.  1.
         11    1    4    4    0    0 -0.14990673701E+02 -0.10279661280E+00 -0.29642945709E+01  0.15281292737E+02  0.51100000000E-03 0. -1.
        -11    1    4    4    0    0 -0.44681933194E+00 -0.11847275923E+02  0.74057185945E-01  0.11855930121E+02  0.51100000000E-03 0.  1.
         12    1    4    4    0    0  0.68946978946E+01 -0.12737501486E+02 -0.23058271158E+02  0.27229848915E+02  0.00000000000E+00 0. -1.
</event>
<event>
 8    1  0.2509489E-006  0.9118800E+02  0.7816164E-02  0.1184000E+00
        -11   -1    0    0    0    0  0.00000000000E+00  0.00000000000E+00  0.45593999997E+02  0.45594000000E+02  0.51100000000E-03 0. -1.
         11   -1    0    0    0    0 -0.00000000000E+00 -0.00000000000E+00 -0.45593999997E+02  0.45594000000E+02  0.51100000000E-03 0.  1.
         23    2    1    2    0    0 -0.17763568394E-14  0.00000000000E+00  0.00000000000E+00  0.91188000000E+02  0.91188000000E+02 0.  0.
    9900012    2    3    3    0    0  0.14346099185E+02 -0.26956245363E+02 -0.20575022247E+02  0.54367064836E+02  0.39999955906E+02 0.  0.
        -12    1    3    3    0    0 -0.14346099185E+02  0.26956245363E+02  0.20575022247E+02  0.36820935164E+02  0.00000000000E+00 0.  1.
         11    1    4    4    0    0  0.78619097735E+01 -0.29646303954E+02 -0.22708623446E+02  0.38162737618E+02  0.51100000000E-03 0.  1.
        -11    1    4    4    0    0 -0.31021507211E+01  0.51408666904E+01 -0.31025563597E+00  0.60123296854E+01  0.51100000000E-03 0. -1.
         12    1    4    4    0    0  0.95863401323E+01 -0.24508080998E+01  0.24438568349E+01  0.10191997533E+02  0.00000000000E+00 0. -1.
</event>
<event>
 8    1  0.2509489E-006  0.9118800E+02  0.7816164E-02  0.1184000E+00
        -11   -1    0    0    0    0  0.00000000000E+00  0.00000000000E+00  0.45593999997E+02  0.45594000000E+02  0.51100000000E-03 0.  1.
         11   -1    0    0    0    0 -0.00000000000E+00 -0.00000000000E+00 -0.45593999997E+02  0.45594000000E+02  0.51100000000E-03 0. -1.
         23    2    1    2    0    0  0.00000000000E+00  0.00000000000E+00  0.00000000000E+00  0.91188000000E+02  0.91188000000E+02 0.  0.
    9900012    2    3    3    0    0  0.14767436554E+02  0.91219641374E+01  0.32472945320E+02  0.54367087601E+02  0.40000007805E+02 0.  0.
         12    1    3    3    0    0 -0.14767436554E+02 -0.91219641374E+01 -0.32472945320E+02  0.36820912399E+02  0.00000000000E+00 0. -1.
         11    1    4    4    0    0 -0.97561298585E+01  0.12252056223E+02  0.11610649058E+02  0.19496207922E+02  0.51100000000E-03 0. -1.
        -11    1    4    4    0    0  0.13997721823E+02 -0.35433319979E+01  0.19478061410E+02  0.24246366624E+02  0.51100000000E-03 0.  1.
         12    1    4    4    0    0  0.10525844590E+02  0.41323991196E+00  0.13842348519E+01  0.10624513056E+02  0.00000000000E+00 0. -1.
</event>
<event>
 8    1  0.2509489E-006  0.9118800E+02  0.7816164E-02  0.1184000E+00
        -11   -1    0    0    0    0  0.00000000000E+00  0.00000000000E+00  0.45593999997E+02  0.45594000000E+02  0.51100000000E-03 0.  1.
         11   -1    0    0    0    0 -0.00000000000E+00 -0.00000000000E+00 -0.45593999997E+02  0.45594000000E+02  0.51100000000E-03 0. -1.
         23    2    1    2    0    0 -0.17763568394E-14  0.00000000000E+00  0.17763568394E-14  0.91188000000E+02  0.91188000000E+02 0.  0.
    9900012    2    3    3    0    0 -0.81963237035E+01  0.34518349531E+02 -0.98530870627E+01  0.54367088805E+02  0.40000010549E+02 0.  0.
        -12    1    3    3    0    0  0.81963237035E+01 -0.34518349531E+02  0.98530870627E+01  0.36820911195E+02  0.00000000000E+00 0.  1.
         11    1    4    4    0    0 -0.27462340643E+01  0.88623549862E+01 -0.17988423466E+02  0.20240220268E+02  0.51100000000E-03 0. -1.
        -11    1    4    4    0    0 -0.69773530550E+01  0.26096074199E+02  0.12291054528E+02  0.29677576821E+02  0.51100000000E-03 0.  1.
        -12    1    4    4    0    0  0.15272634157E+01 -0.44007965491E+00 -0.41557181246E+01  0.44492917161E+01  0.00000000000E+00 0.  1.
</event>
<event>
 8    1  0.2509489E-006  0.9118800E+02  0.7816164E-02  0.1184000E+00
        -11   -1    0    0    0    0  0.00000000000E+00  0.00000000000E+00  0.45593999997E+02  0.45594000000E+02  0.51100000000E-03 0.  1.
         11   -1    0    0    0    0 -0.00000000000E+00 -0.00000000000E+00 -0.45593999997E+02  0.45594000000E+02  0.51100000000E-03 0. -1.
         23    2    1    2    0    0  0.35527136788E-14  0.00000000000E+00  0.00000000000E+00  0.91188000000E+02  0.91188000000E+02 0.  0.
    9900012    2    3    3    0    0  0.30369330908E+02  0.17028380800E+02 -0.11979957296E+02  0.54367063167E+02  0.39999952102E+02 0.  0.
        -12    1    3    3    0    0 -0.30369330908E+02 -0.17028380800E+02  0.11979957296E+02  0.36820936833E+02  0.00000000000E+00 0.  1.
         11    1    4    4    0    0  0.14979502424E+02 -0.88951848875E+01 -0.59894304177E+01  0.18422352837E+02  0.51100000000E-03 0. -1.
        -11    1    4    4    0    0 -0.21555394486E+01  0.97968610356E+01  0.30064778244E+01  0.10472045914E+02  0.51100000000E-03 0.  1.
         12    1    4    4    0    0  0.17545367932E+02  0.16126704652E+02 -0.89970047032E+01  0.25472664415E+02  0.00000000000E+00 0. -1.
</event>
<event>
 8    1  0.2509489E-006  0.9118800E+02  0.7816164E-02  0.1184000E+00
        -11   -1    0    0    0    0  0.00000000000E+00  0.00000000000E+00  0.45593999997E+02  0.45594000000E+02  0.51100000000E-03 0. -1.
         11   -1    0    0    0    0 -0.00000000000E+00 -0.00000000000E+00 -0.45593999997E+02  0.45594000000E+02  0.51100000000E-03 0.  1.
         23    2    1    2    0    0 -0.35527136788E-14  0.00000000000E+00 -0.35527136788E-14  0.91188000000E+02  0.91188000000E+02 0.  0.
    9900012    2    3    3    0    0 -0.30816429846E+02 -0.19007494108E+02  0.66965547316E+01  0.54367068100E+02  0.39999963347E+02 0.  0.
        -12    1    3    3    0    0  0.30816429846E+02  0.19007494108E+02 -0.66965547316E+01  0.36820931900E+02  0.00000000000E+00 0.  1.
         11    1    4    4    0    0 -0.25447296706E+02 -0.86705151040E+01  0.18349152574E+02  0.32548949941E+02  0.51100000000E-03 0. -1.
        -11    1    4    4    0    0 -0.64562095097E+01  0.11113396671E+01 -0.64593617022E+01  0.92000582036E+01  0.51100000000E-03 0.  1.
         12    1    4    4    0    0  0.10870763696E+01 -0.11448318671E+02 -0.51932361398E+01  0.12618059955E+02  0.00000000000E+00 0. -1.
</event>
<event>
 8    1  0.2509489E-006  0.9118800E+02  0.7816164E-02  0.1184000E+00
        -11   -1    0    0    0    0  0.00000000000E+00  0.00000000000E+00  0.45593999997E+02  0.45594000000E+02  0.51100000000E-03 0. -1.
         11   -1    0    0    0    0 -0.00000000000E+00 -0.00000000000E+00 -0.45593999997E+02  0.45594000000E+02  0.51100000000E-03 0.  1.
         23    2    1    2    0    0 -0.71054273576E-14 -0.17763568394E-14  0.00000000000E+00  0.91188000000E+02  0.91188000000E+02 0.  0.
    9900012    2    3    3    0    0  0.20380798017E+02  0.65466828457E+01  0.29959035519E+02  0.54367084839E+02  0.40000001507E+02 0.  0.
        -12    1    3    3    0    0 -0.20380798017E+02 -0.65466828457E+01 -0.29959035519E+02  0.36820915161E+02  0.00000000000E+00 0.  1.
         11    1    4    4    0    0  0.16730222024E+02  0.31420101781E+01  0.29878617101E+02  0.34387560499E+02  0.51100000000E-03 0.  1.
        -11    1    4    4    0    0  0.65164607243E+01 -0.41472265896E+01  0.61519075981E+01  0.98747008113E+01  0.51100000000E-03 0. -1.
        -12    1    4    4    0    0 -0.28658847314E+01  0.75518992572E+01 -0.60714891798E+01  0.10104823529E+02  0.00000000000E+00 0.  1.
</event>
<event>
 8    1  0.2509489E-006  0.9118800E+02  0.7816164E-02  0.1184000E+00
        -11   -1    0    0    0    0  0.00000000000E+00  0.00000000000E+00  0.45593999997E+02  0.45594000000E+02  0.51100000000E-03 0. -1.
         11   -1    0    0    0    0 -0.00000000000E+00 -0.00000000000E+00 -0.45593999997E+02  0.45594000000E+02  0.51100000000E-03 0.  1.
         23    2    1    2    0    0  0.00000000000E+00  0.35527136788E-14  0.00000000000E+00  0.91188000000E+02  0.91188000000E+02 0.  0.
    9900012    2    3    3    0    0 -0.28769328385E+02 -0.21500598577E+02  0.81135360059E+01  0.54367089346E+02  0.40000011781E+02 0.  0.
         12    1    3    3    0    0  0.28769328385E+02  0.21500598577E+02 -0.81135360059E+01  0.36820910654E+02  0.00000000000E+00 0. -1.
         11    1    4    4    0    0 -0.15271544083E+01  0.25613322912E+00  0.13467722890E+02  0.13556451045E+02  0.51100000000E-03 0. -1.
        -11    1    4    4    0    0 -0.44234531942E+01  0.39582794632E+01  0.41485243036E+00  0.59503795905E+01  0.51100000000E-03 0.  1.
        -12    1    4    4    0    0 -0.22818720783E+02 -0.25715011269E+02 -0.57690393149E+01  0.34860258710E+02  0.00000000000E+00 0.  1.
</event>
<event>
 8    1  0.2509489E-006  0.9118800E+02  0.7816164E-02  0.1184000E+00
        -11   -1    0    0    0    0  0.00000000000E+00  0.00000000000E+00  0.45593999997E+02  0.45594000000E+02  0.51100000000E-03 0.  1.
         11   -1    0    0    0    0 -0.00000000000E+00 -0.00000000000E+00 -0.45593999997E+02  0.45594000000E+02  0.51100000000E-03 0. -1.
         23    2    1    2    0    0 -0.35527136788E-14  0.35527136788E-14  0.00000000000E+00  0.91188000000E+02  0.91188000000E+02 0.  0.
    9900012    2    3    3    0    0  0.21222928860E+02 -0.27905930972E+02  0.11252809297E+02  0.54367090046E+02  0.40000013377E+02 0.  0.
         12    1    3    3    0    0 -0.21222928860E+02  0.27905930972E+02 -0.11252809297E+02  0.36820909954E+02  0.00000000000E+00 0. -1.
         11    1    4    4    0    0 -0.71320230893E+01 -0.10987864573E+02 -0.39418805606E+01  0.13679815198E+02  0.51100000000E-03 0. -1.
        -11    1    4    4    0    0  0.15224512621E+02 -0.18984728180E+02  0.82881249828E+01  0.25707950222E+02  0.51100000000E-03 0.  1.
         12    1    4    4    0    0  0.13130439329E+02  0.20666617819E+01  0.69065648742E+01  0.14979324626E+02  0.00000000000E+00 0. -1.
</event>
<event>
 8    1  0.2509489E-006  0.9118800E+02  0.7816164E-02  0.1184000E+00
        -11   -1    0    0    0    0  0.00000000000E+00  0.00000000000E+00  0.45593999997E+02  0.45594000000E+02  0.51100000000E-03 0.  1.
         11   -1    0    0    0    0 -0.00000000000E+00 -0.00000000000E+00 -0.45593999997E+02  0.45594000000E+02  0.51100000000E-03 0. -1.
         23    2    1    2    0    0  0.00000000000E+00 -0.88817841970E-15  0.71054273576E-14  0.91188000000E+02  0.91188000000E+02 0.  0.
    9900012    2    3    3    0    0  0.16377278222E+02 -0.57388780221E+01 -0.32475062442E+02  0.54367086872E+02  0.40000006142E+02 0.  0.
        -12    1    3    3    0    0 -0.16377278222E+02  0.57388780221E+01  0.32475062442E+02  0.36820913128E+02  0.00000000000E+00 0.  1.
         11    1    4    4    0    0  0.67956941755E+01  0.57161451664E+01  0.27418539310E+01  0.92937364999E+01  0.51100000000E-03 0. -1.
        -11    1    4    4    0    0 -0.35301154677E+01  0.16413328097E+01  0.13155598457E+01  0.41093048775E+01  0.51100000000E-03 0.  1.
         12    1    4    4    0    0  0.13111699515E+02 -0.13096355998E+02 -0.36532476219E+02  0.40964045495E+02  0.00000000000E+00 0. -1.
</event>
<event>
 8    1  0.2509489E-006  0.9118800E+02  0.7816164E-02  0.1184000E+00
        -11   -1    0    0    0    0  0.00000000000E+00  0.00000000000E+00  0.45593999997E+02  0.45594000000E+02  0.51100000000E-03 0.  1.
         11   -1    0    0    0    0 -0.00000000000E+00 -0.00000000000E+00 -0.45593999997E+02  0.45594000000E+02  0.51100000000E-03 0. -1.
         23    2    1    2    0    0  0.35527136788E-14 -0.35527136788E-14  0.00000000000E+00  0.91188000000E+02  0.91188000000E+02 0.  0.
    9900012    2    3    3    0    0  0.16019857348E+02 -0.24985368137E+02  0.21791577266E+02  0.54367118830E+02  0.40000078997E+02 0.  0.
         12    1    3    3    0    0 -0.16019857348E+02  0.24985368137E+02 -0.21791577266E+02  0.36820881170E+02  0.00000000000E+00 0. -1.
         11    1    4    4    0    0  0.98698441750E+01 -0.31064284356E+01 -0.80260524341E+00  0.10378241523E+02  0.51100000000E-03 0. -1.
        -11    1    4    4    0    0 -0.32083091272E+00 -0.10509968811E+02 -0.63095706954E+01  0.12262669346E+02  0.51100000000E-03 0.  1.
        -12    1    4    4    0    0  0.64708440861E+01 -0.11368970891E+02  0.28903753204E+02  0.31726207961E+02  0.00000000000E+00 0.  1.
</event>
<event>
 8    1  0.2509489E-006  0.9118800E+02  0.7816164E-02  0.1184000E+00
        -11   -1    0    0    0    0  0.00000000000E+00  0.00000000000E+00  0.45593999997E+02  0.45594000000E+02  0.51100000000E-03 0.  1.
         11   -1    0    0    0    0 -0.00000000000E+00 -0.00000000000E+00 -0.45593999997E+02  0.45594000000E+02  0.51100000000E-03 0. -1.
         23    2    1    2    0    0  0.00000000000E+00  0.00000000000E+00 -0.17763568394E-14  0.91188000000E+02  0.91188000000E+02 0.  0.
    9900012    2    3    3    0    0  0.16374322714E+02  0.29633204115E+02  0.14475293495E+02  0.54367090828E+02  0.40000015161E+02 0.  0.
         12    1    3    3    0    0 -0.16374322714E+02 -0.29633204115E+02 -0.14475293495E+02  0.36820909172E+02  0.00000000000E+00 0. -1.
         11    1    4    4    0    0  0.34424137111E+01  0.10432136835E+02  0.10900025485E+02  0.15475472430E+02  0.51100000000E-03 0.  1.
        -11    1    4    4    0    0  0.73169152080E+01 -0.68644743214E+01  0.66721659122E+01  0.12048902609E+02  0.51100000000E-03 0. -1.
         12    1    4    4    0    0  0.56149937951E+01  0.26065541601E+02 -0.30968979020E+01  0.26842715789E+02  0.00000000000E+00 0. -1.
</event>
<event>
 8    1  0.2509489E-006  0.9118800E+02  0.7816164E-02  0.1184000E+00
        -11   -1    0    0    0    0  0.00000000000E+00  0.00000000000E+00  0.45593999997E+02  0.45594000000E+02  0.51100000000E-03 0.  1.
         11   -1    0    0    0    0 -0.00000000000E+00 -0.00000000000E+00 -0.45593999997E+02  0.45594000000E+02  0.51100000000E-03 0. -1.
         23    2    1    2    0    0 -0.17763568394E-14 -0.35527136788E-14  0.00000000000E+00  0.91188000000E+02  0.91188000000E+02 0.  0.
    9900012    2    3    3    0    0  0.14765382441E+02 -0.31763881300E+02  0.11349848990E+02  0.54367085482E+02  0.40000002973E+02 0.  0.
         12    1    3    3    0    0 -0.14765382441E+02  0.31763881300E+02 -0.11349848990E+02  0.36820914518E+02  0.00000000000E+00 0. -1.
         11    1    4    4    0    0  0.21025510213E+02 -0.26046828352E+02 -0.77323966978E+00  0.33482939637E+02  0.51100000000E-03 0. -1.
        -11    1    4    4    0    0  0.43425930313E+01 -0.40805582046E+01  0.63226479514E+01  0.86882073453E+01  0.51100000000E-03 0.  1.
         12    1    4    4    0    0 -0.10602720803E+02 -0.16364947435E+01  0.58004407079E+01  0.12195938499E+02  0.00000000000E+00 0. -1.
</event>
<event>
 8    1  0.2509489E-006  0.9118800E+02  0.7816164E-02  0.1184000E+00
        -11   -1    0    0    0    0  0.00000000000E+00  0.00000000000E+00  0.45593999997E+02  0.45594000000E+02  0.51100000000E-03 0. -1.
         11   -1    0    0    0    0 -0.00000000000E+00 -0.00000000000E+00 -0.45593999997E+02  0.45594000000E+02  0.51100000000E-03 0.  1.
         23    2    1    2    0    0  0.00000000000E+00  0.00000000000E+00  0.17763568394E-14  0.91188000000E+02  0.91188000000E+02 0.  0.
    9900012    2    3    3    0    0 -0.10011988274E+02 -0.33825866144E+02 -0.10552521146E+02  0.54367016415E+02  0.39999845522E+02 0.  0.
         12    1    3    3    0    0  0.10011988274E+02  0.33825866144E+02  0.10552521146E+02  0.36820983585E+02  0.00000000000E+00 0. -1.
         11    1    4    4    0    0  0.18487391306E+01 -0.25724298584E+01  0.81520785322E-01  0.31688921801E+01  0.51100000000E-03 0. -1.
        -11    1    4    4    0    0  0.30910231013E+00  0.84263585996E+01 -0.35201228711E+00  0.84393706163E+01  0.51100000000E-03 0.  1.
        -12    1    4    4    0    0 -0.12169829715E+02 -0.39679794885E+02 -0.10282029644E+02  0.42758753619E+02  0.00000000000E+00 0.  1.
</event>
<event>
 8    1  0.2509489E-006  0.9118800E+02  0.7816164E-02  0.1184000E+00
        -11   -1    0    0    0    0  0.00000000000E+00  0.00000000000E+00  0.45593999997E+02  0.45594000000E+02  0.51100000000E-03 0. -1.
         11   -1    0    0    0    0 -0.00000000000E+00 -0.00000000000E+00 -0.45593999997E+02  0.45594000000E+02  0.51100000000E-03 0.  1.
         23    2    1    2    0    0  0.00000000000E+00  0.00000000000E+00  0.00000000000E+00  0.91188000000E+02  0.91188000000E+02 0.  0.
    9900012    2    3    3    0    0  0.23747917963E+02 -0.21540492742E+02  0.18105901754E+02  0.54367080491E+02  0.39999991596E+02 0.  0.
        -12    1    3    3    0    0 -0.23747917963E+02  0.21540492742E+02 -0.18105901754E+02  0.36820919509E+02  0.00000000000E+00 0.  1.
         11    1    4    4    0    0  0.26002569233E+02 -0.14747413054E+02  0.18203019739E+02  0.34999567517E+02  0.51100000000E-03 0. -1.
        -11    1    4    4    0    0 -0.90119378615E+00  0.14682924761E+01 -0.78020453336E+01  0.79899902806E+01  0.51100000000E-03 0.  1.
        -12    1    4    4    0    0 -0.13534574837E+01 -0.82613721647E+01  0.77049273484E+01  0.11377522694E+02  0.00000000000E+00 0.  1.
</event>
<event>
 8    1  0.2509489E-006  0.9118800E+02  0.7816164E-02  0.1184000E+00
        -11   -1    0    0    0    0  0.00000000000E+00  0.00000000000E+00  0.45593999997E+02  0.45594000000E+02  0.51100000000E-03 0. -1.
         11   -1    0    0    0    0 -0.00000000000E+00 -0.00000000000E+00 -0.45593999997E+02  0.45594000000E+02  0.51100000000E-03 0.  1.
         23    2    1    2    0    0 -0.17763568394E-14  0.00000000000E+00  0.00000000000E+00  0.91188000000E+02  0.91188000000E+02 0.  0.
    9900012    2    3    3    0    0  0.65128416386E+01 -0.72093276923E+00 -0.36233161721E+02  0.54367097532E+02  0.40000030444E+02 0.  0.
         12    1    3    3    0    0 -0.65128416386E+01  0.72093276923E+00  0.36233161721E+02  0.36820902468E+02  0.00000000000E+00 0. -1.
         11    1    4    4    0    0  0.96864231258E+01  0.38860029954E+01 -0.20963687396E+02  0.23418027281E+02  0.51100000000E-03 0.  1.
        -11    1    4    4    0    0  0.10873782775E+02 -0.57974097763E+01 -0.41796749677E+01  0.13012255571E+02  0.51100000000E-03 0. -1.
        -12    1    4    4    0    0 -0.14047364262E+02  0.11904740117E+01 -0.11089799357E+02  0.17936814680E+02  0.00000000000E+00 0.  1.
</event>
<event>
 8    1  0.2509489E-006  0.9118800E+02  0.7816164E-02  0.1184000E+00
        -11   -1    0    0    0    0  0.00000000000E+00  0.00000000000E+00  0.45593999997E+02  0.45594000000E+02  0.51100000000E-03 0. -1.
         11   -1    0    0    0    0 -0.00000000000E+00 -0.00000000000E+00 -0.45593999997E+02  0.45594000000E+02  0.51100000000E-03 0.  1.
         23    2    1    2    0    0 -0.35527136788E-14 -0.17763568394E-14  0.35527136788E-14  0.91188000000E+02  0.91188000000E+02 0.  0.
    9900012    2    3    3    0    0  0.16901620526E+02  0.93917966772E+01 -0.31335448950E+02  0.54367068696E+02  0.39999964705E+02 0.  0.
         12    1    3    3    0    0 -0.16901620526E+02 -0.93917966772E+01  0.31335448950E+02  0.36820931304E+02  0.00000000000E+00 0. -1.
         11    1    4    4    0    0  0.79437151760E+01 -0.27008796484E+01 -0.16425311235E+01  0.85495772074E+01  0.51100000000E-03 0. -1.
        -11    1    4    4    0    0  0.46802673715E+01  0.28511206625E+01  0.63358645588E+01  0.83771696694E+01  0.51100000000E-03 0.  1.
        -12    1    4    4    0    0  0.42776379785E+01  0.92415556631E+01 -0.36028782385E+02  0.37440321819E+02  0.00000000000E+00 0.  1.
</event>
<event>
 8    1  0.2509489E-006  0.9118800E+02  0.7816164E-02  0.1184000E+00
        -11   -1    0    0    0    0  0.00000000000E+00  0.00000000000E+00  0.45593999997E+02  0.45594000000E+02  0.51100000000E-03 0.  1.
         11   -1    0    0    0    0 -0.00000000000E+00 -0.00000000000E+00 -0.45593999997E+02  0.45594000000E+02  0.51100000000E-03 0. -1.
         23    2    1    2    0    0 -0.18873791419E-14 -0.16653345369E-15  0.71054273576E-14  0.91188000000E+02  0.91188000000E+02 0.  0.
    9900012    2    3    3    0    0  0.73511047492E+00 -0.16969748182E+00 -0.36813188063E+02  0.54367082032E+02  0.39999995109E+02 0.  0.
        -12    1    3    3    0    0 -0.73511047492E+00  0.16969748182E+00  0.36813188063E+02  0.36820917968E+02  0.00000000000E+00 0.  1.
         11    1    4    4    0    0 -0.17627890593E+01  0.32831532346E+01 -0.85249777932E+01  0.93038576443E+01  0.51100000000E-03 0. -1.
        -11    1    4    4    0    0  0.17431370070E+02  0.29650619565E+01 -0.20399049717E+02  0.26995656772E+02  0.51100000000E-03 0.  1.
        -12    1    4    4    0    0 -0.14933470536E+02 -0.64179126729E+01 -0.78891605526E+01  0.18067567616E+02  0.00000000000E+00 0.  1.
</event>
<event>
 8    1  0.2509489E-006  0.9118800E+02  0.7816164E-02  0.1184000E+00
        -11   -1    0    0    0    0  0.00000000000E+00  0.00000000000E+00  0.45593999997E+02  0.45594000000E+02  0.51100000000E-03 0. -1.
         11   -1    0    0    0    0 -0.00000000000E+00 -0.00000000000E+00 -0.45593999997E+02  0.45594000000E+02  0.51100000000E-03 0.  1.
         23    2    1    2    0    0  0.71054273576E-14  0.00000000000E+00 -0.17763568394E-14  0.91188000000E+02  0.91188000000E+02 0.  0.
    9900012    2    3    3    0    0  0.29565799391E+02 -0.19588142501E+02 -0.98967282048E+01  0.54367122098E+02  0.40000086447E+02 0.  0.
         12    1    3    3    0    0 -0.29565799391E+02  0.19588142501E+02  0.98967282048E+01  0.36820877902E+02  0.00000000000E+00 0. -1.
         11    1    4    4    0    0  0.10617831118E+01  0.54851951438E+00  0.12328291413E+02  0.12386081965E+02  0.51100000000E-03 0. -1.
        -11    1    4    4    0    0  0.15502389225E+02 -0.98320213320E+01 -0.15695068353E+02  0.24152181806E+02  0.51100000000E-03 0.  1.
         12    1    4    4    0    0  0.13001627055E+02 -0.10304640684E+02 -0.65299512646E+01  0.17828858326E+02  0.00000000000E+00 0. -1.
</event>
<event>
 8    1  0.2509489E-006  0.9118800E+02  0.7816164E-02  0.1184000E+00
        -11   -1    0    0    0    0  0.00000000000E+00  0.00000000000E+00  0.45593999997E+02  0.45594000000E+02  0.51100000000E-03 0. -1.
         11   -1    0    0    0    0 -0.00000000000E+00 -0.00000000000E+00 -0.45593999997E+02  0.45594000000E+02  0.51100000000E-03 0.  1.
         23    2    1    2    0    0  0.13322676296E-14  0.00000000000E+00  0.00000000000E+00  0.91188000000E+02  0.91188000000E+02 0.  0.
    9900012    2    3    3    0    0 -0.24555178928E+01 -0.32927733719E+02 -0.16294719031E+02  0.54367040150E+02  0.39999899630E+02 0.  0.
        -12    1    3    3    0    0  0.24555178928E+01  0.32927733719E+02  0.16294719031E+02  0.36820959850E+02  0.00000000000E+00 0.  1.
         11    1    4    4    0    0 -0.12706535110E+02  0.13797550304E+01 -0.90481463708E+00  0.12813213813E+02  0.51100000000E-03 0.  1.
        -11    1    4    4    0    0  0.94558583564E+00  0.12481383757E+01 -0.17574695066E+01  0.23538651842E+01  0.51100000000E-03 0. -1.
         12    1    4    4    0    0  0.93054313813E+01 -0.35555627125E+02 -0.13632434887E+02  0.39199961153E+02  0.00000000000E+00 0. -1.
</event>
<event>
 8    1  0.2509489E-006  0.9118800E+02  0.7816164E-02  0.1184000E+00
        -11   -1    0    0    0    0  0.00000000000E+00  0.00000000000E+00  0.45593999997E+02  0.45594000000E+02  0.51100000000E-03 0. -1.
         11   -1    0    0    0    0 -0.00000000000E+00 -0.00000000000E+00 -0.45593999997E+02  0.45594000000E+02  0.51100000000E-03 0.  1.
         23    2    1    2    0    0  0.00000000000E+00  0.00000000000E+00 -0.71054273576E-14  0.91188000000E+02  0.91188000000E+02 0.  0.
    9900012    2    3    3    0    0 -0.14919985264E+02  0.28613658211E+01  0.33540782746E+02  0.54367116226E+02  0.40000073061E+02 0.  0.
        -12    1    3    3    0    0  0.14919985264E+02 -0.28613658211E+01 -0.33540782746E+02  0.36820883774E+02  0.00000000000E+00 0.  1.
         11    1    4    4    0    0 -0.18366162499E+02  0.46724018472E+01  0.96514319750E+01  0.21267284815E+02  0.51100000000E-03 0. -1.
        -11    1    4    4    0    0 -0.45654175334E+01 -0.16729198473E+01 -0.25377424304E+01  0.54846909643E+01  0.51100000000E-03 0.  1.
         12    1    4    4    0    0  0.80115947683E+01 -0.13811617873E+00  0.26427093202E+02  0.27615140447E+02  0.00000000000E+00 0. -1.
</event>
<event>
 8    1  0.2509489E-006  0.9118800E+02  0.7816164E-02  0.1184000E+00
        -11   -1    0    0    0    0  0.00000000000E+00  0.00000000000E+00  0.45593999997E+02  0.45594000000E+02  0.51100000000E-03 0.  1.
         11   -1    0    0    0    0 -0.00000000000E+00 -0.00000000000E+00 -0.45593999997E+02  0.45594000000E+02  0.51100000000E-03 0. -1.
         23    2    1    2    0    0  0.66613381478E-15  0.17763568394E-14  0.00000000000E+00  0.91188000000E+02  0.91188000000E+02 0.  0.
    9900012    2    3    3    0    0  0.10471771849E+01 -0.12607550869E+02 -0.34579365973E+02  0.54367089228E+02  0.40000011513E+02 0.  0.
        -12    1    3    3    0    0 -0.10471771849E+01  0.12607550869E+02  0.34579365973E+02  0.36820910772E+02  0.00000000000E+00 0.  1.
         11    1    4    4    0    0  0.44241795876E+01  0.54937351737E+00 -0.15129228466E+02  0.15772404082E+02  0.51100000000E-03 0. -1.
        -11    1    4    4    0    0  0.68278831504E+01  0.75843039433E+01 -0.64858847568E+01  0.12091664731E+02  0.51100000000E-03 0.  1.
        -12    1    4    4    0    0 -0.10204885553E+02 -0.20741228330E+02 -0.12964252750E+02  0.26503020416E+02  0.00000000000E+00 0.  1.
</event>
<event>
 8    1  0.2509489E-006  0.9118800E+02  0.7816164E-02  0.1184000E+00
        -11   -1    0    0    0    0  0.00000000000E+00  0.00000000000E+00  0.45593999997E+02  0.45594000000E+02  0.51100000000E-03 0.  1.
         11   -1    0    0    0    0 -0.00000000000E+00 -0.00000000000E+00 -0.45593999997E+02  0.45594000000E+02  0.51100000000E-03 0. -1.
         23    2    1    2    0    0  0.00000000000E+00  0.00000000000E+00  0.00000000000E+00  0.91188000000E+02  0.91188000000E+02 0.  0.
    9900012    2    3    3    0    0  0.35473656533E+02 -0.45277616360E+01  0.87691888100E+01  0.54367087387E+02  0.40000007316E+02 0.  0.
         12    1    3    3    0    0 -0.35473656533E+02  0.45277616360E+01 -0.87691888100E+01  0.36820912613E+02  0.00000000000E+00 0. -1.
         11    1    4    4    0    0 -0.22245747360E+01  0.20465055137E+01 -0.85246594498E+01  0.90447076553E+01  0.51100000000E-03 0.  1.
        -11    1    4    4    0    0  0.20417339372E+02 -0.11634179621E+02  0.67222144500E+01  0.24441973117E+02  0.51100000000E-03 0. -1.
        -12    1    4    4    0    0  0.17280891897E+02  0.50599124709E+01  0.10571633810E+02  0.20880406615E+02  0.00000000000E+00 0.  1.
</event>
<event>
 8    1  0.2509489E-006  0.9118800E+02  0.7816164E-02  0.1184000E+00
        -11   -1    0    0    0    0  0.00000000000E+00  0.00000000000E+00  0.45593999997E+02  0.45594000000E+02  0.51100000000E-03 0.  1.
         11   -1    0    0    0    0 -0.00000000000E+00 -0.00000000000E+00 -0.45593999997E+02  0.45594000000E+02  0.51100000000E-03 0. -1.
         23    2    1    2    0    0 -0.35527136788E-14 -0.35527136788E-14  0.17763568394E-14  0.91188000000E+02  0.91188000000E+02 0.  0.
    9900012    2    3    3    0    0  0.18803712353E+02  0.31593565186E+02  0.20116818702E+01  0.54367084431E+02  0.40000000577E+02 0.  0.
        -12    1    3    3    0    0 -0.18803712353E+02 -0.31593565186E+02 -0.20116818702E+01  0.36820915569E+02  0.00000000000E+00 0.  1.
         11    1    4    4    0    0  0.10220005035E+02  0.18357000379E+02 -0.18416219300E+02  0.27938953083E+02  0.51100000000E-03 0.  1.
        -11    1    4    4    0    0  0.83937982460E+01  0.13732676864E+02  0.18977353790E+02  0.24883372359E+02  0.51100000000E-03 0. -1.
        -12    1    4    4    0    0  0.18990907200E+00 -0.49611205721E+00  0.14505473806E+01  0.15447589884E+01  0.00000000000E+00 0.  1.
</event>
<event>
 8    1  0.2509489E-006  0.9118800E+02  0.7816164E-02  0.1184000E+00
        -11   -1    0    0    0    0  0.00000000000E+00  0.00000000000E+00  0.45593999997E+02  0.45594000000E+02  0.51100000000E-03 0.  1.
         11   -1    0    0    0    0 -0.00000000000E+00 -0.00000000000E+00 -0.45593999997E+02  0.45594000000E+02  0.51100000000E-03 0. -1.
         23    2    1    2    0    0  0.13322676296E-14 -0.35527136788E-14 -0.35527136788E-14  0.91188000000E+02  0.91188000000E+02 0.  0.
    9900012    2    3    3    0    0  0.35861099168E+01 -0.18907749763E+02 -0.31391345964E+02  0.54367084927E+02  0.40000001708E+02 0.  0.
        -12    1    3    3    0    0 -0.35861099168E+01  0.18907749763E+02  0.31391345964E+02  0.36820915073E+02  0.00000000000E+00 0.  1.
         11    1    4    4    0    0 -0.14006009695E-01  0.21344731020E+01 -0.73341541772E+01  0.76384546439E+01  0.51100000000E-03 0. -1.
        -11    1    4    4    0    0 -0.60858427807E+01 -0.70824954679E+01 -0.27803368106E+02  0.29329618182E+02  0.51100000000E-03 0.  1.
        -12    1    4    4    0    0  0.96859587071E+01 -0.13959727397E+02  0.37461763198E+01  0.17399012101E+02  0.00000000000E+00 0.  1.
</event>
<event>
 8    1  0.2509489E-006  0.9118800E+02  0.7816164E-02  0.1184000E+00
        -11   -1    0    0    0    0  0.00000000000E+00  0.00000000000E+00  0.45593999997E+02  0.45594000000E+02  0.51100000000E-03 0. -1.
         11   -1    0    0    0    0 -0.00000000000E+00 -0.00000000000E+00 -0.45593999997E+02  0.45594000000E+02  0.51100000000E-03 0.  1.
         23    2    1    2    0    0  0.00000000000E+00 -0.35527136788E-14  0.00000000000E+00  0.91188000000E+02  0.91188000000E+02 0.  0.
    9900012    2    3    3    0    0  0.23323510324E+02  0.19557656347E+02  0.20719424480E+02  0.54367046639E+02  0.39999914422E+02 0.  0.
        -12    1    3    3    0    0 -0.23323510324E+02 -0.19557656347E+02 -0.20719424480E+02  0.36820953361E+02  0.00000000000E+00 0.  1.
         11    1    4    4    0    0  0.21820458021E+02  0.10319258659E+02  0.31079152873E+02  0.39351406978E+02  0.51100000000E-03 0. -1.
        -11    1    4    4    0    0  0.98988935753E+00  0.18483158629E+01 -0.61446445491E+01  0.64925194928E+01  0.51100000000E-03 0.  1.
         12    1    4    4    0    0  0.51316294554E+00  0.73900818253E+01 -0.42150838441E+01  0.85231201685E+01  0.00000000000E+00 0. -1.
</event>
<event>
 8    1  0.2509489E-006  0.9118800E+02  0.7816164E-02  0.1184000E+00
        -11   -1    0    0    0    0  0.00000000000E+00  0.00000000000E+00  0.45593999997E+02  0.45594000000E+02  0.51100000000E-03 0.  1.
         11   -1    0    0    0    0 -0.00000000000E+00 -0.00000000000E+00 -0.45593999997E+02  0.45594000000E+02  0.51100000000E-03 0. -1.
         23    2    1    2    0    0  0.00000000000E+00  0.00000000000E+00  0.35527136788E-14  0.91188000000E+02  0.91188000000E+02 0.  0.
    9900012    2    3    3    0    0 -0.12306965016E+02 -0.24380969504E+02 -0.24695887769E+02  0.54367082921E+02  0.39999997134E+02 0.  0.
        -12    1    3    3    0    0  0.12306965016E+02  0.24380969504E+02  0.24695887769E+02  0.36820917079E+02  0.00000000000E+00 0.  1.
         11    1    4    4    0    0  0.85293222664E+01 -0.77365931033E+01 -0.43538752106E+01  0.12310988619E+02  0.51100000000E-03 0. -1.
        -11    1    4    4    0    0  0.42299315776E+01 -0.58529386673E+01  0.11582428354E+01  0.73137363174E+01  0.51100000000E-03 0.  1.
        -12    1    4    4    0    0 -0.25066218860E+02 -0.10791437733E+02 -0.21500255394E+02  0.34742357984E+02  0.00000000000E+00 0.  1.
</event>
<event>
 8    1  0.2509489E-006  0.9118800E+02  0.7816164E-02  0.1184000E+00
        -11   -1    0    0    0    0  0.00000000000E+00  0.00000000000E+00  0.45593999997E+02  0.45594000000E+02  0.51100000000E-03 0. -1.
         11   -1    0    0    0    0 -0.00000000000E+00 -0.00000000000E+00 -0.45593999997E+02  0.45594000000E+02  0.51100000000E-03 0.  1.
         23    2    1    2    0    0  0.00000000000E+00  0.00000000000E+00  0.35527136788E-14  0.91188000000E+02  0.91188000000E+02 0.  0.
    9900012    2    3    3    0    0 -0.22761029860E+02  0.11600635907E+02 -0.26516658751E+02  0.54367184894E+02  0.40000229602E+02 0.  0.
         12    1    3    3    0    0  0.22761029860E+02 -0.11600635907E+02  0.26516658751E+02  0.36820815106E+02  0.00000000000E+00 0. -1.
         11    1    4    4    0    0 -0.39883433084E+01  0.76747092000E+01  0.48324155965E+01  0.99075872143E+01  0.51100000000E-03 0. -1.
        -11    1    4    4    0    0 -0.12208212084E+02 -0.13762112787E+01 -0.30521293234E+00  0.12289326872E+02  0.51100000000E-03 0.  1.
        -12    1    4    4    0    0 -0.65644744679E+01  0.53021379857E+01 -0.31043861415E+02  0.32170270808E+02  0.00000000000E+00 0.  1.
</event>
<event>
 8    1  0.2509489E-006  0.9118800E+02  0.7816164E-02  0.1184000E+00
        -11   -1    0    0    0    0  0.00000000000E+00  0.00000000000E+00  0.45593999997E+02  0.45594000000E+02  0.51100000000E-03 0. -1.
         11   -1    0    0    0    0 -0.00000000000E+00 -0.00000000000E+00 -0.45593999997E+02  0.45594000000E+02  0.51100000000E-03 0.  1.
         23    2    1    2    0    0  0.00000000000E+00  0.17763568394E-14  0.35527136788E-14  0.91188000000E+02  0.91188000000E+02 0.  0.
    9900012    2    3    3    0    0  0.20803838235E+02  0.15291277053E+00 -0.30380312060E+02  0.54366994738E+02  0.39999796104E+02 0.  0.
         12    1    3    3    0    0 -0.20803838235E+02 -0.15291277053E+00  0.30380312060E+02  0.36821005262E+02  0.00000000000E+00 0. -1.
         11    1    4    4    0    0  0.16193627331E+02  0.98178257680E+01 -0.56570579415E+01  0.19764249891E+02  0.51100000000E-03 0. -1.
        -11    1    4    4    0    0 -0.34814488265E+01 -0.11125028439E+02 -0.23576376897E+02  0.26300804010E+02  0.51100000000E-03 0.  1.
        -12    1    4    4    0    0  0.80916597309E+01  0.14601154415E+01 -0.11468772216E+01  0.83019408372E+01  0.00000000000E+00 0.  1.
</event>
<event>
 8    1  0.2509489E-006  0.9118800E+02  0.7816164E-02  0.1184000E+00
        -11   -1    0    0    0    0  0.00000000000E+00  0.00000000000E+00  0.45593999997E+02  0.45594000000E+02  0.51100000000E-03 0.  1.
         11   -1    0    0    0    0 -0.00000000000E+00 -0.00000000000E+00 -0.45593999997E+02  0.45594000000E+02  0.51100000000E-03 0. -1.
         23    2    1    2    0    0 -0.17763568394E-14  0.71054273576E-14 -0.88817841970E-15  0.91188000000E+02  0.91188000000E+02 0.  0.
    9900012    2    3    3    0    0 -0.15530276824E+02  0.32948813800E+02 -0.53819654102E+01  0.54367090442E+02  0.40000014280E+02 0.  0.
        -12    1    3    3    0    0  0.15530276824E+02 -0.32948813800E+02  0.53819654102E+01  0.36820909558E+02  0.00000000000E+00 0.  1.
         11    1    4    4    0    0 -0.23848319896E+02  0.89639256380E+01 -0.90390856455E+01  0.27033301579E+02  0.51100000000E-03 0. -1.
        -11    1    4    4    0    0  0.38342245965E+01  0.77970590590E+01  0.57314070603E+01  0.10408863309E+02  0.51100000000E-03 0.  1.
        -12    1    4    4    0    0  0.44838184752E+01  0.16187829103E+02 -0.20742868250E+01  0.16924925554E+02  0.00000000000E+00 0.  1.
</event>
<event>
 8    1  0.2509489E-006  0.9118800E+02  0.7816164E-02  0.1184000E+00
        -11   -1    0    0    0    0  0.00000000000E+00  0.00000000000E+00  0.45593999997E+02  0.45594000000E+02  0.51100000000E-03 0. -1.
         11   -1    0    0    0    0 -0.00000000000E+00 -0.00000000000E+00 -0.45593999997E+02  0.45594000000E+02  0.51100000000E-03 0.  1.
         23    2    1    2    0    0  0.15612511284E-15 -0.71054273576E-14  0.00000000000E+00  0.91188000000E+02  0.91188000000E+02 0.  0.
    9900012    2    3    3    0    0 -0.25561950391E-01 -0.33943578988E+02 -0.14269289131E+02  0.54367084473E+02  0.40000000672E+02 0.  0.
         12    1    3    3    0    0  0.25561950391E-01  0.33943578988E+02  0.14269289131E+02  0.36820915527E+02  0.00000000000E+00 0. -1.
         11    1    4    4    0    0  0.12201563689E+02 -0.16764867004E+02 -0.56782405204E+01  0.21498403145E+02  0.51100000000E-03 0. -1.
        -11    1    4    4    0    0  0.95477732960E+00 -0.54226582205E+01 -0.13463886198E+02  0.14546238474E+02  0.51100000000E-03 0.  1.
        -12    1    4    4    0    0 -0.13181902969E+02 -0.11756053764E+02  0.48728375875E+01  0.18322442854E+02  0.00000000000E+00 0.  1.
</event>
<event>
 8    1  0.2509489E-006  0.9118800E+02  0.7816164E-02  0.1184000E+00
        -11   -1    0    0    0    0  0.00000000000E+00  0.00000000000E+00  0.45593999997E+02  0.45594000000E+02  0.51100000000E-03 0. -1.
         11   -1    0    0    0    0 -0.00000000000E+00 -0.00000000000E+00 -0.45593999997E+02  0.45594000000E+02  0.51100000000E-03 0.  1.
         23    2    1    2    0    0  0.00000000000E+00  0.71054273576E-14 -0.44408920985E-15  0.91188000000E+02  0.91188000000E+02 0.  0.
    9900012    2    3    3    0    0  0.11892249918E+02 -0.34711264653E+02  0.30784793464E+01  0.54367156215E+02  0.40000164224E+02 0.  0.
        -12    1    3    3    0    0 -0.11892249918E+02  0.34711264653E+02 -0.30784793464E+01  0.36820843785E+02  0.00000000000E+00 0.  1.
         11    1    4    4    0    0  0.29901774975E+01 -0.28594783824E+02  0.11406994410E+02  0.30930928618E+02  0.51100000000E-03 0. -1.
        -11    1    4    4    0    0  0.51638348160E+01  0.62133752056E+01  0.28592751510E-01  0.80791112914E+01  0.51100000000E-03 0.  1.
         12    1    4    4    0    0  0.37382376046E+01 -0.12329856034E+02 -0.83571078148E+01  0.15357116306E+02  0.00000000000E+00 0. -1.
</event>
<event>
 8    1  0.2509489E-006  0.9118800E+02  0.7816164E-02  0.1184000E+00
        -11   -1    0    0    0    0  0.00000000000E+00  0.00000000000E+00  0.45593999997E+02  0.45594000000E+02  0.51100000000E-03 0.  1.
         11   -1    0    0    0    0 -0.00000000000E+00 -0.00000000000E+00 -0.45593999997E+02  0.45594000000E+02  0.51100000000E-03 0. -1.
         23    2    1    2    0    0  0.44408920985E-15  0.00000000000E+00 -0.71054273576E-14  0.91188000000E+02  0.91188000000E+02 0.  0.
    9900012    2    3    3    0    0  0.11668511412E+01 -0.83192202190E+01  0.35849893960E+02  0.54367002409E+02  0.39999813592E+02 0.  0.
         12    1    3    3    0    0 -0.11668511412E+01  0.83192202190E+01 -0.35849893960E+02  0.36820997591E+02  0.00000000000E+00 0. -1.
         11    1    4    4    0    0  0.10314310042E+01 -0.57253802663E+01  0.13400325391E+01  0.59698841343E+01  0.51100000000E-03 0. -1.
        -11    1    4    4    0    0 -0.96783477054E+01 -0.11918629698E+02  0.53684251235E+01  0.16264812841E+02  0.51100000000E-03 0.  1.
         12    1    4    4    0    0  0.98137678424E+01  0.93247897448E+01  0.29141436297E+02  0.32132305434E+02  0.00000000000E+00 0. -1.
</event>
<event>
 8    1  0.2509489E-006  0.9118800E+02  0.7816164E-02  0.1184000E+00
        -11   -1    0    0    0    0  0.00000000000E+00  0.00000000000E+00  0.45593999997E+02  0.45594000000E+02  0.51100000000E-03 0.  1.
         11   -1    0    0    0    0 -0.00000000000E+00 -0.00000000000E+00 -0.45593999997E+02  0.45594000000E+02  0.51100000000E-03 0. -1.
         23    2    1    2    0    0  0.49960036108E-15 -0.44408920985E-15  0.71054273576E-14  0.91188000000E+02  0.91188000000E+02 0.  0.
    9900012    2    3    3    0    0 -0.25414808952E+00  0.19798867709E+01 -0.36766765281E+02  0.54367087843E+02  0.40000008355E+02 0.  0.
        -12    1    3    3    0    0  0.25414808952E+00 -0.19798867709E+01  0.36766765281E+02  0.36820912157E+02  0.00000000000E+00 0.  1.
         11    1    4    4    0    0 -0.11256088746E+02  0.37866468888E+01 -0.73463501435E+01  0.13964493876E+02  0.51100000000E-03 0. -1.
        -11    1    4    4    0    0  0.13654259825E+02  0.28920700489E+01 -0.41478899149E+01  0.14560490086E+02  0.51100000000E-03 0.  1.
        -12    1    4    4    0    0 -0.26523191684E+01 -0.46988301669E+01 -0.25272525222E+02  0.25842103881E+02  0.00000000000E+00 0.  1.
</event>
<event>
 8    1  0.2509489E-006  0.9118800E+02  0.7816164E-02  0.1184000E+00
        -11   -1    0    0    0    0  0.00000000000E+00  0.00000000000E+00  0.45593999997E+02  0.45594000000E+02  0.51100000000E-03 0.  1.
         11   -1    0    0    0    0 -0.00000000000E+00 -0.00000000000E+00 -0.45593999997E+02  0.45594000000E+02  0.51100000000E-03 0. -1.
         23    2    1    2    0    0 -0.44408920985E-15  0.00000000000E+00  0.00000000000E+00  0.91188000000E+02  0.91188000000E+02 0.  0.
    9900012    2    3    3    0    0 -0.39537290311E+01 -0.29235865137E+02  0.22032267381E+02  0.54366965393E+02  0.39999729206E+02 0.  0.
         12    1    3    3    0    0  0.39537290311E+01  0.29235865137E+02 -0.22032267381E+02  0.36821034607E+02  0.00000000000E+00 0. -1.
         11    1    4    4    0    0  0.23498841293E+01 -0.33774465538E+02  0.19884585673E+02  0.39263637445E+02  0.51100000000E-03 0. -1.
        -11    1    4    4    0    0 -0.27948250039E+01  0.31275801639E+01  0.74742537343E+01  0.85707218850E+01  0.51100000000E-03 0.  1.
         12    1    4    4    0    0 -0.35087881564E+01  0.14110202372E+01 -0.53265720256E+01  0.65326060635E+01  0.00000000000E+00 0. -1.
</event>
<event>
 8    1  0.2509489E-006  0.9118800E+02  0.7816164E-02  0.1184000E+00
        -11   -1    0    0    0    0  0.00000000000E+00  0.00000000000E+00  0.45593999997E+02  0.45594000000E+02  0.51100000000E-03 0. -1.
         11   -1    0    0    0    0 -0.00000000000E+00 -0.00000000000E+00 -0.45593999997E+02  0.45594000000E+02  0.51100000000E-03 0.  1.
         23    2    1    2    0    0  0.00000000000E+00 -0.17763568394E-14  0.88817841970E-15  0.91188000000E+02  0.91188000000E+02 0.  0.
    9900012    2    3    3    0    0 -0.35028349910E+02 -0.85683651651E+01 -0.74415828865E+01  0.54367091064E+02  0.40000015699E+02 0.  0.
        -12    1    3    3    0    0  0.35028349910E+02  0.85683651651E+01  0.74415828865E+01  0.36820908936E+02  0.00000000000E+00 0.  1.
         11    1    4    4    0    0 -0.10315222546E+02  0.12640607519E+02 -0.89517434042E+01  0.18609741665E+02  0.51100000000E-03 0. -1.
        -11    1    4    4    0    0 -0.10918621404E+01 -0.21506904434E+01 -0.42290329811E+01  0.48685061911E+01  0.51100000000E-03 0.  1.
         12    1    4    4    0    0 -0.23621265224E+02 -0.19058282240E+02  0.57391934987E+01  0.30888843208E+02  0.00000000000E+00 0. -1.
</event>
<event>
 8    1  0.2509489E-006  0.9118800E+02  0.7816164E-02  0.1184000E+00
        -11   -1    0    0    0    0  0.00000000000E+00  0.00000000000E+00  0.45593999997E+02  0.45594000000E+02  0.51100000000E-03 0.  1.
         11   -1    0    0    0    0 -0.00000000000E+00 -0.00000000000E+00 -0.45593999997E+02  0.45594000000E+02  0.51100000000E-03 0. -1.
         23    2    1    2    0    0  0.00000000000E+00  0.35527136788E-14  0.00000000000E+00  0.91188000000E+02  0.91188000000E+02 0.  0.
    9900012    2    3    3    0    0  0.24405807513E+02 -0.19597360787E+02  0.19392836497E+02  0.54367053549E+02  0.39999930175E+02 0.  0.
         12    1    3    3    0    0 -0.24405807513E+02  0.19597360787E+02 -0.19392836497E+02  0.36820946451E+02  0.00000000000E+00 0. -1.
         11    1    4    4    0    0  0.52836379938E+01  0.45318505245E+01  0.93652414191E+01  0.11668857987E+02  0.51100000000E-03 0.  1.
        -11    1    4    4    0    0  0.97576327835E+01  0.85814607172E+00  0.12521208969E+02  0.15897436477E+02  0.51100000000E-03 0. -1.
         12    1    4    4    0    0  0.93645367359E+01 -0.24987357383E+02 -0.24936138916E+01  0.26800759085E+02  0.00000000000E+00 0. -1.
</event>
<event>
 8    1  0.2509489E-006  0.9118800E+02  0.7816164E-02  0.1184000E+00
        -11   -1    0    0    0    0  0.00000000000E+00  0.00000000000E+00  0.45593999997E+02  0.45594000000E+02  0.51100000000E-03 0.  1.
         11   -1    0    0    0    0 -0.00000000000E+00 -0.00000000000E+00 -0.45593999997E+02  0.45594000000E+02  0.51100000000E-03 0. -1.
         23    2    1    2    0    0 -0.35527136788E-14  0.17763568394E-14 -0.35527136788E-14  0.91188000000E+02  0.91188000000E+02 0.  0.
    9900012    2    3    3    0    0  0.22233143814E+02  0.60998603126E+01  0.28709907875E+02  0.54367084886E+02  0.40000001614E+02 0.  0.
         12    1    3    3    0    0 -0.22233143814E+02 -0.60998603126E+01 -0.28709907875E+02  0.36820915114E+02  0.00000000000E+00 0. -1.
         11    1    4    4    0    0  0.17048103907E+02  0.41791017869E+01  0.43470535941E+01  0.18083130641E+02  0.51100000000E-03 0. -1.
        -11    1    4    4    0    0  0.68334677969E+01 -0.10142256115E+02  0.45884912035E+01  0.13062001876E+02  0.51100000000E-03 0.  1.
        -12    1    4    4    0    0 -0.16484278899E+01  0.12063014640E+02  0.19774363077E+02  0.23221952369E+02  0.00000000000E+00 0.  1.
</event>
<event>
 8    1  0.2509489E-006  0.9118800E+02  0.7816164E-02  0.1184000E+00
        -11   -1    0    0    0    0  0.00000000000E+00  0.00000000000E+00  0.45593999997E+02  0.45594000000E+02  0.51100000000E-03 0.  1.
         11   -1    0    0    0    0 -0.00000000000E+00 -0.00000000000E+00 -0.45593999997E+02  0.45594000000E+02  0.51100000000E-03 0. -1.
         23    2    1    2    0    0  0.00000000000E+00 -0.71054273576E-14  0.00000000000E+00  0.91188000000E+02  0.91188000000E+02 0.  0.
    9900012    2    3    3    0    0  0.95100609587E+01 -0.35441625721E+02  0.30377677466E+01  0.54367107479E+02  0.40000053119E+02 0.  0.
         12    1    3    3    0    0 -0.95100609587E+01  0.35441625721E+02 -0.30377677466E+01  0.36820892521E+02  0.00000000000E+00 0. -1.
         11    1    4    4    0    0  0.86544193361E+01 -0.25827347601E+01 -0.66292890976E+00  0.90558802933E+01  0.51100000000E-03 0. -1.
        -11    1    4    4    0    0 -0.77567107631E+00  0.31053750573E+00  0.11228225174E+02  0.11259269070E+02  0.51100000000E-03 0.  1.
        -12    1    4    4    0    0  0.16313126989E+01 -0.33169428466E+02 -0.75275285181E+01  0.34051958116E+02  0.00000000000E+00 0.  1.
</event>
<event>
 8    1  0.2509489E-006  0.9118800E+02  0.7816164E-02  0.1184000E+00
        -11   -1    0    0    0    0  0.00000000000E+00  0.00000000000E+00  0.45593999997E+02  0.45594000000E+02  0.51100000000E-03 0. -1.
         11   -1    0    0    0    0 -0.00000000000E+00 -0.00000000000E+00 -0.45593999997E+02  0.45594000000E+02  0.51100000000E-03 0.  1.
         23    2    1    2    0    0  0.88817841970E-15  0.71054273576E-14 -0.17763568394E-14  0.91188000000E+02  0.91188000000E+02 0.  0.
    9900012    2    3    3    0    0 -0.45846159686E+01  0.33169364657E+02 -0.15315005238E+02  0.54367152091E+02  0.40000154822E+02 0.  0.
         12    1    3    3    0    0  0.45846159686E+01 -0.33169364657E+02  0.15315005238E+02  0.36820847909E+02  0.00000000000E+00 0. -1.
         11    1    4    4    0    0  0.10426943734E+02 -0.19350282211E+01 -0.91410956399E+01  0.14000897100E+02  0.51100000000E-03 0. -1.
        -11    1    4    4    0    0 -0.10150748422E+02  0.10282138098E+02 -0.39284520606E+01  0.14973068932E+02  0.51100000000E-03 0.  1.
        -12    1    4    4    0    0 -0.48608112807E+01  0.24822254780E+02 -0.22454575373E+01  0.25393186059E+02  0.00000000000E+00 0.  1.
</event>
<event>
 8    1  0.2509489E-006  0.9118800E+02  0.7816164E-02  0.1184000E+00
        -11   -1    0    0    0    0  0.00000000000E+00  0.00000000000E+00  0.45593999997E+02  0.45594000000E+02  0.51100000000E-03 0. -1.
         11   -1    0    0    0    0 -0.00000000000E+00 -0.00000000000E+00 -0.45593999997E+02  0.45594000000E+02  0.51100000000E-03 0.  1.
         23    2    1    2    0    0 -0.88817841970E-15  0.00000000000E+00  0.71054273576E-14  0.91188000000E+02  0.91188000000E+02 0.  0.
    9900012    2    3    3    0    0  0.31668145813E+01 -0.49730295046E+01 -0.36345849267E+02  0.54367075297E+02  0.39999979754E+02 0.  0.
         12    1    3    3    0    0 -0.31668145813E+01  0.49730295046E+01  0.36345849267E+02  0.36820924703E+02  0.00000000000E+00 0. -1.
         11    1    4    4    0    0 -0.13052635206E+02 -0.40890392352E+01 -0.13094150094E+02  0.18935371521E+02  0.51100000000E-03 0. -1.
        -11    1    4    4    0    0  0.48485736302E+01  0.69320584288E+01 -0.19309896146E+02  0.21081607855E+02  0.51100000000E-03 0.  1.
         12    1    4    4    0    0  0.11370876157E+02 -0.78160486982E+01 -0.39418030273E+01  0.14350095921E+02  0.00000000000E+00 0. -1.
</event>
<event>
 8    1  0.2509489E-006  0.9118800E+02  0.7816164E-02  0.1184000E+00
        -11   -1    0    0    0    0  0.00000000000E+00  0.00000000000E+00  0.45593999997E+02  0.45594000000E+02  0.51100000000E-03 0.  1.
         11   -1    0    0    0    0 -0.00000000000E+00 -0.00000000000E+00 -0.45593999997E+02  0.45594000000E+02  0.51100000000E-03 0. -1.
         23    2    1    2    0    0  0.00000000000E+00 -0.17763568394E-14  0.00000000000E+00  0.91188000000E+02  0.91188000000E+02 0.  0.
    9900012    2    3    3    0    0 -0.22565293366E+02 -0.15362586010E+02 -0.24709857390E+02  0.54367101507E+02  0.40000039505E+02 0.  0.
        -12    1    3    3    0    0  0.22565293366E+02  0.15362586010E+02  0.24709857390E+02  0.36820898493E+02  0.00000000000E+00 0.  1.
         11    1    4    4    0    0 -0.18530902592E+02 -0.15699573038E+02 -0.14526327308E+02  0.28299913954E+02  0.51100000000E-03 0. -1.
        -11    1    4    4    0    0  0.88585406404E+01 -0.25104775662E+01  0.29308329287E+00  0.92120648047E+01  0.51100000000E-03 0.  1.
         12    1    4    4    0    0 -0.12892931414E+02  0.28474645938E+01 -0.10476613375E+02  0.16855122748E+02  0.00000000000E+00 0. -1.
</event>
<event>
 8    1  0.2509489E-006  0.9118800E+02  0.7816164E-02  0.1184000E+00
        -11   -1    0    0    0    0  0.00000000000E+00  0.00000000000E+00  0.45593999997E+02  0.45594000000E+02  0.51100000000E-03 0. -1.
         11   -1    0    0    0    0 -0.00000000000E+00 -0.00000000000E+00 -0.45593999997E+02  0.45594000000E+02  0.51100000000E-03 0.  1.
         23    2    1    2    0    0  0.00000000000E+00  0.00000000000E+00  0.00000000000E+00  0.91188000000E+02  0.91188000000E+02 0.  0.
    9900012    2    3    3    0    0 -0.24985308279E+02 -0.10875900652E+02 -0.24763454641E+02  0.54367088407E+02  0.40000009641E+02 0.  0.
         12    1    3    3    0    0  0.24985308279E+02  0.10875900652E+02  0.24763454641E+02  0.36820911593E+02  0.00000000000E+00 0. -1.
         11    1    4    4    0    0 -0.72782195546E+01 -0.50447204977E+01  0.57514621883E+01  0.10559403504E+02  0.51100000000E-03 0. -1.
        -11    1    4    4    0    0 -0.21726616910E+02 -0.95699317349E+01 -0.16940289254E+02  0.29165096880E+02  0.51100000000E-03 0.  1.
        -12    1    4    4    0    0  0.40195281855E+01  0.37387515808E+01 -0.13574627575E+02  0.14642588023E+02  0.00000000000E+00 0.  1.
</event>
<event>
 8    1  0.2509489E-006  0.9118800E+02  0.7816164E-02  0.1184000E+00
        -11   -1    0    0    0    0  0.00000000000E+00  0.00000000000E+00  0.45593999997E+02  0.45594000000E+02  0.51100000000E-03 0.  1.
         11   -1    0    0    0    0 -0.00000000000E+00 -0.00000000000E+00 -0.45593999997E+02  0.45594000000E+02  0.51100000000E-03 0. -1.
         23    2    1    2    0    0  0.00000000000E+00  0.00000000000E+00 -0.35527136788E-14  0.91188000000E+02  0.91188000000E+02 0.  0.
    9900012    2    3    3    0    0  0.99024588920E+01 -0.20927042404E+02  0.28631814999E+02  0.54367073531E+02  0.39999975729E+02 0.  0.
         12    1    3    3    0    0 -0.99024588920E+01  0.20927042404E+02 -0.28631814999E+02  0.36820926469E+02  0.00000000000E+00 0. -1.
         11    1    4    4    0    0 -0.83741412822E+01 -0.18434894911E+02  0.70702848909E+01  0.21446690218E+02  0.51100000000E-03 0. -1.
        -11    1    4    4    0    0  0.64107939048E+01  0.33639798002E+01  0.17719840541E+02  0.19141770756E+02  0.51100000000E-03 0.  1.
        -12    1    4    4    0    0  0.11865806269E+02 -0.58561272933E+01  0.38416895669E+01  0.13778612558E+02  0.00000000000E+00 0.  1.
</event>
<event>
 8    1  0.2509489E-006  0.9118800E+02  0.7816164E-02  0.1184000E+00
        -11   -1    0    0    0    0  0.00000000000E+00  0.00000000000E+00  0.45593999997E+02  0.45594000000E+02  0.51100000000E-03 0.  1.
         11   -1    0    0    0    0 -0.00000000000E+00 -0.00000000000E+00 -0.45593999997E+02  0.45594000000E+02  0.51100000000E-03 0. -1.
         23    2    1    2    0    0  0.00000000000E+00  0.00000000000E+00  0.35527136788E-14  0.91188000000E+02  0.91188000000E+02 0.  0.
    9900012    2    3    3    0    0  0.20556305451E+02  0.21166669609E+02  0.22027013863E+02  0.54367096482E+02  0.40000028051E+02 0.  0.
         12    1    3    3    0    0 -0.20556305451E+02 -0.21166669609E+02 -0.22027013863E+02  0.36820903518E+02  0.00000000000E+00 0. -1.
         11    1    4    4    0    0  0.11005030513E+01  0.44252265701E+01 -0.58412960142E+00  0.45972758037E+01  0.51100000000E-03 0. -1.
        -11    1    4    4    0    0  0.26406515303E+02  0.15092911952E+01  0.19197730474E+02  0.32682332627E+02  0.51100000000E-03 0.  1.
        -12    1    4    4    0    0 -0.69507129034E+01  0.15232151844E+02  0.34134129906E+01  0.17087488051E+02  0.00000000000E+00 0.  1.
</event>
<event>
 8    1  0.2509489E-006  0.9118800E+02  0.7816164E-02  0.1184000E+00
        -11   -1    0    0    0    0  0.00000000000E+00  0.00000000000E+00  0.45593999997E+02  0.45594000000E+02  0.51100000000E-03 0.  1.
         11   -1    0    0    0    0 -0.00000000000E+00 -0.00000000000E+00 -0.45593999997E+02  0.45594000000E+02  0.51100000000E-03 0. -1.
         23    2    1    2    0    0  0.00000000000E+00  0.00000000000E+00  0.35527136788E-14  0.91188000000E+02  0.91188000000E+02 0.  0.
    9900012    2    3    3    0    0 -0.16839128541E+02 -0.90839910072E+01  0.31459582735E+02  0.54367075399E+02  0.39999979986E+02 0.  0.
         12    1    3    3    0    0  0.16839128541E+02  0.90839910072E+01 -0.31459582735E+02  0.36820924601E+02  0.00000000000E+00 0. -1.
         11    1    4    4    0    0 -0.21930270066E+02  0.34885600331E+01  0.14492492335E+02  0.26516770743E+02  0.51100000000E-03 0. -1.
        -11    1    4    4    0    0  0.66621042489E+01  0.10307639244E+01  0.99952825488E+00  0.68150689127E+01  0.51100000000E-03 0.  1.
         12    1    4    4    0    0 -0.15709627239E+01 -0.13603314965E+02  0.15967562145E+02  0.21035235743E+02  0.00000000000E+00 0. -1.
</event>
<event>
 8    1  0.2509489E-006  0.9118800E+02  0.7816164E-02  0.1184000E+00
        -11   -1    0    0    0    0  0.00000000000E+00  0.00000000000E+00  0.45593999997E+02  0.45594000000E+02  0.51100000000E-03 0. -1.
         11   -1    0    0    0    0 -0.00000000000E+00 -0.00000000000E+00 -0.45593999997E+02  0.45594000000E+02  0.51100000000E-03 0.  1.
         23    2    1    2    0    0  0.00000000000E+00  0.00000000000E+00  0.00000000000E+00  0.91188000000E+02  0.91188000000E+02 0.  0.
    9900012    2    3    3    0    0 -0.12515361990E+02 -0.29594441338E+02 -0.17980696644E+02  0.54367208378E+02  0.40000283138E+02 0.  0.
         12    1    3    3    0    0  0.12515361990E+02  0.29594441338E+02  0.17980696644E+02  0.36820791622E+02  0.00000000000E+00 0. -1.
         11    1    4    4    0    0 -0.12416784858E+02 -0.79495045329E+01 -0.77023005921E+01  0.16634199807E+02  0.51100000000E-03 0. -1.
        -11    1    4    4    0    0 -0.11084193005E+02 -0.14827577900E+02 -0.15145030935E+02  0.23918368741E+02  0.51100000000E-03 0.  1.
         12    1    4    4    0    0  0.10985615873E+02 -0.68173589057E+01  0.48666348827E+01  0.13814639830E+02  0.00000000000E+00 0. -1.
</event>
<event>
 8    1  0.2509489E-006  0.9118800E+02  0.7816164E-02  0.1184000E+00
        -11   -1    0    0    0    0  0.00000000000E+00  0.00000000000E+00  0.45593999997E+02  0.45594000000E+02  0.51100000000E-03 0. -1.
         11   -1    0    0    0    0 -0.00000000000E+00 -0.00000000000E+00 -0.45593999997E+02  0.45594000000E+02  0.51100000000E-03 0.  1.
         23    2    1    2    0    0  0.00000000000E+00  0.11102230246E-15  0.35527136788E-14  0.91188000000E+02  0.91188000000E+02 0.  0.
    9900012    2    3    3    0    0 -0.23231703357E+02  0.72527175720E+00 -0.28557694466E+02  0.54367082396E+02  0.39999995938E+02 0.  0.
         12    1    3    3    0    0  0.23231703357E+02 -0.72527175720E+00  0.28557694466E+02  0.36820917604E+02  0.00000000000E+00 0. -1.
         11    1    4    4    0    0 -0.24578844922E+02  0.71914618741E+00 -0.33110822346E+02  0.41242736883E+02  0.51100000000E-03 0.  1.
        -11    1    4    4    0    0  0.19714775276E+01 -0.59769395747E+01  0.23244958444E+01  0.67092333029E+01  0.51100000000E-03 0. -1.
         12    1    4    4    0    0 -0.62433596197E+00  0.59830651445E+01  0.22286320350E+01  0.64151122098E+01  0.00000000000E+00 0. -1.
</event>
<event>
 8    1  0.2509489E-006  0.9118800E+02  0.7816164E-02  0.1184000E+00
        -11   -1    0    0    0    0  0.00000000000E+00  0.00000000000E+00  0.45593999997E+02  0.45594000000E+02  0.51100000000E-03 0.  1.
         11   -1    0    0    0    0 -0.00000000000E+00 -0.00000000000E+00 -0.45593999997E+02  0.45594000000E+02  0.51100000000E-03 0. -1.
         23    2    1    2    0    0  0.00000000000E+00  0.00000000000E+00  0.00000000000E+00  0.91188000000E+02  0.91188000000E+02 0.  0.
    9900012    2    3    3    0    0 -0.82503845542E+01 -0.16474517064E+02  0.31879424499E+02  0.54367132762E+02  0.40000110757E+02 0.  0.
         12    1    3    3    0    0  0.82503845542E+01  0.16474517064E+02 -0.31879424499E+02  0.36820867238E+02  0.00000000000E+00 0. -1.
         11    1    4    4    0    0 -0.94954803327E+01 -0.11277773089E+01  0.10592953330E+02  0.14270483136E+02  0.51100000000E-03 0. -1.
        -11    1    4    4    0    0  0.23068172874E+01 -0.93612918531E+01 -0.65164215339E+01  0.11636964425E+02  0.51100000000E-03 0.  1.
        -12    1    4    4    0    0 -0.10617215089E+01 -0.59854479023E+01  0.27802892702E+02  0.28459685201E+02  0.00000000000E+00 0.  1.
</event>
<event>
 8    1  0.2509489E-006  0.9118800E+02  0.7816164E-02  0.1184000E+00
        -11   -1    0    0    0    0  0.00000000000E+00  0.00000000000E+00  0.45593999997E+02  0.45594000000E+02  0.51100000000E-03 0. -1.
         11   -1    0    0    0    0 -0.00000000000E+00 -0.00000000000E+00 -0.45593999997E+02  0.45594000000E+02  0.51100000000E-03 0.  1.
         23    2    1    2    0    0 -0.35527136788E-14 -0.22204460493E-15  0.00000000000E+00  0.91188000000E+02  0.91188000000E+02 0.  0.
    9900012    2    3    3    0    0  0.22366985905E+02  0.19885795695E+01  0.29181210264E+02  0.54367088284E+02  0.40000009360E+02 0.  0.
        -12    1    3    3    0    0 -0.22366985905E+02 -0.19885795695E+01 -0.29181210264E+02  0.36820911716E+02  0.00000000000E+00 0.  1.
         11    1    4    4    0    0  0.29730326362E+02  0.21375885930E+01  0.19704000367E+02  0.35731068012E+02  0.51100000000E-03 0. -1.
        -11    1    4    4    0    0 -0.93630755431E+01  0.28073164898E+01  0.14902037908E+01  0.98878165992E+01  0.51100000000E-03 0.  1.
         12    1    4    4    0    0  0.19997350859E+01 -0.29563255133E+01  0.79870061059E+01  0.87482036722E+01  0.00000000000E+00 0. -1.
</event>
<event>
 8    1  0.2509489E-006  0.9118800E+02  0.7816164E-02  0.1184000E+00
        -11   -1    0    0    0    0  0.00000000000E+00  0.00000000000E+00  0.45593999997E+02  0.45594000000E+02  0.51100000000E-03 0.  1.
         11   -1    0    0    0    0 -0.00000000000E+00 -0.00000000000E+00 -0.45593999997E+02  0.45594000000E+02  0.51100000000E-03 0. -1.
         23    2    1    2    0    0  0.00000000000E+00 -0.35527136788E-14  0.35527136788E-14  0.91188000000E+02  0.91188000000E+02 0.  0.
    9900012    2    3    3    0    0 -0.11436518715E+02  0.23182480371E+02  0.26221344641E+02  0.54367078348E+02  0.39999986711E+02 0.  0.
         12    1    3    3    0    0  0.11436518715E+02 -0.23182480371E+02 -0.26221344641E+02  0.36820921652E+02  0.00000000000E+00 0. -1.
         11    1    4    4    0    0 -0.20290078760E+00 -0.35990671584E+01  0.55436756921E+01  0.66126238046E+01  0.51100000000E-03 0. -1.
        -11    1    4    4    0    0 -0.19564717877E+01 -0.59261302848E+01  0.10589077947E+02  0.12291272271E+02  0.51100000000E-03 0.  1.
        -12    1    4    4    0    0 -0.92771461400E+01  0.32707677814E+02  0.10088591002E+02  0.35463182273E+02  0.00000000000E+00 0.  1.
</event>
<event>
 8    1  0.2509489E-006  0.9118800E+02  0.7816164E-02  0.1184000E+00
        -11   -1    0    0    0    0  0.00000000000E+00  0.00000000000E+00  0.45593999997E+02  0.45594000000E+02  0.51100000000E-03 0. -1.
         11   -1    0    0    0    0 -0.00000000000E+00 -0.00000000000E+00 -0.45593999997E+02  0.45594000000E+02  0.51100000000E-03 0.  1.
         23    2    1    2    0    0  0.35527136788E-14  0.17763568394E-14  0.00000000000E+00  0.91188000000E+02  0.91188000000E+02 0.  0.
    9900012    2    3    3    0    0  0.21393653540E+02 -0.94623215364E+01  0.28435145563E+02  0.54367062426E+02  0.39999950412E+02 0.  0.
        -12    1    3    3    0    0 -0.21393653540E+02  0.94623215364E+01 -0.28435145563E+02  0.36820937574E+02  0.00000000000E+00 0.  1.
         11    1    4    4    0    0  0.11538926555E+02 -0.16864422168E+02  0.28481703752E+02  0.35053716065E+02  0.51100000000E-03 0. -1.
        -11    1    4    4    0    0  0.13734289383E+02  0.44722937012E+01  0.20076884851E+00  0.14445498406E+02  0.51100000000E-03 0.  1.
        -12    1    4    4    0    0 -0.38795623979E+01  0.29298069300E+01 -0.24732703716E+00  0.48678479547E+01  0.00000000000E+00 0.  1.
</event>
<event>
 8    1  0.2509489E-006  0.9118800E+02  0.7816164E-02  0.1184000E+00
        -11   -1    0    0    0    0  0.00000000000E+00  0.00000000000E+00  0.45593999997E+02  0.45594000000E+02  0.51100000000E-03 0.  1.
         11   -1    0    0    0    0 -0.00000000000E+00 -0.00000000000E+00 -0.45593999997E+02  0.45594000000E+02  0.51100000000E-03 0. -1.
         23    2    1    2    0    0  0.71054273576E-14  0.17763568394E-14  0.35527136788E-14  0.91188000000E+02  0.91188000000E+02 0.  0.
    9900012    2    3    3    0    0  0.18968585142E+02  0.15210149285E+02  0.27651831806E+02  0.54367086571E+02  0.40000005455E+02 0.  0.
         12    1    3    3    0    0 -0.18968585142E+02 -0.15210149285E+02 -0.27651831806E+02  0.36820913429E+02  0.00000000000E+00 0. -1.
         11    1    4    4    0    0  0.21613519295E+01 -0.63421489432E+01  0.48578582176E+01  0.82760547427E+01  0.51100000000E-03 0. -1.
        -11    1    4    4    0    0  0.25102635073E+02  0.13623375915E+02  0.15536804288E+02  0.32513550201E+02  0.51100000000E-03 0.  1.
         12    1    4    4    0    0 -0.82954018604E+01  0.79289223138E+01  0.72571692999E+01  0.13577481627E+02  0.00000000000E+00 0. -1.
</event>
<event>
 8    1  0.2509489E-006  0.9118800E+02  0.7816164E-02  0.1184000E+00
        -11   -1    0    0    0    0  0.00000000000E+00  0.00000000000E+00  0.45593999997E+02  0.45594000000E+02  0.51100000000E-03 0.  1.
         11   -1    0    0    0    0 -0.00000000000E+00 -0.00000000000E+00 -0.45593999997E+02  0.45594000000E+02  0.51100000000E-03 0. -1.
         23    2    1    2    0    0  0.00000000000E+00 -0.44408920985E-15  0.00000000000E+00  0.91188000000E+02  0.91188000000E+02 0.  0.
    9900012    2    3    3    0    0  0.16439104221E+02 -0.17443429690E+01 -0.32901265655E+02  0.54367079837E+02  0.39999990104E+02 0.  0.
        -12    1    3    3    0    0 -0.16439104221E+02  0.17443429690E+01  0.32901265655E+02  0.36820920163E+02  0.00000000000E+00 0.  1.
         11    1    4    4    0    0  0.34535028912E+01  0.46568089524E+01 -0.39908720877E+01  0.70384381876E+01  0.51100000000E-03 0. -1.
        -11    1    4    4    0    0  0.11438929705E+02 -0.85858750219E+01  0.35672981471E+01  0.14740826945E+02  0.51100000000E-03 0.  1.
        -12    1    4    4    0    0  0.15466716251E+01  0.21847231005E+01 -0.32477691714E+02  0.32587814705E+02  0.00000000000E+00 0.  1.
</event>
<event>
 8    1  0.2509489E-006  0.9118800E+02  0.7816164E-02  0.1184000E+00
        -11   -1    0    0    0    0  0.00000000000E+00  0.00000000000E+00  0.45593999997E+02  0.45594000000E+02  0.51100000000E-03 0. -1.
         11   -1    0    0    0    0 -0.00000000000E+00 -0.00000000000E+00 -0.45593999997E+02  0.45594000000E+02  0.51100000000E-03 0.  1.
         23    2    1    2    0    0 -0.13322676296E-14  0.35527136788E-14  0.00000000000E+00  0.91188000000E+02  0.91188000000E+02 0.  0.
    9900012    2    3    3    0    0 -0.39701419386E+01  0.30449405352E+02 -0.20318772950E+02  0.54367070523E+02  0.39999968872E+02 0.  0.
         12    1    3    3    0    0  0.39701419386E+01 -0.30449405352E+02  0.20318772950E+02  0.36820929477E+02  0.00000000000E+00 0. -1.
         11    1    4    4    0    0  0.36527860241E+01  0.13079891535E+02  0.41324108117E-01  0.13580431372E+02  0.51100000000E-03 0. -1.
        -11    1    4    4    0    0 -0.42899587284E+01  0.24923868846E+02 -0.92165897747E+01  0.26917438799E+02  0.51100000000E-03 0.  1.
         12    1    4    4    0    0 -0.33329692342E+01 -0.75543550290E+01 -0.11143507284E+02  0.13869200352E+02  0.00000000000E+00 0. -1.
</event>
<event>
 8    1  0.2509489E-006  0.9118800E+02  0.7816164E-02  0.1184000E+00
        -11   -1    0    0    0    0  0.00000000000E+00  0.00000000000E+00  0.45593999997E+02  0.45594000000E+02  0.51100000000E-03 0.  1.
         11   -1    0    0    0    0 -0.00000000000E+00 -0.00000000000E+00 -0.45593999997E+02  0.45594000000E+02  0.51100000000E-03 0. -1.
         23    2    1    2    0    0  0.00000000000E+00 -0.35527136788E-14  0.35527136788E-14  0.91188000000E+02  0.91188000000E+02 0.  0.
    9900012    2    3    3    0    0 -0.91945297406E+01 -0.16025453969E+02  0.31850104137E+02  0.54367031985E+02  0.39999881016E+02 0.  0.
         12    1    3    3    0    0  0.91945297406E+01  0.16025453969E+02 -0.31850104137E+02  0.36820968015E+02  0.00000000000E+00 0. -1.
         11    1    4    4    0    0  0.41223383851E+00  0.20371002762E+01 -0.44454228962E+00  0.21254016988E+01  0.51100000000E-03 0. -1.
        -11    1    4    4    0    0 -0.15578099374E+02 -0.71845787987E+01  0.35497786110E+02  0.39425729817E+02  0.51100000000E-03 0.  1.
        -12    1    4    4    0    0  0.59713357951E+01 -0.10877975447E+02 -0.32031396840E+01  0.12815900469E+02  0.00000000000E+00 0.  1.
</event>
<event>
 8    1  0.2509489E-006  0.9118800E+02  0.7816164E-02  0.1184000E+00
        -11   -1    0    0    0    0  0.00000000000E+00  0.00000000000E+00  0.45593999997E+02  0.45594000000E+02  0.51100000000E-03 0.  1.
         11   -1    0    0    0    0 -0.00000000000E+00 -0.00000000000E+00 -0.45593999997E+02  0.45594000000E+02  0.51100000000E-03 0. -1.
         23    2    1    2    0    0  0.17763568394E-14  0.00000000000E+00  0.00000000000E+00  0.91188000000E+02  0.91188000000E+02 0.  0.
    9900012    2    3    3    0    0  0.89976329478E+01 -0.18588886452E+02  0.30484036003E+02  0.54367074574E+02  0.39999978106E+02 0.  0.
         12    1    3    3    0    0 -0.89976329478E+01  0.18588886452E+02 -0.30484036003E+02  0.36820925426E+02  0.00000000000E+00 0. -1.
         11    1    4    4    0    0 -0.82079813939E+01 -0.10287030246E+02  0.27490642126E+01  0.13444378162E+02  0.51100000000E-03 0. -1.
        -11    1    4    4    0    0  0.10721949423E+02 -0.59626913322E+01 -0.77694738181E-01  0.12268656164E+02  0.51100000000E-03 0.  1.
        -12    1    4    4    0    0  0.64836649190E+01 -0.23391648735E+01  0.27812666529E+02  0.28654040248E+02  0.00000000000E+00 0.  1.
</event>
<event>
 8    1  0.2509489E-006  0.9118800E+02  0.7816164E-02  0.1184000E+00
        -11   -1    0    0    0    0  0.00000000000E+00  0.00000000000E+00  0.45593999997E+02  0.45594000000E+02  0.51100000000E-03 0.  1.
         11   -1    0    0    0    0 -0.00000000000E+00 -0.00000000000E+00 -0.45593999997E+02  0.45594000000E+02  0.51100000000E-03 0. -1.
         23    2    1    2    0    0  0.35527136788E-14  0.00000000000E+00  0.00000000000E+00  0.91188000000E+02  0.91188000000E+02 0.  0.
    9900012    2    3    3    0    0 -0.20355092229E+02  0.29691284119E+02  0.77380985506E+01  0.54367077939E+02  0.39999985778E+02 0.  0.
         12    1    3    3    0    0  0.20355092229E+02 -0.29691284119E+02 -0.77380985506E+01  0.36820922061E+02  0.00000000000E+00 0. -1.
         11    1    4    4    0    0 -0.28945022552E+01  0.19070393452E+01  0.29341659101E+01  0.45413954043E+01  0.51100000000E-03 0. -1.
        -11    1    4    4    0    0 -0.77848688646E+00 -0.37931844282E+01  0.12676855289E+02  0.13255072622E+02  0.51100000000E-03 0.  1.
         12    1    4    4    0    0 -0.16682103087E+02  0.31577429202E+02 -0.78729226481E+01  0.36570609913E+02  0.00000000000E+00 0. -1.
</event>
<event>
 8    1  0.2509489E-006  0.9118800E+02  0.7816164E-02  0.1184000E+00
        -11   -1    0    0    0    0  0.00000000000E+00  0.00000000000E+00  0.45593999997E+02  0.45594000000E+02  0.51100000000E-03 0.  1.
         11   -1    0    0    0    0 -0.00000000000E+00 -0.00000000000E+00 -0.45593999997E+02  0.45594000000E+02  0.51100000000E-03 0. -1.
         23    2    1    2    0    0 -0.17763568394E-14 -0.17763568394E-14  0.71054273576E-14  0.91188000000E+02  0.91188000000E+02 0.  0.
    9900012    2    3    3    0    0 -0.10395590738E+02 -0.14811654454E+02  0.32067528534E+02  0.54367084738E+02  0.40000001277E+02 0.  0.
         12    1    3    3    0    0  0.10395590738E+02  0.14811654454E+02 -0.32067528534E+02  0.36820915262E+02  0.00000000000E+00 0. -1.
         11    1    4    4    0    0 -0.14186181163E+02  0.10526531998E+01  0.20247112979E+02  0.24744724670E+02  0.51100000000E-03 0. -1.
        -11    1    4    4    0    0 -0.14686618040E+01  0.24555950591E+01  0.10085698970E+02  0.10483713014E+02  0.51100000000E-03 0.  1.
         12    1    4    4    0    0  0.52592522284E+01 -0.18319902713E+02  0.17347165846E+01  0.19138647054E+02  0.00000000000E+00 0. -1.
</event>
<event>
 8    1  0.2509489E-006  0.9118800E+02  0.7816164E-02  0.1184000E+00
        -11   -1    0    0    0    0  0.00000000000E+00  0.00000000000E+00  0.45593999997E+02  0.45594000000E+02  0.51100000000E-03 0. -1.
         11   -1    0    0    0    0 -0.00000000000E+00 -0.00000000000E+00 -0.45593999997E+02  0.45594000000E+02  0.51100000000E-03 0.  1.
         23    2    1    2    0    0  0.71054273576E-14  0.00000000000E+00  0.00000000000E+00  0.91188000000E+02  0.91188000000E+02 0.  0.
    9900012    2    3    3    0    0  0.27554825191E+02  0.17669312626E+02  0.16861351185E+02  0.54367106967E+02  0.40000051953E+02 0.  0.
        -12    1    3    3    0    0 -0.27554825191E+02 -0.17669312626E+02 -0.16861351185E+02  0.36820893033E+02  0.00000000000E+00 0.  1.
         11    1    4    4    0    0  0.34912248858E+02  0.49914798575E+01  0.11308123702E+02  0.37035842820E+02  0.51100000000E-03 0. -1.
        -11    1    4    4    0    0 -0.86072015419E+00  0.99828188435E+00 -0.16793888170E+01  0.21348894501E+01  0.51100000000E-03 0.  1.
         12    1    4    4    0    0 -0.64967035127E+01  0.11679550884E+02  0.72326163005E+01  0.15196374697E+02  0.00000000000E+00 0. -1.
</event>
<event>
 8    1  0.2509489E-006  0.9118800E+02  0.7816164E-02  0.1184000E+00
        -11   -1    0    0    0    0  0.00000000000E+00  0.00000000000E+00  0.45593999997E+02  0.45594000000E+02  0.51100000000E-03 0. -1.
         11   -1    0    0    0    0 -0.00000000000E+00 -0.00000000000E+00 -0.45593999997E+02  0.45594000000E+02  0.51100000000E-03 0.  1.
         23    2    1    2    0    0 -0.17763568394E-14  0.00000000000E+00  0.00000000000E+00  0.91188000000E+02  0.91188000000E+02 0.  0.
    9900012    2    3    3    0    0  0.42250773024E+01 -0.34170405610E+02  0.13050367164E+02  0.54367082292E+02  0.39999995700E+02 0.  0.
        -12    1    3    3    0    0 -0.42250773024E+01  0.34170405610E+02 -0.13050367164E+02  0.36820917708E+02  0.00000000000E+00 0.  1.
         11    1    4    4    0    0 -0.93672225202E+01 -0.28919149559E+02  0.14125739941E+01  0.30431191803E+02  0.51100000000E-03 0. -1.
        -11    1    4    4    0    0  0.24687417929E+01  0.34984287419E+01  0.83842534701E+01  0.94143186803E+01  0.51100000000E-03 0.  1.
         12    1    4    4    0    0  0.11123558030E+02 -0.87496847925E+01  0.32535397002E+01  0.14521571808E+02  0.00000000000E+00 0. -1.
</event>
<event>
 8    1  0.2509489E-006  0.9118800E+02  0.7816164E-02  0.1184000E+00
        -11   -1    0    0    0    0  0.00000000000E+00  0.00000000000E+00  0.45593999997E+02  0.45594000000E+02  0.51100000000E-03 0.  1.
         11   -1    0    0    0    0 -0.00000000000E+00 -0.00000000000E+00 -0.45593999997E+02  0.45594000000E+02  0.51100000000E-03 0. -1.
         23    2    1    2    0    0  0.35527136788E-14 -0.17763568394E-14  0.17763568394E-14  0.91188000000E+02  0.91188000000E+02 0.  0.
    9900012    2    3    3    0    0  0.31239450473E+02 -0.11311590048E+02  0.15872127195E+02  0.54367085332E+02  0.40000002632E+02 0.  0.
         12    1    3    3    0    0 -0.31239450473E+02  0.11311590048E+02 -0.15872127195E+02  0.36820914668E+02  0.00000000000E+00 0. -1.
         11    1    4    4    0    0  0.12627132184E+02 -0.18928623471E+01 -0.23364303313E+01  0.12980227349E+02  0.51100000000E-03 0. -1.
        -11    1    4    4    0    0  0.20991005968E+02 -0.17135342501E+02  0.19259120179E+02  0.33243886724E+02  0.51100000000E-03 0.  1.
         12    1    4    4    0    0 -0.23786876789E+01  0.77166148003E+01 -0.10505626532E+01  0.81429712598E+01  0.00000000000E+00 0. -1.
</event>
<event>
 8    1  0.2509489E-006  0.9118800E+02  0.7816164E-02  0.1184000E+00
        -11   -1    0    0    0    0  0.00000000000E+00  0.00000000000E+00  0.45593999997E+02  0.45594000000E+02  0.51100000000E-03 0. -1.
         11   -1    0    0    0    0 -0.00000000000E+00 -0.00000000000E+00 -0.45593999997E+02  0.45594000000E+02  0.51100000000E-03 0.  1.
         23    2    1    2    0    0  0.71054273576E-14  0.00000000000E+00  0.00000000000E+00  0.91188000000E+02  0.91188000000E+02 0.  0.
    9900012    2    3    3    0    0  0.28169880298E+02  0.22170417363E+02  0.84088796343E+01  0.54367098072E+02  0.40000031676E+02 0.  0.
         12    1    3    3    0    0 -0.28169880298E+02 -0.22170417363E+02 -0.84088796343E+01  0.36820901928E+02  0.00000000000E+00 0. -1.
         11    1    4    4    0    0  0.20760271409E+02  0.70802584215E+01  0.10018357411E+02  0.24114029397E+02  0.51100000000E-03 0. -1.
        -11    1    4    4    0    0  0.29486486776E+00 -0.55561389060E+00  0.96729159677E+01  0.96933459479E+01  0.51100000000E-03 0.  1.
        -12    1    4    4    0    0  0.71147440214E+01  0.15645772833E+02 -0.11282393745E+02  0.20559722728E+02  0.00000000000E+00 0.  1.
</event>
<event>
 8    1  0.2509489E-006  0.9118800E+02  0.7816164E-02  0.1184000E+00
        -11   -1    0    0    0    0  0.00000000000E+00  0.00000000000E+00  0.45593999997E+02  0.45594000000E+02  0.51100000000E-03 0.  1.
         11   -1    0    0    0    0 -0.00000000000E+00 -0.00000000000E+00 -0.45593999997E+02  0.45594000000E+02  0.51100000000E-03 0. -1.
         23    2    1    2    0    0  0.35527136788E-14 -0.35527136788E-14  0.71054273576E-14  0.91188000000E+02  0.91188000000E+02 0.  0.
    9900012    2    3    3    0    0 -0.19248067597E+02  0.21473724243E+02 -0.22894770752E+02  0.54367089272E+02  0.40000011613E+02 0.  0.
        -12    1    3    3    0    0  0.19248067597E+02 -0.21473724243E+02  0.22894770752E+02  0.36820910728E+02  0.00000000000E+00 0.  1.
         11    1    4    4    0    0  0.22585957937E+01  0.19171704076E+02  0.34187754663E+00  0.19307313968E+02  0.51100000000E-03 0. -1.
        -11    1    4    4    0    0 -0.19664176148E+01 -0.36053034170E+01  0.30665846283E-01  0.41068176999E+01  0.51100000000E-03 0.  1.
         12    1    4    4    0    0 -0.19540245776E+02  0.59073235839E+01 -0.23267314145E+02  0.30952957604E+02  0.00000000000E+00 0. -1.
</event>
<event>
 8    1  0.2509489E-006  0.9118800E+02  0.7816164E-02  0.1184000E+00
        -11   -1    0    0    0    0  0.00000000000E+00  0.00000000000E+00  0.45593999997E+02  0.45594000000E+02  0.51100000000E-03 0. -1.
         11   -1    0    0    0    0 -0.00000000000E+00 -0.00000000000E+00 -0.45593999997E+02  0.45594000000E+02  0.51100000000E-03 0.  1.
         23    2    1    2    0    0  0.00000000000E+00  0.00000000000E+00 -0.11102230246E-14  0.91188000000E+02  0.91188000000E+02 0.  0.
    9900012    2    3    3    0    0 -0.30156497495E+02 -0.21107733361E+02 -0.91110234050E+00  0.54367070404E+02  0.39999968600E+02 0.  0.
        -12    1    3    3    0    0  0.30156497495E+02  0.21107733361E+02  0.91110234050E+00  0.36820929596E+02  0.00000000000E+00 0.  1.
         11    1    4    4    0    0 -0.23525880923E+02 -0.14668479876E+00 -0.69506222653E+01  0.24531606955E+02  0.51100000000E-03 0. -1.
        -11    1    4    4    0    0 -0.16315957534E+01 -0.14071820149E+02 -0.57548455801E+01  0.15290404668E+02  0.51100000000E-03 0.  1.
         12    1    4    4    0    0 -0.49990208185E+01 -0.68892284133E+01  0.11794365505E+02  0.14545058781E+02  0.00000000000E+00 0. -1.
</event>
<event>
 8    1  0.2509489E-006  0.9118800E+02  0.7816164E-02  0.1184000E+00
        -11   -1    0    0    0    0  0.00000000000E+00  0.00000000000E+00  0.45593999997E+02  0.45594000000E+02  0.51100000000E-03 0.  1.
         11   -1    0    0    0    0 -0.00000000000E+00 -0.00000000000E+00 -0.45593999997E+02  0.45594000000E+02  0.51100000000E-03 0. -1.
         23    2    1    2    0    0  0.00000000000E+00 -0.35527136788E-14 -0.17763568394E-14  0.91188000000E+02  0.91188000000E+02 0.  0.
    9900012    2    3    3    0    0 -0.30277906224E+02 -0.18173928937E+02 -0.10427382589E+02  0.54367168859E+02  0.40000193047E+02 0.  0.
        -12    1    3    3    0    0  0.30277906224E+02  0.18173928937E+02  0.10427382589E+02  0.36820831141E+02  0.00000000000E+00 0.  1.
         11    1    4    4    0    0  0.63006171076E+00  0.79520514473E+00  0.36624645288E+01  0.38003915150E+01  0.51100000000E-03 0. -1.
        -11    1    4    4    0    0 -0.94134481362E+01  0.82418247227E+01 -0.92381922475E+01  0.15552648547E+02  0.51100000000E-03 0.  1.
         12    1    4    4    0    0 -0.21494519798E+02 -0.27210958804E+02 -0.48516548705E+01  0.35014128796E+02  0.00000000000E+00 0. -1.
</event>
<event>
 8    1  0.2509489E-006  0.9118800E+02  0.7816164E-02  0.1184000E+00
        -11   -1    0    0    0    0  0.00000000000E+00  0.00000000000E+00  0.45593999997E+02  0.45594000000E+02  0.51100000000E-03 0. -1.
         11   -1    0    0    0    0 -0.00000000000E+00 -0.00000000000E+00 -0.45593999997E+02  0.45594000000E+02  0.51100000000E-03 0.  1.
         23    2    1    2    0    0  0.00000000000E+00  0.35527136788E-14 -0.35527136788E-14  0.91188000000E+02  0.91188000000E+02 0.  0.
    9900012    2    3    3    0    0 -0.19999473090E+02  0.15858350442E+02  0.26538872029E+02  0.54367110125E+02  0.40000059152E+02 0.  0.
        -12    1    3    3    0    0  0.19999473090E+02 -0.15858350442E+02 -0.26538872029E+02  0.36820889875E+02  0.00000000000E+00 0.  1.
         11    1    4    4    0    0  0.60140055578E+00  0.93853768284E+00  0.10150732347E+02  0.10211753183E+02  0.51100000000E-03 0. -1.
        -11    1    4    4    0    0 -0.15613504124E+02 -0.98378040685E+00 -0.55537095609E+01  0.16600994701E+02  0.51100000000E-03 0.  1.
        -12    1    4    4    0    0 -0.49873695214E+01  0.15903593166E+02  0.21941849243E+02  0.27554362241E+02  0.00000000000E+00 0.  1.
</event>
<event>
 8    1  0.2509489E-006  0.9118800E+02  0.7816164E-02  0.1184000E+00
        -11   -1    0    0    0    0  0.00000000000E+00  0.00000000000E+00  0.45593999997E+02  0.45594000000E+02  0.51100000000E-03 0.  1.
         11   -1    0    0    0    0 -0.00000000000E+00 -0.00000000000E+00 -0.45593999997E+02  0.45594000000E+02  0.51100000000E-03 0. -1.
         23    2    1    2    0    0  0.17763568394E-14  0.00000000000E+00  0.00000000000E+00  0.91188000000E+02  0.91188000000E+02 0.  0.
    9900012    2    3    3    0    0 -0.10830599646E+02  0.23455697506E+02  0.26235638069E+02  0.54367077428E+02  0.39999984613E+02 0.  0.
         12    1    3    3    0    0  0.10830599646E+02 -0.23455697506E+02 -0.26235638069E+02  0.36820922572E+02  0.00000000000E+00 0. -1.
         11    1    4    4    0    0 -0.18406499025E+02  0.12865943759E+02  0.36873494639E+00  0.22460357987E+02  0.51100000000E-03 0. -1.
        -11    1    4    4    0    0  0.10742579679E+02  0.44801793922E+01  0.18209037875E+02  0.21611202793E+02  0.51100000000E-03 0.  1.
        -12    1    4    4    0    0 -0.31666802997E+01  0.61095743542E+01  0.76578652475E+01  0.10295516648E+02  0.00000000000E+00 0.  1.
</event>
<event>
 8    1  0.2509489E-006  0.9118800E+02  0.7816164E-02  0.1184000E+00
        -11   -1    0    0    0    0  0.00000000000E+00  0.00000000000E+00  0.45593999997E+02  0.45594000000E+02  0.51100000000E-03 0.  1.
         11   -1    0    0    0    0 -0.00000000000E+00 -0.00000000000E+00 -0.45593999997E+02  0.45594000000E+02  0.51100000000E-03 0. -1.
         23    2    1    2    0    0 -0.19845236565E-14  0.00000000000E+00  0.00000000000E+00  0.91188000000E+02  0.91188000000E+02 0.  0.
    9900012    2    3    3    0    0 -0.86396244429E-01  0.34523847260E+02  0.12801427203E+02  0.54367081592E+02  0.39999994106E+02 0.  0.
         12    1    3    3    0    0  0.86396244429E-01 -0.34523847260E+02 -0.12801427203E+02  0.36820918408E+02  0.00000000000E+00 0. -1.
         11    1    4    4    0    0 -0.24730936821E+01  0.73965605096E+01 -0.52631669088E+01  0.94088376489E+01  0.51100000000E-03 0. -1.
        -11    1    4    4    0    0  0.12365926642E+02  0.28515485219E+02  0.14119322547E+02  0.34138018519E+02  0.51100000000E-03 0.  1.
         12    1    4    4    0    0 -0.99792292047E+01 -0.13881984683E+01  0.39452715654E+01  0.10820225424E+02  0.00000000000E+00 0. -1.
</event>
<event>
 8    1  0.2509489E-006  0.9118800E+02  0.7816164E-02  0.1184000E+00
        -11   -1    0    0    0    0  0.00000000000E+00  0.00000000000E+00  0.45593999997E+02  0.45594000000E+02  0.51100000000E-03 0.  1.
         11   -1    0    0    0    0 -0.00000000000E+00 -0.00000000000E+00 -0.45593999997E+02  0.45594000000E+02  0.51100000000E-03 0. -1.
         23    2    1    2    0    0 -0.35527136788E-14  0.35527136788E-14  0.35527136788E-14  0.91188000000E+02  0.91188000000E+02 0.  0.
    9900012    2    3    3    0    0  0.22816033509E+02 -0.23407397030E+02 -0.16950004944E+02  0.54367078116E+02  0.39999986180E+02 0.  0.
        -12    1    3    3    0    0 -0.22816033509E+02  0.23407397030E+02  0.16950004944E+02  0.36820921884E+02  0.00000000000E+00 0.  1.
         11    1    4    4    0    0  0.14007139011E+01 -0.38467391610E+01 -0.57650067944E+01  0.70706934035E+01  0.51100000000E-03 0. -1.
        -11    1    4    4    0    0 -0.49384614285E+01 -0.16124701991E+02  0.30650411735E+01  0.17140271096E+02  0.51100000000E-03 0.  1.
         12    1    4    4    0    0  0.26353781037E+02 -0.34359558780E+01 -0.14250039323E+02  0.30156113616E+02  0.00000000000E+00 0. -1.
</event>
<event>
 8    1  0.2509489E-006  0.9118800E+02  0.7816164E-02  0.1184000E+00
        -11   -1    0    0    0    0  0.00000000000E+00  0.00000000000E+00  0.45593999997E+02  0.45594000000E+02  0.51100000000E-03 0.  1.
         11   -1    0    0    0    0 -0.00000000000E+00 -0.00000000000E+00 -0.45593999997E+02  0.45594000000E+02  0.51100000000E-03 0. -1.
         23    2    1    2    0    0  0.00000000000E+00  0.00000000000E+00  0.35527136788E-14  0.91188000000E+02  0.91188000000E+02 0.  0.
    9900012    2    3    3    0    0 -0.27061121086E+01 -0.21182104647E+02 -0.29996213947E+02  0.54367116643E+02  0.40000074011E+02 0.  0.
        -12    1    3    3    0    0  0.27061121086E+01  0.21182104647E+02  0.29996213947E+02  0.36820883357E+02  0.00000000000E+00 0.  1.
         11    1    4    4    0    0 -0.64325996147E+00 -0.19879584804E+02 -0.34344171983E+02  0.39687955664E+02  0.51100000000E-03 0. -1.
        -11    1    4    4    0    0 -0.14502262733E+01 -0.73219019942E+01  0.43290032903E+01  0.86286542870E+01  0.51100000000E-03 0.  1.
         12    1    4    4    0    0 -0.61262587382E+00  0.60193821512E+01  0.18954745426E-01  0.60505066916E+01  0.00000000000E+00 0. -1.
</event>
<event>
 8    1  0.2509489E-006  0.9118800E+02  0.7816164E-02  0.1184000E+00
        -11   -1    0    0    0    0  0.00000000000E+00  0.00000000000E+00  0.45593999997E+02  0.45594000000E+02  0.51100000000E-03 0. -1.
         11   -1    0    0    0    0 -0.00000000000E+00 -0.00000000000E+00 -0.45593999997E+02  0.45594000000E+02  0.51100000000E-03 0.  1.
         23    2    1    2    0    0  0.35527136788E-14  0.00000000000E+00  0.00000000000E+00  0.91188000000E+02  0.91188000000E+02 0.  0.
    9900012    2    3    3    0    0 -0.27769100906E+02  0.17699421801E+02  0.16473848120E+02  0.54367079736E+02  0.39999989874E+02 0.  0.
        -12    1    3    3    0    0  0.27769100906E+02 -0.17699421801E+02 -0.16473848120E+02  0.36820920264E+02  0.00000000000E+00 0.  1.
         11    1    4    4    0    0 -0.17469808309E+02 -0.27135415542E+01  0.11942008697E+01  0.17719583124E+02  0.51100000000E-03 0. -1.
        -11    1    4    4    0    0 -0.12463641132E+02  0.30640143943E+01  0.14185215106E+02  0.19129842193E+02  0.51100000000E-03 0.  1.
        -12    1    4    4    0    0  0.21643485352E+01  0.17348948961E+02  0.10944321450E+01  0.17517654419E+02  0.00000000000E+00 0.  1.
</event>
<event>
 8    1  0.2509489E-006  0.9118800E+02  0.7816164E-02  0.1184000E+00
        -11   -1    0    0    0    0  0.00000000000E+00  0.00000000000E+00  0.45593999997E+02  0.45594000000E+02  0.51100000000E-03 0.  1.
         11   -1    0    0    0    0 -0.00000000000E+00 -0.00000000000E+00 -0.45593999997E+02  0.45594000000E+02  0.51100000000E-03 0. -1.
         23    2    1    2    0    0  0.00000000000E+00  0.00000000000E+00 -0.35527136788E-14  0.91188000000E+02  0.91188000000E+02 0.  0.
    9900012    2    3    3    0    0  0.21336658967E+02  0.16993096200E+02  0.24733812618E+02  0.54367084464E+02  0.40000000651E+02 0.  0.
         12    1    3    3    0    0 -0.21336658967E+02 -0.16993096200E+02 -0.24733812618E+02  0.36820915536E+02  0.00000000000E+00 0. -1.
         11    1    4    4    0    0  0.88900769202E+00  0.14542291273E+02 -0.22625958643E+01  0.14744080522E+02  0.51100000000E-03 0. -1.
        -11    1    4    4    0    0  0.15722851696E+02 -0.76554813065E+01  0.13374589177E+02  0.22015769244E+02  0.51100000000E-03 0.  1.
         12    1    4    4    0    0  0.47247995784E+01  0.10106286234E+02  0.13621819305E+02  0.17607234697E+02  0.00000000000E+00 0. -1.
</event>
<event>
 8    1  0.2509489E-006  0.9118800E+02  0.7816164E-02  0.1184000E+00
        -11   -1    0    0    0    0  0.00000000000E+00  0.00000000000E+00  0.45593999997E+02  0.45594000000E+02  0.51100000000E-03 0.  1.
         11   -1    0    0    0    0 -0.00000000000E+00 -0.00000000000E+00 -0.45593999997E+02  0.45594000000E+02  0.51100000000E-03 0. -1.
         23    2    1    2    0    0 -0.35527136788E-14  0.17763568394E-14  0.00000000000E+00  0.91188000000E+02  0.91188000000E+02 0.  0.
    9900012    2    3    3    0    0 -0.23607434701E+02  0.12015114499E+02  0.25575509314E+02  0.54367073528E+02  0.39999975721E+02 0.  0.
        -12    1    3    3    0    0  0.23607434701E+02 -0.12015114499E+02 -0.25575509314E+02  0.36820926472E+02  0.00000000000E+00 0.  1.
         11    1    4    4    0    0 -0.10614478755E+02  0.75622192992E+01 -0.13303331552E+01  0.13100538407E+02  0.51100000000E-03 0. -1.
        -11    1    4    4    0    0 -0.12042050264E+01 -0.65667065731E+01 -0.29731582993E+01  0.73083113984E+01  0.51100000000E-03 0.  1.
         12    1    4    4    0    0 -0.11788750920E+02  0.11019601773E+02  0.29879000769E+02  0.33958223723E+02  0.00000000000E+00 0. -1.
</event>
<event>
 8    1  0.2509489E-006  0.9118800E+02  0.7816164E-02  0.1184000E+00
        -11   -1    0    0    0    0  0.00000000000E+00  0.00000000000E+00  0.45593999997E+02  0.45594000000E+02  0.51100000000E-03 0. -1.
         11   -1    0    0    0    0 -0.00000000000E+00 -0.00000000000E+00 -0.45593999997E+02  0.45594000000E+02  0.51100000000E-03 0.  1.
         23    2    1    2    0    0 -0.35527136788E-14  0.00000000000E+00  0.35527136788E-14  0.91188000000E+02  0.91188000000E+02 0.  0.
    9900012    2    3    3    0    0 -0.16313684886E+02  0.89443858998E+01  0.31774871012E+02  0.54367071420E+02  0.39999970915E+02 0.  0.
        -12    1    3    3    0    0  0.16313684886E+02 -0.89443858998E+01 -0.31774871012E+02  0.36820928580E+02  0.00000000000E+00 0.  1.
         11    1    4    4    0    0  0.75939512872E+01  0.54646856869E+01  0.22794417351E+02  0.24639731095E+02  0.51100000000E-03 0. -1.
        -11    1    4    4    0    0 -0.13535868531E+00  0.25870225901E+01 -0.22402104737E+01  0.34248432202E+01  0.51100000000E-03 0.  1.
        -12    1    4    4    0    0 -0.23772277488E+02  0.89267762280E+00  0.11220664135E+02  0.26302497105E+02  0.00000000000E+00 0.  1.
</event>
<event>
 8    1  0.2509489E-006  0.9118800E+02  0.7816164E-02  0.1184000E+00
        -11   -1    0    0    0    0  0.00000000000E+00  0.00000000000E+00  0.45593999997E+02  0.45594000000E+02  0.51100000000E-03 0.  1.
         11   -1    0    0    0    0 -0.00000000000E+00 -0.00000000000E+00 -0.45593999997E+02  0.45594000000E+02  0.51100000000E-03 0. -1.
         23    2    1    2    0    0  0.88817841970E-15  0.00000000000E+00  0.55511151231E-15  0.91188000000E+02  0.91188000000E+02 0.  0.
    9900012    2    3    3    0    0  0.78668378767E+01  0.35966315789E+02  0.56567192551E+00  0.54367041371E+02  0.39999902413E+02 0.  0.
         12    1    3    3    0    0 -0.78668378767E+01 -0.35966315789E+02 -0.56567192551E+00  0.36820958629E+02  0.00000000000E+00 0. -1.
         11    1    4    4    0    0  0.37931650989E+01 -0.25724760222E+01 -0.11946423739E+02  0.12795420070E+02  0.51100000000E-03 0. -1.
        -11    1    4    4    0    0 -0.46094003166E+00  0.15246849528E+02  0.86331814527E+01  0.17527427321E+02  0.51100000000E-03 0.  1.
         12    1    4    4    0    0  0.45346128094E+01  0.23291942284E+02  0.38789142117E+01  0.24044193980E+02  0.00000000000E+00 0. -1.
</event>
<event>
 8    1  0.2509489E-006  0.9118800E+02  0.7816164E-02  0.1184000E+00
        -11   -1    0    0    0    0  0.00000000000E+00  0.00000000000E+00  0.45593999997E+02  0.45594000000E+02  0.51100000000E-03 0.  1.
         11   -1    0    0    0    0 -0.00000000000E+00 -0.00000000000E+00 -0.45593999997E+02  0.45594000000E+02  0.51100000000E-03 0. -1.
         23    2    1    2    0    0  0.00000000000E+00  0.00000000000E+00  0.00000000000E+00  0.91188000000E+02  0.91188000000E+02 0.  0.
    9900012    2    3    3    0    0  0.75655484727E+01  0.22728488588E+02  0.27963514340E+02  0.54367084049E+02  0.39999999707E+02 0.  0.
         12    1    3    3    0    0 -0.75655484727E+01 -0.22728488588E+02 -0.27963514340E+02  0.36820915951E+02  0.00000000000E+00 0. -1.
         11    1    4    4    0    0  0.54623402803E+00  0.22824525806E+02  0.21118448195E+02  0.31100582057E+02  0.51100000000E-03 0. -1.
        -11    1    4    4    0    0  0.11705038931E+02  0.27891189471E+01  0.11053359801E+02  0.16339029470E+02  0.51100000000E-03 0.  1.
        -12    1    4    4    0    0 -0.46857244861E+01 -0.28851561648E+01 -0.42082936557E+01  0.69274725223E+01  0.00000000000E+00 0.  1.
</event>
<event>
 8    1  0.2509489E-006  0.9118800E+02  0.7816164E-02  0.1184000E+00
        -11   -1    0    0    0    0  0.00000000000E+00  0.00000000000E+00  0.45593999997E+02  0.45594000000E+02  0.51100000000E-03 0.  1.
         11   -1    0    0    0    0 -0.00000000000E+00 -0.00000000000E+00 -0.45593999997E+02  0.45594000000E+02  0.51100000000E-03 0. -1.
         23    2    1    2    0    0 -0.71054273576E-14  0.00000000000E+00 -0.88817841970E-15  0.91188000000E+02  0.91188000000E+02 0.  0.
    9900012    2    3    3    0    0 -0.25236227381E+02 -0.26666162955E+02  0.27978179618E+01  0.54367092834E+02  0.40000019734E+02 0.  0.
         12    1    3    3    0    0  0.25236227381E+02  0.26666162955E+02 -0.27978179618E+01  0.36820907166E+02  0.00000000000E+00 0. -1.
         11    1    4    4    0    0 -0.60549892055E+01 -0.73856999775E+01  0.90963145390E+01  0.13189177264E+02  0.51100000000E-03 0. -1.
        -11    1    4    4    0    0 -0.11471082521E+02  0.68813883971E+01 -0.11936183444E+01  0.13429965208E+02  0.51100000000E-03 0.  1.
         12    1    4    4    0    0 -0.77101556546E+01 -0.26161851375E+02 -0.51048782328E+01  0.27747950363E+02  0.00000000000E+00 0. -1.
</event>
<event>
 8    1  0.2509489E-006  0.9118800E+02  0.7816164E-02  0.1184000E+00
        -11   -1    0    0    0    0  0.00000000000E+00  0.00000000000E+00  0.45593999997E+02  0.45594000000E+02  0.51100000000E-03 0. -1.
         11   -1    0    0    0    0 -0.00000000000E+00 -0.00000000000E+00 -0.45593999997E+02  0.45594000000E+02  0.51100000000E-03 0.  1.
         23    2    1    2    0    0  0.00000000000E+00  0.00000000000E+00  0.97144514655E-15  0.91188000000E+02  0.91188000000E+02 0.  0.
    9900012    2    3    3    0    0 -0.32122851938E+02  0.17997050702E+02 -0.90576303536E-01  0.54367086721E+02  0.40000005799E+02 0.  0.
         12    1    3    3    0    0  0.32122851938E+02 -0.17997050702E+02  0.90576303536E-01  0.36820913279E+02  0.00000000000E+00 0. -1.
         11    1    4    4    0    0 -0.58924080518E+01  0.12310623191E+02  0.11679708593E+02  0.17963504922E+02  0.51100000000E-03 0. -1.
        -11    1    4    4    0    0 -0.29592471597E+02  0.68977332352E+01 -0.12319283485E+02  0.32788074735E+02  0.51100000000E-03 0.  1.
         12    1    4    4    0    0  0.33620277103E+01 -0.12113057246E+01  0.54899858869E+00  0.36155070646E+01  0.00000000000E+00 0. -1.
</event>
<event>
 8    1  0.2509489E-006  0.9118800E+02  0.7816164E-02  0.1184000E+00
        -11   -1    0    0    0    0  0.00000000000E+00  0.00000000000E+00  0.45593999997E+02  0.45594000000E+02  0.51100000000E-03 0. -1.
         11   -1    0    0    0    0 -0.00000000000E+00 -0.00000000000E+00 -0.45593999997E+02  0.45594000000E+02  0.51100000000E-03 0.  1.
         23    2    1    2    0    0 -0.17763568394E-14 -0.88817841970E-15  0.00000000000E+00  0.91188000000E+02  0.91188000000E+02 0.  0.
    9900012    2    3    3    0    0 -0.14906067593E+02 -0.58951555930E+01  0.33148766979E+02  0.54367021431E+02  0.39999856956E+02 0.  0.
        -12    1    3    3    0    0  0.14906067593E+02  0.58951555930E+01 -0.33148766979E+02  0.36820978569E+02  0.00000000000E+00 0.  1.
         11    1    4    4    0    0 -0.18270427350E+02  0.38568216938E+01  0.28303683807E+02  0.33908437098E+02  0.51100000000E-03 0. -1.
        -11    1    4    4    0    0  0.96821413715E+00 -0.12972328311E+01 -0.61635841765E+01  0.63725992966E+01  0.51100000000E-03 0.  1.
         12    1    4    4    0    0  0.23961456200E+01 -0.84547444557E+01  0.11008667348E+02  0.14085985036E+02  0.00000000000E+00 0. -1.
</event>
<event>
 8    1  0.2509489E-006  0.9118800E+02  0.7816164E-02  0.1184000E+00
        -11   -1    0    0    0    0  0.00000000000E+00  0.00000000000E+00  0.45593999997E+02  0.45594000000E+02  0.51100000000E-03 0.  1.
         11   -1    0    0    0    0 -0.00000000000E+00 -0.00000000000E+00 -0.45593999997E+02  0.45594000000E+02  0.51100000000E-03 0. -1.
         23    2    1    2    0    0 -0.35527136788E-14  0.35527136788E-14  0.00000000000E+00  0.91188000000E+02  0.91188000000E+02 0.  0.
    9900012    2    3    3    0    0 -0.24981319997E+02  0.26568323914E+02 -0.50830071960E+01  0.54367093621E+02  0.40000021528E+02 0.  0.
        -12    1    3    3    0    0  0.24981319997E+02 -0.26568323914E+02  0.50830071960E+01  0.36820906379E+02  0.00000000000E+00 0.  1.
         11    1    4    4    0    0 -0.29120758865E+01  0.54441550023E+01 -0.11458122680E+02  0.13015666916E+02  0.51100000000E-03 0. -1.
        -11    1    4    4    0    0 -0.79512346308E+01  0.71432049427E+01 -0.10721448916E+02  0.15139252826E+02  0.51100000000E-03 0.  1.
        -12    1    4    4    0    0 -0.14118009480E+02  0.13980963969E+02  0.17096564400E+02  0.26212173879E+02  0.00000000000E+00 0.  1.
</event>
<event>
 8    1  0.2509489E-006  0.9118800E+02  0.7816164E-02  0.1184000E+00
        -11   -1    0    0    0    0  0.00000000000E+00  0.00000000000E+00  0.45593999997E+02  0.45594000000E+02  0.51100000000E-03 0. -1.
         11   -1    0    0    0    0 -0.00000000000E+00 -0.00000000000E+00 -0.45593999997E+02  0.45594000000E+02  0.51100000000E-03 0.  1.
         23    2    1    2    0    0  0.71054273576E-14  0.00000000000E+00 -0.17763568394E-14  0.91188000000E+02  0.91188000000E+02 0.  0.
    9900012    2    3    3    0    0  0.30690870282E+02  0.19819205331E+02 -0.45879391311E+01  0.54367087408E+02  0.40000007365E+02 0.  0.
        -12    1    3    3    0    0 -0.30690870282E+02 -0.19819205331E+02  0.45879391311E+01  0.36820912592E+02  0.00000000000E+00 0.  1.
         11    1    4    4    0    0 -0.64789416304E+01  0.29708350799E+01  0.75996529966E+01  0.10419082093E+02  0.51100000000E-03 0. -1.
        -11    1    4    4    0    0  0.38131857115E+01 -0.14686967971E+01 -0.20194234601E+01  0.45580178723E+01  0.51100000000E-03 0.  1.
         12    1    4    4    0    0  0.33356626201E+02  0.18317067048E+02 -0.10168168668E+02  0.39389987443E+02  0.00000000000E+00 0. -1.
</event>
<event>
 8    1  0.2509489E-006  0.9118800E+02  0.7816164E-02  0.1184000E+00
        -11   -1    0    0    0    0  0.00000000000E+00  0.00000000000E+00  0.45593999997E+02  0.45594000000E+02  0.51100000000E-03 0.  1.
         11   -1    0    0    0    0 -0.00000000000E+00 -0.00000000000E+00 -0.45593999997E+02  0.45594000000E+02  0.51100000000E-03 0. -1.
         23    2    1    2    0    0  0.00000000000E+00  0.55511151231E-16  0.00000000000E+00  0.91188000000E+02  0.91188000000E+02 0.  0.
    9900012    2    3    3    0    0  0.36619338909E+02 -0.25170351509E+00 -0.38395186687E+01  0.54367065188E+02  0.39999956710E+02 0.  0.
         12    1    3    3    0    0 -0.36619338909E+02  0.25170351509E+00  0.38395186687E+01  0.36820934812E+02  0.00000000000E+00 0. -1.
         11    1    4    4    0    0  0.18256378764E+02 -0.38550330207E+01 -0.34476296583E+00  0.18662141006E+02  0.51100000000E-03 0. -1.
        -11    1    4    4    0    0  0.15985162406E+02  0.27029841093E+01  0.11894227674E+02  0.20107316889E+02  0.51100000000E-03 0.  1.
         12    1    4    4    0    0  0.23777977397E+01  0.90034539633E+00 -0.15388983377E+02  0.15597607294E+02  0.00000000000E+00 0. -1.
</event>
<event>
 8    1  0.2509489E-006  0.9118800E+02  0.7816164E-02  0.1184000E+00
        -11   -1    0    0    0    0  0.00000000000E+00  0.00000000000E+00  0.45593999997E+02  0.45594000000E+02  0.51100000000E-03 0.  1.
         11   -1    0    0    0    0 -0.00000000000E+00 -0.00000000000E+00 -0.45593999997E+02  0.45594000000E+02  0.51100000000E-03 0. -1.
         23    2    1    2    0    0  0.00000000000E+00  0.35527136788E-14  0.00000000000E+00  0.91188000000E+02  0.91188000000E+02 0.  0.
    9900012    2    3    3    0    0 -0.20288592129E+02  0.30629330217E+02  0.24476183447E+01  0.54367167912E+02  0.40000190888E+02 0.  0.
         12    1    3    3    0    0  0.20288592129E+02 -0.30629330217E+02 -0.24476183447E+01  0.36820832088E+02  0.00000000000E+00 0. -1.
         11    1    4    4    0    0 -0.56837632688E+01  0.28526968533E+01 -0.57960270455E+01  0.86044740691E+01  0.51100000000E-03 0. -1.
        -11    1    4    4    0    0 -0.19993086299E+02  0.30441025943E+02  0.12379842399E+02  0.38466089719E+02  0.51100000000E-03 0.  1.
         12    1    4    4    0    0  0.53882574382E+01 -0.26643925792E+01 -0.41361970090E+01  0.72966041234E+01  0.00000000000E+00 0. -1.
</event>
<event>
 8    1  0.2509489E-006  0.9118800E+02  0.7816164E-02  0.1184000E+00
        -11   -1    0    0    0    0  0.00000000000E+00  0.00000000000E+00  0.45593999997E+02  0.45594000000E+02  0.51100000000E-03 0.  1.
         11   -1    0    0    0    0 -0.00000000000E+00 -0.00000000000E+00 -0.45593999997E+02  0.45594000000E+02  0.51100000000E-03 0. -1.
         23    2    1    2    0    0 -0.17763568394E-14  0.00000000000E+00  0.00000000000E+00  0.91188000000E+02  0.91188000000E+02 0.  0.
    9900012    2    3    3    0    0  0.11268800425E+02 -0.99345451912E+01 -0.33616924910E+02  0.54367099800E+02  0.40000035613E+02 0.  0.
        -12    1    3    3    0    0 -0.11268800425E+02  0.99345451912E+01  0.33616924910E+02  0.36820900200E+02  0.00000000000E+00 0.  1.
         11    1    4    4    0    0  0.62524910611E+01  0.56971415276E+01 -0.14518251244E+02  0.16802698756E+02  0.51100000000E-03 0. -1.
        -11    1    4    4    0    0 -0.30254863689E+01  0.52008825790E+01  0.24829747842E+01  0.65090637890E+01  0.51100000000E-03 0.  1.
        -12    1    4    4    0    0  0.80417957323E+01 -0.20832569298E+02 -0.21581648450E+02  0.31055337254E+02  0.00000000000E+00 0.  1.
</event>
<event>
 8    1  0.2509489E-006  0.9118800E+02  0.7816164E-02  0.1184000E+00
        -11   -1    0    0    0    0  0.00000000000E+00  0.00000000000E+00  0.45593999997E+02  0.45594000000E+02  0.51100000000E-03 0. -1.
         11   -1    0    0    0    0 -0.00000000000E+00 -0.00000000000E+00 -0.45593999997E+02  0.45594000000E+02  0.51100000000E-03 0.  1.
         23    2    1    2    0    0  0.00000000000E+00  0.00000000000E+00  0.00000000000E+00  0.91188000000E+02  0.91188000000E+02 0.  0.
    9900012    2    3    3    0    0 -0.33606513851E+01  0.28229040284E+02  0.23401000320E+02  0.54367088698E+02  0.40000010306E+02 0.  0.
        -12    1    3    3    0    0  0.33606513851E+01 -0.28229040284E+02 -0.23401000320E+02  0.36820911302E+02  0.00000000000E+00 0.  1.
         11    1    4    4    0    0 -0.31040927816E+01  0.19000940067E+02  0.21167049053E+01  0.19368829478E+02  0.51100000000E-03 0. -1.
        -11    1    4    4    0    0  0.47827895366E+01 -0.18901788843E+01 -0.42659133812E+01  0.66817564459E+01  0.51100000000E-03 0.  1.
         12    1    4    4    0    0 -0.50393481401E+01  0.11118279102E+02  0.25550208796E+02  0.28316502774E+02  0.00000000000E+00 0. -1.
</event>
<event>
 8    1  0.2509489E-006  0.9118800E+02  0.7816164E-02  0.1184000E+00
        -11   -1    0    0    0    0  0.00000000000E+00  0.00000000000E+00  0.45593999997E+02  0.45594000000E+02  0.51100000000E-03 0.  1.
         11   -1    0    0    0    0 -0.00000000000E+00 -0.00000000000E+00 -0.45593999997E+02  0.45594000000E+02  0.51100000000E-03 0. -1.
         23    2    1    2    0    0  0.00000000000E+00 -0.88817841970E-15  0.00000000000E+00  0.91188000000E+02  0.91188000000E+02 0.  0.
    9900012    2    3    3    0    0  0.12083425187E+02 -0.65586071422E+01  0.34157809578E+02  0.54367075961E+02  0.39999981269E+02 0.  0.
         12    1    3    3    0    0 -0.12083425187E+02  0.65586071422E+01 -0.34157809578E+02  0.36820924039E+02  0.00000000000E+00 0. -1.
         11    1    4    4    0    0  0.12702362806E+02  0.66212883135E+01  0.12081519531E+02  0.18739119355E+02  0.51100000000E-03 0. -1.
        -11    1    4    4    0    0 -0.64058232726E+01  0.44956057969E+01  0.16407981330E+01  0.79960779170E+01  0.51100000000E-03 0.  1.
         12    1    4    4    0    0  0.57868856534E+01 -0.17675501253E+02  0.20435491914E+02  0.27631878689E+02  0.00000000000E+00 0. -1.
</event>
<event>
 8    1  0.2509489E-006  0.9118800E+02  0.7816164E-02  0.1184000E+00
        -11   -1    0    0    0    0  0.00000000000E+00  0.00000000000E+00  0.45593999997E+02  0.45594000000E+02  0.51100000000E-03 0.  1.
         11   -1    0    0    0    0 -0.00000000000E+00 -0.00000000000E+00 -0.45593999997E+02  0.45594000000E+02  0.51100000000E-03 0. -1.
         23    2    1    2    0    0  0.00000000000E+00  0.00000000000E+00  0.17763568394E-14  0.91188000000E+02  0.91188000000E+02 0.  0.
    9900012    2    3    3    0    0  0.25046964505E+02 -0.25593215750E+02  0.85683143071E+01  0.54367093800E+02  0.40000021935E+02 0.  0.
         12    1    3    3    0    0 -0.25046964505E+02  0.25593215750E+02 -0.85683143071E+01  0.36820906200E+02  0.00000000000E+00 0. -1.
         11    1    4    4    0    0  0.36847205761E+01  0.55560149234E+01  0.37188193930E+01  0.76338774874E+01  0.51100000000E-03 0. -1.
        -11    1    4    4    0    0  0.11417626025E+02 -0.10414515542E+02 -0.10855792843E+02  0.18885776567E+02  0.51100000000E-03 0.  1.
        -12    1    4    4    0    0  0.99446179037E+01 -0.20734715131E+02  0.15705287757E+02  0.27847439745E+02  0.00000000000E+00 0.  1.
</event>
<event>
 8    1  0.2509489E-006  0.9118800E+02  0.7816164E-02  0.1184000E+00
        -11   -1    0    0    0    0  0.00000000000E+00  0.00000000000E+00  0.45593999997E+02  0.45594000000E+02  0.51100000000E-03 0. -1.
         11   -1    0    0    0    0 -0.00000000000E+00 -0.00000000000E+00 -0.45593999997E+02  0.45594000000E+02  0.51100000000E-03 0.  1.
         23    2    1    2    0    0  0.00000000000E+00  0.35527136788E-14  0.00000000000E+00  0.91188000000E+02  0.91188000000E+02 0.  0.
    9900012    2    3    3    0    0 -0.18355408681E+02 -0.25294941966E+02  0.19468550761E+02  0.54367087658E+02  0.40000007935E+02 0.  0.
         12    1    3    3    0    0  0.18355408681E+02  0.25294941966E+02 -0.19468550761E+02  0.36820912342E+02  0.00000000000E+00 0. -1.
         11    1    4    4    0    0  0.46874935829E+01  0.19426846619E+01  0.84285722813E+01  0.98380613307E+01  0.51100000000E-03 0. -1.
        -11    1    4    4    0    0 -0.14798929705E+02 -0.26577822874E+02  0.16511666351E+02  0.34612484960E+02  0.51100000000E-03 0.  1.
         12    1    4    4    0    0 -0.82439725591E+01 -0.65980375382E+00 -0.54716878704E+01  0.99165413678E+01  0.00000000000E+00 0. -1.
</event>
<event>
 8    1  0.2509489E-006  0.9118800E+02  0.7816164E-02  0.1184000E+00
        -11   -1    0    0    0    0  0.00000000000E+00  0.00000000000E+00  0.45593999997E+02  0.45594000000E+02  0.51100000000E-03 0. -1.
         11   -1    0    0    0    0 -0.00000000000E+00 -0.00000000000E+00 -0.45593999997E+02  0.45594000000E+02  0.51100000000E-03 0.  1.
         23    2    1    2    0    0  0.00000000000E+00  0.71054273576E-14 -0.11102230246E-14  0.91188000000E+02  0.91188000000E+02 0.  0.
    9900012    2    3    3    0    0  0.16473933971E+02  0.32895853996E+02 -0.15007983805E+01  0.54367080587E+02  0.39999991814E+02 0.  0.
         12    1    3    3    0    0 -0.16473933971E+02 -0.32895853996E+02  0.15007983805E+01  0.36820919413E+02  0.00000000000E+00 0. -1.
         11    1    4    4    0    0  0.88202066862E+00 -0.28952283480E+01  0.50961438651E+01  0.59271401369E+01  0.51100000000E-03 0. -1.
        -11    1    4    4    0    0  0.21065433303E+02  0.15631583022E+02 -0.82152990718E+01  0.27487997511E+02  0.51100000000E-03 0.  1.
        -12    1    4    4    0    0 -0.54735200006E+01  0.20159499322E+02  0.16183568261E+01  0.20951942939E+02  0.00000000000E+00 0.  1.
</event>
<event>
 8    1  0.2509489E-006  0.9118800E+02  0.7816164E-02  0.1184000E+00
        -11   -1    0    0    0    0  0.00000000000E+00  0.00000000000E+00  0.45593999997E+02  0.45594000000E+02  0.51100000000E-03 0.  1.
         11   -1    0    0    0    0 -0.00000000000E+00 -0.00000000000E+00 -0.45593999997E+02  0.45594000000E+02  0.51100000000E-03 0. -1.
         23    2    1    2    0    0  0.00000000000E+00  0.00000000000E+00  0.35527136788E-14  0.91188000000E+02  0.91188000000E+02 0.  0.
    9900012    2    3    3    0    0  0.49739237500E+01  0.21784543526E+02  0.29265582560E+02  0.54367074201E+02  0.39999977257E+02 0.  0.
         12    1    3    3    0    0 -0.49739237500E+01 -0.21784543526E+02 -0.29265582560E+02  0.36820925799E+02  0.00000000000E+00 0. -1.
         11    1    4    4    0    0 -0.21152064368E+01 -0.58272218204E+01  0.14151312369E+02  0.15449603698E+02  0.51100000000E-03 0. -1.
        -11    1    4    4    0    0 -0.33793328709E+01  0.90166454990E+01 -0.38488582447E+01  0.10369835908E+02  0.51100000000E-03 0.  1.
        -12    1    4    4    0    0  0.10468463058E+02  0.18595119847E+02  0.18963128436E+02  0.28547634596E+02  0.00000000000E+00 0.  1.
</event>
<event>
 8    1  0.2509489E-006  0.9118800E+02  0.7816164E-02  0.1184000E+00
        -11   -1    0    0    0    0  0.00000000000E+00  0.00000000000E+00  0.45593999997E+02  0.45594000000E+02  0.51100000000E-03 0. -1.
         11   -1    0    0    0    0 -0.00000000000E+00 -0.00000000000E+00 -0.45593999997E+02  0.45594000000E+02  0.51100000000E-03 0.  1.
         23    2    1    2    0    0  0.00000000000E+00  0.35527136788E-14  0.71054273576E-14  0.91188000000E+02  0.91188000000E+02 0.  0.
    9900012    2    3    3    0    0 -0.10870152128E+02 -0.28519209630E+02 -0.20597937708E+02  0.54367074387E+02  0.39999977679E+02 0.  0.
        -12    1    3    3    0    0  0.10870152128E+02  0.28519209630E+02  0.20597937708E+02  0.36820925613E+02  0.00000000000E+00 0.  1.
         11    1    4    4    0    0 -0.13804026889E+02 -0.18970711790E+01  0.50042381873E+01  0.14805149020E+02  0.51100000000E-03 0. -1.
        -11    1    4    4    0    0  0.63655109816E+01 -0.49404448899E+01 -0.86910681633E+01  0.11851683081E+02  0.51100000000E-03 0.  1.
         12    1    4    4    0    0 -0.34316362208E+01 -0.21681693561E+02 -0.16911107732E+02  0.27710242286E+02  0.00000000000E+00 0. -1.
</event>
<event>
 8    1  0.2509489E-006  0.9118800E+02  0.7816164E-02  0.1184000E+00
        -11   -1    0    0    0    0  0.00000000000E+00  0.00000000000E+00  0.45593999997E+02  0.45594000000E+02  0.51100000000E-03 0. -1.
         11   -1    0    0    0    0 -0.00000000000E+00 -0.00000000000E+00 -0.45593999997E+02  0.45594000000E+02  0.51100000000E-03 0.  1.
         23    2    1    2    0    0  0.35527136788E-14 -0.88817841970E-15 -0.10658141036E-13  0.91188000000E+02  0.91188000000E+02 0.  0.
    9900012    2    3    3    0    0  0.16630482986E+02 -0.75706747888E+01 -0.31967021199E+02  0.54367102055E+02  0.40000040756E+02 0.  0.
         12    1    3    3    0    0 -0.16630482986E+02  0.75706747888E+01  0.31967021199E+02  0.36820897945E+02  0.00000000000E+00 0. -1.
         11    1    4    4    0    0  0.31742143137E+01 -0.69109515906E+01  0.31605510620E+01  0.82356524741E+01  0.51100000000E-03 0. -1.
        -11    1    4    4    0    0  0.10487997649E+02  0.15405642346E+00  0.37488926756E+00  0.10495826327E+02  0.51100000000E-03 0.  1.
        -12    1    4    4    0    0  0.29682710236E+01 -0.81377962166E+00 -0.35502461529E+02  0.35635623254E+02  0.00000000000E+00 0.  1.
</event>
<event>
 8    1  0.2509489E-006  0.9118800E+02  0.7816164E-02  0.1184000E+00
        -11   -1    0    0    0    0  0.00000000000E+00  0.00000000000E+00  0.45593999997E+02  0.45594000000E+02  0.51100000000E-03 0.  1.
         11   -1    0    0    0    0 -0.00000000000E+00 -0.00000000000E+00 -0.45593999997E+02  0.45594000000E+02  0.51100000000E-03 0. -1.
         23    2    1    2    0    0  0.35527136788E-14 -0.35527136788E-14  0.00000000000E+00  0.91188000000E+02  0.91188000000E+02 0.  0.
    9900012    2    3    3    0    0  0.26838731179E+02 -0.20747379620E+02  0.14318139008E+02  0.54367077184E+02  0.39999984056E+02 0.  0.
        -12    1    3    3    0    0 -0.26838731179E+02  0.20747379620E+02 -0.14318139008E+02  0.36820922816E+02  0.00000000000E+00 0.  1.
         11    1    4    4    0    0  0.47748278955E+01 -0.11104564026E+02 -0.25970364166E+01  0.12363451058E+02  0.51100000000E-03 0. -1.
        -11    1    4    4    0    0 -0.12611957942E+01  0.22057840084E+01  0.15603235389E+02  0.15808765062E+02  0.51100000000E-03 0.  1.
         12    1    4    4    0    0  0.23325099078E+02 -0.11848599602E+02  0.13119400354E+01  0.26194861064E+02  0.00000000000E+00 0. -1.
</event>
<event>
 8    1  0.2509489E-006  0.9118800E+02  0.7816164E-02  0.1184000E+00
        -11   -1    0    0    0    0  0.00000000000E+00  0.00000000000E+00  0.45593999997E+02  0.45594000000E+02  0.51100000000E-03 0. -1.
         11   -1    0    0    0    0 -0.00000000000E+00 -0.00000000000E+00 -0.45593999997E+02  0.45594000000E+02  0.51100000000E-03 0.  1.
         23    2    1    2    0    0  0.00000000000E+00  0.00000000000E+00  0.00000000000E+00  0.91188000000E+02  0.91188000000E+02 0.  0.
    9900012    2    3    3    0    0 -0.29249867551E+02  0.80547303713E+01 -0.20864933932E+02  0.54367096955E+02  0.40000029128E+02 0.  0.
         12    1    3    3    0    0  0.29249867551E+02 -0.80547303713E+01  0.20864933932E+02  0.36820903045E+02  0.00000000000E+00 0. -1.
         11    1    4    4    0    0 -0.21517423633E+00 -0.84397019331E+00  0.55243587961E+01  0.55925956414E+01  0.51100000000E-03 0. -1.
        -11    1    4    4    0    0 -0.43623463687E+01  0.14765308727E+02 -0.12682085417E+02  0.19946922029E+02  0.51100000000E-03 0.  1.
         12    1    4    4    0    0 -0.24672346946E+02 -0.58666081623E+01 -0.13707207311E+02  0.28827579285E+02  0.00000000000E+00 0. -1.
</event>
<event>
 8    1  0.2509489E-006  0.9118800E+02  0.7816164E-02  0.1184000E+00
        -11   -1    0    0    0    0  0.00000000000E+00  0.00000000000E+00  0.45593999997E+02  0.45594000000E+02  0.51100000000E-03 0.  1.
         11   -1    0    0    0    0 -0.00000000000E+00 -0.00000000000E+00 -0.45593999997E+02  0.45594000000E+02  0.51100000000E-03 0. -1.
         23    2    1    2    0    0  0.00000000000E+00  0.35527136788E-14 -0.17763568394E-14  0.91188000000E+02  0.91188000000E+02 0.  0.
    9900012    2    3    3    0    0  0.26755571242E+02 -0.22817972582E+02 -0.10920573073E+02  0.54367090432E+02  0.40000014257E+02 0.  0.
        -12    1    3    3    0    0 -0.26755571242E+02  0.22817972582E+02  0.10920573073E+02  0.36820909568E+02  0.00000000000E+00 0.  1.
         11    1    4    4    0    0  0.37894724827E+01 -0.75826203310E+01  0.68215567894E+00  0.85042089234E+01  0.51100000000E-03 0. -1.
        -11    1    4    4    0    0  0.25140259905E+02 -0.14864817307E+01 -0.17580942935E+02  0.30713707865E+02  0.51100000000E-03 0.  1.
        -12    1    4    4    0    0 -0.21741611464E+01 -0.13748870520E+02  0.59782141831E+01  0.15149173644E+02  0.00000000000E+00 0.  1.
</event>
<event>
 8    1  0.2509489E-006  0.9118800E+02  0.7816164E-02  0.1184000E+00
        -11   -1    0    0    0    0  0.00000000000E+00  0.00000000000E+00  0.45593999997E+02  0.45594000000E+02  0.51100000000E-03 0. -1.
         11   -1    0    0    0    0 -0.00000000000E+00 -0.00000000000E+00 -0.45593999997E+02  0.45594000000E+02  0.51100000000E-03 0.  1.
         23    2    1    2    0    0  0.00000000000E+00 -0.17763568394E-14  0.00000000000E+00  0.91188000000E+02  0.91188000000E+02 0.  0.
    9900012    2    3    3    0    0 -0.28325342215E+02  0.50130496970E+01  0.22985305993E+02  0.54367082434E+02  0.39999996024E+02 0.  0.
        -12    1    3    3    0    0  0.28325342215E+02 -0.50130496970E+01 -0.22985305993E+02  0.36820917566E+02  0.00000000000E+00 0.  1.
         11    1    4    4    0    0 -0.18886535945E+02  0.44908618151E+01  0.33349457111E+01  0.19697485703E+02  0.51100000000E-03 0. -1.
        -11    1    4    4    0    0 -0.44360659339E+01 -0.11660455948E+02  0.19809322503E+01  0.12632062647E+02  0.51100000000E-03 0.  1.
        -12    1    4    4    0    0 -0.50027403353E+01  0.12182643830E+02  0.17669428031E+02  0.22037534084E+02  0.00000000000E+00 0.  1.
</event>
<event>
 8    1  0.2509489E-006  0.9118800E+02  0.7816164E-02  0.1184000E+00
        -11   -1    0    0    0    0  0.00000000000E+00  0.00000000000E+00  0.45593999997E+02  0.45594000000E+02  0.51100000000E-03 0.  1.
         11   -1    0    0    0    0 -0.00000000000E+00 -0.00000000000E+00 -0.45593999997E+02  0.45594000000E+02  0.51100000000E-03 0. -1.
         23    2    1    2    0    0 -0.71054273576E-14 -0.17763568394E-14 -0.17763568394E-14  0.91188000000E+02  0.91188000000E+02 0.  0.
    9900012    2    3    3    0    0  0.34644452475E+02  0.91984648960E+01  0.84220413023E+01  0.54367073566E+02  0.39999975809E+02 0.  0.
         12    1    3    3    0    0 -0.34644452475E+02 -0.91984648960E+01 -0.84220413023E+01  0.36820926434E+02  0.00000000000E+00 0. -1.
         11    1    4    4    0    0  0.26370810947E+01  0.97948689637E+00  0.83544602384E+01  0.88153614456E+01  0.51100000000E-03 0. -1.
        -11    1    4    4    0    0  0.15065223655E+02  0.87036362916E+01  0.14993151216E+02  0.22967560431E+02  0.51100000000E-03 0.  1.
        -12    1    4    4    0    0  0.16942147725E+02 -0.48465829202E+00 -0.14925570152E+02  0.22584151690E+02  0.00000000000E+00 0.  1.
</event>
<event>
 8    1  0.2509489E-006  0.9118800E+02  0.7816164E-02  0.1184000E+00
        -11   -1    0    0    0    0  0.00000000000E+00  0.00000000000E+00  0.45593999997E+02  0.45594000000E+02  0.51100000000E-03 0. -1.
         11   -1    0    0    0    0 -0.00000000000E+00 -0.00000000000E+00 -0.45593999997E+02  0.45594000000E+02  0.51100000000E-03 0.  1.
         23    2    1    2    0    0  0.00000000000E+00 -0.35527136788E-14  0.00000000000E+00  0.91188000000E+02  0.91188000000E+02 0.  0.
    9900012    2    3    3    0    0  0.22277066828E+02 -0.24872279784E+02 -0.15520360510E+02  0.54367087485E+02  0.40000007539E+02 0.  0.
        -12    1    3    3    0    0 -0.22277066828E+02  0.24872279784E+02  0.15520360510E+02  0.36820912515E+02  0.00000000000E+00 0.  1.
         11    1    4    4    0    0  0.91956496475E+01 -0.99088398226E+01  0.41435762810E+01  0.14139105478E+02  0.51100000000E-03 0. -1.
        -11    1    4    4    0    0  0.20626216052E+02 -0.33605448400E+01 -0.14588793860E+02  0.25486603477E+02  0.51100000000E-03 0.  1.
         12    1    4    4    0    0 -0.75447988708E+01 -0.11602895121E+02 -0.50751429305E+01  0.14741378530E+02  0.00000000000E+00 0. -1.
</event>
<event>
 8    1  0.2509489E-006  0.9118800E+02  0.7816164E-02  0.1184000E+00
        -11   -1    0    0    0    0  0.00000000000E+00  0.00000000000E+00  0.45593999997E+02  0.45594000000E+02  0.51100000000E-03 0. -1.
         11   -1    0    0    0    0 -0.00000000000E+00 -0.00000000000E+00 -0.45593999997E+02  0.45594000000E+02  0.51100000000E-03 0.  1.
         23    2    1    2    0    0 -0.55511151231E-15  0.71054273576E-14 -0.35527136788E-14  0.91188000000E+02  0.91188000000E+02 0.  0.
    9900012    2    3    3    0    0  0.17909808937E+00 -0.32403990399E+02  0.17485125134E+02  0.54367078354E+02  0.39999986724E+02 0.  0.
        -12    1    3    3    0    0 -0.17909808937E+00  0.32403990399E+02 -0.17485125134E+02  0.36820921646E+02  0.00000000000E+00 0.  1.
         11    1    4    4    0    0 -0.75276389388E+00  0.15376087214E+01  0.12588719776E+02  0.12704596015E+02  0.51100000000E-03 0. -1.
        -11    1    4    4    0    0 -0.75831096097E+01 -0.15336156709E+02 -0.64281943358E+01  0.18276294390E+02  0.51100000000E-03 0.  1.
        -12    1    4    4    0    0  0.85149715930E+01 -0.18605442411E+02  0.11324599694E+02  0.23386187949E+02  0.00000000000E+00 0.  1.
</event>
<event>
 8    1  0.2509489E-006  0.9118800E+02  0.7816164E-02  0.1184000E+00
        -11   -1    0    0    0    0  0.00000000000E+00  0.00000000000E+00  0.45593999997E+02  0.45594000000E+02  0.51100000000E-03 0. -1.
         11   -1    0    0    0    0 -0.00000000000E+00 -0.00000000000E+00 -0.45593999997E+02  0.45594000000E+02  0.51100000000E-03 0.  1.
         23    2    1    2    0    0  0.88817841970E-15  0.00000000000E+00  0.00000000000E+00  0.91188000000E+02  0.91188000000E+02 0.  0.
    9900012    2    3    3    0    0 -0.25318118966E+01 -0.35943052740E+02 -0.75807066317E+01  0.54367078980E+02  0.39999988150E+02 0.  0.
         12    1    3    3    0    0  0.25318118966E+01  0.35943052740E+02  0.75807066317E+01  0.36820921020E+02  0.00000000000E+00 0. -1.
         11    1    4    4    0    0 -0.11737505926E+02 -0.14064572743E+02  0.12593832322E+01  0.18362115842E+02  0.51100000000E-03 0. -1.
        -11    1    4    4    0    0 -0.50684887267E+01 -0.14956841733E+01 -0.97656536820E+01  0.11103812013E+02  0.51100000000E-03 0.  1.
        -12    1    4    4    0    0  0.14274182756E+02 -0.20382795824E+02  0.92556381805E+00  0.24901151124E+02  0.00000000000E+00 0.  1.
</event>
<event>
 8    1  0.2509489E-006  0.9118800E+02  0.7816164E-02  0.1184000E+00
        -11   -1    0    0    0    0  0.00000000000E+00  0.00000000000E+00  0.45593999997E+02  0.45594000000E+02  0.51100000000E-03 0.  1.
         11   -1    0    0    0    0 -0.00000000000E+00 -0.00000000000E+00 -0.45593999997E+02  0.45594000000E+02  0.51100000000E-03 0. -1.
         23    2    1    2    0    0  0.35527136788E-14 -0.17763568394E-14  0.00000000000E+00  0.91188000000E+02  0.91188000000E+02 0.  0.
    9900012    2    3    3    0    0  0.23491715916E+02 -0.12462779951E+02  0.25467569518E+02  0.54367099713E+02  0.40000035415E+02 0.  0.
         12    1    3    3    0    0 -0.23491715916E+02  0.12462779951E+02 -0.25467569518E+02  0.36820900287E+02  0.00000000000E+00 0. -1.
         11    1    4    4    0    0  0.85936057591E+00  0.71519080828E+01 -0.92000447380E+00  0.72618660355E+01  0.51100000000E-03 0. -1.
        -11    1    4    4    0    0  0.10306209019E+02  0.41320451419E+01  0.13284207419E+02  0.17313633599E+02  0.51100000000E-03 0.  1.
         12    1    4    4    0    0  0.12326146321E+02 -0.23746733176E+02  0.13103366573E+02  0.29791600078E+02  0.00000000000E+00 0. -1.
</event>
<event>
 8    1  0.2509489E-006  0.9118800E+02  0.7816164E-02  0.1184000E+00
        -11   -1    0    0    0    0  0.00000000000E+00  0.00000000000E+00  0.45593999997E+02  0.45594000000E+02  0.51100000000E-03 0.  1.
         11   -1    0    0    0    0 -0.00000000000E+00 -0.00000000000E+00 -0.45593999997E+02  0.45594000000E+02  0.51100000000E-03 0. -1.
         23    2    1    2    0    0  0.17763568394E-14 -0.71054273576E-14  0.33306690739E-15  0.91188000000E+02  0.91188000000E+02 0.  0.
    9900012    2    3    3    0    0 -0.12427451739E+02 -0.34649350136E+02 -0.87225860563E+00  0.54367083979E+02  0.39999999546E+02 0.  0.
         12    1    3    3    0    0  0.12427451739E+02  0.34649350136E+02  0.87225860563E+00  0.36820916021E+02  0.00000000000E+00 0. -1.
         11    1    4    4    0    0  0.83885766143E+00 -0.25306639856E+00  0.58354468955E+01  0.59008614210E+01  0.51100000000E-03 0.  1.
        -11    1    4    4    0    0  0.23579307729E+01  0.48916356869E+01  0.90638767264E+00  0.55054042629E+01  0.51100000000E-03 0. -1.
        -12    1    4    4    0    0 -0.15624240174E+02 -0.39287919424E+02 -0.76140931738E+01  0.42960818295E+02  0.00000000000E+00 0.  1.
</event>
<event>
 8    1  0.2509489E-006  0.9118800E+02  0.7816164E-02  0.1184000E+00
        -11   -1    0    0    0    0  0.00000000000E+00  0.00000000000E+00  0.45593999997E+02  0.45594000000E+02  0.51100000000E-03 0.  1.
         11   -1    0    0    0    0 -0.00000000000E+00 -0.00000000000E+00 -0.45593999997E+02  0.45594000000E+02  0.51100000000E-03 0. -1.
         23    2    1    2    0    0  0.00000000000E+00  0.35527136788E-14  0.71054273576E-14  0.91188000000E+02  0.91188000000E+02 0.  0.
    9900012    2    3    3    0    0  0.34404682958E+01  0.17155817883E+02  0.32397830860E+02  0.54367104387E+02  0.40000046072E+02 0.  0.
         12    1    3    3    0    0 -0.34404682958E+01 -0.17155817883E+02 -0.32397830860E+02  0.36820895613E+02  0.00000000000E+00 0. -1.
         11    1    4    4    0    0 -0.84776923075E+01 -0.20770856476E+01 -0.16029341768E+01  0.88743985647E+01  0.51100000000E-03 0. -1.
        -11    1    4    4    0    0  0.86043888044E+01 -0.18290164319E+01  0.11721845032E+02  0.14655458335E+02  0.51100000000E-03 0.  1.
        -12    1    4    4    0    0  0.33137717989E+01  0.21061919962E+02  0.22278920005E+02  0.30837247487E+02  0.00000000000E+00 0.  1.
</event>
<event>
 8    1  0.2509489E-006  0.9118800E+02  0.7816164E-02  0.1184000E+00
        -11   -1    0    0    0    0  0.00000000000E+00  0.00000000000E+00  0.45593999997E+02  0.45594000000E+02  0.51100000000E-03 0.  1.
         11   -1    0    0    0    0 -0.00000000000E+00 -0.00000000000E+00 -0.45593999997E+02  0.45594000000E+02  0.51100000000E-03 0. -1.
         23    2    1    2    0    0  0.00000000000E+00  0.00000000000E+00  0.71054273576E-14  0.91188000000E+02  0.91188000000E+02 0.  0.
    9900012    2    3    3    0    0 -0.84049486542E+01 -0.48724791238E+01 -0.35516133523E+02  0.54367082641E+02  0.39999996498E+02 0.  0.
        -12    1    3    3    0    0  0.84049486542E+01  0.48724791238E+01  0.35516133523E+02  0.36820917359E+02  0.00000000000E+00 0.  1.
         11    1    4    4    0    0  0.27770433748E+01 -0.48419281167E+01  0.43865915596E+00  0.55989874003E+01  0.51100000000E-03 0. -1.
        -11    1    4    4    0    0  0.53641703840E+01 -0.98024803560E+01 -0.23064651520E+02  0.25628911312E+02  0.51100000000E-03 0.  1.
         12    1    4    4    0    0 -0.16546162413E+02  0.97719293489E+01 -0.12890141159E+02  0.23139183929E+02  0.00000000000E+00 0. -1.
</event>
<event>
 8    1  0.2509489E-006  0.9118800E+02  0.7816164E-02  0.1184000E+00
        -11   -1    0    0    0    0  0.00000000000E+00  0.00000000000E+00  0.45593999997E+02  0.45594000000E+02  0.51100000000E-03 0. -1.
         11   -1    0    0    0    0 -0.00000000000E+00 -0.00000000000E+00 -0.45593999997E+02  0.45594000000E+02  0.51100000000E-03 0.  1.
         23    2    1    2    0    0 -0.88817841970E-15 -0.35527136788E-14  0.00000000000E+00  0.91188000000E+02  0.91188000000E+02 0.  0.
    9900012    2    3    3    0    0 -0.46040223229E+01  0.22737233595E+02  0.28593723521E+02  0.54367084234E+02  0.40000000127E+02 0.  0.
        -12    1    3    3    0    0  0.46040223229E+01 -0.22737233595E+02 -0.28593723521E+02  0.36820915766E+02  0.00000000000E+00 0.  1.
         11    1    4    4    0    0  0.12211341588E+02  0.24587048565E+01  0.12831212752E+02  0.17883011880E+02  0.51100000000E-03 0. -1.
        -11    1    4    4    0    0 -0.46286311289E+01  0.12012185607E+02  0.17425334781E+02  0.21664697591E+02  0.51100000000E-03 0.  1.
        -12    1    4    4    0    0 -0.12186732782E+02  0.82663431312E+01 -0.16628240130E+01  0.14819374763E+02  0.00000000000E+00 0.  1.
</event>
<event>
 8    1  0.2509489E-006  0.9118800E+02  0.7816164E-02  0.1184000E+00
        -11   -1    0    0    0    0  0.00000000000E+00  0.00000000000E+00  0.45593999997E+02  0.45594000000E+02  0.51100000000E-03 0. -1.
         11   -1    0    0    0    0 -0.00000000000E+00 -0.00000000000E+00 -0.45593999997E+02  0.45594000000E+02  0.51100000000E-03 0.  1.
         23    2    1    2    0    0 -0.17763568394E-14 -0.10658141036E-13 -0.35527136788E-14  0.91188000000E+02  0.91188000000E+02 0.  0.
    9900012    2    3    3    0    0  0.83193265863E+01 -0.30516493595E+02 -0.18849727598E+02  0.54367084657E+02  0.40000001093E+02 0.  0.
         12    1    3    3    0    0 -0.83193265863E+01  0.30516493595E+02  0.18849727598E+02  0.36820915343E+02  0.00000000000E+00 0. -1.
         11    1    4    4    0    0  0.89367805428E+01 -0.12788883911E+02 -0.24041792425E+02  0.28660589342E+02  0.51100000000E-03 0. -1.
        -11    1    4    4    0    0 -0.43397209276E+00  0.25675445538E+01  0.47368569180E+01  0.54054075272E+01  0.51100000000E-03 0.  1.
        -12    1    4    4    0    0 -0.18348186380E+00 -0.20295154238E+02  0.45520790906E+00  0.20301087788E+02  0.00000000000E+00 0.  1.
</event>
<event>
 8    1  0.2509489E-006  0.9118800E+02  0.7816164E-02  0.1184000E+00
        -11   -1    0    0    0    0  0.00000000000E+00  0.00000000000E+00  0.45593999997E+02  0.45594000000E+02  0.51100000000E-03 0. -1.
         11   -1    0    0    0    0 -0.00000000000E+00 -0.00000000000E+00 -0.45593999997E+02  0.45594000000E+02  0.51100000000E-03 0.  1.
         23    2    1    2    0    0  0.00000000000E+00  0.00000000000E+00  0.00000000000E+00  0.91188000000E+02  0.91188000000E+02 0.  0.
    9900012    2    3    3    0    0  0.18692401252E+02 -0.75920490048E+01 -0.30801531194E+02  0.54367090226E+02  0.40000013789E+02 0.  0.
         12    1    3    3    0    0 -0.18692401252E+02  0.75920490048E+01  0.30801531194E+02  0.36820909774E+02  0.00000000000E+00 0. -1.
         11    1    4    4    0    0  0.88125649517E+01 -0.57861518412E+01 -0.44699260954E+01  0.11450811924E+02  0.51100000000E-03 0. -1.
        -11    1    4    4    0    0 -0.85109088071E+01 -0.33200468664E+01  0.17624039425E+01  0.93039963368E+01  0.51100000000E-03 0.  1.
        -12    1    4    4    0    0  0.18390745108E+02  0.15141497028E+01 -0.28094009041E+02  0.33612281966E+02  0.00000000000E+00 0.  1.
</event>
<event>
 8    1  0.2509489E-006  0.9118800E+02  0.7816164E-02  0.1184000E+00
        -11   -1    0    0    0    0  0.00000000000E+00  0.00000000000E+00  0.45593999997E+02  0.45594000000E+02  0.51100000000E-03 0.  1.
         11   -1    0    0    0    0 -0.00000000000E+00 -0.00000000000E+00 -0.45593999997E+02  0.45594000000E+02  0.51100000000E-03 0. -1.
         23    2    1    2    0    0  0.00000000000E+00  0.00000000000E+00  0.00000000000E+00  0.91188000000E+02  0.91188000000E+02 0.  0.
    9900012    2    3    3    0    0  0.62993758423E+01  0.25528214060E+02 -0.25776106514E+02  0.54367088602E+02  0.40000010087E+02 0.  0.
        -12    1    3    3    0    0 -0.62993758423E+01 -0.25528214060E+02  0.25776106514E+02  0.36820911398E+02  0.00000000000E+00 0.  1.
         11    1    4    4    0    0 -0.54526531588E+01  0.18464248461E+02 -0.13770721631E+02  0.23670502153E+02  0.51100000000E-03 0. -1.
        -11    1    4    4    0    0 -0.40872870609E+01 -0.33626335985E+01 -0.10395485364E+02  0.11665304816E+02  0.51100000000E-03 0.  1.
         12    1    4    4    0    0  0.15839316062E+02  0.10426599198E+02 -0.16098995203E+01  0.19031281633E+02  0.00000000000E+00 0. -1.
</event>
<event>
 8    1  0.2509489E-006  0.9118800E+02  0.7816164E-02  0.1184000E+00
        -11   -1    0    0    0    0  0.00000000000E+00  0.00000000000E+00  0.45593999997E+02  0.45594000000E+02  0.51100000000E-03 0. -1.
         11   -1    0    0    0    0 -0.00000000000E+00 -0.00000000000E+00 -0.45593999997E+02  0.45594000000E+02  0.51100000000E-03 0.  1.
         23    2    1    2    0    0  0.35527136788E-14  0.00000000000E+00  0.35527136788E-14  0.91188000000E+02  0.91188000000E+02 0.  0.
    9900012    2    3    3    0    0  0.19857866550E+02 -0.17340908294E+02  0.25704818281E+02  0.54367086823E+02  0.40000006029E+02 0.  0.
        -12    1    3    3    0    0 -0.19857866550E+02  0.17340908294E+02 -0.25704818281E+02  0.36820913177E+02  0.00000000000E+00 0.  1.
         11    1    4    4    0    0  0.11056203752E+02 -0.16053351353E+01  0.23971982212E+02  0.26447545704E+02  0.51100000000E-03 0. -1.
        -11    1    4    4    0    0 -0.52063403490E+00  0.46117586099E+01 -0.22970653943E+01  0.51784058320E+01  0.51100000000E-03 0.  1.
        -12    1    4    4    0    0  0.93222968325E+01 -0.20347331769E+02  0.40299014630E+01  0.22741135287E+02  0.00000000000E+00 0.  1.
</event>
<event>
 8    1  0.2509489E-006  0.9118800E+02  0.7816164E-02  0.1184000E+00
        -11   -1    0    0    0    0  0.00000000000E+00  0.00000000000E+00  0.45593999997E+02  0.45594000000E+02  0.51100000000E-03 0. -1.
         11   -1    0    0    0    0 -0.00000000000E+00 -0.00000000000E+00 -0.45593999997E+02  0.45594000000E+02  0.51100000000E-03 0.  1.
         23    2    1    2    0    0  0.17763568394E-14  0.00000000000E+00 -0.35527136788E-14  0.91188000000E+02  0.91188000000E+02 0.  0.
    9900012    2    3    3    0    0 -0.14718231886E+02 -0.17144686543E+02  0.29072547833E+02  0.54367086595E+02  0.40000005510E+02 0.  0.
        -12    1    3    3    0    0  0.14718231886E+02  0.17144686543E+02 -0.29072547833E+02  0.36820913405E+02  0.00000000000E+00 0.  1.
         11    1    4    4    0    0  0.58941204852E+01 -0.11209372856E+02  0.80688587283E+01  0.15016563440E+02  0.51100000000E-03 0. -1.
        -11    1    4    4    0    0 -0.20468538434E+02 -0.11165590989E+02  0.23884059635E+02  0.33377833853E+02  0.51100000000E-03 0.  1.
        -12    1    4    4    0    0 -0.14381393647E+00  0.52302773018E+01 -0.28803705305E+01  0.59726893017E+01  0.00000000000E+00 0.  1.
</event>
<event>
 8    1  0.2509489E-006  0.9118800E+02  0.7816164E-02  0.1184000E+00
        -11   -1    0    0    0    0  0.00000000000E+00  0.00000000000E+00  0.45593999997E+02  0.45594000000E+02  0.51100000000E-03 0. -1.
         11   -1    0    0    0    0 -0.00000000000E+00 -0.00000000000E+00 -0.45593999997E+02  0.45594000000E+02  0.51100000000E-03 0.  1.
         23    2    1    2    0    0  0.00000000000E+00  0.00000000000E+00  0.00000000000E+00  0.91188000000E+02  0.91188000000E+02 0.  0.
    9900012    2    3    3    0    0  0.11529929457E+02 -0.32092851096E+02 -0.13888500863E+02  0.54367070884E+02  0.39999969694E+02 0.  0.
         12    1    3    3    0    0 -0.11529929457E+02  0.32092851096E+02  0.13888500863E+02  0.36820929116E+02  0.00000000000E+00 0. -1.
         11    1    4    4    0    0 -0.70820290124E+01  0.27971189230E+01 -0.35725633118E+01  0.84108393208E+01  0.51100000000E-03 0. -1.
        -11    1    4    4    0    0  0.12185839863E+02 -0.36073358774E+02 -0.73432743082E+01  0.38777642841E+02  0.51100000000E-03 0.  1.
        -12    1    4    4    0    0  0.64261186065E+01  0.11833887558E+01 -0.29726632433E+01  0.71785887227E+01  0.00000000000E+00 0.  1.
</event>
<event>
 8    1  0.2509489E-006  0.9118800E+02  0.7816164E-02  0.1184000E+00
        -11   -1    0    0    0    0  0.00000000000E+00  0.00000000000E+00  0.45593999997E+02  0.45594000000E+02  0.51100000000E-03 0.  1.
         11   -1    0    0    0    0 -0.00000000000E+00 -0.00000000000E+00 -0.45593999997E+02  0.45594000000E+02  0.51100000000E-03 0. -1.
         23    2    1    2    0    0  0.22204460493E-15  0.22204460493E-15 -0.71054273576E-14  0.91188000000E+02  0.91188000000E+02 0.  0.
    9900012    2    3    3    0    0 -0.17873082771E+01  0.18254285380E+01  0.36732187506E+02  0.54367078512E+02  0.39999987085E+02 0.  0.
         12    1    3    3    0    0  0.17873082771E+01 -0.18254285380E+01 -0.36732187506E+02  0.36820921488E+02  0.00000000000E+00 0. -1.
         11    1    4    4    0    0 -0.49782913032E+01  0.12560545172E+02 -0.96133843382E+00  0.13545288892E+02  0.51100000000E-03 0. -1.
        -11    1    4    4    0    0 -0.31198126841E+01 -0.80903617457E+01  0.18147381104E+02  0.20112548957E+02  0.51100000000E-03 0.  1.
        -12    1    4    4    0    0  0.63107957103E+01 -0.26447548883E+01  0.19546144836E+02  0.20709240664E+02  0.00000000000E+00 0.  1.
</event>
<event>
 8    1  0.2509489E-006  0.9118800E+02  0.7816164E-02  0.1184000E+00
        -11   -1    0    0    0    0  0.00000000000E+00  0.00000000000E+00  0.45593999997E+02  0.45594000000E+02  0.51100000000E-03 0.  1.
         11   -1    0    0    0    0 -0.00000000000E+00 -0.00000000000E+00 -0.45593999997E+02  0.45594000000E+02  0.51100000000E-03 0. -1.
         23    2    1    2    0    0  0.00000000000E+00  0.35527136788E-14  0.00000000000E+00  0.91188000000E+02  0.91188000000E+02 0.  0.
    9900012    2    3    3    0    0  0.18891117875E+02  0.21849033413E+02  0.22836934820E+02  0.54367079485E+02  0.39999989301E+02 0.  0.
         12    1    3    3    0    0 -0.18891117875E+02 -0.21849033413E+02 -0.22836934820E+02  0.36820920515E+02  0.00000000000E+00 0. -1.
         11    1    4    4    0    0  0.29990744414E+01  0.34466551624E+01 -0.91747299238E+01  0.10249368212E+02  0.51100000000E-03 0. -1.
        -11    1    4    4    0    0  0.74161331903E+01  0.97628343970E+00  0.19916154617E+02  0.21274524104E+02  0.51100000000E-03 0.  1.
        -12    1    4    4    0    0  0.84759102429E+01  0.17426094811E+02  0.12095510126E+02  0.22843187168E+02  0.00000000000E+00 0.  1.
</event>
<event>
 8    1  0.2509489E-006  0.9118800E+02  0.7816164E-02  0.1184000E+00
        -11   -1    0    0    0    0  0.00000000000E+00  0.00000000000E+00  0.45593999997E+02  0.45594000000E+02  0.51100000000E-03 0. -1.
         11   -1    0    0    0    0 -0.00000000000E+00 -0.00000000000E+00 -0.45593999997E+02  0.45594000000E+02  0.51100000000E-03 0.  1.
         23    2    1    2    0    0  0.44408920985E-15 -0.44408920985E-15  0.71054273576E-14  0.91188000000E+02  0.91188000000E+02 0.  0.
    9900012    2    3    3    0    0  0.14055718078E+01 -0.27528829287E+01 -0.36690946812E+02  0.54367087810E+02  0.40000008281E+02 0.  0.
         12    1    3    3    0    0 -0.14055718078E+01  0.27528829287E+01  0.36690946812E+02  0.36820912190E+02  0.00000000000E+00 0. -1.
         11    1    4    4    0    0  0.10605717198E+02 -0.56579936482E+01  0.44162557096E+00  0.12028680842E+02  0.51100000000E-03 0. -1.
        -11    1    4    4    0    0 -0.22781083216E+01  0.52549911903E+01 -0.33839647125E+02  0.34320932792E+02  0.51100000000E-03 0.  1.
         12    1    4    4    0    0 -0.69220370683E+01 -0.23498804708E+01 -0.32929252583E+01  0.80174741758E+01  0.00000000000E+00 0. -1.
</event>
<event>
 8    1  0.2509489E-006  0.9118800E+02  0.7816164E-02  0.1184000E+00
        -11   -1    0    0    0    0  0.00000000000E+00  0.00000000000E+00  0.45593999997E+02  0.45594000000E+02  0.51100000000E-03 0.  1.
         11   -1    0    0    0    0 -0.00000000000E+00 -0.00000000000E+00 -0.45593999997E+02  0.45594000000E+02  0.51100000000E-03 0. -1.
         23    2    1    2    0    0 -0.35527136788E-14  0.17763568394E-14  0.35527136788E-14  0.91188000000E+02  0.91188000000E+02 0.  0.
    9900012    2    3    3    0    0 -0.23328231323E+02  0.35307656288E+01  0.28268465013E+02  0.54367098371E+02  0.40000032356E+02 0.  0.
         12    1    3    3    0    0  0.23328231323E+02 -0.35307656288E+01 -0.28268465013E+02  0.36820901629E+02  0.00000000000E+00 0. -1.
         11    1    4    4    0    0 -0.10113484444E+02 -0.10793953417E+02  0.30771152742E+01  0.15108296947E+02  0.51100000000E-03 0. -1.
        -11    1    4    4    0    0 -0.16913303231E+02  0.18934706770E+01  0.16030948780E+02  0.23380256124E+02  0.51100000000E-03 0.  1.
         12    1    4    4    0    0  0.36985563525E+01  0.12431248369E+02  0.91604009589E+01  0.15878545300E+02  0.00000000000E+00 0. -1.
</event>
<event>
 8    1  0.2509489E-006  0.9118800E+02  0.7816164E-02  0.1184000E+00
        -11   -1    0    0    0    0  0.00000000000E+00  0.00000000000E+00  0.45593999997E+02  0.45594000000E+02  0.51100000000E-03 0. -1.
         11   -1    0    0    0    0 -0.00000000000E+00 -0.00000000000E+00 -0.45593999997E+02  0.45594000000E+02  0.51100000000E-03 0.  1.
         23    2    1    2    0    0  0.00000000000E+00  0.00000000000E+00  0.00000000000E+00  0.91188000000E+02  0.91188000000E+02 0.  0.
    9900012    2    3    3    0    0  0.30933014767E+02 -0.17122055228E+02  0.10284161882E+02  0.54367079813E+02  0.39999990050E+02 0.  0.
        -12    1    3    3    0    0 -0.30933014767E+02  0.17122055228E+02 -0.10284161882E+02  0.36820920187E+02  0.00000000000E+00 0.  1.
         11    1    4    4    0    0  0.17215097666E+02 -0.26050287745E+02  0.63258663878E+01  0.31858965223E+02  0.51100000000E-03 0. -1.
        -11    1    4    4    0    0  0.16645677530E+02  0.94929095419E+01  0.31571764715E+01  0.19420650750E+02  0.51100000000E-03 0.  1.
         12    1    4    4    0    0 -0.29277604299E+01 -0.56467702576E+00  0.80111902264E+00  0.30874638405E+01  0.00000000000E+00 0. -1.
</event>
<event>
 8    1  0.2509489E-006  0.9118800E+02  0.7816164E-02  0.1184000E+00
        -11   -1    0    0    0    0  0.00000000000E+00  0.00000000000E+00  0.45593999997E+02  0.45594000000E+02  0.51100000000E-03 0. -1.
         11   -1    0    0    0    0 -0.00000000000E+00 -0.00000000000E+00 -0.45593999997E+02  0.45594000000E+02  0.51100000000E-03 0.  1.
         23    2    1    2    0    0  0.13322676296E-14 -0.17763568394E-14  0.71054273576E-14  0.91188000000E+02  0.91188000000E+02 0.  0.
    9900012    2    3    3    0    0  0.37581014946E+01 -0.82416507468E+01 -0.35689379533E+02  0.54367082775E+02  0.39999996802E+02 0.  0.
         12    1    3    3    0    0 -0.37581014946E+01  0.82416507468E+01  0.35689379533E+02  0.36820917225E+02  0.00000000000E+00 0. -1.
         11    1    4    4    0    0 -0.52999418454E+01  0.17661597176E+01  0.37765116349E+01  0.67431998415E+01  0.51100000000E-03 0. -1.
        -11    1    4    4    0    0 -0.54913399770E+01 -0.10538067964E+02 -0.20754968421E+02  0.23915986401E+02  0.51100000000E-03 0.  1.
        -12    1    4    4    0    0  0.14549383317E+02  0.53025749937E+00 -0.18710922747E+02  0.23707896532E+02  0.00000000000E+00 0.  1.
</event>
<event>
 8    1  0.2509489E-006  0.9118800E+02  0.7816164E-02  0.1184000E+00
        -11   -1    0    0    0    0  0.00000000000E+00  0.00000000000E+00  0.45593999997E+02  0.45594000000E+02  0.51100000000E-03 0. -1.
         11   -1    0    0    0    0 -0.00000000000E+00 -0.00000000000E+00 -0.45593999997E+02  0.45594000000E+02  0.51100000000E-03 0.  1.
         23    2    1    2    0    0  0.00000000000E+00 -0.35527136788E-14  0.00000000000E+00  0.91188000000E+02  0.91188000000E+02 0.  0.
    9900012    2    3    3    0    0  0.26680818895E+02 -0.23500478299E+02  0.95729039741E+01  0.54367094692E+02  0.40000023970E+02 0.  0.
        -12    1    3    3    0    0 -0.26680818895E+02  0.23500478299E+02 -0.95729039741E+01  0.36820905308E+02  0.00000000000E+00 0.  1.
         11    1    4    4    0    0 -0.19579165469E+00 -0.15570085443E+02  0.18223342316E+01  0.15677589017E+02  0.51100000000E-03 0. -1.
        -11    1    4    4    0    0  0.40059087791E+01  0.80138106324E+01 -0.19522296096E+01  0.91694965352E+01  0.51100000000E-03 0.  1.
         12    1    4    4    0    0  0.22870701771E+02 -0.15944203488E+02  0.97027993521E+01  0.29520009140E+02  0.00000000000E+00 0. -1.
</event>
<event>
 8    1  0.2509489E-006  0.9118800E+02  0.7816164E-02  0.1184000E+00
        -11   -1    0    0    0    0  0.00000000000E+00  0.00000000000E+00  0.45593999997E+02  0.45594000000E+02  0.51100000000E-03 0.  1.
         11   -1    0    0    0    0 -0.00000000000E+00 -0.00000000000E+00 -0.45593999997E+02  0.45594000000E+02  0.51100000000E-03 0. -1.
         23    2    1    2    0    0  0.00000000000E+00  0.00000000000E+00  0.00000000000E+00  0.91188000000E+02  0.91188000000E+02 0.  0.
    9900012    2    3    3    0    0 -0.89966294114E+01 -0.20014823599E+02 -0.29567644669E+02  0.54367107619E+02  0.40000053440E+02 0.  0.
        -12    1    3    3    0    0  0.89966294114E+01  0.20014823599E+02  0.29567644669E+02  0.36820892381E+02  0.00000000000E+00 0.  1.
         11    1    4    4    0    0  0.13065517112E+02 -0.13470610499E+02 -0.21309890230E+02  0.28395008478E+02  0.51100000000E-03 0. -1.
        -11    1    4    4    0    0 -0.11780741186E+02 -0.17147084657E+01  0.40043037490E-01  0.11904944003E+02  0.51100000000E-03 0.  1.
         12    1    4    4    0    0 -0.10281405337E+02 -0.48295046337E+01 -0.82977974769E+01  0.14067155138E+02  0.00000000000E+00 0. -1.
</event>
<event>
 8    1  0.2509489E-006  0.9118800E+02  0.7816164E-02  0.1184000E+00
        -11   -1    0    0    0    0  0.00000000000E+00  0.00000000000E+00  0.45593999997E+02  0.45594000000E+02  0.51100000000E-03 0. -1.
         11   -1    0    0    0    0 -0.00000000000E+00 -0.00000000000E+00 -0.45593999997E+02  0.45594000000E+02  0.51100000000E-03 0.  1.
         23    2    1    2    0    0  0.00000000000E+00  0.00000000000E+00  0.35527136788E-14  0.91188000000E+02  0.91188000000E+02 0.  0.
    9900012    2    3    3    0    0 -0.21088033098E+02  0.25914893997E+02 -0.15475576033E+02  0.54367077627E+02  0.39999985067E+02 0.  0.
         12    1    3    3    0    0  0.21088033098E+02 -0.25914893997E+02  0.15475576033E+02  0.36820922373E+02  0.00000000000E+00 0. -1.
         11    1    4    4    0    0  0.80726622213E+01  0.39329969297E+01 -0.39136886082E+01  0.97955754794E+01  0.51100000000E-03 0.  1.
        -11    1    4    4    0    0 -0.51586849928E+01  0.57922422997E+01  0.67772471191E+01  0.10300154391E+02  0.51100000000E-03 0. -1.
         12    1    4    4    0    0 -0.24002010327E+02  0.16189654768E+02 -0.18339134544E+02  0.34271347756E+02  0.00000000000E+00 0. -1.
</event>
<event>
 8    1  0.2509489E-006  0.9118800E+02  0.7816164E-02  0.1184000E+00
        -11   -1    0    0    0    0  0.00000000000E+00  0.00000000000E+00  0.45593999997E+02  0.45594000000E+02  0.51100000000E-03 0.  1.
         11   -1    0    0    0    0 -0.00000000000E+00 -0.00000000000E+00 -0.45593999997E+02  0.45594000000E+02  0.51100000000E-03 0. -1.
         23    2    1    2    0    0 -0.44408920985E-15  0.00000000000E+00  0.00000000000E+00  0.91188000000E+02  0.91188000000E+02 0.  0.
    9900012    2    3    3    0    0 -0.36987812027E+01  0.23110972224E+02  0.28425026135E+02  0.54367080262E+02  0.39999991074E+02 0.  0.
         12    1    3    3    0    0  0.36987812027E+01 -0.23110972224E+02 -0.28425026135E+02  0.36820919738E+02  0.00000000000E+00 0. -1.
         11    1    4    4    0    0 -0.29794925247E+01  0.49733804870E+01 -0.88916235286E+01  0.10614747214E+02  0.51100000000E-03 0. -1.
        -11    1    4    4    0    0 -0.71063861770E+01  0.81080918119E+01  0.15103139014E+02  0.18556580657E+02  0.51100000000E-03 0.  1.
         12    1    4    4    0    0  0.63870974991E+01  0.10029499925E+02  0.22213510650E+02  0.25195752392E+02  0.00000000000E+00 0. -1.
</event>
<event>
 8    1  0.2509489E-006  0.9118800E+02  0.7816164E-02  0.1184000E+00
        -11   -1    0    0    0    0  0.00000000000E+00  0.00000000000E+00  0.45593999997E+02  0.45594000000E+02  0.51100000000E-03 0.  1.
         11   -1    0    0    0    0 -0.00000000000E+00 -0.00000000000E+00 -0.45593999997E+02  0.45594000000E+02  0.51100000000E-03 0. -1.
         23    2    1    2    0    0  0.00000000000E+00 -0.44408920985E-15  0.00000000000E+00  0.91188000000E+02  0.91188000000E+02 0.  0.
    9900012    2    3    3    0    0  0.20696740992E+02  0.18261512297E+01 -0.30398860532E+02  0.54367073373E+02  0.39999975369E+02 0.  0.
        -12    1    3    3    0    0 -0.20696740992E+02 -0.18261512297E+01  0.30398860532E+02  0.36820926627E+02  0.00000000000E+00 0.  1.
         11    1    4    4    0    0 -0.50202887803E+01  0.34952158958E+01 -0.17997973365E+02  0.19009126205E+02  0.51100000000E-03 0. -1.
        -11    1    4    4    0    0  0.41756297563E+01 -0.43367629334E+01  0.47704479906E+01  0.76811829098E+01  0.51100000000E-03 0.  1.
         12    1    4    4    0    0  0.21541400016E+02  0.26676982673E+01 -0.17171335158E+02  0.27676764258E+02  0.00000000000E+00 0. -1.
</event>
<event>
 8    1  0.2509489E-006  0.9118800E+02  0.7816164E-02  0.1184000E+00
        -11   -1    0    0    0    0  0.00000000000E+00  0.00000000000E+00  0.45593999997E+02  0.45594000000E+02  0.51100000000E-03 0.  1.
         11   -1    0    0    0    0 -0.00000000000E+00 -0.00000000000E+00 -0.45593999997E+02  0.45594000000E+02  0.51100000000E-03 0. -1.
         23    2    1    2    0    0 -0.35527136788E-14  0.35527136788E-14 -0.17763568394E-14  0.91188000000E+02  0.91188000000E+02 0.  0.
    9900012    2    3    3    0    0 -0.24520523016E+02  0.22526018388E+02 -0.15719516619E+02  0.54367071765E+02  0.39999971702E+02 0.  0.
        -12    1    3    3    0    0  0.24520523016E+02 -0.22526018388E+02  0.15719516619E+02  0.36820928235E+02  0.00000000000E+00 0.  1.
         11    1    4    4    0    0  0.24867246869E+01  0.82686733038E+00 -0.43832839583E+01  0.51069254714E+01  0.51100000000E-03 0. -1.
        -11    1    4    4    0    0 -0.15239350082E+02  0.27081213217E+02 -0.16670221420E+02  0.35263666609E+02  0.51100000000E-03 0.  1.
        -12    1    4    4    0    0 -0.11767897620E+02 -0.53820621597E+01  0.53339887590E+01  0.13996479685E+02  0.00000000000E+00 0.  1.
</event>
<event>
 8    1  0.2509489E-006  0.9118800E+02  0.7816164E-02  0.1184000E+00
        -11   -1    0    0    0    0  0.00000000000E+00  0.00000000000E+00  0.45593999997E+02  0.45594000000E+02  0.51100000000E-03 0.  1.
         11   -1    0    0    0    0 -0.00000000000E+00 -0.00000000000E+00 -0.45593999997E+02  0.45594000000E+02  0.51100000000E-03 0. -1.
         23    2    1    2    0    0  0.00000000000E+00  0.00000000000E+00  0.00000000000E+00  0.91188000000E+02  0.91188000000E+02 0.  0.
    9900012    2    3    3    0    0 -0.27549410805E+02 -0.20725843962E+02 -0.12932493415E+02  0.54367081630E+02  0.39999994192E+02 0.  0.
        -12    1    3    3    0    0  0.27549410805E+02  0.20725843962E+02  0.12932493415E+02  0.36820918370E+02  0.00000000000E+00 0.  1.
         11    1    4    4    0    0 -0.24535749744E+00 -0.14794931678E+02 -0.39667743962E+01  0.15319448523E+02  0.51100000000E-03 0. -1.
        -11    1    4    4    0    0 -0.14129372155E+02 -0.15387591875E+01  0.86330138309E+01  0.16629367558E+02  0.51100000000E-03 0.  1.
         12    1    4    4    0    0 -0.13174681153E+02 -0.43921530960E+01 -0.17598732850E+02  0.22418265549E+02  0.00000000000E+00 0. -1.
</event>
<event>
 8    1  0.2509489E-006  0.9118800E+02  0.7816164E-02  0.1184000E+00
        -11   -1    0    0    0    0  0.00000000000E+00  0.00000000000E+00  0.45593999997E+02  0.45594000000E+02  0.51100000000E-03 0.  1.
         11   -1    0    0    0    0 -0.00000000000E+00 -0.00000000000E+00 -0.45593999997E+02  0.45594000000E+02  0.51100000000E-03 0. -1.
         23    2    1    2    0    0 -0.44408920985E-15  0.35527136788E-14  0.00000000000E+00  0.91188000000E+02  0.91188000000E+02 0.  0.
    9900012    2    3    3    0    0  0.32959123718E+01  0.18632584876E+02  0.31587109806E+02  0.54367058086E+02  0.39999940518E+02 0.  0.
         12    1    3    3    0    0 -0.32959123718E+01 -0.18632584876E+02 -0.31587109806E+02  0.36820941914E+02  0.00000000000E+00 0. -1.
         11    1    4    4    0    0 -0.37071123516E+00 -0.12648439041E+01 -0.31035728110E+01  0.33718572591E+01  0.51100000000E-03 0. -1.
        -11    1    4    4    0    0  0.72480502201E+01 -0.96962652636E+00  0.27776029255E+02  0.28722503530E+02  0.51100000000E-03 0.  1.
        -12    1    4    4    0    0 -0.35814266132E+01  0.20867055307E+02  0.69146533622E+01  0.22272697297E+02  0.00000000000E+00 0.  1.
</event>
<event>
 8    1  0.2509489E-006  0.9118800E+02  0.7816164E-02  0.1184000E+00
        -11   -1    0    0    0    0  0.00000000000E+00  0.00000000000E+00  0.45593999997E+02  0.45594000000E+02  0.51100000000E-03 0. -1.
         11   -1    0    0    0    0 -0.00000000000E+00 -0.00000000000E+00 -0.45593999997E+02  0.45594000000E+02  0.51100000000E-03 0.  1.
         23    2    1    2    0    0  0.00000000000E+00  0.88817841970E-15 -0.88817841970E-15  0.91188000000E+02  0.91188000000E+02 0.  0.
    9900012    2    3    3    0    0 -0.35386882374E+02  0.74613557767E+01  0.69194120621E+01  0.54367061154E+02  0.39999947513E+02 0.  0.
        -12    1    3    3    0    0  0.35386882374E+02 -0.74613557767E+01 -0.69194120621E+01  0.36820938846E+02  0.00000000000E+00 0.  1.
         11    1    4    4    0    0 -0.60142094657E+01  0.19101269430E+02  0.44582813704E+00  0.20030675783E+02  0.51100000000E-03 0. -1.
        -11    1    4    4    0    0 -0.43519487258E+01 -0.63578687486E+01 -0.81005799208E+00  0.77471379843E+01  0.51100000000E-03 0.  1.
         12    1    4    4    0    0 -0.25020724183E+02 -0.52820449051E+01  0.72836419171E+01  0.26589247387E+02  0.00000000000E+00 0. -1.
</event>
<event>
 8    1  0.2509489E-006  0.9118800E+02  0.7816164E-02  0.1184000E+00
        -11   -1    0    0    0    0  0.00000000000E+00  0.00000000000E+00  0.45593999997E+02  0.45594000000E+02  0.51100000000E-03 0.  1.
         11   -1    0    0    0    0 -0.00000000000E+00 -0.00000000000E+00 -0.45593999997E+02  0.45594000000E+02  0.51100000000E-03 0. -1.
         23    2    1    2    0    0  0.35527136788E-14  0.00000000000E+00  0.00000000000E+00  0.91188000000E+02  0.91188000000E+02 0.  0.
    9900012    2    3    3    0    0 -0.26240962682E+02 -0.23926902627E+02 -0.97311797375E+01  0.54367073194E+02  0.39999974960E+02 0.  0.
        -12    1    3    3    0    0  0.26240962682E+02  0.23926902627E+02  0.97311797375E+01  0.36820926806E+02  0.00000000000E+00 0.  1.
         11    1    4    4    0    0 -0.29063234361E+01 -0.21903199263E+02 -0.17299412951E+02  0.28061834270E+02  0.51100000000E-03 0. -1.
        -11    1    4    4    0    0 -0.15167320175E+02 -0.57420154589E+01  0.49981230989E+01  0.16970550303E+02  0.51100000000E-03 0.  1.
         12    1    4    4    0    0 -0.81673190704E+01  0.37183120950E+01  0.25701101150E+01  0.93346886202E+01  0.00000000000E+00 0. -1.
</event>
<event>
 8    1  0.2509489E-006  0.9118800E+02  0.7816164E-02  0.1184000E+00
        -11   -1    0    0    0    0  0.00000000000E+00  0.00000000000E+00  0.45593999997E+02  0.45594000000E+02  0.51100000000E-03 0.  1.
         11   -1    0    0    0    0 -0.00000000000E+00 -0.00000000000E+00 -0.45593999997E+02  0.45594000000E+02  0.51100000000E-03 0. -1.
         23    2    1    2    0    0  0.88817841970E-15  0.00000000000E+00 -0.35527136788E-14  0.91188000000E+02  0.91188000000E+02 0.  0.
    9900012    2    3    3    0    0 -0.70679710016E+01  0.21206685769E+02  0.29259177972E+02  0.54367092475E+02  0.40000018915E+02 0.  0.
         12    1    3    3    0    0  0.70679710016E+01 -0.21206685769E+02 -0.29259177972E+02  0.36820907525E+02  0.00000000000E+00 0. -1.
         11    1    4    4    0    0 -0.10980159876E+02  0.41824525231E+01 -0.31182139528E+01  0.12156482983E+02  0.51100000000E-03 0. -1.
        -11    1    4    4    0    0 -0.55697279181E+01  0.16150795327E+02  0.16847408147E+02  0.23993857971E+02  0.51100000000E-03 0.  1.
        -12    1    4    4    0    0  0.94819167923E+01  0.87343791852E+00  0.15529983778E+02  0.18216751521E+02  0.00000000000E+00 0.  1.
</event>
<event>
 8    1  0.2509489E-006  0.9118800E+02  0.7816164E-02  0.1184000E+00
        -11   -1    0    0    0    0  0.00000000000E+00  0.00000000000E+00  0.45593999997E+02  0.45594000000E+02  0.51100000000E-03 0.  1.
         11   -1    0    0    0    0 -0.00000000000E+00 -0.00000000000E+00 -0.45593999997E+02  0.45594000000E+02  0.51100000000E-03 0. -1.
         23    2    1    2    0    0 -0.17763568394E-14  0.00000000000E+00  0.00000000000E+00  0.91188000000E+02  0.91188000000E+02 0.  0.
    9900012    2    3    3    0    0 -0.15901144810E+02  0.10914385872E+02  0.31365861124E+02  0.54366980605E+02  0.39999763884E+02 0.  0.
         12    1    3    3    0    0  0.15901144810E+02 -0.10914385872E+02 -0.31365861124E+02  0.36821019395E+02  0.00000000000E+00 0. -1.
         11    1    4    4    0    0 -0.72089300190E+01 -0.21796178124E+01 -0.30595711311E+01  0.81289840444E+01  0.51100000000E-03 0. -1.
        -11    1    4    4    0    0  0.82394599265E+01 -0.98348829980E+00  0.58034081970E+01  0.10125981240E+02  0.51100000000E-03 0.  1.
        -12    1    4    4    0    0 -0.16931674717E+02  0.14077491985E+02  0.28622024058E+02  0.36112015320E+02  0.00000000000E+00 0.  1.
</event>
<event>
 8    1  0.2509489E-006  0.9118800E+02  0.7816164E-02  0.1184000E+00
        -11   -1    0    0    0    0  0.00000000000E+00  0.00000000000E+00  0.45593999997E+02  0.45594000000E+02  0.51100000000E-03 0.  1.
         11   -1    0    0    0    0 -0.00000000000E+00 -0.00000000000E+00 -0.45593999997E+02  0.45594000000E+02  0.51100000000E-03 0. -1.
         23    2    1    2    0    0  0.00000000000E+00 -0.71054273576E-14  0.35527136788E-14  0.91188000000E+02  0.91188000000E+02 0.  0.
    9900012    2    3    3    0    0  0.78201830735E+01  0.34538626531E+02 -0.10084987599E+02  0.54367096144E+02  0.40000027279E+02 0.  0.
         12    1    3    3    0    0 -0.78201830735E+01 -0.34538626531E+02  0.10084987599E+02  0.36820903856E+02  0.00000000000E+00 0. -1.
         11    1    4    4    0    0 -0.10073619686E+02  0.89942204922E+01 -0.55809474898E+00  0.13516112084E+02  0.51100000000E-03 0. -1.
        -11    1    4    4    0    0  0.98006362784E+01  0.28454148398E+02 -0.11159359625E+02  0.32097076814E+02  0.51100000000E-03 0.  1.
         12    1    4    4    0    0  0.80931664815E+01 -0.29097423596E+01  0.16324667755E+01  0.87539072459E+01  0.00000000000E+00 0. -1.
</event>
<event>
 8    1  0.2509489E-006  0.9118800E+02  0.7816164E-02  0.1184000E+00
        -11   -1    0    0    0    0  0.00000000000E+00  0.00000000000E+00  0.45593999997E+02  0.45594000000E+02  0.51100000000E-03 0. -1.
         11   -1    0    0    0    0 -0.00000000000E+00 -0.00000000000E+00 -0.45593999997E+02  0.45594000000E+02  0.51100000000E-03 0.  1.
         23    2    1    2    0    0  0.35527136788E-14  0.00000000000E+00  0.00000000000E+00  0.91188000000E+02  0.91188000000E+02 0.  0.
    9900012    2    3    3    0    0  0.26904733515E+02 -0.17480266193E+02  0.18065318255E+02  0.54367080465E+02  0.39999991537E+02 0.  0.
         12    1    3    3    0    0 -0.26904733515E+02  0.17480266193E+02 -0.18065318255E+02  0.36820919535E+02  0.00000000000E+00 0. -1.
         11    1    4    4    0    0  0.11593323835E+02 -0.16191109194E+02  0.91114755114E+01  0.21899227400E+02  0.51100000000E-03 0. -1.
        -11    1    4    4    0    0  0.12556037044E+02 -0.10231692366E+02  0.14372867015E+02  0.21654581534E+02  0.51100000000E-03 0.  1.
        -12    1    4    4    0    0  0.27553726366E+01  0.89425353667E+01 -0.54190242715E+01  0.10813271531E+02  0.00000000000E+00 0.  1.
</event>
<event>
 8    1  0.2509489E-006  0.9118800E+02  0.7816164E-02  0.1184000E+00
        -11   -1    0    0    0    0  0.00000000000E+00  0.00000000000E+00  0.45593999997E+02  0.45594000000E+02  0.51100000000E-03 0. -1.
         11   -1    0    0    0    0 -0.00000000000E+00 -0.00000000000E+00 -0.45593999997E+02  0.45594000000E+02  0.51100000000E-03 0.  1.
         23    2    1    2    0    0  0.11102230246E-15  0.35527136788E-14  0.71054273576E-14  0.91188000000E+02  0.91188000000E+02 0.  0.
    9900012    2    3    3    0    0  0.34855711153E+00  0.25026053870E+02  0.27006572525E+02  0.54367084423E+02  0.40000000560E+02 0.  0.
        -12    1    3    3    0    0 -0.34855711153E+00 -0.25026053870E+02 -0.27006572525E+02  0.36820915577E+02  0.00000000000E+00 0.  1.
         11    1    4    4    0    0 -0.10645078908E+02  0.60395216100E+01  0.16385969394E+02  0.20452225294E+02  0.51100000000E-03 0. -1.
        -11    1    4    4    0    0  0.18414005646E+01 -0.50360601873E+01 -0.13916911956E+01  0.55398071171E+01  0.51100000000E-03 0.  1.
         12    1    4    4    0    0  0.91522354548E+01  0.24022592447E+02  0.12012294326E+02  0.28375052012E+02  0.00000000000E+00 0. -1.
</event>
<event>
 8    1  0.2509489E-006  0.9118800E+02  0.7816164E-02  0.1184000E+00
        -11   -1    0    0    0    0  0.00000000000E+00  0.00000000000E+00  0.45593999997E+02  0.45594000000E+02  0.51100000000E-03 0. -1.
         11   -1    0    0    0    0 -0.00000000000E+00 -0.00000000000E+00 -0.45593999997E+02  0.45594000000E+02  0.51100000000E-03 0.  1.
         23    2    1    2    0    0  0.00000000000E+00  0.00000000000E+00  0.00000000000E+00  0.91188000000E+02  0.91188000000E+02 0.  0.
    9900012    2    3    3    0    0  0.91796250754E+01  0.28879149405E+02 -0.20916515485E+02  0.54367198720E+02  0.40000261121E+02 0.  0.
         12    1    3    3    0    0 -0.91796250754E+01 -0.28879149405E+02  0.20916515485E+02  0.36820801280E+02  0.00000000000E+00 0. -1.
         11    1    4    4    0    0 -0.12588799728E+01  0.97262650604E+01  0.80960147582E+01  0.12717329359E+02  0.51100000000E-03 0. -1.
        -11    1    4    4    0    0  0.58061513456E+01  0.22375011880E+02 -0.18079597807E+02  0.29346625141E+02  0.51100000000E-03 0.  1.
        -12    1    4    4    0    0  0.46323537026E+01 -0.32221275348E+01 -0.10932932436E+02  0.12303244219E+02  0.00000000000E+00 0.  1.
</event>
<event>
 8    1  0.2509489E-006  0.9118800E+02  0.7816164E-02  0.1184000E+00
        -11   -1    0    0    0    0  0.00000000000E+00  0.00000000000E+00  0.45593999997E+02  0.45594000000E+02  0.51100000000E-03 0.  1.
         11   -1    0    0    0    0 -0.00000000000E+00 -0.00000000000E+00 -0.45593999997E+02  0.45594000000E+02  0.51100000000E-03 0. -1.
         23    2    1    2    0    0 -0.71054273576E-14  0.00000000000E+00  0.00000000000E+00  0.91188000000E+02  0.91188000000E+02 0.  0.
    9900012    2    3    3    0    0 -0.33196208748E+02 -0.88037316569E+01  0.13277279481E+02  0.54367080446E+02  0.39999991493E+02 0.  0.
        -12    1    3    3    0    0  0.33196208748E+02  0.88037316569E+01 -0.13277279481E+02  0.36820919554E+02  0.00000000000E+00 0.  1.
         11    1    4    4    0    0 -0.11667715731E+02  0.57753340220E+01 -0.82551419484E+01  0.15415493579E+02  0.51100000000E-03 0. -1.
        -11    1    4    4    0    0 -0.36520581044E+01  0.47785609610E+01  0.52035512640E+01  0.79529314893E+01  0.51100000000E-03 0.  1.
         12    1    4    4    0    0 -0.17876434913E+02 -0.19357626640E+02  0.16328870166E+02  0.30998655378E+02  0.00000000000E+00 0. -1.
</event>
<event>
 8    1  0.2509489E-006  0.9118800E+02  0.7816164E-02  0.1184000E+00
        -11   -1    0    0    0    0  0.00000000000E+00  0.00000000000E+00  0.45593999997E+02  0.45594000000E+02  0.51100000000E-03 0. -1.
         11   -1    0    0    0    0 -0.00000000000E+00 -0.00000000000E+00 -0.45593999997E+02  0.45594000000E+02  0.51100000000E-03 0.  1.
         23    2    1    2    0    0 -0.22204460493E-15  0.00000000000E+00  0.00000000000E+00  0.91188000000E+02  0.91188000000E+02 0.  0.
    9900012    2    3    3    0    0 -0.61723351464E-01 -0.26703960656E+02 -0.25351239855E+02  0.54366936915E+02  0.39999664284E+02 0.  0.
         12    1    3    3    0    0  0.61723351464E-01  0.26703960656E+02  0.25351239855E+02  0.36821063085E+02  0.00000000000E+00 0. -1.
         11    1    4    4    0    0  0.56710640014E+01  0.66487893213E+01  0.47302341871E+00  0.87516351479E+01  0.51100000000E-03 0. -1.
        -11    1    4    4    0    0  0.15604642156E+01 -0.16592247485E+02 -0.39832901386E+01  0.17134886220E+02  0.51100000000E-03 0.  1.
        -12    1    4    4    0    0 -0.72932515684E+01 -0.16760502492E+02 -0.21840973136E+02  0.28480415547E+02  0.00000000000E+00 0.  1.
</event>
<event>
 8    1  0.2509489E-006  0.9118800E+02  0.7816164E-02  0.1184000E+00
        -11   -1    0    0    0    0  0.00000000000E+00  0.00000000000E+00  0.45593999997E+02  0.45594000000E+02  0.51100000000E-03 0.  1.
         11   -1    0    0    0    0 -0.00000000000E+00 -0.00000000000E+00 -0.45593999997E+02  0.45594000000E+02  0.51100000000E-03 0. -1.
         23    2    1    2    0    0  0.00000000000E+00  0.35527136788E-14  0.17763568394E-14  0.91188000000E+02  0.91188000000E+02 0.  0.
    9900012    2    3    3    0    0 -0.25582442872E+02 -0.23030707809E+02 -0.13073118258E+02  0.54367064292E+02  0.39999954665E+02 0.  0.
        -12    1    3    3    0    0  0.25582442872E+02  0.23030707809E+02  0.13073118258E+02  0.36820935708E+02  0.00000000000E+00 0.  1.
         11    1    4    4    0    0 -0.87937126901E+01  0.58596577347E+01 -0.42488639523E+01  0.11389372976E+02  0.51100000000E-03 0. -1.
        -11    1    4    4    0    0 -0.13771904943E+02 -0.33365120245E+02 -0.51792575252E+01  0.36465344143E+02  0.51100000000E-03 0.  1.
        -12    1    4    4    0    0 -0.30168252388E+01  0.44747547016E+01 -0.36449967804E+01  0.65123471722E+01  0.00000000000E+00 0.  1.
</event>
<event>
 8    1  0.2509489E-006  0.9118800E+02  0.7816164E-02  0.1184000E+00
        -11   -1    0    0    0    0  0.00000000000E+00  0.00000000000E+00  0.45593999997E+02  0.45594000000E+02  0.51100000000E-03 0.  1.
         11   -1    0    0    0    0 -0.00000000000E+00 -0.00000000000E+00 -0.45593999997E+02  0.45594000000E+02  0.51100000000E-03 0. -1.
         23    2    1    2    0    0  0.35527136788E-14  0.00000000000E+00 -0.71054273576E-14  0.91188000000E+02  0.91188000000E+02 0.  0.
    9900012    2    3    3    0    0 -0.14636890436E+02 -0.58597654919E+01  0.33274704891E+02  0.54367063037E+02  0.39999951806E+02 0.  0.
         12    1    3    3    0    0  0.14636890436E+02  0.58597654919E+01 -0.33274704891E+02  0.36820936963E+02  0.00000000000E+00 0. -1.
         11    1    4    4    0    0  0.42857426827E+01  0.29271894563E+00  0.22786573691E+02  0.23187954105E+02  0.51100000000E-03 0. -1.
        -11    1    4    4    0    0 -0.85840266850E+01 -0.12246768838E+00  0.15880020750E+02  0.18052024035E+02  0.51100000000E-03 0.  1.
         12    1    4    4    0    0 -0.10338606433E+02 -0.60300167492E+01 -0.53918895507E+01  0.13127084897E+02  0.00000000000E+00 0. -1.
</event>
<event>
 8    1  0.2509489E-006  0.9118800E+02  0.7816164E-02  0.1184000E+00
        -11   -1    0    0    0    0  0.00000000000E+00  0.00000000000E+00  0.45593999997E+02  0.45594000000E+02  0.51100000000E-03 0.  1.
         11   -1    0    0    0    0 -0.00000000000E+00 -0.00000000000E+00 -0.45593999997E+02  0.45594000000E+02  0.51100000000E-03 0. -1.
         23    2    1    2    0    0  0.00000000000E+00  0.00000000000E+00 -0.88817841970E-15  0.91188000000E+02  0.91188000000E+02 0.  0.
    9900012    2    3    3    0    0 -0.35778579844E+02 -0.50309880305E+01  0.70966730308E+01  0.54367076814E+02  0.39999983212E+02 0.  0.
         12    1    3    3    0    0  0.35778579844E+02  0.50309880305E+01 -0.70966730308E+01  0.36820923186E+02  0.00000000000E+00 0. -1.
         11    1    4    4    0    0 -0.53630762502E+01 -0.46874378187E+01  0.46762201396E+01  0.85206628396E+01  0.51100000000E-03 0. -1.
        -11    1    4    4    0    0 -0.34345858757E+02 -0.71615320273E+01 -0.44932686403E+01  0.35371104281E+02  0.51100000000E-03 0.  1.
        -12    1    4    4    0    0  0.39303551637E+01  0.68179818155E+01  0.69137215314E+01  0.10475309693E+02  0.00000000000E+00 0.  1.
</event>
<event>
 8    1  0.2509489E-006  0.9118800E+02  0.7816164E-02  0.1184000E+00
        -11   -1    0    0    0    0  0.00000000000E+00  0.00000000000E+00  0.45593999997E+02  0.45594000000E+02  0.51100000000E-03 0.  1.
         11   -1    0    0    0    0 -0.00000000000E+00 -0.00000000000E+00 -0.45593999997E+02  0.45594000000E+02  0.51100000000E-03 0. -1.
         23    2    1    2    0    0  0.00000000000E+00 -0.35527136788E-14  0.00000000000E+00  0.91188000000E+02  0.91188000000E+02 0.  0.
    9900012    2    3    3    0    0  0.92770739219E+01 -0.28877324126E+02 -0.20876193309E+02  0.54367090230E+02  0.40000013797E+02 0.  0.
        -12    1    3    3    0    0 -0.92770739219E+01  0.28877324126E+02  0.20876193309E+02  0.36820909770E+02  0.00000000000E+00 0.  1.
         11    1    4    4    0    0  0.16635426085E+02 -0.17651478717E+02 -0.36090932476E+01  0.24522187020E+02  0.51100000000E-03 0. -1.
        -11    1    4    4    0    0 -0.10709140798E+02 -0.15515500525E+02 -0.14153184138E+02  0.23573906648E+02  0.51100000000E-03 0.  1.
        -12    1    4    4    0    0  0.33507886347E+01  0.42896551164E+01 -0.31139159235E+01  0.62709965612E+01  0.00000000000E+00 0.  1.
</event>
<event>
 8    1  0.2509489E-006  0.9118800E+02  0.7816164E-02  0.1184000E+00
        -11   -1    0    0    0    0  0.00000000000E+00  0.00000000000E+00  0.45593999997E+02  0.45594000000E+02  0.51100000000E-03 0.  1.
         11   -1    0    0    0    0 -0.00000000000E+00 -0.00000000000E+00 -0.45593999997E+02  0.45594000000E+02  0.51100000000E-03 0. -1.
         23    2    1    2    0    0  0.00000000000E+00 -0.71054273576E-14  0.00000000000E+00  0.91188000000E+02  0.91188000000E+02 0.  0.
    9900012    2    3    3    0    0  0.13634067234E+02  0.32831284648E+02 -0.95916359678E+01  0.54367074950E+02  0.39999978963E+02 0.  0.
         12    1    3    3    0    0 -0.13634067234E+02 -0.32831284648E+02  0.95916359678E+01  0.36820925050E+02  0.00000000000E+00 0. -1.
         11    1    4    4    0    0  0.74157451869E+01  0.77442891289E+01 -0.65004993213E+01  0.12538890799E+02  0.51100000000E-03 0. -1.
        -11    1    4    4    0    0  0.66543717452E+01 -0.17622969499E+01 -0.11746456558E+02  0.13614903444E+02  0.51100000000E-03 0.  1.
        -12    1    4    4    0    0 -0.43604969773E+00  0.26849292469E+02  0.86553199118E+01  0.28213280706E+02  0.00000000000E+00 0.  1.
</event>
<event>
 8    1  0.2509489E-006  0.9118800E+02  0.7816164E-02  0.1184000E+00
        -11   -1    0    0    0    0  0.00000000000E+00  0.00000000000E+00  0.45593999997E+02  0.45594000000E+02  0.51100000000E-03 0. -1.
         11   -1    0    0    0    0 -0.00000000000E+00 -0.00000000000E+00 -0.45593999997E+02  0.45594000000E+02  0.51100000000E-03 0.  1.
         23    2    1    2    0    0  0.00000000000E+00 -0.17763568394E-14  0.00000000000E+00  0.91188000000E+02  0.91188000000E+02 0.  0.
    9900012    2    3    3    0    0 -0.26920366324E+02  0.14157725052E+02 -0.20751698493E+02  0.54367078067E+02  0.39999986068E+02 0.  0.
         12    1    3    3    0    0  0.26920366324E+02 -0.14157725052E+02  0.20751698493E+02  0.36820921933E+02  0.00000000000E+00 0. -1.
         11    1    4    4    0    0 -0.17548579030E+02  0.16442154400E+02 -0.25686378133E+01  0.24184601873E+02  0.51100000000E-03 0. -1.
        -11    1    4    4    0    0 -0.13145777920E+02 -0.68310418348E+01 -0.19132658096E+02  0.24197793613E+02  0.51100000000E-03 0.  1.
        -12    1    4    4    0    0  0.37739906250E+01  0.45466124862E+01  0.94959741610E+00  0.59846825805E+01  0.00000000000E+00 0.  1.
</event>
<event>
 8    1  0.2509489E-006  0.9118800E+02  0.7816164E-02  0.1184000E+00
        -11   -1    0    0    0    0  0.00000000000E+00  0.00000000000E+00  0.45593999997E+02  0.45594000000E+02  0.51100000000E-03 0.  1.
         11   -1    0    0    0    0 -0.00000000000E+00 -0.00000000000E+00 -0.45593999997E+02  0.45594000000E+02  0.51100000000E-03 0. -1.
         23    2    1    2    0    0  0.00000000000E+00  0.00000000000E+00 -0.35527136788E-14  0.91188000000E+02  0.91188000000E+02 0.  0.
    9900012    2    3    3    0    0  0.12424873259E+02 -0.27542228859E+02 -0.21043498203E+02  0.54367073034E+02  0.39999974596E+02 0.  0.
        -12    1    3    3    0    0 -0.12424873259E+02  0.27542228859E+02  0.21043498203E+02  0.36820926966E+02  0.00000000000E+00 0.  1.
         11    1    4    4    0    0  0.20421178748E+00 -0.13365300915E+01 -0.20182929884E+02  0.20228165367E+02  0.51100000000E-03 0. -1.
        -11    1    4    4    0    0  0.11954629261E+02 -0.16164490635E+02 -0.81852470562E+01  0.21707192077E+02  0.51100000000E-03 0.  1.
        -12    1    4    4    0    0  0.26603221140E+00 -0.10041208132E+02  0.73246787378E+01  0.12431715590E+02  0.00000000000E+00 0.  1.
</event>
<event>
 8    1  0.2509489E-006  0.9118800E+02  0.7816164E-02  0.1184000E+00
        -11   -1    0    0    0    0  0.00000000000E+00  0.00000000000E+00  0.45593999997E+02  0.45594000000E+02  0.51100000000E-03 0. -1.
         11   -1    0    0    0    0 -0.00000000000E+00 -0.00000000000E+00 -0.45593999997E+02  0.45594000000E+02  0.51100000000E-03 0.  1.
         23    2    1    2    0    0  0.13496148643E-14 -0.35527136788E-14  0.00000000000E+00  0.91188000000E+02  0.91188000000E+02 0.  0.
    9900012    2    3    3    0    0 -0.14344865835E-01  0.26726189657E+02 -0.25327646654E+02  0.54367094194E+02  0.40000022834E+02 0.  0.
         12    1    3    3    0    0  0.14344865835E-01 -0.26726189657E+02  0.25327646654E+02  0.36820905806E+02  0.00000000000E+00 0. -1.
         11    1    4    4    0    0 -0.10705059616E+02 -0.57530699704E+01 -0.26836523937E+01  0.12445806759E+02  0.51100000000E-03 0. -1.
        -11    1    4    4    0    0 -0.12732399135E+01  0.63805377615E+01 -0.32366723691E+01  0.72669422930E+01  0.51100000000E-03 0.  1.
         12    1    4    4    0    0  0.11963954663E+02  0.26098721866E+02 -0.19407321891E+02  0.34654345142E+02  0.00000000000E+00 0. -1.
</event>
<event>
 8    1  0.2509489E-006  0.9118800E+02  0.7816164E-02  0.1184000E+00
        -11   -1    0    0    0    0  0.00000000000E+00  0.00000000000E+00  0.45593999997E+02  0.45594000000E+02  0.51100000000E-03 0.  1.
         11   -1    0    0    0    0 -0.00000000000E+00 -0.00000000000E+00 -0.45593999997E+02  0.45594000000E+02  0.51100000000E-03 0. -1.
         23    2    1    2    0    0  0.00000000000E+00 -0.35527136788E-14  0.17763568394E-14  0.91188000000E+02  0.91188000000E+02 0.  0.
    9900012    2    3    3    0    0 -0.29719064325E+02 -0.20546791669E+02  0.70983989836E+01  0.54367072522E+02  0.39999973427E+02 0.  0.
        -12    1    3    3    0    0  0.29719064325E+02  0.20546791669E+02 -0.70983989836E+01  0.36820927478E+02  0.00000000000E+00 0.  1.
         11    1    4    4    0    0 -0.17594760475E+02 -0.14578589707E+02 -0.75367522991E+01  0.24060621552E+02  0.51100000000E-03 0. -1.
        -11    1    4    4    0    0 -0.13845795227E+02  0.43362532413E+01  0.13464178686E+02  0.19793767847E+02  0.51100000000E-03 0.  1.
        -12    1    4    4    0    0  0.17214913768E+01 -0.10304455204E+02  0.11709725969E+01  0.10512683122E+02  0.00000000000E+00 0.  1.
</event>
<event>
 8    1  0.2509489E-006  0.9118800E+02  0.7816164E-02  0.1184000E+00
        -11   -1    0    0    0    0  0.00000000000E+00  0.00000000000E+00  0.45593999997E+02  0.45594000000E+02  0.51100000000E-03 0. -1.
         11   -1    0    0    0    0 -0.00000000000E+00 -0.00000000000E+00 -0.45593999997E+02  0.45594000000E+02  0.51100000000E-03 0.  1.
         23    2    1    2    0    0  0.17763568394E-14  0.00000000000E+00  0.00000000000E+00  0.91188000000E+02  0.91188000000E+02 0.  0.
    9900012    2    3    3    0    0  0.11722006727E+02 -0.71486138468E+01 -0.34165354622E+02  0.54367087761E+02  0.40000008169E+02 0.  0.
         12    1    3    3    0    0 -0.11722006727E+02  0.71486138468E+01  0.34165354622E+02  0.36820912239E+02  0.00000000000E+00 0. -1.
         11    1    4    4    0    0  0.14747449321E+02 -0.29814206396E+01 -0.96894712692E+01  0.17895865004E+02  0.51100000000E-03 0. -1.
        -11    1    4    4    0    0 -0.33878062980E+01 -0.46079978836E+01  0.46307544510E+01  0.73589919863E+01  0.51100000000E-03 0.  1.
        -12    1    4    4    0    0  0.36236370436E+00  0.44080467636E+00 -0.29106637804E+02  0.29112230771E+02  0.00000000000E+00 0.  1.
</event>
<event>
 8    1  0.2509489E-006  0.9118800E+02  0.7816164E-02  0.1184000E+00
        -11   -1    0    0    0    0  0.00000000000E+00  0.00000000000E+00  0.45593999997E+02  0.45594000000E+02  0.51100000000E-03 0.  1.
         11   -1    0    0    0    0 -0.00000000000E+00 -0.00000000000E+00 -0.45593999997E+02  0.45594000000E+02  0.51100000000E-03 0. -1.
         23    2    1    2    0    0  0.44408920985E-15 -0.35527136788E-14  0.35527136788E-14  0.91188000000E+02  0.91188000000E+02 0.  0.
    9900012    2    3    3    0    0  0.27236201640E+01  0.30958861976E+02 -0.19746104563E+02  0.54367110724E+02  0.40000060518E+02 0.  0.
        -12    1    3    3    0    0 -0.27236201640E+01 -0.30958861976E+02  0.19746104563E+02  0.36820889276E+02  0.00000000000E+00 0.  1.
         11    1    4    4    0    0  0.15215198344E+01  0.42329304982E+01 -0.60579190298E+01  0.75452704684E+01  0.51100000000E-03 0. -1.
        -11    1    4    4    0    0 -0.10564321069E+02 -0.33190582239E+01 -0.88894124674E+01  0.14200094416E+02  0.51100000000E-03 0.  1.
         12    1    4    4    0    0  0.11766421399E+02  0.30044989702E+02 -0.47987730657E+01  0.32621745840E+02  0.00000000000E+00 0. -1.
</event>
<event>
 8    1  0.2509489E-006  0.9118800E+02  0.7816164E-02  0.1184000E+00
        -11   -1    0    0    0    0  0.00000000000E+00  0.00000000000E+00  0.45593999997E+02  0.45594000000E+02  0.51100000000E-03 0. -1.
         11   -1    0    0    0    0 -0.00000000000E+00 -0.00000000000E+00 -0.45593999997E+02  0.45594000000E+02  0.51100000000E-03 0.  1.
         23    2    1    2    0    0  0.00000000000E+00  0.00000000000E+00  0.00000000000E+00  0.91188000000E+02  0.91188000000E+02 0.  0.
    9900012    2    3    3    0    0  0.30758493407E+02 -0.15853131352E+02  0.12584633084E+02  0.54367086375E+02  0.40000005008E+02 0.  0.
        -12    1    3    3    0    0 -0.30758493407E+02  0.15853131352E+02 -0.12584633084E+02  0.36820913625E+02  0.00000000000E+00 0.  1.
         11    1    4    4    0    0  0.27493268509E+02 -0.29152638088E+01  0.50420009433E+01  0.28103386809E+02  0.51100000000E-03 0. -1.
        -11    1    4    4    0    0  0.77102897391E+01  0.94295948373E-01 -0.36386379258E+01  0.85262621238E+01  0.51100000000E-03 0.  1.
         12    1    4    4    0    0 -0.44450648406E+01 -0.13032163491E+02  0.11181270066E+02  0.17737437442E+02  0.00000000000E+00 0. -1.
</event>
<event>
 8    1  0.2509489E-006  0.9118800E+02  0.7816164E-02  0.1184000E+00
        -11   -1    0    0    0    0  0.00000000000E+00  0.00000000000E+00  0.45593999997E+02  0.45594000000E+02  0.51100000000E-03 0. -1.
         11   -1    0    0    0    0 -0.00000000000E+00 -0.00000000000E+00 -0.45593999997E+02  0.45594000000E+02  0.51100000000E-03 0.  1.
         23    2    1    2    0    0  0.14210854715E-13  0.35527136788E-14  0.17763568394E-14  0.91188000000E+02  0.91188000000E+02 0.  0.
    9900012    2    3    3    0    0  0.35506499023E+02  0.43871224369E+01  0.87075801348E+01  0.54367078393E+02  0.39999986813E+02 0.  0.
        -12    1    3    3    0    0 -0.35506499023E+02 -0.43871224369E+01 -0.87075801348E+01  0.36820921607E+02  0.00000000000E+00 0.  1.
         11    1    4    4    0    0  0.30132277164E+02  0.13193840597E+01 -0.61751361382E+01  0.30786802497E+02  0.51100000000E-03 0. -1.
        -11    1    4    4    0    0  0.50566889014E+01 -0.50939848958E+01  0.69738451971E+00  0.72114582571E+01  0.51100000000E-03 0.  1.
        -12    1    4    4    0    0  0.31753295765E+00  0.81617232730E+01  0.14185331753E+02  0.16368817639E+02  0.00000000000E+00 0.  1.
</event>
<event>
 8    1  0.2509489E-006  0.9118800E+02  0.7816164E-02  0.1184000E+00
        -11   -1    0    0    0    0  0.00000000000E+00  0.00000000000E+00  0.45593999997E+02  0.45594000000E+02  0.51100000000E-03 0.  1.
         11   -1    0    0    0    0 -0.00000000000E+00 -0.00000000000E+00 -0.45593999997E+02  0.45594000000E+02  0.51100000000E-03 0. -1.
         23    2    1    2    0    0  0.00000000000E+00  0.00000000000E+00  0.00000000000E+00  0.91188000000E+02  0.91188000000E+02 0.  0.
    9900012    2    3    3    0    0  0.17568896198E+02  0.30210198410E+02  0.11595607739E+02  0.54367077681E+02  0.39999985190E+02 0.  0.
        -12    1    3    3    0    0 -0.17568896198E+02 -0.30210198410E+02 -0.11595607739E+02  0.36820922319E+02  0.00000000000E+00 0.  1.
         11    1    4    4    0    0  0.25339621902E+01  0.55713254565E+01 -0.13404408630E+02  0.14735630380E+02  0.51100000000E-03 0. -1.
        -11    1    4    4    0    0  0.12516147807E+02  0.14338000948E+02  0.10717292026E+02  0.21842448941E+02  0.51100000000E-03 0.  1.
         12    1    4    4    0    0  0.25187862007E+01  0.10300872006E+02  0.14282724342E+02  0.17788998360E+02  0.00000000000E+00 0. -1.
</event>
<event>
 8    1  0.2509489E-006  0.9118800E+02  0.7816164E-02  0.1184000E+00
        -11   -1    0    0    0    0  0.00000000000E+00  0.00000000000E+00  0.45593999997E+02  0.45594000000E+02  0.51100000000E-03 0.  1.
         11   -1    0    0    0    0 -0.00000000000E+00 -0.00000000000E+00 -0.45593999997E+02  0.45594000000E+02  0.51100000000E-03 0. -1.
         23    2    1    2    0    0 -0.88817841970E-15  0.00000000000E+00  0.11102230246E-15  0.91188000000E+02  0.91188000000E+02 0.  0.
    9900012    2    3    3    0    0  0.19445083628E+01  0.36767369180E+02  0.39762309728E+00  0.54367100319E+02  0.40000036798E+02 0.  0.
         12    1    3    3    0    0 -0.19445083628E+01 -0.36767369180E+02 -0.39762309728E+00  0.36820899681E+02  0.00000000000E+00 0. -1.
         11    1    4    4    0    0 -0.15826145263E+01  0.33780477480E+00  0.43956506757E+01  0.46840715119E+01  0.51100000000E-03 0.  1.
        -11    1    4    4    0    0 -0.10970238089E+02  0.26551662991E+02 -0.11043809025E+02  0.30778282106E+02  0.51100000000E-03 0. -1.
         12    1    4    4    0    0  0.14497360978E+02  0.98779014136E+01  0.70457814471E+01  0.18904746702E+02  0.00000000000E+00 0. -1.
</event>
<event>
 8    1  0.2509489E-006  0.9118800E+02  0.7816164E-02  0.1184000E+00
        -11   -1    0    0    0    0  0.00000000000E+00  0.00000000000E+00  0.45593999997E+02  0.45594000000E+02  0.51100000000E-03 0.  1.
         11   -1    0    0    0    0 -0.00000000000E+00 -0.00000000000E+00 -0.45593999997E+02  0.45594000000E+02  0.51100000000E-03 0. -1.
         23    2    1    2    0    0 -0.88817841970E-15  0.00000000000E+00 -0.71054273576E-14  0.91188000000E+02  0.91188000000E+02 0.  0.
    9900012    2    3    3    0    0 -0.65747909045E+01 -0.17484260521E+02 -0.31730933699E+02  0.54367090250E+02  0.40000013843E+02 0.  0.
        -12    1    3    3    0    0  0.65747909045E+01  0.17484260521E+02  0.31730933699E+02  0.36820909750E+02  0.00000000000E+00 0.  1.
         11    1    4    4    0    0 -0.12242785426E+02 -0.19935053769E+02 -0.15771012936E+02  0.28213773464E+02  0.51100000000E-03 0. -1.
        -11    1    4    4    0    0  0.32093510574E+01  0.47890361158E+01 -0.20036558330E+02  0.20849423759E+02  0.51100000000E-03 0.  1.
         12    1    4    4    0    0  0.24586434640E+01 -0.23382428676E+01  0.40766375670E+01  0.53038930272E+01  0.00000000000E+00 0. -1.
</event>
<event>
 8    1  0.2509489E-006  0.9118800E+02  0.7816164E-02  0.1184000E+00
        -11   -1    0    0    0    0  0.00000000000E+00  0.00000000000E+00  0.45593999997E+02  0.45594000000E+02  0.51100000000E-03 0.  1.
         11   -1    0    0    0    0 -0.00000000000E+00 -0.00000000000E+00 -0.45593999997E+02  0.45594000000E+02  0.51100000000E-03 0. -1.
         23    2    1    2    0    0  0.00000000000E+00  0.00000000000E+00 -0.35527136788E-14  0.91188000000E+02  0.91188000000E+02 0.  0.
    9900012    2    3    3    0    0  0.23151056075E+02  0.21508059797E+02  0.18900084773E+02  0.54367065221E+02  0.39999956783E+02 0.  0.
         12    1    3    3    0    0 -0.23151056075E+02 -0.21508059797E+02 -0.18900084773E+02  0.36820934779E+02  0.00000000000E+00 0. -1.
         11    1    4    4    0    0 -0.19559416755E+01 -0.77720765492E+00  0.14304522957E+01  0.25447895017E+01  0.51100000000E-03 0. -1.
        -11    1    4    4    0    0 -0.25263825809E+01  0.20959816908E+02  0.81373554231E+01  0.22625496399E+02  0.51100000000E-03 0.  1.
         12    1    4    4    0    0  0.27633380331E+02  0.13254505444E+01  0.93322770542E+01  0.29196779320E+02  0.00000000000E+00 0. -1.
</event>
<event>
 8    1  0.2509489E-006  0.9118800E+02  0.7816164E-02  0.1184000E+00
        -11   -1    0    0    0    0  0.00000000000E+00  0.00000000000E+00  0.45593999997E+02  0.45594000000E+02  0.51100000000E-03 0.  1.
         11   -1    0    0    0    0 -0.00000000000E+00 -0.00000000000E+00 -0.45593999997E+02  0.45594000000E+02  0.51100000000E-03 0. -1.
         23    2    1    2    0    0  0.00000000000E+00  0.00000000000E+00 -0.17763568394E-14  0.91188000000E+02  0.91188000000E+02 0.  0.
    9900012    2    3    3    0    0 -0.11776659457E+02 -0.32898374014E+02 -0.11609756373E+02  0.54367093388E+02  0.40000020996E+02 0.  0.
         12    1    3    3    0    0  0.11776659457E+02  0.32898374014E+02  0.11609756373E+02  0.36820906612E+02  0.00000000000E+00 0. -1.
         11    1    4    4    0    0 -0.51565505713E+00 -0.13672006690E+02  0.89581955207E+01  0.16353560295E+02  0.51100000000E-03 0.  1.
        -11    1    4    4    0    0 -0.32384164406E+01 -0.21835630366E+02 -0.93392128684E+01  0.23968792038E+02  0.51100000000E-03 0. -1.
         12    1    4    4    0    0 -0.80225879589E+01  0.26092630421E+01 -0.11228739026E+02  0.14044741054E+02  0.00000000000E+00 0. -1.
</event>
<event>
 8    1  0.2509489E-006  0.9118800E+02  0.7816164E-02  0.1184000E+00
        -11   -1    0    0    0    0  0.00000000000E+00  0.00000000000E+00  0.45593999997E+02  0.45594000000E+02  0.51100000000E-03 0. -1.
         11   -1    0    0    0    0 -0.00000000000E+00 -0.00000000000E+00 -0.45593999997E+02  0.45594000000E+02  0.51100000000E-03 0.  1.
         23    2    1    2    0    0  0.00000000000E+00  0.00000000000E+00  0.35527136788E-14  0.91188000000E+02  0.91188000000E+02 0.  0.
    9900012    2    3    3    0    0 -0.15516512830E+02 -0.31181903740E+02  0.11945970779E+02  0.54367088698E+02  0.40000010305E+02 0.  0.
        -12    1    3    3    0    0  0.15516512830E+02  0.31181903740E+02 -0.11945970779E+02  0.36820911302E+02  0.00000000000E+00 0.  1.
         11    1    4    4    0    0  0.95530954400E+01 -0.81531582913E+01 -0.37103179695E+00  0.12564763725E+02  0.51100000000E-03 0. -1.
        -11    1    4    4    0    0  0.84899171765E+00 -0.29539221776E+01 -0.41109385952E+01  0.51328607581E+01  0.51100000000E-03 0.  1.
         12    1    4    4    0    0 -0.25918599987E+02 -0.20074823271E+02  0.16427941172E+02  0.36669464215E+02  0.00000000000E+00 0. -1.
</event>
<event>
 8    1  0.2509489E-006  0.9118800E+02  0.7816164E-02  0.1184000E+00
        -11   -1    0    0    0    0  0.00000000000E+00  0.00000000000E+00  0.45593999997E+02  0.45594000000E+02  0.51100000000E-03 0.  1.
         11   -1    0    0    0    0 -0.00000000000E+00 -0.00000000000E+00 -0.45593999997E+02  0.45594000000E+02  0.51100000000E-03 0. -1.
         23    2    1    2    0    0 -0.35527136788E-14  0.00000000000E+00  0.00000000000E+00  0.91188000000E+02  0.91188000000E+02 0.  0.
    9900012    2    3    3    0    0  0.23624668279E+02  0.22452549779E+02 -0.17132958952E+02  0.54367078972E+02  0.39999988133E+02 0.  0.
        -12    1    3    3    0    0 -0.23624668279E+02 -0.22452549779E+02  0.17132958952E+02  0.36820921028E+02  0.00000000000E+00 0.  1.
         11    1    4    4    0    0  0.85564665535E+01  0.84227488365E+01  0.15944881538E+01  0.12111903673E+02  0.51100000000E-03 0. -1.
        -11    1    4    4    0    0  0.23533759289E+02  0.16849837066E+02 -0.13867245696E+02  0.32094475208E+02  0.51100000000E-03 0.  1.
        -12    1    4    4    0    0 -0.84655575633E+01 -0.28200361239E+01 -0.48602014096E+01  0.10160700091E+02  0.00000000000E+00 0.  1.
</event>
<event>
 8    1  0.2509489E-006  0.9118800E+02  0.7816164E-02  0.1184000E+00
        -11   -1    0    0    0    0  0.00000000000E+00  0.00000000000E+00  0.45593999997E+02  0.45594000000E+02  0.51100000000E-03 0.  1.
         11   -1    0    0    0    0 -0.00000000000E+00 -0.00000000000E+00 -0.45593999997E+02  0.45594000000E+02  0.51100000000E-03 0. -1.
         23    2    1    2    0    0  0.35527136788E-14  0.88817841970E-15  0.35527136788E-14  0.91188000000E+02  0.91188000000E+02 0.  0.
    9900012    2    3    3    0    0 -0.21032722183E+02 -0.79955796712E+01 -0.29145750059E+02  0.54367089593E+02  0.40000012344E+02 0.  0.
        -12    1    3    3    0    0  0.21032722183E+02  0.79955796712E+01  0.29145750059E+02  0.36820910407E+02  0.00000000000E+00 0.  1.
         11    1    4    4    0    0 -0.49457205701E+01 -0.95944171509E+01 -0.12159401780E+02  0.16259275640E+02  0.51100000000E-03 0. -1.
        -11    1    4    4    0    0  0.86681330790E+01  0.25056743129E+01 -0.23068096079E+01  0.93132328258E+01  0.51100000000E-03 0.  1.
         12    1    4    4    0    0 -0.24755134692E+02 -0.90683683316E+00 -0.14679538671E+02  0.28794581127E+02  0.00000000000E+00 0. -1.
</event>
<event>
 8    1  0.2509489E-006  0.9118800E+02  0.7816164E-02  0.1184000E+00
        -11   -1    0    0    0    0  0.00000000000E+00  0.00000000000E+00  0.45593999997E+02  0.45594000000E+02  0.51100000000E-03 0. -1.
         11   -1    0    0    0    0 -0.00000000000E+00 -0.00000000000E+00 -0.45593999997E+02  0.45594000000E+02  0.51100000000E-03 0.  1.
         23    2    1    2    0    0 -0.88817841970E-15  0.00000000000E+00  0.00000000000E+00  0.91188000000E+02  0.91188000000E+02 0.  0.
    9900012    2    3    3    0    0  0.61291327475E+01  0.85968552014E+01 -0.35274718207E+02  0.54367110112E+02  0.40000059122E+02 0.  0.
         12    1    3    3    0    0 -0.61291327475E+01 -0.85968552014E+01  0.35274718207E+02  0.36820889888E+02  0.00000000000E+00 0. -1.
         11    1    4    4    0    0  0.90513526866E+01 -0.11468565798E+02 -0.29865222310E+01  0.14912219895E+02  0.51100000000E-03 0. -1.
        -11    1    4    4    0    0  0.18706086425E+01  0.51047161930E+01 -0.15671293903E+02  0.16587548250E+02  0.51100000000E-03 0.  1.
         12    1    4    4    0    0 -0.47928285816E+01  0.14960704806E+02 -0.16616902073E+02  0.22867341966E+02  0.00000000000E+00 0. -1.
</event>
<event>
 8    1  0.2509489E-006  0.9118800E+02  0.7816164E-02  0.1184000E+00
        -11   -1    0    0    0    0  0.00000000000E+00  0.00000000000E+00  0.45593999997E+02  0.45594000000E+02  0.51100000000E-03 0.  1.
         11   -1    0    0    0    0 -0.00000000000E+00 -0.00000000000E+00 -0.45593999997E+02  0.45594000000E+02  0.51100000000E-03 0. -1.
         23    2    1    2    0    0  0.00000000000E+00  0.00000000000E+00  0.00000000000E+00  0.91188000000E+02  0.91188000000E+02 0.  0.
    9900012    2    3    3    0    0 -0.98778239739E+01 -0.26328702661E+02 -0.23769882505E+02  0.54367091475E+02  0.40000016637E+02 0.  0.
        -12    1    3    3    0    0  0.98778239739E+01  0.26328702661E+02  0.23769882505E+02  0.36820908525E+02  0.00000000000E+00 0.  1.
         11    1    4    4    0    0  0.29992584750E+01 -0.14573676243E+02 -0.24670904825E+02  0.28810434495E+02  0.51100000000E-03 0. -1.
        -11    1    4    4    0    0 -0.93951770367E+01 -0.15739362984E+02 -0.35155420231E+01  0.18664295718E+02  0.51100000000E-03 0.  1.
        -12    1    4    4    0    0 -0.34819054122E+01  0.39843365659E+01  0.44165643431E+01  0.68923612620E+01  0.00000000000E+00 0.  1.
</event>
<event>
 8    1  0.2509489E-006  0.9118800E+02  0.7816164E-02  0.1184000E+00
        -11   -1    0    0    0    0  0.00000000000E+00  0.00000000000E+00  0.45593999997E+02  0.45594000000E+02  0.51100000000E-03 0. -1.
         11   -1    0    0    0    0 -0.00000000000E+00 -0.00000000000E+00 -0.45593999997E+02  0.45594000000E+02  0.51100000000E-03 0.  1.
         23    2    1    2    0    0  0.00000000000E+00  0.00000000000E+00  0.00000000000E+00  0.91188000000E+02  0.91188000000E+02 0.  0.
    9900012    2    3    3    0    0 -0.31145660371E+02  0.19622186673E+02  0.83534470017E+00  0.54367079716E+02  0.39999989829E+02 0.  0.
        -12    1    3    3    0    0  0.31145660371E+02 -0.19622186673E+02 -0.83534470017E+00  0.36820920284E+02  0.00000000000E+00 0.  1.
         11    1    4    4    0    0  0.99414644671E+00  0.15616920789E+02  0.83124677344E+01  0.17719301967E+02  0.51100000000E-03 0.  1.
        -11    1    4    4    0    0 -0.11444899987E+02  0.76099542488E+01  0.14556933160E+01  0.13820860417E+02  0.51100000000E-03 0. -1.
        -12    1    4    4    0    0 -0.20694906831E+02 -0.36046883649E+01 -0.89328163503E+01  0.22826917332E+02  0.00000000000E+00 0.  1.
</event>
<event>
 8    1  0.2509489E-006  0.9118800E+02  0.7816164E-02  0.1184000E+00
        -11   -1    0    0    0    0  0.00000000000E+00  0.00000000000E+00  0.45593999997E+02  0.45594000000E+02  0.51100000000E-03 0.  1.
         11   -1    0    0    0    0 -0.00000000000E+00 -0.00000000000E+00 -0.45593999997E+02  0.45594000000E+02  0.51100000000E-03 0. -1.
         23    2    1    2    0    0 -0.35527136788E-14  0.35527136788E-14 -0.17763568394E-14  0.91188000000E+02  0.91188000000E+02 0.  0.
    9900012    2    3    3    0    0 -0.19960743417E+02  0.27936778537E+02  0.13299836953E+02  0.54367074757E+02  0.39999978523E+02 0.  0.
         12    1    3    3    0    0  0.19960743417E+02 -0.27936778537E+02 -0.13299836953E+02  0.36820925243E+02  0.00000000000E+00 0. -1.
         11    1    4    4    0    0 -0.88820594528E+01  0.24920054522E+01 -0.39052779657E+01  0.10017597893E+02  0.51100000000E-03 0. -1.
        -11    1    4    4    0    0  0.48722379886E+01  0.16514449924E+02  0.19398427258E+02  0.25937708836E+02  0.51100000000E-03 0.  1.
        -12    1    4    4    0    0 -0.15950921952E+02  0.89303231616E+01 -0.21933123399E+01  0.18411768028E+02  0.00000000000E+00 0.  1.
</event>
<event>
 8    1  0.2509489E-006  0.9118800E+02  0.7816164E-02  0.1184000E+00
        -11   -1    0    0    0    0  0.00000000000E+00  0.00000000000E+00  0.45593999997E+02  0.45594000000E+02  0.51100000000E-03 0.  1.
         11   -1    0    0    0    0 -0.00000000000E+00 -0.00000000000E+00 -0.45593999997E+02  0.45594000000E+02  0.51100000000E-03 0. -1.
         23    2    1    2    0    0  0.00000000000E+00  0.00000000000E+00  0.17763568394E-14  0.91188000000E+02  0.91188000000E+02 0.  0.
    9900012    2    3    3    0    0  0.23290824463E+02  0.24624991468E+02 -0.14384848875E+02  0.54367128390E+02  0.40000100790E+02 0.  0.
        -12    1    3    3    0    0 -0.23290824463E+02 -0.24624991468E+02  0.14384848875E+02  0.36820871610E+02  0.00000000000E+00 0.  1.
         11    1    4    4    0    0 -0.92062391789E+01  0.45510984309E+00 -0.81104309321E+01  0.12277664882E+02  0.51100000000E-03 0. -1.
        -11    1    4    4    0    0  0.14942672446E+02  0.72902324942E+01  0.10480459765E+01  0.16659212174E+02  0.51100000000E-03 0.  1.
        -12    1    4    4    0    0  0.17554391197E+02  0.16879649130E+02 -0.73224639196E+01  0.25430251334E+02  0.00000000000E+00 0.  1.
</event>
<event>
 8    1  0.2509489E-006  0.9118800E+02  0.7816164E-02  0.1184000E+00
        -11   -1    0    0    0    0  0.00000000000E+00  0.00000000000E+00  0.45593999997E+02  0.45594000000E+02  0.51100000000E-03 0.  1.
         11   -1    0    0    0    0 -0.00000000000E+00 -0.00000000000E+00 -0.45593999997E+02  0.45594000000E+02  0.51100000000E-03 0. -1.
         23    2    1    2    0    0 -0.35527136788E-14  0.00000000000E+00  0.35527136788E-14  0.91188000000E+02  0.91188000000E+02 0.  0.
    9900012    2    3    3    0    0 -0.26893266718E+02 -0.14193465075E+02 -0.20762408557E+02  0.54367084005E+02  0.39999999607E+02 0.  0.
        -12    1    3    3    0    0  0.26893266718E+02  0.14193465075E+02  0.20762408557E+02  0.36820915995E+02  0.00000000000E+00 0.  1.
         11    1    4    4    0    0 -0.20799165012E+02 -0.88454433305E+01 -0.20997531771E+02  0.30850339927E+02  0.51100000000E-03 0. -1.
        -11    1    4    4    0    0  0.52722449267E+01 -0.10166983685E+01 -0.74093867459E+01  0.91503690828E+01  0.51100000000E-03 0.  1.
        -12    1    4    4    0    0 -0.11366346633E+02 -0.43313233761E+01  0.76445099598E+01  0.14366374995E+02  0.00000000000E+00 0.  1.
</event>
<event>
 8    1  0.2509489E-006  0.9118800E+02  0.7816164E-02  0.1184000E+00
        -11   -1    0    0    0    0  0.00000000000E+00  0.00000000000E+00  0.45593999997E+02  0.45594000000E+02  0.51100000000E-03 0.  1.
         11   -1    0    0    0    0 -0.00000000000E+00 -0.00000000000E+00 -0.45593999997E+02  0.45594000000E+02  0.51100000000E-03 0. -1.
         23    2    1    2    0    0 -0.35527136788E-14 -0.88817841970E-15 -0.35527136788E-14  0.91188000000E+02  0.91188000000E+02 0.  0.
    9900012    2    3    3    0    0  0.20297805152E+02  0.42639085444E+01  0.30423607379E+02  0.54367113318E+02  0.40000066431E+02 0.  0.
         12    1    3    3    0    0 -0.20297805152E+02 -0.42639085444E+01 -0.30423607379E+02  0.36820886682E+02  0.00000000000E+00 0. -1.
         11    1    4    4    0    0 -0.20316263722E+01  0.17392306137E+02  0.12827276718E+02  0.21706193741E+02  0.51100000000E-03 0. -1.
        -11    1    4    4    0    0  0.10702719179E+02 -0.32620449696E+01  0.12027452117E+02  0.16427073382E+02  0.51100000000E-03 0.  1.
         12    1    4    4    0    0  0.11626712345E+02 -0.98663526226E+01  0.55688785450E+01  0.16233846195E+02  0.00000000000E+00 0. -1.
</event>
<event>
 8    1  0.2509489E-006  0.9118800E+02  0.7816164E-02  0.1184000E+00
        -11   -1    0    0    0    0  0.00000000000E+00  0.00000000000E+00  0.45593999997E+02  0.45594000000E+02  0.51100000000E-03 0. -1.
         11   -1    0    0    0    0 -0.00000000000E+00 -0.00000000000E+00 -0.45593999997E+02  0.45594000000E+02  0.51100000000E-03 0.  1.
         23    2    1    2    0    0  0.35527136788E-14 -0.35527136788E-14  0.00000000000E+00  0.91188000000E+02  0.91188000000E+02 0.  0.
    9900012    2    3    3    0    0 -0.20627463476E+02  0.29526150072E+02  0.76481508848E+01  0.54367082039E+02  0.39999995125E+02 0.  0.
        -12    1    3    3    0    0  0.20627463476E+02 -0.29526150072E+02 -0.76481508848E+01  0.36820917961E+02  0.00000000000E+00 0.  1.
         11    1    4    4    0    0 -0.18122359891E+02  0.10133221665E+02  0.85683485143E+01  0.22461493847E+02  0.51100000000E-03 0. -1.
        -11    1    4    4    0    0  0.81937097969E+01  0.80332621667E+01 -0.87655753649E+01  0.14439719284E+02  0.51100000000E-03 0.  1.
        -12    1    4    4    0    0 -0.10698813381E+02  0.11359666241E+02  0.78453777354E+01  0.17465868907E+02  0.00000000000E+00 0.  1.
</event>
<event>
 8    1  0.2509489E-006  0.9118800E+02  0.7816164E-02  0.1184000E+00
        -11   -1    0    0    0    0  0.00000000000E+00  0.00000000000E+00  0.45593999997E+02  0.45594000000E+02  0.51100000000E-03 0.  1.
         11   -1    0    0    0    0 -0.00000000000E+00 -0.00000000000E+00 -0.45593999997E+02  0.45594000000E+02  0.51100000000E-03 0. -1.
         23    2    1    2    0    0  0.14210854715E-13 -0.26645352591E-14 -0.17763568394E-14  0.91188000000E+02  0.91188000000E+02 0.  0.
    9900012    2    3    3    0    0 -0.33149043399E+02 -0.22601870590E+01  0.15868574355E+02  0.54367093223E+02  0.40000020620E+02 0.  0.
        -12    1    3    3    0    0  0.33149043399E+02  0.22601870590E+01 -0.15868574355E+02  0.36820906777E+02  0.00000000000E+00 0.  1.
         11    1    4    4    0    0 -0.16751479802E+02 -0.11904404129E+02  0.15245311397E+02  0.25588013464E+02  0.51100000000E-03 0. -1.
        -11    1    4    4    0    0 -0.92238764548E+00  0.69689216808E+01  0.86465327295E+01  0.11143571998E+02  0.51100000000E-03 0.  1.
        -12    1    4    4    0    0 -0.15475175952E+02  0.26752953888E+01 -0.80232697707E+01  0.17635507761E+02  0.00000000000E+00 0.  1.
</event>
<event>
 8    1  0.2509489E-006  0.9118800E+02  0.7816164E-02  0.1184000E+00
        -11   -1    0    0    0    0  0.00000000000E+00  0.00000000000E+00  0.45593999997E+02  0.45594000000E+02  0.51100000000E-03 0.  1.
         11   -1    0    0    0    0 -0.00000000000E+00 -0.00000000000E+00 -0.45593999997E+02  0.45594000000E+02  0.51100000000E-03 0. -1.
         23    2    1    2    0    0 -0.17763568394E-14  0.00000000000E+00  0.00000000000E+00  0.91188000000E+02  0.91188000000E+02 0.  0.
    9900012    2    3    3    0    0 -0.93184274508E+01  0.12682301211E+02 -0.33288215714E+02  0.54367093445E+02  0.40000021125E+02 0.  0.
        -12    1    3    3    0    0  0.93184274508E+01 -0.12682301211E+02  0.33288215714E+02  0.36820906555E+02  0.00000000000E+00 0.  1.
         11    1    4    4    0    0 -0.17884037234E+02  0.80532722894E+01 -0.15872175959E+02  0.25231328786E+02  0.51100000000E-03 0. -1.
        -11    1    4    4    0    0  0.17336876013E+00  0.83224977884E+01  0.11747881266E+01  0.84067921093E+01  0.51100000000E-03 0.  1.
         12    1    4    4    0    0  0.83922410231E+01 -0.36934688664E+01 -0.18590827881E+02  0.20728972549E+02  0.00000000000E+00 0. -1.
</event>
<event>
 8    1  0.2509489E-006  0.9118800E+02  0.7816164E-02  0.1184000E+00
        -11   -1    0    0    0    0  0.00000000000E+00  0.00000000000E+00  0.45593999997E+02  0.45594000000E+02  0.51100000000E-03 0.  1.
         11   -1    0    0    0    0 -0.00000000000E+00 -0.00000000000E+00 -0.45593999997E+02  0.45594000000E+02  0.51100000000E-03 0. -1.
         23    2    1    2    0    0  0.00000000000E+00  0.88817841970E-15  0.00000000000E+00  0.91188000000E+02  0.91188000000E+02 0.  0.
    9900012    2    3    3    0    0  0.16784945728E+02  0.62945257118E+01  0.32162476958E+02  0.54367076857E+02  0.39999983311E+02 0.  0.
         12    1    3    3    0    0 -0.16784945728E+02 -0.62945257118E+01 -0.32162476958E+02  0.36820923143E+02  0.00000000000E+00 0. -1.
         11    1    4    4    0    0  0.45493015739E+01  0.66086431344E+01  0.11619784789E+02  0.14120542047E+02  0.51100000000E-03 0. -1.
        -11    1    4    4    0    0  0.25785964540E+01  0.92844389546E+01  0.24284121649E+02  0.26126012534E+02  0.51100000000E-03 0.  1.
         12    1    4    4    0    0  0.96570477000E+01 -0.95985563772E+01 -0.37414294804E+01  0.14120522277E+02  0.00000000000E+00 0. -1.
</event>
<event>
 8    1  0.2509489E-006  0.9118800E+02  0.7816164E-02  0.1184000E+00
        -11   -1    0    0    0    0  0.00000000000E+00  0.00000000000E+00  0.45593999997E+02  0.45594000000E+02  0.51100000000E-03 0. -1.
         11   -1    0    0    0    0 -0.00000000000E+00 -0.00000000000E+00 -0.45593999997E+02  0.45594000000E+02  0.51100000000E-03 0.  1.
         23    2    1    2    0    0  0.66613381478E-15  0.17763568394E-14  0.71054273576E-14  0.91188000000E+02  0.91188000000E+02 0.  0.
    9900012    2    3    3    0    0  0.95252701223E+00  0.14906981213E+02  0.33654938903E+02  0.54367077834E+02  0.39999985539E+02 0.  0.
        -12    1    3    3    0    0 -0.95252701223E+00 -0.14906981213E+02 -0.33654938903E+02  0.36820922166E+02  0.00000000000E+00 0.  1.
         11    1    4    4    0    0 -0.21064391251E+00  0.13623034246E+02  0.13984853957E+02  0.19524537725E+02  0.51100000000E-03 0. -1.
        -11    1    4    4    0    0  0.12092657701E+02  0.72288459326E+01  0.17068214515E+02  0.22131708718E+02  0.51100000000E-03 0.  1.
        -12    1    4    4    0    0 -0.10929486776E+02 -0.59448989658E+01  0.26018704313E+01  0.12710831391E+02  0.00000000000E+00 0.  1.
</event>
<event>
 8    1  0.2509489E-006  0.9118800E+02  0.7816164E-02  0.1184000E+00
        -11   -1    0    0    0    0  0.00000000000E+00  0.00000000000E+00  0.45593999997E+02  0.45594000000E+02  0.51100000000E-03 0.  1.
         11   -1    0    0    0    0 -0.00000000000E+00 -0.00000000000E+00 -0.45593999997E+02  0.45594000000E+02  0.51100000000E-03 0. -1.
         23    2    1    2    0    0  0.00000000000E+00  0.00000000000E+00 -0.88817841970E-15  0.91188000000E+02  0.91188000000E+02 0.  0.
    9900012    2    3    3    0    0  0.26330550305E+02  0.25326609608E+02 -0.45875628102E+01  0.54367071628E+02  0.39999971390E+02 0.  0.
        -12    1    3    3    0    0 -0.26330550305E+02 -0.25326609608E+02  0.45875628102E+01  0.36820928372E+02  0.00000000000E+00 0.  1.
         11    1    4    4    0    0  0.17887243104E+02  0.14001333926E+02 -0.77515200840E+01  0.24001601644E+02  0.51100000000E-03 0. -1.
        -11    1    4    4    0    0  0.65902455258E+00 -0.79847895562E+01 -0.31502554940E+01  0.86090236122E+01  0.51100000000E-03 0.  1.
        -12    1    4    4    0    0  0.77842826484E+01  0.19310065238E+02  0.63142127678E+01  0.21756446372E+02  0.00000000000E+00 0.  1.
</event>
<event>
 8    1  0.2509489E-006  0.9118800E+02  0.7816164E-02  0.1184000E+00
        -11   -1    0    0    0    0  0.00000000000E+00  0.00000000000E+00  0.45593999997E+02  0.45594000000E+02  0.51100000000E-03 0.  1.
         11   -1    0    0    0    0 -0.00000000000E+00 -0.00000000000E+00 -0.45593999997E+02  0.45594000000E+02  0.51100000000E-03 0. -1.
         23    2    1    2    0    0  0.35527136788E-14  0.71054273576E-14  0.00000000000E+00  0.91188000000E+02  0.91188000000E+02 0.  0.
    9900012    2    3    3    0    0  0.27020955488E+02  0.23466240424E+02 -0.86593193592E+01  0.54367078136E+02  0.39999986227E+02 0.  0.
        -12    1    3    3    0    0 -0.27020955488E+02 -0.23466240424E+02  0.86593193592E+01  0.36820921864E+02  0.00000000000E+00 0.  1.
         11    1    4    4    0    0 -0.21591762683E+01  0.43522230925E+01  0.27348732448E+01  0.55752506607E+01  0.51100000000E-03 0. -1.
        -11    1    4    4    0    0  0.24283230720E+02  0.18011790385E+02  0.58822585909E+01  0.30800987865E+02  0.51100000000E-03 0.  1.
         12    1    4    4    0    0  0.48969010363E+01  0.11022269465E+01 -0.17276451195E+02  0.17990839610E+02  0.00000000000E+00 0. -1.
</event>
<event>
 8    1  0.2509489E-006  0.9118800E+02  0.7816164E-02  0.1184000E+00
        -11   -1    0    0    0    0  0.00000000000E+00  0.00000000000E+00  0.45593999997E+02  0.45594000000E+02  0.51100000000E-03 0.  1.
         11   -1    0    0    0    0 -0.00000000000E+00 -0.00000000000E+00 -0.45593999997E+02  0.45594000000E+02  0.51100000000E-03 0. -1.
         23    2    1    2    0    0 -0.35527136788E-14  0.35527136788E-14  0.17763568394E-14  0.91188000000E+02  0.91188000000E+02 0.  0.
    9900012    2    3    3    0    0  0.24115873466E+02 -0.26414807641E+02  0.87443746679E+01  0.54367061608E+02  0.39999948548E+02 0.  0.
         12    1    3    3    0    0 -0.24115873466E+02  0.26414807641E+02 -0.87443746679E+01  0.36820938392E+02  0.00000000000E+00 0. -1.
         11    1    4    4    0    0  0.70106906765E+00  0.13550879959E+01 -0.85156492035E+00  0.17472619692E+01  0.51100000000E-03 0. -1.
        -11    1    4    4    0    0  0.19165523233E+02 -0.71284920115E+01 -0.10943099366E+02  0.23192328541E+02  0.51100000000E-03 0.  1.
        -12    1    4    4    0    0  0.42492811645E+01 -0.20641403626E+02  0.20539038954E+02  0.29427471098E+02  0.00000000000E+00 0.  1.
</event>
<event>
 8    1  0.2509489E-006  0.9118800E+02  0.7816164E-02  0.1184000E+00
        -11   -1    0    0    0    0  0.00000000000E+00  0.00000000000E+00  0.45593999997E+02  0.45594000000E+02  0.51100000000E-03 0.  1.
         11   -1    0    0    0    0 -0.00000000000E+00 -0.00000000000E+00 -0.45593999997E+02  0.45594000000E+02  0.51100000000E-03 0. -1.
         23    2    1    2    0    0  0.00000000000E+00  0.00000000000E+00  0.00000000000E+00  0.91188000000E+02  0.91188000000E+02 0.  0.
    9900012    2    3    3    0    0 -0.28414007019E+02  0.77924774539E+01 -0.22083945525E+02  0.54367093578E+02  0.40000021430E+02 0.  0.
        -12    1    3    3    0    0  0.28414007019E+02 -0.77924774539E+01  0.22083945525E+02  0.36820906422E+02  0.00000000000E+00 0.  1.
         11    1    4    4    0    0 -0.56474388186E+01 -0.42256406956E+00 -0.27557631929E+00  0.56699266460E+01  0.51100000000E-03 0. -1.
        -11    1    4    4    0    0 -0.30757401742E+02  0.11315273788E+01 -0.22299453330E+02  0.38007416845E+02  0.51100000000E-03 0.  1.
        -12    1    4    4    0    0  0.79908335410E+01  0.70835141447E+01  0.49108412430E+00  0.10689750088E+02  0.00000000000E+00 0.  1.
</event>
<event>
 8    1  0.2509489E-006  0.9118800E+02  0.7816164E-02  0.1184000E+00
        -11   -1    0    0    0    0  0.00000000000E+00  0.00000000000E+00  0.45593999997E+02  0.45594000000E+02  0.51100000000E-03 0.  1.
         11   -1    0    0    0    0 -0.00000000000E+00 -0.00000000000E+00 -0.45593999997E+02  0.45594000000E+02  0.51100000000E-03 0. -1.
         23    2    1    2    0    0  0.00000000000E+00  0.00000000000E+00 -0.17763568394E-14  0.91188000000E+02  0.91188000000E+02 0.  0.
    9900012    2    3    3    0    0 -0.34736427912E+02  0.79813280130E+01 -0.92444473223E+01  0.54367070798E+02  0.39999969499E+02 0.  0.
         12    1    3    3    0    0  0.34736427912E+02 -0.79813280130E+01  0.92444473223E+01  0.36820929202E+02  0.00000000000E+00 0. -1.
         11    1    4    4    0    0 -0.18401115479E+02  0.67040942037E+01 -0.21661855203E+02  0.29202429712E+02  0.51100000000E-03 0. -1.
        -11    1    4    4    0    0 -0.11791761675E+02 -0.38290022161E+01  0.17862871583E+01  0.12525882142E+02  0.51100000000E-03 0.  1.
         12    1    4    4    0    0 -0.45435507585E+01  0.51062360255E+01  0.10631120722E+02  0.12638758945E+02  0.00000000000E+00 0. -1.
</event>
<event>
 8    1  0.2509489E-006  0.9118800E+02  0.7816164E-02  0.1184000E+00
        -11   -1    0    0    0    0  0.00000000000E+00  0.00000000000E+00  0.45593999997E+02  0.45594000000E+02  0.51100000000E-03 0.  1.
         11   -1    0    0    0    0 -0.00000000000E+00 -0.00000000000E+00 -0.45593999997E+02  0.45594000000E+02  0.51100000000E-03 0. -1.
         23    2    1    2    0    0  0.00000000000E+00  0.35527136788E-14  0.13322676296E-14  0.91188000000E+02  0.91188000000E+02 0.  0.
    9900012    2    3    3    0    0 -0.23990340440E+02 -0.27732998825E+02  0.33352916369E+01  0.54367084360E+02  0.40000000415E+02 0.  0.
         12    1    3    3    0    0  0.23990340440E+02  0.27732998825E+02 -0.33352916369E+01  0.36820915640E+02  0.00000000000E+00 0. -1.
         11    1    4    4    0    0 -0.70751277983E+00  0.30595558200E+01  0.15677864727E+01  0.35099018269E+01  0.51100000000E-03 0. -1.
        -11    1    4    4    0    0 -0.26910394615E+02 -0.27458378923E+02 -0.85838199595E+01  0.39393068892E+02  0.51100000000E-03 0.  1.
        -12    1    4    4    0    0  0.36275669541E+01 -0.33341757228E+01  0.10351325124E+02  0.11464113641E+02  0.00000000000E+00 0.  1.
</event>
<event>
 8    1  0.3669477E-006  0.9118800E+02  0.7816164E-02  0.1184000E+00
        -11   -1    0    0    0    0  0.00000000000E+00  0.00000000000E+00  0.45593999997E+02  0.45594000000E+02  0.51100000000E-03 0.  1.
         11   -1    0    0    0    0 -0.00000000000E+00 -0.00000000000E+00 -0.45593999997E+02  0.45594000000E+02  0.51100000000E-03 0. -1.
         23    2    1    2    0    0  0.00000000000E+00 -0.35527136788E-14 -0.71054273576E-14  0.91188000000E+02  0.91188000000E+02 0.  0.
    9900012    2    3    3    0    0 -0.57291564446E+01 -0.13657423307E+02 -0.33711007985E+02  0.54367075183E+02  0.39999979496E+02 0.  0.
        -12    1    3    3    0    0  0.57291564446E+01  0.13657423307E+02  0.33711007985E+02  0.36820924817E+02  0.00000000000E+00 0.  1.
         11    1    4    4    0    0  0.57186223417E+01 -0.37402160938E-01 -0.40215397532E+00  0.57328673881E+01  0.51100000000E-03 0. -1.
        -11    1    4    4    0    0  0.63880401826E+01 -0.13876484234E+01  0.23354791629E+01  0.69416920634E+01  0.51100000000E-03 0.  1.
         12    1    4    4    0    0 -0.17835818969E+02 -0.12232372723E+02 -0.35644333173E+02  0.41692515732E+02  0.00000000000E+00 0. -1.
</event>
<event>
 8    1  0.2509489E-006  0.9118800E+02  0.7816164E-02  0.1184000E+00
        -11   -1    0    0    0    0  0.00000000000E+00  0.00000000000E+00  0.45593999997E+02  0.45594000000E+02  0.51100000000E-03 0.  1.
         11   -1    0    0    0    0 -0.00000000000E+00 -0.00000000000E+00 -0.45593999997E+02  0.45594000000E+02  0.51100000000E-03 0. -1.
         23    2    1    2    0    0 -0.35527136788E-14 -0.35527136788E-14 -0.17763568394E-14  0.91188000000E+02  0.91188000000E+02 0.  0.
    9900012    2    3    3    0    0  0.20117074751E+02  0.29117943201E+02  0.10160140132E+02  0.54367085287E+02  0.40000002529E+02 0.  0.
         12    1    3    3    0    0 -0.20117074751E+02 -0.29117943201E+02 -0.10160140132E+02  0.36820914713E+02  0.00000000000E+00 0. -1.
         11    1    4    4    0    0  0.84119265953E+01  0.23947940774E+00 -0.83451739905E+01  0.11851573255E+02  0.51100000000E-03 0. -1.
        -11    1    4    4    0    0 -0.44034524682E+01  0.16599122290E+02  0.40874312041E+01  0.17652998288E+02  0.51100000000E-03 0.  1.
        -12    1    4    4    0    0  0.16108600624E+02  0.12279341503E+02  0.14417882918E+02  0.24862513744E+02  0.00000000000E+00 0.  1.
</event>
<event>
 8    1  0.2509489E-006  0.9118800E+02  0.7816164E-02  0.1184000E+00
        -11   -1    0    0    0    0  0.00000000000E+00  0.00000000000E+00  0.45593999997E+02  0.45594000000E+02  0.51100000000E-03 0.  1.
         11   -1    0    0    0    0 -0.00000000000E+00 -0.00000000000E+00 -0.45593999997E+02  0.45594000000E+02  0.51100000000E-03 0. -1.
         23    2    1    2    0    0  0.35527136788E-14  0.00000000000E+00  0.00000000000E+00  0.91188000000E+02  0.91188000000E+02 0.  0.
    9900012    2    3    3    0    0 -0.30963626033E+02  0.19695236484E+02  0.30215574012E+01  0.54367105302E+02  0.40000048156E+02 0.  0.
         12    1    3    3    0    0  0.30963626033E+02 -0.19695236484E+02 -0.30215574012E+01  0.36820894698E+02  0.00000000000E+00 0. -1.
         11    1    4    4    0    0 -0.27544255899E+02  0.55493177771E+01 -0.67970615162E+01  0.28908147750E+02  0.51100000000E-03 0. -1.
        -11    1    4    4    0    0 -0.10329266838E+02  0.82296344008E+01  0.96569868294E+01  0.16360868885E+02  0.51100000000E-03 0.  1.
         12    1    4    4    0    0  0.69098967042E+01  0.59162843059E+01  0.16163208808E+00  0.90980886665E+01  0.00000000000E+00 0. -1.
</event>
<event>
 8    1  0.2509489E-006  0.9118800E+02  0.7816164E-02  0.1184000E+00
        -11   -1    0    0    0    0  0.00000000000E+00  0.00000000000E+00  0.45593999997E+02  0.45594000000E+02  0.51100000000E-03 0.  1.
         11   -1    0    0    0    0 -0.00000000000E+00 -0.00000000000E+00 -0.45593999997E+02  0.45594000000E+02  0.51100000000E-03 0. -1.
         23    2    1    2    0    0  0.00000000000E+00  0.35527136788E-14  0.15543122345E-14  0.91188000000E+02  0.91188000000E+02 0.  0.
    9900012    2    3    3    0    0 -0.22748110665E+02 -0.28927299598E+02  0.12305626934E+01  0.54367089020E+02  0.40000011039E+02 0.  0.
        -12    1    3    3    0    0  0.22748110665E+02  0.28927299598E+02 -0.12305626934E+01  0.36820910980E+02  0.00000000000E+00 0.  1.
         11    1    4    4    0    0 -0.51630274929E+01 -0.88477089283E+01  0.16733791573E+01  0.10379740085E+02  0.51100000000E-03 0. -1.
        -11    1    4    4    0    0 -0.15245396433E+02 -0.25561441223E+02  0.10472071331E+02  0.31551127841E+02  0.51100000000E-03 0.  1.
        -12    1    4    4    0    0 -0.23396867385E+01  0.54818505525E+01 -0.10914887795E+02  0.12436221094E+02  0.00000000000E+00 0.  1.
</event>
<event>
 8    1  0.2509489E-006  0.9118800E+02  0.7816164E-02  0.1184000E+00
        -11   -1    0    0    0    0  0.00000000000E+00  0.00000000000E+00  0.45593999997E+02  0.45594000000E+02  0.51100000000E-03 0.  1.
         11   -1    0    0    0    0 -0.00000000000E+00 -0.00000000000E+00 -0.45593999997E+02  0.45594000000E+02  0.51100000000E-03 0. -1.
         23    2    1    2    0    0  0.17763568394E-14  0.00000000000E+00 -0.71054273576E-14  0.91188000000E+02  0.91188000000E+02 0.  0.
    9900012    2    3    3    0    0  0.58622852572E+01  0.22147665062E+02 -0.28825238980E+02  0.54367083955E+02  0.39999999492E+02 0.  0.
        -12    1    3    3    0    0 -0.58622852572E+01 -0.22147665062E+02  0.28825238980E+02  0.36820916045E+02  0.00000000000E+00 0.  1.
         11    1    4    4    0    0  0.69961634200E+01  0.16379936095E+02 -0.10532178058E+02  0.20692399183E+02  0.51100000000E-03 0. -1.
        -11    1    4    4    0    0 -0.11132383005E+02 -0.19441917296E+01  0.17535953208E+00  0.11302238012E+02  0.51100000000E-03 0.  1.
        -12    1    4    4    0    0  0.99985048425E+01  0.77119206969E+01 -0.18468420454E+02  0.22372446759E+02  0.00000000000E+00 0.  1.
</event>
<event>
 8    1  0.2509489E-006  0.9118800E+02  0.7816164E-02  0.1184000E+00
        -11   -1    0    0    0    0  0.00000000000E+00  0.00000000000E+00  0.45593999997E+02  0.45594000000E+02  0.51100000000E-03 0. -1.
         11   -1    0    0    0    0 -0.00000000000E+00 -0.00000000000E+00 -0.45593999997E+02  0.45594000000E+02  0.51100000000E-03 0.  1.
         23    2    1    2    0    0  0.00000000000E+00  0.17763568394E-14  0.00000000000E+00  0.91188000000E+02  0.91188000000E+02 0.  0.
    9900012    2    3    3    0    0 -0.28739494058E+02 -0.60838616185E+01  0.22199308197E+02  0.54367066072E+02  0.39999958725E+02 0.  0.
        -12    1    3    3    0    0  0.28739494058E+02  0.60838616185E+01 -0.22199308197E+02  0.36820933928E+02  0.00000000000E+00 0.  1.
         11    1    4    4    0    0 -0.14285059168E+02 -0.18317972421E+02  0.13641713871E+02  0.26938956673E+02  0.51100000000E-03 0. -1.
        -11    1    4    4    0    0 -0.12158711008E+02 -0.11756970958E+01  0.22036938906E+01  0.12412605853E+02  0.51100000000E-03 0.  1.
         12    1    4    4    0    0 -0.22957238822E+01  0.13409807898E+02  0.63539004347E+01  0.15015503546E+02  0.00000000000E+00 0. -1.
</event>
<event>
 8    1  0.2509489E-006  0.9118800E+02  0.7816164E-02  0.1184000E+00
        -11   -1    0    0    0    0  0.00000000000E+00  0.00000000000E+00  0.45593999997E+02  0.45594000000E+02  0.51100000000E-03 0.  1.
         11   -1    0    0    0    0 -0.00000000000E+00 -0.00000000000E+00 -0.45593999997E+02  0.45594000000E+02  0.51100000000E-03 0. -1.
         23    2    1    2    0    0  0.71054273576E-14  0.00000000000E+00 -0.17763568394E-14  0.91188000000E+02  0.91188000000E+02 0.  0.
    9900012    2    3    3    0    0 -0.31243561375E+02 -0.16531493588E+02  0.10311514192E+02  0.54367112822E+02  0.40000065300E+02 0.  0.
        -12    1    3    3    0    0  0.31243561375E+02  0.16531493588E+02 -0.10311514192E+02  0.36820887178E+02  0.00000000000E+00 0.  1.
         11    1    4    4    0    0 -0.76558266489E+01 -0.32830434318E+01 -0.72987421746E+01  0.11075273967E+02  0.51100000000E-03 0. -1.
        -11    1    4    4    0    0 -0.11621459757E+02 -0.30027753603E+01 -0.71305949528E+01  0.13961388591E+02  0.51100000000E-03 0.  1.
        -12    1    4    4    0    0 -0.11966274969E+02 -0.10245674796E+02  0.24740851319E+02  0.29330450263E+02  0.00000000000E+00 0.  1.
</event>
<event>
 8    1  0.2509489E-006  0.9118800E+02  0.7816164E-02  0.1184000E+00
        -11   -1    0    0    0    0  0.00000000000E+00  0.00000000000E+00  0.45593999997E+02  0.45594000000E+02  0.51100000000E-03 0. -1.
         11   -1    0    0    0    0 -0.00000000000E+00 -0.00000000000E+00 -0.45593999997E+02  0.45594000000E+02  0.51100000000E-03 0.  1.
         23    2    1    2    0    0  0.00000000000E+00 -0.17763568394E-14  0.00000000000E+00  0.91188000000E+02  0.91188000000E+02 0.  0.
    9900012    2    3    3    0    0 -0.55706879045E+01 -0.14581208616E+02  0.33348771517E+02  0.54367017258E+02  0.39999847442E+02 0.  0.
        -12    1    3    3    0    0  0.55706879045E+01  0.14581208616E+02 -0.33348771517E+02  0.36820982742E+02  0.00000000000E+00 0.  1.
         11    1    4    4    0    0 -0.35704031599E+01  0.82025544317E+01  0.11326291747E+02  0.14433106489E+02  0.51100000000E-03 0. -1.
        -11    1    4    4    0    0 -0.39470168990E+01 -0.17172330099E+02  0.52169488722E+00  0.17627819753E+02  0.51100000000E-03 0.  1.
        -12    1    4    4    0    0  0.19467321545E+01 -0.56114329489E+01  0.21500784883E+02  0.22306091016E+02  0.00000000000E+00 0.  1.
</event>
<event>
 8    1  0.2509489E-006  0.9118800E+02  0.7816164E-02  0.1184000E+00
        -11   -1    0    0    0    0  0.00000000000E+00  0.00000000000E+00  0.45593999997E+02  0.45594000000E+02  0.51100000000E-03 0.  1.
         11   -1    0    0    0    0 -0.00000000000E+00 -0.00000000000E+00 -0.45593999997E+02  0.45594000000E+02  0.51100000000E-03 0. -1.
         23    2    1    2    0    0 -0.17763568394E-14  0.00000000000E+00  0.00000000000E+00  0.91188000000E+02  0.91188000000E+02 0.  0.
    9900012    2    3    3    0    0 -0.10814944172E+02 -0.30585008494E+02  0.17417624244E+02  0.54367090229E+02  0.40000013795E+02 0.  0.
         12    1    3    3    0    0  0.10814944172E+02  0.30585008494E+02 -0.17417624244E+02  0.36820909771E+02  0.00000000000E+00 0. -1.
         11    1    4    4    0    0 -0.99923569140E+01 -0.89511125567E+01 -0.54603598604E+01  0.14483961570E+02  0.51100000000E-03 0. -1.
        -11    1    4    4    0    0  0.52523755461E+01 -0.70545169569E+00  0.16269464262E+02  0.17110832201E+02  0.51100000000E-03 0.  1.
        -12    1    4    4    0    0 -0.60749628045E+01 -0.20928444242E+02  0.66085198422E+01  0.22772296458E+02  0.00000000000E+00 0.  1.
</event>
<event>
 8    1  0.2509489E-006  0.9118800E+02  0.7816164E-02  0.1184000E+00
        -11   -1    0    0    0    0  0.00000000000E+00  0.00000000000E+00  0.45593999997E+02  0.45594000000E+02  0.51100000000E-03 0. -1.
         11   -1    0    0    0    0 -0.00000000000E+00 -0.00000000000E+00 -0.45593999997E+02  0.45594000000E+02  0.51100000000E-03 0.  1.
         23    2    1    2    0    0  0.00000000000E+00 -0.88817841970E-15 -0.71054273576E-14  0.91188000000E+02  0.91188000000E+02 0.  0.
    9900012    2    3    3    0    0 -0.56354113554E+01 -0.20492242861E+01  0.36329360996E+02  0.54367086762E+02  0.40000005891E+02 0.  0.
        -12    1    3    3    0    0  0.56354113554E+01  0.20492242861E+01 -0.36329360996E+02  0.36820913238E+02  0.00000000000E+00 0.  1.
         11    1    4    4    0    0 -0.26794002224E+01  0.11022079621E+02  0.21259538002E+02  0.24096335428E+02  0.51100000000E-03 0. -1.
        -11    1    4    4    0    0  0.94160259695E+01 -0.28153844417E+01  0.33584991010E+01  0.10385925625E+02  0.51100000000E-03 0.  1.
         12    1    4    4    0    0 -0.12372037103E+02 -0.10255919466E+02  0.11711323893E+02  0.19884825709E+02  0.00000000000E+00 0. -1.
</event>
<event>
 8    1  0.2509489E-006  0.9118800E+02  0.7816164E-02  0.1184000E+00
        -11   -1    0    0    0    0  0.00000000000E+00  0.00000000000E+00  0.45593999997E+02  0.45594000000E+02  0.51100000000E-03 0. -1.
         11   -1    0    0    0    0 -0.00000000000E+00 -0.00000000000E+00 -0.45593999997E+02  0.45594000000E+02  0.51100000000E-03 0.  1.
         23    2    1    2    0    0 -0.11102230246E-15 -0.22204460493E-14  0.71054273576E-14  0.91188000000E+02  0.91188000000E+02 0.  0.
    9900012    2    3    3    0    0 -0.61977876265E+00  0.36051171795E+01 -0.36638759197E+02  0.54367086498E+02  0.40000005290E+02 0.  0.
         12    1    3    3    0    0  0.61977876265E+00 -0.36051171795E+01  0.36638759197E+02  0.36820913502E+02  0.00000000000E+00 0. -1.
         11    1    4    4    0    0 -0.16135940169E+01 -0.64976123628E+01 -0.84108006505E+01  0.10750079996E+02  0.51100000000E-03 0. -1.
        -11    1    4    4    0    0 -0.96203535428E+01  0.15847225445E+02 -0.25000202358E+02  0.31123879494E+02  0.51100000000E-03 0.  1.
        -12    1    4    4    0    0  0.10614168797E+02 -0.57444959025E+01 -0.32277561891E+01  0.12493127008E+02  0.00000000000E+00 0.  1.
</event>
<event>
 8    1  0.2509489E-006  0.9118800E+02  0.7816164E-02  0.1184000E+00
        -11   -1    0    0    0    0  0.00000000000E+00  0.00000000000E+00  0.45593999997E+02  0.45594000000E+02  0.51100000000E-03 0. -1.
         11   -1    0    0    0    0 -0.00000000000E+00 -0.00000000000E+00 -0.45593999997E+02  0.45594000000E+02  0.51100000000E-03 0.  1.
         23    2    1    2    0    0  0.00000000000E+00  0.00000000000E+00 -0.17763568394E-14  0.91188000000E+02  0.91188000000E+02 0.  0.
    9900012    2    3    3    0    0 -0.32986298960E+02  0.12039768027E+02 -0.11078331946E+02  0.54367063402E+02  0.39999952637E+02 0.  0.
        -12    1    3    3    0    0  0.32986298960E+02 -0.12039768027E+02  0.11078331946E+02  0.36820936598E+02  0.00000000000E+00 0.  1.
         11    1    4    4    0    0 -0.29834458471E+02 -0.69724236531E+01 -0.33131426255E+01  0.30816984249E+02  0.51100000000E-03 0. -1.
        -11    1    4    4    0    0 -0.53894402993E+01  0.52627717641E+01  0.13796675314E+00  0.75340472833E+01  0.51100000000E-03 0.  1.
        -12    1    4    4    0    0  0.22375998100E+01  0.13749419916E+02 -0.79031560736E+01  0.16016031870E+02  0.00000000000E+00 0.  1.
</event>
<event>
 8    1  0.2509489E-006  0.9118800E+02  0.7816164E-02  0.1184000E+00
        -11   -1    0    0    0    0  0.00000000000E+00  0.00000000000E+00  0.45593999997E+02  0.45594000000E+02  0.51100000000E-03 0.  1.
         11   -1    0    0    0    0 -0.00000000000E+00 -0.00000000000E+00 -0.45593999997E+02  0.45594000000E+02  0.51100000000E-03 0. -1.
         23    2    1    2    0    0  0.44408920985E-15  0.00000000000E+00  0.00000000000E+00  0.91188000000E+02  0.91188000000E+02 0.  0.
    9900012    2    3    3    0    0  0.24665007439E+01 -0.23581996561E+02  0.28170656313E+02  0.54367081152E+02  0.39999993102E+02 0.  0.
         12    1    3    3    0    0 -0.24665007439E+01  0.23581996561E+02 -0.28170656313E+02  0.36820918848E+02  0.00000000000E+00 0. -1.
         11    1    4    4    0    0 -0.12354036807E+01 -0.59482662205E+01  0.25111797888E+01  0.65737445552E+01  0.51100000000E-03 0. -1.
        -11    1    4    4    0    0  0.13228922560E+02 -0.24984453109E+02  0.17352289207E+02  0.33171210865E+02  0.51100000000E-03 0.  1.
         12    1    4    4    0    0 -0.95270181352E+01  0.73507227693E+01  0.83071873178E+01  0.14622125732E+02  0.00000000000E+00 0. -1.
</event>
<event>
 8    1  0.2509489E-006  0.9118800E+02  0.7816164E-02  0.1184000E+00
        -11   -1    0    0    0    0  0.00000000000E+00  0.00000000000E+00  0.45593999997E+02  0.45594000000E+02  0.51100000000E-03 0.  1.
         11   -1    0    0    0    0 -0.00000000000E+00 -0.00000000000E+00 -0.45593999997E+02  0.45594000000E+02  0.51100000000E-03 0. -1.
         23    2    1    2    0    0 -0.17763568394E-14  0.00000000000E+00  0.35527136788E-14  0.91188000000E+02  0.91188000000E+02 0.  0.
    9900012    2    3    3    0    0 -0.11151019676E+02  0.32543314478E+02 -0.13128639677E+02  0.54367167082E+02  0.40000188996E+02 0.  0.
        -12    1    3    3    0    0  0.11151019676E+02 -0.32543314478E+02  0.13128639677E+02  0.36820832918E+02  0.00000000000E+00 0.  1.
         11    1    4    4    0    0 -0.16158738526E+02  0.91792615056E+01 -0.87819465328E+01  0.20554470504E+02  0.51100000000E-03 0. -1.
        -11    1    4    4    0    0  0.95064971429E+01  0.75820841920E+00 -0.49722224121E+01  0.10755062246E+02  0.51100000000E-03 0.  1.
        -12    1    4    4    0    0 -0.44987782921E+01  0.22605844553E+02  0.62552926837E+00  0.23057634331E+02  0.00000000000E+00 0.  1.
</event>
<event>
 8    1  0.2509489E-006  0.9118800E+02  0.7816164E-02  0.1184000E+00
        -11   -1    0    0    0    0  0.00000000000E+00  0.00000000000E+00  0.45593999997E+02  0.45594000000E+02  0.51100000000E-03 0. -1.
         11   -1    0    0    0    0 -0.00000000000E+00 -0.00000000000E+00 -0.45593999997E+02  0.45594000000E+02  0.51100000000E-03 0.  1.
         23    2    1    2    0    0  0.00000000000E+00 -0.17763568394E-14  0.35527136788E-14  0.91188000000E+02  0.91188000000E+02 0.  0.
    9900012    2    3    3    0    0  0.22456034956E+02 -0.11477341829E+02 -0.26828683073E+02  0.54367066866E+02  0.39999960535E+02 0.  0.
         12    1    3    3    0    0 -0.22456034956E+02  0.11477341829E+02  0.26828683073E+02  0.36820933134E+02  0.00000000000E+00 0. -1.
         11    1    4    4    0    0  0.46846907417E+00  0.10908040179E+02 -0.87697816295E+01  0.14004066335E+02  0.51100000000E-03 0. -1.
        -11    1    4    4    0    0  0.24133126780E+02 -0.15835309748E+02 -0.12279099855E+02  0.31367836019E+02  0.51100000000E-03 0.  1.
        -12    1    4    4    0    0 -0.21455608987E+01 -0.65500722606E+01 -0.57798015887E+01  0.89951645117E+01  0.00000000000E+00 0.  1.
</event>
<event>
 8    1  0.2509489E-006  0.9118800E+02  0.7816164E-02  0.1184000E+00
        -11   -1    0    0    0    0  0.00000000000E+00  0.00000000000E+00  0.45593999997E+02  0.45594000000E+02  0.51100000000E-03 0.  1.
         11   -1    0    0    0    0 -0.00000000000E+00 -0.00000000000E+00 -0.45593999997E+02  0.45594000000E+02  0.51100000000E-03 0. -1.
         23    2    1    2    0    0 -0.35527136788E-14  0.00000000000E+00  0.00000000000E+00  0.91188000000E+02  0.91188000000E+02 0.  0.
    9900012    2    3    3    0    0  0.26638844496E+02 -0.24759484889E+02 -0.57550391615E+01  0.54367073833E+02  0.39999976417E+02 0.  0.
        -12    1    3    3    0    0 -0.26638844496E+02  0.24759484889E+02  0.57550391615E+01  0.36820926167E+02  0.00000000000E+00 0.  1.
         11    1    4    4    0    0  0.19497239783E+02 -0.89026153564E+01 -0.14648342988E+02  0.25960987498E+02  0.51100000000E-03 0. -1.
        -11    1    4    4    0    0  0.25782494714E+01 -0.14814898449E+02 -0.32562078697E+01  0.15386080603E+02  0.51100000000E-03 0.  1.
        -12    1    4    4    0    0  0.45633552423E+01 -0.10419710839E+01  0.12149511696E+02  0.13020005732E+02  0.00000000000E+00 0.  1.
</event>
<event>
 8    1  0.2509489E-006  0.9118800E+02  0.7816164E-02  0.1184000E+00
        -11   -1    0    0    0    0  0.00000000000E+00  0.00000000000E+00  0.45593999997E+02  0.45594000000E+02  0.51100000000E-03 0. -1.
         11   -1    0    0    0    0 -0.00000000000E+00 -0.00000000000E+00 -0.45593999997E+02  0.45594000000E+02  0.51100000000E-03 0.  1.
         23    2    1    2    0    0  0.00000000000E+00  0.00000000000E+00  0.00000000000E+00  0.91188000000E+02  0.91188000000E+02 0.  0.
    9900012    2    3    3    0    0 -0.65062376012E+01 -0.26434476120E+02  0.24792483411E+02  0.54367083538E+02  0.39999998541E+02 0.  0.
        -12    1    3    3    0    0  0.65062376012E+01  0.26434476120E+02 -0.24792483411E+02  0.36820916462E+02  0.00000000000E+00 0.  1.
         11    1    4    4    0    0 -0.24242800454E+01  0.85905151670E+01  0.98506610557E+01  0.13293216619E+02  0.51100000000E-03 0. -1.
        -11    1    4    4    0    0 -0.56086255196E+01 -0.35589250513E+01  0.14260356610E+01  0.67938358611E+01  0.51100000000E-03 0.  1.
        -12    1    4    4    0    0  0.15266679638E+01 -0.31466066235E+02  0.13515786694E+02  0.34280031058E+02  0.00000000000E+00 0.  1.
</event>
<event>
 8    1  0.2509489E-006  0.9118800E+02  0.7816164E-02  0.1184000E+00
        -11   -1    0    0    0    0  0.00000000000E+00  0.00000000000E+00  0.45593999997E+02  0.45594000000E+02  0.51100000000E-03 0. -1.
         11   -1    0    0    0    0 -0.00000000000E+00 -0.00000000000E+00 -0.45593999997E+02  0.45594000000E+02  0.51100000000E-03 0.  1.
         23    2    1    2    0    0  0.17763568394E-14  0.00000000000E+00  0.00000000000E+00  0.91188000000E+02  0.91188000000E+02 0.  0.
    9900012    2    3    3    0    0 -0.31074827737E+01  0.24211365925E+02  0.27566901803E+02  0.54367071656E+02  0.39999971454E+02 0.  0.
        -12    1    3    3    0    0  0.31074827737E+01 -0.24211365925E+02 -0.27566901803E+02  0.36820928344E+02  0.00000000000E+00 0.  1.
         11    1    4    4    0    0 -0.12461008058E+02  0.11529336736E+02  0.27310386574E+01  0.17194792811E+02  0.51100000000E-03 0.  1.
        -11    1    4    4    0    0 -0.34976425600E+00  0.15273333903E+02  0.72267406736E+01  0.16900380013E+02  0.51100000000E-03 0. -1.
        -12    1    4    4    0    0  0.97032895401E+01 -0.25913047151E+01  0.17609122472E+02  0.20271898832E+02  0.00000000000E+00 0.  1.
</event>
<event>
 8    1  0.2509489E-006  0.9118800E+02  0.7816164E-02  0.1184000E+00
        -11   -1    0    0    0    0  0.00000000000E+00  0.00000000000E+00  0.45593999997E+02  0.45594000000E+02  0.51100000000E-03 0.  1.
         11   -1    0    0    0    0 -0.00000000000E+00 -0.00000000000E+00 -0.45593999997E+02  0.45594000000E+02  0.51100000000E-03 0. -1.
         23    2    1    2    0    0  0.00000000000E+00  0.00000000000E+00  0.35527136788E-14  0.91188000000E+02  0.91188000000E+02 0.  0.
    9900012    2    3    3    0    0 -0.25321032079E+02 -0.54364666975E+01  0.26173845048E+02  0.54367082028E+02  0.39999995099E+02 0.  0.
         12    1    3    3    0    0  0.25321032079E+02  0.54364666975E+01 -0.26173845048E+02  0.36820917972E+02  0.00000000000E+00 0. -1.
         11    1    4    4    0    0  0.15245230670E+01 -0.67335940140E+01  0.14819912011E+02  0.16349166682E+02  0.51100000000E-03 0.  1.
        -11    1    4    4    0    0  0.17441405528E+01 -0.43741892457E+01 -0.29434454622E+01  0.55533259652E+01  0.51100000000E-03 0. -1.
         12    1    4    4    0    0 -0.28589695699E+02  0.56713165622E+01  0.14297378499E+02  0.32464589381E+02  0.00000000000E+00 0. -1.
</event>
<event>
 8    1  0.2509489E-006  0.9118800E+02  0.7816164E-02  0.1184000E+00
        -11   -1    0    0    0    0  0.00000000000E+00  0.00000000000E+00  0.45593999997E+02  0.45594000000E+02  0.51100000000E-03 0.  1.
         11   -1    0    0    0    0 -0.00000000000E+00 -0.00000000000E+00 -0.45593999997E+02  0.45594000000E+02  0.51100000000E-03 0. -1.
         23    2    1    2    0    0  0.00000000000E+00  0.00000000000E+00  0.71054273576E-14  0.91188000000E+02  0.91188000000E+02 0.  0.
    9900012    2    3    3    0    0  0.97292627603E+01 -0.21681528680E+01  0.35446027069E+02  0.54367078288E+02  0.39999986573E+02 0.  0.
         12    1    3    3    0    0 -0.97292627603E+01  0.21681528680E+01 -0.35446027069E+02  0.36820921712E+02  0.00000000000E+00 0. -1.
         11    1    4    4    0    0  0.72899804927E+01 -0.62956576953E+00 -0.65455293925E+01  0.98175416440E+01  0.51100000000E-03 0. -1.
        -11    1    4    4    0    0 -0.34875532550E+01  0.44566105905E+01  0.10259490906E+02  0.11716721367E+02  0.51100000000E-03 0.  1.
         12    1    4    4    0    0  0.59268355225E+01 -0.59951976890E+01  0.31732065555E+02  0.32832815277E+02  0.00000000000E+00 0. -1.
</event>
<event>
 8    1  0.2509489E-006  0.9118800E+02  0.7816164E-02  0.1184000E+00
        -11   -1    0    0    0    0  0.00000000000E+00  0.00000000000E+00  0.45593999997E+02  0.45594000000E+02  0.51100000000E-03 0. -1.
         11   -1    0    0    0    0 -0.00000000000E+00 -0.00000000000E+00 -0.45593999997E+02  0.45594000000E+02  0.51100000000E-03 0.  1.
         23    2    1    2    0    0  0.00000000000E+00 -0.17763568394E-14  0.00000000000E+00  0.91188000000E+02  0.91188000000E+02 0.  0.
    9900012    2    3    3    0    0 -0.32771567875E+02 -0.43195641180E+01 -0.16221928649E+02  0.54367010547E+02  0.39999832144E+02 0.  0.
         12    1    3    3    0    0  0.32771567875E+02  0.43195641180E+01  0.16221928649E+02  0.36820989453E+02  0.00000000000E+00 0. -1.
         11    1    4    4    0    0 -0.49775479068E+01  0.33715158871E+01  0.21838267998E+01  0.63962647143E+01  0.51100000000E-03 0. -1.
        -11    1    4    4    0    0 -0.27834968791E+01 -0.16765315578E+02 -0.11379592124E+02  0.20452842797E+02  0.51100000000E-03 0.  1.
        -12    1    4    4    0    0 -0.25010523089E+02  0.90742355727E+01 -0.70261633248E+01  0.27517903036E+02  0.00000000000E+00 0.  1.
</event>
<event>
 8    1  0.2509489E-006  0.9118800E+02  0.7816164E-02  0.1184000E+00
        -11   -1    0    0    0    0  0.00000000000E+00  0.00000000000E+00  0.45593999997E+02  0.45594000000E+02  0.51100000000E-03 0.  1.
         11   -1    0    0    0    0 -0.00000000000E+00 -0.00000000000E+00 -0.45593999997E+02  0.45594000000E+02  0.51100000000E-03 0. -1.
         23    2    1    2    0    0  0.17763568394E-14 -0.88817841970E-15  0.71054273576E-14  0.91188000000E+02  0.91188000000E+02 0.  0.
    9900012    2    3    3    0    0 -0.13631689323E+02  0.48297013561E+01 -0.33861927816E+02  0.54367093922E+02  0.40000022214E+02 0.  0.
        -12    1    3    3    0    0  0.13631689323E+02 -0.48297013561E+01  0.33861927816E+02  0.36820906078E+02  0.00000000000E+00 0.  1.
         11    1    4    4    0    0 -0.67868674753E+01 -0.12475878582E+02 -0.14609842042E+02  0.20375392052E+02  0.51100000000E-03 0. -1.
        -11    1    4    4    0    0 -0.20624822242E+01  0.15363223045E+01 -0.17193911865E+02  0.17385186931E+02  0.51100000000E-03 0.  1.
        -12    1    4    4    0    0 -0.47823396230E+01  0.15769257634E+02 -0.20581739089E+01  0.16606514939E+02  0.00000000000E+00 0.  1.
</event>
<event>
 8    1  0.2509489E-006  0.9118800E+02  0.7816164E-02  0.1184000E+00
        -11   -1    0    0    0    0  0.00000000000E+00  0.00000000000E+00  0.45593999997E+02  0.45594000000E+02  0.51100000000E-03 0.  1.
         11   -1    0    0    0    0 -0.00000000000E+00 -0.00000000000E+00 -0.45593999997E+02  0.45594000000E+02  0.51100000000E-03 0. -1.
         23    2    1    2    0    0  0.00000000000E+00  0.00000000000E+00  0.00000000000E+00  0.91188000000E+02  0.91188000000E+02 0.  0.
    9900012    2    3    3    0    0  0.97078051440E+01 -0.22467484471E+02  0.27509092572E+02  0.54367088641E+02  0.40000010176E+02 0.  0.
         12    1    3    3    0    0 -0.97078051440E+01  0.22467484471E+02 -0.27509092572E+02  0.36820911359E+02  0.00000000000E+00 0. -1.
         11    1    4    4    0    0  0.14218472876E+01 -0.79686551593E+01 -0.89953406610E+01  0.12101126750E+02  0.51100000000E-03 0. -1.
        -11    1    4    4    0    0  0.67355905885E+01 -0.63311236566E+01  0.30866517019E+02  0.32221005268E+02  0.51100000000E-03 0.  1.
        -12    1    4    4    0    0  0.15503672679E+01 -0.81677056549E+01  0.56379162135E+01  0.10044956623E+02  0.00000000000E+00 0.  1.
</event>
<event>
 8    1  0.2509489E-006  0.9118800E+02  0.7816164E-02  0.1184000E+00
        -11   -1    0    0    0    0  0.00000000000E+00  0.00000000000E+00  0.45593999997E+02  0.45594000000E+02  0.51100000000E-03 0. -1.
         11   -1    0    0    0    0 -0.00000000000E+00 -0.00000000000E+00 -0.45593999997E+02  0.45594000000E+02  0.51100000000E-03 0.  1.
         23    2    1    2    0    0  0.00000000000E+00  0.00000000000E+00  0.00000000000E+00  0.91188000000E+02  0.91188000000E+02 0.  0.
    9900012    2    3    3    0    0  0.11186179673E+02  0.22574050360E+02  0.26852636902E+02  0.54367048438E+02  0.39999918523E+02 0.  0.
        -12    1    3    3    0    0 -0.11186179673E+02 -0.22574050360E+02 -0.26852636902E+02  0.36820951562E+02  0.00000000000E+00 0.  1.
         11    1    4    4    0    0  0.49205554871E+01  0.11452494822E+02  0.34209873723E+02  0.36409984404E+02  0.51100000000E-03 0. -1.
        -11    1    4    4    0    0  0.42392385483E+00 -0.15934713808E+01 -0.27844796572E+01  0.32360762813E+01  0.51100000000E-03 0.  1.
        -12    1    4    4    0    0  0.58417003315E+01  0.12715026919E+02 -0.45727571632E+01  0.14720987752E+02  0.00000000000E+00 0.  1.
</event>
<event>
 8    1  0.2509489E-006  0.9118800E+02  0.7816164E-02  0.1184000E+00
        -11   -1    0    0    0    0  0.00000000000E+00  0.00000000000E+00  0.45593999997E+02  0.45594000000E+02  0.51100000000E-03 0.  1.
         11   -1    0    0    0    0 -0.00000000000E+00 -0.00000000000E+00 -0.45593999997E+02  0.45594000000E+02  0.51100000000E-03 0. -1.
         23    2    1    2    0    0  0.00000000000E+00  0.35527136788E-14  0.00000000000E+00  0.91188000000E+02  0.91188000000E+02 0.  0.
    9900012    2    3    3    0    0  0.85723304454E+01  0.23484598795E+02 -0.27032565531E+02  0.54367206567E+02  0.40000279009E+02 0.  0.
        -12    1    3    3    0    0 -0.85723304454E+01 -0.23484598795E+02  0.27032565531E+02  0.36820793433E+02  0.00000000000E+00 0.  1.
         11    1    4    4    0    0  0.37308375286E+01  0.25418789279E+01 -0.15533438777E+02  0.16176155836E+02  0.51100000000E-03 0. -1.
        -11    1    4    4    0    0  0.14733489164E+02  0.21592329363E+01 -0.23529908103E+01  0.15075627876E+02  0.51100000000E-03 0.  1.
         12    1    4    4    0    0 -0.98919962474E+01  0.18783486931E+02 -0.91461359444E+01  0.23115422855E+02  0.00000000000E+00 0. -1.
</event>
<event>
 8    1  0.2509489E-006  0.9118800E+02  0.7816164E-02  0.1184000E+00
        -11   -1    0    0    0    0  0.00000000000E+00  0.00000000000E+00  0.45593999997E+02  0.45594000000E+02  0.51100000000E-03 0. -1.
         11   -1    0    0    0    0 -0.00000000000E+00 -0.00000000000E+00 -0.45593999997E+02  0.45594000000E+02  0.51100000000E-03 0.  1.
         23    2    1    2    0    0 -0.88817841970E-15  0.17763568394E-14  0.00000000000E+00  0.91188000000E+02  0.91188000000E+02 0.  0.
    9900012    2    3    3    0    0  0.66208892665E+01 -0.10311379203E+01  0.36206068914E+02  0.54367097699E+02  0.40000030824E+02 0.  0.
        -12    1    3    3    0    0 -0.66208892665E+01  0.10311379203E+01 -0.36206068914E+02  0.36820902301E+02  0.00000000000E+00 0.  1.
         11    1    4    4    0    0  0.83165409051E+01 -0.15211737125E+02  0.12395145771E+02  0.21312002204E+02  0.51100000000E-03 0. -1.
        -11    1    4    4    0    0 -0.36088028205E+01  0.31754283849E+01 -0.17852226016E+01  0.51277503082E+01  0.51100000000E-03 0.  1.
        -12    1    4    4    0    0  0.19131511819E+01  0.11005170820E+02  0.25596145744E+02  0.27927345187E+02  0.00000000000E+00 0.  1.
</event>
<event>
 8    1  0.2509489E-006  0.9118800E+02  0.7816164E-02  0.1184000E+00
        -11   -1    0    0    0    0  0.00000000000E+00  0.00000000000E+00  0.45593999997E+02  0.45594000000E+02  0.51100000000E-03 0.  1.
         11   -1    0    0    0    0 -0.00000000000E+00 -0.00000000000E+00 -0.45593999997E+02  0.45594000000E+02  0.51100000000E-03 0. -1.
         23    2    1    2    0    0  0.17763568394E-14  0.35527136788E-14 -0.35527136788E-14  0.91188000000E+02  0.91188000000E+02 0.  0.
    9900012    2    3    3    0    0  0.88503939869E+01  0.24065533122E+02 -0.26425376476E+02  0.54367083660E+02  0.39999998820E+02 0.  0.
        -12    1    3    3    0    0 -0.88503939869E+01 -0.24065533122E+02  0.26425376476E+02  0.36820916340E+02  0.00000000000E+00 0.  1.
         11    1    4    4    0    0 -0.36664842655E+01  0.22062576356E+02 -0.34593384764E+01  0.22631115865E+02  0.51100000000E-03 0. -1.
        -11    1    4    4    0    0  0.27099376287E+01  0.92321050908E+01 -0.11632925865E+02  0.15096373432E+02  0.51100000000E-03 0.  1.
        -12    1    4    4    0    0  0.98069406237E+01 -0.72291483248E+01 -0.11333112135E+02  0.16639594363E+02  0.00000000000E+00 0.  1.
</event>
<event>
 8    1  0.2509489E-006  0.9118800E+02  0.7816164E-02  0.1184000E+00
        -11   -1    0    0    0    0  0.00000000000E+00  0.00000000000E+00  0.45593999997E+02  0.45594000000E+02  0.51100000000E-03 0.  1.
         11   -1    0    0    0    0 -0.00000000000E+00 -0.00000000000E+00 -0.45593999997E+02  0.45594000000E+02  0.51100000000E-03 0. -1.
         23    2    1    2    0    0  0.00000000000E+00  0.00000000000E+00  0.00000000000E+00  0.91188000000E+02  0.91188000000E+02 0.  0.
    9900012    2    3    3    0    0  0.14612376380E+02 -0.59395405404E+01 -0.33271313744E+02  0.54367081984E+02  0.39999994999E+02 0.  0.
        -12    1    3    3    0    0 -0.14612376380E+02  0.59395405404E+01  0.33271313744E+02  0.36820918016E+02  0.00000000000E+00 0.  1.
         11    1    4    4    0    0  0.62902283499E+01 -0.14709967570E+01 -0.25842369898E+02  0.26637546553E+02  0.51100000000E-03 0. -1.
        -11    1    4    4    0    0  0.14863649008E+02  0.36582936727E+01 -0.80187738936E+01  0.17280390894E+02  0.51100000000E-03 0.  1.
        -12    1    4    4    0    0 -0.65415009777E+01 -0.81268374561E+01  0.58983004790E+00  0.10449144537E+02  0.00000000000E+00 0.  1.
</event>
<event>
 8    1  0.2509489E-006  0.9118800E+02  0.7816164E-02  0.1184000E+00
        -11   -1    0    0    0    0  0.00000000000E+00  0.00000000000E+00  0.45593999997E+02  0.45594000000E+02  0.51100000000E-03 0.  1.
         11   -1    0    0    0    0 -0.00000000000E+00 -0.00000000000E+00 -0.45593999997E+02  0.45594000000E+02  0.51100000000E-03 0. -1.
         23    2    1    2    0    0 -0.71054273576E-14  0.44408920985E-15  0.00000000000E+00  0.91188000000E+02  0.91188000000E+02 0.  0.
    9900012    2    3    3    0    0 -0.30368649597E+02  0.29782195690E+01  0.20607161677E+02  0.54367084985E+02  0.40000001841E+02 0.  0.
         12    1    3    3    0    0  0.30368649597E+02 -0.29782195690E+01 -0.20607161677E+02  0.36820915015E+02  0.00000000000E+00 0. -1.
         11    1    4    4    0    0  0.29572241438E+01 -0.33689011741E+01 -0.65645340852E+01  0.79490740199E+01  0.51100000000E-03 0. -1.
        -11    1    4    4    0    0 -0.25164411158E+02 -0.88661548400E+00  0.12430409993E+02  0.28081110534E+02  0.51100000000E-03 0.  1.
         12    1    4    4    0    0 -0.81614625822E+01  0.72337362271E+01  0.14741285770E+02  0.18336900431E+02  0.00000000000E+00 0. -1.
</event>
<event>
 8    1  0.2509489E-006  0.9118800E+02  0.7816164E-02  0.1184000E+00
        -11   -1    0    0    0    0  0.00000000000E+00  0.00000000000E+00  0.45593999997E+02  0.45594000000E+02  0.51100000000E-03 0. -1.
         11   -1    0    0    0    0 -0.00000000000E+00 -0.00000000000E+00 -0.45593999997E+02  0.45594000000E+02  0.51100000000E-03 0.  1.
         23    2    1    2    0    0  0.88817841970E-15  0.00000000000E+00  0.00000000000E+00  0.91188000000E+02  0.91188000000E+02 0.  0.
    9900012    2    3    3    0    0  0.54562208955E+01  0.33603545464E+02  0.14028845261E+02  0.54367121228E+02  0.40000084463E+02 0.  0.
        -12    1    3    3    0    0 -0.54562208955E+01 -0.33603545464E+02 -0.14028845261E+02  0.36820878772E+02  0.00000000000E+00 0.  1.
         11    1    4    4    0    0 -0.95008935508E+01  0.13973335035E-01  0.82934149329E+01  0.12611419628E+02  0.51100000000E-03 0. -1.
        -11    1    4    4    0    0  0.61609859710E+01  0.30892356493E+02  0.12634077906E+01  0.31526046967E+02  0.51100000000E-03 0.  1.
         12    1    4    4    0    0  0.87961284753E+01  0.26972156354E+01  0.44720225376E+01  0.10229654633E+02  0.00000000000E+00 0. -1.
</event>
<event>
 8    1  0.2509489E-006  0.9118800E+02  0.7816164E-02  0.1184000E+00
        -11   -1    0    0    0    0  0.00000000000E+00  0.00000000000E+00  0.45593999997E+02  0.45594000000E+02  0.51100000000E-03 0.  1.
         11   -1    0    0    0    0 -0.00000000000E+00 -0.00000000000E+00 -0.45593999997E+02  0.45594000000E+02  0.51100000000E-03 0. -1.
         23    2    1    2    0    0  0.17763568394E-14  0.00000000000E+00 -0.71054273576E-14  0.91188000000E+02  0.91188000000E+02 0.  0.
    9900012    2    3    3    0    0 -0.88702257784E+00 -0.81576850528E+01  0.35894911796E+02  0.54367091166E+02  0.40000015931E+02 0.  0.
         12    1    3    3    0    0  0.88702257784E+00  0.81576850528E+01 -0.35894911796E+02  0.36820908834E+02  0.00000000000E+00 0. -1.
         11    1    4    4    0    0 -0.73589699078E+01  0.72749383681E+01  0.27412797771E+02  0.29300864292E+02  0.51100000000E-03 0. -1.
        -11    1    4    4    0    0  0.11531356351E+02 -0.95486043107E+01  0.86758287427E+01  0.17303699842E+02  0.51100000000E-03 0.  1.
        -12    1    4    4    0    0 -0.50594090215E+01 -0.58840191103E+01 -0.19371471700E+00  0.77625270324E+01  0.00000000000E+00 0.  1.
</event>
<event>
 8    1  0.2509489E-006  0.9118800E+02  0.7816164E-02  0.1184000E+00
        -11   -1    0    0    0    0  0.00000000000E+00  0.00000000000E+00  0.45593999997E+02  0.45594000000E+02  0.51100000000E-03 0.  1.
         11   -1    0    0    0    0 -0.00000000000E+00 -0.00000000000E+00 -0.45593999997E+02  0.45594000000E+02  0.51100000000E-03 0. -1.
         23    2    1    2    0    0  0.17763568394E-14 -0.71054273576E-14 -0.17763568394E-14  0.91188000000E+02  0.91188000000E+02 0.  0.
    9900012    2    3    3    0    0  0.10822872214E+02  0.32262523968E+02  0.14063226136E+02  0.54367090925E+02  0.40000015382E+02 0.  0.
         12    1    3    3    0    0 -0.10822872214E+02 -0.32262523968E+02 -0.14063226136E+02  0.36820909075E+02  0.00000000000E+00 0. -1.
         11    1    4    4    0    0 -0.60663042569E+00 -0.47646338875E+01 -0.25080306469E+01  0.54184826790E+01  0.51100000000E-03 0. -1.
        -11    1    4    4    0    0 -0.69719483255E+01  0.58138736987E+01  0.70243614950E+01  0.11478277114E+02  0.51100000000E-03 0.  1.
        -12    1    4    4    0    0  0.18401450965E+02  0.31213284157E+02  0.95468952880E+01  0.37470331132E+02  0.00000000000E+00 0.  1.
</event>
<event>
 8    1  0.2509489E-006  0.9118800E+02  0.7816164E-02  0.1184000E+00
        -11   -1    0    0    0    0  0.00000000000E+00  0.00000000000E+00  0.45593999997E+02  0.45594000000E+02  0.51100000000E-03 0.  1.
         11   -1    0    0    0    0 -0.00000000000E+00 -0.00000000000E+00 -0.45593999997E+02  0.45594000000E+02  0.51100000000E-03 0. -1.
         23    2    1    2    0    0  0.00000000000E+00 -0.88817841970E-15  0.00000000000E+00  0.91188000000E+02  0.91188000000E+02 0.  0.
    9900012    2    3    3    0    0 -0.13539268961E+02 -0.38103595804E+01  0.34028658363E+02  0.54367078853E+02  0.39999987861E+02 0.  0.
         12    1    3    3    0    0  0.13539268961E+02  0.38103595804E+01 -0.34028658363E+02  0.36820921147E+02  0.00000000000E+00 0. -1.
         11    1    4    4    0    0 -0.55139716631E+00 -0.10297721770E+02 -0.10699185402E+01  0.10367827084E+02  0.51100000000E-03 0. -1.
        -11    1    4    4    0    0 -0.65432099737E+01  0.12591662398E+02  0.99528091024E+01  0.17332684962E+02  0.51100000000E-03 0.  1.
         12    1    4    4    0    0 -0.64446618210E+01 -0.61043002081E+01  0.25145767801E+02  0.26666566808E+02  0.00000000000E+00 0. -1.
</event>
<event>
 8    1  0.2509489E-006  0.9118800E+02  0.7816164E-02  0.1184000E+00
        -11   -1    0    0    0    0  0.00000000000E+00  0.00000000000E+00  0.45593999997E+02  0.45594000000E+02  0.51100000000E-03 0.  1.
         11   -1    0    0    0    0 -0.00000000000E+00 -0.00000000000E+00 -0.45593999997E+02  0.45594000000E+02  0.51100000000E-03 0. -1.
         23    2    1    2    0    0  0.00000000000E+00 -0.17763568394E-14  0.00000000000E+00  0.91188000000E+02  0.91188000000E+02 0.  0.
    9900012    2    3    3    0    0 -0.75042906863E+01  0.12530338973E+02  0.33800255373E+02  0.54367067953E+02  0.39999963013E+02 0.  0.
         12    1    3    3    0    0  0.75042906863E+01 -0.12530338973E+02 -0.33800255373E+02  0.36820932047E+02  0.00000000000E+00 0. -1.
         11    1    4    4    0    0 -0.80883838867E+00  0.11630117411E+02  0.14711319144E+02  0.18770635625E+02  0.51100000000E-03 0.  1.
        -11    1    4    4    0    0  0.92651834283E+01 -0.13988239087E+01 -0.14521049515E+01  0.94820325532E+01  0.51100000000E-03 0. -1.
         12    1    4    4    0    0 -0.15960635726E+02  0.22990454709E+01  0.20541041181E+02  0.26114399776E+02  0.00000000000E+00 0. -1.
</event>
<event>
 8    1  0.2509489E-006  0.9118800E+02  0.7816164E-02  0.1184000E+00
        -11   -1    0    0    0    0  0.00000000000E+00  0.00000000000E+00  0.45593999997E+02  0.45594000000E+02  0.51100000000E-03 0.  1.
         11   -1    0    0    0    0 -0.00000000000E+00 -0.00000000000E+00 -0.45593999997E+02  0.45594000000E+02  0.51100000000E-03 0. -1.
         23    2    1    2    0    0  0.22204460493E-15  0.00000000000E+00  0.00000000000E+00  0.91188000000E+02  0.91188000000E+02 0.  0.
    9900012    2    3    3    0    0  0.23917310706E+00 -0.13580459087E+02 -0.34224193883E+02  0.54367061396E+02  0.39999948064E+02 0.  0.
        -12    1    3    3    0    0 -0.23917310706E+00  0.13580459087E+02  0.34224193883E+02  0.36820938604E+02  0.00000000000E+00 0.  1.
         11    1    4    4    0    0 -0.34528057087E+01 -0.12905431616E+02 -0.11876700298E+02  0.17875347345E+02  0.51100000000E-03 0. -1.
        -11    1    4    4    0    0  0.12033529646E+02 -0.62637073069E+01 -0.22700027287E+02  0.26444869144E+02  0.51100000000E-03 0.  1.
        -12    1    4    4    0    0 -0.83415508301E+01  0.55886798365E+01  0.35253370224E+00  0.10046844907E+02  0.00000000000E+00 0.  1.
</event>
<event>
 8    1  0.2509489E-006  0.9118800E+02  0.7816164E-02  0.1184000E+00
        -11   -1    0    0    0    0  0.00000000000E+00  0.00000000000E+00  0.45593999997E+02  0.45594000000E+02  0.51100000000E-03 0.  1.
         11   -1    0    0    0    0 -0.00000000000E+00 -0.00000000000E+00 -0.45593999997E+02  0.45594000000E+02  0.51100000000E-03 0. -1.
         23    2    1    2    0    0 -0.35527136788E-14  0.00000000000E+00 -0.35527136788E-14  0.91188000000E+02  0.91188000000E+02 0.  0.
    9900012    2    3    3    0    0 -0.18733029591E+02  0.21093695847E+02 -0.23662432270E+02  0.54367067053E+02  0.39999960962E+02 0.  0.
        -12    1    3    3    0    0  0.18733029591E+02 -0.21093695847E+02  0.23662432270E+02  0.36820932947E+02  0.00000000000E+00 0.  1.
         11    1    4    4    0    0 -0.79460678373E+01  0.24066877075E+02 -0.15362320984E+02  0.29637062481E+02  0.51100000000E-03 0. -1.
        -11    1    4    4    0    0 -0.74490646645E+01 -0.75583585910E+01  0.38760149435E+01  0.11297824617E+02  0.51100000000E-03 0.  1.
         12    1    4    4    0    0 -0.33378970891E+01  0.45851773637E+01 -0.12176126229E+02  0.13432179956E+02  0.00000000000E+00 0. -1.
</event>
<event>
 8    1  0.2509489E-006  0.9118800E+02  0.7816164E-02  0.1184000E+00
        -11   -1    0    0    0    0  0.00000000000E+00  0.00000000000E+00  0.45593999997E+02  0.45594000000E+02  0.51100000000E-03 0.  1.
         11   -1    0    0    0    0 -0.00000000000E+00 -0.00000000000E+00 -0.45593999997E+02  0.45594000000E+02  0.51100000000E-03 0. -1.
         23    2    1    2    0    0  0.00000000000E+00  0.00000000000E+00  0.00000000000E+00  0.91188000000E+02  0.91188000000E+02 0.  0.
    9900012    2    3    3    0    0  0.31503214603E+02 -0.80684436999E+01 -0.17269198864E+02  0.54367115390E+02  0.40000071154E+02 0.  0.
         12    1    3    3    0    0 -0.31503214603E+02  0.80684436999E+01  0.17269198864E+02  0.36820884610E+02  0.00000000000E+00 0. -1.
         11    1    4    4    0    0  0.31301948905E+01  0.46218707714E+01  0.48532900857E+01  0.73969070831E+01  0.51100000000E-03 0. -1.
        -11    1    4    4    0    0  0.23402806557E+01  0.56276844818E+00  0.59731067434E+01  0.64398467608E+01  0.51100000000E-03 0.  1.
         12    1    4    4    0    0  0.26032739057E+02 -0.13253082920E+02 -0.28095595693E+02  0.40530361546E+02  0.00000000000E+00 0. -1.
</event>
<event>
 8    1  0.2509489E-006  0.9118800E+02  0.7816164E-02  0.1184000E+00
        -11   -1    0    0    0    0  0.00000000000E+00  0.00000000000E+00  0.45593999997E+02  0.45594000000E+02  0.51100000000E-03 0.  1.
         11   -1    0    0    0    0 -0.00000000000E+00 -0.00000000000E+00 -0.45593999997E+02  0.45594000000E+02  0.51100000000E-03 0. -1.
         23    2    1    2    0    0  0.77715611724E-15 -0.88817841970E-15  0.00000000000E+00  0.91188000000E+02  0.91188000000E+02 0.  0.
    9900012    2    3    3    0    0 -0.76058021921E+00  0.44396200904E+01 -0.36544358856E+02  0.54367097335E+02  0.40000029995E+02 0.  0.
        -12    1    3    3    0    0  0.76058021921E+00 -0.44396200904E+01  0.36544358856E+02  0.36820902665E+02  0.00000000000E+00 0.  1.
         11    1    4    4    0    0  0.19896339744E+01 -0.10393768910E+02 -0.23958977259E+02  0.26192015330E+02  0.51100000000E-03 0. -1.
        -11    1    4    4    0    0 -0.94184257277E+01  0.75192818144E+01  0.14142642333E+00  0.12052648833E+02  0.51100000000E-03 0.  1.
         12    1    4    4    0    0  0.66682115342E+01  0.73141071862E+01 -0.12726808021E+02  0.16122433172E+02  0.00000000000E+00 0. -1.
</event>
<event>
 8    1  0.2509489E-006  0.9118800E+02  0.7816164E-02  0.1184000E+00
        -11   -1    0    0    0    0  0.00000000000E+00  0.00000000000E+00  0.45593999997E+02  0.45594000000E+02  0.51100000000E-03 0.  1.
         11   -1    0    0    0    0 -0.00000000000E+00 -0.00000000000E+00 -0.45593999997E+02  0.45594000000E+02  0.51100000000E-03 0. -1.
         23    2    1    2    0    0  0.00000000000E+00  0.00000000000E+00 -0.35527136788E-14  0.91188000000E+02  0.91188000000E+02 0.  0.
    9900012    2    3    3    0    0 -0.10603268516E+02  0.16015218471E+02 -0.31414361779E+02  0.54367100338E+02  0.40000036842E+02 0.  0.
        -12    1    3    3    0    0  0.10603268516E+02 -0.16015218471E+02  0.31414361779E+02  0.36820899662E+02  0.00000000000E+00 0.  1.
         11    1    4    4    0    0 -0.10746467224E+01  0.46987327984E+01 -0.19521232648E+02  0.20107498100E+02  0.51100000000E-03 0. -1.
        -11    1    4    4    0    0  0.77715053854E+01  0.53784229035E+01 -0.12841107841E+02  0.15944208344E+02  0.51100000000E-03 0.  1.
         12    1    4    4    0    0 -0.17300127179E+02  0.59380627689E+01  0.94797870946E+00  0.18315393894E+02  0.00000000000E+00 0. -1.
</event>
<event>
 8    1  0.2509489E-006  0.9118800E+02  0.7816164E-02  0.1184000E+00
        -11   -1    0    0    0    0  0.00000000000E+00  0.00000000000E+00  0.45593999997E+02  0.45594000000E+02  0.51100000000E-03 0. -1.
         11   -1    0    0    0    0 -0.00000000000E+00 -0.00000000000E+00 -0.45593999997E+02  0.45594000000E+02  0.51100000000E-03 0.  1.
         23    2    1    2    0    0  0.00000000000E+00 -0.88817841970E-15  0.00000000000E+00  0.91188000000E+02  0.91188000000E+02 0.  0.
    9900012    2    3    3    0    0 -0.36539978486E+02  0.42080752640E+01  0.17036586614E+01  0.54367076899E+02  0.39999983406E+02 0.  0.
        -12    1    3    3    0    0  0.36539978486E+02 -0.42080752640E+01 -0.17036586614E+01  0.36820923101E+02  0.00000000000E+00 0.  1.
         11    1    4    4    0    0 -0.32950188083E+02  0.54976253522E+01 -0.24615922902E+00  0.33406576805E+02  0.51100000000E-03 0. -1.
        -11    1    4    4    0    0 -0.41213847919E+01  0.91233176136E+01 -0.11653985526E+01  0.10078635370E+02  0.51100000000E-03 0.  1.
        -12    1    4    4    0    0  0.53159438871E+00 -0.10412867702E+02  0.31152164430E+01  0.10881864723E+02  0.00000000000E+00 0.  1.
</event>
<event>
 8    1  0.2509489E-006  0.9118800E+02  0.7816164E-02  0.1184000E+00
        -11   -1    0    0    0    0  0.00000000000E+00  0.00000000000E+00  0.45593999997E+02  0.45594000000E+02  0.51100000000E-03 0.  1.
         11   -1    0    0    0    0 -0.00000000000E+00 -0.00000000000E+00 -0.45593999997E+02  0.45594000000E+02  0.51100000000E-03 0. -1.
         23    2    1    2    0    0  0.00000000000E+00  0.11102230246E-14  0.00000000000E+00  0.91188000000E+02  0.91188000000E+02 0.  0.
    9900012    2    3    3    0    0  0.36740602178E+02 -0.41621082329E+00  0.23945567130E+01  0.54367095860E+02  0.40000026632E+02 0.  0.
        -12    1    3    3    0    0 -0.36740602178E+02  0.41621082329E+00 -0.23945567130E+01  0.36820904140E+02  0.00000000000E+00 0.  1.
         11    1    4    4    0    0  0.70635742659E+01 -0.18558597954E+01  0.71696123915E+01  0.10234336280E+02  0.51100000000E-03 0. -1.
        -11    1    4    4    0    0  0.18498946087E+02  0.16210551035E+02 -0.67447188566E+01  0.25504591820E+02  0.51100000000E-03 0.  1.
         12    1    4    4    0    0  0.11178081825E+02 -0.14770902063E+02  0.19696631781E+01  0.18628167760E+02  0.00000000000E+00 0. -1.
</event>
<event>
 8    1  0.2509489E-006  0.9118800E+02  0.7816164E-02  0.1184000E+00
        -11   -1    0    0    0    0  0.00000000000E+00  0.00000000000E+00  0.45593999997E+02  0.45594000000E+02  0.51100000000E-03 0.  1.
         11   -1    0    0    0    0 -0.00000000000E+00 -0.00000000000E+00 -0.45593999997E+02  0.45594000000E+02  0.51100000000E-03 0. -1.
         23    2    1    2    0    0  0.00000000000E+00  0.00000000000E+00  0.35527136788E-14  0.91188000000E+02  0.91188000000E+02 0.  0.
    9900012    2    3    3    0    0  0.21984348901E+02 -0.16601703247E+02 -0.24430573172E+02  0.54367067736E+02  0.39999962518E+02 0.  0.
        -12    1    3    3    0    0 -0.21984348901E+02  0.16601703247E+02  0.24430573172E+02  0.36820932264E+02  0.00000000000E+00 0.  1.
         11    1    4    4    0    0  0.15302992749E+02  0.10867478688E+01 -0.14343575997E+02  0.21002399402E+02  0.51100000000E-03 0. -1.
        -11    1    4    4    0    0  0.30903088509E+01 -0.20771429035E+02 -0.15554500367E+02  0.26133211722E+02  0.51100000000E-03 0.  1.
         12    1    4    4    0    0  0.35910473014E+01  0.30829779199E+01  0.54675031923E+01  0.72314566122E+01  0.00000000000E+00 0. -1.
</event>
<event>
 8    1  0.2509489E-006  0.9118800E+02  0.7816164E-02  0.1184000E+00
        -11   -1    0    0    0    0  0.00000000000E+00  0.00000000000E+00  0.45593999997E+02  0.45594000000E+02  0.51100000000E-03 0.  1.
         11   -1    0    0    0    0 -0.00000000000E+00 -0.00000000000E+00 -0.45593999997E+02  0.45594000000E+02  0.51100000000E-03 0. -1.
         23    2    1    2    0    0  0.00000000000E+00  0.00000000000E+00  0.35527136788E-14  0.91188000000E+02  0.91188000000E+02 0.  0.
    9900012    2    3    3    0    0 -0.17655755143E+02 -0.20229412509E+02 -0.25195719246E+02  0.54367094410E+02  0.40000023326E+02 0.  0.
        -12    1    3    3    0    0  0.17655755143E+02  0.20229412509E+02  0.25195719246E+02  0.36820905590E+02  0.00000000000E+00 0.  1.
         11    1    4    4    0    0  0.53435999546E+01 -0.93389067400E+00 -0.13259989462E+02  0.14326672086E+02  0.51100000000E-03 0. -1.
        -11    1    4    4    0    0 -0.19504709289E+01  0.23654794391E+01  0.46597519916E+01  0.55779134724E+01  0.51100000000E-03 0.  1.
        -12    1    4    4    0    0 -0.21048884169E+02 -0.21661001274E+02 -0.16595481776E+02  0.34462508852E+02  0.00000000000E+00 0.  1.
</event>
<event>
 8    1  0.2509489E-006  0.9118800E+02  0.7816164E-02  0.1184000E+00
        -11   -1    0    0    0    0  0.00000000000E+00  0.00000000000E+00  0.45593999997E+02  0.45594000000E+02  0.51100000000E-03 0.  1.
         11   -1    0    0    0    0 -0.00000000000E+00 -0.00000000000E+00 -0.45593999997E+02  0.45594000000E+02  0.51100000000E-03 0. -1.
         23    2    1    2    0    0 -0.13322676296E-14  0.00000000000E+00  0.00000000000E+00  0.91188000000E+02  0.91188000000E+02 0.  0.
    9900012    2    3    3    0    0 -0.24743596873E+01  0.36435423113E+02 -0.47029068448E+01  0.54367084123E+02  0.39999999874E+02 0.  0.
         12    1    3    3    0    0  0.24743596873E+01 -0.36435423113E+02  0.47029068448E+01  0.36820915877E+02  0.00000000000E+00 0. -1.
         11    1    4    4    0    0 -0.12748322295E+02  0.29931437689E+01  0.32612885246E+01  0.13494985516E+02  0.51100000000E-03 0. -1.
        -11    1    4    4    0    0  0.80194142405E+01  0.21156108572E+01 -0.40233246510E+01  0.92181318914E+01  0.51100000000E-03 0.  1.
         12    1    4    4    0    0  0.22545483675E+01  0.31326668487E+02 -0.39408707184E+01  0.31653966716E+02  0.00000000000E+00 0. -1.
</event>
<event>
 8    1  0.2509489E-006  0.9118800E+02  0.7816164E-02  0.1184000E+00
        -11   -1    0    0    0    0  0.00000000000E+00  0.00000000000E+00  0.45593999997E+02  0.45594000000E+02  0.51100000000E-03 0.  1.
         11   -1    0    0    0    0 -0.00000000000E+00 -0.00000000000E+00 -0.45593999997E+02  0.45594000000E+02  0.51100000000E-03 0. -1.
         23    2    1    2    0    0  0.44408920985E-14  0.00000000000E+00  0.00000000000E+00  0.91188000000E+02  0.91188000000E+02 0.  0.
    9900012    2    3    3    0    0  0.56895635009E+01  0.33811566058E+02  0.13423388394E+02  0.54367075404E+02  0.39999979999E+02 0.  0.
         12    1    3    3    0    0 -0.56895635009E+01 -0.33811566058E+02 -0.13423388394E+02  0.36820924596E+02  0.00000000000E+00 0. -1.
         11    1    4    4    0    0 -0.14697670217E+02  0.24656516024E+02  0.72604859492E+01  0.29608781615E+02  0.51100000000E-03 0.  1.
        -11    1    4    4    0    0  0.10144971819E+02  0.75253798453E+01  0.68412256980E+01  0.14365032695E+02  0.51100000000E-03 0. -1.
         12    1    4    4    0    0  0.10242261899E+02  0.16296701889E+01 -0.67832325294E+00  0.10393261094E+02  0.00000000000E+00 0. -1.
</event>
<event>
 8    1  0.2509489E-006  0.9118800E+02  0.7816164E-02  0.1184000E+00
        -11   -1    0    0    0    0  0.00000000000E+00  0.00000000000E+00  0.45593999997E+02  0.45594000000E+02  0.51100000000E-03 0. -1.
         11   -1    0    0    0    0 -0.00000000000E+00 -0.00000000000E+00 -0.45593999997E+02  0.45594000000E+02  0.51100000000E-03 0.  1.
         23    2    1    2    0    0  0.00000000000E+00 -0.35527136788E-14  0.35527136788E-14  0.91188000000E+02  0.91188000000E+02 0.  0.
    9900012    2    3    3    0    0 -0.17975955305E+02  0.26181497146E+02  0.18632612169E+02  0.54367082057E+02  0.39999995164E+02 0.  0.
        -12    1    3    3    0    0  0.17975955305E+02 -0.26181497146E+02 -0.18632612169E+02  0.36820917943E+02  0.00000000000E+00 0.  1.
         11    1    4    4    0    0  0.11434807711E+01  0.12310830353E+00  0.13103632575E+02  0.13154006646E+02  0.51100000000E-03 0.  1.
        -11    1    4    4    0    0 -0.20271391623E+02  0.25745103957E+02  0.11801194711E+02  0.34828262847E+02  0.51100000000E-03 0. -1.
         12    1    4    4    0    0  0.11519555464E+01  0.31328488578E+00 -0.62722151166E+01  0.63848125634E+01  0.00000000000E+00 0. -1.
</event>
<event>
 8    1  0.2509489E-006  0.9118800E+02  0.7816164E-02  0.1184000E+00
        -11   -1    0    0    0    0  0.00000000000E+00  0.00000000000E+00  0.45593999997E+02  0.45594000000E+02  0.51100000000E-03 0. -1.
         11   -1    0    0    0    0 -0.00000000000E+00 -0.00000000000E+00 -0.45593999997E+02  0.45594000000E+02  0.51100000000E-03 0.  1.
         23    2    1    2    0    0  0.00000000000E+00 -0.88817841970E-15  0.00000000000E+00  0.91188000000E+02  0.91188000000E+02 0.  0.
    9900012    2    3    3    0    0  0.36192319983E+01 -0.69730068595E+01 -0.35973006682E+02  0.54367097314E+02  0.40000029946E+02 0.  0.
         12    1    3    3    0    0 -0.36192319983E+01  0.69730068595E+01  0.35973006682E+02  0.36820902686E+02  0.00000000000E+00 0. -1.
         11    1    4    4    0    0 -0.17887462039E+01  0.39129474831E+01  0.82333683221E+00  0.43804856795E+01  0.51100000000E-03 0.  1.
        -11    1    4    4    0    0  0.86982838397E+00 -0.13842813802E+02 -0.11352231204E+01  0.13916494787E+02  0.51100000000E-03 0. -1.
        -12    1    4    4    0    0  0.45381498182E+01  0.29568594594E+01 -0.35661120393E+02  0.36070116847E+02  0.00000000000E+00 0.  1.
</event>
<event>
 8    1  0.2509489E-006  0.9118800E+02  0.7816164E-02  0.1184000E+00
        -11   -1    0    0    0    0  0.00000000000E+00  0.00000000000E+00  0.45593999997E+02  0.45594000000E+02  0.51100000000E-03 0.  1.
         11   -1    0    0    0    0 -0.00000000000E+00 -0.00000000000E+00 -0.45593999997E+02  0.45594000000E+02  0.51100000000E-03 0. -1.
         23    2    1    2    0    0 -0.35527136788E-14  0.00000000000E+00  0.00000000000E+00  0.91188000000E+02  0.91188000000E+02 0.  0.
    9900012    2    3    3    0    0  0.28922248605E+02 -0.54499397074E+01  0.22126499676E+02  0.54367078025E+02  0.39999985973E+02 0.  0.
         12    1    3    3    0    0 -0.28922248605E+02  0.54499397074E+01 -0.22126499676E+02  0.36820921975E+02  0.00000000000E+00 0. -1.
         11    1    4    4    0    0 -0.20481193154E+01  0.26812283525E+01  0.13856248241E+02  0.14261114745E+02  0.51100000000E-03 0. -1.
        -11    1    4    4    0    0  0.24712703502E+02 -0.14774136130E+02  0.10609469436E+02  0.30684746288E+02  0.51100000000E-03 0.  1.
        -12    1    4    4    0    0  0.62576644186E+01  0.66429680701E+01 -0.23392180006E+01  0.94212169920E+01  0.00000000000E+00 0.  1.
</event>
<event>
 8    1  0.2509489E-006  0.9118800E+02  0.7816164E-02  0.1184000E+00
        -11   -1    0    0    0    0  0.00000000000E+00  0.00000000000E+00  0.45593999997E+02  0.45594000000E+02  0.51100000000E-03 0.  1.
         11   -1    0    0    0    0 -0.00000000000E+00 -0.00000000000E+00 -0.45593999997E+02  0.45594000000E+02  0.51100000000E-03 0. -1.
         23    2    1    2    0    0  0.00000000000E+00  0.00000000000E+00 -0.11102230246E-15  0.91188000000E+02  0.91188000000E+02 0.  0.
    9900012    2    3    3    0    0 -0.23328612496E+02  0.28480341553E+02  0.65136059133E+00  0.54367105299E+02  0.40000048150E+02 0.  0.
         12    1    3    3    0    0  0.23328612496E+02 -0.28480341553E+02 -0.65136059133E+00  0.36820894701E+02  0.00000000000E+00 0. -1.
         11    1    4    4    0    0  0.61993173042E+01  0.15026590972E+02 -0.22455671447E+01  0.16409525994E+02  0.51100000000E-03 0. -1.
        -11    1    4    4    0    0 -0.16420595171E+02  0.16664941956E+02  0.59095040030E+01  0.24130447032E+02  0.51100000000E-03 0.  1.
        -12    1    4    4    0    0 -0.13107334629E+02 -0.32111913747E+01 -0.30125762669E+01  0.13827132273E+02  0.00000000000E+00 0.  1.
</event>
<event>
 8    1  0.2509489E-006  0.9118800E+02  0.7816164E-02  0.1184000E+00
        -11   -1    0    0    0    0  0.00000000000E+00  0.00000000000E+00  0.45593999997E+02  0.45594000000E+02  0.51100000000E-03 0.  1.
         11   -1    0    0    0    0 -0.00000000000E+00 -0.00000000000E+00 -0.45593999997E+02  0.45594000000E+02  0.51100000000E-03 0. -1.
         23    2    1    2    0    0 -0.22204460493E-14  0.00000000000E+00  0.00000000000E+00  0.91188000000E+02  0.91188000000E+02 0.  0.
    9900012    2    3    3    0    0 -0.61560464289E+00  0.35907788391E+02 -0.81260042229E+01  0.54367079576E+02  0.39999989511E+02 0.  0.
        -12    1    3    3    0    0  0.61560464289E+00 -0.35907788391E+02  0.81260042229E+01  0.36820920424E+02  0.00000000000E+00 0.  1.
         11    1    4    4    0    0  0.16265993432E+02  0.90419414374E+01  0.41585872873E+01  0.19069166101E+02  0.51100000000E-03 0. -1.
        -11    1    4    4    0    0 -0.26395107748E+01  0.21887183588E+01 -0.46922870075E+01  0.58116316819E+01  0.51100000000E-03 0.  1.
        -12    1    4    4    0    0 -0.14242087300E+02  0.24677128595E+02 -0.75923045027E+01  0.29486281794E+02  0.00000000000E+00 0.  1.
</event>
<event>
 8    1  0.2509489E-006  0.9118800E+02  0.7816164E-02  0.1184000E+00
        -11   -1    0    0    0    0  0.00000000000E+00  0.00000000000E+00  0.45593999997E+02  0.45594000000E+02  0.51100000000E-03 0.  1.
         11   -1    0    0    0    0 -0.00000000000E+00 -0.00000000000E+00 -0.45593999997E+02  0.45594000000E+02  0.51100000000E-03 0. -1.
         23    2    1    2    0    0  0.00000000000E+00 -0.55511151231E-15  0.00000000000E+00  0.91188000000E+02  0.91188000000E+02 0.  0.
    9900012    2    3    3    0    0 -0.20329412076E+02  0.67250310182E+00 -0.30692703332E+02  0.54367091624E+02  0.40000016976E+02 0.  0.
        -12    1    3    3    0    0  0.20329412076E+02 -0.67250310182E+00  0.30692703332E+02  0.36820908376E+02  0.00000000000E+00 0.  1.
         11    1    4    4    0    0 -0.93053102716E+01  0.68811726787E+01 -0.11286695918E+02  0.16165668612E+02  0.51100000000E-03 0. -1.
        -11    1    4    4    0    0 -0.11117878920E+02 -0.17791116841E+02 -0.15081557279E+02  0.25837655473E+02  0.51100000000E-03 0.  1.
        -12    1    4    4    0    0  0.93777114892E-01  0.11582447264E+02 -0.43244501349E+01  0.12363767539E+02  0.00000000000E+00 0.  1.
</event>
<event>
 8    1  0.2509489E-006  0.9118800E+02  0.7816164E-02  0.1184000E+00
        -11   -1    0    0    0    0  0.00000000000E+00  0.00000000000E+00  0.45593999997E+02  0.45594000000E+02  0.51100000000E-03 0. -1.
         11   -1    0    0    0    0 -0.00000000000E+00 -0.00000000000E+00 -0.45593999997E+02  0.45594000000E+02  0.51100000000E-03 0.  1.
         23    2    1    2    0    0 -0.17763568394E-14  0.00000000000E+00  0.35527136788E-14  0.91188000000E+02  0.91188000000E+02 0.  0.
    9900012    2    3    3    0    0 -0.10528358356E+02 -0.20477188690E+02 -0.28733561046E+02  0.54367094027E+02  0.40000022453E+02 0.  0.
         12    1    3    3    0    0  0.10528358356E+02  0.20477188690E+02  0.28733561046E+02  0.36820905973E+02  0.00000000000E+00 0. -1.
         11    1    4    4    0    0 -0.22110716148E+02 -0.31847038743E+00 -0.11450536418E+02  0.24901806691E+02  0.51100000000E-03 0. -1.
        -11    1    4    4    0    0  0.10674887367E+02 -0.15649677414E+02 -0.15690575419E+02  0.24597962938E+02  0.51100000000E-03 0.  1.
         12    1    4    4    0    0  0.90747042550E+00 -0.45090408887E+01 -0.15924492087E+01  0.48673243976E+01  0.00000000000E+00 0. -1.
</event>
<event>
 8    1  0.2509489E-006  0.9118800E+02  0.7816164E-02  0.1184000E+00
        -11   -1    0    0    0    0  0.00000000000E+00  0.00000000000E+00  0.45593999997E+02  0.45594000000E+02  0.51100000000E-03 0. -1.
         11   -1    0    0    0    0 -0.00000000000E+00 -0.00000000000E+00 -0.45593999997E+02  0.45594000000E+02  0.51100000000E-03 0.  1.
         23    2    1    2    0    0  0.00000000000E+00  0.00000000000E+00 -0.17763568394E-14  0.91188000000E+02  0.91188000000E+02 0.  0.
    9900012    2    3    3    0    0 -0.33131164452E+02 -0.15010488864E+01 -0.15995370234E+02  0.54367094598E+02  0.40000023756E+02 0.  0.
         12    1    3    3    0    0  0.33131164452E+02  0.15010488864E+01  0.15995370234E+02  0.36820905402E+02  0.00000000000E+00 0. -1.
         11    1    4    4    0    0 -0.93408819286E+01  0.49293072185E+01  0.10160872571E+02  0.14655834214E+02  0.51100000000E-03 0. -1.
        -11    1    4    4    0    0  0.24223176505E+01  0.99598507019E+00 -0.19271380146E+01  0.32516872926E+01  0.51100000000E-03 0.  1.
        -12    1    4    4    0    0 -0.26212600174E+02 -0.74263411750E+01 -0.24229104790E+02  0.36459573092E+02  0.00000000000E+00 0.  1.
</event>
<event>
 8    1  0.2509489E-006  0.9118800E+02  0.7816164E-02  0.1184000E+00
        -11   -1    0    0    0    0  0.00000000000E+00  0.00000000000E+00  0.45593999997E+02  0.45594000000E+02  0.51100000000E-03 0. -1.
         11   -1    0    0    0    0 -0.00000000000E+00 -0.00000000000E+00 -0.45593999997E+02  0.45594000000E+02  0.51100000000E-03 0.  1.
         23    2    1    2    0    0 -0.35527136788E-14  0.00000000000E+00 -0.35527136788E-14  0.91188000000E+02  0.91188000000E+02 0.  0.
    9900012    2    3    3    0    0  0.22584140569E+02  0.16337543983E+02  0.24058708164E+02  0.54367079490E+02  0.39999989314E+02 0.  0.
        -12    1    3    3    0    0 -0.22584140569E+02 -0.16337543983E+02 -0.24058708164E+02  0.36820920510E+02  0.00000000000E+00 0.  1.
         11    1    4    4    0    0  0.10266464533E+02  0.12565652265E+02  0.18962335565E+02  0.24957285132E+02  0.51100000000E-03 0. -1.
        -11    1    4    4    0    0  0.69003695888E+01  0.13988330676E+02  0.79386833126E+01  0.17501748158E+02  0.51100000000E-03 0.  1.
         12    1    4    4    0    0  0.54173064478E+01 -0.10216438958E+02 -0.28423107128E+01  0.11908046201E+02  0.00000000000E+00 0. -1.
</event>
<event>
 8    1  0.2509489E-006  0.9118800E+02  0.7816164E-02  0.1184000E+00
        -11   -1    0    0    0    0  0.00000000000E+00  0.00000000000E+00  0.45593999997E+02  0.45594000000E+02  0.51100000000E-03 0.  1.
         11   -1    0    0    0    0 -0.00000000000E+00 -0.00000000000E+00 -0.45593999997E+02  0.45594000000E+02  0.51100000000E-03 0. -1.
         23    2    1    2    0    0 -0.17763568394E-14  0.00000000000E+00 -0.71054273576E-14  0.91188000000E+02  0.91188000000E+02 0.  0.
    9900012    2    3    3    0    0 -0.22907047861E+01 -0.63248381121E+01 -0.36201296886E+02  0.54367016827E+02  0.39999846461E+02 0.  0.
        -12    1    3    3    0    0  0.22907047861E+01  0.63248381121E+01  0.36201296886E+02  0.36820983173E+02  0.00000000000E+00 0.  1.
         11    1    4    4    0    0 -0.46794035932E+01 -0.47955598257E+00  0.99792404708E+00  0.48086011057E+01  0.51100000000E-03 0. -1.
        -11    1    4    4    0    0  0.12529621521E+02  0.63122941342E+01 -0.75139224086E+01  0.15915260064E+02  0.51100000000E-03 0.  1.
        -12    1    4    4    0    0 -0.10140922714E+02 -0.12157576264E+02 -0.29685298524E+02  0.33643155657E+02  0.00000000000E+00 0.  1.
</event>
<event>
 8    1  0.2509489E-006  0.9118800E+02  0.7816164E-02  0.1184000E+00
        -11   -1    0    0    0    0  0.00000000000E+00  0.00000000000E+00  0.45593999997E+02  0.45594000000E+02  0.51100000000E-03 0.  1.
         11   -1    0    0    0    0 -0.00000000000E+00 -0.00000000000E+00 -0.45593999997E+02  0.45594000000E+02  0.51100000000E-03 0. -1.
         23    2    1    2    0    0  0.00000000000E+00  0.00000000000E+00  0.00000000000E+00  0.91188000000E+02  0.91188000000E+02 0.  0.
    9900012    2    3    3    0    0 -0.20613832358E+02  0.23219471119E+02 -0.19791522266E+02  0.54367105427E+02  0.40000048442E+02 0.  0.
        -12    1    3    3    0    0  0.20613832358E+02 -0.23219471119E+02  0.19791522266E+02  0.36820894573E+02  0.00000000000E+00 0.  1.
         11    1    4    4    0    0 -0.28003495240E+02  0.23603272011E+02 -0.83268455439E+01  0.37558574949E+02  0.51100000000E-03 0. -1.
        -11    1    4    4    0    0  0.85423435977E+01 -0.32372264656E+01 -0.77105824978E+01  0.11954260832E+02  0.51100000000E-03 0.  1.
        -12    1    4    4    0    0 -0.11526807161E+01  0.28534255742E+01 -0.37540942247E+01  0.48542696452E+01  0.00000000000E+00 0.  1.
</event>
<event>
 8    1  0.2509489E-006  0.9118800E+02  0.7816164E-02  0.1184000E+00
        -11   -1    0    0    0    0  0.00000000000E+00  0.00000000000E+00  0.45593999997E+02  0.45594000000E+02  0.51100000000E-03 0. -1.
         11   -1    0    0    0    0 -0.00000000000E+00 -0.00000000000E+00 -0.45593999997E+02  0.45594000000E+02  0.51100000000E-03 0.  1.
         23    2    1    2    0    0  0.00000000000E+00  0.00000000000E+00  0.35527136788E-14  0.91188000000E+02  0.91188000000E+02 0.  0.
    9900012    2    3    3    0    0  0.18260862243E+02  0.77699795777E+01  0.31015288915E+02  0.54367084490E+02  0.40000000713E+02 0.  0.
        -12    1    3    3    0    0 -0.18260862243E+02 -0.77699795777E+01 -0.31015288915E+02  0.36820915510E+02  0.00000000000E+00 0.  1.
         11    1    4    4    0    0  0.11822061150E+02  0.30824061957E+00  0.29906377896E+02  0.32159719856E+02  0.51100000000E-03 0. -1.
        -11    1    4    4    0    0  0.48049160197E+01 -0.15901409587E+01 -0.78676244347E+01  0.93549602208E+01  0.51100000000E-03 0.  1.
        -12    1    4    4    0    0  0.16338850736E+01  0.90518799169E+01  0.89765354540E+01  0.12852404414E+02  0.00000000000E+00 0.  1.
</event>
<event>
 8    1  0.2509489E-006  0.9118800E+02  0.7816164E-02  0.1184000E+00
        -11   -1    0    0    0    0  0.00000000000E+00  0.00000000000E+00  0.45593999997E+02  0.45594000000E+02  0.51100000000E-03 0. -1.
         11   -1    0    0    0    0 -0.00000000000E+00 -0.00000000000E+00 -0.45593999997E+02  0.45594000000E+02  0.51100000000E-03 0.  1.
         23    2    1    2    0    0  0.00000000000E+00  0.00000000000E+00  0.00000000000E+00  0.91188000000E+02  0.91188000000E+02 0.  0.
    9900012    2    3    3    0    0 -0.19587375963E+02 -0.20365977766E+02  0.23608077873E+02  0.54367086264E+02  0.40000004755E+02 0.  0.
        -12    1    3    3    0    0  0.19587375963E+02  0.20365977766E+02 -0.23608077873E+02  0.36820913736E+02  0.00000000000E+00 0.  1.
         11    1    4    4    0    0 -0.82287909192E+01 -0.19160278463E+02 -0.39286281468E+01  0.21219410693E+02  0.51100000000E-03 0. -1.
        -11    1    4    4    0    0 -0.10468317936E+02 -0.27341827084E+01  0.78148622582E+01  0.13346666546E+02  0.51100000000E-03 0.  1.
        -12    1    4    4    0    0 -0.89026710785E+00  0.15284834053E+01  0.19721843762E+02  0.19801009025E+02  0.00000000000E+00 0.  1.
</event>
<event>
 8    1  0.2509489E-006  0.9118800E+02  0.7816164E-02  0.1184000E+00
        -11   -1    0    0    0    0  0.00000000000E+00  0.00000000000E+00  0.45593999997E+02  0.45594000000E+02  0.51100000000E-03 0.  1.
         11   -1    0    0    0    0 -0.00000000000E+00 -0.00000000000E+00 -0.45593999997E+02  0.45594000000E+02  0.51100000000E-03 0. -1.
         23    2    1    2    0    0  0.00000000000E+00  0.00000000000E+00  0.00000000000E+00  0.91188000000E+02  0.91188000000E+02 0.  0.
    9900012    2    3    3    0    0  0.20870180901E+02  0.28701605018E+02  0.98202324346E+01  0.54367033873E+02  0.39999885320E+02 0.  0.
         12    1    3    3    0    0 -0.20870180901E+02 -0.28701605018E+02 -0.98202324346E+01  0.36820966127E+02  0.00000000000E+00 0. -1.
         11    1    4    4    0    0 -0.21019523028E+00  0.46598635025E+01 -0.71568094711E+01  0.85427414782E+01  0.51100000000E-03 0. -1.
        -11    1    4    4    0    0  0.12195404148E+02 -0.40843305281E+01  0.72604055062E+01  0.14768992064E+02  0.51100000000E-03 0.  1.
        -12    1    4    4    0    0  0.88849719830E+01  0.28126072044E+02  0.97166363995E+01  0.31055300331E+02  0.00000000000E+00 0.  1.
</event>
<event>
 8    1  0.2509489E-006  0.9118800E+02  0.7816164E-02  0.1184000E+00
        -11   -1    0    0    0    0  0.00000000000E+00  0.00000000000E+00  0.45593999997E+02  0.45594000000E+02  0.51100000000E-03 0.  1.
         11   -1    0    0    0    0 -0.00000000000E+00 -0.00000000000E+00 -0.45593999997E+02  0.45594000000E+02  0.51100000000E-03 0. -1.
         23    2    1    2    0    0  0.00000000000E+00  0.52735593670E-15 -0.71054273576E-14  0.91188000000E+02  0.91188000000E+02 0.  0.
    9900012    2    3    3    0    0 -0.47906196113E+01  0.93978621549E-01  0.36507802274E+02  0.54367102467E+02  0.40000041695E+02 0.  0.
         12    1    3    3    0    0  0.47906196113E+01 -0.93978621549E-01 -0.36507802274E+02  0.36820897533E+02  0.00000000000E+00 0. -1.
         11    1    4    4    0    0 -0.86676503914E-02 -0.77944116120E+01  0.18716524200E+01  0.80159846898E+01  0.51100000000E-03 0. -1.
        -11    1    4    4    0    0  0.72757903888E+01 -0.80117812882E+01  0.11305375142E+02  0.15650471959E+02  0.51100000000E-03 0.  1.
         12    1    4    4    0    0 -0.12057742350E+02  0.15900171522E+02  0.23330774712E+02  0.30700645818E+02  0.00000000000E+00 0. -1.
</event>
<event>
 8    1  0.2509489E-006  0.9118800E+02  0.7816164E-02  0.1184000E+00
        -11   -1    0    0    0    0  0.00000000000E+00  0.00000000000E+00  0.45593999997E+02  0.45594000000E+02  0.51100000000E-03 0.  1.
         11   -1    0    0    0    0 -0.00000000000E+00 -0.00000000000E+00 -0.45593999997E+02  0.45594000000E+02  0.51100000000E-03 0. -1.
         23    2    1    2    0    0  0.00000000000E+00 -0.35527136788E-14  0.00000000000E+00  0.91188000000E+02  0.91188000000E+02 0.  0.
    9900012    2    3    3    0    0  0.19447926040E+02 -0.23373088920E+02 -0.20766750145E+02  0.54367068120E+02  0.39999963393E+02 0.  0.
        -12    1    3    3    0    0 -0.19447926040E+02  0.23373088920E+02  0.20766750145E+02  0.36820931880E+02  0.00000000000E+00 0.  1.
         11    1    4    4    0    0  0.13502320272E+02 -0.19543642404E+02 -0.10898116757E+02  0.26134949020E+02  0.51100000000E-03 0. -1.
        -11    1    4    4    0    0 -0.34204560526E+01  0.40455307765E+01 -0.14274873869E+02  0.15226222877E+02  0.51100000000E-03 0.  1.
        -12    1    4    4    0    0  0.93660618211E+01 -0.78749772925E+01  0.44062404808E+01  0.13005896223E+02  0.00000000000E+00 0.  1.
</event>
<event>
 8    1  0.2509489E-006  0.9118800E+02  0.7816164E-02  0.1184000E+00
        -11   -1    0    0    0    0  0.00000000000E+00  0.00000000000E+00  0.45593999997E+02  0.45594000000E+02  0.51100000000E-03 0.  1.
         11   -1    0    0    0    0 -0.00000000000E+00 -0.00000000000E+00 -0.45593999997E+02  0.45594000000E+02  0.51100000000E-03 0. -1.
         23    2    1    2    0    0  0.44408920985E-15  0.00000000000E+00  0.00000000000E+00  0.91188000000E+02  0.91188000000E+02 0.  0.
    9900012    2    3    3    0    0 -0.11937964600E+01 -0.26901732620E+02 -0.25112770725E+02  0.54367087173E+02  0.40000006828E+02 0.  0.
        -12    1    3    3    0    0  0.11937964600E+01  0.26901732620E+02  0.25112770725E+02  0.36820912827E+02  0.00000000000E+00 0.  1.
         11    1    4    4    0    0 -0.48683070686E+01 -0.20180514411E+02 -0.94196587300E+01  0.22796568743E+02  0.51100000000E-03 0. -1.
        -11    1    4    4    0    0 -0.65145426370E+01 -0.11717266891E+02 -0.16381193260E+01  0.13506185411E+02  0.51100000000E-03 0.  1.
        -12    1    4    4    0    0  0.10189053246E+02  0.49960486826E+01 -0.14054992669E+02  0.18064333019E+02  0.00000000000E+00 0.  1.
</event>
<event>
 8    1  0.2509489E-006  0.9118800E+02  0.7816164E-02  0.1184000E+00
        -11   -1    0    0    0    0  0.00000000000E+00  0.00000000000E+00  0.45593999997E+02  0.45594000000E+02  0.51100000000E-03 0.  1.
         11   -1    0    0    0    0 -0.00000000000E+00 -0.00000000000E+00 -0.45593999997E+02  0.45594000000E+02  0.51100000000E-03 0. -1.
         23    2    1    2    0    0  0.00000000000E+00  0.00000000000E+00  0.00000000000E+00  0.91188000000E+02  0.91188000000E+02 0.  0.
    9900012    2    3    3    0    0  0.23637076144E+02  0.18906479571E+01  0.28169127003E+02  0.54367005520E+02  0.39999820684E+02 0.  0.
         12    1    3    3    0    0 -0.23637076144E+02 -0.18906479571E+01 -0.28169127003E+02  0.36820994480E+02  0.00000000000E+00 0. -1.
         11    1    4    4    0    0  0.93085367986E+01 -0.11526397669E+02  0.20265745904E+02  0.25103927140E+02  0.51100000000E-03 0. -1.
        -11    1    4    4    0    0  0.28300892660E+00  0.18413758573E+01  0.10689087685E+02  0.10850223726E+02  0.51100000000E-03 0.  1.
         12    1    4    4    0    0  0.14045530419E+02  0.11575669768E+02 -0.27857065860E+01  0.18412854654E+02  0.00000000000E+00 0. -1.
</event>
<event>
 8    1  0.2509489E-006  0.9118800E+02  0.7816164E-02  0.1184000E+00
        -11   -1    0    0    0    0  0.00000000000E+00  0.00000000000E+00  0.45593999997E+02  0.45594000000E+02  0.51100000000E-03 0. -1.
         11   -1    0    0    0    0 -0.00000000000E+00 -0.00000000000E+00 -0.45593999997E+02  0.45594000000E+02  0.51100000000E-03 0.  1.
         23    2    1    2    0    0  0.00000000000E+00  0.00000000000E+00  0.00000000000E+00  0.91188000000E+02  0.91188000000E+02 0.  0.
    9900012    2    3    3    0    0 -0.17276240120E+02  0.37627211704E+01  0.32297879169E+02  0.54367088250E+02  0.40000009284E+02 0.  0.
        -12    1    3    3    0    0  0.17276240120E+02 -0.37627211704E+01 -0.32297879169E+02  0.36820911750E+02  0.00000000000E+00 0.  1.
         11    1    4    4    0    0 -0.42785344144E+01 -0.51957325796E+01  0.17773777293E+02  0.19005490083E+02  0.51100000000E-03 0. -1.
        -11    1    4    4    0    0 -0.18733189556E+02  0.36422301476E+01  0.18508254694E+02  0.26584840106E+02  0.51100000000E-03 0.  1.
        -12    1    4    4    0    0  0.57354838505E+01  0.53162236025E+01 -0.39841528180E+01  0.87767580614E+01  0.00000000000E+00 0.  1.
</event>
<event>
 8    1  0.2509489E-006  0.9118800E+02  0.7816164E-02  0.1184000E+00
        -11   -1    0    0    0    0  0.00000000000E+00  0.00000000000E+00  0.45593999997E+02  0.45594000000E+02  0.51100000000E-03 0.  1.
         11   -1    0    0    0    0 -0.00000000000E+00 -0.00000000000E+00 -0.45593999997E+02  0.45594000000E+02  0.51100000000E-03 0. -1.
         23    2    1    2    0    0  0.00000000000E+00  0.00000000000E+00  0.17763568394E-14  0.91188000000E+02  0.91188000000E+02 0.  0.
    9900012    2    3    3    0    0 -0.29698293855E+02  0.15575335882E+02  0.15205253194E+02  0.54367089223E+02  0.40000011501E+02 0.  0.
         12    1    3    3    0    0  0.29698293855E+02 -0.15575335882E+02 -0.15205253194E+02  0.36820910777E+02  0.00000000000E+00 0. -1.
         11    1    4    4    0    0 -0.12054351059E+02  0.30256800791E+01  0.13248671012E+02  0.18165610456E+02  0.51100000000E-03 0. -1.
        -11    1    4    4    0    0 -0.24429693081E+02  0.33889742641E+01  0.24886162069E+01  0.24788873744E+02  0.51100000000E-03 0.  1.
         12    1    4    4    0    0  0.67857502852E+01  0.91606815389E+01 -0.53203402490E+00  0.11412605022E+02  0.00000000000E+00 0. -1.
</event>
<event>
 8    1  0.2509489E-006  0.9118800E+02  0.7816164E-02  0.1184000E+00
        -11   -1    0    0    0    0  0.00000000000E+00  0.00000000000E+00  0.45593999997E+02  0.45594000000E+02  0.51100000000E-03 0. -1.
         11   -1    0    0    0    0 -0.00000000000E+00 -0.00000000000E+00 -0.45593999997E+02  0.45594000000E+02  0.51100000000E-03 0.  1.
         23    2    1    2    0    0  0.00000000000E+00  0.35527136788E-14  0.00000000000E+00  0.91188000000E+02  0.91188000000E+02 0.  0.
    9900012    2    3    3    0    0  0.17314549324E+02  0.27735616699E+02  0.16932863107E+02  0.54367083323E+02  0.39999998051E+02 0.  0.
        -12    1    3    3    0    0 -0.17314549324E+02 -0.27735616699E+02 -0.16932863107E+02  0.36820916677E+02  0.00000000000E+00 0.  1.
         11    1    4    4    0    0 -0.37258942165E+01  0.17870834394E+02  0.62292573990E+01  0.19288666560E+02  0.51100000000E-03 0. -1.
        -11    1    4    4    0    0 -0.53345244091E+01  0.21483256241E+01  0.53056823548E+00  0.57752884406E+01  0.51100000000E-03 0.  1.
         12    1    4    4    0    0  0.26374967950E+02  0.77164566804E+01  0.10173037473E+02  0.29303128322E+02  0.00000000000E+00 0. -1.
</event>
<event>
 8    1  0.2509489E-006  0.9118800E+02  0.7816164E-02  0.1184000E+00
        -11   -1    0    0    0    0  0.00000000000E+00  0.00000000000E+00  0.45593999997E+02  0.45594000000E+02  0.51100000000E-03 0.  1.
         11   -1    0    0    0    0 -0.00000000000E+00 -0.00000000000E+00 -0.45593999997E+02  0.45594000000E+02  0.51100000000E-03 0. -1.
         23    2    1    2    0    0  0.17763568394E-14  0.35527136788E-14 -0.71054273576E-14  0.91188000000E+02  0.91188000000E+02 0.  0.
    9900012    2    3    3    0    0  0.49202504551E+01 -0.17912111746E+02  0.31791995588E+02  0.54367033212E+02  0.39999883812E+02 0.  0.
         12    1    3    3    0    0 -0.49202504551E+01  0.17912111746E+02 -0.31791995588E+02  0.36820966788E+02  0.00000000000E+00 0. -1.
         11    1    4    4    0    0 -0.27382063183E+00 -0.15088471788E+02  0.67210671767E+01  0.16519978901E+02  0.51100000000E-03 0. -1.
        -11    1    4    4    0    0 -0.75035565144E+01 -0.70022489019E+01  0.99799665344E+00  0.10311685004E+02  0.51100000000E-03 0.  1.
        -12    1    4    4    0    0  0.12697627601E+02  0.41786089438E+01  0.24072931758E+02  0.27535369307E+02  0.00000000000E+00 0.  1.
</event>
<event>
 8    1  0.2509489E-006  0.9118800E+02  0.7816164E-02  0.1184000E+00
        -11   -1    0    0    0    0  0.00000000000E+00  0.00000000000E+00  0.45593999997E+02  0.45594000000E+02  0.51100000000E-03 0.  1.
         11   -1    0    0    0    0 -0.00000000000E+00 -0.00000000000E+00 -0.45593999997E+02  0.45594000000E+02  0.51100000000E-03 0. -1.
         23    2    1    2    0    0  0.00000000000E+00  0.00000000000E+00  0.00000000000E+00  0.91188000000E+02  0.91188000000E+02 0.  0.
    9900012    2    3    3    0    0  0.85546029224E+01 -0.35660860035E+02  0.33018189691E+01  0.54367079614E+02  0.39999989596E+02 0.  0.
         12    1    3    3    0    0 -0.85546029224E+01  0.35660860035E+02 -0.33018189691E+01  0.36820920386E+02  0.00000000000E+00 0. -1.
         11    1    4    4    0    0 -0.28258303134E+01 -0.31279963184E+02 -0.18146937036E+01  0.31459728658E+02  0.51100000000E-03 0. -1.
        -11    1    4    4    0    0  0.10821288451E+02 -0.51846645546E+01  0.11398133997E+02  0.16549878826E+02  0.51100000000E-03 0.  1.
         12    1    4    4    0    0  0.55914478461E+00  0.80376770363E+00 -0.62816213247E+01  0.63574721295E+01  0.00000000000E+00 0. -1.
</event>
<event>
 8    1  0.2509489E-006  0.9118800E+02  0.7816164E-02  0.1184000E+00
        -11   -1    0    0    0    0  0.00000000000E+00  0.00000000000E+00  0.45593999997E+02  0.45594000000E+02  0.51100000000E-03 0.  1.
         11   -1    0    0    0    0 -0.00000000000E+00 -0.00000000000E+00 -0.45593999997E+02  0.45594000000E+02  0.51100000000E-03 0. -1.
         23    2    1    2    0    0  0.00000000000E+00  0.00000000000E+00  0.00000000000E+00  0.91188000000E+02  0.91188000000E+02 0.  0.
    9900012    2    3    3    0    0  0.23347866693E+01 -0.26343859843E+02  0.25618935712E+02  0.54367081390E+02  0.39999993646E+02 0.  0.
         12    1    3    3    0    0 -0.23347866693E+01  0.26343859843E+02 -0.25618935712E+02  0.36820918610E+02  0.00000000000E+00 0. -1.
         11    1    4    4    0    0  0.40765365347E+01 -0.10809680087E+02 -0.44665653252E+00  0.11561437455E+02  0.51100000000E-03 0. -1.
        -11    1    4    4    0    0  0.28203307685E+01  0.23550801176E+01  0.23941774213E+02  0.24222081264E+02  0.51100000000E-03 0.  1.
        -12    1    4    4    0    0 -0.45620806339E+01 -0.17889259874E+02  0.21238180311E+01  0.18583562672E+02  0.00000000000E+00 0.  1.
</event>
<event>
 8    1  0.2509489E-006  0.9118800E+02  0.7816164E-02  0.1184000E+00
        -11   -1    0    0    0    0  0.00000000000E+00  0.00000000000E+00  0.45593999997E+02  0.45594000000E+02  0.51100000000E-03 0.  1.
         11   -1    0    0    0    0 -0.00000000000E+00 -0.00000000000E+00 -0.45593999997E+02  0.45594000000E+02  0.51100000000E-03 0. -1.
         23    2    1    2    0    0 -0.22204460493E-15 -0.17763568394E-14 -0.71054273576E-14  0.91188000000E+02  0.91188000000E+02 0.  0.
    9900012    2    3    3    0    0  0.13850995990E+01 -0.37082095985E+01 -0.36607520311E+02  0.54367083898E+02  0.39999999362E+02 0.  0.
        -12    1    3    3    0    0 -0.13850995990E+01  0.37082095985E+01  0.36607520311E+02  0.36820916102E+02  0.00000000000E+00 0.  1.
         11    1    4    4    0    0  0.16492194743E+00 -0.16915128110E+02 -0.20279783886E+02  0.26408680258E+02  0.51100000000E-03 0.  1.
        -11    1    4    4    0    0  0.74012436116E+01 -0.49542602792E+00 -0.73864969657E+01  0.10468246827E+02  0.51100000000E-03 0. -1.
        -12    1    4    4    0    0 -0.61810659600E+01  0.13702344539E+02 -0.89412394586E+01  0.17490156813E+02  0.00000000000E+00 0.  1.
</event>
<event>
 8    1  0.2509489E-006  0.9118800E+02  0.7816164E-02  0.1184000E+00
        -11   -1    0    0    0    0  0.00000000000E+00  0.00000000000E+00  0.45593999997E+02  0.45594000000E+02  0.51100000000E-03 0. -1.
         11   -1    0    0    0    0 -0.00000000000E+00 -0.00000000000E+00 -0.45593999997E+02  0.45594000000E+02  0.51100000000E-03 0.  1.
         23    2    1    2    0    0  0.35527136788E-14 -0.35527136788E-14  0.00000000000E+00  0.91188000000E+02  0.91188000000E+02 0.  0.
    9900012    2    3    3    0    0 -0.22097428255E+02  0.24500541964E+02  0.16346470875E+02  0.54367082004E+02  0.39999995045E+02 0.  0.
        -12    1    3    3    0    0  0.22097428255E+02 -0.24500541964E+02 -0.16346470875E+02  0.36820917996E+02  0.00000000000E+00 0.  1.
         11    1    4    4    0    0 -0.77887964313E+01 -0.86334567693E+01  0.36619944709E+01  0.12190657464E+02  0.51100000000E-03 0. -1.
        -11    1    4    4    0    0  0.68911303485E+00  0.39068869548E+01 -0.37370014328E+01  0.54501213218E+01  0.51100000000E-03 0.  1.
         12    1    4    4    0    0 -0.14997744859E+02  0.29227111778E+02  0.16421477836E+02  0.36726303218E+02  0.00000000000E+00 0. -1.
</event>
<event>
 8    1  0.2509489E-006  0.9118800E+02  0.7816164E-02  0.1184000E+00
        -11   -1    0    0    0    0  0.00000000000E+00  0.00000000000E+00  0.45593999997E+02  0.45594000000E+02  0.51100000000E-03 0.  1.
         11   -1    0    0    0    0 -0.00000000000E+00 -0.00000000000E+00 -0.45593999997E+02  0.45594000000E+02  0.51100000000E-03 0. -1.
         23    2    1    2    0    0  0.71054273576E-14 -0.88817841970E-15  0.00000000000E+00  0.91188000000E+02  0.91188000000E+02 0.  0.
    9900012    2    3    3    0    0  0.34549860026E+02 -0.54458430288E+01 -0.11507812302E+02  0.54367085046E+02  0.40000001979E+02 0.  0.
         12    1    3    3    0    0 -0.34549860026E+02  0.54458430288E+01  0.11507812302E+02  0.36820914954E+02  0.00000000000E+00 0. -1.
         11    1    4    4    0    0  0.23371260674E+02  0.10034773373E+01 -0.16397498735E+02  0.28567477265E+02  0.51100000000E-03 0. -1.
        -11    1    4    4    0    0  0.56131654285E+01  0.10858987413E+01 -0.80200226839E+01  0.98492419157E+01  0.51100000000E-03 0.  1.
        -12    1    4    4    0    0  0.55654339227E+01 -0.75352191074E+01  0.12909709117E+02  0.15950365865E+02  0.00000000000E+00 0.  1.
</event>
<event>
 8    1  0.2509489E-006  0.9118800E+02  0.7816164E-02  0.1184000E+00
        -11   -1    0    0    0    0  0.00000000000E+00  0.00000000000E+00  0.45593999997E+02  0.45594000000E+02  0.51100000000E-03 0. -1.
         11   -1    0    0    0    0 -0.00000000000E+00 -0.00000000000E+00 -0.45593999997E+02  0.45594000000E+02  0.51100000000E-03 0.  1.
         23    2    1    2    0    0  0.17763568394E-14 -0.35527136788E-14  0.00000000000E+00  0.91188000000E+02  0.91188000000E+02 0.  0.
    9900012    2    3    3    0    0  0.13676709148E+02 -0.30016491178E+02 -0.16362672800E+02  0.54367093209E+02  0.40000020588E+02 0.  0.
         12    1    3    3    0    0 -0.13676709148E+02  0.30016491178E+02  0.16362672800E+02  0.36820906791E+02  0.00000000000E+00 0. -1.
         11    1    4    4    0    0  0.76268302141E+01  0.16118297400E+01  0.34223142547E+01  0.85134463847E+01  0.51100000000E-03 0. -1.
        -11    1    4    4    0    0  0.10878274069E+02 -0.19624748133E+01 -0.31162915872E+01  0.11484747609E+02  0.51100000000E-03 0.  1.
        -12    1    4    4    0    0 -0.48283951356E+01 -0.29665846104E+02 -0.16668695468E+02  0.34368899215E+02  0.00000000000E+00 0.  1.
</event>
<event>
 8    1  0.2509489E-006  0.9118800E+02  0.7816164E-02  0.1184000E+00
        -11   -1    0    0    0    0  0.00000000000E+00  0.00000000000E+00  0.45593999997E+02  0.45594000000E+02  0.51100000000E-03 0. -1.
         11   -1    0    0    0    0 -0.00000000000E+00 -0.00000000000E+00 -0.45593999997E+02  0.45594000000E+02  0.51100000000E-03 0.  1.
         23    2    1    2    0    0  0.00000000000E+00  0.66613381478E-15  0.00000000000E+00  0.91188000000E+02  0.91188000000E+02 0.  0.
    9900012    2    3    3    0    0  0.29948373017E+02  0.10101097262E+01  0.21397519268E+02  0.54367092911E+02  0.40000019910E+02 0.  0.
         12    1    3    3    0    0 -0.29948373017E+02 -0.10101097262E+01 -0.21397519268E+02  0.36820907089E+02  0.00000000000E+00 0. -1.
         11    1    4    4    0    0  0.11821108249E+02  0.44222494564E+00  0.15859331030E+02  0.19785159695E+02  0.51100000000E-03 0. -1.
        -11    1    4    4    0    0  0.87443269546E+01 -0.21125827682E+01  0.17179106489E+02  0.19391956061E+02  0.51100000000E-03 0.  1.
        -12    1    4    4    0    0  0.93829378125E+01  0.26804675488E+01 -0.11640918251E+02  0.15189977156E+02  0.00000000000E+00 0.  1.
</event>
<event>
 8    1  0.2509489E-006  0.9118800E+02  0.7816164E-02  0.1184000E+00
        -11   -1    0    0    0    0  0.00000000000E+00  0.00000000000E+00  0.45593999997E+02  0.45594000000E+02  0.51100000000E-03 0.  1.
         11   -1    0    0    0    0 -0.00000000000E+00 -0.00000000000E+00 -0.45593999997E+02  0.45594000000E+02  0.51100000000E-03 0. -1.
         23    2    1    2    0    0 -0.17763568394E-14  0.00000000000E+00  0.44408920985E-15  0.91188000000E+02  0.91188000000E+02 0.  0.
    9900012    2    3    3    0    0  0.85961275904E+01 -0.35690134329E+02  0.28432637601E+01  0.54367309529E+02  0.40000513730E+02 0.  0.
         12    1    3    3    0    0 -0.85961275904E+01  0.35690134329E+02 -0.28432637601E+01  0.36820690471E+02  0.00000000000E+00 0. -1.
         11    1    4    4    0    0  0.12827992146E+02 -0.25148680918E+02 -0.81103101658E+00  0.28243075363E+02  0.51100000000E-03 0. -1.
        -11    1    4    4    0    0 -0.53174899966E+01 -0.16955143072E+02  0.66365100864E+01  0.18968285185E+02  0.51100000000E-03 0.  1.
        -12    1    4    4    0    0  0.10856254411E+01  0.64136896610E+01 -0.29822153097E+01  0.71559489810E+01  0.00000000000E+00 0.  1.
</event>
<event>
 8    1  0.2509489E-006  0.9118800E+02  0.7816164E-02  0.1184000E+00
        -11   -1    0    0    0    0  0.00000000000E+00  0.00000000000E+00  0.45593999997E+02  0.45594000000E+02  0.51100000000E-03 0.  1.
         11   -1    0    0    0    0 -0.00000000000E+00 -0.00000000000E+00 -0.45593999997E+02  0.45594000000E+02  0.51100000000E-03 0. -1.
         23    2    1    2    0    0  0.00000000000E+00  0.88817841970E-15  0.00000000000E+00  0.91188000000E+02  0.91188000000E+02 0.  0.
    9900012    2    3    3    0    0 -0.29282648537E+02  0.79461603835E+01  0.20860599339E+02  0.54367087804E+02  0.40000008267E+02 0.  0.
        -12    1    3    3    0    0  0.29282648537E+02 -0.79461603835E+01 -0.20860599339E+02  0.36820912196E+02  0.00000000000E+00 0.  1.
         11    1    4    4    0    0 -0.74772987483E+01 -0.78268176854E+01  0.93731262510E+01  0.14318678976E+02  0.51100000000E-03 0.  1.
        -11    1    4    4    0    0 -0.26722301921E+02  0.15210160632E+02  0.39065350618E+01  0.30995022550E+02  0.51100000000E-03 0. -1.
         12    1    4    4    0    0  0.49169521325E+01  0.56281743659E+00  0.75809380258E+01  0.90533862776E+01  0.00000000000E+00 0. -1.
</event>
<event>
 8    1  0.2509489E-006  0.9118800E+02  0.7816164E-02  0.1184000E+00
        -11   -1    0    0    0    0  0.00000000000E+00  0.00000000000E+00  0.45593999997E+02  0.45594000000E+02  0.51100000000E-03 0. -1.
         11   -1    0    0    0    0 -0.00000000000E+00 -0.00000000000E+00 -0.45593999997E+02  0.45594000000E+02  0.51100000000E-03 0.  1.
         23    2    1    2    0    0  0.00000000000E+00  0.35527136788E-14  0.00000000000E+00  0.91188000000E+02  0.91188000000E+02 0.  0.
    9900012    2    3    3    0    0  0.23676366639E+02  0.24518862007E+02 -0.13929637656E+02  0.54367085609E+02  0.40000003263E+02 0.  0.
         12    1    3    3    0    0 -0.23676366639E+02 -0.24518862007E+02  0.13929637656E+02  0.36820914391E+02  0.00000000000E+00 0. -1.
         11    1    4    4    0    0  0.12558347437E+02  0.12045907377E+02 -0.23593237735E+02  0.29316494367E+02  0.51100000000E-03 0. -1.
        -11    1    4    4    0    0 -0.20725129181E+01 -0.15766435258E+00 -0.23911057720E+01  0.31682100495E+01  0.51100000000E-03 0.  1.
         12    1    4    4    0    0  0.13190532120E+02  0.12630618983E+02  0.12054705851E+02  0.21882381192E+02  0.00000000000E+00 0. -1.
</event>
<event>
 8    1  0.2509489E-006  0.9118800E+02  0.7816164E-02  0.1184000E+00
        -11   -1    0    0    0    0  0.00000000000E+00  0.00000000000E+00  0.45593999997E+02  0.45594000000E+02  0.51100000000E-03 0.  1.
         11   -1    0    0    0    0 -0.00000000000E+00 -0.00000000000E+00 -0.45593999997E+02  0.45594000000E+02  0.51100000000E-03 0. -1.
         23    2    1    2    0    0  0.00000000000E+00 -0.17763568394E-14 -0.35527136788E-14  0.91188000000E+02  0.91188000000E+02 0.  0.
    9900012    2    3    3    0    0 -0.18483463086E+02  0.10444263831E+02  0.30084196850E+02  0.54367082647E+02  0.39999996510E+02 0.  0.
         12    1    3    3    0    0  0.18483463086E+02 -0.10444263831E+02 -0.30084196850E+02  0.36820917353E+02  0.00000000000E+00 0. -1.
         11    1    4    4    0    0 -0.10717724401E+01  0.38338690755E+01 -0.45557306245E+00  0.40068435617E+01  0.51100000000E-03 0. -1.
        -11    1    4    4    0    0 -0.14484779246E+02  0.15916310353E+02  0.37439474295E+01  0.21843875748E+02  0.51100000000E-03 0.  1.
         12    1    4    4    0    0 -0.29269114003E+01 -0.93059155982E+01  0.26795822483E+02  0.28516363337E+02  0.00000000000E+00 0. -1.
</event>
<event>
 8    1  0.2509489E-006  0.9118800E+02  0.7816164E-02  0.1184000E+00
        -11   -1    0    0    0    0  0.00000000000E+00  0.00000000000E+00  0.45593999997E+02  0.45594000000E+02  0.51100000000E-03 0. -1.
         11   -1    0    0    0    0 -0.00000000000E+00 -0.00000000000E+00 -0.45593999997E+02  0.45594000000E+02  0.51100000000E-03 0.  1.
         23    2    1    2    0    0  0.00000000000E+00  0.00000000000E+00 -0.17763568394E-14  0.91188000000E+02  0.91188000000E+02 0.  0.
    9900012    2    3    3    0    0  0.16171362499E+02 -0.32353483428E+02  0.68934582299E+01  0.54367073595E+02  0.39999975874E+02 0.  0.
         12    1    3    3    0    0 -0.16171362499E+02  0.32353483428E+02 -0.68934582299E+01  0.36820926405E+02  0.00000000000E+00 0. -1.
         11    1    4    4    0    0  0.11641772951E+02 -0.20764518061E+02  0.16563766710E+02  0.29000938875E+02  0.51100000000E-03 0. -1.
        -11    1    4    4    0    0 -0.77911124644E+01 -0.35468317460E+01 -0.20755645387E+01  0.88084855272E+01  0.51100000000E-03 0.  1.
        -12    1    4    4    0    0  0.12320702012E+02 -0.80421336209E+01 -0.75947439414E+01  0.16557649193E+02  0.00000000000E+00 0.  1.
</event>
<event>
 8    1  0.2509489E-006  0.9118800E+02  0.7816164E-02  0.1184000E+00
        -11   -1    0    0    0    0  0.00000000000E+00  0.00000000000E+00  0.45593999997E+02  0.45594000000E+02  0.51100000000E-03 0. -1.
         11   -1    0    0    0    0 -0.00000000000E+00 -0.00000000000E+00 -0.45593999997E+02  0.45594000000E+02  0.51100000000E-03 0.  1.
         23    2    1    2    0    0 -0.35527136788E-14  0.00000000000E+00  0.00000000000E+00  0.91188000000E+02  0.91188000000E+02 0.  0.
    9900012    2    3    3    0    0  0.19705437094E+02 -0.14334080064E+02 -0.27604534245E+02  0.54367076421E+02  0.39999982317E+02 0.  0.
         12    1    3    3    0    0 -0.19705437094E+02  0.14334080064E+02  0.27604534245E+02  0.36820923579E+02  0.00000000000E+00 0. -1.
         11    1    4    4    0    0  0.39504288694E+01 -0.16029121350E+00  0.55615262656E+01  0.68236468395E+01  0.51100000000E-03 0. -1.
        -11    1    4    4    0    0 -0.48786475638E+01  0.25143555763E+01 -0.13317770343E+02  0.14404381042E+02  0.51100000000E-03 0.  1.
        -12    1    4    4    0    0  0.20633655788E+02 -0.16688144426E+02 -0.19848290167E+02  0.33139048540E+02  0.00000000000E+00 0.  1.
</event>
<event>
 8    1  0.2509489E-006  0.9118800E+02  0.7816164E-02  0.1184000E+00
        -11   -1    0    0    0    0  0.00000000000E+00  0.00000000000E+00  0.45593999997E+02  0.45594000000E+02  0.51100000000E-03 0.  1.
         11   -1    0    0    0    0 -0.00000000000E+00 -0.00000000000E+00 -0.45593999997E+02  0.45594000000E+02  0.51100000000E-03 0. -1.
         23    2    1    2    0    0 -0.88817841970E-15  0.00000000000E+00  0.35527136788E-14  0.91188000000E+02  0.91188000000E+02 0.  0.
    9900012    2    3    3    0    0 -0.25346692457E+01  0.32522244445E+02 -0.17078054738E+02  0.54367070007E+02  0.39999967696E+02 0.  0.
        -12    1    3    3    0    0  0.25346692457E+01 -0.32522244445E+02  0.17078054738E+02  0.36820929993E+02  0.00000000000E+00 0.  1.
         11    1    4    4    0    0  0.12352007994E+02  0.52045930750E+01  0.42281613169E+01  0.14054794162E+02  0.51100000000E-03 0. -1.
        -11    1    4    4    0    0  0.57386715274E+00 -0.14410860517E+01 -0.12609632311E+01  0.19990200221E+01  0.51100000000E-03 0.  1.
         12    1    4    4    0    0 -0.15460544393E+02  0.28758737421E+02 -0.20045252824E+02  0.38313255823E+02  0.00000000000E+00 0. -1.
</event>
<event>
 8    1  0.2509489E-006  0.9118800E+02  0.7816164E-02  0.1184000E+00
        -11   -1    0    0    0    0  0.00000000000E+00  0.00000000000E+00  0.45593999997E+02  0.45594000000E+02  0.51100000000E-03 0.  1.
         11   -1    0    0    0    0 -0.00000000000E+00 -0.00000000000E+00 -0.45593999997E+02  0.45594000000E+02  0.51100000000E-03 0. -1.
         23    2    1    2    0    0  0.00000000000E+00  0.00000000000E+00  0.00000000000E+00  0.91188000000E+02  0.91188000000E+02 0.  0.
    9900012    2    3    3    0    0  0.85537913845E+01 -0.66602043955E+01 -0.35188837605E+02  0.54367082553E+02  0.39999996297E+02 0.  0.
        -12    1    3    3    0    0 -0.85537913845E+01  0.66602043955E+01  0.35188837605E+02  0.36820917447E+02  0.00000000000E+00 0.  1.
         11    1    4    4    0    0  0.13950481466E+02 -0.84827599266E-02 -0.10822455471E+02  0.17656204229E+02  0.51100000000E-03 0. -1.
        -11    1    4    4    0    0  0.77244100856E+01  0.10802938860E+01  0.20513640182E+00  0.78022834642E+01  0.51100000000E-03 0.  1.
        -12    1    4    4    0    0 -0.13121100167E+02 -0.77320155216E+01 -0.24571518536E+02  0.28908594860E+02  0.00000000000E+00 0.  1.
</event>
<event>
 8    1  0.2509489E-006  0.9118800E+02  0.7816164E-02  0.1184000E+00
        -11   -1    0    0    0    0  0.00000000000E+00  0.00000000000E+00  0.45593999997E+02  0.45594000000E+02  0.51100000000E-03 0.  1.
         11   -1    0    0    0    0 -0.00000000000E+00 -0.00000000000E+00 -0.45593999997E+02  0.45594000000E+02  0.51100000000E-03 0. -1.
         23    2    1    2    0    0 -0.35527136788E-14  0.35527136788E-14  0.17763568394E-14  0.91188000000E+02  0.91188000000E+02 0.  0.
    9900012    2    3    3    0    0 -0.28034176153E+02  0.23511869665E+02 -0.41299398451E+01  0.54367089489E+02  0.40000012109E+02 0.  0.
         12    1    3    3    0    0  0.28034176153E+02 -0.23511869665E+02  0.41299398451E+01  0.36820910511E+02  0.00000000000E+00 0. -1.
         11    1    4    4    0    0 -0.32158586999E+01  0.74906088809E+01 -0.46151502834E+01  0.93675280081E+01  0.51100000000E-03 0. -1.
        -11    1    4    4    0    0 -0.96020066757E+01  0.13562165436E+02 -0.15549506502E+02  0.22757812203E+02  0.51100000000E-03 0.  1.
        -12    1    4    4    0    0 -0.15216310777E+02  0.24590953479E+01  0.16034716941E+02  0.22241749278E+02  0.00000000000E+00 0.  1.
</event>
<event>
 8    1  0.2509489E-006  0.9118800E+02  0.7816164E-02  0.1184000E+00
        -11   -1    0    0    0    0  0.00000000000E+00  0.00000000000E+00  0.45593999997E+02  0.45594000000E+02  0.51100000000E-03 0.  1.
         11   -1    0    0    0    0 -0.00000000000E+00 -0.00000000000E+00 -0.45593999997E+02  0.45594000000E+02  0.51100000000E-03 0. -1.
         23    2    1    2    0    0 -0.35527136788E-14 -0.88817841970E-15 -0.35527136788E-14  0.91188000000E+02  0.91188000000E+02 0.  0.
    9900012    2    3    3    0    0  0.29875336110E+02  0.42167109438E+01  0.21106075892E+02  0.54367044032E+02  0.39999908480E+02 0.  0.
        -12    1    3    3    0    0 -0.29875336110E+02 -0.42167109438E+01 -0.21106075892E+02  0.36820955968E+02  0.00000000000E+00 0.  1.
         11    1    4    4    0    0  0.15371125014E+02 -0.69646877130E+01 -0.73139459133E+00  0.16891219537E+02  0.51100000000E-03 0. -1.
        -11    1    4    4    0    0  0.10297906237E+02 -0.45120530233E+01  0.13437987350E+01  0.11323042464E+02  0.51100000000E-03 0.  1.
         12    1    4    4    0    0  0.42063048581E+01  0.15693451680E+02  0.20493671748E+02  0.26152782030E+02  0.00000000000E+00 0. -1.
</event>
<event>
 8    1  0.2509489E-006  0.9118800E+02  0.7816164E-02  0.1184000E+00
        -11   -1    0    0    0    0  0.00000000000E+00  0.00000000000E+00  0.45593999997E+02  0.45594000000E+02  0.51100000000E-03 0. -1.
         11   -1    0    0    0    0 -0.00000000000E+00 -0.00000000000E+00 -0.45593999997E+02  0.45594000000E+02  0.51100000000E-03 0.  1.
         23    2    1    2    0    0  0.00000000000E+00  0.17763568394E-14  0.71054273576E-14  0.91188000000E+02  0.91188000000E+02 0.  0.
    9900012    2    3    3    0    0 -0.14910787106E+02 -0.10129896543E+02 -0.32106585033E+02  0.54367093186E+02  0.40000020537E+02 0.  0.
         12    1    3    3    0    0  0.14910787106E+02  0.10129896543E+02  0.32106585033E+02  0.36820906814E+02  0.00000000000E+00 0. -1.
         11    1    4    4    0    0 -0.72777375771E+01 -0.87912479164E+01 -0.40521277026E+01  0.12110790368E+02  0.51100000000E-03 0. -1.
        -11    1    4    4    0    0 -0.15829415546E+02  0.90997409095E+01 -0.17617561639E+02  0.25372310883E+02  0.51100000000E-03 0.  1.
        -12    1    4    4    0    0  0.81963660172E+01 -0.10438389536E+02 -0.10436895691E+02  0.16883991935E+02  0.00000000000E+00 0.  1.
</event>
<event>
 8    1  0.2509489E-006  0.9118800E+02  0.7816164E-02  0.1184000E+00
        -11   -1    0    0    0    0  0.00000000000E+00  0.00000000000E+00  0.45593999997E+02  0.45594000000E+02  0.51100000000E-03 0.  1.
         11   -1    0    0    0    0 -0.00000000000E+00 -0.00000000000E+00 -0.45593999997E+02  0.45594000000E+02  0.51100000000E-03 0. -1.
         23    2    1    2    0    0  0.00000000000E+00  0.00000000000E+00  0.00000000000E+00  0.91188000000E+02  0.91188000000E+02 0.  0.
    9900012    2    3    3    0    0  0.14412452793E+02  0.18836305249E+02 -0.28164769864E+02  0.54367089468E+02  0.40000012060E+02 0.  0.
        -12    1    3    3    0    0 -0.14412452793E+02 -0.18836305249E+02  0.28164769864E+02  0.36820910532E+02  0.00000000000E+00 0.  1.
         11    1    4    4    0    0 -0.30326112438E+00  0.39197368314E-01  0.62159867938E+01  0.62235035009E+01  0.51100000000E-03 0. -1.
        -11    1    4    4    0    0  0.86773051798E+01 -0.39719495226E+01 -0.60513828982E+01  0.11300055019E+02  0.51100000000E-03 0.  1.
         12    1    4    4    0    0  0.60384087372E+01  0.22769057403E+02 -0.28329373760E+02  0.36843530948E+02  0.00000000000E+00 0. -1.
</event>
<event>
 8    1  0.2509489E-006  0.9118800E+02  0.7816164E-02  0.1184000E+00
        -11   -1    0    0    0    0  0.00000000000E+00  0.00000000000E+00  0.45593999997E+02  0.45594000000E+02  0.51100000000E-03 0. -1.
         11   -1    0    0    0    0 -0.00000000000E+00 -0.00000000000E+00 -0.45593999997E+02  0.45594000000E+02  0.51100000000E-03 0.  1.
         23    2    1    2    0    0  0.00000000000E+00  0.00000000000E+00  0.00000000000E+00  0.91188000000E+02  0.91188000000E+02 0.  0.
    9900012    2    3    3    0    0 -0.83320038633E+01 -0.26025361996E+02  0.24678667737E+02  0.54367103804E+02  0.40000044742E+02 0.  0.
        -12    1    3    3    0    0  0.83320038633E+01  0.26025361996E+02 -0.24678667737E+02  0.36820896196E+02  0.00000000000E+00 0.  1.
         11    1    4    4    0    0  0.19255306298E+01 -0.68350246649E+01  0.42455526614E+01  0.82734483765E+01  0.51100000000E-03 0. -1.
        -11    1    4    4    0    0 -0.42963075003E+01 -0.17069553115E+02 -0.62438944380E+01  0.18676566057E+02  0.51100000000E-03 0.  1.
         12    1    4    4    0    0 -0.59612269928E+01 -0.21207842162E+01  0.26677009514E+02  0.27417089371E+02  0.00000000000E+00 0. -1.
</event>
<event>
 8    1  0.2509489E-006  0.9118800E+02  0.7816164E-02  0.1184000E+00
        -11   -1    0    0    0    0  0.00000000000E+00  0.00000000000E+00  0.45593999997E+02  0.45594000000E+02  0.51100000000E-03 0.  1.
         11   -1    0    0    0    0 -0.00000000000E+00 -0.00000000000E+00 -0.45593999997E+02  0.45594000000E+02  0.51100000000E-03 0. -1.
         23    2    1    2    0    0  0.35527136788E-14  0.00000000000E+00  0.00000000000E+00  0.91188000000E+02  0.91188000000E+02 0.  0.
    9900012    2    3    3    0    0  0.24747895518E+02  0.18243369335E+02  0.20260826667E+02  0.54367082650E+02  0.39999996518E+02 0.  0.
         12    1    3    3    0    0 -0.24747895518E+02 -0.18243369335E+02 -0.20260826667E+02  0.36820917350E+02  0.00000000000E+00 0. -1.
         11    1    4    4    0    0  0.54170773601E+01  0.12610499900E+02  0.18415844844E+02  0.22967646298E+02  0.51100000000E-03 0.  1.
        -11    1    4    4    0    0  0.18669907638E+02  0.59635089811E+01  0.10824405032E+02  0.22389654645E+02  0.51100000000E-03 0. -1.
         12    1    4    4    0    0  0.66091051992E+00 -0.33063954629E+00 -0.89794232102E+01  0.90097817073E+01  0.00000000000E+00 0. -1.
</event>
<event>
 8    1  0.2509489E-006  0.9118800E+02  0.7816164E-02  0.1184000E+00
        -11   -1    0    0    0    0  0.00000000000E+00  0.00000000000E+00  0.45593999997E+02  0.45594000000E+02  0.51100000000E-03 0. -1.
         11   -1    0    0    0    0 -0.00000000000E+00 -0.00000000000E+00 -0.45593999997E+02  0.45594000000E+02  0.51100000000E-03 0.  1.
         23    2    1    2    0    0 -0.88817841970E-15  0.00000000000E+00  0.00000000000E+00  0.91188000000E+02  0.91188000000E+02 0.  0.
    9900012    2    3    3    0    0  0.53437026474E+01  0.35777953839E+02 -0.68675000074E+01  0.54367086171E+02  0.40000004543E+02 0.  0.
         12    1    3    3    0    0 -0.53437026474E+01 -0.35777953839E+02  0.68675000074E+01  0.36820913829E+02  0.00000000000E+00 0. -1.
         11    1    4    4    0    0 -0.18777762425E+01 -0.46381533714E+01 -0.37246302428E+01  0.62378987664E+01  0.51100000000E-03 0. -1.
        -11    1    4    4    0    0 -0.90517383218E+01  0.19413679048E+02 -0.46262898133E+00  0.21425193737E+02  0.51100000000E-03 0.  1.
        -12    1    4    4    0    0  0.16273217212E+02  0.21002428162E+02 -0.26802407833E+01  0.26703993667E+02  0.00000000000E+00 0.  1.
</event>
<event>
 8    1  0.2509489E-006  0.9118800E+02  0.7816164E-02  0.1184000E+00
        -11   -1    0    0    0    0  0.00000000000E+00  0.00000000000E+00  0.45593999997E+02  0.45594000000E+02  0.51100000000E-03 0.  1.
         11   -1    0    0    0    0 -0.00000000000E+00 -0.00000000000E+00 -0.45593999997E+02  0.45594000000E+02  0.51100000000E-03 0. -1.
         23    2    1    2    0    0  0.17763568394E-14  0.00000000000E+00 -0.35527136788E-14  0.91188000000E+02  0.91188000000E+02 0.  0.
    9900012    2    3    3    0    0 -0.88062505431E+01  0.18863137182E+02  0.30371241575E+02  0.54367077853E+02  0.39999985581E+02 0.  0.
         12    1    3    3    0    0  0.88062505431E+01 -0.18863137182E+02 -0.30371241575E+02  0.36820922147E+02  0.00000000000E+00 0. -1.
         11    1    4    4    0    0 -0.42035954145E+01 -0.75991506841E+01  0.65202610390E+01  0.10859609100E+02  0.51100000000E-03 0. -1.
        -11    1    4    4    0    0  0.53853245041E+01  0.20176010652E+01  0.14323369684E+02  0.15434745007E+02  0.51100000000E-03 0.  1.
        -12    1    4    4    0    0 -0.99879796327E+01  0.24444686801E+02  0.95276108514E+01  0.28072723745E+02  0.00000000000E+00 0.  1.
</event>
<event>
 8    1  0.2509489E-006  0.9118800E+02  0.7816164E-02  0.1184000E+00
        -11   -1    0    0    0    0  0.00000000000E+00  0.00000000000E+00  0.45593999997E+02  0.45594000000E+02  0.51100000000E-03 0.  1.
         11   -1    0    0    0    0 -0.00000000000E+00 -0.00000000000E+00 -0.45593999997E+02  0.45594000000E+02  0.51100000000E-03 0. -1.
         23    2    1    2    0    0  0.00000000000E+00  0.35527136788E-14  0.00000000000E+00  0.91188000000E+02  0.91188000000E+02 0.  0.
    9900012    2    3    3    0    0 -0.92946308834E+01 -0.28155452241E+02 -0.21832553038E+02  0.54367081675E+02  0.39999994294E+02 0.  0.
        -12    1    3    3    0    0  0.92946308834E+01  0.28155452241E+02  0.21832553038E+02  0.36820918325E+02  0.00000000000E+00 0.  1.
         11    1    4    4    0    0  0.10118313727E+02 -0.14959280004E+02 -0.18965182287E+02  0.26188517910E+02  0.51100000000E-03 0. -1.
        -11    1    4    4    0    0 -0.98192542277E+01 -0.27605517237E+01  0.56308759651E+01  0.11650972655E+02  0.51100000000E-03 0.  1.
         12    1    4    4    0    0 -0.95936903822E+01 -0.10435620513E+02 -0.84982467167E+01  0.16527591110E+02  0.00000000000E+00 0. -1.
</event>
<event>
 8    1  0.2509489E-006  0.9118800E+02  0.7816164E-02  0.1184000E+00
        -11   -1    0    0    0    0  0.00000000000E+00  0.00000000000E+00  0.45593999997E+02  0.45594000000E+02  0.51100000000E-03 0.  1.
         11   -1    0    0    0    0 -0.00000000000E+00 -0.00000000000E+00 -0.45593999997E+02  0.45594000000E+02  0.51100000000E-03 0. -1.
         23    2    1    2    0    0  0.00000000000E+00  0.00000000000E+00 -0.88817841970E-15  0.91188000000E+02  0.91188000000E+02 0.  0.
    9900012    2    3    3    0    0 -0.14984045424E+02 -0.33056121608E+02 -0.62087667123E+01  0.54367114933E+02  0.40000070114E+02 0.  0.
         12    1    3    3    0    0  0.14984045424E+02  0.33056121608E+02  0.62087667123E+01  0.36820885067E+02  0.00000000000E+00 0. -1.
         11    1    4    4    0    0 -0.18925967849E+02 -0.49372902085E+01  0.13926931951E+01  0.19608893090E+02  0.51100000000E-03 0. -1.
        -11    1    4    4    0    0  0.75358955796E+01 -0.25997870491E+02 -0.11155583994E+02  0.29276715095E+02  0.51100000000E-03 0.  1.
        -12    1    4    4    0    0 -0.35939731545E+01 -0.21209609084E+01  0.35541240869E+01  0.54815067486E+01  0.00000000000E+00 0.  1.
</event>
<event>
 8    1  0.2509489E-006  0.9118800E+02  0.7816164E-02  0.1184000E+00
        -11   -1    0    0    0    0  0.00000000000E+00  0.00000000000E+00  0.45593999997E+02  0.45594000000E+02  0.51100000000E-03 0.  1.
         11   -1    0    0    0    0 -0.00000000000E+00 -0.00000000000E+00 -0.45593999997E+02  0.45594000000E+02  0.51100000000E-03 0. -1.
         23    2    1    2    0    0 -0.71054273576E-14  0.71054273576E-14  0.00000000000E+00  0.91188000000E+02  0.91188000000E+02 0.  0.
    9900012    2    3    3    0    0  0.14904066899E+02 -0.33152559893E+02 -0.58784788555E+01  0.54367082694E+02  0.39999996617E+02 0.  0.
        -12    1    3    3    0    0 -0.14904066899E+02  0.33152559893E+02  0.58784788555E+01  0.36820917306E+02  0.00000000000E+00 0.  1.
         11    1    4    4    0    0  0.90048774540E+01 -0.15879772185E+02 -0.13490144190E+02  0.22698876033E+02  0.51100000000E-03 0. -1.
        -11    1    4    4    0    0 -0.51844149439E+01 -0.15816591587E+02  0.11042803615E+02  0.19974639914E+02  0.51100000000E-03 0.  1.
        -12    1    4    4    0    0  0.11083604389E+02 -0.14561961211E+01 -0.34311382796E+01  0.11693566748E+02  0.00000000000E+00 0.  1.
</event>
<event>
 8    1  0.2509489E-006  0.9118800E+02  0.7816164E-02  0.1184000E+00
        -11   -1    0    0    0    0  0.00000000000E+00  0.00000000000E+00  0.45593999997E+02  0.45594000000E+02  0.51100000000E-03 0.  1.
         11   -1    0    0    0    0 -0.00000000000E+00 -0.00000000000E+00 -0.45593999997E+02  0.45594000000E+02  0.51100000000E-03 0. -1.
         23    2    1    2    0    0 -0.35527136788E-14 -0.88817841970E-15  0.00000000000E+00  0.91188000000E+02  0.91188000000E+02 0.  0.
    9900012    2    3    3    0    0 -0.28725080644E+02 -0.38165514363E+01  0.22717487186E+02  0.54367074606E+02  0.39999978178E+02 0.  0.
         12    1    3    3    0    0  0.28725080644E+02  0.38165514363E+01 -0.22717487186E+02  0.36820925394E+02  0.00000000000E+00 0. -1.
         11    1    4    4    0    0 -0.33995025429E+02  0.53442898466E+01  0.83004233215E+01  0.35399438067E+02  0.51100000000E-03 0. -1.
        -11    1    4    4    0    0  0.17837713505E+01 -0.79114743185E+01  0.71519850479E+01  0.10813147391E+02  0.51100000000E-03 0.  1.
         12    1    4    4    0    0  0.34861734352E+01 -0.12493669644E+01  0.72650788167E+01  0.81544891468E+01  0.00000000000E+00 0. -1.
</event>
<event>
 8    1  0.2509489E-006  0.9118800E+02  0.7816164E-02  0.1184000E+00
        -11   -1    0    0    0    0  0.00000000000E+00  0.00000000000E+00  0.45593999997E+02  0.45594000000E+02  0.51100000000E-03 0. -1.
         11   -1    0    0    0    0 -0.00000000000E+00 -0.00000000000E+00 -0.45593999997E+02  0.45594000000E+02  0.51100000000E-03 0.  1.
         23    2    1    2    0    0  0.35527136788E-14 -0.35527136788E-14  0.00000000000E+00  0.91188000000E+02  0.91188000000E+02 0.  0.
    9900012    2    3    3    0    0 -0.21948532261E+02  0.27010202156E+02 -0.12020388244E+02  0.54367098022E+02  0.40000031560E+02 0.  0.
        -12    1    3    3    0    0  0.21948532261E+02 -0.27010202156E+02  0.12020388244E+02  0.36820901978E+02  0.00000000000E+00 0.  1.
         11    1    4    4    0    0 -0.21504719927E+01  0.22309978022E+02 -0.86564071492E+01  0.24026923109E+02  0.51100000000E-03 0. -1.
        -11    1    4    4    0    0 -0.17815317814E+02 -0.20406620965E+01  0.57508750731E+01  0.18831420949E+02  0.51100000000E-03 0.  1.
        -12    1    4    4    0    0 -0.19827424552E+01  0.67408862310E+01 -0.91148561681E+01  0.11508753963E+02  0.00000000000E+00 0.  1.
</event>
<event>
 8    1  0.2509489E-006  0.9118800E+02  0.7816164E-02  0.1184000E+00
        -11   -1    0    0    0    0  0.00000000000E+00  0.00000000000E+00  0.45593999997E+02  0.45594000000E+02  0.51100000000E-03 0.  1.
         11   -1    0    0    0    0 -0.00000000000E+00 -0.00000000000E+00 -0.45593999997E+02  0.45594000000E+02  0.51100000000E-03 0. -1.
         23    2    1    2    0    0  0.00000000000E+00  0.35527136788E-14  0.00000000000E+00  0.91188000000E+02  0.91188000000E+02 0.  0.
    9900012    2    3    3    0    0 -0.16850840543E+02  0.29175157139E+02  0.14854118613E+02  0.54367007878E+02  0.39999826059E+02 0.  0.
        -12    1    3    3    0    0  0.16850840543E+02 -0.29175157139E+02 -0.14854118613E+02  0.36820992122E+02  0.00000000000E+00 0.  1.
         11    1    4    4    0    0 -0.44462113832E+01  0.16725863824E+02 -0.67976085085E+01  0.18593837636E+02  0.51100000000E-03 0. -1.
        -11    1    4    4    0    0  0.61160545908E+01  0.57868493047E+01  0.92551931703E+01  0.12512088136E+02  0.51100000000E-03 0.  1.
         12    1    4    4    0    0 -0.18520683750E+02  0.66624440100E+01  0.12396533951E+02  0.23261082107E+02  0.00000000000E+00 0. -1.
</event>
<event>
 8    1  0.2509489E-006  0.9118800E+02  0.7816164E-02  0.1184000E+00
        -11   -1    0    0    0    0  0.00000000000E+00  0.00000000000E+00  0.45593999997E+02  0.45594000000E+02  0.51100000000E-03 0. -1.
         11   -1    0    0    0    0 -0.00000000000E+00 -0.00000000000E+00 -0.45593999997E+02  0.45594000000E+02  0.51100000000E-03 0.  1.
         23    2    1    2    0    0  0.35527136788E-14 -0.35527136788E-14 -0.35527136788E-14  0.91188000000E+02  0.91188000000E+02 0.  0.
    9900012    2    3    3    0    0  0.10776127488E+02  0.16445648627E+02  0.31131932949E+02  0.54367061235E+02  0.39999947697E+02 0.  0.
        -12    1    3    3    0    0 -0.10776127488E+02 -0.16445648627E+02 -0.31131932949E+02  0.36820938765E+02  0.00000000000E+00 0.  1.
         11    1    4    4    0    0  0.41862232601E+01  0.19759185163E+01  0.11108818266E+02  0.12034723208E+02  0.51100000000E-03 0. -1.
        -11    1    4    4    0    0  0.16057689928E+02  0.20276204138E+01  0.21178450985E+02  0.26654970207E+02  0.51100000000E-03 0.  1.
        -12    1    4    4    0    0 -0.94677857003E+01  0.12442109696E+02 -0.11553363018E+01  0.15677367819E+02  0.00000000000E+00 0.  1.
</event>
<event>
 8    1  0.2509489E-006  0.9118800E+02  0.7816164E-02  0.1184000E+00
        -11   -1    0    0    0    0  0.00000000000E+00  0.00000000000E+00  0.45593999997E+02  0.45594000000E+02  0.51100000000E-03 0. -1.
         11   -1    0    0    0    0 -0.00000000000E+00 -0.00000000000E+00 -0.45593999997E+02  0.45594000000E+02  0.51100000000E-03 0.  1.
         23    2    1    2    0    0 -0.35527136788E-14  0.00000000000E+00  0.00000000000E+00  0.91188000000E+02  0.91188000000E+02 0.  0.
    9900012    2    3    3    0    0 -0.52699121692E+01 -0.31797943164E+02 -0.17801730951E+02  0.54367044166E+02  0.39999908784E+02 0.  0.
        -12    1    3    3    0    0  0.52699121692E+01  0.31797943164E+02  0.17801730951E+02  0.36820955834E+02  0.00000000000E+00 0.  1.
         11    1    4    4    0    0  0.26423760544E+00  0.44460028400E+01 -0.19419890495E+01  0.48588151328E+01  0.51100000000E-03 0. -1.
        -11    1    4    4    0    0 -0.16924997835E+02 -0.28379325848E+02 -0.11728367773E+02  0.35062748012E+02  0.51100000000E-03 0.  1.
        -12    1    4    4    0    0  0.11390848060E+02 -0.78646201556E+01 -0.41313741281E+01  0.14445481020E+02  0.00000000000E+00 0.  1.
</event>
<event>
 8    1  0.2509489E-006  0.9118800E+02  0.7816164E-02  0.1184000E+00
        -11   -1    0    0    0    0  0.00000000000E+00  0.00000000000E+00  0.45593999997E+02  0.45594000000E+02  0.51100000000E-03 0.  1.
         11   -1    0    0    0    0 -0.00000000000E+00 -0.00000000000E+00 -0.45593999997E+02  0.45594000000E+02  0.51100000000E-03 0. -1.
         23    2    1    2    0    0 -0.17763568394E-14  0.00000000000E+00  0.00000000000E+00  0.91188000000E+02  0.91188000000E+02 0.  0.
    9900012    2    3    3    0    0  0.10047071667E+02  0.10404822580E+02  0.33861122617E+02  0.54367087370E+02  0.40000007278E+02 0.  0.
         12    1    3    3    0    0 -0.10047071667E+02 -0.10404822580E+02 -0.33861122617E+02  0.36820912630E+02  0.00000000000E+00 0. -1.
         11    1    4    4    0    0  0.14683870299E+02  0.14167493193E+02  0.13088655186E+02  0.24241427457E+02  0.51100000000E-03 0. -1.
        -11    1    4    4    0    0  0.16619327738E+01  0.48445148841E+01  0.18532590464E+02  0.19227278918E+02  0.51100000000E-03 0.  1.
         12    1    4    4    0    0 -0.62987314054E+01 -0.86071854967E+01  0.22398769667E+01  0.10898380995E+02  0.00000000000E+00 0. -1.
</event>
<event>
 8    1  0.2509489E-006  0.9118800E+02  0.7816164E-02  0.1184000E+00
        -11   -1    0    0    0    0  0.00000000000E+00  0.00000000000E+00  0.45593999997E+02  0.45594000000E+02  0.51100000000E-03 0.  1.
         11   -1    0    0    0    0 -0.00000000000E+00 -0.00000000000E+00 -0.45593999997E+02  0.45594000000E+02  0.51100000000E-03 0. -1.
         23    2    1    2    0    0  0.00000000000E+00  0.88817841970E-15 -0.35527136788E-14  0.91188000000E+02  0.91188000000E+02 0.  0.
    9900012    2    3    3    0    0  0.19500156089E+02 -0.51599755533E+01 -0.30804206177E+02  0.54367074517E+02  0.39999977977E+02 0.  0.
        -12    1    3    3    0    0 -0.19500156089E+02  0.51599755533E+01  0.30804206177E+02  0.36820925483E+02  0.00000000000E+00 0.  1.
         11    1    4    4    0    0  0.59740762644E+01 -0.19288404282E+01 -0.11611152021E+02  0.13199578180E+02  0.51100000000E-03 0. -1.
        -11    1    4    4    0    0  0.77054354334E+01 -0.51637419190E+01  0.86342512947E+01  0.12672342384E+02  0.51100000000E-03 0.  1.
        -12    1    4    4    0    0  0.58206443912E+01  0.19326067939E+01 -0.27827305451E+02  0.28495153953E+02  0.00000000000E+00 0.  1.
</event>
<event>
 8    1  0.2509489E-006  0.9118800E+02  0.7816164E-02  0.1184000E+00
        -11   -1    0    0    0    0  0.00000000000E+00  0.00000000000E+00  0.45593999997E+02  0.45594000000E+02  0.51100000000E-03 0.  1.
         11   -1    0    0    0    0 -0.00000000000E+00 -0.00000000000E+00 -0.45593999997E+02  0.45594000000E+02  0.51100000000E-03 0. -1.
         23    2    1    2    0    0  0.35527136788E-14 -0.71054273576E-14  0.17763568394E-14  0.91188000000E+02  0.91188000000E+02 0.  0.
    9900012    2    3    3    0    0  0.13912617492E+02 -0.30706549044E+02  0.14809660123E+02  0.54367094082E+02  0.40000022580E+02 0.  0.
         12    1    3    3    0    0 -0.13912617492E+02  0.30706549044E+02 -0.14809660123E+02  0.36820905918E+02  0.00000000000E+00 0. -1.
         11    1    4    4    0    0 -0.21815757355E+01  0.14129227092E+00  0.88156650116E+01  0.90826860594E+01  0.51100000000E-03 0. -1.
        -11    1    4    4    0    0  0.16757717102E+01 -0.30005051699E+02  0.12337094827E+01  0.30077123826E+02  0.51100000000E-03 0.  1.
         12    1    4    4    0    0  0.14418421517E+02 -0.84278961541E+00  0.47602856285E+01  0.15207284197E+02  0.00000000000E+00 0. -1.
</event>
<event>
 8    1  0.2509489E-006  0.9118800E+02  0.7816164E-02  0.1184000E+00
        -11   -1    0    0    0    0  0.00000000000E+00  0.00000000000E+00  0.45593999997E+02  0.45594000000E+02  0.51100000000E-03 0. -1.
         11   -1    0    0    0    0 -0.00000000000E+00 -0.00000000000E+00 -0.45593999997E+02  0.45594000000E+02  0.51100000000E-03 0.  1.
         23    2    1    2    0    0 -0.71054273576E-14 -0.88817841970E-15  0.00000000000E+00  0.91188000000E+02  0.91188000000E+02 0.  0.
    9900012    2    3    3    0    0 -0.36257919299E+02  0.32008498376E+01  0.55585899246E+01  0.54367081034E+02  0.39999992833E+02 0.  0.
         12    1    3    3    0    0  0.36257919299E+02 -0.32008498376E+01 -0.55585899246E+01  0.36820918966E+02  0.00000000000E+00 0. -1.
         11    1    4    4    0    0 -0.27675618719E+02 -0.13875497048E+02  0.56277122956E+01  0.31466497036E+02  0.51100000000E-03 0. -1.
        -11    1    4    4    0    0 -0.63328959207E+01  0.12706264469E+01  0.20932499444E+01  0.67898275310E+01  0.51100000000E-03 0.  1.
         12    1    4    4    0    0 -0.22494046594E+01  0.15805720439E+02 -0.21623723155E+01  0.16110756467E+02  0.00000000000E+00 0. -1.
</event>
<event>
 8    1  0.2509489E-006  0.9118800E+02  0.7816164E-02  0.1184000E+00
        -11   -1    0    0    0    0  0.00000000000E+00  0.00000000000E+00  0.45593999997E+02  0.45594000000E+02  0.51100000000E-03 0. -1.
         11   -1    0    0    0    0 -0.00000000000E+00 -0.00000000000E+00 -0.45593999997E+02  0.45594000000E+02  0.51100000000E-03 0.  1.
         23    2    1    2    0    0  0.17763568394E-14  0.22204460493E-14  0.00000000000E+00  0.91188000000E+02  0.91188000000E+02 0.  0.
    9900012    2    3    3    0    0  0.12094866827E+02 -0.20971494488E+01  0.34714434062E+02  0.54367139450E+02  0.40000126004E+02 0.  0.
        -12    1    3    3    0    0 -0.12094866827E+02  0.20971494488E+01 -0.34714434062E+02  0.36820860550E+02  0.00000000000E+00 0.  1.
         11    1    4    4    0    0  0.14751300085E+02 -0.14739902258E+02  0.24474799036E+02  0.32154025578E+02  0.51100000000E-03 0. -1.
        -11    1    4    4    0    0 -0.79176162561E+01  0.11695831869E+02  0.89274776180E+01  0.16708709919E+02  0.51100000000E-03 0.  1.
        -12    1    4    4    0    0  0.52611829988E+01  0.94692093992E+00  0.13121574085E+01  0.55044039530E+01  0.00000000000E+00 0.  1.
</event>
<event>
 8    1  0.2509489E-006  0.9118800E+02  0.7816164E-02  0.1184000E+00
        -11   -1    0    0    0    0  0.00000000000E+00  0.00000000000E+00  0.45593999997E+02  0.45594000000E+02  0.51100000000E-03 0. -1.
         11   -1    0    0    0    0 -0.00000000000E+00 -0.00000000000E+00 -0.45593999997E+02  0.45594000000E+02  0.51100000000E-03 0.  1.
         23    2    1    2    0    0  0.53290705182E-14 -0.71054273576E-14 -0.17763568394E-14  0.91188000000E+02  0.91188000000E+02 0.  0.
    9900012    2    3    3    0    0 -0.13339306066E+02  0.32208660054E+02 -0.11850869882E+02  0.54367109384E+02  0.40000057463E+02 0.  0.
        -12    1    3    3    0    0  0.13339306066E+02 -0.32208660054E+02  0.11850869882E+02  0.36820890616E+02  0.00000000000E+00 0.  1.
         11    1    4    4    0    0 -0.12554808828E+02  0.64060114861E+00  0.33407126096E+01  0.13007457689E+02  0.51100000000E-03 0. -1.
        -11    1    4    4    0    0  0.64441981739E+01  0.24758882430E+02 -0.17708885516E+02  0.31114861012E+02  0.51100000000E-03 0.  1.
        -12    1    4    4    0    0 -0.72286954124E+01  0.68091764752E+01  0.25173030248E+01  0.10244790684E+02  0.00000000000E+00 0.  1.
</event>
<event>
 8    1  0.2509489E-006  0.9118800E+02  0.7816164E-02  0.1184000E+00
        -11   -1    0    0    0    0  0.00000000000E+00  0.00000000000E+00  0.45593999997E+02  0.45594000000E+02  0.51100000000E-03 0. -1.
         11   -1    0    0    0    0 -0.00000000000E+00 -0.00000000000E+00 -0.45593999997E+02  0.45594000000E+02  0.51100000000E-03 0.  1.
         23    2    1    2    0    0  0.00000000000E+00 -0.35527136788E-14  0.00000000000E+00  0.91188000000E+02  0.91188000000E+02 0.  0.
    9900012    2    3    3    0    0  0.75723697543E+01 -0.24280475389E+02 -0.26625125386E+02  0.54367087862E+02  0.40000008399E+02 0.  0.
         12    1    3    3    0    0 -0.75723697543E+01  0.24280475389E+02  0.26625125386E+02  0.36820912138E+02  0.00000000000E+00 0. -1.
         11    1    4    4    0    0  0.58434431811E+01  0.29172105486E+01 -0.26232983015E+01  0.70382980781E+01  0.51100000000E-03 0. -1.
        -11    1    4    4    0    0  0.29451826730E+01 -0.29686211666E+02 -0.29006241959E+02  0.41608981445E+02  0.51100000000E-03 0.  1.
        -12    1    4    4    0    0 -0.12162560998E+01  0.24885257282E+01  0.50044148739E+01  0.57198083386E+01  0.00000000000E+00 0.  1.
</event>
<event>
 8    1  0.2509489E-006  0.9118800E+02  0.7816164E-02  0.1184000E+00
        -11   -1    0    0    0    0  0.00000000000E+00  0.00000000000E+00  0.45593999997E+02  0.45594000000E+02  0.51100000000E-03 0. -1.
         11   -1    0    0    0    0 -0.00000000000E+00 -0.00000000000E+00 -0.45593999997E+02  0.45594000000E+02  0.51100000000E-03 0.  1.
         23    2    1    2    0    0 -0.71054273576E-14  0.44408920985E-15 -0.88817841970E-15  0.91188000000E+02  0.91188000000E+02 0.  0.
    9900012    2    3    3    0    0  0.36054861883E+02  0.24985424250E+01  0.70409838364E+01  0.54367201081E+02  0.40000266503E+02 0.  0.
         12    1    3    3    0    0 -0.36054861883E+02 -0.24985424250E+01 -0.70409838364E+01  0.36820798919E+02  0.00000000000E+00 0. -1.
         11    1    4    4    0    0  0.43268135353E+01  0.24395509880E+01 -0.86437878120E+00  0.50418127029E+01  0.51100000000E-03 0. -1.
        -11    1    4    4    0    0  0.20416213038E+02 -0.59266283911E+01 -0.12923503196E+02  0.24878979360E+02  0.51100000000E-03 0.  1.
         12    1    4    4    0    0  0.11311835310E+02  0.59856198281E+01  0.20828865813E+02  0.24446409018E+02  0.00000000000E+00 0. -1.
</event>
<event>
 8    1  0.2509489E-006  0.9118800E+02  0.7816164E-02  0.1184000E+00
        -11   -1    0    0    0    0  0.00000000000E+00  0.00000000000E+00  0.45593999997E+02  0.45594000000E+02  0.51100000000E-03 0. -1.
         11   -1    0    0    0    0 -0.00000000000E+00 -0.00000000000E+00 -0.45593999997E+02  0.45594000000E+02  0.51100000000E-03 0.  1.
         23    2    1    2    0    0  0.00000000000E+00 -0.35527136788E-14  0.35527136788E-14  0.91188000000E+02  0.91188000000E+02 0.  0.
    9900012    2    3    3    0    0  0.21377084331E+02  0.18179682848E+02 -0.23839039423E+02  0.54367076552E+02  0.39999982616E+02 0.  0.
         12    1    3    3    0    0 -0.21377084331E+02 -0.18179682848E+02  0.23839039423E+02  0.36820923448E+02  0.00000000000E+00 0. -1.
         11    1    4    4    0    0  0.83204813941E+00 -0.26020396570E+01  0.62332358139E+01  0.68055964805E+01  0.51100000000E-03 0. -1.
        -11    1    4    4    0    0  0.16087191947E+02  0.20013366523E+02 -0.33266567695E+02  0.42023768403E+02  0.51100000000E-03 0.  1.
        -12    1    4    4    0    0  0.44578442445E+01  0.76835598240E+00  0.31942924578E+01  0.55377116691E+01  0.00000000000E+00 0.  1.
</event>
<event>
 8    1  0.2509489E-006  0.9118800E+02  0.7816164E-02  0.1184000E+00
        -11   -1    0    0    0    0  0.00000000000E+00  0.00000000000E+00  0.45593999997E+02  0.45594000000E+02  0.51100000000E-03 0.  1.
         11   -1    0    0    0    0 -0.00000000000E+00 -0.00000000000E+00 -0.45593999997E+02  0.45594000000E+02  0.51100000000E-03 0. -1.
         23    2    1    2    0    0  0.35527136788E-14  0.00000000000E+00  0.00000000000E+00  0.91188000000E+02  0.91188000000E+02 0.  0.
    9900012    2    3    3    0    0 -0.26127740713E+02  0.19040268981E+02 -0.17623544363E+02  0.54367082119E+02  0.39999995307E+02 0.  0.
        -12    1    3    3    0    0  0.26127740713E+02 -0.19040268981E+02  0.17623544363E+02  0.36820917881E+02  0.00000000000E+00 0.  1.
         11    1    4    4    0    0 -0.19638856869E+02  0.73574085945E+01  0.46707162331E+00  0.20976994935E+02  0.51100000000E-03 0. -1.
        -11    1    4    4    0    0  0.90834068705E+01  0.78867507911E+01 -0.81227726878E+01  0.14515114702E+02  0.51100000000E-03 0.  1.
        -12    1    4    4    0    0 -0.15572290715E+02  0.37961095956E+01 -0.99678432990E+01  0.18874972482E+02  0.00000000000E+00 0.  1.
</event>
<event>
 8    1  0.2509489E-006  0.9118800E+02  0.7816164E-02  0.1184000E+00
        -11   -1    0    0    0    0  0.00000000000E+00  0.00000000000E+00  0.45593999997E+02  0.45594000000E+02  0.51100000000E-03 0.  1.
         11   -1    0    0    0    0 -0.00000000000E+00 -0.00000000000E+00 -0.45593999997E+02  0.45594000000E+02  0.51100000000E-03 0. -1.
         23    2    1    2    0    0  0.00000000000E+00  0.17763568394E-14  0.00000000000E+00  0.91188000000E+02  0.91188000000E+02 0.  0.
    9900012    2    3    3    0    0  0.32569697381E+02  0.71508021136E+01 -0.15616085292E+02  0.54367064675E+02  0.39999955539E+02 0.  0.
         12    1    3    3    0    0 -0.32569697381E+02 -0.71508021136E+01  0.15616085292E+02  0.36820935325E+02  0.00000000000E+00 0. -1.
         11    1    4    4    0    0  0.27238806996E+01 -0.61114252808E+01 -0.56021664376E+01  0.87265866227E+01  0.51100000000E-03 0. -1.
        -11    1    4    4    0    0  0.14422091269E+02  0.19877196902E+02  0.25301554760E+01  0.24688081340E+02  0.51100000000E-03 0.  1.
        -12    1    4    4    0    0  0.15423725412E+02 -0.66149695072E+01 -0.12544074330E+02  0.20952396712E+02  0.00000000000E+00 0.  1.
</event>
<event>
 8    1  0.2509489E-006  0.9118800E+02  0.7816164E-02  0.1184000E+00
        -11   -1    0    0    0    0  0.00000000000E+00  0.00000000000E+00  0.45593999997E+02  0.45594000000E+02  0.51100000000E-03 0.  1.
         11   -1    0    0    0    0 -0.00000000000E+00 -0.00000000000E+00 -0.45593999997E+02  0.45594000000E+02  0.51100000000E-03 0. -1.
         23    2    1    2    0    0  0.00000000000E+00 -0.44408920985E-15  0.00000000000E+00  0.91188000000E+02  0.91188000000E+02 0.  0.
    9900012    2    3    3    0    0 -0.12227916704E+02  0.39964224041E+01 -0.34500534463E+02  0.54367079083E+02  0.39999988384E+02 0.  0.
        -12    1    3    3    0    0  0.12227916704E+02 -0.39964224041E+01  0.34500534463E+02  0.36820920917E+02  0.00000000000E+00 0.  1.
         11    1    4    4    0    0 -0.65426014658E+01  0.41300293347E+01 -0.12924216184E+02  0.15063138467E+02  0.51100000000E-03 0. -1.
        -11    1    4    4    0    0  0.30958560242E+01  0.14863016128E+02 -0.12680675739E+02  0.19781130160E+02  0.51100000000E-03 0.  1.
        -12    1    4    4    0    0 -0.87811712629E+01 -0.14996623058E+02 -0.88956425398E+01  0.19522810456E+02  0.00000000000E+00 0.  1.
</event>
<event>
 8    1  0.2509489E-006  0.9118800E+02  0.7816164E-02  0.1184000E+00
        -11   -1    0    0    0    0  0.00000000000E+00  0.00000000000E+00  0.45593999997E+02  0.45594000000E+02  0.51100000000E-03 0. -1.
         11   -1    0    0    0    0 -0.00000000000E+00 -0.00000000000E+00 -0.45593999997E+02  0.45594000000E+02  0.51100000000E-03 0.  1.
         23    2    1    2    0    0  0.00000000000E+00  0.00000000000E+00  0.00000000000E+00  0.91188000000E+02  0.91188000000E+02 0.  0.
    9900012    2    3    3    0    0  0.27122810965E+02 -0.80612806296E+01 -0.23561586350E+02  0.54367089211E+02  0.40000011474E+02 0.  0.
         12    1    3    3    0    0 -0.27122810965E+02  0.80612806296E+01  0.23561586350E+02  0.36820910789E+02  0.00000000000E+00 0. -1.
         11    1    4    4    0    0 -0.80215893418E+00 -0.10859074394E+01 -0.60210663371E+01  0.61705667503E+01  0.51100000000E-03 0. -1.
        -11    1    4    4    0    0  0.31356425244E+02  0.17710780908E+01 -0.21437014925E+02  0.38025093436E+02  0.51100000000E-03 0.  1.
         12    1    4    4    0    0 -0.34314553445E+01 -0.87464512811E+01  0.38964949124E+01  0.10171429024E+02  0.00000000000E+00 0. -1.
</event>
<event>
 8    1  0.2509489E-006  0.9118800E+02  0.7816164E-02  0.1184000E+00
        -11   -1    0    0    0    0  0.00000000000E+00  0.00000000000E+00  0.45593999997E+02  0.45594000000E+02  0.51100000000E-03 0. -1.
         11   -1    0    0    0    0 -0.00000000000E+00 -0.00000000000E+00 -0.45593999997E+02  0.45594000000E+02  0.51100000000E-03 0.  1.
         23    2    1    2    0    0  0.00000000000E+00  0.17763568394E-14  0.71054273576E-14  0.91188000000E+02  0.91188000000E+02 0.  0.
    9900012    2    3    3    0    0 -0.84378794397E+01  0.87196863668E+01 -0.34764190990E+02  0.54367085902E+02  0.40000003931E+02 0.  0.
         12    1    3    3    0    0  0.84378794397E+01 -0.87196863668E+01  0.34764190990E+02  0.36820914098E+02  0.00000000000E+00 0. -1.
         11    1    4    4    0    0  0.22381240826E+01 -0.49982213038E+00  0.52193191030E+01  0.57009046414E+01  0.51100000000E-03 0. -1.
        -11    1    4    4    0    0 -0.10882922896E+01 -0.70088552969E+01 -0.42569868113E+01  0.82722650860E+01  0.51100000000E-03 0.  1.
        -12    1    4    4    0    0 -0.95877112326E+01  0.16228363794E+02 -0.35726523282E+02  0.40393916175E+02  0.00000000000E+00 0.  1.
</event>
<event>
 8    1  0.2509489E-006  0.9118800E+02  0.7816164E-02  0.1184000E+00
        -11   -1    0    0    0    0  0.00000000000E+00  0.00000000000E+00  0.45593999997E+02  0.45594000000E+02  0.51100000000E-03 0. -1.
         11   -1    0    0    0    0 -0.00000000000E+00 -0.00000000000E+00 -0.45593999997E+02  0.45594000000E+02  0.51100000000E-03 0.  1.
         23    2    1    2    0    0  0.35527136788E-14  0.00000000000E+00  0.00000000000E+00  0.91188000000E+02  0.91188000000E+02 0.  0.
    9900012    2    3    3    0    0  0.30210516397E+02 -0.44528028592E+01 -0.20573748716E+02  0.54367056360E+02  0.39999936584E+02 0.  0.
        -12    1    3    3    0    0 -0.30210516397E+02  0.44528028592E+01  0.20573748716E+02  0.36820943640E+02  0.00000000000E+00 0.  1.
         11    1    4    4    0    0  0.62343546540E+01 -0.55686045542E+01 -0.17427543901E+02  0.19328626990E+02  0.51100000000E-03 0. -1.
        -11    1    4    4    0    0 -0.31501747744E+01  0.59935225032E+01 -0.31717514303E+01  0.74770261804E+01  0.51100000000E-03 0.  1.
         12    1    4    4    0    0  0.27126336518E+02 -0.48777208083E+01  0.25546615161E-01  0.27561403190E+02  0.00000000000E+00 0. -1.
</event>
<event>
 8    1  0.2509489E-006  0.9118800E+02  0.7816164E-02  0.1184000E+00
        -11   -1    0    0    0    0  0.00000000000E+00  0.00000000000E+00  0.45593999997E+02  0.45594000000E+02  0.51100000000E-03 0. -1.
         11   -1    0    0    0    0 -0.00000000000E+00 -0.00000000000E+00 -0.45593999997E+02  0.45594000000E+02  0.51100000000E-03 0.  1.
         23    2    1    2    0    0  0.71054273576E-14 -0.35527136788E-14  0.35527136788E-14  0.91188000000E+02  0.91188000000E+02 0.  0.
    9900012    2    3    3    0    0 -0.34145538238E+02  0.10747243210E+02 -0.86241323355E+01  0.54366855575E+02  0.39999478852E+02 0.  0.
         12    1    3    3    0    0  0.34145538238E+02 -0.10747243210E+02  0.86241323355E+01  0.36821144425E+02  0.00000000000E+00 0. -1.
         11    1    4    4    0    0  0.73432584733E+00  0.22681665618E+00  0.40406702570E+01  0.41131127668E+01  0.51100000000E-03 0. -1.
        -11    1    4    4    0    0 -0.25688340482E+02  0.20684558596E+02 -0.22800462081E+01  0.33059649303E+02  0.51100000000E-03 0.  1.
         12    1    4    4    0    0 -0.91915236032E+01 -0.10164132042E+02 -0.10384756384E+02  0.17194093506E+02  0.00000000000E+00 0. -1.
</event>
<event>
 8    1  0.2509489E-006  0.9118800E+02  0.7816164E-02  0.1184000E+00
        -11   -1    0    0    0    0  0.00000000000E+00  0.00000000000E+00  0.45593999997E+02  0.45594000000E+02  0.51100000000E-03 0. -1.
         11   -1    0    0    0    0 -0.00000000000E+00 -0.00000000000E+00 -0.45593999997E+02  0.45594000000E+02  0.51100000000E-03 0.  1.
         23    2    1    2    0    0  0.00000000000E+00  0.00000000000E+00  0.00000000000E+00  0.91188000000E+02  0.91188000000E+02 0.  0.
    9900012    2    3    3    0    0 -0.22143459582E+02  0.10786613617E+02  0.27369617524E+02  0.54367084761E+02  0.40000001331E+02 0.  0.
        -12    1    3    3    0    0  0.22143459582E+02 -0.10786613617E+02 -0.27369617524E+02  0.36820915239E+02  0.00000000000E+00 0.  1.
         11    1    4    4    0    0  0.54101324443E+01  0.89505630643E+01  0.13624615921E+02  0.17175921270E+02  0.51100000000E-03 0. -1.
        -11    1    4    4    0    0  0.28831091617E+01  0.28178339485E+01  0.24137426252E+01  0.46987934964E+01  0.51100000000E-03 0.  1.
        -12    1    4    4    0    0 -0.30436701188E+02 -0.98178339560E+00  0.11331258978E+02  0.32492369995E+02  0.00000000000E+00 0.  1.
</event>
<event>
 8    1  0.2509489E-006  0.9118800E+02  0.7816164E-02  0.1184000E+00
        -11   -1    0    0    0    0  0.00000000000E+00  0.00000000000E+00  0.45593999997E+02  0.45594000000E+02  0.51100000000E-03 0. -1.
         11   -1    0    0    0    0 -0.00000000000E+00 -0.00000000000E+00 -0.45593999997E+02  0.45594000000E+02  0.51100000000E-03 0.  1.
         23    2    1    2    0    0 -0.71054273576E-14  0.17763568394E-14  0.17763568394E-14  0.91188000000E+02  0.91188000000E+02 0.  0.
    9900012    2    3    3    0    0  0.34240507956E+02 -0.10131153872E+02 -0.89848956912E+01  0.54367068256E+02  0.39999963704E+02 0.  0.
         12    1    3    3    0    0 -0.34240507956E+02  0.10131153872E+02  0.89848956912E+01  0.36820931744E+02  0.00000000000E+00 0. -1.
         11    1    4    4    0    0  0.35105564426E+02 -0.25486795262E+01  0.59200255324E+01  0.35692339844E+02  0.51100000000E-03 0. -1.
        -11    1    4    4    0    0  0.68277434748E+00 -0.70974183286E+00 -0.10098542586E+02  0.10146451444E+02  0.51100000000E-03 0.  1.
         12    1    4    4    0    0 -0.15478308174E+01 -0.68727325132E+01 -0.48063786372E+01  0.85282769679E+01  0.00000000000E+00 0. -1.
</event>
<event>
 8    1  0.2509489E-006  0.9118800E+02  0.7816164E-02  0.1184000E+00
        -11   -1    0    0    0    0  0.00000000000E+00  0.00000000000E+00  0.45593999997E+02  0.45594000000E+02  0.51100000000E-03 0. -1.
         11   -1    0    0    0    0 -0.00000000000E+00 -0.00000000000E+00 -0.45593999997E+02  0.45594000000E+02  0.51100000000E-03 0.  1.
         23    2    1    2    0    0  0.00000000000E+00  0.35527136788E-14  0.17763568394E-14  0.91188000000E+02  0.91188000000E+02 0.  0.
    9900012    2    3    3    0    0 -0.19640751731E+02 -0.28320593844E+02 -0.12960107930E+02  0.54367087982E+02  0.40000008673E+02 0.  0.
         12    1    3    3    0    0  0.19640751731E+02  0.28320593844E+02  0.12960107930E+02  0.36820912018E+02  0.00000000000E+00 0. -1.
         11    1    4    4    0    0 -0.64904171708E+01  0.41468724647E+01  0.22373625943E+01  0.80204649447E+01  0.51100000000E-03 0.  1.
        -11    1    4    4    0    0 -0.98143447819E+01 -0.27335437638E+02  0.96912871561E+00  0.29060053769E+02  0.51100000000E-03 0. -1.
        -12    1    4    4    0    0 -0.33359897785E+01 -0.51320286711E+01 -0.16166599240E+02  0.17286569268E+02  0.00000000000E+00 0.  1.
</event>
<event>
 8    1  0.2509489E-006  0.9118800E+02  0.7816164E-02  0.1184000E+00
        -11   -1    0    0    0    0  0.00000000000E+00  0.00000000000E+00  0.45593999997E+02  0.45594000000E+02  0.51100000000E-03 0.  1.
         11   -1    0    0    0    0 -0.00000000000E+00 -0.00000000000E+00 -0.45593999997E+02  0.45594000000E+02  0.51100000000E-03 0. -1.
         23    2    1    2    0    0  0.17763568394E-14  0.00000000000E+00  0.00000000000E+00  0.91188000000E+02  0.91188000000E+02 0.  0.
    9900012    2    3    3    0    0  0.80160335747E+01  0.83049538091E+01 -0.34965004070E+02  0.54367074405E+02  0.39999977722E+02 0.  0.
        -12    1    3    3    0    0 -0.80160335747E+01 -0.83049538091E+01  0.34965004070E+02  0.36820925595E+02  0.00000000000E+00 0.  1.
         11    1    4    4    0    0  0.13124025525E+02  0.27306805084E+01 -0.30842471853E+02  0.33629670416E+02  0.51100000000E-03 0. -1.
        -11    1    4    4    0    0 -0.93728069760E-01  0.12002354413E+02 -0.37560076584E+01  0.12576680413E+02  0.51100000000E-03 0.  1.
        -12    1    4    4    0    0 -0.50142638802E+01 -0.64280811124E+01 -0.36652455818E+00  0.81607235770E+01  0.00000000000E+00 0.  1.
</event>
<event>
 8    1  0.2509489E-006  0.9118800E+02  0.7816164E-02  0.1184000E+00
        -11   -1    0    0    0    0  0.00000000000E+00  0.00000000000E+00  0.45593999997E+02  0.45594000000E+02  0.51100000000E-03 0.  1.
         11   -1    0    0    0    0 -0.00000000000E+00 -0.00000000000E+00 -0.45593999997E+02  0.45594000000E+02  0.51100000000E-03 0. -1.
         23    2    1    2    0    0  0.00000000000E+00  0.00000000000E+00  0.00000000000E+00  0.91188000000E+02  0.91188000000E+02 0.  0.
    9900012    2    3    3    0    0 -0.74952774136E+01 -0.19588529974E+02  0.30263676847E+02  0.54367084390E+02  0.40000000485E+02 0.  0.
         12    1    3    3    0    0  0.74952774136E+01  0.19588529974E+02 -0.30263676847E+02  0.36820915610E+02  0.00000000000E+00 0. -1.
         11    1    4    4    0    0 -0.42978037216E+01 -0.80680403603E+01  0.20639393183E+02  0.22573190809E+02  0.51100000000E-03 0. -1.
        -11    1    4    4    0    0  0.81501032179E+01 -0.15133142914E+02  0.12463602850E+01  0.17233386525E+02  0.51100000000E-03 0.  1.
         12    1    4    4    0    0 -0.11347576910E+02  0.36126533002E+01  0.83779233788E+01  0.14560507056E+02  0.00000000000E+00 0. -1.
</event>
<event>
 8    1  0.2509489E-006  0.9118800E+02  0.7816164E-02  0.1184000E+00
        -11   -1    0    0    0    0  0.00000000000E+00  0.00000000000E+00  0.45593999997E+02  0.45594000000E+02  0.51100000000E-03 0. -1.
         11   -1    0    0    0    0 -0.00000000000E+00 -0.00000000000E+00 -0.45593999997E+02  0.45594000000E+02  0.51100000000E-03 0.  1.
         23    2    1    2    0    0  0.00000000000E+00  0.00000000000E+00 -0.35527136788E-14  0.91188000000E+02  0.91188000000E+02 0.  0.
    9900012    2    3    3    0    0 -0.25222677309E+02  0.40038408475E+01 -0.26524913937E+02  0.54367010721E+02  0.39999832540E+02 0.  0.
         12    1    3    3    0    0  0.25222677309E+02 -0.40038408475E+01  0.26524913937E+02  0.36820989279E+02  0.00000000000E+00 0. -1.
         11    1    4    4    0    0  0.19297399691E+01  0.14583841579E+01 -0.10852454953E+02  0.11118748107E+02  0.51100000000E-03 0. -1.
        -11    1    4    4    0    0  0.54167934405E+01 -0.34250558629E+00  0.23485698697E+01  0.59139447027E+01  0.51100000000E-03 0.  1.
        -12    1    4    4    0    0 -0.32569210718E+02  0.28879622759E+01 -0.18021028853E+02  0.37334317911E+02  0.00000000000E+00 0.  1.
</event>
<event>
 8    1  0.2509489E-006  0.9118800E+02  0.7816164E-02  0.1184000E+00
        -11   -1    0    0    0    0  0.00000000000E+00  0.00000000000E+00  0.45593999997E+02  0.45594000000E+02  0.51100000000E-03 0.  1.
         11   -1    0    0    0    0 -0.00000000000E+00 -0.00000000000E+00 -0.45593999997E+02  0.45594000000E+02  0.51100000000E-03 0. -1.
         23    2    1    2    0    0  0.00000000000E+00 -0.17763568394E-14  0.00000000000E+00  0.91188000000E+02  0.91188000000E+02 0.  0.
    9900012    2    3    3    0    0 -0.32081034206E+02  0.14173744008E+02 -0.11211147602E+02  0.54367114548E+02  0.40000069235E+02 0.  0.
        -12    1    3    3    0    0  0.32081034206E+02 -0.14173744008E+02  0.11211147602E+02  0.36820885452E+02  0.00000000000E+00 0.  1.
         11    1    4    4    0    0 -0.12914303194E+02  0.75603620066E+00 -0.24041321078E+02  0.27300841327E+02  0.51100000000E-03 0. -1.
        -11    1    4    4    0    0 -0.64839727542E+01  0.49610723189E+01  0.69710219101E+01  0.10735422114E+02  0.51100000000E-03 0.  1.
         12    1    4    4    0    0 -0.12682758258E+02  0.84566354885E+01  0.58591515663E+01  0.16330851107E+02  0.00000000000E+00 0. -1.
</event>
<event>
 8    1  0.2509489E-006  0.9118800E+02  0.7816164E-02  0.1184000E+00
        -11   -1    0    0    0    0  0.00000000000E+00  0.00000000000E+00  0.45593999997E+02  0.45594000000E+02  0.51100000000E-03 0.  1.
         11   -1    0    0    0    0 -0.00000000000E+00 -0.00000000000E+00 -0.45593999997E+02  0.45594000000E+02  0.51100000000E-03 0. -1.
         23    2    1    2    0    0  0.00000000000E+00  0.00000000000E+00  0.00000000000E+00  0.91188000000E+02  0.91188000000E+02 0.  0.
    9900012    2    3    3    0    0  0.22313279404E+02  0.11078870035E+02  0.27113763613E+02  0.54367082354E+02  0.39999995843E+02 0.  0.
         12    1    3    3    0    0 -0.22313279404E+02 -0.11078870035E+02 -0.27113763613E+02  0.36820917646E+02  0.00000000000E+00 0. -1.
         11    1    4    4    0    0  0.31798427389E+01 -0.12283127698E+02  0.10432775203E+02  0.16426485460E+02  0.51100000000E-03 0. -1.
        -11    1    4    4    0    0  0.67437144351E+01  0.17880617923E+02  0.43009933598E+01  0.19588076113E+02  0.51100000000E-03 0.  1.
        -12    1    4    4    0    0  0.12389722230E+02  0.54813798106E+01  0.12379995050E+02  0.18352520781E+02  0.00000000000E+00 0.  1.
</event>
<event>
 8    1  0.2509489E-006  0.9118800E+02  0.7816164E-02  0.1184000E+00
        -11   -1    0    0    0    0  0.00000000000E+00  0.00000000000E+00  0.45593999997E+02  0.45594000000E+02  0.51100000000E-03 0.  1.
         11   -1    0    0    0    0 -0.00000000000E+00 -0.00000000000E+00 -0.45593999997E+02  0.45594000000E+02  0.51100000000E-03 0. -1.
         23    2    1    2    0    0  0.00000000000E+00 -0.53290705182E-14  0.00000000000E+00  0.91188000000E+02  0.91188000000E+02 0.  0.
    9900012    2    3    3    0    0 -0.33059713510E+02 -0.14249357897E+02 -0.77325052219E+01  0.54367075312E+02  0.39999979789E+02 0.  0.
         12    1    3    3    0    0  0.33059713510E+02  0.14249357897E+02  0.77325052219E+01  0.36820924688E+02  0.00000000000E+00 0. -1.
         11    1    4    4    0    0 -0.98047642043E+01 -0.62573729991E+01 -0.11680689712E+02  0.16484132685E+02  0.51100000000E-03 0. -1.
        -11    1    4    4    0    0 -0.22768858837E+02  0.59416272334E+01  0.43737565912E+01  0.23934360528E+02  0.51100000000E-03 0.  1.
        -12    1    4    4    0    0 -0.48609046898E+00 -0.13933612131E+02 -0.42557210086E+00  0.13948582099E+02  0.00000000000E+00 0.  1.
</event>
<event>
 8    1  0.2509489E-006  0.9118800E+02  0.7816164E-02  0.1184000E+00
        -11   -1    0    0    0    0  0.00000000000E+00  0.00000000000E+00  0.45593999997E+02  0.45594000000E+02  0.51100000000E-03 0.  1.
         11   -1    0    0    0    0 -0.00000000000E+00 -0.00000000000E+00 -0.45593999997E+02  0.45594000000E+02  0.51100000000E-03 0. -1.
         23    2    1    2    0    0  0.66613381478E-15  0.35527136788E-14  0.00000000000E+00  0.91188000000E+02  0.91188000000E+02 0.  0.
    9900012    2    3    3    0    0 -0.12763793328E+01 -0.21891694402E+02 -0.29578774694E+02  0.54367090989E+02  0.40000015528E+02 0.  0.
        -12    1    3    3    0    0  0.12763793328E+01  0.21891694402E+02  0.29578774694E+02  0.36820909011E+02  0.00000000000E+00 0.  1.
         11    1    4    4    0    0  0.18568177381E+01 -0.92064431613E+01 -0.20859258296E+02  0.22876079749E+02  0.51100000000E-03 0. -1.
        -11    1    4    4    0    0 -0.59757453034E+01  0.66075434491E+01 -0.80047169182E+01  0.11976838296E+02  0.51100000000E-03 0.  1.
        -12    1    4    4    0    0  0.28425482326E+01 -0.19292794689E+02 -0.71479948042E+00  0.19514172944E+02  0.00000000000E+00 0.  1.
</event>
<event>
 8    1  0.2509489E-006  0.9118800E+02  0.7816164E-02  0.1184000E+00
        -11   -1    0    0    0    0  0.00000000000E+00  0.00000000000E+00  0.45593999997E+02  0.45594000000E+02  0.51100000000E-03 0.  1.
         11   -1    0    0    0    0 -0.00000000000E+00 -0.00000000000E+00 -0.45593999997E+02  0.45594000000E+02  0.51100000000E-03 0. -1.
         23    2    1    2    0    0  0.00000000000E+00  0.00000000000E+00  0.00000000000E+00  0.91188000000E+02  0.91188000000E+02 0.  0.
    9900012    2    3    3    0    0 -0.17188573073E+02 -0.31874118488E+02  0.66612715258E+01  0.54367095448E+02  0.40000025694E+02 0.  0.
         12    1    3    3    0    0  0.17188573073E+02  0.31874118488E+02 -0.66612715258E+01  0.36820904552E+02  0.00000000000E+00 0. -1.
         11    1    4    4    0    0 -0.74495158396E+01 -0.25393736442E+02 -0.54474828460E+01  0.27018738060E+02  0.51100000000E-03 0. -1.
        -11    1    4    4    0    0  0.23182604797E+01  0.43181446866E+01  0.98546668334E+01  0.11006142096E+02  0.51100000000E-03 0.  1.
        -12    1    4    4    0    0 -0.12057317713E+02 -0.10798526732E+02  0.22540875384E+01  0.16342215292E+02  0.00000000000E+00 0.  1.
</event>
<event>
 8    1  0.2509489E-006  0.9118800E+02  0.7816164E-02  0.1184000E+00
        -11   -1    0    0    0    0  0.00000000000E+00  0.00000000000E+00  0.45593999997E+02  0.45594000000E+02  0.51100000000E-03 0.  1.
         11   -1    0    0    0    0 -0.00000000000E+00 -0.00000000000E+00 -0.45593999997E+02  0.45594000000E+02  0.51100000000E-03 0. -1.
         23    2    1    2    0    0  0.00000000000E+00 -0.17763568394E-14 -0.35527136788E-14  0.91188000000E+02  0.91188000000E+02 0.  0.
    9900012    2    3    3    0    0 -0.31518261080E+02  0.15492145057E+02  0.11062183157E+02  0.54367092405E+02  0.40000018755E+02 0.  0.
         12    1    3    3    0    0  0.31518261080E+02 -0.15492145057E+02 -0.11062183157E+02  0.36820907595E+02  0.00000000000E+00 0. -1.
         11    1    4    4    0    0 -0.39036573268E+01 -0.72778681535E+01  0.50009454376E+01  0.96548102475E+01  0.51100000000E-03 0. -1.
        -11    1    4    4    0    0 -0.25218094972E+02  0.12462285116E+02 -0.59001248583E+01  0.28741474178E+02  0.51100000000E-03 0.  1.
        -12    1    4    4    0    0 -0.23965087809E+01  0.10307728095E+02  0.11961362578E+02  0.15970807980E+02  0.00000000000E+00 0.  1.
</event>
<event>
 8    1  0.2509489E-006  0.9118800E+02  0.7816164E-02  0.1184000E+00
        -11   -1    0    0    0    0  0.00000000000E+00  0.00000000000E+00  0.45593999997E+02  0.45594000000E+02  0.51100000000E-03 0.  1.
         11   -1    0    0    0    0 -0.00000000000E+00 -0.00000000000E+00 -0.45593999997E+02  0.45594000000E+02  0.51100000000E-03 0. -1.
         23    2    1    2    0    0  0.17763568394E-14 -0.17763568394E-14  0.00000000000E+00  0.91188000000E+02  0.91188000000E+02 0.  0.
    9900012    2    3    3    0    0  0.12280246605E+02  0.11819348305E+02  0.32638590388E+02  0.54367095156E+02  0.40000025026E+02 0.  0.
         12    1    3    3    0    0 -0.12280246605E+02 -0.11819348305E+02 -0.32638590388E+02  0.36820904844E+02  0.00000000000E+00 0. -1.
         11    1    4    4    0    0 -0.18154084813E+01  0.39618246038E+01  0.60958882276E+00  0.44003819083E+01  0.51100000000E-03 0. -1.
        -11    1    4    4    0    0 -0.44942716978E+01 -0.88281943427E+01  0.74666249166E+00  0.99344349906E+01  0.51100000000E-03 0.  1.
         12    1    4    4    0    0  0.18589926785E+02  0.16685718044E+02  0.31282339074E+02  0.40032278257E+02  0.00000000000E+00 0. -1.
</event>
<event>
 8    1  0.2509489E-006  0.9118800E+02  0.7816164E-02  0.1184000E+00
        -11   -1    0    0    0    0  0.00000000000E+00  0.00000000000E+00  0.45593999997E+02  0.45594000000E+02  0.51100000000E-03 0. -1.
         11   -1    0    0    0    0 -0.00000000000E+00 -0.00000000000E+00 -0.45593999997E+02  0.45594000000E+02  0.51100000000E-03 0.  1.
         23    2    1    2    0    0 -0.12212453271E-14  0.00000000000E+00  0.00000000000E+00  0.91188000000E+02  0.91188000000E+02 0.  0.
    9900012    2    3    3    0    0 -0.91777718746E+00 -0.82463777147E+01  0.35873750358E+02  0.54367203904E+02  0.40000272940E+02 0.  0.
        -12    1    3    3    0    0  0.91777718746E+00  0.82463777147E+01 -0.35873750358E+02  0.36820796096E+02  0.00000000000E+00 0.  1.
         11    1    4    4    0    0  0.89140730815E+01 -0.16923646090E+01  0.12313507984E+02  0.15295335106E+02  0.51100000000E-03 0. -1.
        -11    1    4    4    0    0  0.70675807449E+01 -0.29532155580E+01  0.20018388641E+02  0.21433806563E+02  0.51100000000E-03 0.  1.
        -12    1    4    4    0    0 -0.16899431014E+02 -0.36007975478E+01  0.35418537330E+01  0.17638062236E+02  0.00000000000E+00 0.  1.
</event>
<event>
 8    1  0.2509489E-006  0.9118800E+02  0.7816164E-02  0.1184000E+00
        -11   -1    0    0    0    0  0.00000000000E+00  0.00000000000E+00  0.45593999997E+02  0.45594000000E+02  0.51100000000E-03 0.  1.
         11   -1    0    0    0    0 -0.00000000000E+00 -0.00000000000E+00 -0.45593999997E+02  0.45594000000E+02  0.51100000000E-03 0. -1.
         23    2    1    2    0    0  0.00000000000E+00  0.00000000000E+00  0.71054273576E-14  0.91188000000E+02  0.91188000000E+02 0.  0.
    9900012    2    3    3    0    0  0.92218963702E+01 -0.63821454708E+01  0.35071426326E+02  0.54367080702E+02  0.39999992075E+02 0.  0.
         12    1    3    3    0    0 -0.92218963702E+01  0.63821454708E+01 -0.35071426326E+02  0.36820919298E+02  0.00000000000E+00 0. -1.
         11    1    4    4    0    0 -0.71747984860E+01  0.76768593644E+01  0.23902132657E+00  0.10510425038E+02  0.51100000000E-03 0. -1.
        -11    1    4    4    0    0  0.12799121070E+02 -0.62983017917E+01  0.31674327668E+02  0.34738294994E+02  0.51100000000E-03 0.  1.
        -12    1    4    4    0    0  0.35975737859E+01 -0.77607030435E+01  0.31580773312E+01  0.91183606698E+01  0.00000000000E+00 0.  1.
</event>
<event>
 8    1  0.2509489E-006  0.9118800E+02  0.7816164E-02  0.1184000E+00
        -11   -1    0    0    0    0  0.00000000000E+00  0.00000000000E+00  0.45593999997E+02  0.45594000000E+02  0.51100000000E-03 0. -1.
         11   -1    0    0    0    0 -0.00000000000E+00 -0.00000000000E+00 -0.45593999997E+02  0.45594000000E+02  0.51100000000E-03 0.  1.
         23    2    1    2    0    0  0.00000000000E+00  0.00000000000E+00  0.00000000000E+00  0.91188000000E+02  0.91188000000E+02 0.  0.
    9900012    2    3    3    0    0 -0.35586794166E+02 -0.88030642609E+01  0.34435748821E+01  0.54367189751E+02  0.40000240675E+02 0.  0.
        -12    1    3    3    0    0  0.35586794166E+02  0.88030642609E+01 -0.34435748821E+01  0.36820810249E+02  0.00000000000E+00 0.  1.
         11    1    4    4    0    0 -0.37013005717E+02 -0.80503655103E+01  0.66281439231E+01  0.38453910974E+02  0.51100000000E-03 0. -1.
        -11    1    4    4    0    0  0.73489599261E+01 -0.57363376582E-01  0.24121418136E+01  0.77349163500E+01  0.51100000000E-03 0.  1.
        -12    1    4    4    0    0 -0.59227483755E+01 -0.69533537410E+00 -0.55967108546E+01  0.81783624273E+01  0.00000000000E+00 0.  1.
</event>
<event>
 8    1  0.2509489E-006  0.9118800E+02  0.7816164E-02  0.1184000E+00
        -11   -1    0    0    0    0  0.00000000000E+00  0.00000000000E+00  0.45593999997E+02  0.45594000000E+02  0.51100000000E-03 0.  1.
         11   -1    0    0    0    0 -0.00000000000E+00 -0.00000000000E+00 -0.45593999997E+02  0.45594000000E+02  0.51100000000E-03 0. -1.
         23    2    1    2    0    0  0.00000000000E+00 -0.35527136788E-14  0.35527136788E-14  0.91188000000E+02  0.91188000000E+02 0.  0.
    9900012    2    3    3    0    0  0.20682227800E+02  0.17677777257E+02 -0.24809683705E+02  0.54367098856E+02  0.40000033462E+02 0.  0.
        -12    1    3    3    0    0 -0.20682227800E+02 -0.17677777257E+02  0.24809683705E+02  0.36820901144E+02  0.00000000000E+00 0.  1.
         11    1    4    4    0    0  0.53189115103E+01 -0.42093708602E+00 -0.12596585635E+01  0.54822210502E+01  0.51100000000E-03 0. -1.
        -11    1    4    4    0    0  0.54158367984E+01 -0.22496894862E+01 -0.25486509731E+02  0.26152525108E+02  0.51100000000E-03 0.  1.
        -12    1    4    4    0    0  0.99474794910E+01  0.20348403829E+02  0.19364845888E+01  0.22732352698E+02  0.00000000000E+00 0.  1.
</event>
<event>
 8    1  0.2509489E-006  0.9118800E+02  0.7816164E-02  0.1184000E+00
        -11   -1    0    0    0    0  0.00000000000E+00  0.00000000000E+00  0.45593999997E+02  0.45594000000E+02  0.51100000000E-03 0.  1.
         11   -1    0    0    0    0 -0.00000000000E+00 -0.00000000000E+00 -0.45593999997E+02  0.45594000000E+02  0.51100000000E-03 0. -1.
         23    2    1    2    0    0  0.35527136788E-14  0.17763568394E-14 -0.71054273576E-14  0.91188000000E+02  0.91188000000E+02 0.  0.
    9900012    2    3    3    0    0 -0.12667062003E+02 -0.10565701625E+02  0.32919491057E+02  0.54367062993E+02  0.39999951706E+02 0.  0.
         12    1    3    3    0    0  0.12667062003E+02  0.10565701625E+02 -0.32919491057E+02  0.36820937007E+02  0.00000000000E+00 0. -1.
         11    1    4    4    0    0  0.72208205360E+01 -0.14525387952E+02  0.73010711262E+01  0.17788557677E+02  0.51100000000E-03 0.  1.
        -11    1    4    4    0    0 -0.11313717094E+02 -0.42383565297E+01  0.20199124554E+02  0.23536535292E+02  0.51100000000E-03 0. -1.
        -12    1    4    4    0    0 -0.85741654454E+01  0.81980428560E+01  0.54192953770E+01  0.13041970025E+02  0.00000000000E+00 0.  1.
</event>
<event>
 8    1  0.2509489E-006  0.9118800E+02  0.7816164E-02  0.1184000E+00
        -11   -1    0    0    0    0  0.00000000000E+00  0.00000000000E+00  0.45593999997E+02  0.45594000000E+02  0.51100000000E-03 0. -1.
         11   -1    0    0    0    0 -0.00000000000E+00 -0.00000000000E+00 -0.45593999997E+02  0.45594000000E+02  0.51100000000E-03 0.  1.
         23    2    1    2    0    0  0.00000000000E+00  0.35527136788E-14  0.00000000000E+00  0.91188000000E+02  0.91188000000E+02 0.  0.
    9900012    2    3    3    0    0  0.13223147685E+02  0.17224961321E+02 -0.29735986087E+02  0.54367084805E+02  0.40000001430E+02 0.  0.
         12    1    3    3    0    0 -0.13223147685E+02 -0.17224961321E+02  0.29735986087E+02  0.36820915195E+02  0.00000000000E+00 0. -1.
         11    1    4    4    0    0  0.41560984713E+01  0.91734930703E+01 -0.13262795579E+00  0.10071927325E+02  0.51100000000E-03 0. -1.
        -11    1    4    4    0    0  0.15375396527E+02  0.13256623464E+02 -0.91514316072E+01  0.22268578418E+02  0.51100000000E-03 0.  1.
        -12    1    4    4    0    0 -0.63083473137E+01 -0.52051552129E+01 -0.20451926524E+02  0.22026579062E+02  0.00000000000E+00 0.  1.
</event>
<event>
 8    1  0.2509489E-006  0.9118800E+02  0.7816164E-02  0.1184000E+00
        -11   -1    0    0    0    0  0.00000000000E+00  0.00000000000E+00  0.45593999997E+02  0.45594000000E+02  0.51100000000E-03 0.  1.
         11   -1    0    0    0    0 -0.00000000000E+00 -0.00000000000E+00 -0.45593999997E+02  0.45594000000E+02  0.51100000000E-03 0. -1.
         23    2    1    2    0    0  0.00000000000E+00  0.35527136788E-14  0.00000000000E+00  0.91188000000E+02  0.91188000000E+02 0.  0.
    9900012    2    3    3    0    0 -0.24692348016E+02 -0.24392370628E+02  0.12291394039E+02  0.54367106980E+02  0.40000051982E+02 0.  0.
         12    1    3    3    0    0  0.24692348016E+02  0.24392370628E+02 -0.12291394039E+02  0.36820893020E+02  0.00000000000E+00 0. -1.
         11    1    4    4    0    0  0.21408841685E+01 -0.11543928276E+02  0.59467997102E+01  0.13160930519E+02  0.51100000000E-03 0. -1.
        -11    1    4    4    0    0 -0.29713440987E+02 -0.12694546879E+02 -0.20036863053E+01  0.32373675337E+02  0.51100000000E-03 0.  1.
         12    1    4    4    0    0  0.28802088024E+01 -0.15389547250E+00  0.83482806339E+01  0.88325011239E+01  0.00000000000E+00 0. -1.
</event>
<event>
 8    1  0.2509489E-006  0.9118800E+02  0.7816164E-02  0.1184000E+00
        -11   -1    0    0    0    0  0.00000000000E+00  0.00000000000E+00  0.45593999997E+02  0.45594000000E+02  0.51100000000E-03 0. -1.
         11   -1    0    0    0    0 -0.00000000000E+00 -0.00000000000E+00 -0.45593999997E+02  0.45594000000E+02  0.51100000000E-03 0.  1.
         23    2    1    2    0    0  0.35527136788E-14  0.00000000000E+00  0.35527136788E-14  0.91188000000E+02  0.91188000000E+02 0.  0.
    9900012    2    3    3    0    0  0.17503042973E+02 -0.17303883570E+02  0.27386089769E+02  0.54367098154E+02  0.40000031862E+02 0.  0.
        -12    1    3    3    0    0 -0.17503042973E+02  0.17303883570E+02 -0.27386089769E+02  0.36820901846E+02  0.00000000000E+00 0.  1.
         11    1    4    4    0    0 -0.44379330334E+01 -0.12039270049E+02  0.96714629049E+01  0.16067870671E+02  0.51100000000E-03 0. -1.
        -11    1    4    4    0    0  0.11956985833E+02  0.61308268826E+01 -0.18396678063E+01  0.13562482308E+02  0.51100000000E-03 0.  1.
         12    1    4    4    0    0  0.99839901739E+01 -0.11395440403E+02  0.19554294670E+02  0.24736745175E+02  0.00000000000E+00 0. -1.
</event>
<event>
 8    1  0.2509489E-006  0.9118800E+02  0.7816164E-02  0.1184000E+00
        -11   -1    0    0    0    0  0.00000000000E+00  0.00000000000E+00  0.45593999997E+02  0.45594000000E+02  0.51100000000E-03 0.  1.
         11   -1    0    0    0    0 -0.00000000000E+00 -0.00000000000E+00 -0.45593999997E+02  0.45594000000E+02  0.51100000000E-03 0. -1.
         23    2    1    2    0    0  0.35527136788E-14  0.35527136788E-14  0.00000000000E+00  0.91188000000E+02  0.91188000000E+02 0.  0.
    9900012    2    3    3    0    0  0.27724043649E+02 -0.16774431414E+02  0.17486346308E+02  0.54367130202E+02  0.40000104920E+02 0.  0.
        -12    1    3    3    0    0 -0.27724043649E+02  0.16774431414E+02 -0.17486346308E+02  0.36820869798E+02  0.00000000000E+00 0.  1.
         11    1    4    4    0    0  0.94407104947E+01  0.81940947562E+01  0.53490119133E+01  0.13597136913E+02  0.51100000000E-03 0. -1.
        -11    1    4    4    0    0  0.12358720290E+02 -0.19954026253E+02  0.19163131231E+02  0.30300606095E+02  0.51100000000E-03 0.  1.
         12    1    4    4    0    0  0.59246128647E+01 -0.50144999172E+01 -0.70257968366E+01  0.10469387193E+02  0.00000000000E+00 0. -1.
</event>
<event>
 8    1  0.2509489E-006  0.9118800E+02  0.7816164E-02  0.1184000E+00
        -11   -1    0    0    0    0  0.00000000000E+00  0.00000000000E+00  0.45593999997E+02  0.45594000000E+02  0.51100000000E-03 0.  1.
         11   -1    0    0    0    0 -0.00000000000E+00 -0.00000000000E+00 -0.45593999997E+02  0.45594000000E+02  0.51100000000E-03 0. -1.
         23    2    1    2    0    0  0.44408920985E-15  0.00000000000E+00  0.00000000000E+00  0.91188000000E+02  0.91188000000E+02 0.  0.
    9900012    2    3    3    0    0 -0.38802110927E+01  0.29543249304E+02 -0.21631522348E+02  0.54367049759E+02  0.39999921536E+02 0.  0.
        -12    1    3    3    0    0  0.38802110927E+01 -0.29543249304E+02  0.21631522348E+02  0.36820950241E+02  0.00000000000E+00 0.  1.
         11    1    4    4    0    0  0.63403006152E+00  0.11671970744E+01 -0.22172519632E+01  0.25846759291E+01  0.51100000000E-03 0. -1.
        -11    1    4    4    0    0 -0.39339231218E+01  0.32393050561E+02 -0.27540008777E+02  0.42699385938E+02  0.51100000000E-03 0.  1.
        -12    1    4    4    0    0 -0.58031803245E+00 -0.40169983318E+01  0.81257383927E+01  0.90829878918E+01  0.00000000000E+00 0.  1.
</event>
<event>
 8    1  0.2509489E-006  0.9118800E+02  0.7816164E-02  0.1184000E+00
        -11   -1    0    0    0    0  0.00000000000E+00  0.00000000000E+00  0.45593999997E+02  0.45594000000E+02  0.51100000000E-03 0.  1.
         11   -1    0    0    0    0 -0.00000000000E+00 -0.00000000000E+00 -0.45593999997E+02  0.45594000000E+02  0.51100000000E-03 0. -1.
         23    2    1    2    0    0  0.00000000000E+00  0.00000000000E+00  0.00000000000E+00  0.91188000000E+02  0.91188000000E+02 0.  0.
    9900012    2    3    3    0    0  0.14551295301E+02  0.12174629112E+02  0.31556573347E+02  0.54367094113E+02  0.40000022649E+02 0.  0.
         12    1    3    3    0    0 -0.14551295301E+02 -0.12174629112E+02 -0.31556573347E+02  0.36820905887E+02  0.00000000000E+00 0. -1.
         11    1    4    4    0    0  0.79622875958E+01 -0.45289180235E+01  0.42002565996E+01  0.10077265402E+02  0.51100000000E-03 0. -1.
        -11    1    4    4    0    0  0.11903747773E+02  0.92143550759E+00  0.24689330871E+02  0.27424647920E+02  0.51100000000E-03 0.  1.
        -12    1    4    4    0    0 -0.53147400673E+01  0.15782111628E+02  0.26669858764E+01  0.16865180790E+02  0.00000000000E+00 0.  1.
</event>
<event>
 8    1  0.2509489E-006  0.9118800E+02  0.7816164E-02  0.1184000E+00
        -11   -1    0    0    0    0  0.00000000000E+00  0.00000000000E+00  0.45593999997E+02  0.45594000000E+02  0.51100000000E-03 0.  1.
         11   -1    0    0    0    0 -0.00000000000E+00 -0.00000000000E+00 -0.45593999997E+02  0.45594000000E+02  0.51100000000E-03 0. -1.
         23    2    1    2    0    0  0.00000000000E+00  0.00000000000E+00  0.35527136788E-14  0.91188000000E+02  0.91188000000E+02 0.  0.
    9900012    2    3    3    0    0  0.81587673952E+01  0.24614117873E+02  0.26141161170E+02  0.54367074002E+02  0.39999976802E+02 0.  0.
         12    1    3    3    0    0 -0.81587673952E+01 -0.24614117873E+02 -0.26141161170E+02  0.36820925998E+02  0.00000000000E+00 0. -1.
         11    1    4    4    0    0 -0.10043014561E+02  0.36124855399E+01  0.14710654467E+02  0.18174585232E+02  0.51100000000E-03 0. -1.
        -11    1    4    4    0    0  0.43779224465E+01  0.74213072047E+01  0.14207465409E+02  0.16616078935E+02  0.51100000000E-03 0.  1.
        -12    1    4    4    0    0  0.13823859510E+02  0.13580325128E+02 -0.27769587065E+01  0.19576409834E+02  0.00000000000E+00 0.  1.
</event>
<event>
 8    1  0.2509489E-006  0.9118800E+02  0.7816164E-02  0.1184000E+00
        -11   -1    0    0    0    0  0.00000000000E+00  0.00000000000E+00  0.45593999997E+02  0.45594000000E+02  0.51100000000E-03 0.  1.
         11   -1    0    0    0    0 -0.00000000000E+00 -0.00000000000E+00 -0.45593999997E+02  0.45594000000E+02  0.51100000000E-03 0. -1.
         23    2    1    2    0    0  0.00000000000E+00  0.00000000000E+00  0.71054273576E-14  0.91188000000E+02  0.91188000000E+02 0.  0.
    9900012    2    3    3    0    0 -0.71633454660E+01  0.10696759762E+02  0.34497036508E+02  0.54367085895E+02  0.40000003916E+02 0.  0.
         12    1    3    3    0    0  0.71633454660E+01 -0.10696759762E+02 -0.34497036508E+02  0.36820914105E+02  0.00000000000E+00 0. -1.
         11    1    4    4    0    0  0.54695271223E+01 -0.68151310872E+01  0.92183289101E+00  0.87870082974E+01  0.51100000000E-03 0. -1.
        -11    1    4    4    0    0 -0.71995568461E+01  0.13961173136E+02  0.35491630802E+02  0.38812418520E+02  0.51100000000E-03 0.  1.
        -12    1    4    4    0    0 -0.54333157422E+01  0.35507177137E+01 -0.19164271854E+01  0.67676590778E+01  0.00000000000E+00 0.  1.
</event>
<event>
 8    1  0.2509489E-006  0.9118800E+02  0.7816164E-02  0.1184000E+00
        -11   -1    0    0    0    0  0.00000000000E+00  0.00000000000E+00  0.45593999997E+02  0.45594000000E+02  0.51100000000E-03 0.  1.
         11   -1    0    0    0    0 -0.00000000000E+00 -0.00000000000E+00 -0.45593999997E+02  0.45594000000E+02  0.51100000000E-03 0. -1.
         23    2    1    2    0    0  0.35527136788E-14  0.00000000000E+00  0.35527136788E-14  0.91188000000E+02  0.91188000000E+02 0.  0.
    9900012    2    3    3    0    0 -0.24634106806E+02  0.40548913335E+01 -0.27064833251E+02  0.54366992942E+02  0.39999792010E+02 0.  0.
        -12    1    3    3    0    0  0.24634106806E+02 -0.40548913335E+01  0.27064833251E+02  0.36821007058E+02  0.00000000000E+00 0.  1.
         11    1    4    4    0    0 -0.10700099699E+02  0.19297466457E+00  0.52770143502E+01  0.11932152090E+02  0.51100000000E-03 0.  1.
        -11    1    4    4    0    0  0.26734466175E+01  0.62155235845E+01 -0.93613817377E+00  0.68305494060E+01  0.51100000000E-03 0. -1.
         12    1    4    4    0    0 -0.16607453724E+02 -0.23536069156E+01 -0.31405709428E+02  0.35604291446E+02  0.00000000000E+00 0. -1.
</event>
<event>
 8    1  0.2509489E-006  0.9118800E+02  0.7816164E-02  0.1184000E+00
        -11   -1    0    0    0    0  0.00000000000E+00  0.00000000000E+00  0.45593999997E+02  0.45594000000E+02  0.51100000000E-03 0. -1.
         11   -1    0    0    0    0 -0.00000000000E+00 -0.00000000000E+00 -0.45593999997E+02  0.45594000000E+02  0.51100000000E-03 0.  1.
         23    2    1    2    0    0  0.88817841970E-15  0.35527136788E-14 -0.35527136788E-14  0.91188000000E+02  0.91188000000E+02 0.  0.
    9900012    2    3    3    0    0 -0.34876755379E+01  0.28565734496E+02  0.22969864718E+02  0.54367085384E+02  0.40000002750E+02 0.  0.
         12    1    3    3    0    0  0.34876755379E+01 -0.28565734496E+02 -0.22969864718E+02  0.36820914616E+02  0.00000000000E+00 0. -1.
         11    1    4    4    0    0  0.11520112545E+02  0.73192811935E+01  0.15318902580E+02  0.20517154938E+02  0.51100000000E-03 0. -1.
        -11    1    4    4    0    0 -0.20589253183E+01 -0.28140846696E+00 -0.52229925537E+01  0.56212112279E+01  0.51100000000E-03 0.  1.
        -12    1    4    4    0    0 -0.12948862765E+02  0.21527861770E+02  0.12873954692E+02  0.28228719218E+02  0.00000000000E+00 0.  1.
</event>
<event>
 8    1  0.2509489E-006  0.9118800E+02  0.7816164E-02  0.1184000E+00
        -11   -1    0    0    0    0  0.00000000000E+00  0.00000000000E+00  0.45593999997E+02  0.45594000000E+02  0.51100000000E-03 0.  1.
         11   -1    0    0    0    0 -0.00000000000E+00 -0.00000000000E+00 -0.45593999997E+02  0.45594000000E+02  0.51100000000E-03 0. -1.
         23    2    1    2    0    0 -0.17763568394E-14 -0.22204460493E-15  0.71054273576E-14  0.91188000000E+02  0.91188000000E+02 0.  0.
    9900012    2    3    3    0    0  0.11777388799E+02 -0.10957027031E+01 -0.34869356566E+02  0.54367089112E+02  0.40000011248E+02 0.  0.
        -12    1    3    3    0    0 -0.11777388799E+02  0.10957027031E+01  0.34869356566E+02  0.36820910888E+02  0.00000000000E+00 0.  1.
         11    1    4    4    0    0 -0.41136957790E+01 -0.41843143728E+01 -0.32830646226E+02  0.33350896714E+02  0.51100000000E-03 0. -1.
        -11    1    4    4    0    0  0.31719555093E+01  0.24165148785E+01  0.50539578826E+01  0.64376499168E+01  0.51100000000E-03 0.  1.
        -12    1    4    4    0    0  0.12719129069E+02  0.67209679128E+00 -0.70926682220E+01  0.14578542481E+02  0.00000000000E+00 0.  1.
</event>
<event>
 8    1  0.2509489E-006  0.9118800E+02  0.7816164E-02  0.1184000E+00
        -11   -1    0    0    0    0  0.00000000000E+00  0.00000000000E+00  0.45593999997E+02  0.45594000000E+02  0.51100000000E-03 0.  1.
         11   -1    0    0    0    0 -0.00000000000E+00 -0.00000000000E+00 -0.45593999997E+02  0.45594000000E+02  0.51100000000E-03 0. -1.
         23    2    1    2    0    0  0.13322676296E-14  0.00000000000E+00  0.00000000000E+00  0.91188000000E+02  0.91188000000E+02 0.  0.
    9900012    2    3    3    0    0  0.35488784160E+01 -0.19672027801E+02  0.30922607281E+02  0.54366934605E+02  0.39999659016E+02 0.  0.
         12    1    3    3    0    0 -0.35488784160E+01  0.19672027801E+02 -0.30922607281E+02  0.36821065395E+02  0.00000000000E+00 0. -1.
         11    1    4    4    0    0  0.16649866375E+02 -0.61277303362E+01  0.20042375417E+02  0.26766844080E+02  0.51100000000E-03 0. -1.
        -11    1    4    4    0    0 -0.14708154780E+02 -0.15729054503E+02  0.12015575638E+02  0.24659826252E+02  0.51100000000E-03 0.  1.
         12    1    4    4    0    0  0.16071668211E+01  0.21847570382E+01 -0.11353437745E+01  0.29402642726E+01  0.00000000000E+00 0. -1.
</event>
<event>
 8    1  0.2509489E-006  0.9118800E+02  0.7816164E-02  0.1184000E+00
        -11   -1    0    0    0    0  0.00000000000E+00  0.00000000000E+00  0.45593999997E+02  0.45594000000E+02  0.51100000000E-03 0. -1.
         11   -1    0    0    0    0 -0.00000000000E+00 -0.00000000000E+00 -0.45593999997E+02  0.45594000000E+02  0.51100000000E-03 0.  1.
         23    2    1    2    0    0 -0.17763568394E-14  0.00000000000E+00  0.71054273576E-14  0.91188000000E+02  0.91188000000E+02 0.  0.
    9900012    2    3    3    0    0 -0.10154030297E+02 -0.11132310168E+02  0.33596928304E+02  0.54366997130E+02  0.39999801556E+02 0.  0.
        -12    1    3    3    0    0  0.10154030297E+02  0.11132310168E+02 -0.33596928304E+02  0.36821002870E+02  0.00000000000E+00 0.  1.
         11    1    4    4    0    0  0.21597344032E+01 -0.23541446513E+02  0.17191527100E+02  0.29230339733E+02  0.51100000000E-03 0. -1.
        -11    1    4    4    0    0 -0.11210763444E+02  0.64212847677E+01  0.10408688807E+02  0.16590808238E+02  0.51100000000E-03 0.  1.
         12    1    4    4    0    0 -0.11030012564E+01  0.59878515768E+01  0.59967123964E+01  0.85458491586E+01  0.00000000000E+00 0. -1.
</event>
<event>
 8    1  0.2509489E-006  0.9118800E+02  0.7816164E-02  0.1184000E+00
        -11   -1    0    0    0    0  0.00000000000E+00  0.00000000000E+00  0.45593999997E+02  0.45594000000E+02  0.51100000000E-03 0.  1.
         11   -1    0    0    0    0 -0.00000000000E+00 -0.00000000000E+00 -0.45593999997E+02  0.45594000000E+02  0.51100000000E-03 0. -1.
         23    2    1    2    0    0  0.00000000000E+00  0.00000000000E+00 -0.71054273576E-14  0.91188000000E+02  0.91188000000E+02 0.  0.
    9900012    2    3    3    0    0 -0.13800840340E+02 -0.49991458656E+01  0.33768688700E+02  0.54367095748E+02  0.40000026376E+02 0.  0.
         12    1    3    3    0    0  0.13800840340E+02  0.49991458656E+01 -0.33768688700E+02  0.36820904252E+02  0.00000000000E+00 0. -1.
         11    1    4    4    0    0 -0.31795885034E+01  0.49881342761E+01  0.18693703306E+01  0.62036934403E+01  0.51100000000E-03 0. -1.
        -11    1    4    4    0    0 -0.57198964959E+01  0.30009209542E+01  0.33565650292E+02  0.34181509948E+02  0.51100000000E-03 0.  1.
         12    1    4    4    0    0 -0.49013553407E+01 -0.12988201096E+02 -0.16663319232E+01  0.13981892360E+02  0.00000000000E+00 0. -1.
</event>
<event>
 8    1  0.2509489E-006  0.9118800E+02  0.7816164E-02  0.1184000E+00
        -11   -1    0    0    0    0  0.00000000000E+00  0.00000000000E+00  0.45593999997E+02  0.45594000000E+02  0.51100000000E-03 0. -1.
         11   -1    0    0    0    0 -0.00000000000E+00 -0.00000000000E+00 -0.45593999997E+02  0.45594000000E+02  0.51100000000E-03 0.  1.
         23    2    1    2    0    0  0.00000000000E+00  0.00000000000E+00 -0.17763568394E-14  0.91188000000E+02  0.91188000000E+02 0.  0.
    9900012    2    3    3    0    0 -0.88494420755E+01 -0.33194439928E+02 -0.13251285568E+02  0.54367081538E+02  0.39999993982E+02 0.  0.
         12    1    3    3    0    0  0.88494420755E+01  0.33194439928E+02  0.13251285568E+02  0.36820918462E+02  0.00000000000E+00 0. -1.
         11    1    4    4    0    0 -0.13886813083E+02  0.16202551284E+01 -0.92909996171E+01  0.16786645836E+02  0.51100000000E-03 0. -1.
        -11    1    4    4    0    0 -0.27514105618E+00 -0.30174938978E+02 -0.44845469144E+01  0.30507602433E+02  0.51100000000E-03 0.  1.
         12    1    4    4    0    0  0.53125120634E+01 -0.46397560782E+01  0.52426096381E+00  0.70728332687E+01  0.00000000000E+00 0. -1.
</event>
<event>
 8    1  0.2509489E-006  0.9118800E+02  0.7816164E-02  0.1184000E+00
        -11   -1    0    0    0    0  0.00000000000E+00  0.00000000000E+00  0.45593999997E+02  0.45594000000E+02  0.51100000000E-03 0. -1.
         11   -1    0    0    0    0 -0.00000000000E+00 -0.00000000000E+00 -0.45593999997E+02  0.45594000000E+02  0.51100000000E-03 0.  1.
         23    2    1    2    0    0 -0.35527136788E-14  0.35527136788E-14  0.00000000000E+00  0.91188000000E+02  0.91188000000E+02 0.  0.
    9900012    2    3    3    0    0 -0.27799182639E+02 -0.22868206076E+02  0.77479547305E+01  0.54367079220E+02  0.39999988699E+02 0.  0.
        -12    1    3    3    0    0  0.27799182639E+02  0.22868206076E+02 -0.77479547305E+01  0.36820920780E+02  0.00000000000E+00 0.  1.
         11    1    4    4    0    0 -0.87523770641E+01 -0.10096138386E+02  0.14457234491E+01  0.13439725858E+02  0.51100000000E-03 0. -1.
        -11    1    4    4    0    0  0.66078626224E+01 -0.85452156150E+01 -0.57860639282E+01  0.12254105205E+02  0.51100000000E-03 0.  1.
         12    1    4    4    0    0 -0.25654668198E+02 -0.42268520749E+01  0.12088295210E+02  0.28673248157E+02  0.00000000000E+00 0. -1.
</event>
<event>
 8    1  0.2509489E-006  0.9118800E+02  0.7816164E-02  0.1184000E+00
        -11   -1    0    0    0    0  0.00000000000E+00  0.00000000000E+00  0.45593999997E+02  0.45594000000E+02  0.51100000000E-03 0.  1.
         11   -1    0    0    0    0 -0.00000000000E+00 -0.00000000000E+00 -0.45593999997E+02  0.45594000000E+02  0.51100000000E-03 0. -1.
         23    2    1    2    0    0  0.00000000000E+00  0.17763568394E-14  0.00000000000E+00  0.91188000000E+02  0.91188000000E+02 0.  0.
    9900012    2    3    3    0    0  0.34213912780E+02  0.92356017251E+01  0.99944580178E+01  0.54367117908E+02  0.40000076896E+02 0.  0.
         12    1    3    3    0    0 -0.34213912780E+02 -0.92356017251E+01 -0.99944580178E+01  0.36820882092E+02  0.00000000000E+00 0. -1.
         11    1    4    4    0    0 -0.27285399783E+01 -0.14282660751E+01  0.17886275949E+01  0.35614692655E+01  0.51100000000E-03 0. -1.
        -11    1    4    4    0    0  0.15783370117E+02  0.18336897630E+02  0.13469646286E+02  0.27690936392E+02  0.51100000000E-03 0.  1.
        -12    1    4    4    0    0  0.21159082641E+02 -0.76730298299E+01 -0.52638158632E+01  0.23114712251E+02  0.00000000000E+00 0.  1.
</event>
<event>
 8    1  0.2509489E-006  0.9118800E+02  0.7816164E-02  0.1184000E+00
        -11   -1    0    0    0    0  0.00000000000E+00  0.00000000000E+00  0.45593999997E+02  0.45594000000E+02  0.51100000000E-03 0.  1.
         11   -1    0    0    0    0 -0.00000000000E+00 -0.00000000000E+00 -0.45593999997E+02  0.45594000000E+02  0.51100000000E-03 0. -1.
         23    2    1    2    0    0 -0.83266726847E-15  0.00000000000E+00  0.00000000000E+00  0.91188000000E+02  0.91188000000E+02 0.  0.
    9900012    2    3    3    0    0 -0.13764314837E+00 -0.17319513658E+02  0.32492993360E+02  0.54367094029E+02  0.40000022458E+02 0.  0.
         12    1    3    3    0    0  0.13764314837E+00  0.17319513658E+02 -0.32492993360E+02  0.36820905971E+02  0.00000000000E+00 0. -1.
         11    1    4    4    0    0 -0.46361622124E+01  0.72665015759E+01  0.51023955173E+01  0.10016510644E+02  0.51100000000E-03 0. -1.
        -11    1    4    4    0    0  0.13157489430E+02 -0.10235345138E+02  0.73313886244E+01  0.18210740721E+02  0.51100000000E-03 0.  1.
        -12    1    4    4    0    0 -0.86589703658E+01 -0.14350670096E+02  0.20059209219E+02  0.26139842664E+02  0.00000000000E+00 0.  1.
</event>
<event>
 8    1  0.2509489E-006  0.9118800E+02  0.7816164E-02  0.1184000E+00
        -11   -1    0    0    0    0  0.00000000000E+00  0.00000000000E+00  0.45593999997E+02  0.45594000000E+02  0.51100000000E-03 0.  1.
         11   -1    0    0    0    0 -0.00000000000E+00 -0.00000000000E+00 -0.45593999997E+02  0.45594000000E+02  0.51100000000E-03 0. -1.
         23    2    1    2    0    0 -0.71054273576E-14 -0.17763568394E-14 -0.17763568394E-14  0.91188000000E+02  0.91188000000E+02 0.  0.
    9900012    2    3    3    0    0  0.34279589772E+02  0.94579616412E+01  0.95517870089E+01  0.54367082733E+02  0.39999996706E+02 0.  0.
         12    1    3    3    0    0 -0.34279589772E+02 -0.94579616412E+01 -0.95517870089E+01  0.36820917267E+02  0.00000000000E+00 0. -1.
         11    1    4    4    0    0  0.27098009175E+02 -0.59788448099E-01 -0.12477893945E+00  0.27098362422E+02  0.51100000000E-03 0. -1.
        -11    1    4    4    0    0  0.47893154505E+01 -0.34788204149E+01  0.12432248706E+02  0.13769551268E+02  0.51100000000E-03 0.  1.
        -12    1    4    4    0    0  0.23922651466E+01  0.12996570504E+02 -0.27556827578E+01  0.13499169043E+02  0.00000000000E+00 0.  1.
</event>
<event>
 8    1  0.2509489E-006  0.9118800E+02  0.7816164E-02  0.1184000E+00
        -11   -1    0    0    0    0  0.00000000000E+00  0.00000000000E+00  0.45593999997E+02  0.45594000000E+02  0.51100000000E-03 0. -1.
         11   -1    0    0    0    0 -0.00000000000E+00 -0.00000000000E+00 -0.45593999997E+02  0.45594000000E+02  0.51100000000E-03 0.  1.
         23    2    1    2    0    0  0.00000000000E+00  0.00000000000E+00 -0.88817841970E-15  0.91188000000E+02  0.91188000000E+02 0.  0.
    9900012    2    3    3    0    0 -0.36106979939E+02  0.65552218377E+01 -0.30156811351E+01  0.54367091994E+02  0.40000017820E+02 0.  0.
         12    1    3    3    0    0  0.36106979939E+02 -0.65552218377E+01  0.30156811351E+01  0.36820908006E+02  0.00000000000E+00 0. -1.
         11    1    4    4    0    0  0.65310465538E+00 -0.58125181680E+01  0.19111717253E+01  0.61534129366E+01  0.51100000000E-03 0. -1.
        -11    1    4    4    0    0 -0.11680781394E+02  0.10180484426E+02  0.10473396058E+02  0.18702271049E+02  0.51100000000E-03 0.  1.
        -12    1    4    4    0    0 -0.25079303200E+02  0.21872555798E+01 -0.15400248918E+02  0.29511408009E+02  0.00000000000E+00 0.  1.
</event>
<event>
 8    1  0.2509489E-006  0.9118800E+02  0.7816164E-02  0.1184000E+00
        -11   -1    0    0    0    0  0.00000000000E+00  0.00000000000E+00  0.45593999997E+02  0.45594000000E+02  0.51100000000E-03 0. -1.
         11   -1    0    0    0    0 -0.00000000000E+00 -0.00000000000E+00 -0.45593999997E+02  0.45594000000E+02  0.51100000000E-03 0.  1.
         23    2    1    2    0    0  0.17763568394E-14  0.35527136788E-14  0.00000000000E+00  0.91188000000E+02  0.91188000000E+02 0.  0.
    9900012    2    3    3    0    0 -0.47411949049E+01 -0.23428933158E+02  0.28006878072E+02  0.54367094832E+02  0.40000024288E+02 0.  0.
        -12    1    3    3    0    0  0.47411949049E+01  0.23428933158E+02 -0.28006878072E+02  0.36820905168E+02  0.00000000000E+00 0.  1.
         11    1    4    4    0    0 -0.13215004506E+02 -0.44307514526E+01  0.10720135560E+02  0.17583776876E+02  0.51100000000E-03 0. -1.
        -11    1    4    4    0    0  0.26106003542E+01 -0.24362911233E+02  0.13583481329E+02  0.28015667817E+02  0.51100000000E-03 0.  1.
        -12    1    4    4    0    0  0.58632092470E+01  0.53647295270E+01  0.37032611831E+01  0.87676501391E+01  0.00000000000E+00 0.  1.
</event>
<event>
 8    1  0.2509489E-006  0.9118800E+02  0.7816164E-02  0.1184000E+00
        -11   -1    0    0    0    0  0.00000000000E+00  0.00000000000E+00  0.45593999997E+02  0.45594000000E+02  0.51100000000E-03 0. -1.
         11   -1    0    0    0    0 -0.00000000000E+00 -0.00000000000E+00 -0.45593999997E+02  0.45594000000E+02  0.51100000000E-03 0.  1.
         23    2    1    2    0    0  0.71054273576E-14  0.10658141036E-13  0.26645352591E-14  0.91188000000E+02  0.91188000000E+02 0.  0.
    9900012    2    3    3    0    0 -0.17432401125E+02 -0.31969703154E+02 -0.54616001023E+01  0.54367087404E+02  0.40000007354E+02 0.  0.
        -12    1    3    3    0    0  0.17432401125E+02  0.31969703154E+02  0.54616001023E+01  0.36820912596E+02  0.00000000000E+00 0.  1.
         11    1    4    4    0    0 -0.77832725712E+01 -0.19410626937E+02  0.89043233334E+01  0.22729688610E+02  0.51100000000E-03 0. -1.
        -11    1    4    4    0    0 -0.32385280498E+01 -0.43201911719E+01  0.64132242007E+01  0.83834098433E+01  0.51100000000E-03 0.  1.
        -12    1    4    4    0    0 -0.64106005043E+01 -0.82388850448E+01 -0.20779147636E+02  0.23253988950E+02  0.00000000000E+00 0.  1.
</event>
<event>
 8    1  0.2509489E-006  0.9118800E+02  0.7816164E-02  0.1184000E+00
        -11   -1    0    0    0    0  0.00000000000E+00  0.00000000000E+00  0.45593999997E+02  0.45594000000E+02  0.51100000000E-03 0.  1.
         11   -1    0    0    0    0 -0.00000000000E+00 -0.00000000000E+00 -0.45593999997E+02  0.45594000000E+02  0.51100000000E-03 0. -1.
         23    2    1    2    0    0  0.00000000000E+00  0.71054273576E-14  0.00000000000E+00  0.91188000000E+02  0.91188000000E+02 0.  0.
    9900012    2    3    3    0    0  0.12189341858E+02 -0.34625963965E+02  0.28708951564E+01  0.54367089169E+02  0.40000011379E+02 0.  0.
         12    1    3    3    0    0 -0.12189341858E+02  0.34625963965E+02 -0.28708951564E+01  0.36820910831E+02  0.00000000000E+00 0. -1.
         11    1    4    4    0    0  0.34120082170E+01  0.20067207342E+00 -0.85977456003E+01  0.92522050898E+01  0.51100000000E-03 0. -1.
        -11    1    4    4    0    0 -0.52236364057E+01 -0.26717156898E+02  0.49409479118E+01  0.27667775778E+02  0.51100000000E-03 0.  1.
        -12    1    4    4    0    0  0.14000970047E+02 -0.81094791406E+01  0.65276928450E+01  0.17447108301E+02  0.00000000000E+00 0.  1.
</event>
<event>
 8    1  0.2509489E-006  0.9118800E+02  0.7816164E-02  0.1184000E+00
        -11   -1    0    0    0    0  0.00000000000E+00  0.00000000000E+00  0.45593999997E+02  0.45594000000E+02  0.51100000000E-03 0. -1.
         11   -1    0    0    0    0 -0.00000000000E+00 -0.00000000000E+00 -0.45593999997E+02  0.45594000000E+02  0.51100000000E-03 0.  1.
         23    2    1    2    0    0 -0.35527136788E-14  0.00000000000E+00  0.35527136788E-14  0.91188000000E+02  0.91188000000E+02 0.  0.
    9900012    2    3    3    0    0 -0.19080082835E+02  0.17834846159E+02 -0.25954731042E+02  0.54367090696E+02  0.40000014860E+02 0.  0.
         12    1    3    3    0    0  0.19080082835E+02 -0.17834846159E+02  0.25954731042E+02  0.36820909304E+02  0.00000000000E+00 0. -1.
         11    1    4    4    0    0 -0.64622156176E+01 -0.50464997328E+01  0.21480118227E+01  0.84759274002E+01  0.51100000000E-03 0. -1.
        -11    1    4    4    0    0 -0.14932883749E+02  0.17647186251E+01 -0.11661415341E+02  0.19028763935E+02  0.51100000000E-03 0.  1.
         12    1    4    4    0    0  0.23150165320E+01  0.21116627266E+02 -0.16441327524E+02  0.26862399361E+02  0.00000000000E+00 0. -1.
</event>
<event>
 8    1  0.2509489E-006  0.9118800E+02  0.7816164E-02  0.1184000E+00
        -11   -1    0    0    0    0  0.00000000000E+00  0.00000000000E+00  0.45593999997E+02  0.45594000000E+02  0.51100000000E-03 0.  1.
         11   -1    0    0    0    0 -0.00000000000E+00 -0.00000000000E+00 -0.45593999997E+02  0.45594000000E+02  0.51100000000E-03 0. -1.
         23    2    1    2    0    0  0.00000000000E+00  0.00000000000E+00  0.33306690739E-15  0.91188000000E+02  0.91188000000E+02 0.  0.
    9900012    2    3    3    0    0  0.21754737359E+02 -0.29702304413E+02 -0.52787648691E+00  0.54367161625E+02  0.40000176556E+02 0.  0.
        -12    1    3    3    0    0 -0.21754737359E+02  0.29702304413E+02  0.52787648691E+00  0.36820838375E+02  0.00000000000E+00 0.  1.
         11    1    4    4    0    0 -0.71382143980E+01 -0.27452127755E+01 -0.11767012643E+01  0.77378888659E+01  0.51100000000E-03 0. -1.
        -11    1    4    4    0    0  0.15435311662E+02 -0.77982581011E-01 -0.46179870093E+01  0.16111509292E+02  0.51100000000E-03 0.  1.
        -12    1    4    4    0    0  0.13457640095E+02 -0.26879109057E+02  0.52668117867E+01  0.30517763467E+02  0.00000000000E+00 0.  1.
</event>
<event>
 8    1  0.2509489E-006  0.9118800E+02  0.7816164E-02  0.1184000E+00
        -11   -1    0    0    0    0  0.00000000000E+00  0.00000000000E+00  0.45593999997E+02  0.45594000000E+02  0.51100000000E-03 0.  1.
         11   -1    0    0    0    0 -0.00000000000E+00 -0.00000000000E+00 -0.45593999997E+02  0.45594000000E+02  0.51100000000E-03 0. -1.
         23    2    1    2    0    0  0.24424906542E-14 -0.35527136788E-14 -0.35527136788E-14  0.91188000000E+02  0.91188000000E+02 0.  0.
    9900012    2    3    3    0    0  0.99460376571E+00 -0.23600537833E+02 -0.28245446323E+02  0.54367083925E+02  0.39999999423E+02 0.  0.
        -12    1    3    3    0    0 -0.99460376571E+00  0.23600537833E+02  0.28245446323E+02  0.36820916075E+02  0.00000000000E+00 0.  1.
         11    1    4    4    0    0  0.99327414451E+01 -0.28060569392E+02 -0.23869049211E+02  0.38154769266E+02  0.51100000000E-03 0. -1.
        -11    1    4    4    0    0 -0.28211691517E+01 -0.31346050594E+01 -0.48773659366E+01  0.64477471261E+01  0.51100000000E-03 0.  1.
         12    1    4    4    0    0 -0.61169685276E+01  0.75946366184E+01  0.50096882504E+00  0.97645675325E+01  0.00000000000E+00 0. -1.
</event>
<event>
 8    1  0.2509489E-006  0.9118800E+02  0.7816164E-02  0.1184000E+00
        -11   -1    0    0    0    0  0.00000000000E+00  0.00000000000E+00  0.45593999997E+02  0.45594000000E+02  0.51100000000E-03 0. -1.
         11   -1    0    0    0    0 -0.00000000000E+00 -0.00000000000E+00 -0.45593999997E+02  0.45594000000E+02  0.51100000000E-03 0.  1.
         23    2    1    2    0    0  0.17763568394E-14  0.00000000000E+00  0.00000000000E+00  0.91188000000E+02  0.91188000000E+02 0.  0.
    9900012    2    3    3    0    0 -0.13273828941E+02 -0.27966276376E+02 -0.19936677192E+02  0.54367105843E+02  0.40000049390E+02 0.  0.
         12    1    3    3    0    0  0.13273828941E+02  0.27966276376E+02  0.19936677192E+02  0.36820894157E+02  0.00000000000E+00 0. -1.
         11    1    4    4    0    0 -0.16204579880E+02 -0.43090027927E+01  0.76318055371E+00  0.16785063568E+02  0.51100000000E-03 0. -1.
        -11    1    4    4    0    0 -0.40526374267E+00 -0.26547758778E+02 -0.15433951636E+02  0.30710822167E+02  0.51100000000E-03 0.  1.
         12    1    4    4    0    0  0.33360146816E+01  0.28904851945E+01 -0.52659061096E+01  0.68712201078E+01  0.00000000000E+00 0. -1.
</event>
<event>
 8    1  0.2509489E-006  0.9118800E+02  0.7816164E-02  0.1184000E+00
        -11   -1    0    0    0    0  0.00000000000E+00  0.00000000000E+00  0.45593999997E+02  0.45594000000E+02  0.51100000000E-03 0.  1.
         11   -1    0    0    0    0 -0.00000000000E+00 -0.00000000000E+00 -0.45593999997E+02  0.45594000000E+02  0.51100000000E-03 0. -1.
         23    2    1    2    0    0 -0.53290705182E-14 -0.35527136788E-14 -0.35527136788E-14  0.91188000000E+02  0.91188000000E+02 0.  0.
    9900012    2    3    3    0    0  0.15233199429E+02  0.28672416829E+02  0.17367268063E+02  0.54367084047E+02  0.39999999701E+02 0.  0.
         12    1    3    3    0    0 -0.15233199429E+02 -0.28672416829E+02 -0.17367268063E+02  0.36820915953E+02  0.00000000000E+00 0. -1.
         11    1    4    4    0    0  0.18487220532E+02  0.15577714708E+02  0.61420758395E+01  0.24943287963E+02  0.51100000000E-03 0. -1.
        -11    1    4    4    0    0  0.22935116945E+01  0.13691661503E+02  0.16625114667E+02  0.21659091129E+02  0.51100000000E-03 0.  1.
        -12    1    4    4    0    0 -0.55475327970E+01 -0.59695938181E+00 -0.53999224435E+01  0.77647049547E+01  0.00000000000E+00 0.  1.
</event>
<event>
 8    1  0.2509489E-006  0.9118800E+02  0.7816164E-02  0.1184000E+00
        -11   -1    0    0    0    0  0.00000000000E+00  0.00000000000E+00  0.45593999997E+02  0.45594000000E+02  0.51100000000E-03 0.  1.
         11   -1    0    0    0    0 -0.00000000000E+00 -0.00000000000E+00 -0.45593999997E+02  0.45594000000E+02  0.51100000000E-03 0. -1.
         23    2    1    2    0    0 -0.35527136788E-14  0.00000000000E+00  0.00000000000E+00  0.91188000000E+02  0.91188000000E+02 0.  0.
    9900012    2    3    3    0    0  0.30687424963E+02  0.47190925990E+01 -0.19793768096E+02  0.54367066535E+02  0.39999959779E+02 0.  0.
        -12    1    3    3    0    0 -0.30687424963E+02 -0.47190925990E+01  0.19793768096E+02  0.36820933465E+02  0.00000000000E+00 0.  1.
         11    1    4    4    0    0  0.35299963632E+02  0.87922493570E+01 -0.17232740266E+02  0.40253675839E+02  0.51100000000E-03 0. -1.
        -11    1    4    4    0    0 -0.28076750937E+01 -0.84234719034E+00  0.49427808878E+01  0.57466226070E+01  0.51100000000E-03 0.  1.
         12    1    4    4    0    0 -0.18048635752E+01 -0.32308095677E+01 -0.75038087172E+01  0.83667680888E+01  0.00000000000E+00 0. -1.
</event>
<event>
 8    1  0.2509489E-006  0.9118800E+02  0.7816164E-02  0.1184000E+00
        -11   -1    0    0    0    0  0.00000000000E+00  0.00000000000E+00  0.45593999997E+02  0.45594000000E+02  0.51100000000E-03 0.  1.
         11   -1    0    0    0    0 -0.00000000000E+00 -0.00000000000E+00 -0.45593999997E+02  0.45594000000E+02  0.51100000000E-03 0. -1.
         23    2    1    2    0    0  0.00000000000E+00  0.00000000000E+00 -0.24702462298E-14  0.91188000000E+02  0.91188000000E+02 0.  0.
    9900012    2    3    3    0    0  0.27936505218E+02 -0.23985004503E+02  0.22477995936E+00  0.54367091662E+02  0.40000017062E+02 0.  0.
        -12    1    3    3    0    0 -0.27936505218E+02  0.23985004503E+02 -0.22477995936E+00  0.36820908338E+02  0.00000000000E+00 0.  1.
         11    1    4    4    0    0  0.56084263654E+01 -0.75763535465E+01 -0.69093961852E+01  0.11687400706E+02  0.51100000000E-03 0. -1.
        -11    1    4    4    0    0  0.11817840731E+02  0.42877632186E+01 -0.80629931347E+01  0.14935130783E+02  0.51100000000E-03 0.  1.
        -12    1    4    4    0    0  0.10510238121E+02 -0.20696414175E+02  0.15197169279E+02  0.27744560173E+02  0.00000000000E+00 0.  1.
</event>
<event>
 8    1  0.2509489E-006  0.9118800E+02  0.7816164E-02  0.1184000E+00
        -11   -1    0    0    0    0  0.00000000000E+00  0.00000000000E+00  0.45593999997E+02  0.45594000000E+02  0.51100000000E-03 0. -1.
         11   -1    0    0    0    0 -0.00000000000E+00 -0.00000000000E+00 -0.45593999997E+02  0.45594000000E+02  0.51100000000E-03 0.  1.
         23    2    1    2    0    0  0.16653345369E-15  0.00000000000E+00  0.35527136788E-14  0.91188000000E+02  0.91188000000E+02 0.  0.
    9900012    2    3    3    0    0  0.44457969967E+00  0.23948884553E+02 -0.27964860650E+02  0.54367079946E+02  0.39999990353E+02 0.  0.
         12    1    3    3    0    0 -0.44457969967E+00 -0.23948884553E+02  0.27964860650E+02  0.36820920054E+02  0.00000000000E+00 0. -1.
         11    1    4    4    0    0 -0.10383695160E+02  0.13658725458E+02 -0.49439727845E+00  0.17164682789E+02  0.51100000000E-03 0. -1.
        -11    1    4    4    0    0  0.11516443967E+02  0.15255199721E+02 -0.16942544254E+02  0.25542110449E+02  0.51100000000E-03 0.  1.
         12    1    4    4    0    0 -0.68816910704E+00 -0.49650406263E+01 -0.10527919118E+02  0.11660286708E+02  0.00000000000E+00 0. -1.
</event>
<event>
 8    1  0.2509489E-006  0.9118800E+02  0.7816164E-02  0.1184000E+00
        -11   -1    0    0    0    0  0.00000000000E+00  0.00000000000E+00  0.45593999997E+02  0.45594000000E+02  0.51100000000E-03 0.  1.
         11   -1    0    0    0    0 -0.00000000000E+00 -0.00000000000E+00 -0.45593999997E+02  0.45594000000E+02  0.51100000000E-03 0. -1.
         23    2    1    2    0    0  0.44408920985E-15  0.17763568394E-14  0.00000000000E+00  0.91188000000E+02  0.91188000000E+02 0.  0.
    9900012    2    3    3    0    0 -0.32918307234E+01 -0.13997451475E+02  0.33897125894E+02  0.54367082831E+02  0.39999996930E+02 0.  0.
         12    1    3    3    0    0  0.32918307234E+01  0.13997451475E+02 -0.33897125894E+02  0.36820917169E+02  0.00000000000E+00 0. -1.
         11    1    4    4    0    0 -0.25689343195E+01  0.50281864546E+01 -0.90177991924E+00  0.57179795246E+01  0.51100000000E-03 0. -1.
        -11    1    4    4    0    0 -0.12997260603E+02 -0.27388384120E+01  0.10539000272E+02  0.16955841059E+02  0.51100000000E-03 0.  1.
        -12    1    4    4    0    0  0.12274364199E+02 -0.16286799517E+02  0.24259905541E+02  0.31693262247E+02  0.00000000000E+00 0.  1.
</event>
<event>
 8    1  0.2509489E-006  0.9118800E+02  0.7816164E-02  0.1184000E+00
        -11   -1    0    0    0    0  0.00000000000E+00  0.00000000000E+00  0.45593999997E+02  0.45594000000E+02  0.51100000000E-03 0.  1.
         11   -1    0    0    0    0 -0.00000000000E+00 -0.00000000000E+00 -0.45593999997E+02  0.45594000000E+02  0.51100000000E-03 0. -1.
         23    2    1    2    0    0  0.00000000000E+00  0.00000000000E+00  0.00000000000E+00  0.91188000000E+02  0.91188000000E+02 0.  0.
    9900012    2    3    3    0    0  0.24217512168E+02 -0.35737458811E+01 -0.27504913052E+02  0.54367084786E+02  0.40000001386E+02 0.  0.
        -12    1    3    3    0    0 -0.24217512168E+02  0.35737458811E+01  0.27504913052E+02  0.36820915214E+02  0.00000000000E+00 0.  1.
         11    1    4    4    0    0  0.27791405146E+02 -0.14189100100E+01 -0.23064505876E+02  0.36143421769E+02  0.51100000000E-03 0. -1.
        -11    1    4    4    0    0 -0.63014191623E+01  0.62008853537E+01 -0.15838183511E+01  0.89815000673E+01  0.51100000000E-03 0.  1.
         12    1    4    4    0    0  0.27275261847E+01 -0.83557212249E+01 -0.28565888248E+01  0.92421629498E+01  0.00000000000E+00 0. -1.
</event>
<event>
 8    1  0.2509489E-006  0.9118800E+02  0.7816164E-02  0.1184000E+00
        -11   -1    0    0    0    0  0.00000000000E+00  0.00000000000E+00  0.45593999997E+02  0.45594000000E+02  0.51100000000E-03 0. -1.
         11   -1    0    0    0    0 -0.00000000000E+00 -0.00000000000E+00 -0.45593999997E+02  0.45594000000E+02  0.51100000000E-03 0.  1.
         23    2    1    2    0    0 -0.17763568394E-14  0.35527136788E-14  0.35527136788E-14  0.91188000000E+02  0.91188000000E+02 0.  0.
    9900012    2    3    3    0    0  0.78502864740E+01  0.22719288645E+02  0.27892354965E+02  0.54367129020E+02  0.40000102226E+02 0.  0.
        -12    1    3    3    0    0 -0.78502864740E+01 -0.22719288645E+02 -0.27892354965E+02  0.36820870980E+02  0.00000000000E+00 0.  1.
         11    1    4    4    0    0  0.19899894741E+01  0.23260218029E+02  0.11173531413E+02  0.25881375646E+02  0.51100000000E-03 0. -1.
        -11    1    4    4    0    0 -0.40606724359E+01  0.57985941203E+00 -0.38476055315E+01  0.56239991248E+01  0.51100000000E-03 0.  1.
        -12    1    4    4    0    0  0.99209694357E+01 -0.11207887957E+01  0.20566429083E+02  0.22861754248E+02  0.00000000000E+00 0.  1.
</event>
<event>
 8    1  0.2509489E-006  0.9118800E+02  0.7816164E-02  0.1184000E+00
        -11   -1    0    0    0    0  0.00000000000E+00  0.00000000000E+00  0.45593999997E+02  0.45594000000E+02  0.51100000000E-03 0.  1.
         11   -1    0    0    0    0 -0.00000000000E+00 -0.00000000000E+00 -0.45593999997E+02  0.45594000000E+02  0.51100000000E-03 0. -1.
         23    2    1    2    0    0  0.00000000000E+00  0.00000000000E+00  0.00000000000E+00  0.91188000000E+02  0.91188000000E+02 0.  0.
    9900012    2    3    3    0    0 -0.21677662121E+02  0.96131047922E+01  0.28168189712E+02  0.54367085693E+02  0.40000003454E+02 0.  0.
         12    1    3    3    0    0  0.21677662121E+02 -0.96131047922E+01 -0.28168189712E+02  0.36820914307E+02  0.00000000000E+00 0. -1.
         11    1    4    4    0    0 -0.73347279737E+01  0.26996111760E+01 -0.84972528749E+01  0.11545104661E+02  0.51100000000E-03 0. -1.
        -11    1    4    4    0    0 -0.67985607853E+01 -0.13460346518E+01  0.27501022494E+02  0.28360861702E+02  0.51100000000E-03 0.  1.
        -12    1    4    4    0    0 -0.75443733616E+01  0.82595282680E+01  0.91644200930E+01  0.14461119330E+02  0.00000000000E+00 0.  1.
</event>
<event>
 8    1  0.2509489E-006  0.9118800E+02  0.7816164E-02  0.1184000E+00
        -11   -1    0    0    0    0  0.00000000000E+00  0.00000000000E+00  0.45593999997E+02  0.45594000000E+02  0.51100000000E-03 0.  1.
         11   -1    0    0    0    0 -0.00000000000E+00 -0.00000000000E+00 -0.45593999997E+02  0.45594000000E+02  0.51100000000E-03 0. -1.
         23    2    1    2    0    0  0.00000000000E+00  0.00000000000E+00  0.00000000000E+00  0.91188000000E+02  0.91188000000E+02 0.  0.
    9900012    2    3    3    0    0 -0.18813176970E+02 -0.26518070622E+02 -0.17281118506E+02  0.54367071792E+02  0.39999971765E+02 0.  0.
        -12    1    3    3    0    0  0.18813176970E+02  0.26518070622E+02  0.17281118506E+02  0.36820928208E+02  0.00000000000E+00 0.  1.
         11    1    4    4    0    0  0.53220422460E+00 -0.13878837323E+02  0.23391287072E+01  0.14084633120E+02  0.51100000000E-03 0.  1.
        -11    1    4    4    0    0 -0.10765327801E+02 -0.15274546312E+02 -0.23900284568E+02  0.30338550565E+02  0.51100000000E-03 0. -1.
        -12    1    4    4    0    0 -0.85800533942E+01  0.26353130125E+01  0.42800373549E+01  0.99438881068E+01  0.00000000000E+00 0.  1.
</event>
<event>
 8    1  0.2509489E-006  0.9118800E+02  0.7816164E-02  0.1184000E+00
        -11   -1    0    0    0    0  0.00000000000E+00  0.00000000000E+00  0.45593999997E+02  0.45594000000E+02  0.51100000000E-03 0. -1.
         11   -1    0    0    0    0 -0.00000000000E+00 -0.00000000000E+00 -0.45593999997E+02  0.45594000000E+02  0.51100000000E-03 0.  1.
         23    2    1    2    0    0  0.00000000000E+00 -0.88817841970E-15  0.00000000000E+00  0.91188000000E+02  0.91188000000E+02 0.  0.
    9900012    2    3    3    0    0 -0.31712551548E+02  0.24432637383E+01  0.18550588151E+02  0.54367084964E+02  0.40000001792E+02 0.  0.
        -12    1    3    3    0    0  0.31712551548E+02 -0.24432637383E+01 -0.18550588151E+02  0.36820915036E+02  0.00000000000E+00 0.  1.
         11    1    4    4    0    0 -0.37810541857E+01  0.57771431175E+01  0.32574794170E+01  0.76343254953E+01  0.51100000000E-03 0. -1.
        -11    1    4    4    0    0 -0.10130975941E+02  0.20683763574E+01 -0.10627668080E+02  0.14827750448E+02  0.51100000000E-03 0.  1.
        -12    1    4    4    0    0 -0.17800521421E+02 -0.54022557366E+01  0.25920776814E+02  0.31905009020E+02  0.00000000000E+00 0.  1.
</event>
<event>
 8    1  0.2509489E-006  0.9118800E+02  0.7816164E-02  0.1184000E+00
        -11   -1    0    0    0    0  0.00000000000E+00  0.00000000000E+00  0.45593999997E+02  0.45594000000E+02  0.51100000000E-03 0.  1.
         11   -1    0    0    0    0 -0.00000000000E+00 -0.00000000000E+00 -0.45593999997E+02  0.45594000000E+02  0.51100000000E-03 0. -1.
         23    2    1    2    0    0  0.00000000000E+00  0.00000000000E+00  0.00000000000E+00  0.91188000000E+02  0.91188000000E+02 0.  0.
    9900012    2    3    3    0    0  0.11191641405E+02  0.28012914841E+02  0.21114346926E+02  0.54366920693E+02  0.39999627302E+02 0.  0.
         12    1    3    3    0    0 -0.11191641405E+02 -0.28012914841E+02 -0.21114346926E+02  0.36821079307E+02  0.00000000000E+00 0. -1.
         11    1    4    4    0    0 -0.56812898910E+01  0.16045152010E+02  0.19378214548E+02  0.25792230559E+02  0.51100000000E-03 0. -1.
        -11    1    4    4    0    0  0.31730920614E+00  0.96189634388E+01 -0.46330936809E+01  0.10681324828E+02  0.51100000000E-03 0.  1.
        -12    1    4    4    0    0  0.16555622090E+02  0.23487993920E+01  0.63692260588E+01  0.17893365306E+02  0.00000000000E+00 0.  1.
</event>
<event>
 8    1  0.2509489E-006  0.9118800E+02  0.7816164E-02  0.1184000E+00
        -11   -1    0    0    0    0  0.00000000000E+00  0.00000000000E+00  0.45593999997E+02  0.45594000000E+02  0.51100000000E-03 0.  1.
         11   -1    0    0    0    0 -0.00000000000E+00 -0.00000000000E+00 -0.45593999997E+02  0.45594000000E+02  0.51100000000E-03 0. -1.
         23    2    1    2    0    0 -0.22204460493E-15  0.00000000000E+00  0.00000000000E+00  0.91188000000E+02  0.91188000000E+02 0.  0.
    9900012    2    3    3    0    0 -0.14251193707E+01 -0.30335269514E+00  0.36792077337E+02  0.54367082808E+02  0.39999996878E+02 0.  0.
         12    1    3    3    0    0  0.14251193707E+01  0.30335269514E+00 -0.36792077337E+02  0.36820917192E+02  0.00000000000E+00 0. -1.
         11    1    4    4    0    0 -0.91112010074E+01 -0.20307453914E+00  0.28267695434E+01  0.95417948720E+01  0.51100000000E-03 0. -1.
        -11    1    4    4    0    0  0.80120739510E+01  0.13453019582E+02  0.19315604248E+02  0.24865028305E+02  0.51100000000E-03 0.  1.
         12    1    4    4    0    0 -0.32599231427E+00 -0.13553297738E+02  0.14649703546E+02  0.19960259631E+02  0.00000000000E+00 0. -1.
</event>
<event>
 8    1  0.2509489E-006  0.9118800E+02  0.7816164E-02  0.1184000E+00
        -11   -1    0    0    0    0  0.00000000000E+00  0.00000000000E+00  0.45593999997E+02  0.45594000000E+02  0.51100000000E-03 0.  1.
         11   -1    0    0    0    0 -0.00000000000E+00 -0.00000000000E+00 -0.45593999997E+02  0.45594000000E+02  0.51100000000E-03 0. -1.
         23    2    1    2    0    0  0.00000000000E+00  0.00000000000E+00  0.00000000000E+00  0.91188000000E+02  0.91188000000E+02 0.  0.
    9900012    2    3    3    0    0 -0.24879063222E+02  0.88827816319E+01  0.25649710610E+02  0.54367092207E+02  0.40000018304E+02 0.  0.
         12    1    3    3    0    0  0.24879063222E+02 -0.88827816319E+01 -0.25649710610E+02  0.36820907793E+02  0.00000000000E+00 0. -1.
         11    1    4    4    0    0 -0.10370406054E+02 -0.69497920746E+00  0.76533147835E+01  0.12907422100E+02  0.51100000000E-03 0. -1.
        -11    1    4    4    0    0 -0.20384917964E+02  0.47728294130E+01  0.23951414621E+02  0.31811869540E+02  0.51100000000E-03 0.  1.
         12    1    4    4    0    0  0.58762607953E+01  0.48049314263E+01 -0.59550187948E+01  0.96478005676E+01  0.00000000000E+00 0. -1.
</event>
<event>
 8    1  0.2509489E-006  0.9118800E+02  0.7816164E-02  0.1184000E+00
        -11   -1    0    0    0    0  0.00000000000E+00  0.00000000000E+00  0.45593999997E+02  0.45594000000E+02  0.51100000000E-03 0.  1.
         11   -1    0    0    0    0 -0.00000000000E+00 -0.00000000000E+00 -0.45593999997E+02  0.45594000000E+02  0.51100000000E-03 0. -1.
         23    2    1    2    0    0 -0.35527136788E-14  0.88817841970E-15  0.00000000000E+00  0.91188000000E+02  0.91188000000E+02 0.  0.
    9900012    2    3    3    0    0 -0.28016376258E+02 -0.57991812093E+01  0.23178653022E+02  0.54366840360E+02  0.39999444165E+02 0.  0.
         12    1    3    3    0    0  0.28016376258E+02  0.57991812093E+01 -0.23178653022E+02  0.36821159640E+02  0.00000000000E+00 0. -1.
         11    1    4    4    0    0 -0.32851765449E+00 -0.52172509780E+01 -0.40177274965E+01  0.65931605557E+01  0.51100000000E-03 0. -1.
        -11    1    4    4    0    0 -0.11987416661E+02 -0.13479205524E+02  0.17958188989E+02  0.25453559511E+02  0.51100000000E-03 0.  1.
         12    1    4    4    0    0 -0.15700441942E+02  0.12897275293E+02  0.92381915291E+01  0.22320120293E+02  0.00000000000E+00 0. -1.
</event>
<event>
 8    1  0.2509489E-006  0.9118800E+02  0.7816164E-02  0.1184000E+00
        -11   -1    0    0    0    0  0.00000000000E+00  0.00000000000E+00  0.45593999997E+02  0.45594000000E+02  0.51100000000E-03 0.  1.
         11   -1    0    0    0    0 -0.00000000000E+00 -0.00000000000E+00 -0.45593999997E+02  0.45594000000E+02  0.51100000000E-03 0. -1.
         23    2    1    2    0    0  0.88817841970E-15  0.00000000000E+00  0.00000000000E+00  0.91188000000E+02  0.91188000000E+02 0.  0.
    9900012    2    3    3    0    0 -0.89752051578E+00 -0.21247887758E+02 -0.30058305269E+02  0.54367082128E+02  0.39999995327E+02 0.  0.
        -12    1    3    3    0    0  0.89752051578E+00  0.21247887758E+02  0.30058305269E+02  0.36820917872E+02  0.00000000000E+00 0.  1.
         11    1    4    4    0    0  0.15130406972E+02 -0.11660787247E+02 -0.17362682333E+02  0.25814064236E+02  0.51100000000E-03 0.  1.
        -11    1    4    4    0    0 -0.38851740366E+01  0.30213532534E+01  0.23655054519E+01  0.54606564698E+01  0.51100000000E-03 0. -1.
        -12    1    4    4    0    0 -0.12142753451E+02 -0.12608453765E+02 -0.15061128388E+02  0.23092361422E+02  0.00000000000E+00 0.  1.
</event>
<event>
 8    1  0.2509489E-006  0.9118800E+02  0.7816164E-02  0.1184000E+00
        -11   -1    0    0    0    0  0.00000000000E+00  0.00000000000E+00  0.45593999997E+02  0.45594000000E+02  0.51100000000E-03 0.  1.
         11   -1    0    0    0    0 -0.00000000000E+00 -0.00000000000E+00 -0.45593999997E+02  0.45594000000E+02  0.51100000000E-03 0. -1.
         23    2    1    2    0    0  0.35527136788E-14  0.00000000000E+00  0.00000000000E+00  0.91188000000E+02  0.91188000000E+02 0.  0.
    9900012    2    3    3    0    0  0.25215164911E+02 -0.20035483577E+02  0.17848077853E+02  0.54367095249E+02  0.40000025239E+02 0.  0.
         12    1    3    3    0    0 -0.25215164911E+02  0.20035483577E+02 -0.17848077853E+02  0.36820904751E+02  0.00000000000E+00 0. -1.
         11    1    4    4    0    0  0.48396229757E+01 -0.16096057212E+02  0.25422255704E+01  0.16999056427E+02  0.51100000000E-03 0. -1.
        -11    1    4    4    0    0  0.23460293010E+02  0.20607081989E+00  0.25427438286E+01  0.23598588088E+02  0.51100000000E-03 0.  1.
        -12    1    4    4    0    0 -0.30847510750E+01 -0.41454971853E+01  0.12763108453E+02  0.13769450734E+02  0.00000000000E+00 0.  1.
</event>
<event>
 8    1  0.2509489E-006  0.9118800E+02  0.7816164E-02  0.1184000E+00
        -11   -1    0    0    0    0  0.00000000000E+00  0.00000000000E+00  0.45593999997E+02  0.45594000000E+02  0.51100000000E-03 0.  1.
         11   -1    0    0    0    0 -0.00000000000E+00 -0.00000000000E+00 -0.45593999997E+02  0.45594000000E+02  0.51100000000E-03 0. -1.
         23    2    1    2    0    0  0.00000000000E+00  0.00000000000E+00 -0.26645352591E-14  0.91188000000E+02  0.91188000000E+02 0.  0.
    9900012    2    3    3    0    0 -0.23434967825E+02  0.27257713440E+02  0.79756138432E+01  0.54366931640E+02  0.39999652259E+02 0.  0.
         12    1    3    3    0    0  0.23434967825E+02 -0.27257713440E+02 -0.79756138432E+01  0.36821068360E+02  0.00000000000E+00 0. -1.
         11    1    4    4    0    0 -0.63912821970E+01  0.90795794953E+01  0.20063601471E+02  0.22931100195E+02  0.51100000000E-03 0.  1.
        -11    1    4    4    0    0 -0.95152869228E+01  0.97069926260E+00 -0.98001231793E+00  0.96147473542E+01  0.51100000000E-03 0. -1.
        -12    1    4    4    0    0 -0.75283987054E+01  0.17207434683E+02 -0.11107975310E+02  0.21821084091E+02  0.00000000000E+00 0.  1.
</event>
<event>
 8    1  0.2509489E-006  0.9118800E+02  0.7816164E-02  0.1184000E+00
        -11   -1    0    0    0    0  0.00000000000E+00  0.00000000000E+00  0.45593999997E+02  0.45594000000E+02  0.51100000000E-03 0.  1.
         11   -1    0    0    0    0 -0.00000000000E+00 -0.00000000000E+00 -0.45593999997E+02  0.45594000000E+02  0.51100000000E-03 0. -1.
         23    2    1    2    0    0  0.00000000000E+00  0.00000000000E+00  0.35527136788E-14  0.91188000000E+02  0.91188000000E+02 0.  0.
    9900012    2    3    3    0    0 -0.22515897860E+02 -0.77786389090E+01  0.28076807897E+02  0.54367081742E+02  0.39999994446E+02 0.  0.
         12    1    3    3    0    0  0.22515897860E+02  0.77786389090E+01 -0.28076807897E+02  0.36820918258E+02  0.00000000000E+00 0. -1.
         11    1    4    4    0    0  0.32858378742E+00  0.92678947480E+01  0.21809355088E+01  0.95267161351E+01  0.51100000000E-03 0. -1.
        -11    1    4    4    0    0  0.75296952497E+00 -0.12411295624E+02  0.10604923495E+02  0.16342326174E+02  0.51100000000E-03 0.  1.
        -12    1    4    4    0    0 -0.23597451172E+02 -0.46352380329E+01  0.15290948893E+02  0.28498039432E+02  0.00000000000E+00 0.  1.
</event>
<event>
 8    1  0.2509489E-006  0.9118800E+02  0.7816164E-02  0.1184000E+00
        -11   -1    0    0    0    0  0.00000000000E+00  0.00000000000E+00  0.45593999997E+02  0.45594000000E+02  0.51100000000E-03 0. -1.
         11   -1    0    0    0    0 -0.00000000000E+00 -0.00000000000E+00 -0.45593999997E+02  0.45594000000E+02  0.51100000000E-03 0.  1.
         23    2    1    2    0    0  0.00000000000E+00  0.17763568394E-14  0.00000000000E+00  0.91188000000E+02  0.91188000000E+02 0.  0.
    9900012    2    3    3    0    0 -0.31925368474E+02 -0.12803170842E+02  0.13138741579E+02  0.54367124588E+02  0.40000092123E+02 0.  0.
        -12    1    3    3    0    0  0.31925368474E+02  0.12803170842E+02 -0.13138741579E+02  0.36820875412E+02  0.00000000000E+00 0.  1.
         11    1    4    4    0    0 -0.74388939267E+01  0.46594667350E+01  0.19658789805E+02  0.21529416852E+02  0.51100000000E-03 0. -1.
        -11    1    4    4    0    0 -0.38223838763E+01  0.51281508545E+00 -0.36317748265E+01  0.52974886938E+01  0.51100000000E-03 0.  1.
        -12    1    4    4    0    0 -0.20664090672E+02 -0.17975452662E+02 -0.28882733997E+01  0.27540219043E+02  0.00000000000E+00 0.  1.
</event>
<event>
 8    1  0.2509489E-006  0.9118800E+02  0.7816164E-02  0.1184000E+00
        -11   -1    0    0    0    0  0.00000000000E+00  0.00000000000E+00  0.45593999997E+02  0.45594000000E+02  0.51100000000E-03 0.  1.
         11   -1    0    0    0    0 -0.00000000000E+00 -0.00000000000E+00 -0.45593999997E+02  0.45594000000E+02  0.51100000000E-03 0. -1.
         23    2    1    2    0    0  0.17763568394E-14  0.00000000000E+00  0.00000000000E+00  0.91188000000E+02  0.91188000000E+02 0.  0.
    9900012    2    3    3    0    0 -0.15617905059E+02 -0.17220629554E+02 -0.28553623497E+02  0.54367103005E+02  0.40000042922E+02 0.  0.
        -12    1    3    3    0    0  0.15617905059E+02  0.17220629554E+02  0.28553623497E+02  0.36820896995E+02  0.00000000000E+00 0.  1.
         11    1    4    4    0    0 -0.88205573293E+01  0.18094793445E+01 -0.57265485412E+01  0.10670979597E+02  0.51100000000E-03 0. -1.
        -11    1    4    4    0    0 -0.63018430062E+01 -0.13122041404E+02 -0.30620118672E+02  0.33904171774E+02  0.51100000000E-03 0.  1.
        -12    1    4    4    0    0 -0.49550472350E+00 -0.59080674948E+01  0.77930437167E+01  0.97919516351E+01  0.00000000000E+00 0.  1.
</event>
<event>
 8    1  0.2509489E-006  0.9118800E+02  0.7816164E-02  0.1184000E+00
        -11   -1    0    0    0    0  0.00000000000E+00  0.00000000000E+00  0.45593999997E+02  0.45594000000E+02  0.51100000000E-03 0.  1.
         11   -1    0    0    0    0 -0.00000000000E+00 -0.00000000000E+00 -0.45593999997E+02  0.45594000000E+02  0.51100000000E-03 0. -1.
         23    2    1    2    0    0  0.00000000000E+00  0.00000000000E+00  0.00000000000E+00  0.91188000000E+02  0.91188000000E+02 0.  0.
    9900012    2    3    3    0    0  0.25101439281E+02 -0.26288525810E+02  0.58831579404E+01  0.54367076728E+02  0.39999983017E+02 0.  0.
         12    1    3    3    0    0 -0.25101439281E+02  0.26288525810E+02 -0.58831579404E+01  0.36820923272E+02  0.00000000000E+00 0. -1.
         11    1    4    4    0    0 -0.39078072624E+01  0.12995408782E+01  0.31160812158E+01  0.51642740535E+01  0.51100000000E-03 0. -1.
        -11    1    4    4    0    0 -0.43591194112E+01 -0.89181453045E+01  0.45615654867E+01  0.10924427567E+02  0.51100000000E-03 0.  1.
        -12    1    4    4    0    0  0.33368365954E+02 -0.18669921384E+02 -0.17944887622E+01  0.38278375108E+02  0.00000000000E+00 0.  1.
</event>
<event>
 8    1  0.2509489E-006  0.9118800E+02  0.7816164E-02  0.1184000E+00
        -11   -1    0    0    0    0  0.00000000000E+00  0.00000000000E+00  0.45593999997E+02  0.45594000000E+02  0.51100000000E-03 0.  1.
         11   -1    0    0    0    0 -0.00000000000E+00 -0.00000000000E+00 -0.45593999997E+02  0.45594000000E+02  0.51100000000E-03 0. -1.
         23    2    1    2    0    0  0.00000000000E+00  0.88817841970E-15 -0.35527136788E-14  0.91188000000E+02  0.91188000000E+02 0.  0.
    9900012    2    3    3    0    0  0.21337648711E+02 -0.63034758007E+01 -0.29338562971E+02  0.54367077458E+02  0.39999984681E+02 0.  0.
        -12    1    3    3    0    0 -0.21337648711E+02  0.63034758007E+01  0.29338562971E+02  0.36820922542E+02  0.00000000000E+00 0.  1.
         11    1    4    4    0    0 -0.40051541395E+01 -0.15472669693E+02 -0.68845075775E+01  0.17402333521E+02  0.51100000000E-03 0. -1.
        -11    1    4    4    0    0  0.67719883667E+01  0.15832904779E+01 -0.13573527747E+00  0.69559369967E+01  0.51100000000E-03 0.  1.
         12    1    4    4    0    0  0.18570814483E+02  0.75859034147E+01 -0.22318320116E+02  0.30008806940E+02  0.00000000000E+00 0. -1.
</event>
<event>
 8    1  0.2509489E-006  0.9118800E+02  0.7816164E-02  0.1184000E+00
        -11   -1    0    0    0    0  0.00000000000E+00  0.00000000000E+00  0.45593999997E+02  0.45594000000E+02  0.51100000000E-03 0. -1.
         11   -1    0    0    0    0 -0.00000000000E+00 -0.00000000000E+00 -0.45593999997E+02  0.45594000000E+02  0.51100000000E-03 0.  1.
         23    2    1    2    0    0  0.00000000000E+00  0.88817841970E-15  0.00000000000E+00  0.91188000000E+02  0.91188000000E+02 0.  0.
    9900012    2    3    3    0    0 -0.26009552395E+02 -0.72312359922E+01  0.25039815884E+02  0.54367082449E+02  0.39999996060E+02 0.  0.
        -12    1    3    3    0    0  0.26009552395E+02  0.72312359922E+01 -0.25039815884E+02  0.36820917551E+02  0.00000000000E+00 0.  1.
         11    1    4    4    0    0 -0.24495225257E+02  0.67179302156E+01  0.24201747700E+02  0.35083774579E+02  0.51100000000E-03 0. -1.
        -11    1    4    4    0    0 -0.36455280628E+01  0.12145733442E+01  0.99677191343E+00  0.39697125556E+01  0.51100000000E-03 0.  1.
         12    1    4    4    0    0  0.21312009244E+01 -0.15163739552E+02 -0.15870372908E+00  0.15313595314E+02  0.00000000000E+00 0. -1.
</event>
<event>
 8    1  0.2509489E-006  0.9118800E+02  0.7816164E-02  0.1184000E+00
        -11   -1    0    0    0    0  0.00000000000E+00  0.00000000000E+00  0.45593999997E+02  0.45594000000E+02  0.51100000000E-03 0. -1.
         11   -1    0    0    0    0 -0.00000000000E+00 -0.00000000000E+00 -0.45593999997E+02  0.45594000000E+02  0.51100000000E-03 0.  1.
         23    2    1    2    0    0 -0.35527136788E-14  0.88817841970E-15  0.00000000000E+00  0.91188000000E+02  0.91188000000E+02 0.  0.
    9900012    2    3    3    0    0  0.15864993226E+02 -0.61409333244E+01 -0.32655353562E+02  0.54367065894E+02  0.39999958319E+02 0.  0.
         12    1    3    3    0    0 -0.15864993226E+02  0.61409333244E+01  0.32655353562E+02  0.36820934106E+02  0.00000000000E+00 0. -1.
         11    1    4    4    0    0  0.17212597623E+02 -0.70768946346E+01 -0.12632573057E+02  0.22493062417E+02  0.51100000000E-03 0. -1.
        -11    1    4    4    0    0  0.55254446071E+01 -0.37692081280E+01 -0.22265173157E+02  0.23248126892E+02  0.51100000000E-03 0.  1.
        -12    1    4    4    0    0 -0.68730490043E+01  0.47051694382E+01  0.22423926519E+01  0.86258765852E+01  0.00000000000E+00 0.  1.
</event>
<event>
 8    1  0.2509489E-006  0.9118800E+02  0.7816164E-02  0.1184000E+00
        -11   -1    0    0    0    0  0.00000000000E+00  0.00000000000E+00  0.45593999997E+02  0.45594000000E+02  0.51100000000E-03 0. -1.
         11   -1    0    0    0    0 -0.00000000000E+00 -0.00000000000E+00 -0.45593999997E+02  0.45594000000E+02  0.51100000000E-03 0.  1.
         23    2    1    2    0    0  0.00000000000E+00  0.00000000000E+00 -0.35527136788E-14  0.91188000000E+02  0.91188000000E+02 0.  0.
    9900012    2    3    3    0    0 -0.20029423074E+02  0.60026230454E+01  0.30307887362E+02  0.54367118581E+02  0.40000078430E+02 0.  0.
        -12    1    3    3    0    0  0.20029423074E+02 -0.60026230454E+01 -0.30307887362E+02  0.36820881419E+02  0.00000000000E+00 0.  1.
         11    1    4    4    0    0  0.35537847583E+01 -0.23999206840E+01  0.13975874963E+02  0.14618963255E+02  0.51100000000E-03 0. -1.
        -11    1    4    4    0    0 -0.11815371663E+02  0.51722185665E+01  0.22606001141E+02  0.26026642893E+02  0.51100000000E-03 0.  1.
        -12    1    4    4    0    0 -0.11767836169E+02  0.32303251629E+01 -0.62739887414E+01  0.13721512434E+02  0.00000000000E+00 0.  1.
</event>
<event>
 8    1  0.2509489E-006  0.9118800E+02  0.7816164E-02  0.1184000E+00
        -11   -1    0    0    0    0  0.00000000000E+00  0.00000000000E+00  0.45593999997E+02  0.45594000000E+02  0.51100000000E-03 0.  1.
         11   -1    0    0    0    0 -0.00000000000E+00 -0.00000000000E+00 -0.45593999997E+02  0.45594000000E+02  0.51100000000E-03 0. -1.
         23    2    1    2    0    0  0.00000000000E+00  0.00000000000E+00  0.26645352591E-14  0.91188000000E+02  0.91188000000E+02 0.  0.
    9900012    2    3    3    0    0 -0.35437786555E+02  0.79591011376E+01 -0.60494588495E+01  0.54367082586E+02  0.39999996370E+02 0.  0.
        -12    1    3    3    0    0  0.35437786555E+02 -0.79591011376E+01  0.60494588495E+01  0.36820917414E+02  0.00000000000E+00 0.  1.
         11    1    4    4    0    0 -0.22439618515E+02  0.26961909901E+01  0.10481571772E+02  0.24913234877E+02  0.51100000000E-03 0. -1.
        -11    1    4    4    0    0 -0.13729729884E+02  0.11364908794E+02 -0.14515078432E+02  0.22985955205E+02  0.51100000000E-03 0.  1.
        -12    1    4    4    0    0  0.73156184296E+00 -0.61019986460E+01 -0.20159521898E+01  0.64678925036E+01  0.00000000000E+00 0.  1.
</event>
<event>
 8    1  0.2509489E-006  0.9118800E+02  0.7816164E-02  0.1184000E+00
        -11   -1    0    0    0    0  0.00000000000E+00  0.00000000000E+00  0.45593999997E+02  0.45594000000E+02  0.51100000000E-03 0.  1.
         11   -1    0    0    0    0 -0.00000000000E+00 -0.00000000000E+00 -0.45593999997E+02  0.45594000000E+02  0.51100000000E-03 0. -1.
         23    2    1    2    0    0  0.00000000000E+00 -0.88817841970E-15 -0.71054273576E-14  0.91188000000E+02  0.91188000000E+02 0.  0.
    9900012    2    3    3    0    0 -0.11836450836E+02 -0.65705080823E+01 -0.34241886349E+02  0.54367083042E+02  0.39999997412E+02 0.  0.
        -12    1    3    3    0    0  0.11836450836E+02  0.65705080823E+01  0.34241886349E+02  0.36820916958E+02  0.00000000000E+00 0.  1.
         11    1    4    4    0    0 -0.31969960078E+01 -0.25267391050E+01  0.33098495706E+01  0.52497903215E+01  0.51100000000E-03 0. -1.
        -11    1    4    4    0    0  0.27728393774E+01  0.11425638320E+02 -0.19361221882E+02  0.22651506843E+02  0.51100000000E-03 0.  1.
         12    1    4    4    0    0 -0.11412294206E+02 -0.15469407298E+02 -0.18190514038E+02  0.26465785878E+02  0.00000000000E+00 0. -1.
</event>
<event>
 8    1  0.2509489E-006  0.9118800E+02  0.7816164E-02  0.1184000E+00
        -11   -1    0    0    0    0  0.00000000000E+00  0.00000000000E+00  0.45593999997E+02  0.45594000000E+02  0.51100000000E-03 0. -1.
         11   -1    0    0    0    0 -0.00000000000E+00 -0.00000000000E+00 -0.45593999997E+02  0.45594000000E+02  0.51100000000E-03 0.  1.
         23    2    1    2    0    0  0.17763568394E-14  0.35527136788E-14  0.00000000000E+00  0.91188000000E+02  0.91188000000E+02 0.  0.
    9900012    2    3    3    0    0  0.15965311893E+02  0.21961371676E+02 -0.24871400736E+02  0.54367087406E+02  0.40000007359E+02 0.  0.
         12    1    3    3    0    0 -0.15965311893E+02 -0.21961371676E+02  0.24871400736E+02  0.36820912594E+02  0.00000000000E+00 0. -1.
         11    1    4    4    0    0  0.20099842356E+02 -0.23386073468E+01 -0.66223785768E+01  0.21291515807E+02  0.51100000000E-03 0. -1.
        -11    1    4    4    0    0 -0.72603707283E+01  0.13089007587E+02 -0.58513278327E+01  0.16070878644E+02  0.51100000000E-03 0.  1.
         12    1    4    4    0    0  0.31258402654E+01  0.11210971435E+02 -0.12397694326E+02  0.17004692955E+02  0.00000000000E+00 0. -1.
</event>
<event>
 8    1  0.2509489E-006  0.9118800E+02  0.7816164E-02  0.1184000E+00
        -11   -1    0    0    0    0  0.00000000000E+00  0.00000000000E+00  0.45593999997E+02  0.45594000000E+02  0.51100000000E-03 0.  1.
         11   -1    0    0    0    0 -0.00000000000E+00 -0.00000000000E+00 -0.45593999997E+02  0.45594000000E+02  0.51100000000E-03 0. -1.
         23    2    1    2    0    0  0.17763568394E-14 -0.11102230246E-14  0.00000000000E+00  0.91188000000E+02  0.91188000000E+02 0.  0.
    9900012    2    3    3    0    0  0.11034216060E+02  0.16620596155E+01  0.35089355528E+02  0.54367092385E+02  0.40000018709E+02 0.  0.
         12    1    3    3    0    0 -0.11034216060E+02 -0.16620596155E+01 -0.35089355528E+02  0.36820907615E+02  0.00000000000E+00 0. -1.
         11    1    4    4    0    0 -0.17182801891E+01 -0.41822982171E+01 -0.39496516967E+01  0.60036533853E+01  0.51100000000E-03 0. -1.
        -11    1    4    4    0    0  0.12801583686E+02 -0.40223001975E+01  0.35381476986E+02  0.37840564976E+02  0.51100000000E-03 0.  1.
        -12    1    4    4    0    0 -0.49087437235E-01  0.98666580300E+01  0.36575302393E+01  0.10522874023E+02  0.00000000000E+00 0.  1.
</event>
<event>
 8    1  0.2509489E-006  0.9118800E+02  0.7816164E-02  0.1184000E+00
        -11   -1    0    0    0    0  0.00000000000E+00  0.00000000000E+00  0.45593999997E+02  0.45594000000E+02  0.51100000000E-03 0.  1.
         11   -1    0    0    0    0 -0.00000000000E+00 -0.00000000000E+00 -0.45593999997E+02  0.45594000000E+02  0.51100000000E-03 0. -1.
         23    2    1    2    0    0  0.26645352591E-14  0.53290705182E-14  0.00000000000E+00  0.91188000000E+02  0.91188000000E+02 0.  0.
    9900012    2    3    3    0    0  0.54193120828E+01  0.15213975518E+02 -0.33089958348E+02  0.54367091021E+02  0.40000015601E+02 0.  0.
        -12    1    3    3    0    0 -0.54193120828E+01 -0.15213975518E+02  0.33089958348E+02  0.36820908979E+02  0.00000000000E+00 0.  1.
         11    1    4    4    0    0  0.19306494022E+01 -0.24142232796E+00 -0.31695088369E+02  0.31754752697E+02  0.51100000000E-03 0. -1.
        -11    1    4    4    0    0 -0.21324406763E+01 -0.23687288910E+01  0.17869544191E+01  0.36539548648E+01  0.51100000000E-03 0.  1.
        -12    1    4    4    0    0  0.56211033568E+01  0.17824126737E+02 -0.31818243986E+01  0.18958383460E+02  0.00000000000E+00 0.  1.
</event>
<event>
 8    1  0.2509489E-006  0.9118800E+02  0.7816164E-02  0.1184000E+00
        -11   -1    0    0    0    0  0.00000000000E+00  0.00000000000E+00  0.45593999997E+02  0.45594000000E+02  0.51100000000E-03 0.  1.
         11   -1    0    0    0    0 -0.00000000000E+00 -0.00000000000E+00 -0.45593999997E+02  0.45594000000E+02  0.51100000000E-03 0. -1.
         23    2    1    2    0    0  0.00000000000E+00  0.00000000000E+00  0.00000000000E+00  0.91188000000E+02  0.91188000000E+02 0.  0.
    9900012    2    3    3    0    0  0.32941176519E+02  0.80718481975E+01  0.14335410226E+02  0.54367084339E+02  0.40000000367E+02 0.  0.
         12    1    3    3    0    0 -0.32941176519E+02 -0.80718481975E+01 -0.14335410226E+02  0.36820915661E+02  0.00000000000E+00 0. -1.
         11    1    4    4    0    0  0.13609465817E+02  0.80153209141E+01 -0.39527461458E+01  0.16281496600E+02  0.51100000000E-03 0. -1.
        -11    1    4    4    0    0  0.14308282111E+02  0.12859655526E+02  0.76709540548E+01  0.20710896011E+02  0.51100000000E-03 0.  1.
         12    1    4    4    0    0  0.50234285912E+01 -0.12803128242E+02  0.10617202317E+02  0.17374691728E+02  0.00000000000E+00 0. -1.
</event>
<event>
 8    1  0.2509489E-006  0.9118800E+02  0.7816164E-02  0.1184000E+00
        -11   -1    0    0    0    0  0.00000000000E+00  0.00000000000E+00  0.45593999997E+02  0.45594000000E+02  0.51100000000E-03 0.  1.
         11   -1    0    0    0    0 -0.00000000000E+00 -0.00000000000E+00 -0.45593999997E+02  0.45594000000E+02  0.51100000000E-03 0. -1.
         23    2    1    2    0    0 -0.17763568394E-14  0.35527136788E-14 -0.35527136788E-14  0.91188000000E+02  0.91188000000E+02 0.  0.
    9900012    2    3    3    0    0  0.10994785143E+02 -0.16374376752E+02  0.31092976707E+02  0.54367099483E+02  0.40000034892E+02 0.  0.
         12    1    3    3    0    0 -0.10994785143E+02  0.16374376752E+02 -0.31092976707E+02  0.36820900517E+02  0.00000000000E+00 0. -1.
         11    1    4    4    0    0 -0.12496804736E+02 -0.93431685053E+01  0.19288968114E+02  0.24809861295E+02  0.51100000000E-03 0. -1.
        -11    1    4    4    0    0  0.19630229319E+02 -0.58156333345E+01  0.14141457066E+02  0.24882690819E+02  0.51100000000E-03 0.  1.
         12    1    4    4    0    0  0.38613605602E+01 -0.12155749123E+01 -0.23374484727E+01  0.46745473690E+01  0.00000000000E+00 0. -1.
</event>
<event>
 8    1  0.2509489E-006  0.9118800E+02  0.7816164E-02  0.1184000E+00
        -11   -1    0    0    0    0  0.00000000000E+00  0.00000000000E+00  0.45593999997E+02  0.45594000000E+02  0.51100000000E-03 0.  1.
         11   -1    0    0    0    0 -0.00000000000E+00 -0.00000000000E+00 -0.45593999997E+02  0.45594000000E+02  0.51100000000E-03 0. -1.
         23    2    1    2    0    0 -0.35527136788E-14  0.00000000000E+00 -0.88817841970E-15  0.91188000000E+02  0.91188000000E+02 0.  0.
    9900012    2    3    3    0    0 -0.25088619129E+02 -0.26611450407E+02 -0.42629120821E+01  0.54367074944E+02  0.39999978950E+02 0.  0.
         12    1    3    3    0    0  0.25088619129E+02  0.26611450407E+02  0.42629120821E+01  0.36820925056E+02  0.00000000000E+00 0. -1.
         11    1    4    4    0    0 -0.12789745575E+02 -0.29650148956E+02 -0.25058080814E+01  0.32388084220E+02  0.51100000000E-03 0. -1.
        -11    1    4    4    0    0 -0.79480489329E+01  0.92367998498E+00 -0.97642035248E+01  0.12623958860E+02  0.51100000000E-03 0.  1.
         12    1    4    4    0    0 -0.43508246205E+01  0.21150185642E+01  0.80070995240E+01  0.93550318649E+01  0.00000000000E+00 0. -1.
</event>
<event>
 8    1  0.2509489E-006  0.9118800E+02  0.7816164E-02  0.1184000E+00
        -11   -1    0    0    0    0  0.00000000000E+00  0.00000000000E+00  0.45593999997E+02  0.45594000000E+02  0.51100000000E-03 0.  1.
         11   -1    0    0    0    0 -0.00000000000E+00 -0.00000000000E+00 -0.45593999997E+02  0.45594000000E+02  0.51100000000E-03 0. -1.
         23    2    1    2    0    0  0.00000000000E+00 -0.35527136788E-14  0.00000000000E+00  0.91188000000E+02  0.91188000000E+02 0.  0.
    9900012    2    3    3    0    0  0.24968276708E+02  0.18180349425E+02 -0.20045930036E+02  0.54367092108E+02  0.40000018079E+02 0.  0.
        -12    1    3    3    0    0 -0.24968276708E+02 -0.18180349425E+02  0.20045930036E+02  0.36820907892E+02  0.00000000000E+00 0.  1.
         11    1    4    4    0    0  0.16950375122E+02  0.20429890723E+02 -0.12430135902E+02  0.29312180583E+02  0.51100000000E-03 0. -1.
        -11    1    4    4    0    0  0.83318911990E+01 -0.11149108300E+02 -0.81584316091E+01  0.16133289603E+02  0.51100000000E-03 0.  1.
        -12    1    4    4    0    0 -0.31398961234E+00  0.88995670018E+01  0.54263747581E+00  0.89216219224E+01  0.00000000000E+00 0.  1.
</event>
<event>
 8    1  0.2509489E-006  0.9118800E+02  0.7816164E-02  0.1184000E+00
        -11   -1    0    0    0    0  0.00000000000E+00  0.00000000000E+00  0.45593999997E+02  0.45594000000E+02  0.51100000000E-03 0. -1.
         11   -1    0    0    0    0 -0.00000000000E+00 -0.00000000000E+00 -0.45593999997E+02  0.45594000000E+02  0.51100000000E-03 0.  1.
         23    2    1    2    0    0  0.00000000000E+00 -0.13322676296E-14  0.00000000000E+00  0.91188000000E+02  0.91188000000E+02 0.  0.
    9900012    2    3    3    0    0  0.23125172155E+02  0.15988712549E+01 -0.28608587505E+02  0.54367064983E+02  0.39999956241E+02 0.  0.
         12    1    3    3    0    0 -0.23125172155E+02 -0.15988712549E+01  0.28608587505E+02  0.36820935017E+02  0.00000000000E+00 0. -1.
         11    1    4    4    0    0  0.76331758309E+00 -0.68740434475E+01  0.60511201902E+01  0.91897324699E+01  0.51100000000E-03 0. -1.
        -11    1    4    4    0    0  0.88401051372E+01 -0.47122151260E+01 -0.13573271117E+02  0.16869680475E+02  0.51100000000E-03 0.  1.
        -12    1    4    4    0    0  0.13521749435E+02  0.13185129828E+02 -0.21086436578E+02  0.28307652039E+02  0.00000000000E+00 0.  1.
</event>
<event>
 8    1  0.2509489E-006  0.9118800E+02  0.7816164E-02  0.1184000E+00
        -11   -1    0    0    0    0  0.00000000000E+00  0.00000000000E+00  0.45593999997E+02  0.45594000000E+02  0.51100000000E-03 0. -1.
         11   -1    0    0    0    0 -0.00000000000E+00 -0.00000000000E+00 -0.45593999997E+02  0.45594000000E+02  0.51100000000E-03 0.  1.
         23    2    1    2    0    0  0.88817841970E-15  0.00000000000E+00  0.71054273576E-14  0.91188000000E+02  0.91188000000E+02 0.  0.
    9900012    2    3    3    0    0  0.58706565609E+01 -0.15202807134E+02  0.33018019634E+02  0.54367087820E+02  0.40000008304E+02 0.  0.
        -12    1    3    3    0    0 -0.58706565609E+01  0.15202807134E+02 -0.33018019634E+02  0.36820912180E+02  0.00000000000E+00 0.  1.
         11    1    4    4    0    0 -0.70756551946E+00 -0.20410285552E+02  0.20335616184E+02  0.28820438774E+02  0.51100000000E-03 0. -1.
        -11    1    4    4    0    0  0.21336980934E+01  0.42323131730E+01 -0.52341781619E+01  0.70612862596E+01  0.51100000000E-03 0.  1.
         12    1    4    4    0    0  0.44445239870E+01  0.97516524479E+00  0.17916581611E+02  0.18485362787E+02  0.00000000000E+00 0. -1.
</event>
<event>
 8    1  0.2509489E-006  0.9118800E+02  0.7816164E-02  0.1184000E+00
        -11   -1    0    0    0    0  0.00000000000E+00  0.00000000000E+00  0.45593999997E+02  0.45594000000E+02  0.51100000000E-03 0.  1.
         11   -1    0    0    0    0 -0.00000000000E+00 -0.00000000000E+00 -0.45593999997E+02  0.45594000000E+02  0.51100000000E-03 0. -1.
         23    2    1    2    0    0  0.17763568394E-14  0.00000000000E+00  0.00000000000E+00  0.91188000000E+02  0.91188000000E+02 0.  0.
    9900012    2    3    3    0    0  0.11360522266E+02 -0.34995965799E+02 -0.14138425694E+01  0.54367108658E+02  0.40000055809E+02 0.  0.
         12    1    3    3    0    0 -0.11360522266E+02  0.34995965799E+02  0.14138425694E+01  0.36820891342E+02  0.00000000000E+00 0. -1.
         11    1    4    4    0    0 -0.17246345726E+01  0.31317655909E+01  0.23639442658E+01  0.42860882956E+01  0.51100000000E-03 0. -1.
        -11    1    4    4    0    0  0.38155106245E+01 -0.30449048940E+02  0.95340018576E+01  0.32134092400E+02  0.51100000000E-03 0.  1.
        -12    1    4    4    0    0  0.92696462144E+01 -0.76786824500E+01 -0.13311788693E+02  0.17946927963E+02  0.00000000000E+00 0.  1.
</event>
<event>
 8    1  0.2509489E-006  0.9118800E+02  0.7816164E-02  0.1184000E+00
        -11   -1    0    0    0    0  0.00000000000E+00  0.00000000000E+00  0.45593999997E+02  0.45594000000E+02  0.51100000000E-03 0.  1.
         11   -1    0    0    0    0 -0.00000000000E+00 -0.00000000000E+00 -0.45593999997E+02  0.45594000000E+02  0.51100000000E-03 0. -1.
         23    2    1    2    0    0  0.00000000000E+00  0.17763568394E-14  0.00000000000E+00  0.91188000000E+02  0.91188000000E+02 0.  0.
    9900012    2    3    3    0    0 -0.18715880723E+02 -0.13147753522E+02 -0.28855301233E+02  0.54367136034E+02  0.40000118217E+02 0.  0.
        -12    1    3    3    0    0  0.18715880723E+02  0.13147753522E+02  0.28855301233E+02  0.36820863966E+02  0.00000000000E+00 0.  1.
         11    1    4    4    0    0 -0.71296720971E+01 -0.15510294387E+01 -0.38070958349E+01  0.82299389724E+01  0.51100000000E-03 0. -1.
        -11    1    4    4    0    0 -0.58355924264E+01  0.41385416922E+01 -0.28197242993E+02  0.29090654496E+02  0.51100000000E-03 0.  1.
        -12    1    4    4    0    0 -0.57506161997E+01 -0.15735265775E+02  0.31490375950E+01  0.17046542566E+02  0.00000000000E+00 0.  1.
</event>
<event>
 8    1  0.2509489E-006  0.9118800E+02  0.7816164E-02  0.1184000E+00
        -11   -1    0    0    0    0  0.00000000000E+00  0.00000000000E+00  0.45593999997E+02  0.45594000000E+02  0.51100000000E-03 0.  1.
         11   -1    0    0    0    0 -0.00000000000E+00 -0.00000000000E+00 -0.45593999997E+02  0.45594000000E+02  0.51100000000E-03 0. -1.
         23    2    1    2    0    0 -0.35527136788E-14  0.00000000000E+00 -0.17763568394E-14  0.91188000000E+02  0.91188000000E+02 0.  0.
    9900012    2    3    3    0    0  0.23067820566E+02  0.25779355272E+02  0.12612753433E+02  0.54367067733E+02  0.39999962510E+02 0.  0.
         12    1    3    3    0    0 -0.23067820566E+02 -0.25779355272E+02 -0.12612753433E+02  0.36820932267E+02  0.00000000000E+00 0. -1.
         11    1    4    4    0    0  0.16116241571E+02  0.67479882168E+01  0.18500446338E+02  0.25446711031E+02  0.51100000000E-03 0. -1.
        -11    1    4    4    0    0  0.36144024758E+01  0.85460644856E+01  0.72556956479E+01  0.11778974618E+02  0.51100000000E-03 0.  1.
         12    1    4    4    0    0  0.33371765192E+01  0.10485302569E+02 -0.13143388553E+02  0.17141382084E+02  0.00000000000E+00 0. -1.
</event>
<event>
 8    1  0.2509489E-006  0.9118800E+02  0.7816164E-02  0.1184000E+00
        -11   -1    0    0    0    0  0.00000000000E+00  0.00000000000E+00  0.45593999997E+02  0.45594000000E+02  0.51100000000E-03 0.  1.
         11   -1    0    0    0    0 -0.00000000000E+00 -0.00000000000E+00 -0.45593999997E+02  0.45594000000E+02  0.51100000000E-03 0. -1.
         23    2    1    2    0    0  0.00000000000E+00  0.00000000000E+00  0.00000000000E+00  0.91188000000E+02  0.91188000000E+02 0.  0.
    9900012    2    3    3    0    0 -0.23507559316E+02 -0.97512984460E+01 -0.26609912005E+02  0.54367074112E+02  0.39999977053E+02 0.  0.
        -12    1    3    3    0    0  0.23507559316E+02  0.97512984460E+01  0.26609912005E+02  0.36820925888E+02  0.00000000000E+00 0.  1.
         11    1    4    4    0    0 -0.18474539527E+02 -0.64653303706E+01 -0.24563793672E+02  0.31408423510E+02  0.51100000000E-03 0. -1.
        -11    1    4    4    0    0  0.15977568479E+01  0.86479852322E+01 -0.29512608025E+01  0.92763363516E+01  0.51100000000E-03 0.  1.
         12    1    4    4    0    0 -0.66307766360E+01 -0.11933953308E+02  0.90514247019E+00  0.13682314250E+02  0.00000000000E+00 0. -1.
</event>
<event>
 8    1  0.2509489E-006  0.9118800E+02  0.7816164E-02  0.1184000E+00
        -11   -1    0    0    0    0  0.00000000000E+00  0.00000000000E+00  0.45593999997E+02  0.45594000000E+02  0.51100000000E-03 0. -1.
         11   -1    0    0    0    0 -0.00000000000E+00 -0.00000000000E+00 -0.45593999997E+02  0.45594000000E+02  0.51100000000E-03 0.  1.
         23    2    1    2    0    0  0.35527136788E-14 -0.71054273576E-14  0.11102230246E-14  0.91188000000E+02  0.91188000000E+02 0.  0.
    9900012    2    3    3    0    0  0.15361412305E+02 -0.33448446549E+02 -0.10039941429E+01  0.54367087888E+02  0.40000008458E+02 0.  0.
         12    1    3    3    0    0 -0.15361412305E+02  0.33448446549E+02  0.10039941429E+01  0.36820912112E+02  0.00000000000E+00 0. -1.
         11    1    4    4    0    0  0.39871503460E+01 -0.35627234133E+02 -0.94555328473E+01  0.37075656185E+02  0.51100000000E-03 0. -1.
        -11    1    4    4    0    0  0.51116640346E+01 -0.40705763803E+00  0.91409271100E+01  0.10480999657E+02  0.51100000000E-03 0.  1.
         12    1    4    4    0    0  0.62625979249E+01  0.25858452221E+01 -0.68938840564E+00  0.68104320461E+01  0.00000000000E+00 0. -1.
</event>
<event>
 8    1  0.2509489E-006  0.9118800E+02  0.7816164E-02  0.1184000E+00
        -11   -1    0    0    0    0  0.00000000000E+00  0.00000000000E+00  0.45593999997E+02  0.45594000000E+02  0.51100000000E-03 0.  1.
         11   -1    0    0    0    0 -0.00000000000E+00 -0.00000000000E+00 -0.45593999997E+02  0.45594000000E+02  0.51100000000E-03 0. -1.
         23    2    1    2    0    0 -0.33306690739E-15  0.00000000000E+00  0.71054273576E-14  0.91188000000E+02  0.91188000000E+02 0.  0.
    9900012    2    3    3    0    0 -0.99302065379E+00 -0.32458501806E+02  0.17356239639E+02  0.54367089040E+02  0.40000011084E+02 0.  0.
         12    1    3    3    0    0  0.99302065379E+00  0.32458501806E+02 -0.17356239639E+02  0.36820910960E+02  0.00000000000E+00 0. -1.
         11    1    4    4    0    0 -0.86026573454E+01 -0.37081470575E+01 -0.23871813396E+01  0.96671972677E+01  0.51100000000E-03 0. -1.
        -11    1    4    4    0    0 -0.64184764842E+01 -0.22461457750E+02  0.17445560338E+02  0.29155814178E+02  0.51100000000E-03 0.  1.
         12    1    4    4    0    0  0.14028113176E+02 -0.62888969989E+01  0.22978606413E+01  0.15544077594E+02  0.00000000000E+00 0. -1.
</event>
